Protein in INSANE! Membrane UpperLeaflet>POPC=1.0 LowerLeaflet>POPC=1.0
249047
   14AUC    AUC    1  29.719   7.114   7.501
   15AUC    AUC    2  29.964   7.114   7.349
   16AUC    AUC    3  29.964   7.114   7.652
   17AUC    AUC    4  29.473   7.114   7.349
   18AUC    AUC    5  29.473   7.114   7.652
   19AUC    AUC    6  29.567   7.359   7.501
   20AUC    AUC    7  29.870   7.359   7.501
   21AUC    AUC    8  29.567   6.868   7.501
   22AUC    AUC    9  29.870   6.868   7.501
   23AUC    AUC   10  29.719   6.962   7.746
   24AUC    AUC   11  29.719   7.265   7.746
   25AUC    AUC   12  29.719   6.962   7.255
   26AUC    AUC   13  29.719   7.265   7.255
   27AUC    AUC   14  30.210   7.114   7.197
   28AUC    AUC   15  30.210   7.114   7.501
   29AUC    AUC   16  30.210   7.114   7.804
   30AUC    AUC   17  29.228   7.114   7.197
   31AUC    AUC   18  29.228   7.114   7.501
   32AUC    AUC   19  29.228   7.114   7.804
   33AUC    AUC   20  29.415   7.604   7.501
   34AUC    AUC   21  29.719   7.604   7.501
   35AUC    AUC   22  30.022   7.604   7.501
   36AUC    AUC   23  29.415   6.623   7.501
   37AUC    AUC   24  29.719   6.623   7.501
   38AUC    AUC   25  30.022   6.623   7.501
   39AUC    AUC   26  29.719   6.810   7.991
   40AUC    AUC   27  29.719   7.114   7.991
   41AUC    AUC   28  29.719   7.417   7.991
   42AUC    AUC   29  29.719   6.810   7.010
   43AUC    AUC   30  29.719   7.114   7.010
   44AUC    AUC   31  29.719   7.417   7.010
   45AUC    AUC   32  29.964   6.962   7.898
   46AUC    AUC   33  29.964   7.265   7.898
   47AUC    AUC   34  29.964   6.962   7.103
   48AUC    AUC   35  29.964   7.265   7.103
   49AUC    AUC   36  29.473   6.962   7.898
   50AUC    AUC   37  29.473   7.265   7.898
   51AUC    AUC   38  29.473   6.962   7.103
   52AUC    AUC   39  29.473   7.265   7.103
   53AUC    AUC   40  30.116   7.359   7.349
   54AUC    AUC   41  30.116   7.359   7.652
   55AUC    AUC   42  29.322   7.359   7.349
   56AUC    AUC   43  29.322   7.359   7.652
   57AUC    AUC   44  30.116   6.868   7.349
   58AUC    AUC   45  30.116   6.868   7.652
   59AUC    AUC   46  29.322   6.868   7.349
   60AUC    AUC   47  29.322   6.868   7.652
   61AUC    AUC   48  29.567   7.511   7.746
   62AUC    AUC   49  29.870   7.511   7.746
   63AUC    AUC   50  29.567   6.717   7.746
   64AUC    AUC   51  29.870   6.717   7.746
   65AUC    AUC   52  29.567   7.511   7.255
   66AUC    AUC   53  29.870   7.511   7.255
   67AUC    AUC   54  29.567   6.717   7.255
   68AUC    AUC   55  29.870   6.717   7.255
   69AUSL   AUS   56  30.128   7.114   8.081
   70AUSL   AUS   57  29.984   6.697   8.011
   71AUL    AUL   58  30.210   6.810   8.295
   72THSLK    S   59  30.111   6.509   8.163
   73ETHY    C1   60  30.269   6.188   8.456
   74ETHY    C1   61  30.517   5.875   8.845
   75THSLK    S   62  30.233   7.074   8.333
   76ETHY    C1   63  30.476   7.007   8.720
   77ETHY    C1   64  30.769   7.026   9.194
   78AUSL   AUS   65  29.882   6.962   8.174
   79AUSL   AUS   66  29.555   7.265   8.174
   80AUL    AUL   67  29.719   7.114   8.482
   81THSLK    S   68  29.969   6.916   8.426
   82ETHY    C1   69  30.082   6.775   8.852
   83ETHY    C1   70  30.231   6.704   9.385
   84THSLK    S   71  29.467   7.234   8.439
   85ETHY    C1   72  29.362   7.245   8.889
   86ETHY    C1   73  29.212   7.353   9.415
   87AUSL   AUS   74  29.882   7.265   8.174
   88AUSL   AUS   75  30.229   7.378   7.917
   89AUL    AUL   76  30.210   7.417   8.295
   90THSLK    S   77  29.970   7.311   8.426
   91ETHY    C1   78  30.076   7.451   8.854
   92ETHY    C1   79  30.226   7.523   9.386
   93THSLK    S   80  30.409   7.494   8.082
   94ETHY    C1   81  30.754   7.629   8.358
   95ETHY    C1   82  31.129   7.883   8.683
   96AUSL   AUS   83  30.128   7.114   6.921
   97AUSL   AUS   84  29.984   7.530   6.990
   98AUL    AUL   85  30.210   7.417   6.706
   99THSLK    S   86  30.234   7.074   6.668
  100ETHY    C1   87  30.471   7.007   6.278
  101ETHY    C1   88  30.764   7.026   5.804
  102THSLK    S   89  30.159   7.658   6.816
  103ETHY    C1   90  30.390   7.876   6.480
  104ETHY    C1   91  30.616   8.218   6.102
  105AUSL   AUS   92  29.882   6.962   6.827
  106AUSL   AUS   93  30.229   6.849   7.084
  107AUL    AUL   94  30.210   6.810   6.706
  108THSLK    S   95  30.375   6.662   6.932
  109ETHY    C1   96  30.659   6.408   6.670
  110ETHY    C1   97  31.051   6.188   6.340
  111THSLK    S   98  29.970   6.916   6.575
  112ETHY    C1   99  30.076   6.776   6.147
  113ETHY    C1  100  30.226   6.704   5.615
  114AUSL   AUS  101  29.882   7.265   6.827
  115AUSL   AUS  102  29.555   6.962   6.827
  116AUL    AUL  103  29.719   7.114   6.519
  117THSLK    S  104  29.455   6.916   6.579
  118ETHY    C1  105  29.321   6.778   6.158
  119ETHY    C1  106  29.178   6.706   5.624
  120THSLK    S  107  29.983   7.233   6.566
  121ETHY    C1  108  30.110   7.242   6.121
  122ETHY    C1  109  30.254   7.351   5.594
  123AUSL   AUS  110  29.310   7.114   8.081
  124AUSL   AUS  111  29.454   7.530   8.011
  125AUL    AUL  112  29.228   7.417   8.295
  126THSLK    S  113  29.204   7.074   8.333
  127ETHY    C1  114  28.967   7.007   8.723
  128ETHY    C1  115  28.673   7.026   9.197
  129THSLK    S  116  29.326   7.672   8.202
  130ETHY    C1  117  29.173   7.917   8.563
  131ETHY    C1  118  28.925   8.252   8.933
  132AUSL   AUS  119  29.555   6.962   8.174
  133AUSL   AUS  120  29.209   6.849   7.917
  134AUL    AUL  121  29.228   6.810   8.295
  135THSLK    S  122  29.028   6.681   8.043
  136ETHY    C1  123  28.687   6.455   8.259
  137ETHY    C1  124  28.311   6.227   8.602
  138THSLK    S  125  29.455   6.916   8.422
  139ETHY    C1  126  29.327   6.777   8.844
  140ETHY    C1  127  29.183   6.705   9.378
  141AUSL   AUS  128  29.310   7.114   6.921
  142AUSL   AUS  129  29.454   6.697   6.990
  143AUL    AUL  130  29.228   6.810   6.706
  144THSLK    S  131  29.205   7.074   6.668
  145ETHY    C1  132  28.961   7.007   6.281
  146ETHY    C1  133  28.669   7.026   5.807
  147THSLK    S  134  29.280   6.523   6.855
  148ETHY    C1  135  29.043   6.230   6.587
  149ETHY    C1  136  28.818   5.909   6.190
  150AUSL   AUS  137  29.555   7.265   6.827
  151AUSL   AUS  138  29.209   7.378   7.084
  152AUL    AUL  139  29.228   7.417   6.706
  153THSLK    S  140  29.063   7.513   6.894
  154ETHY    C1  141  28.774   7.677   6.572
  155ETHY    C1  142  28.383   7.922   6.259
  156THSLK    S  143  29.468   7.234   6.562
  157ETHY    C1  144  29.355   7.244   6.114
  158ETHY    C1  145  29.207   7.352   5.587
  159AUSL   AUS  146  30.299   7.523   7.501
  160AUSL   AUS  147  30.229   7.378   7.084
  161AUL    AUL  148  30.513   7.604   7.197
  162THSLK    S  149  30.409   7.495   6.920
  163ETHY    C1  150  30.750   7.628   6.638
  164ETHY    C1  151  31.126   7.882   6.314
  165THSLK    S  152  30.572   7.594   7.501
  166ETHY    C1  153  30.996   7.778   7.497
  167ETHY    C1  154  31.460   8.087   7.498
  168AUSL   AUS  155  30.393   7.277   7.349
  169AUSL   AUS  156  30.393   6.950   7.652
  170AUL    AUL  157  30.700   7.114   7.501
  171THSLK    S  158  30.660   7.332   7.341
  172ETHY    C1  159  31.112   7.388   7.262
  173ETHY    C1  160  31.637   7.553   7.172
  174THSLK    S  161  30.639   6.818   7.659
  175ETHY    C1  162  31.056   6.633   7.728
  176ETHY    C1  163  31.592   6.505   7.820
  177AUSL   AUS  164  30.393   7.277   7.652
  178AUSL   AUS  165  30.135   7.624   7.765
  179AUL    AUL  166  30.513   7.604   7.804
  180THSLK    S  167  30.321   7.759   7.925
  181ETHY    C1  168  30.637   8.027   8.128
  182ETHY    C1  169  30.952   8.424   8.362
  183THSLK    S  170  30.660   7.332   7.661
  184ETHY    C1  171  31.112   7.388   7.733
  185ETHY    C1  172  31.638   7.553   7.824
  186AUSL   AUS  173  29.139   7.523   7.501
  187AUSL   AUS  174  29.209   7.378   7.917
  188AUL    AUL  175  28.925   7.604   7.804
  189THSLK    S  176  29.062   7.513   8.107
  190ETHY    C1  177  28.778   7.682   8.430
  191ETHY    C1  178  28.386   7.927   8.743
  192THSLK    S  179  28.908   7.661   7.501
  193ETHY    C1  180  28.554   7.959   7.497
  194ETHY    C1  181  28.070   8.236   7.498
  195AUSL   AUS  182  29.045   7.277   7.349
  196AUSL   AUS  183  29.302   7.624   7.236
  197AUL    AUL  184  28.925   7.604   7.197
  198THSLK    S  185  28.799   7.387   7.307
  199ETHY    C1  186  28.381   7.532   7.173
  200ETHY    C1  187  27.846   7.672   7.099
  201THSLK    S  188  29.171   7.793   7.056
  202ETHY    C1  189  28.947   8.115   6.812
  203ETHY    C1  190  28.607   8.497   6.589
  204AUSL   AUS  191  29.045   7.277   7.652
  205AUSL   AUS  192  29.045   6.950   7.349
  206AUL    AUL  193  28.737   7.114   7.501
  207THSLK    S  194  28.778   6.872   7.377
  208ETHY    C1  195  28.325   6.783   7.359
  209ETHY    C1  196  27.800   6.628   7.252
  210THSLK    S  197  28.799   7.387   7.694
  211ETHY    C1  198  28.382   7.538   7.825
  212ETHY    C1  199  27.847   7.676   7.900
  213AUSL   AUS  200  30.299   6.705   7.501
  214AUSL   AUS  201  30.229   6.849   7.917
  215AUL    AUL  202  30.513   6.623   7.804
  216THSLK    S  203  30.530   6.566   7.501
  217ETHY    C1  204  30.884   6.268   7.497
  218ETHY    C1  205  31.368   5.991   7.498
  219THSLK    S  206  30.375   6.662   8.070
  220ETHY    C1  207  30.663   6.407   8.326
  221ETHY    C1  208  31.055   6.187   8.657
  222AUSL   AUS  209  30.393   6.950   7.349
  223AUSL   AUS  210  30.135   6.603   7.236
  224AUL    AUL  211  30.513   6.623   7.197
  225THSLK    S  212  30.639   6.818   7.343
  226ETHY    C1  213  31.055   6.633   7.266
  227ETHY    C1  214  31.591   6.505   7.176
  228THSLK    S  215  30.267   6.412   7.092
  229ETHY    C1  216  30.488   6.051   6.907
  230ETHY    C1  217  30.829   5.681   6.667
  231AUSL   AUS  218  29.139   6.705   7.501
  232AUSL   AUS  219  29.209   6.849   7.084
  233AUL    AUL  220  28.925   6.623   7.197
  234THSLK    S  221  29.029   6.681   6.958
  235ETHY    C1  222  28.683   6.461   6.743
  236ETHY    C1  223  28.308   6.231   6.400
  237THSLK    S  224  28.866   6.633   7.501
  238ETHY    C1  225  28.442   6.450   7.497
  239ETHY    C1  226  27.978   6.140   7.498
  240AUSL   AUS  227  29.045   6.950   7.652
  241AUSL   AUS  228  29.302   6.603   7.765
  242AUL    AUL  229  28.925   6.623   7.804
  243THSLK    S  230  29.116   6.446   7.889
  244ETHY    C1  231  28.803   6.140   8.033
  245ETHY    C1  232  28.488   5.753   8.284
  246THSLK    S  233  28.778   6.873   7.625
  247ETHY    C1  234  28.326   6.777   7.639
  248ETHY    C1  235  27.801   6.624   7.746
  249AUSL   AUS  236  29.719   7.694   7.910
  250AUSL   AUS  237  29.302   7.624   7.765
  251AUL    AUL  238  29.415   7.908   7.991
  252THSLK    S  239  29.171   7.792   7.945
  253ETHY    C1  240  28.950   8.120   8.185
  254ETHY    C1  241  28.609   8.500   8.409
  255THSLK    S  242  29.753   7.935   8.033
  256ETHY    C1  243  29.811   8.307   8.301
  257ETHY    C1  244  29.795   8.786   8.586
  258AUSL   AUS  245  29.567   7.787   7.664
  259AUSL   AUS  246  29.870   7.787   7.337
  260AUL    AUL  247  29.719   8.095   7.501
  261THSLK    S  248  29.598   8.047   7.770
  262ETHY    C1  249  29.588   8.488   7.907
  263ETHY    C1  250  29.479   9.017   8.048
  264THSLK    S  251  29.915   8.036   7.235
  265ETHY    C1  252  30.053   8.454   7.097
  266ETHY    C1  253  30.125   8.989   6.955
  267AUSL   AUS  254  29.870   7.787   7.664
  268AUSL   AUS  255  29.984   7.530   8.011
  269AUL    AUL  256  30.022   7.908   7.991
  270THSLK    S  257  30.158   7.658   8.185
  271ETHY    C1  258  30.394   7.877   8.517
  272ETHY    C1  259  30.620   8.219   8.895
  273THSLK    S  260  29.915   8.035   7.767
  274ETHY    C1  261  30.054   8.456   7.898
  275ETHY    C1  262  30.127   8.990   8.041
  276AUSL   AUS  263  29.719   6.534   7.910
  277AUSL   AUS  264  30.135   6.603   7.765
  278AUL    AUL  265  30.022   6.319   7.991
  279THSLK    S  266  29.685   6.270   7.997
  280ETHY    C1  267  29.630   5.861   8.205
  281ETHY    C1  268  29.645   5.393   8.507
  282THSLK    S  269  30.267   6.412   7.910
  283ETHY    C1  270  30.490   6.050   8.089
  284ETHY    C1  271  30.831   5.680   8.330
  285AUSL   AUS  272  29.567   6.440   7.664
  286AUSL   AUS  273  29.454   6.697   8.011
  287AUL    AUL  274  29.415   6.319   7.991
  288THSLK    S  275  29.522   6.187   7.746
  289ETHY    C1  276  29.385   5.756   7.843
  290ETHY    C1  277  29.312   5.224   7.996
  291THSLK    S  278  29.279   6.523   8.146
  292ETHY    C1  279  29.048   6.225   8.413
  293ETHY    C1  280  28.821   5.905   8.810
  294AUSL   AUS  281  29.870   6.440   7.664
  295AUSL   AUS  282  29.567   6.440   7.337
  296AUL    AUL  283  29.719   6.132   7.501
  297THSLK    S  284  29.522   6.187   7.255
  298ETHY    C1  285  29.383   5.758   7.152
  299ETHY    C1  286  29.311   5.226   7.001
  300THSLK    S  287  29.839   6.175   7.750
  301ETHY    C1  288  29.852   5.724   7.852
  302ETHY    C1  289  29.960   5.198   8.003
  303AUSL   AUS  290  29.719   7.694   7.092
  304AUSL   AUS  291  30.135   7.624   7.236
  305AUL    AUL  292  30.022   7.908   7.010
  306THSLK    S  293  29.753   7.935   6.969
  307ETHY    C1  294  29.808   8.304   6.696
  308ETHY    C1  295  29.792   8.783   6.412
  309THSLK    S  296  30.322   7.759   7.077
  310ETHY    C1  297  30.635   8.026   6.868
  311ETHY    C1  298  30.950   8.423   6.634
  312AUSL   AUS  299  29.567   7.787   7.337
  313AUSL   AUS  300  29.454   7.530   6.990
  314AUL    AUL  301  29.415   7.908   7.010
  315THSLK    S  302  29.598   8.048   7.232
  316ETHY    C1  303  29.586   8.486   7.088
  317ETHY    C1  304  29.478   9.015   6.948
  318THSLK    S  305  29.327   7.673   6.799
  319ETHY    C1  306  29.169   7.913   6.437
  320ETHY    C1  307  28.921   8.248   6.067
  321AUSL   AUS  308  29.719   6.534   7.092
  322AUSL   AUS  309  29.302   6.603   7.236
  323AUL    AUL  310  29.415   6.319   7.010
  324THSLK    S  311  29.116   6.446   7.113
  325ETHY    C1  312  28.800   6.144   6.964
  326ETHY    C1  313  28.486   5.757   6.714
  327THSLK    S  314  29.685   6.270   7.004
  328ETHY    C1  315  29.626   5.865   6.791
  329ETHY    C1  316  29.643   5.395   6.490
  330AUSL   AUS  317  29.870   6.440   7.337
  331AUSL   AUS  318  29.984   6.697   6.990
  332AUL    AUL  319  30.022   6.319   7.010
  333THSLK    S  320  29.840   6.174   7.252
  334ETHY    C1  321  29.850   5.726   7.143
  335ETHY    C1  322  29.958   5.199   6.993
  336THSLK    S  323  30.112   6.508   6.839
  337ETHY    C1  324  30.264   6.190   6.541
  338ETHY    C1  325  30.513   5.876   6.152
  339AUC    AUC  326  11.388  17.175   7.501
  340AUC    AUC  327  11.633  17.175   7.349
  341AUC    AUC  328  11.633  17.175   7.652
  342AUC    AUC  329  11.142  17.175   7.349
  343AUC    AUC  330  11.142  17.175   7.652
  344AUC    AUC  331  11.236  17.420   7.501
  345AUC    AUC  332  11.539  17.420   7.501
  346AUC    AUC  333  11.236  16.929   7.501
  347AUC    AUC  334  11.539  16.929   7.501
  348AUC    AUC  335  11.388  17.023   7.746
  349AUC    AUC  336  11.388  17.326   7.746
  350AUC    AUC  337  11.388  17.023   7.255
  351AUC    AUC  338  11.388  17.326   7.255
  352AUC    AUC  339  11.879  17.175   7.197
  353AUC    AUC  340  11.879  17.175   7.501
  354AUC    AUC  341  11.879  17.175   7.804
  355AUC    AUC  342  10.897  17.175   7.197
  356AUC    AUC  343  10.897  17.175   7.501
  357AUC    AUC  344  10.897  17.175   7.804
  358AUC    AUC  345  11.084  17.665   7.501
  359AUC    AUC  346  11.388  17.665   7.501
  360AUC    AUC  347  11.691  17.665   7.501
  361AUC    AUC  348  11.084  16.684   7.501
  362AUC    AUC  349  11.388  16.684   7.501
  363AUC    AUC  350  11.691  16.684   7.501
  364AUC    AUC  351  11.388  16.871   7.991
  365AUC    AUC  352  11.388  17.175   7.991
  366AUC    AUC  353  11.388  17.478   7.991
  367AUC    AUC  354  11.388  16.871   7.010
  368AUC    AUC  355  11.388  17.175   7.010
  369AUC    AUC  356  11.388  17.478   7.010
  370AUC    AUC  357  11.633  17.023   7.898
  371AUC    AUC  358  11.633  17.326   7.898
  372AUC    AUC  359  11.633  17.023   7.103
  373AUC    AUC  360  11.633  17.326   7.103
  374AUC    AUC  361  11.142  17.023   7.898
  375AUC    AUC  362  11.142  17.326   7.898
  376AUC    AUC  363  11.142  17.023   7.103
  377AUC    AUC  364  11.142  17.326   7.103
  378AUC    AUC  365  11.785  17.420   7.349
  379AUC    AUC  366  11.785  17.420   7.652
  380AUC    AUC  367  10.991  17.420   7.349
  381AUC    AUC  368  10.991  17.420   7.652
  382AUC    AUC  369  11.785  16.929   7.349
  383AUC    AUC  370  11.785  16.929   7.652
  384AUC    AUC  371  10.991  16.929   7.349
  385AUC    AUC  372  10.991  16.929   7.652
  386AUC    AUC  373  11.236  17.572   7.746
  387AUC    AUC  374  11.539  17.572   7.746
  388AUC    AUC  375  11.236  16.778   7.746
  389AUC    AUC  376  11.539  16.778   7.746
  390AUC    AUC  377  11.236  17.572   7.255
  391AUC    AUC  378  11.539  17.572   7.255
  392AUC    AUC  379  11.236  16.778   7.255
  393AUC    AUC  380  11.539  16.778   7.255
  394AUSL   AUS  381  11.797  17.175   8.081
  395AUSL   AUS  382  11.653  16.758   8.011
  396AUL    AUL  383  11.879  16.871   8.295
  397THSLK    S  384  11.780  16.570   8.163
  398ETHY    C1  385  11.938  16.249   8.456
  399ETHY    C1  386  12.186  15.936   8.845
  400THSLK    S  387  11.902  17.135   8.333
  401ETHY    C1  388  12.145  17.068   8.720
  402ETHY    C1  389  12.438  17.087   9.194
  403AUSL   AUS  390  11.551  17.023   8.174
  404AUSL   AUS  391  11.224  17.326   8.174
  405AUL    AUL  392  11.388  17.175   8.482
  406THSLK    S  393  11.638  16.977   8.426
  407ETHY    C1  394  11.751  16.836   8.852
  408ETHY    C1  395  11.900  16.765   9.385
  409THSLK    S  396  11.136  17.295   8.439
  410ETHY    C1  397  11.031  17.306   8.889
  411ETHY    C1  398  10.881  17.414   9.415
  412AUSL   AUS  399  11.551  17.326   8.174
  413AUSL   AUS  400  11.898  17.439   7.917
  414AUL    AUL  401  11.879  17.478   8.295
  415THSLK    S  402  11.639  17.372   8.426
  416ETHY    C1  403  11.745  17.512   8.854
  417ETHY    C1  404  11.895  17.584   9.386
  418THSLK    S  405  12.078  17.555   8.082
  419ETHY    C1  406  12.423  17.690   8.358
  420ETHY    C1  407  12.798  17.944   8.683
  421AUSL   AUS  408  11.797  17.175   6.921
  422AUSL   AUS  409  11.653  17.591   6.990
  423AUL    AUL  410  11.879  17.478   6.706
  424THSLK    S  411  11.903  17.135   6.668
  425ETHY    C1  412  12.140  17.068   6.278
  426ETHY    C1  413  12.433  17.087   5.804
  427THSLK    S  414  11.828  17.719   6.816
  428ETHY    C1  415  12.059  17.937   6.480
  429ETHY    C1  416  12.285  18.279   6.102
  430AUSL   AUS  417  11.551  17.023   6.827
  431AUSL   AUS  418  11.898  16.910   7.084
  432AUL    AUL  419  11.879  16.871   6.706
  433THSLK    S  420  12.044  16.723   6.932
  434ETHY    C1  421  12.328  16.469   6.670
  435ETHY    C1  422  12.720  16.249   6.340
  436THSLK    S  423  11.639  16.977   6.575
  437ETHY    C1  424  11.745  16.837   6.147
  438ETHY    C1  425  11.895  16.765   5.615
  439AUSL   AUS  426  11.551  17.326   6.827
  440AUSL   AUS  427  11.224  17.023   6.827
  441AUL    AUL  428  11.388  17.175   6.519
  442THSLK    S  429  11.124  16.977   6.579
  443ETHY    C1  430  10.990  16.839   6.158
  444ETHY    C1  431  10.847  16.767   5.624
  445THSLK    S  432  11.652  17.294   6.566
  446ETHY    C1  433  11.779  17.303   6.121
  447ETHY    C1  434  11.923  17.412   5.594
  448AUSL   AUS  435  10.979  17.175   8.081
  449AUSL   AUS  436  11.123  17.591   8.011
  450AUL    AUL  437  10.897  17.478   8.295
  451THSLK    S  438  10.873  17.135   8.333
  452ETHY    C1  439  10.636  17.068   8.723
  453ETHY    C1  440  10.342  17.087   9.197
  454THSLK    S  441  10.995  17.733   8.202
  455ETHY    C1  442  10.842  17.978   8.563
  456ETHY    C1  443  10.594  18.313   8.933
  457AUSL   AUS  444  11.224  17.023   8.174
  458AUSL   AUS  445  10.878  16.910   7.917
  459AUL    AUL  446  10.897  16.871   8.295
  460THSLK    S  447  10.697  16.742   8.043
  461ETHY    C1  448  10.356  16.516   8.259
  462ETHY    C1  449   9.980  16.288   8.602
  463THSLK    S  450  11.124  16.977   8.422
  464ETHY    C1  451  10.996  16.838   8.844
  465ETHY    C1  452  10.852  16.766   9.378
  466AUSL   AUS  453  10.979  17.175   6.921
  467AUSL   AUS  454  11.123  16.758   6.990
  468AUL    AUL  455  10.897  16.871   6.706
  469THSLK    S  456  10.874  17.135   6.668
  470ETHY    C1  457  10.630  17.068   6.281
  471ETHY    C1  458  10.338  17.087   5.807
  472THSLK    S  459  10.949  16.584   6.855
  473ETHY    C1  460  10.712  16.291   6.587
  474ETHY    C1  461  10.487  15.970   6.190
  475AUSL   AUS  462  11.224  17.326   6.827
  476AUSL   AUS  463  10.878  17.439   7.084
  477AUL    AUL  464  10.897  17.478   6.706
  478THSLK    S  465  10.732  17.574   6.894
  479ETHY    C1  466  10.443  17.738   6.572
  480ETHY    C1  467  10.052  17.983   6.259
  481THSLK    S  468  11.137  17.295   6.562
  482ETHY    C1  469  11.024  17.305   6.114
  483ETHY    C1  470  10.876  17.413   5.587
  484AUSL   AUS  471  11.968  17.584   7.501
  485AUSL   AUS  472  11.898  17.439   7.084
  486AUL    AUL  473  12.182  17.665   7.197
  487THSLK    S  474  12.078  17.556   6.920
  488ETHY    C1  475  12.419  17.689   6.638
  489ETHY    C1  476  12.795  17.943   6.314
  490THSLK    S  477  12.241  17.655   7.501
  491ETHY    C1  478  12.665  17.839   7.497
  492ETHY    C1  479  13.129  18.148   7.498
  493AUSL   AUS  480  12.062  17.338   7.349
  494AUSL   AUS  481  12.062  17.011   7.652
  495AUL    AUL  482  12.369  17.175   7.501
  496THSLK    S  483  12.329  17.393   7.341
  497ETHY    C1  484  12.781  17.449   7.262
  498ETHY    C1  485  13.306  17.614   7.172
  499THSLK    S  486  12.308  16.879   7.659
  500ETHY    C1  487  12.725  16.694   7.728
  501ETHY    C1  488  13.261  16.566   7.820
  502AUSL   AUS  489  12.062  17.338   7.652
  503AUSL   AUS  490  11.804  17.685   7.765
  504AUL    AUL  491  12.182  17.665   7.804
  505THSLK    S  492  11.990  17.820   7.925
  506ETHY    C1  493  12.306  18.088   8.128
  507ETHY    C1  494  12.621  18.485   8.362
  508THSLK    S  495  12.329  17.393   7.661
  509ETHY    C1  496  12.781  17.449   7.733
  510ETHY    C1  497  13.307  17.614   7.824
  511AUSL   AUS  498  10.808  17.584   7.501
  512AUSL   AUS  499  10.878  17.439   7.917
  513AUL    AUL  500  10.594  17.665   7.804
  514THSLK    S  501  10.731  17.574   8.107
  515ETHY    C1  502  10.447  17.743   8.430
  516ETHY    C1  503  10.055  17.988   8.743
  517THSLK    S  504  10.577  17.722   7.501
  518ETHY    C1  505  10.223  18.020   7.497
  519ETHY    C1  506   9.739  18.297   7.498
  520AUSL   AUS  507  10.714  17.338   7.349
  521AUSL   AUS  508  10.971  17.685   7.236
  522AUL    AUL  509  10.594  17.665   7.197
  523THSLK    S  510  10.468  17.448   7.307
  524ETHY    C1  511  10.050  17.593   7.173
  525ETHY    C1  512   9.515  17.733   7.099
  526THSLK    S  513  10.840  17.854   7.056
  527ETHY    C1  514  10.616  18.176   6.812
  528ETHY    C1  515  10.276  18.558   6.589
  529AUSL   AUS  516  10.714  17.338   7.652
  530AUSL   AUS  517  10.714  17.011   7.349
  531AUL    AUL  518  10.406  17.175   7.501
  532THSLK    S  519  10.447  16.933   7.377
  533ETHY    C1  520   9.994  16.844   7.359
  534ETHY    C1  521   9.469  16.689   7.252
  535THSLK    S  522  10.468  17.448   7.694
  536ETHY    C1  523  10.051  17.599   7.825
  537ETHY    C1  524   9.516  17.737   7.900
  538AUSL   AUS  525  11.968  16.766   7.501
  539AUSL   AUS  526  11.898  16.910   7.917
  540AUL    AUL  527  12.182  16.684   7.804
  541THSLK    S  528  12.199  16.627   7.501
  542ETHY    C1  529  12.553  16.329   7.497
  543ETHY    C1  530  13.037  16.052   7.498
  544THSLK    S  531  12.044  16.723   8.070
  545ETHY    C1  532  12.332  16.468   8.326
  546ETHY    C1  533  12.724  16.248   8.657
  547AUSL   AUS  534  12.062  17.011   7.349
  548AUSL   AUS  535  11.804  16.664   7.236
  549AUL    AUL  536  12.182  16.684   7.197
  550THSLK    S  537  12.308  16.879   7.343
  551ETHY    C1  538  12.724  16.694   7.266
  552ETHY    C1  539  13.260  16.566   7.176
  553THSLK    S  540  11.936  16.473   7.092
  554ETHY    C1  541  12.157  16.112   6.907
  555ETHY    C1  542  12.498  15.742   6.667
  556AUSL   AUS  543  10.808  16.766   7.501
  557AUSL   AUS  544  10.878  16.910   7.084
  558AUL    AUL  545  10.594  16.684   7.197
  559THSLK    S  546  10.698  16.742   6.958
  560ETHY    C1  547  10.352  16.522   6.743
  561ETHY    C1  548   9.977  16.292   6.400
  562THSLK    S  549  10.535  16.694   7.501
  563ETHY    C1  550  10.111  16.511   7.497
  564ETHY    C1  551   9.647  16.201   7.498
  565AUSL   AUS  552  10.714  17.011   7.652
  566AUSL   AUS  553  10.971  16.664   7.765
  567AUL    AUL  554  10.594  16.684   7.804
  568THSLK    S  555  10.785  16.507   7.889
  569ETHY    C1  556  10.472  16.201   8.033
  570ETHY    C1  557  10.157  15.814   8.284
  571THSLK    S  558  10.447  16.934   7.625
  572ETHY    C1  559   9.995  16.838   7.639
  573ETHY    C1  560   9.470  16.685   7.746
  574AUSL   AUS  561  11.388  17.755   7.910
  575AUSL   AUS  562  10.971  17.685   7.765
  576AUL    AUL  563  11.084  17.969   7.991
  577THSLK    S  564  10.840  17.853   7.945
  578ETHY    C1  565  10.619  18.181   8.185
  579ETHY    C1  566  10.278  18.561   8.409
  580THSLK    S  567  11.422  17.996   8.033
  581ETHY    C1  568  11.480  18.368   8.301
  582ETHY    C1  569  11.464  18.847   8.586
  583AUSL   AUS  570  11.236  17.848   7.664
  584AUSL   AUS  571  11.539  17.848   7.337
  585AUL    AUL  572  11.388  18.156   7.501
  586THSLK    S  573  11.267  18.108   7.770
  587ETHY    C1  574  11.257  18.549   7.907
  588ETHY    C1  575  11.148  19.078   8.048
  589THSLK    S  576  11.584  18.097   7.235
  590ETHY    C1  577  11.722  18.515   7.097
  591ETHY    C1  578  11.794  19.050   6.955
  592AUSL   AUS  579  11.539  17.848   7.664
  593AUSL   AUS  580  11.653  17.591   8.011
  594AUL    AUL  581  11.691  17.969   7.991
  595THSLK    S  582  11.827  17.719   8.185
  596ETHY    C1  583  12.063  17.938   8.517
  597ETHY    C1  584  12.289  18.280   8.895
  598THSLK    S  585  11.584  18.096   7.767
  599ETHY    C1  586  11.723  18.517   7.898
  600ETHY    C1  587  11.796  19.051   8.041
  601AUSL   AUS  588  11.388  16.595   7.910
  602AUSL   AUS  589  11.804  16.664   7.765
  603AUL    AUL  590  11.691  16.380   7.991
  604THSLK    S  591  11.354  16.331   7.997
  605ETHY    C1  592  11.299  15.922   8.205
  606ETHY    C1  593  11.314  15.454   8.507
  607THSLK    S  594  11.936  16.473   7.910
  608ETHY    C1  595  12.159  16.111   8.089
  609ETHY    C1  596  12.500  15.741   8.330
  610AUSL   AUS  597  11.236  16.501   7.664
  611AUSL   AUS  598  11.123  16.758   8.011
  612AUL    AUL  599  11.084  16.380   7.991
  613THSLK    S  600  11.191  16.248   7.746
  614ETHY    C1  601  11.054  15.817   7.843
  615ETHY    C1  602  10.981  15.285   7.996
  616THSLK    S  603  10.948  16.584   8.146
  617ETHY    C1  604  10.717  16.286   8.413
  618ETHY    C1  605  10.490  15.966   8.810
  619AUSL   AUS  606  11.539  16.501   7.664
  620AUSL   AUS  607  11.236  16.501   7.337
  621AUL    AUL  608  11.388  16.193   7.501
  622THSLK    S  609  11.191  16.248   7.255
  623ETHY    C1  610  11.052  15.819   7.152
  624ETHY    C1  611  10.980  15.287   7.001
  625THSLK    S  612  11.508  16.236   7.750
  626ETHY    C1  613  11.521  15.785   7.852
  627ETHY    C1  614  11.629  15.259   8.003
  628AUSL   AUS  615  11.388  17.755   7.092
  629AUSL   AUS  616  11.804  17.685   7.236
  630AUL    AUL  617  11.691  17.969   7.010
  631THSLK    S  618  11.422  17.996   6.969
  632ETHY    C1  619  11.477  18.365   6.696
  633ETHY    C1  620  11.461  18.844   6.412
  634THSLK    S  621  11.991  17.820   7.077
  635ETHY    C1  622  12.304  18.087   6.868
  636ETHY    C1  623  12.619  18.484   6.634
  637AUSL   AUS  624  11.236  17.848   7.337
  638AUSL   AUS  625  11.123  17.591   6.990
  639AUL    AUL  626  11.084  17.969   7.010
  640THSLK    S  627  11.267  18.109   7.232
  641ETHY    C1  628  11.255  18.547   7.088
  642ETHY    C1  629  11.147  19.076   6.948
  643THSLK    S  630  10.996  17.734   6.799
  644ETHY    C1  631  10.838  17.974   6.437
  645ETHY    C1  632  10.590  18.309   6.067
  646AUSL   AUS  633  11.388  16.595   7.092
  647AUSL   AUS  634  10.971  16.664   7.236
  648AUL    AUL  635  11.084  16.380   7.010
  649THSLK    S  636  10.785  16.507   7.113
  650ETHY    C1  637  10.469  16.205   6.964
  651ETHY    C1  638  10.155  15.818   6.714
  652THSLK    S  639  11.354  16.331   7.004
  653ETHY    C1  640  11.295  15.926   6.791
  654ETHY    C1  641  11.312  15.456   6.490
  655AUSL   AUS  642  11.539  16.501   7.337
  656AUSL   AUS  643  11.653  16.758   6.990
  657AUL    AUL  644  11.691  16.380   7.010
  658THSLK    S  645  11.509  16.235   7.252
  659ETHY    C1  646  11.519  15.787   7.143
  660ETHY    C1  647  11.627  15.260   6.993
  661THSLK    S  648  11.781  16.569   6.839
  662ETHY    C1  649  11.933  16.251   6.541
  663ETHY    C1  650  12.182  15.937   6.152
  664AUC    AUC  651  20.472  45.168   7.501
  665AUC    AUC  652  20.717  45.168   7.349
  666AUC    AUC  653  20.717  45.168   7.652
  667AUC    AUC  654  20.226  45.168   7.349
  668AUC    AUC  655  20.226  45.168   7.652
  669AUC    AUC  656  20.320  45.413   7.501
  670AUC    AUC  657  20.623  45.413   7.501
  671AUC    AUC  658  20.320  44.922   7.501
  672AUC    AUC  659  20.623  44.922   7.501
  673AUC    AUC  660  20.472  45.016   7.746
  674AUC    AUC  661  20.472  45.319   7.746
  675AUC    AUC  662  20.472  45.016   7.255
  676AUC    AUC  663  20.472  45.319   7.255
  677AUC    AUC  664  20.963  45.168   7.197
  678AUC    AUC  665  20.963  45.168   7.501
  679AUC    AUC  666  20.963  45.168   7.804
  680AUC    AUC  667  19.981  45.168   7.197
  681AUC    AUC  668  19.981  45.168   7.501
  682AUC    AUC  669  19.981  45.168   7.804
  683AUC    AUC  670  20.168  45.658   7.501
  684AUC    AUC  671  20.472  45.658   7.501
  685AUC    AUC  672  20.775  45.658   7.501
  686AUC    AUC  673  20.168  44.677   7.501
  687AUC    AUC  674  20.472  44.677   7.501
  688AUC    AUC  675  20.775  44.677   7.501
  689AUC    AUC  676  20.472  44.864   7.991
  690AUC    AUC  677  20.472  45.168   7.991
  691AUC    AUC  678  20.472  45.471   7.991
  692AUC    AUC  679  20.472  44.864   7.010
  693AUC    AUC  680  20.472  45.168   7.010
  694AUC    AUC  681  20.472  45.471   7.010
  695AUC    AUC  682  20.717  45.016   7.898
  696AUC    AUC  683  20.717  45.319   7.898
  697AUC    AUC  684  20.717  45.016   7.103
  698AUC    AUC  685  20.717  45.319   7.103
  699AUC    AUC  686  20.226  45.016   7.898
  700AUC    AUC  687  20.226  45.319   7.898
  701AUC    AUC  688  20.226  45.016   7.103
  702AUC    AUC  689  20.226  45.319   7.103
  703AUC    AUC  690  20.869  45.413   7.349
  704AUC    AUC  691  20.869  45.413   7.652
  705AUC    AUC  692  20.075  45.413   7.349
  706AUC    AUC  693  20.075  45.413   7.652
  707AUC    AUC  694  20.869  44.922   7.349
  708AUC    AUC  695  20.869  44.922   7.652
  709AUC    AUC  696  20.075  44.922   7.349
  710AUC    AUC  697  20.075  44.922   7.652
  711AUC    AUC  698  20.320  45.565   7.746
  712AUC    AUC  699  20.623  45.565   7.746
  713AUC    AUC  700  20.320  44.771   7.746
  714AUC    AUC  701  20.623  44.771   7.746
  715AUC    AUC  702  20.320  45.565   7.255
  716AUC    AUC  703  20.623  45.565   7.255
  717AUC    AUC  704  20.320  44.771   7.255
  718AUC    AUC  705  20.623  44.771   7.255
  719AUSL   AUS  706  20.881  45.168   8.081
  720AUSL   AUS  707  20.737  44.751   8.011
  721AUL    AUL  708  20.963  44.864   8.295
  722THSLK    S  709  20.864  44.563   8.163
  723ETHY    C1  710  21.022  44.242   8.456
  724ETHY    C1  711  21.270  43.929   8.845
  725THSLK    S  712  20.986  45.128   8.333
  726ETHY    C1  713  21.229  45.061   8.720
  727ETHY    C1  714  21.522  45.080   9.194
  728AUSL   AUS  715  20.635  45.016   8.174
  729AUSL   AUS  716  20.308  45.319   8.174
  730AUL    AUL  717  20.472  45.168   8.482
  731THSLK    S  718  20.722  44.970   8.426
  732ETHY    C1  719  20.835  44.829   8.852
  733ETHY    C1  720  20.984  44.758   9.385
  734THSLK    S  721  20.220  45.288   8.439
  735ETHY    C1  722  20.115  45.299   8.889
  736ETHY    C1  723  19.965  45.407   9.415
  737AUSL   AUS  724  20.635  45.319   8.174
  738AUSL   AUS  725  20.982  45.432   7.917
  739AUL    AUL  726  20.963  45.471   8.295
  740THSLK    S  727  20.723  45.365   8.426
  741ETHY    C1  728  20.829  45.505   8.854
  742ETHY    C1  729  20.979  45.577   9.386
  743THSLK    S  730  21.162  45.548   8.082
  744ETHY    C1  731  21.507  45.683   8.358
  745ETHY    C1  732  21.882  45.937   8.683
  746AUSL   AUS  733  20.881  45.168   6.921
  747AUSL   AUS  734  20.737  45.584   6.990
  748AUL    AUL  735  20.963  45.471   6.706
  749THSLK    S  736  20.987  45.128   6.668
  750ETHY    C1  737  21.224  45.061   6.278
  751ETHY    C1  738  21.517  45.080   5.804
  752THSLK    S  739  20.912  45.712   6.816
  753ETHY    C1  740  21.143  45.930   6.480
  754ETHY    C1  741  21.369  46.272   6.102
  755AUSL   AUS  742  20.635  45.016   6.827
  756AUSL   AUS  743  20.982  44.903   7.084
  757AUL    AUL  744  20.963  44.864   6.706
  758THSLK    S  745  21.128  44.716   6.932
  759ETHY    C1  746  21.412  44.462   6.670
  760ETHY    C1  747  21.804  44.242   6.340
  761THSLK    S  748  20.723  44.970   6.575
  762ETHY    C1  749  20.829  44.830   6.147
  763ETHY    C1  750  20.979  44.758   5.615
  764AUSL   AUS  751  20.635  45.319   6.827
  765AUSL   AUS  752  20.308  45.016   6.827
  766AUL    AUL  753  20.472  45.168   6.519
  767THSLK    S  754  20.208  44.970   6.579
  768ETHY    C1  755  20.074  44.832   6.158
  769ETHY    C1  756  19.931  44.760   5.624
  770THSLK    S  757  20.736  45.287   6.566
  771ETHY    C1  758  20.863  45.296   6.121
  772ETHY    C1  759  21.007  45.405   5.594
  773AUSL   AUS  760  20.063  45.168   8.081
  774AUSL   AUS  761  20.207  45.584   8.011
  775AUL    AUL  762  19.981  45.471   8.295
  776THSLK    S  763  19.957  45.128   8.333
  777ETHY    C1  764  19.720  45.061   8.723
  778ETHY    C1  765  19.426  45.080   9.197
  779THSLK    S  766  20.079  45.726   8.202
  780ETHY    C1  767  19.926  45.971   8.563
  781ETHY    C1  768  19.678  46.306   8.933
  782AUSL   AUS  769  20.308  45.016   8.174
  783AUSL   AUS  770  19.962  44.903   7.917
  784AUL    AUL  771  19.981  44.864   8.295
  785THSLK    S  772  19.781  44.735   8.043
  786ETHY    C1  773  19.440  44.509   8.259
  787ETHY    C1  774  19.064  44.281   8.602
  788THSLK    S  775  20.208  44.970   8.422
  789ETHY    C1  776  20.080  44.831   8.844
  790ETHY    C1  777  19.936  44.759   9.378
  791AUSL   AUS  778  20.063  45.168   6.921
  792AUSL   AUS  779  20.207  44.751   6.990
  793AUL    AUL  780  19.981  44.864   6.706
  794THSLK    S  781  19.958  45.128   6.668
  795ETHY    C1  782  19.714  45.061   6.281
  796ETHY    C1  783  19.422  45.080   5.807
  797THSLK    S  784  20.033  44.577   6.855
  798ETHY    C1  785  19.796  44.284   6.587
  799ETHY    C1  786  19.571  43.963   6.190
  800AUSL   AUS  787  20.308  45.319   6.827
  801AUSL   AUS  788  19.962  45.432   7.084
  802AUL    AUL  789  19.981  45.471   6.706
  803THSLK    S  790  19.816  45.567   6.894
  804ETHY    C1  791  19.527  45.731   6.572
  805ETHY    C1  792  19.136  45.976   6.259
  806THSLK    S  793  20.221  45.288   6.562
  807ETHY    C1  794  20.108  45.298   6.114
  808ETHY    C1  795  19.960  45.406   5.587
  809AUSL   AUS  796  21.052  45.577   7.501
  810AUSL   AUS  797  20.982  45.432   7.084
  811AUL    AUL  798  21.266  45.658   7.197
  812THSLK    S  799  21.162  45.549   6.920
  813ETHY    C1  800  21.503  45.682   6.638
  814ETHY    C1  801  21.879  45.936   6.314
  815THSLK    S  802  21.325  45.648   7.501
  816ETHY    C1  803  21.749  45.832   7.497
  817ETHY    C1  804  22.213  46.141   7.498
  818AUSL   AUS  805  21.146  45.331   7.349
  819AUSL   AUS  806  21.146  45.004   7.652
  820AUL    AUL  807  21.453  45.168   7.501
  821THSLK    S  808  21.413  45.386   7.341
  822ETHY    C1  809  21.865  45.442   7.262
  823ETHY    C1  810  22.390  45.607   7.172
  824THSLK    S  811  21.392  44.872   7.659
  825ETHY    C1  812  21.809  44.687   7.728
  826ETHY    C1  813  22.345  44.559   7.820
  827AUSL   AUS  814  21.146  45.331   7.652
  828AUSL   AUS  815  20.888  45.678   7.765
  829AUL    AUL  816  21.266  45.658   7.804
  830THSLK    S  817  21.074  45.813   7.925
  831ETHY    C1  818  21.390  46.081   8.128
  832ETHY    C1  819  21.705  46.478   8.362
  833THSLK    S  820  21.413  45.386   7.661
  834ETHY    C1  821  21.865  45.442   7.733
  835ETHY    C1  822  22.391  45.607   7.824
  836AUSL   AUS  823  19.892  45.577   7.501
  837AUSL   AUS  824  19.962  45.432   7.917
  838AUL    AUL  825  19.678  45.658   7.804
  839THSLK    S  826  19.815  45.567   8.107
  840ETHY    C1  827  19.531  45.736   8.430
  841ETHY    C1  828  19.139  45.981   8.743
  842THSLK    S  829  19.661  45.715   7.501
  843ETHY    C1  830  19.307  46.013   7.497
  844ETHY    C1  831  18.823  46.290   7.498
  845AUSL   AUS  832  19.798  45.331   7.349
  846AUSL   AUS  833  20.055  45.678   7.236
  847AUL    AUL  834  19.678  45.658   7.197
  848THSLK    S  835  19.552  45.441   7.307
  849ETHY    C1  836  19.134  45.586   7.173
  850ETHY    C1  837  18.599  45.726   7.099
  851THSLK    S  838  19.924  45.847   7.056
  852ETHY    C1  839  19.700  46.169   6.812
  853ETHY    C1  840  19.360  46.551   6.589
  854AUSL   AUS  841  19.798  45.331   7.652
  855AUSL   AUS  842  19.798  45.004   7.349
  856AUL    AUL  843  19.490  45.168   7.501
  857THSLK    S  844  19.531  44.926   7.377
  858ETHY    C1  845  19.078  44.837   7.359
  859ETHY    C1  846  18.553  44.682   7.252
  860THSLK    S  847  19.552  45.441   7.694
  861ETHY    C1  848  19.135  45.592   7.825
  862ETHY    C1  849  18.600  45.730   7.900
  863AUSL   AUS  850  21.052  44.759   7.501
  864AUSL   AUS  851  20.982  44.903   7.917
  865AUL    AUL  852  21.266  44.677   7.804
  866THSLK    S  853  21.283  44.620   7.501
  867ETHY    C1  854  21.637  44.322   7.497
  868ETHY    C1  855  22.121  44.045   7.498
  869THSLK    S  856  21.128  44.716   8.070
  870ETHY    C1  857  21.416  44.461   8.326
  871ETHY    C1  858  21.808  44.241   8.657
  872AUSL   AUS  859  21.146  45.004   7.349
  873AUSL   AUS  860  20.888  44.657   7.236
  874AUL    AUL  861  21.266  44.677   7.197
  875THSLK    S  862  21.392  44.872   7.343
  876ETHY    C1  863  21.808  44.687   7.266
  877ETHY    C1  864  22.344  44.559   7.176
  878THSLK    S  865  21.020  44.466   7.092
  879ETHY    C1  866  21.241  44.105   6.907
  880ETHY    C1  867  21.582  43.735   6.667
  881AUSL   AUS  868  19.892  44.759   7.501
  882AUSL   AUS  869  19.962  44.903   7.084
  883AUL    AUL  870  19.678  44.677   7.197
  884THSLK    S  871  19.782  44.735   6.958
  885ETHY    C1  872  19.436  44.515   6.743
  886ETHY    C1  873  19.061  44.285   6.400
  887THSLK    S  874  19.619  44.687   7.501
  888ETHY    C1  875  19.195  44.504   7.497
  889ETHY    C1  876  18.731  44.194   7.498
  890AUSL   AUS  877  19.798  45.004   7.652
  891AUSL   AUS  878  20.055  44.657   7.765
  892AUL    AUL  879  19.678  44.677   7.804
  893THSLK    S  880  19.869  44.500   7.889
  894ETHY    C1  881  19.556  44.194   8.033
  895ETHY    C1  882  19.241  43.807   8.284
  896THSLK    S  883  19.531  44.927   7.625
  897ETHY    C1  884  19.079  44.831   7.639
  898ETHY    C1  885  18.554  44.678   7.746
  899AUSL   AUS  886  20.472  45.748   7.910
  900AUSL   AUS  887  20.055  45.678   7.765
  901AUL    AUL  888  20.168  45.962   7.991
  902THSLK    S  889  19.924  45.846   7.945
  903ETHY    C1  890  19.703  46.174   8.185
  904ETHY    C1  891  19.362  46.554   8.409
  905THSLK    S  892  20.506  45.989   8.033
  906ETHY    C1  893  20.564  46.361   8.301
  907ETHY    C1  894  20.548  46.840   8.586
  908AUSL   AUS  895  20.320  45.841   7.664
  909AUSL   AUS  896  20.623  45.841   7.337
  910AUL    AUL  897  20.472  46.149   7.501
  911THSLK    S  898  20.351  46.101   7.770
  912ETHY    C1  899  20.341  46.542   7.907
  913ETHY    C1  900  20.232  47.071   8.048
  914THSLK    S  901  20.668  46.090   7.235
  915ETHY    C1  902  20.806  46.508   7.097
  916ETHY    C1  903  20.878  47.043   6.955
  917AUSL   AUS  904  20.623  45.841   7.664
  918AUSL   AUS  905  20.737  45.584   8.011
  919AUL    AUL  906  20.775  45.962   7.991
  920THSLK    S  907  20.911  45.712   8.185
  921ETHY    C1  908  21.147  45.931   8.517
  922ETHY    C1  909  21.373  46.273   8.895
  923THSLK    S  910  20.668  46.089   7.767
  924ETHY    C1  911  20.807  46.510   7.898
  925ETHY    C1  912  20.880  47.044   8.041
  926AUSL   AUS  913  20.472  44.588   7.910
  927AUSL   AUS  914  20.888  44.657   7.765
  928AUL    AUL  915  20.775  44.373   7.991
  929THSLK    S  916  20.438  44.324   7.997
  930ETHY    C1  917  20.383  43.915   8.205
  931ETHY    C1  918  20.398  43.447   8.507
  932THSLK    S  919  21.020  44.466   7.910
  933ETHY    C1  920  21.243  44.104   8.089
  934ETHY    C1  921  21.584  43.734   8.330
  935AUSL   AUS  922  20.320  44.494   7.664
  936AUSL   AUS  923  20.207  44.751   8.011
  937AUL    AUL  924  20.168  44.373   7.991
  938THSLK    S  925  20.275  44.241   7.746
  939ETHY    C1  926  20.138  43.810   7.843
  940ETHY    C1  927  20.065  43.278   7.996
  941THSLK    S  928  20.032  44.577   8.146
  942ETHY    C1  929  19.801  44.279   8.413
  943ETHY    C1  930  19.574  43.959   8.810
  944AUSL   AUS  931  20.623  44.494   7.664
  945AUSL   AUS  932  20.320  44.494   7.337
  946AUL    AUL  933  20.472  44.186   7.501
  947THSLK    S  934  20.275  44.241   7.255
  948ETHY    C1  935  20.136  43.812   7.152
  949ETHY    C1  936  20.064  43.280   7.001
  950THSLK    S  937  20.592  44.229   7.750
  951ETHY    C1  938  20.605  43.778   7.852
  952ETHY    C1  939  20.713  43.252   8.003
  953AUSL   AUS  940  20.472  45.748   7.092
  954AUSL   AUS  941  20.888  45.678   7.236
  955AUL    AUL  942  20.775  45.962   7.010
  956THSLK    S  943  20.506  45.989   6.969
  957ETHY    C1  944  20.561  46.358   6.696
  958ETHY    C1  945  20.545  46.837   6.412
  959THSLK    S  946  21.075  45.813   7.077
  960ETHY    C1  947  21.388  46.080   6.868
  961ETHY    C1  948  21.703  46.477   6.634
  962AUSL   AUS  949  20.320  45.841   7.337
  963AUSL   AUS  950  20.207  45.584   6.990
  964AUL    AUL  951  20.168  45.962   7.010
  965THSLK    S  952  20.351  46.102   7.232
  966ETHY    C1  953  20.339  46.540   7.088
  967ETHY    C1  954  20.231  47.069   6.948
  968THSLK    S  955  20.080  45.727   6.799
  969ETHY    C1  956  19.922  45.967   6.437
  970ETHY    C1  957  19.674  46.302   6.067
  971AUSL   AUS  958  20.472  44.588   7.092
  972AUSL   AUS  959  20.055  44.657   7.236
  973AUL    AUL  960  20.168  44.373   7.010
  974THSLK    S  961  19.869  44.500   7.113
  975ETHY    C1  962  19.553  44.198   6.964
  976ETHY    C1  963  19.239  43.811   6.714
  977THSLK    S  964  20.438  44.324   7.004
  978ETHY    C1  965  20.379  43.919   6.791
  979ETHY    C1  966  20.396  43.449   6.490
  980AUSL   AUS  967  20.623  44.494   7.337
  981AUSL   AUS  968  20.737  44.751   6.990
  982AUL    AUL  969  20.775  44.373   7.010
  983THSLK    S  970  20.593  44.228   7.252
  984ETHY    C1  971  20.603  43.780   7.143
  985ETHY    C1  972  20.711  43.253   6.993
  986THSLK    S  973  20.865  44.562   6.839
  987ETHY    C1  974  21.017  44.244   6.541
  988ETHY    C1  975  21.266  43.930   6.152
  989AUC    AUC  976  36.831   0.134   7.501
  990AUC    AUC  977  37.076   0.134   7.349
  991AUC    AUC  978  37.076   0.134   7.652
  992AUC    AUC  979  36.585   0.134   7.349
  993AUC    AUC  980  36.585   0.134   7.652
  994AUC    AUC  981  36.679   0.379   7.501
  995AUC    AUC  982  36.982   0.379   7.501
  996AUC    AUC  983  36.679  -0.112   7.501
  997AUC    AUC  984  36.982  -0.112   7.501
  998AUC    AUC  985  36.831  -0.018   7.746
  999AUC    AUC  986  36.831   0.285   7.746
 1000AUC    AUC  987  36.831  -0.018   7.255
 1001AUC    AUC  988  36.831   0.285   7.255
 1002AUC    AUC  989  37.322   0.134   7.197
 1003AUC    AUC  990  37.322   0.134   7.501
 1004AUC    AUC  991  37.322   0.134   7.804
 1005AUC    AUC  992  36.340   0.134   7.197
 1006AUC    AUC  993  36.340   0.134   7.501
 1007AUC    AUC  994  36.340   0.134   7.804
 1008AUC    AUC  995  36.527   0.624   7.501
 1009AUC    AUC  996  36.831   0.624   7.501
 1010AUC    AUC  997  37.134   0.624   7.501
 1011AUC    AUC  998  36.527  -0.357   7.501
 1012AUC    AUC  999  36.831  -0.357   7.501
 1013AUC    AUC 1000  37.134  -0.357   7.501
 1014AUC    AUC 1001  36.831  -0.170   7.991
 1015AUC    AUC 1002  36.831   0.134   7.991
 1016AUC    AUC 1003  36.831   0.437   7.991
 1017AUC    AUC 1004  36.831  -0.170   7.010
 1018AUC    AUC 1005  36.831   0.134   7.010
 1019AUC    AUC 1006  36.831   0.437   7.010
 1020AUC    AUC 1007  37.076  -0.018   7.898
 1021AUC    AUC 1008  37.076   0.285   7.898
 1022AUC    AUC 1009  37.076  -0.018   7.103
 1023AUC    AUC 1010  37.076   0.285   7.103
 1024AUC    AUC 1011  36.585  -0.018   7.898
 1025AUC    AUC 1012  36.585   0.285   7.898
 1026AUC    AUC 1013  36.585  -0.018   7.103
 1027AUC    AUC 1014  36.585   0.285   7.103
 1028AUC    AUC 1015  37.228   0.379   7.349
 1029AUC    AUC 1016  37.228   0.379   7.652
 1030AUC    AUC 1017  36.434   0.379   7.349
 1031AUC    AUC 1018  36.434   0.379   7.652
 1032AUC    AUC 1019  37.228  -0.112   7.349
 1033AUC    AUC 1020  37.228  -0.112   7.652
 1034AUC    AUC 1021  36.434  -0.112   7.349
 1035AUC    AUC 1022  36.434  -0.112   7.652
 1036AUC    AUC 1023  36.679   0.531   7.746
 1037AUC    AUC 1024  36.982   0.531   7.746
 1038AUC    AUC 1025  36.679  -0.263   7.746
 1039AUC    AUC 1026  36.982  -0.263   7.746
 1040AUC    AUC 1027  36.679   0.531   7.255
 1041AUC    AUC 1028  36.982   0.531   7.255
 1042AUC    AUC 1029  36.679  -0.263   7.255
 1043AUC    AUC 1030  36.982  -0.263   7.255
 1044AUSL   AUS 1031  37.240   0.134   8.081
 1045AUSL   AUS 1032  37.096  -0.283   8.011
 1046AUL    AUL 1033  37.322  -0.170   8.295
 1047THSLK    S 1034  37.223  -0.471   8.163
 1048ETHY    C1 1035  37.381  -0.792   8.456
 1049ETHY    C1 1036  37.629  -1.105   8.845
 1050THSLK    S 1037  37.345   0.094   8.333
 1051ETHY    C1 1038  37.588   0.027   8.720
 1052ETHY    C1 1039  37.881   0.046   9.194
 1053AUSL   AUS 1040  36.994  -0.018   8.174
 1054AUSL   AUS 1041  36.667   0.285   8.174
 1055AUL    AUL 1042  36.831   0.134   8.482
 1056THSLK    S 1043  37.081  -0.064   8.426
 1057ETHY    C1 1044  37.194  -0.205   8.852
 1058ETHY    C1 1045  37.343  -0.276   9.385
 1059THSLK    S 1046  36.579   0.254   8.439
 1060ETHY    C1 1047  36.474   0.265   8.889
 1061ETHY    C1 1048  36.324   0.373   9.415
 1062AUSL   AUS 1049  36.994   0.285   8.174
 1063AUSL   AUS 1050  37.341   0.398   7.917
 1064AUL    AUL 1051  37.322   0.437   8.295
 1065THSLK    S 1052  37.082   0.331   8.426
 1066ETHY    C1 1053  37.188   0.471   8.854
 1067ETHY    C1 1054  37.338   0.543   9.386
 1068THSLK    S 1055  37.521   0.514   8.082
 1069ETHY    C1 1056  37.866   0.649   8.358
 1070ETHY    C1 1057  38.241   0.903   8.683
 1071AUSL   AUS 1058  37.240   0.134   6.921
 1072AUSL   AUS 1059  37.096   0.550   6.990
 1073AUL    AUL 1060  37.322   0.437   6.706
 1074THSLK    S 1061  37.346   0.094   6.668
 1075ETHY    C1 1062  37.583   0.027   6.278
 1076ETHY    C1 1063  37.876   0.046   5.804
 1077THSLK    S 1064  37.271   0.678   6.816
 1078ETHY    C1 1065  37.502   0.896   6.480
 1079ETHY    C1 1066  37.728   1.238   6.102
 1080AUSL   AUS 1067  36.994  -0.018   6.827
 1081AUSL   AUS 1068  37.341  -0.131   7.084
 1082AUL    AUL 1069  37.322  -0.170   6.706
 1083THSLK    S 1070  37.487  -0.318   6.932
 1084ETHY    C1 1071  37.771  -0.572   6.670
 1085ETHY    C1 1072  38.163  -0.792   6.340
 1086THSLK    S 1073  37.082  -0.064   6.575
 1087ETHY    C1 1074  37.188  -0.204   6.147
 1088ETHY    C1 1075  37.338  -0.276   5.615
 1089AUSL   AUS 1076  36.994   0.285   6.827
 1090AUSL   AUS 1077  36.667  -0.018   6.827
 1091AUL    AUL 1078  36.831   0.134   6.519
 1092THSLK    S 1079  36.567  -0.064   6.579
 1093ETHY    C1 1080  36.433  -0.202   6.158
 1094ETHY    C1 1081  36.290  -0.274   5.624
 1095THSLK    S 1082  37.095   0.253   6.566
 1096ETHY    C1 1083  37.222   0.262   6.121
 1097ETHY    C1 1084  37.366   0.371   5.594
 1098AUSL   AUS 1085  36.422   0.134   8.081
 1099AUSL   AUS 1086  36.566   0.550   8.011
 1100AUL    AUL 1087  36.340   0.437   8.295
 1101THSLK    S 1088  36.316   0.094   8.333
 1102ETHY    C1 1089  36.079   0.027   8.723
 1103ETHY    C1 1090  35.785   0.046   9.197
 1104THSLK    S 1091  36.438   0.692   8.202
 1105ETHY    C1 1092  36.285   0.937   8.563
 1106ETHY    C1 1093  36.037   1.272   8.933
 1107AUSL   AUS 1094  36.667  -0.018   8.174
 1108AUSL   AUS 1095  36.321  -0.131   7.917
 1109AUL    AUL 1096  36.340  -0.170   8.295
 1110THSLK    S 1097  36.140  -0.299   8.043
 1111ETHY    C1 1098  35.799  -0.525   8.259
 1112ETHY    C1 1099  35.423  -0.753   8.602
 1113THSLK    S 1100  36.567  -0.064   8.422
 1114ETHY    C1 1101  36.439  -0.203   8.844
 1115ETHY    C1 1102  36.295  -0.275   9.378
 1116AUSL   AUS 1103  36.422   0.134   6.921
 1117AUSL   AUS 1104  36.566  -0.283   6.990
 1118AUL    AUL 1105  36.340  -0.170   6.706
 1119THSLK    S 1106  36.317   0.094   6.668
 1120ETHY    C1 1107  36.073   0.027   6.281
 1121ETHY    C1 1108  35.781   0.046   5.807
 1122THSLK    S 1109  36.392  -0.457   6.855
 1123ETHY    C1 1110  36.155  -0.750   6.587
 1124ETHY    C1 1111  35.930  -1.071   6.190
 1125AUSL   AUS 1112  36.667   0.285   6.827
 1126AUSL   AUS 1113  36.321   0.398   7.084
 1127AUL    AUL 1114  36.340   0.437   6.706
 1128THSLK    S 1115  36.175   0.533   6.894
 1129ETHY    C1 1116  35.886   0.697   6.572
 1130ETHY    C1 1117  35.495   0.942   6.259
 1131THSLK    S 1118  36.580   0.254   6.562
 1132ETHY    C1 1119  36.467   0.264   6.114
 1133ETHY    C1 1120  36.319   0.372   5.587
 1134AUSL   AUS 1121  37.411   0.543   7.501
 1135AUSL   AUS 1122  37.341   0.398   7.084
 1136AUL    AUL 1123  37.625   0.624   7.197
 1137THSLK    S 1124  37.521   0.515   6.920
 1138ETHY    C1 1125  37.862   0.648   6.638
 1139ETHY    C1 1126  38.238   0.902   6.314
 1140THSLK    S 1127  37.684   0.614   7.501
 1141ETHY    C1 1128  38.108   0.798   7.497
 1142ETHY    C1 1129  38.572   1.107   7.498
 1143AUSL   AUS 1130  37.505   0.297   7.349
 1144AUSL   AUS 1131  37.505  -0.030   7.652
 1145AUL    AUL 1132  37.812   0.134   7.501
 1146THSLK    S 1133  37.772   0.352   7.341
 1147ETHY    C1 1134  38.224   0.408   7.262
 1148ETHY    C1 1135  38.749   0.573   7.172
 1149THSLK    S 1136  37.751  -0.162   7.659
 1150ETHY    C1 1137  38.168  -0.347   7.728
 1151ETHY    C1 1138  38.704  -0.475   7.820
 1152AUSL   AUS 1139  37.505   0.297   7.652
 1153AUSL   AUS 1140  37.247   0.644   7.765
 1154AUL    AUL 1141  37.625   0.624   7.804
 1155THSLK    S 1142  37.433   0.779   7.925
 1156ETHY    C1 1143  37.749   1.047   8.128
 1157ETHY    C1 1144  38.064   1.444   8.362
 1158THSLK    S 1145  37.772   0.352   7.661
 1159ETHY    C1 1146  38.224   0.408   7.733
 1160ETHY    C1 1147  38.750   0.573   7.824
 1161AUSL   AUS 1148  36.251   0.543   7.501
 1162AUSL   AUS 1149  36.321   0.398   7.917
 1163AUL    AUL 1150  36.037   0.624   7.804
 1164THSLK    S 1151  36.174   0.533   8.107
 1165ETHY    C1 1152  35.890   0.702   8.430
 1166ETHY    C1 1153  35.498   0.947   8.743
 1167THSLK    S 1154  36.020   0.681   7.501
 1168ETHY    C1 1155  35.666   0.979   7.497
 1169ETHY    C1 1156  35.182   1.256   7.498
 1170AUSL   AUS 1157  36.157   0.297   7.349
 1171AUSL   AUS 1158  36.414   0.644   7.236
 1172AUL    AUL 1159  36.037   0.624   7.197
 1173THSLK    S 1160  35.911   0.407   7.307
 1174ETHY    C1 1161  35.493   0.552   7.173
 1175ETHY    C1 1162  34.958   0.692   7.099
 1176THSLK    S 1163  36.283   0.813   7.056
 1177ETHY    C1 1164  36.059   1.135   6.812
 1178ETHY    C1 1165  35.719   1.517   6.589
 1179AUSL   AUS 1166  36.157   0.297   7.652
 1180AUSL   AUS 1167  36.157  -0.030   7.349
 1181AUL    AUL 1168  35.849   0.134   7.501
 1182THSLK    S 1169  35.890  -0.108   7.377
 1183ETHY    C1 1170  35.437  -0.197   7.359
 1184ETHY    C1 1171  34.912  -0.352   7.252
 1185THSLK    S 1172  35.911   0.407   7.694
 1186ETHY    C1 1173  35.494   0.558   7.825
 1187ETHY    C1 1174  34.959   0.696   7.900
 1188AUSL   AUS 1175  37.411  -0.275   7.501
 1189AUSL   AUS 1176  37.341  -0.131   7.917
 1190AUL    AUL 1177  37.625  -0.357   7.804
 1191THSLK    S 1178  37.642  -0.414   7.501
 1192ETHY    C1 1179  37.996  -0.712   7.497
 1193ETHY    C1 1180  38.480  -0.989   7.498
 1194THSLK    S 1181  37.487  -0.318   8.070
 1195ETHY    C1 1182  37.775  -0.573   8.326
 1196ETHY    C1 1183  38.167  -0.793   8.657
 1197AUSL   AUS 1184  37.505  -0.030   7.349
 1198AUSL   AUS 1185  37.247  -0.377   7.236
 1199AUL    AUL 1186  37.625  -0.357   7.197
 1200THSLK    S 1187  37.751  -0.162   7.343
 1201ETHY    C1 1188  38.167  -0.347   7.266
 1202ETHY    C1 1189  38.703  -0.475   7.176
 1203THSLK    S 1190  37.379  -0.568   7.092
 1204ETHY    C1 1191  37.600  -0.929   6.907
 1205ETHY    C1 1192  37.941  -1.299   6.667
 1206AUSL   AUS 1193  36.251  -0.275   7.501
 1207AUSL   AUS 1194  36.321  -0.131   7.084
 1208AUL    AUL 1195  36.037  -0.357   7.197
 1209THSLK    S 1196  36.141  -0.299   6.958
 1210ETHY    C1 1197  35.795  -0.519   6.743
 1211ETHY    C1 1198  35.420  -0.749   6.400
 1212THSLK    S 1199  35.978  -0.347   7.501
 1213ETHY    C1 1200  35.554  -0.530   7.497
 1214ETHY    C1 1201  35.090  -0.840   7.498
 1215AUSL   AUS 1202  36.157  -0.030   7.652
 1216AUSL   AUS 1203  36.414  -0.377   7.765
 1217AUL    AUL 1204  36.037  -0.357   7.804
 1218THSLK    S 1205  36.228  -0.534   7.889
 1219ETHY    C1 1206  35.915  -0.840   8.033
 1220ETHY    C1 1207  35.600  -1.227   8.284
 1221THSLK    S 1208  35.890  -0.107   7.625
 1222ETHY    C1 1209  35.438  -0.203   7.639
 1223ETHY    C1 1210  34.913  -0.356   7.746
 1224AUSL   AUS 1211  36.831   0.714   7.910
 1225AUSL   AUS 1212  36.414   0.644   7.765
 1226AUL    AUL 1213  36.527   0.928   7.991
 1227THSLK    S 1214  36.283   0.812   7.945
 1228ETHY    C1 1215  36.062   1.140   8.185
 1229ETHY    C1 1216  35.721   1.520   8.409
 1230THSLK    S 1217  36.865   0.955   8.033
 1231ETHY    C1 1218  36.923   1.327   8.301
 1232ETHY    C1 1219  36.907   1.806   8.586
 1233AUSL   AUS 1220  36.679   0.807   7.664
 1234AUSL   AUS 1221  36.982   0.807   7.337
 1235AUL    AUL 1222  36.831   1.115   7.501
 1236THSLK    S 1223  36.710   1.067   7.770
 1237ETHY    C1 1224  36.700   1.508   7.907
 1238ETHY    C1 1225  36.591   2.037   8.048
 1239THSLK    S 1226  37.027   1.056   7.235
 1240ETHY    C1 1227  37.165   1.474   7.097
 1241ETHY    C1 1228  37.237   2.009   6.955
 1242AUSL   AUS 1229  36.982   0.807   7.664
 1243AUSL   AUS 1230  37.096   0.550   8.011
 1244AUL    AUL 1231  37.134   0.928   7.991
 1245THSLK    S 1232  37.270   0.678   8.185
 1246ETHY    C1 1233  37.506   0.897   8.517
 1247ETHY    C1 1234  37.732   1.239   8.895
 1248THSLK    S 1235  37.027   1.055   7.767
 1249ETHY    C1 1236  37.166   1.476   7.898
 1250ETHY    C1 1237  37.239   2.010   8.041
 1251AUSL   AUS 1238  36.831  -0.446   7.910
 1252AUSL   AUS 1239  37.247  -0.377   7.765
 1253AUL    AUL 1240  37.134  -0.661   7.991
 1254THSLK    S 1241  36.797  -0.710   7.997
 1255ETHY    C1 1242  36.742  -1.119   8.205
 1256ETHY    C1 1243  36.757  -1.587   8.507
 1257THSLK    S 1244  37.379  -0.568   7.910
 1258ETHY    C1 1245  37.602  -0.930   8.089
 1259ETHY    C1 1246  37.943  -1.300   8.330
 1260AUSL   AUS 1247  36.679  -0.540   7.664
 1261AUSL   AUS 1248  36.566  -0.283   8.011
 1262AUL    AUL 1249  36.527  -0.661   7.991
 1263THSLK    S 1250  36.634  -0.793   7.746
 1264ETHY    C1 1251  36.497  -1.224   7.843
 1265ETHY    C1 1252  36.424  -1.756   7.996
 1266THSLK    S 1253  36.391  -0.457   8.146
 1267ETHY    C1 1254  36.160  -0.755   8.413
 1268ETHY    C1 1255  35.933  -1.075   8.810
 1269AUSL   AUS 1256  36.982  -0.540   7.664
 1270AUSL   AUS 1257  36.679  -0.540   7.337
 1271AUL    AUL 1258  36.831  -0.848   7.501
 1272THSLK    S 1259  36.634  -0.793   7.255
 1273ETHY    C1 1260  36.495  -1.222   7.152
 1274ETHY    C1 1261  36.423  -1.754   7.001
 1275THSLK    S 1262  36.951  -0.805   7.750
 1276ETHY    C1 1263  36.964  -1.256   7.852
 1277ETHY    C1 1264  37.072  -1.782   8.003
 1278AUSL   AUS 1265  36.831   0.714   7.092
 1279AUSL   AUS 1266  37.247   0.644   7.236
 1280AUL    AUL 1267  37.134   0.928   7.010
 1281THSLK    S 1268  36.865   0.955   6.969
 1282ETHY    C1 1269  36.920   1.324   6.696
 1283ETHY    C1 1270  36.904   1.803   6.412
 1284THSLK    S 1271  37.434   0.779   7.077
 1285ETHY    C1 1272  37.747   1.046   6.868
 1286ETHY    C1 1273  38.062   1.443   6.634
 1287AUSL   AUS 1274  36.679   0.807   7.337
 1288AUSL   AUS 1275  36.566   0.550   6.990
 1289AUL    AUL 1276  36.527   0.928   7.010
 1290THSLK    S 1277  36.710   1.068   7.232
 1291ETHY    C1 1278  36.698   1.506   7.088
 1292ETHY    C1 1279  36.590   2.035   6.948
 1293THSLK    S 1280  36.439   0.693   6.799
 1294ETHY    C1 1281  36.281   0.933   6.437
 1295ETHY    C1 1282  36.033   1.268   6.067
 1296AUSL   AUS 1283  36.831  -0.446   7.092
 1297AUSL   AUS 1284  36.414  -0.377   7.236
 1298AUL    AUL 1285  36.527  -0.661   7.010
 1299THSLK    S 1286  36.228  -0.534   7.113
 1300ETHY    C1 1287  35.912  -0.836   6.964
 1301ETHY    C1 1288  35.598  -1.223   6.714
 1302THSLK    S 1289  36.797  -0.710   7.004
 1303ETHY    C1 1290  36.738  -1.115   6.791
 1304ETHY    C1 1291  36.755  -1.585   6.490
 1305AUSL   AUS 1292  36.982  -0.540   7.337
 1306AUSL   AUS 1293  37.096  -0.283   6.990
 1307AUL    AUL 1294  37.134  -0.661   7.010
 1308THSLK    S 1295  36.952  -0.806   7.252
 1309ETHY    C1 1296  36.962  -1.254   7.143
 1310ETHY    C1 1297  37.070  -1.781   6.993
 1311THSLK    S 1298  37.224  -0.472   6.839
 1312ETHY    C1 1299  37.376  -0.790   6.541
 1313ETHY    C1 1300  37.625  -1.104   6.152
 1314AUC    AUC 1301  13.973  37.814   7.501
 1315AUC    AUC 1302  14.218  37.814   7.349
 1316AUC    AUC 1303  14.218  37.814   7.652
 1317AUC    AUC 1304  13.727  37.814   7.349
 1318AUC    AUC 1305  13.727  37.814   7.652
 1319AUC    AUC 1306  13.821  38.059   7.501
 1320AUC    AUC 1307  14.124  38.059   7.501
 1321AUC    AUC 1308  13.821  37.568   7.501
 1322AUC    AUC 1309  14.124  37.568   7.501
 1323AUC    AUC 1310  13.973  37.662   7.746
 1324AUC    AUC 1311  13.973  37.965   7.746
 1325AUC    AUC 1312  13.973  37.662   7.255
 1326AUC    AUC 1313  13.973  37.965   7.255
 1327AUC    AUC 1314  14.464  37.814   7.197
 1328AUC    AUC 1315  14.464  37.814   7.501
 1329AUC    AUC 1316  14.464  37.814   7.804
 1330AUC    AUC 1317  13.482  37.814   7.197
 1331AUC    AUC 1318  13.482  37.814   7.501
 1332AUC    AUC 1319  13.482  37.814   7.804
 1333AUC    AUC 1320  13.669  38.304   7.501
 1334AUC    AUC 1321  13.973  38.304   7.501
 1335AUC    AUC 1322  14.276  38.304   7.501
 1336AUC    AUC 1323  13.669  37.323   7.501
 1337AUC    AUC 1324  13.973  37.323   7.501
 1338AUC    AUC 1325  14.276  37.323   7.501
 1339AUC    AUC 1326  13.973  37.510   7.991
 1340AUC    AUC 1327  13.973  37.814   7.991
 1341AUC    AUC 1328  13.973  38.117   7.991
 1342AUC    AUC 1329  13.973  37.510   7.010
 1343AUC    AUC 1330  13.973  37.814   7.010
 1344AUC    AUC 1331  13.973  38.117   7.010
 1345AUC    AUC 1332  14.218  37.662   7.898
 1346AUC    AUC 1333  14.218  37.965   7.898
 1347AUC    AUC 1334  14.218  37.662   7.103
 1348AUC    AUC 1335  14.218  37.965   7.103
 1349AUC    AUC 1336  13.727  37.662   7.898
 1350AUC    AUC 1337  13.727  37.965   7.898
 1351AUC    AUC 1338  13.727  37.662   7.103
 1352AUC    AUC 1339  13.727  37.965   7.103
 1353AUC    AUC 1340  14.370  38.059   7.349
 1354AUC    AUC 1341  14.370  38.059   7.652
 1355AUC    AUC 1342  13.576  38.059   7.349
 1356AUC    AUC 1343  13.576  38.059   7.652
 1357AUC    AUC 1344  14.370  37.568   7.349
 1358AUC    AUC 1345  14.370  37.568   7.652
 1359AUC    AUC 1346  13.576  37.568   7.349
 1360AUC    AUC 1347  13.576  37.568   7.652
 1361AUC    AUC 1348  13.821  38.211   7.746
 1362AUC    AUC 1349  14.124  38.211   7.746
 1363AUC    AUC 1350  13.821  37.417   7.746
 1364AUC    AUC 1351  14.124  37.417   7.746
 1365AUC    AUC 1352  13.821  38.211   7.255
 1366AUC    AUC 1353  14.124  38.211   7.255
 1367AUC    AUC 1354  13.821  37.417   7.255
 1368AUC    AUC 1355  14.124  37.417   7.255
 1369AUSL   AUS 1356  14.382  37.814   8.081
 1370AUSL   AUS 1357  14.238  37.397   8.011
 1371AUL    AUL 1358  14.464  37.510   8.295
 1372THSLK    S 1359  14.365  37.209   8.163
 1373ETHY    C1 1360  14.523  36.888   8.456
 1374ETHY    C1 1361  14.771  36.575   8.845
 1375THSLK    S 1362  14.487  37.774   8.333
 1376ETHY    C1 1363  14.730  37.707   8.720
 1377ETHY    C1 1364  15.023  37.726   9.194
 1378AUSL   AUS 1365  14.136  37.662   8.174
 1379AUSL   AUS 1366  13.809  37.965   8.174
 1380AUL    AUL 1367  13.973  37.814   8.482
 1381THSLK    S 1368  14.223  37.616   8.426
 1382ETHY    C1 1369  14.336  37.475   8.852
 1383ETHY    C1 1370  14.485  37.404   9.385
 1384THSLK    S 1371  13.721  37.934   8.439
 1385ETHY    C1 1372  13.616  37.945   8.889
 1386ETHY    C1 1373  13.466  38.053   9.415
 1387AUSL   AUS 1374  14.136  37.965   8.174
 1388AUSL   AUS 1375  14.483  38.078   7.917
 1389AUL    AUL 1376  14.464  38.117   8.295
 1390THSLK    S 1377  14.224  38.011   8.426
 1391ETHY    C1 1378  14.330  38.151   8.854
 1392ETHY    C1 1379  14.480  38.223   9.386
 1393THSLK    S 1380  14.663  38.194   8.082
 1394ETHY    C1 1381  15.008  38.329   8.358
 1395ETHY    C1 1382  15.383  38.583   8.683
 1396AUSL   AUS 1383  14.382  37.814   6.921
 1397AUSL   AUS 1384  14.238  38.230   6.990
 1398AUL    AUL 1385  14.464  38.117   6.706
 1399THSLK    S 1386  14.488  37.774   6.668
 1400ETHY    C1 1387  14.725  37.707   6.278
 1401ETHY    C1 1388  15.018  37.726   5.804
 1402THSLK    S 1389  14.413  38.358   6.816
 1403ETHY    C1 1390  14.644  38.576   6.480
 1404ETHY    C1 1391  14.870  38.918   6.102
 1405AUSL   AUS 1392  14.136  37.662   6.827
 1406AUSL   AUS 1393  14.483  37.549   7.084
 1407AUL    AUL 1394  14.464  37.510   6.706
 1408THSLK    S 1395  14.629  37.362   6.932
 1409ETHY    C1 1396  14.913  37.108   6.670
 1410ETHY    C1 1397  15.305  36.888   6.340
 1411THSLK    S 1398  14.224  37.616   6.575
 1412ETHY    C1 1399  14.330  37.476   6.147
 1413ETHY    C1 1400  14.480  37.404   5.615
 1414AUSL   AUS 1401  14.136  37.965   6.827
 1415AUSL   AUS 1402  13.809  37.662   6.827
 1416AUL    AUL 1403  13.973  37.814   6.519
 1417THSLK    S 1404  13.709  37.616   6.579
 1418ETHY    C1 1405  13.575  37.478   6.158
 1419ETHY    C1 1406  13.432  37.406   5.624
 1420THSLK    S 1407  14.237  37.933   6.566
 1421ETHY    C1 1408  14.364  37.942   6.121
 1422ETHY    C1 1409  14.508  38.051   5.594
 1423AUSL   AUS 1410  13.564  37.814   8.081
 1424AUSL   AUS 1411  13.708  38.230   8.011
 1425AUL    AUL 1412  13.482  38.117   8.295
 1426THSLK    S 1413  13.458  37.774   8.333
 1427ETHY    C1 1414  13.221  37.707   8.723
 1428ETHY    C1 1415  12.927  37.726   9.197
 1429THSLK    S 1416  13.580  38.372   8.202
 1430ETHY    C1 1417  13.427  38.617   8.563
 1431ETHY    C1 1418  13.179  38.952   8.933
 1432AUSL   AUS 1419  13.809  37.662   8.174
 1433AUSL   AUS 1420  13.463  37.549   7.917
 1434AUL    AUL 1421  13.482  37.510   8.295
 1435THSLK    S 1422  13.282  37.381   8.043
 1436ETHY    C1 1423  12.941  37.155   8.259
 1437ETHY    C1 1424  12.565  36.927   8.602
 1438THSLK    S 1425  13.709  37.616   8.422
 1439ETHY    C1 1426  13.581  37.477   8.844
 1440ETHY    C1 1427  13.437  37.405   9.378
 1441AUSL   AUS 1428  13.564  37.814   6.921
 1442AUSL   AUS 1429  13.708  37.397   6.990
 1443AUL    AUL 1430  13.482  37.510   6.706
 1444THSLK    S 1431  13.459  37.774   6.668
 1445ETHY    C1 1432  13.215  37.707   6.281
 1446ETHY    C1 1433  12.923  37.726   5.807
 1447THSLK    S 1434  13.534  37.223   6.855
 1448ETHY    C1 1435  13.297  36.930   6.587
 1449ETHY    C1 1436  13.072  36.609   6.190
 1450AUSL   AUS 1437  13.809  37.965   6.827
 1451AUSL   AUS 1438  13.463  38.078   7.084
 1452AUL    AUL 1439  13.482  38.117   6.706
 1453THSLK    S 1440  13.317  38.213   6.894
 1454ETHY    C1 1441  13.028  38.377   6.572
 1455ETHY    C1 1442  12.637  38.622   6.259
 1456THSLK    S 1443  13.722  37.934   6.562
 1457ETHY    C1 1444  13.609  37.944   6.114
 1458ETHY    C1 1445  13.461  38.052   5.587
 1459AUSL   AUS 1446  14.553  38.223   7.501
 1460AUSL   AUS 1447  14.483  38.078   7.084
 1461AUL    AUL 1448  14.767  38.304   7.197
 1462THSLK    S 1449  14.663  38.195   6.920
 1463ETHY    C1 1450  15.004  38.328   6.638
 1464ETHY    C1 1451  15.380  38.582   6.314
 1465THSLK    S 1452  14.826  38.294   7.501
 1466ETHY    C1 1453  15.250  38.478   7.497
 1467ETHY    C1 1454  15.714  38.787   7.498
 1468AUSL   AUS 1455  14.647  37.977   7.349
 1469AUSL   AUS 1456  14.647  37.650   7.652
 1470AUL    AUL 1457  14.954  37.814   7.501
 1471THSLK    S 1458  14.914  38.032   7.341
 1472ETHY    C1 1459  15.366  38.088   7.262
 1473ETHY    C1 1460  15.891  38.253   7.172
 1474THSLK    S 1461  14.893  37.518   7.659
 1475ETHY    C1 1462  15.310  37.333   7.728
 1476ETHY    C1 1463  15.846  37.205   7.820
 1477AUSL   AUS 1464  14.647  37.977   7.652
 1478AUSL   AUS 1465  14.389  38.324   7.765
 1479AUL    AUL 1466  14.767  38.304   7.804
 1480THSLK    S 1467  14.575  38.459   7.925
 1481ETHY    C1 1468  14.891  38.727   8.128
 1482ETHY    C1 1469  15.206  39.124   8.362
 1483THSLK    S 1470  14.914  38.032   7.661
 1484ETHY    C1 1471  15.366  38.088   7.733
 1485ETHY    C1 1472  15.892  38.253   7.824
 1486AUSL   AUS 1473  13.393  38.223   7.501
 1487AUSL   AUS 1474  13.463  38.078   7.917
 1488AUL    AUL 1475  13.179  38.304   7.804
 1489THSLK    S 1476  13.316  38.213   8.107
 1490ETHY    C1 1477  13.032  38.382   8.430
 1491ETHY    C1 1478  12.640  38.627   8.743
 1492THSLK    S 1479  13.162  38.361   7.501
 1493ETHY    C1 1480  12.808  38.659   7.497
 1494ETHY    C1 1481  12.324  38.936   7.498
 1495AUSL   AUS 1482  13.299  37.977   7.349
 1496AUSL   AUS 1483  13.556  38.324   7.236
 1497AUL    AUL 1484  13.179  38.304   7.197
 1498THSLK    S 1485  13.053  38.087   7.307
 1499ETHY    C1 1486  12.635  38.232   7.173
 1500ETHY    C1 1487  12.100  38.372   7.099
 1501THSLK    S 1488  13.425  38.493   7.056
 1502ETHY    C1 1489  13.201  38.815   6.812
 1503ETHY    C1 1490  12.861  39.197   6.589
 1504AUSL   AUS 1491  13.299  37.977   7.652
 1505AUSL   AUS 1492  13.299  37.650   7.349
 1506AUL    AUL 1493  12.991  37.814   7.501
 1507THSLK    S 1494  13.032  37.572   7.377
 1508ETHY    C1 1495  12.579  37.483   7.359
 1509ETHY    C1 1496  12.054  37.328   7.252
 1510THSLK    S 1497  13.053  38.087   7.694
 1511ETHY    C1 1498  12.636  38.238   7.825
 1512ETHY    C1 1499  12.101  38.376   7.900
 1513AUSL   AUS 1500  14.553  37.405   7.501
 1514AUSL   AUS 1501  14.483  37.549   7.917
 1515AUL    AUL 1502  14.767  37.323   7.804
 1516THSLK    S 1503  14.784  37.266   7.501
 1517ETHY    C1 1504  15.138  36.968   7.497
 1518ETHY    C1 1505  15.622  36.691   7.498
 1519THSLK    S 1506  14.629  37.362   8.070
 1520ETHY    C1 1507  14.917  37.107   8.326
 1521ETHY    C1 1508  15.309  36.887   8.657
 1522AUSL   AUS 1509  14.647  37.650   7.349
 1523AUSL   AUS 1510  14.389  37.303   7.236
 1524AUL    AUL 1511  14.767  37.323   7.197
 1525THSLK    S 1512  14.893  37.518   7.343
 1526ETHY    C1 1513  15.309  37.333   7.266
 1527ETHY    C1 1514  15.845  37.205   7.176
 1528THSLK    S 1515  14.521  37.112   7.092
 1529ETHY    C1 1516  14.742  36.751   6.907
 1530ETHY    C1 1517  15.083  36.381   6.667
 1531AUSL   AUS 1518  13.393  37.405   7.501
 1532AUSL   AUS 1519  13.463  37.549   7.084
 1533AUL    AUL 1520  13.179  37.323   7.197
 1534THSLK    S 1521  13.283  37.381   6.958
 1535ETHY    C1 1522  12.937  37.161   6.743
 1536ETHY    C1 1523  12.562  36.931   6.400
 1537THSLK    S 1524  13.120  37.333   7.501
 1538ETHY    C1 1525  12.696  37.150   7.497
 1539ETHY    C1 1526  12.232  36.840   7.498
 1540AUSL   AUS 1527  13.299  37.650   7.652
 1541AUSL   AUS 1528  13.556  37.303   7.765
 1542AUL    AUL 1529  13.179  37.323   7.804
 1543THSLK    S 1530  13.370  37.146   7.889
 1544ETHY    C1 1531  13.057  36.840   8.033
 1545ETHY    C1 1532  12.742  36.453   8.284
 1546THSLK    S 1533  13.032  37.573   7.625
 1547ETHY    C1 1534  12.580  37.477   7.639
 1548ETHY    C1 1535  12.055  37.324   7.746
 1549AUSL   AUS 1536  13.973  38.394   7.910
 1550AUSL   AUS 1537  13.556  38.324   7.765
 1551AUL    AUL 1538  13.669  38.608   7.991
 1552THSLK    S 1539  13.425  38.492   7.945
 1553ETHY    C1 1540  13.204  38.820   8.185
 1554ETHY    C1 1541  12.863  39.200   8.409
 1555THSLK    S 1542  14.007  38.635   8.033
 1556ETHY    C1 1543  14.065  39.007   8.301
 1557ETHY    C1 1544  14.049  39.486   8.586
 1558AUSL   AUS 1545  13.821  38.487   7.664
 1559AUSL   AUS 1546  14.124  38.487   7.337
 1560AUL    AUL 1547  13.973  38.795   7.501
 1561THSLK    S 1548  13.852  38.747   7.770
 1562ETHY    C1 1549  13.842  39.188   7.907
 1563ETHY    C1 1550  13.733  39.717   8.048
 1564THSLK    S 1551  14.169  38.736   7.235
 1565ETHY    C1 1552  14.307  39.154   7.097
 1566ETHY    C1 1553  14.379  39.689   6.955
 1567AUSL   AUS 1554  14.124  38.487   7.664
 1568AUSL   AUS 1555  14.238  38.230   8.011
 1569AUL    AUL 1556  14.276  38.608   7.991
 1570THSLK    S 1557  14.412  38.358   8.185
 1571ETHY    C1 1558  14.648  38.577   8.517
 1572ETHY    C1 1559  14.874  38.919   8.895
 1573THSLK    S 1560  14.169  38.735   7.767
 1574ETHY    C1 1561  14.308  39.156   7.898
 1575ETHY    C1 1562  14.381  39.690   8.041
 1576AUSL   AUS 1563  13.973  37.234   7.910
 1577AUSL   AUS 1564  14.389  37.303   7.765
 1578AUL    AUL 1565  14.276  37.019   7.991
 1579THSLK    S 1566  13.939  36.970   7.997
 1580ETHY    C1 1567  13.884  36.561   8.205
 1581ETHY    C1 1568  13.899  36.093   8.507
 1582THSLK    S 1569  14.521  37.112   7.910
 1583ETHY    C1 1570  14.744  36.750   8.089
 1584ETHY    C1 1571  15.085  36.380   8.330
 1585AUSL   AUS 1572  13.821  37.140   7.664
 1586AUSL   AUS 1573  13.708  37.397   8.011
 1587AUL    AUL 1574  13.669  37.019   7.991
 1588THSLK    S 1575  13.776  36.887   7.746
 1589ETHY    C1 1576  13.639  36.456   7.843
 1590ETHY    C1 1577  13.566  35.924   7.996
 1591THSLK    S 1578  13.533  37.223   8.146
 1592ETHY    C1 1579  13.302  36.925   8.413
 1593ETHY    C1 1580  13.075  36.605   8.810
 1594AUSL   AUS 1581  14.124  37.140   7.664
 1595AUSL   AUS 1582  13.821  37.140   7.337
 1596AUL    AUL 1583  13.973  36.832   7.501
 1597THSLK    S 1584  13.776  36.887   7.255
 1598ETHY    C1 1585  13.637  36.458   7.152
 1599ETHY    C1 1586  13.565  35.926   7.001
 1600THSLK    S 1587  14.093  36.875   7.750
 1601ETHY    C1 1588  14.106  36.424   7.852
 1602ETHY    C1 1589  14.214  35.898   8.003
 1603AUSL   AUS 1590  13.973  38.394   7.092
 1604AUSL   AUS 1591  14.389  38.324   7.236
 1605AUL    AUL 1592  14.276  38.608   7.010
 1606THSLK    S 1593  14.007  38.635   6.969
 1607ETHY    C1 1594  14.062  39.004   6.696
 1608ETHY    C1 1595  14.046  39.483   6.412
 1609THSLK    S 1596  14.576  38.459   7.077
 1610ETHY    C1 1597  14.889  38.726   6.868
 1611ETHY    C1 1598  15.204  39.123   6.634
 1612AUSL   AUS 1599  13.821  38.487   7.337
 1613AUSL   AUS 1600  13.708  38.230   6.990
 1614AUL    AUL 1601  13.669  38.608   7.010
 1615THSLK    S 1602  13.852  38.748   7.232
 1616ETHY    C1 1603  13.840  39.186   7.088
 1617ETHY    C1 1604  13.732  39.715   6.948
 1618THSLK    S 1605  13.581  38.373   6.799
 1619ETHY    C1 1606  13.423  38.613   6.437
 1620ETHY    C1 1607  13.175  38.948   6.067
 1621AUSL   AUS 1608  13.973  37.234   7.092
 1622AUSL   AUS 1609  13.556  37.303   7.236
 1623AUL    AUL 1610  13.669  37.019   7.010
 1624THSLK    S 1611  13.370  37.146   7.113
 1625ETHY    C1 1612  13.054  36.844   6.964
 1626ETHY    C1 1613  12.740  36.457   6.714
 1627THSLK    S 1614  13.939  36.970   7.004
 1628ETHY    C1 1615  13.880  36.565   6.791
 1629ETHY    C1 1616  13.897  36.095   6.490
 1630AUSL   AUS 1617  14.124  37.140   7.337
 1631AUSL   AUS 1618  14.238  37.397   6.990
 1632AUL    AUL 1619  14.276  37.019   7.010
 1633THSLK    S 1620  14.094  36.874   7.252
 1634ETHY    C1 1621  14.104  36.426   7.143
 1635ETHY    C1 1622  14.212  35.899   6.993
 1636THSLK    S 1623  14.366  37.208   6.839
 1637ETHY    C1 1624  14.518  36.890   6.541
 1638ETHY    C1 1625  14.767  36.576   6.152
 1639AUC    AUC 1626  31.282  16.978   7.501
 1640AUC    AUC 1627  31.527  16.978   7.349
 1641AUC    AUC 1628  31.527  16.978   7.652
 1642AUC    AUC 1629  31.036  16.978   7.349
 1643AUC    AUC 1630  31.036  16.978   7.652
 1644AUC    AUC 1631  31.130  17.223   7.501
 1645AUC    AUC 1632  31.433  17.223   7.501
 1646AUC    AUC 1633  31.130  16.732   7.501
 1647AUC    AUC 1634  31.433  16.732   7.501
 1648AUC    AUC 1635  31.282  16.826   7.746
 1649AUC    AUC 1636  31.282  17.129   7.746
 1650AUC    AUC 1637  31.282  16.826   7.255
 1651AUC    AUC 1638  31.282  17.129   7.255
 1652AUC    AUC 1639  31.773  16.978   7.197
 1653AUC    AUC 1640  31.773  16.978   7.501
 1654AUC    AUC 1641  31.773  16.978   7.804
 1655AUC    AUC 1642  30.791  16.978   7.197
 1656AUC    AUC 1643  30.791  16.978   7.501
 1657AUC    AUC 1644  30.791  16.978   7.804
 1658AUC    AUC 1645  30.978  17.468   7.501
 1659AUC    AUC 1646  31.282  17.468   7.501
 1660AUC    AUC 1647  31.585  17.468   7.501
 1661AUC    AUC 1648  30.978  16.487   7.501
 1662AUC    AUC 1649  31.282  16.487   7.501
 1663AUC    AUC 1650  31.585  16.487   7.501
 1664AUC    AUC 1651  31.282  16.674   7.991
 1665AUC    AUC 1652  31.282  16.978   7.991
 1666AUC    AUC 1653  31.282  17.281   7.991
 1667AUC    AUC 1654  31.282  16.674   7.010
 1668AUC    AUC 1655  31.282  16.978   7.010
 1669AUC    AUC 1656  31.282  17.281   7.010
 1670AUC    AUC 1657  31.527  16.826   7.898
 1671AUC    AUC 1658  31.527  17.129   7.898
 1672AUC    AUC 1659  31.527  16.826   7.103
 1673AUC    AUC 1660  31.527  17.129   7.103
 1674AUC    AUC 1661  31.036  16.826   7.898
 1675AUC    AUC 1662  31.036  17.129   7.898
 1676AUC    AUC 1663  31.036  16.826   7.103
 1677AUC    AUC 1664  31.036  17.129   7.103
 1678AUC    AUC 1665  31.679  17.223   7.349
 1679AUC    AUC 1666  31.679  17.223   7.652
 1680AUC    AUC 1667  30.885  17.223   7.349
 1681AUC    AUC 1668  30.885  17.223   7.652
 1682AUC    AUC 1669  31.679  16.732   7.349
 1683AUC    AUC 1670  31.679  16.732   7.652
 1684AUC    AUC 1671  30.885  16.732   7.349
 1685AUC    AUC 1672  30.885  16.732   7.652
 1686AUC    AUC 1673  31.130  17.375   7.746
 1687AUC    AUC 1674  31.433  17.375   7.746
 1688AUC    AUC 1675  31.130  16.581   7.746
 1689AUC    AUC 1676  31.433  16.581   7.746
 1690AUC    AUC 1677  31.130  17.375   7.255
 1691AUC    AUC 1678  31.433  17.375   7.255
 1692AUC    AUC 1679  31.130  16.581   7.255
 1693AUC    AUC 1680  31.433  16.581   7.255
 1694AUSL   AUS 1681  31.691  16.978   8.081
 1695AUSL   AUS 1682  31.547  16.561   8.011
 1696AUL    AUL 1683  31.773  16.674   8.295
 1697THSLK    S 1684  31.674  16.373   8.163
 1698ETHY    C1 1685  31.832  16.052   8.456
 1699ETHY    C1 1686  32.080  15.739   8.845
 1700THSLK    S 1687  31.796  16.938   8.333
 1701ETHY    C1 1688  32.039  16.871   8.720
 1702ETHY    C1 1689  32.332  16.890   9.194
 1703AUSL   AUS 1690  31.445  16.826   8.174
 1704AUSL   AUS 1691  31.118  17.129   8.174
 1705AUL    AUL 1692  31.282  16.978   8.482
 1706THSLK    S 1693  31.532  16.780   8.426
 1707ETHY    C1 1694  31.645  16.639   8.852
 1708ETHY    C1 1695  31.794  16.568   9.385
 1709THSLK    S 1696  31.030  17.098   8.439
 1710ETHY    C1 1697  30.925  17.109   8.889
 1711ETHY    C1 1698  30.775  17.217   9.415
 1712AUSL   AUS 1699  31.445  17.129   8.174
 1713AUSL   AUS 1700  31.792  17.242   7.917
 1714AUL    AUL 1701  31.773  17.281   8.295
 1715THSLK    S 1702  31.533  17.175   8.426
 1716ETHY    C1 1703  31.639  17.315   8.854
 1717ETHY    C1 1704  31.789  17.387   9.386
 1718THSLK    S 1705  31.972  17.358   8.082
 1719ETHY    C1 1706  32.317  17.493   8.358
 1720ETHY    C1 1707  32.692  17.747   8.683
 1721AUSL   AUS 1708  31.691  16.978   6.921
 1722AUSL   AUS 1709  31.547  17.394   6.990
 1723AUL    AUL 1710  31.773  17.281   6.706
 1724THSLK    S 1711  31.797  16.938   6.668
 1725ETHY    C1 1712  32.034  16.871   6.278
 1726ETHY    C1 1713  32.327  16.890   5.804
 1727THSLK    S 1714  31.722  17.522   6.816
 1728ETHY    C1 1715  31.953  17.740   6.480
 1729ETHY    C1 1716  32.179  18.082   6.102
 1730AUSL   AUS 1717  31.445  16.826   6.827
 1731AUSL   AUS 1718  31.792  16.713   7.084
 1732AUL    AUL 1719  31.773  16.674   6.706
 1733THSLK    S 1720  31.938  16.526   6.932
 1734ETHY    C1 1721  32.222  16.272   6.670
 1735ETHY    C1 1722  32.614  16.052   6.340
 1736THSLK    S 1723  31.533  16.780   6.575
 1737ETHY    C1 1724  31.639  16.640   6.147
 1738ETHY    C1 1725  31.789  16.568   5.615
 1739AUSL   AUS 1726  31.445  17.129   6.827
 1740AUSL   AUS 1727  31.118  16.826   6.827
 1741AUL    AUL 1728  31.282  16.978   6.519
 1742THSLK    S 1729  31.018  16.780   6.579
 1743ETHY    C1 1730  30.884  16.642   6.158
 1744ETHY    C1 1731  30.741  16.570   5.624
 1745THSLK    S 1732  31.546  17.097   6.566
 1746ETHY    C1 1733  31.673  17.106   6.121
 1747ETHY    C1 1734  31.817  17.215   5.594
 1748AUSL   AUS 1735  30.873  16.978   8.081
 1749AUSL   AUS 1736  31.017  17.394   8.011
 1750AUL    AUL 1737  30.791  17.281   8.295
 1751THSLK    S 1738  30.767  16.938   8.333
 1752ETHY    C1 1739  30.530  16.871   8.723
 1753ETHY    C1 1740  30.236  16.890   9.197
 1754THSLK    S 1741  30.889  17.536   8.202
 1755ETHY    C1 1742  30.736  17.781   8.563
 1756ETHY    C1 1743  30.488  18.116   8.933
 1757AUSL   AUS 1744  31.118  16.826   8.174
 1758AUSL   AUS 1745  30.772  16.713   7.917
 1759AUL    AUL 1746  30.791  16.674   8.295
 1760THSLK    S 1747  30.591  16.545   8.043
 1761ETHY    C1 1748  30.250  16.319   8.259
 1762ETHY    C1 1749  29.874  16.091   8.602
 1763THSLK    S 1750  31.018  16.780   8.422
 1764ETHY    C1 1751  30.890  16.641   8.844
 1765ETHY    C1 1752  30.746  16.569   9.378
 1766AUSL   AUS 1753  30.873  16.978   6.921
 1767AUSL   AUS 1754  31.017  16.561   6.990
 1768AUL    AUL 1755  30.791  16.674   6.706
 1769THSLK    S 1756  30.768  16.938   6.668
 1770ETHY    C1 1757  30.524  16.871   6.281
 1771ETHY    C1 1758  30.232  16.890   5.807
 1772THSLK    S 1759  30.843  16.387   6.855
 1773ETHY    C1 1760  30.606  16.094   6.587
 1774ETHY    C1 1761  30.381  15.773   6.190
 1775AUSL   AUS 1762  31.118  17.129   6.827
 1776AUSL   AUS 1763  30.772  17.242   7.084
 1777AUL    AUL 1764  30.791  17.281   6.706
 1778THSLK    S 1765  30.626  17.377   6.894
 1779ETHY    C1 1766  30.337  17.541   6.572
 1780ETHY    C1 1767  29.946  17.786   6.259
 1781THSLK    S 1768  31.031  17.098   6.562
 1782ETHY    C1 1769  30.918  17.108   6.114
 1783ETHY    C1 1770  30.770  17.216   5.587
 1784AUSL   AUS 1771  31.862  17.387   7.501
 1785AUSL   AUS 1772  31.792  17.242   7.084
 1786AUL    AUL 1773  32.076  17.468   7.197
 1787THSLK    S 1774  31.972  17.359   6.920
 1788ETHY    C1 1775  32.313  17.492   6.638
 1789ETHY    C1 1776  32.689  17.746   6.314
 1790THSLK    S 1777  32.135  17.458   7.501
 1791ETHY    C1 1778  32.559  17.642   7.497
 1792ETHY    C1 1779  33.023  17.951   7.498
 1793AUSL   AUS 1780  31.956  17.141   7.349
 1794AUSL   AUS 1781  31.956  16.814   7.652
 1795AUL    AUL 1782  32.263  16.978   7.501
 1796THSLK    S 1783  32.223  17.196   7.341
 1797ETHY    C1 1784  32.675  17.252   7.262
 1798ETHY    C1 1785  33.200  17.417   7.172
 1799THSLK    S 1786  32.202  16.682   7.659
 1800ETHY    C1 1787  32.619  16.497   7.728
 1801ETHY    C1 1788  33.155  16.369   7.820
 1802AUSL   AUS 1789  31.956  17.141   7.652
 1803AUSL   AUS 1790  31.698  17.488   7.765
 1804AUL    AUL 1791  32.076  17.468   7.804
 1805THSLK    S 1792  31.884  17.623   7.925
 1806ETHY    C1 1793  32.200  17.891   8.128
 1807ETHY    C1 1794  32.515  18.288   8.362
 1808THSLK    S 1795  32.223  17.196   7.661
 1809ETHY    C1 1796  32.675  17.252   7.733
 1810ETHY    C1 1797  33.201  17.417   7.824
 1811AUSL   AUS 1798  30.702  17.387   7.501
 1812AUSL   AUS 1799  30.772  17.242   7.917
 1813AUL    AUL 1800  30.488  17.468   7.804
 1814THSLK    S 1801  30.625  17.377   8.107
 1815ETHY    C1 1802  30.341  17.546   8.430
 1816ETHY    C1 1803  29.949  17.791   8.743
 1817THSLK    S 1804  30.471  17.525   7.501
 1818ETHY    C1 1805  30.117  17.823   7.497
 1819ETHY    C1 1806  29.633  18.100   7.498
 1820AUSL   AUS 1807  30.608  17.141   7.349
 1821AUSL   AUS 1808  30.865  17.488   7.236
 1822AUL    AUL 1809  30.488  17.468   7.197
 1823THSLK    S 1810  30.362  17.251   7.307
 1824ETHY    C1 1811  29.944  17.396   7.173
 1825ETHY    C1 1812  29.409  17.536   7.099
 1826THSLK    S 1813  30.734  17.657   7.056
 1827ETHY    C1 1814  30.510  17.979   6.812
 1828ETHY    C1 1815  30.170  18.361   6.589
 1829AUSL   AUS 1816  30.608  17.141   7.652
 1830AUSL   AUS 1817  30.608  16.814   7.349
 1831AUL    AUL 1818  30.300  16.978   7.501
 1832THSLK    S 1819  30.341  16.736   7.377
 1833ETHY    C1 1820  29.888  16.647   7.359
 1834ETHY    C1 1821  29.363  16.492   7.252
 1835THSLK    S 1822  30.362  17.251   7.694
 1836ETHY    C1 1823  29.945  17.402   7.825
 1837ETHY    C1 1824  29.410  17.540   7.900
 1838AUSL   AUS 1825  31.862  16.569   7.501
 1839AUSL   AUS 1826  31.792  16.713   7.917
 1840AUL    AUL 1827  32.076  16.487   7.804
 1841THSLK    S 1828  32.093  16.430   7.501
 1842ETHY    C1 1829  32.447  16.132   7.497
 1843ETHY    C1 1830  32.931  15.855   7.498
 1844THSLK    S 1831  31.938  16.526   8.070
 1845ETHY    C1 1832  32.226  16.271   8.326
 1846ETHY    C1 1833  32.618  16.051   8.657
 1847AUSL   AUS 1834  31.956  16.814   7.349
 1848AUSL   AUS 1835  31.698  16.467   7.236
 1849AUL    AUL 1836  32.076  16.487   7.197
 1850THSLK    S 1837  32.202  16.682   7.343
 1851ETHY    C1 1838  32.618  16.497   7.266
 1852ETHY    C1 1839  33.154  16.369   7.176
 1853THSLK    S 1840  31.830  16.276   7.092
 1854ETHY    C1 1841  32.051  15.915   6.907
 1855ETHY    C1 1842  32.392  15.545   6.667
 1856AUSL   AUS 1843  30.702  16.569   7.501
 1857AUSL   AUS 1844  30.772  16.713   7.084
 1858AUL    AUL 1845  30.488  16.487   7.197
 1859THSLK    S 1846  30.592  16.545   6.958
 1860ETHY    C1 1847  30.246  16.325   6.743
 1861ETHY    C1 1848  29.871  16.095   6.400
 1862THSLK    S 1849  30.429  16.497   7.501
 1863ETHY    C1 1850  30.005  16.314   7.497
 1864ETHY    C1 1851  29.541  16.004   7.498
 1865AUSL   AUS 1852  30.608  16.814   7.652
 1866AUSL   AUS 1853  30.865  16.467   7.765
 1867AUL    AUL 1854  30.488  16.487   7.804
 1868THSLK    S 1855  30.679  16.310   7.889
 1869ETHY    C1 1856  30.366  16.004   8.033
 1870ETHY    C1 1857  30.051  15.617   8.284
 1871THSLK    S 1858  30.341  16.737   7.625
 1872ETHY    C1 1859  29.889  16.641   7.639
 1873ETHY    C1 1860  29.364  16.488   7.746
 1874AUSL   AUS 1861  31.282  17.558   7.910
 1875AUSL   AUS 1862  30.865  17.488   7.765
 1876AUL    AUL 1863  30.978  17.772   7.991
 1877THSLK    S 1864  30.734  17.656   7.945
 1878ETHY    C1 1865  30.513  17.984   8.185
 1879ETHY    C1 1866  30.172  18.364   8.409
 1880THSLK    S 1867  31.316  17.799   8.033
 1881ETHY    C1 1868  31.374  18.171   8.301
 1882ETHY    C1 1869  31.358  18.650   8.586
 1883AUSL   AUS 1870  31.130  17.651   7.664
 1884AUSL   AUS 1871  31.433  17.651   7.337
 1885AUL    AUL 1872  31.282  17.959   7.501
 1886THSLK    S 1873  31.161  17.911   7.770
 1887ETHY    C1 1874  31.151  18.352   7.907
 1888ETHY    C1 1875  31.042  18.881   8.048
 1889THSLK    S 1876  31.478  17.900   7.235
 1890ETHY    C1 1877  31.616  18.318   7.097
 1891ETHY    C1 1878  31.688  18.853   6.955
 1892AUSL   AUS 1879  31.433  17.651   7.664
 1893AUSL   AUS 1880  31.547  17.394   8.011
 1894AUL    AUL 1881  31.585  17.772   7.991
 1895THSLK    S 1882  31.721  17.522   8.185
 1896ETHY    C1 1883  31.957  17.741   8.517
 1897ETHY    C1 1884  32.183  18.083   8.895
 1898THSLK    S 1885  31.478  17.899   7.767
 1899ETHY    C1 1886  31.617  18.320   7.898
 1900ETHY    C1 1887  31.690  18.854   8.041
 1901AUSL   AUS 1888  31.282  16.398   7.910
 1902AUSL   AUS 1889  31.698  16.467   7.765
 1903AUL    AUL 1890  31.585  16.183   7.991
 1904THSLK    S 1891  31.248  16.134   7.997
 1905ETHY    C1 1892  31.193  15.725   8.205
 1906ETHY    C1 1893  31.208  15.257   8.507
 1907THSLK    S 1894  31.830  16.276   7.910
 1908ETHY    C1 1895  32.053  15.914   8.089
 1909ETHY    C1 1896  32.394  15.544   8.330
 1910AUSL   AUS 1897  31.130  16.304   7.664
 1911AUSL   AUS 1898  31.017  16.561   8.011
 1912AUL    AUL 1899  30.978  16.183   7.991
 1913THSLK    S 1900  31.085  16.051   7.746
 1914ETHY    C1 1901  30.948  15.620   7.843
 1915ETHY    C1 1902  30.875  15.088   7.996
 1916THSLK    S 1903  30.842  16.387   8.146
 1917ETHY    C1 1904  30.611  16.089   8.413
 1918ETHY    C1 1905  30.384  15.769   8.810
 1919AUSL   AUS 1906  31.433  16.304   7.664
 1920AUSL   AUS 1907  31.130  16.304   7.337
 1921AUL    AUL 1908  31.282  15.996   7.501
 1922THSLK    S 1909  31.085  16.051   7.255
 1923ETHY    C1 1910  30.946  15.622   7.152
 1924ETHY    C1 1911  30.874  15.090   7.001
 1925THSLK    S 1912  31.402  16.039   7.750
 1926ETHY    C1 1913  31.415  15.588   7.852
 1927ETHY    C1 1914  31.523  15.062   8.003
 1928AUSL   AUS 1915  31.282  17.558   7.092
 1929AUSL   AUS 1916  31.698  17.488   7.236
 1930AUL    AUL 1917  31.585  17.772   7.010
 1931THSLK    S 1918  31.316  17.799   6.969
 1932ETHY    C1 1919  31.371  18.168   6.696
 1933ETHY    C1 1920  31.355  18.647   6.412
 1934THSLK    S 1921  31.885  17.623   7.077
 1935ETHY    C1 1922  32.198  17.890   6.868
 1936ETHY    C1 1923  32.513  18.287   6.634
 1937AUSL   AUS 1924  31.130  17.651   7.337
 1938AUSL   AUS 1925  31.017  17.394   6.990
 1939AUL    AUL 1926  30.978  17.772   7.010
 1940THSLK    S 1927  31.161  17.912   7.232
 1941ETHY    C1 1928  31.149  18.350   7.088
 1942ETHY    C1 1929  31.041  18.879   6.948
 1943THSLK    S 1930  30.890  17.537   6.799
 1944ETHY    C1 1931  30.732  17.777   6.437
 1945ETHY    C1 1932  30.484  18.112   6.067
 1946AUSL   AUS 1933  31.282  16.398   7.092
 1947AUSL   AUS 1934  30.865  16.467   7.236
 1948AUL    AUL 1935  30.978  16.183   7.010
 1949THSLK    S 1936  30.679  16.310   7.113
 1950ETHY    C1 1937  30.363  16.008   6.964
 1951ETHY    C1 1938  30.049  15.621   6.714
 1952THSLK    S 1939  31.248  16.134   7.004
 1953ETHY    C1 1940  31.189  15.729   6.791
 1954ETHY    C1 1941  31.206  15.259   6.490
 1955AUSL   AUS 1942  31.433  16.304   7.337
 1956AUSL   AUS 1943  31.547  16.561   6.990
 1957AUL    AUL 1944  31.585  16.183   7.010
 1958THSLK    S 1945  31.403  16.038   7.252
 1959ETHY    C1 1946  31.413  15.590   7.143
 1960ETHY    C1 1947  31.521  15.063   6.993
 1961THSLK    S 1948  31.675  16.372   6.839
 1962ETHY    C1 1949  31.827  16.054   6.541
 1963ETHY    C1 1950  32.076  15.740   6.152
 1964AUC    AUC 1951  22.806  17.811   7.501
 1965AUC    AUC 1952  23.051  17.811   7.349
 1966AUC    AUC 1953  23.051  17.811   7.652
 1967AUC    AUC 1954  22.560  17.811   7.349
 1968AUC    AUC 1955  22.560  17.811   7.652
 1969AUC    AUC 1956  22.654  18.056   7.501
 1970AUC    AUC 1957  22.957  18.056   7.501
 1971AUC    AUC 1958  22.654  17.565   7.501
 1972AUC    AUC 1959  22.957  17.565   7.501
 1973AUC    AUC 1960  22.806  17.659   7.746
 1974AUC    AUC 1961  22.806  17.962   7.746
 1975AUC    AUC 1962  22.806  17.659   7.255
 1976AUC    AUC 1963  22.806  17.962   7.255
 1977AUC    AUC 1964  23.297  17.811   7.197
 1978AUC    AUC 1965  23.297  17.811   7.501
 1979AUC    AUC 1966  23.297  17.811   7.804
 1980AUC    AUC 1967  22.315  17.811   7.197
 1981AUC    AUC 1968  22.315  17.811   7.501
 1982AUC    AUC 1969  22.315  17.811   7.804
 1983AUC    AUC 1970  22.502  18.301   7.501
 1984AUC    AUC 1971  22.806  18.301   7.501
 1985AUC    AUC 1972  23.109  18.301   7.501
 1986AUC    AUC 1973  22.502  17.320   7.501
 1987AUC    AUC 1974  22.806  17.320   7.501
 1988AUC    AUC 1975  23.109  17.320   7.501
 1989AUC    AUC 1976  22.806  17.507   7.991
 1990AUC    AUC 1977  22.806  17.811   7.991
 1991AUC    AUC 1978  22.806  18.114   7.991
 1992AUC    AUC 1979  22.806  17.507   7.010
 1993AUC    AUC 1980  22.806  17.811   7.010
 1994AUC    AUC 1981  22.806  18.114   7.010
 1995AUC    AUC 1982  23.051  17.659   7.898
 1996AUC    AUC 1983  23.051  17.962   7.898
 1997AUC    AUC 1984  23.051  17.659   7.103
 1998AUC    AUC 1985  23.051  17.962   7.103
 1999AUC    AUC 1986  22.560  17.659   7.898
 2000AUC    AUC 1987  22.560  17.962   7.898
 2001AUC    AUC 1988  22.560  17.659   7.103
 2002AUC    AUC 1989  22.560  17.962   7.103
 2003AUC    AUC 1990  23.203  18.056   7.349
 2004AUC    AUC 1991  23.203  18.056   7.652
 2005AUC    AUC 1992  22.409  18.056   7.349
 2006AUC    AUC 1993  22.409  18.056   7.652
 2007AUC    AUC 1994  23.203  17.565   7.349
 2008AUC    AUC 1995  23.203  17.565   7.652
 2009AUC    AUC 1996  22.409  17.565   7.349
 2010AUC    AUC 1997  22.409  17.565   7.652
 2011AUC    AUC 1998  22.654  18.208   7.746
 2012AUC    AUC 1999  22.957  18.208   7.746
 2013AUC    AUC 2000  22.654  17.414   7.746
 2014AUC    AUC 2001  22.957  17.414   7.746
 2015AUC    AUC 2002  22.654  18.208   7.255
 2016AUC    AUC 2003  22.957  18.208   7.255
 2017AUC    AUC 2004  22.654  17.414   7.255
 2018AUC    AUC 2005  22.957  17.414   7.255
 2019AUSL   AUS 2006  23.215  17.811   8.081
 2020AUSL   AUS 2007  23.071  17.394   8.011
 2021AUL    AUL 2008  23.297  17.507   8.295
 2022THSLK    S 2009  23.198  17.206   8.163
 2023ETHY    C1 2010  23.356  16.885   8.456
 2024ETHY    C1 2011  23.604  16.572   8.845
 2025THSLK    S 2012  23.320  17.771   8.333
 2026ETHY    C1 2013  23.563  17.704   8.720
 2027ETHY    C1 2014  23.856  17.723   9.194
 2028AUSL   AUS 2015  22.969  17.659   8.174
 2029AUSL   AUS 2016  22.642  17.962   8.174
 2030AUL    AUL 2017  22.806  17.811   8.482
 2031THSLK    S 2018  23.056  17.613   8.426
 2032ETHY    C1 2019  23.169  17.472   8.852
 2033ETHY    C1 2020  23.318  17.401   9.385
 2034THSLK    S 2021  22.554  17.931   8.439
 2035ETHY    C1 2022  22.449  17.942   8.889
 2036ETHY    C1 2023  22.299  18.050   9.415
 2037AUSL   AUS 2024  22.969  17.962   8.174
 2038AUSL   AUS 2025  23.316  18.075   7.917
 2039AUL    AUL 2026  23.297  18.114   8.295
 2040THSLK    S 2027  23.057  18.008   8.426
 2041ETHY    C1 2028  23.163  18.148   8.854
 2042ETHY    C1 2029  23.313  18.220   9.386
 2043THSLK    S 2030  23.496  18.191   8.082
 2044ETHY    C1 2031  23.841  18.326   8.358
 2045ETHY    C1 2032  24.216  18.580   8.683
 2046AUSL   AUS 2033  23.215  17.811   6.921
 2047AUSL   AUS 2034  23.071  18.227   6.990
 2048AUL    AUL 2035  23.297  18.114   6.706
 2049THSLK    S 2036  23.321  17.771   6.668
 2050ETHY    C1 2037  23.558  17.704   6.278
 2051ETHY    C1 2038  23.851  17.723   5.804
 2052THSLK    S 2039  23.246  18.355   6.816
 2053ETHY    C1 2040  23.477  18.573   6.480
 2054ETHY    C1 2041  23.703  18.915   6.102
 2055AUSL   AUS 2042  22.969  17.659   6.827
 2056AUSL   AUS 2043  23.316  17.546   7.084
 2057AUL    AUL 2044  23.297  17.507   6.706
 2058THSLK    S 2045  23.462  17.359   6.932
 2059ETHY    C1 2046  23.746  17.105   6.670
 2060ETHY    C1 2047  24.138  16.885   6.340
 2061THSLK    S 2048  23.057  17.613   6.575
 2062ETHY    C1 2049  23.163  17.473   6.147
 2063ETHY    C1 2050  23.313  17.401   5.615
 2064AUSL   AUS 2051  22.969  17.962   6.827
 2065AUSL   AUS 2052  22.642  17.659   6.827
 2066AUL    AUL 2053  22.806  17.811   6.519
 2067THSLK    S 2054  22.542  17.613   6.579
 2068ETHY    C1 2055  22.408  17.475   6.158
 2069ETHY    C1 2056  22.265  17.403   5.624
 2070THSLK    S 2057  23.070  17.930   6.566
 2071ETHY    C1 2058  23.197  17.939   6.121
 2072ETHY    C1 2059  23.341  18.048   5.594
 2073AUSL   AUS 2060  22.397  17.811   8.081
 2074AUSL   AUS 2061  22.541  18.227   8.011
 2075AUL    AUL 2062  22.315  18.114   8.295
 2076THSLK    S 2063  22.291  17.771   8.333
 2077ETHY    C1 2064  22.054  17.704   8.723
 2078ETHY    C1 2065  21.760  17.723   9.197
 2079THSLK    S 2066  22.413  18.369   8.202
 2080ETHY    C1 2067  22.260  18.614   8.563
 2081ETHY    C1 2068  22.012  18.949   8.933
 2082AUSL   AUS 2069  22.642  17.659   8.174
 2083AUSL   AUS 2070  22.296  17.546   7.917
 2084AUL    AUL 2071  22.315  17.507   8.295
 2085THSLK    S 2072  22.115  17.378   8.043
 2086ETHY    C1 2073  21.774  17.152   8.259
 2087ETHY    C1 2074  21.398  16.924   8.602
 2088THSLK    S 2075  22.542  17.613   8.422
 2089ETHY    C1 2076  22.414  17.474   8.844
 2090ETHY    C1 2077  22.270  17.402   9.378
 2091AUSL   AUS 2078  22.397  17.811   6.921
 2092AUSL   AUS 2079  22.541  17.394   6.990
 2093AUL    AUL 2080  22.315  17.507   6.706
 2094THSLK    S 2081  22.292  17.771   6.668
 2095ETHY    C1 2082  22.048  17.704   6.281
 2096ETHY    C1 2083  21.756  17.723   5.807
 2097THSLK    S 2084  22.367  17.220   6.855
 2098ETHY    C1 2085  22.130  16.927   6.587
 2099ETHY    C1 2086  21.905  16.606   6.190
 2100AUSL   AUS 2087  22.642  17.962   6.827
 2101AUSL   AUS 2088  22.296  18.075   7.084
 2102AUL    AUL 2089  22.315  18.114   6.706
 2103THSLK    S 2090  22.150  18.210   6.894
 2104ETHY    C1 2091  21.861  18.374   6.572
 2105ETHY    C1 2092  21.470  18.619   6.259
 2106THSLK    S 2093  22.555  17.931   6.562
 2107ETHY    C1 2094  22.442  17.941   6.114
 2108ETHY    C1 2095  22.294  18.049   5.587
 2109AUSL   AUS 2096  23.386  18.220   7.501
 2110AUSL   AUS 2097  23.316  18.075   7.084
 2111AUL    AUL 2098  23.600  18.301   7.197
 2112THSLK    S 2099  23.496  18.192   6.920
 2113ETHY    C1 2100  23.837  18.325   6.638
 2114ETHY    C1 2101  24.213  18.579   6.314
 2115THSLK    S 2102  23.659  18.291   7.501
 2116ETHY    C1 2103  24.083  18.475   7.497
 2117ETHY    C1 2104  24.547  18.784   7.498
 2118AUSL   AUS 2105  23.480  17.974   7.349
 2119AUSL   AUS 2106  23.480  17.647   7.652
 2120AUL    AUL 2107  23.787  17.811   7.501
 2121THSLK    S 2108  23.747  18.029   7.341
 2122ETHY    C1 2109  24.199  18.085   7.262
 2123ETHY    C1 2110  24.724  18.250   7.172
 2124THSLK    S 2111  23.726  17.515   7.659
 2125ETHY    C1 2112  24.143  17.330   7.728
 2126ETHY    C1 2113  24.679  17.202   7.820
 2127AUSL   AUS 2114  23.480  17.974   7.652
 2128AUSL   AUS 2115  23.222  18.321   7.765
 2129AUL    AUL 2116  23.600  18.301   7.804
 2130THSLK    S 2117  23.408  18.456   7.925
 2131ETHY    C1 2118  23.724  18.724   8.128
 2132ETHY    C1 2119  24.039  19.121   8.362
 2133THSLK    S 2120  23.747  18.029   7.661
 2134ETHY    C1 2121  24.199  18.085   7.733
 2135ETHY    C1 2122  24.725  18.250   7.824
 2136AUSL   AUS 2123  22.226  18.220   7.501
 2137AUSL   AUS 2124  22.296  18.075   7.917
 2138AUL    AUL 2125  22.012  18.301   7.804
 2139THSLK    S 2126  22.149  18.210   8.107
 2140ETHY    C1 2127  21.865  18.379   8.430
 2141ETHY    C1 2128  21.473  18.624   8.743
 2142THSLK    S 2129  21.995  18.358   7.501
 2143ETHY    C1 2130  21.641  18.656   7.497
 2144ETHY    C1 2131  21.157  18.933   7.498
 2145AUSL   AUS 2132  22.132  17.974   7.349
 2146AUSL   AUS 2133  22.389  18.321   7.236
 2147AUL    AUL 2134  22.012  18.301   7.197
 2148THSLK    S 2135  21.886  18.084   7.307
 2149ETHY    C1 2136  21.468  18.229   7.173
 2150ETHY    C1 2137  20.933  18.369   7.099
 2151THSLK    S 2138  22.258  18.490   7.056
 2152ETHY    C1 2139  22.034  18.812   6.812
 2153ETHY    C1 2140  21.694  19.194   6.589
 2154AUSL   AUS 2141  22.132  17.974   7.652
 2155AUSL   AUS 2142  22.132  17.647   7.349
 2156AUL    AUL 2143  21.824  17.811   7.501
 2157THSLK    S 2144  21.865  17.569   7.377
 2158ETHY    C1 2145  21.412  17.480   7.359
 2159ETHY    C1 2146  20.887  17.325   7.252
 2160THSLK    S 2147  21.886  18.084   7.694
 2161ETHY    C1 2148  21.469  18.235   7.825
 2162ETHY    C1 2149  20.934  18.373   7.900
 2163AUSL   AUS 2150  23.386  17.402   7.501
 2164AUSL   AUS 2151  23.316  17.546   7.917
 2165AUL    AUL 2152  23.600  17.320   7.804
 2166THSLK    S 2153  23.617  17.263   7.501
 2167ETHY    C1 2154  23.971  16.965   7.497
 2168ETHY    C1 2155  24.455  16.688   7.498
 2169THSLK    S 2156  23.462  17.359   8.070
 2170ETHY    C1 2157  23.750  17.104   8.326
 2171ETHY    C1 2158  24.142  16.884   8.657
 2172AUSL   AUS 2159  23.480  17.647   7.349
 2173AUSL   AUS 2160  23.222  17.300   7.236
 2174AUL    AUL 2161  23.600  17.320   7.197
 2175THSLK    S 2162  23.726  17.515   7.343
 2176ETHY    C1 2163  24.142  17.330   7.266
 2177ETHY    C1 2164  24.678  17.202   7.176
 2178THSLK    S 2165  23.354  17.109   7.092
 2179ETHY    C1 2166  23.575  16.748   6.907
 2180ETHY    C1 2167  23.916  16.378   6.667
 2181AUSL   AUS 2168  22.226  17.402   7.501
 2182AUSL   AUS 2169  22.296  17.546   7.084
 2183AUL    AUL 2170  22.012  17.320   7.197
 2184THSLK    S 2171  22.116  17.378   6.958
 2185ETHY    C1 2172  21.770  17.158   6.743
 2186ETHY    C1 2173  21.395  16.928   6.400
 2187THSLK    S 2174  21.953  17.330   7.501
 2188ETHY    C1 2175  21.529  17.147   7.497
 2189ETHY    C1 2176  21.065  16.837   7.498
 2190AUSL   AUS 2177  22.132  17.647   7.652
 2191AUSL   AUS 2178  22.389  17.300   7.765
 2192AUL    AUL 2179  22.012  17.320   7.804
 2193THSLK    S 2180  22.203  17.143   7.889
 2194ETHY    C1 2181  21.890  16.837   8.033
 2195ETHY    C1 2182  21.575  16.450   8.284
 2196THSLK    S 2183  21.865  17.570   7.625
 2197ETHY    C1 2184  21.413  17.474   7.639
 2198ETHY    C1 2185  20.888  17.321   7.746
 2199AUSL   AUS 2186  22.806  18.391   7.910
 2200AUSL   AUS 2187  22.389  18.321   7.765
 2201AUL    AUL 2188  22.502  18.605   7.991
 2202THSLK    S 2189  22.258  18.489   7.945
 2203ETHY    C1 2190  22.037  18.817   8.185
 2204ETHY    C1 2191  21.696  19.197   8.409
 2205THSLK    S 2192  22.840  18.632   8.033
 2206ETHY    C1 2193  22.898  19.004   8.301
 2207ETHY    C1 2194  22.882  19.483   8.586
 2208AUSL   AUS 2195  22.654  18.484   7.664
 2209AUSL   AUS 2196  22.957  18.484   7.337
 2210AUL    AUL 2197  22.806  18.792   7.501
 2211THSLK    S 2198  22.685  18.744   7.770
 2212ETHY    C1 2199  22.675  19.185   7.907
 2213ETHY    C1 2200  22.566  19.714   8.048
 2214THSLK    S 2201  23.002  18.733   7.235
 2215ETHY    C1 2202  23.140  19.151   7.097
 2216ETHY    C1 2203  23.212  19.686   6.955
 2217AUSL   AUS 2204  22.957  18.484   7.664
 2218AUSL   AUS 2205  23.071  18.227   8.011
 2219AUL    AUL 2206  23.109  18.605   7.991
 2220THSLK    S 2207  23.245  18.355   8.185
 2221ETHY    C1 2208  23.481  18.574   8.517
 2222ETHY    C1 2209  23.707  18.916   8.895
 2223THSLK    S 2210  23.002  18.732   7.767
 2224ETHY    C1 2211  23.141  19.153   7.898
 2225ETHY    C1 2212  23.214  19.687   8.041
 2226AUSL   AUS 2213  22.806  17.231   7.910
 2227AUSL   AUS 2214  23.222  17.300   7.765
 2228AUL    AUL 2215  23.109  17.016   7.991
 2229THSLK    S 2216  22.772  16.967   7.997
 2230ETHY    C1 2217  22.717  16.558   8.205
 2231ETHY    C1 2218  22.732  16.090   8.507
 2232THSLK    S 2219  23.354  17.109   7.910
 2233ETHY    C1 2220  23.577  16.747   8.089
 2234ETHY    C1 2221  23.918  16.377   8.330
 2235AUSL   AUS 2222  22.654  17.137   7.664
 2236AUSL   AUS 2223  22.541  17.394   8.011
 2237AUL    AUL 2224  22.502  17.016   7.991
 2238THSLK    S 2225  22.609  16.884   7.746
 2239ETHY    C1 2226  22.472  16.453   7.843
 2240ETHY    C1 2227  22.399  15.921   7.996
 2241THSLK    S 2228  22.366  17.220   8.146
 2242ETHY    C1 2229  22.135  16.922   8.413
 2243ETHY    C1 2230  21.908  16.602   8.810
 2244AUSL   AUS 2231  22.957  17.137   7.664
 2245AUSL   AUS 2232  22.654  17.137   7.337
 2246AUL    AUL 2233  22.806  16.829   7.501
 2247THSLK    S 2234  22.609  16.884   7.255
 2248ETHY    C1 2235  22.470  16.455   7.152
 2249ETHY    C1 2236  22.398  15.923   7.001
 2250THSLK    S 2237  22.926  16.872   7.750
 2251ETHY    C1 2238  22.939  16.421   7.852
 2252ETHY    C1 2239  23.047  15.895   8.003
 2253AUSL   AUS 2240  22.806  18.391   7.092
 2254AUSL   AUS 2241  23.222  18.321   7.236
 2255AUL    AUL 2242  23.109  18.605   7.010
 2256THSLK    S 2243  22.840  18.632   6.969
 2257ETHY    C1 2244  22.895  19.001   6.696
 2258ETHY    C1 2245  22.879  19.480   6.412
 2259THSLK    S 2246  23.409  18.456   7.077
 2260ETHY    C1 2247  23.722  18.723   6.868
 2261ETHY    C1 2248  24.037  19.120   6.634
 2262AUSL   AUS 2249  22.654  18.484   7.337
 2263AUSL   AUS 2250  22.541  18.227   6.990
 2264AUL    AUL 2251  22.502  18.605   7.010
 2265THSLK    S 2252  22.685  18.745   7.232
 2266ETHY    C1 2253  22.673  19.183   7.088
 2267ETHY    C1 2254  22.565  19.712   6.948
 2268THSLK    S 2255  22.414  18.370   6.799
 2269ETHY    C1 2256  22.256  18.610   6.437
 2270ETHY    C1 2257  22.008  18.945   6.067
 2271AUSL   AUS 2258  22.806  17.231   7.092
 2272AUSL   AUS 2259  22.389  17.300   7.236
 2273AUL    AUL 2260  22.502  17.016   7.010
 2274THSLK    S 2261  22.203  17.143   7.113
 2275ETHY    C1 2262  21.887  16.841   6.964
 2276ETHY    C1 2263  21.573  16.454   6.714
 2277THSLK    S 2264  22.772  16.967   7.004
 2278ETHY    C1 2265  22.713  16.562   6.791
 2279ETHY    C1 2266  22.730  16.092   6.490
 2280AUSL   AUS 2267  22.957  17.137   7.337
 2281AUSL   AUS 2268  23.071  17.394   6.990
 2282AUL    AUL 2269  23.109  17.016   7.010
 2283THSLK    S 2270  22.927  16.871   7.252
 2284ETHY    C1 2271  22.937  16.423   7.143
 2285ETHY    C1 2272  23.045  15.896   6.993
 2286THSLK    S 2273  23.199  17.205   6.839
 2287ETHY    C1 2274  23.351  16.887   6.541
 2288ETHY    C1 2275  23.600  16.573   6.152
 2289AUC    AUC 2276  27.365  24.824   7.501
 2290AUC    AUC 2277  27.610  24.824   7.349
 2291AUC    AUC 2278  27.610  24.824   7.652
 2292AUC    AUC 2279  27.119  24.824   7.349
 2293AUC    AUC 2280  27.119  24.824   7.652
 2294AUC    AUC 2281  27.213  25.069   7.501
 2295AUC    AUC 2282  27.516  25.069   7.501
 2296AUC    AUC 2283  27.213  24.578   7.501
 2297AUC    AUC 2284  27.516  24.578   7.501
 2298AUC    AUC 2285  27.365  24.672   7.746
 2299AUC    AUC 2286  27.365  24.975   7.746
 2300AUC    AUC 2287  27.365  24.672   7.255
 2301AUC    AUC 2288  27.365  24.975   7.255
 2302AUC    AUC 2289  27.856  24.824   7.197
 2303AUC    AUC 2290  27.856  24.824   7.501
 2304AUC    AUC 2291  27.856  24.824   7.804
 2305AUC    AUC 2292  26.874  24.824   7.197
 2306AUC    AUC 2293  26.874  24.824   7.501
 2307AUC    AUC 2294  26.874  24.824   7.804
 2308AUC    AUC 2295  27.061  25.314   7.501
 2309AUC    AUC 2296  27.365  25.314   7.501
 2310AUC    AUC 2297  27.668  25.314   7.501
 2311AUC    AUC 2298  27.061  24.333   7.501
 2312AUC    AUC 2299  27.365  24.333   7.501
 2313AUC    AUC 2300  27.668  24.333   7.501
 2314AUC    AUC 2301  27.365  24.520   7.991
 2315AUC    AUC 2302  27.365  24.824   7.991
 2316AUC    AUC 2303  27.365  25.127   7.991
 2317AUC    AUC 2304  27.365  24.520   7.010
 2318AUC    AUC 2305  27.365  24.824   7.010
 2319AUC    AUC 2306  27.365  25.127   7.010
 2320AUC    AUC 2307  27.610  24.672   7.898
 2321AUC    AUC 2308  27.610  24.975   7.898
 2322AUC    AUC 2309  27.610  24.672   7.103
 2323AUC    AUC 2310  27.610  24.975   7.103
 2324AUC    AUC 2311  27.119  24.672   7.898
 2325AUC    AUC 2312  27.119  24.975   7.898
 2326AUC    AUC 2313  27.119  24.672   7.103
 2327AUC    AUC 2314  27.119  24.975   7.103
 2328AUC    AUC 2315  27.762  25.069   7.349
 2329AUC    AUC 2316  27.762  25.069   7.652
 2330AUC    AUC 2317  26.968  25.069   7.349
 2331AUC    AUC 2318  26.968  25.069   7.652
 2332AUC    AUC 2319  27.762  24.578   7.349
 2333AUC    AUC 2320  27.762  24.578   7.652
 2334AUC    AUC 2321  26.968  24.578   7.349
 2335AUC    AUC 2322  26.968  24.578   7.652
 2336AUC    AUC 2323  27.213  25.221   7.746
 2337AUC    AUC 2324  27.516  25.221   7.746
 2338AUC    AUC 2325  27.213  24.427   7.746
 2339AUC    AUC 2326  27.516  24.427   7.746
 2340AUC    AUC 2327  27.213  25.221   7.255
 2341AUC    AUC 2328  27.516  25.221   7.255
 2342AUC    AUC 2329  27.213  24.427   7.255
 2343AUC    AUC 2330  27.516  24.427   7.255
 2344AUSL   AUS 2331  27.774  24.824   8.081
 2345AUSL   AUS 2332  27.630  24.407   8.011
 2346AUL    AUL 2333  27.856  24.520   8.295
 2347THSLK    S 2334  27.757  24.219   8.163
 2348ETHY    C1 2335  27.915  23.898   8.456
 2349ETHY    C1 2336  28.163  23.585   8.845
 2350THSLK    S 2337  27.879  24.784   8.333
 2351ETHY    C1 2338  28.122  24.717   8.720
 2352ETHY    C1 2339  28.415  24.736   9.194
 2353AUSL   AUS 2340  27.528  24.672   8.174
 2354AUSL   AUS 2341  27.201  24.975   8.174
 2355AUL    AUL 2342  27.365  24.824   8.482
 2356THSLK    S 2343  27.615  24.626   8.426
 2357ETHY    C1 2344  27.728  24.485   8.852
 2358ETHY    C1 2345  27.877  24.414   9.385
 2359THSLK    S 2346  27.113  24.944   8.439
 2360ETHY    C1 2347  27.008  24.955   8.889
 2361ETHY    C1 2348  26.858  25.063   9.415
 2362AUSL   AUS 2349  27.528  24.975   8.174
 2363AUSL   AUS 2350  27.875  25.088   7.917
 2364AUL    AUL 2351  27.856  25.127   8.295
 2365THSLK    S 2352  27.616  25.021   8.426
 2366ETHY    C1 2353  27.722  25.161   8.854
 2367ETHY    C1 2354  27.872  25.233   9.386
 2368THSLK    S 2355  28.055  25.204   8.082
 2369ETHY    C1 2356  28.400  25.339   8.358
 2370ETHY    C1 2357  28.775  25.593   8.683
 2371AUSL   AUS 2358  27.774  24.824   6.921
 2372AUSL   AUS 2359  27.630  25.240   6.990
 2373AUL    AUL 2360  27.856  25.127   6.706
 2374THSLK    S 2361  27.880  24.784   6.668
 2375ETHY    C1 2362  28.117  24.717   6.278
 2376ETHY    C1 2363  28.410  24.736   5.804
 2377THSLK    S 2364  27.805  25.368   6.816
 2378ETHY    C1 2365  28.036  25.586   6.480
 2379ETHY    C1 2366  28.262  25.928   6.102
 2380AUSL   AUS 2367  27.528  24.672   6.827
 2381AUSL   AUS 2368  27.875  24.559   7.084
 2382AUL    AUL 2369  27.856  24.520   6.706
 2383THSLK    S 2370  28.021  24.372   6.932
 2384ETHY    C1 2371  28.305  24.118   6.670
 2385ETHY    C1 2372  28.697  23.898   6.340
 2386THSLK    S 2373  27.616  24.626   6.575
 2387ETHY    C1 2374  27.722  24.486   6.147
 2388ETHY    C1 2375  27.872  24.414   5.615
 2389AUSL   AUS 2376  27.528  24.975   6.827
 2390AUSL   AUS 2377  27.201  24.672   6.827
 2391AUL    AUL 2378  27.365  24.824   6.519
 2392THSLK    S 2379  27.101  24.626   6.579
 2393ETHY    C1 2380  26.967  24.488   6.158
 2394ETHY    C1 2381  26.824  24.416   5.624
 2395THSLK    S 2382  27.629  24.943   6.566
 2396ETHY    C1 2383  27.756  24.952   6.121
 2397ETHY    C1 2384  27.900  25.061   5.594
 2398AUSL   AUS 2385  26.956  24.824   8.081
 2399AUSL   AUS 2386  27.100  25.240   8.011
 2400AUL    AUL 2387  26.874  25.127   8.295
 2401THSLK    S 2388  26.850  24.784   8.333
 2402ETHY    C1 2389  26.613  24.717   8.723
 2403ETHY    C1 2390  26.319  24.736   9.197
 2404THSLK    S 2391  26.972  25.382   8.202
 2405ETHY    C1 2392  26.819  25.627   8.563
 2406ETHY    C1 2393  26.571  25.962   8.933
 2407AUSL   AUS 2394  27.201  24.672   8.174
 2408AUSL   AUS 2395  26.855  24.559   7.917
 2409AUL    AUL 2396  26.874  24.520   8.295
 2410THSLK    S 2397  26.674  24.391   8.043
 2411ETHY    C1 2398  26.333  24.165   8.259
 2412ETHY    C1 2399  25.957  23.937   8.602
 2413THSLK    S 2400  27.101  24.626   8.422
 2414ETHY    C1 2401  26.973  24.487   8.844
 2415ETHY    C1 2402  26.829  24.415   9.378
 2416AUSL   AUS 2403  26.956  24.824   6.921
 2417AUSL   AUS 2404  27.100  24.407   6.990
 2418AUL    AUL 2405  26.874  24.520   6.706
 2419THSLK    S 2406  26.851  24.784   6.668
 2420ETHY    C1 2407  26.607  24.717   6.281
 2421ETHY    C1 2408  26.315  24.736   5.807
 2422THSLK    S 2409  26.926  24.233   6.855
 2423ETHY    C1 2410  26.689  23.940   6.587
 2424ETHY    C1 2411  26.464  23.619   6.190
 2425AUSL   AUS 2412  27.201  24.975   6.827
 2426AUSL   AUS 2413  26.855  25.088   7.084
 2427AUL    AUL 2414  26.874  25.127   6.706
 2428THSLK    S 2415  26.709  25.223   6.894
 2429ETHY    C1 2416  26.420  25.387   6.572
 2430ETHY    C1 2417  26.029  25.632   6.259
 2431THSLK    S 2418  27.114  24.944   6.562
 2432ETHY    C1 2419  27.001  24.954   6.114
 2433ETHY    C1 2420  26.853  25.062   5.587
 2434AUSL   AUS 2421  27.945  25.233   7.501
 2435AUSL   AUS 2422  27.875  25.088   7.084
 2436AUL    AUL 2423  28.159  25.314   7.197
 2437THSLK    S 2424  28.055  25.205   6.920
 2438ETHY    C1 2425  28.396  25.338   6.638
 2439ETHY    C1 2426  28.772  25.592   6.314
 2440THSLK    S 2427  28.218  25.304   7.501
 2441ETHY    C1 2428  28.642  25.488   7.497
 2442ETHY    C1 2429  29.106  25.797   7.498
 2443AUSL   AUS 2430  28.039  24.987   7.349
 2444AUSL   AUS 2431  28.039  24.660   7.652
 2445AUL    AUL 2432  28.346  24.824   7.501
 2446THSLK    S 2433  28.306  25.042   7.341
 2447ETHY    C1 2434  28.758  25.098   7.262
 2448ETHY    C1 2435  29.283  25.263   7.172
 2449THSLK    S 2436  28.285  24.528   7.659
 2450ETHY    C1 2437  28.702  24.343   7.728
 2451ETHY    C1 2438  29.238  24.215   7.820
 2452AUSL   AUS 2439  28.039  24.987   7.652
 2453AUSL   AUS 2440  27.781  25.334   7.765
 2454AUL    AUL 2441  28.159  25.314   7.804
 2455THSLK    S 2442  27.967  25.469   7.925
 2456ETHY    C1 2443  28.283  25.737   8.128
 2457ETHY    C1 2444  28.598  26.134   8.362
 2458THSLK    S 2445  28.306  25.042   7.661
 2459ETHY    C1 2446  28.758  25.098   7.733
 2460ETHY    C1 2447  29.284  25.263   7.824
 2461AUSL   AUS 2448  26.785  25.233   7.501
 2462AUSL   AUS 2449  26.855  25.088   7.917
 2463AUL    AUL 2450  26.571  25.314   7.804
 2464THSLK    S 2451  26.708  25.223   8.107
 2465ETHY    C1 2452  26.424  25.392   8.430
 2466ETHY    C1 2453  26.032  25.637   8.743
 2467THSLK    S 2454  26.554  25.371   7.501
 2468ETHY    C1 2455  26.200  25.669   7.497
 2469ETHY    C1 2456  25.716  25.946   7.498
 2470AUSL   AUS 2457  26.691  24.987   7.349
 2471AUSL   AUS 2458  26.948  25.334   7.236
 2472AUL    AUL 2459  26.571  25.314   7.197
 2473THSLK    S 2460  26.445  25.097   7.307
 2474ETHY    C1 2461  26.027  25.242   7.173
 2475ETHY    C1 2462  25.492  25.382   7.099
 2476THSLK    S 2463  26.817  25.503   7.056
 2477ETHY    C1 2464  26.593  25.825   6.812
 2478ETHY    C1 2465  26.253  26.207   6.589
 2479AUSL   AUS 2466  26.691  24.987   7.652
 2480AUSL   AUS 2467  26.691  24.660   7.349
 2481AUL    AUL 2468  26.383  24.824   7.501
 2482THSLK    S 2469  26.424  24.582   7.377
 2483ETHY    C1 2470  25.971  24.493   7.359
 2484ETHY    C1 2471  25.446  24.338   7.252
 2485THSLK    S 2472  26.445  25.097   7.694
 2486ETHY    C1 2473  26.028  25.248   7.825
 2487ETHY    C1 2474  25.493  25.386   7.900
 2488AUSL   AUS 2475  27.945  24.415   7.501
 2489AUSL   AUS 2476  27.875  24.559   7.917
 2490AUL    AUL 2477  28.159  24.333   7.804
 2491THSLK    S 2478  28.176  24.276   7.501
 2492ETHY    C1 2479  28.530  23.978   7.497
 2493ETHY    C1 2480  29.014  23.701   7.498
 2494THSLK    S 2481  28.021  24.372   8.070
 2495ETHY    C1 2482  28.309  24.117   8.326
 2496ETHY    C1 2483  28.701  23.897   8.657
 2497AUSL   AUS 2484  28.039  24.660   7.349
 2498AUSL   AUS 2485  27.781  24.313   7.236
 2499AUL    AUL 2486  28.159  24.333   7.197
 2500THSLK    S 2487  28.285  24.528   7.343
 2501ETHY    C1 2488  28.701  24.343   7.266
 2502ETHY    C1 2489  29.237  24.215   7.176
 2503THSLK    S 2490  27.913  24.122   7.092
 2504ETHY    C1 2491  28.134  23.761   6.907
 2505ETHY    C1 2492  28.475  23.391   6.667
 2506AUSL   AUS 2493  26.785  24.415   7.501
 2507AUSL   AUS 2494  26.855  24.559   7.084
 2508AUL    AUL 2495  26.571  24.333   7.197
 2509THSLK    S 2496  26.675  24.391   6.958
 2510ETHY    C1 2497  26.329  24.171   6.743
 2511ETHY    C1 2498  25.954  23.941   6.400
 2512THSLK    S 2499  26.512  24.343   7.501
 2513ETHY    C1 2500  26.088  24.160   7.497
 2514ETHY    C1 2501  25.624  23.850   7.498
 2515AUSL   AUS 2502  26.691  24.660   7.652
 2516AUSL   AUS 2503  26.948  24.313   7.765
 2517AUL    AUL 2504  26.571  24.333   7.804
 2518THSLK    S 2505  26.762  24.156   7.889
 2519ETHY    C1 2506  26.449  23.850   8.033
 2520ETHY    C1 2507  26.134  23.463   8.284
 2521THSLK    S 2508  26.424  24.583   7.625
 2522ETHY    C1 2509  25.972  24.487   7.639
 2523ETHY    C1 2510  25.447  24.334   7.746
 2524AUSL   AUS 2511  27.365  25.404   7.910
 2525AUSL   AUS 2512  26.948  25.334   7.765
 2526AUL    AUL 2513  27.061  25.618   7.991
 2527THSLK    S 2514  26.817  25.502   7.945
 2528ETHY    C1 2515  26.596  25.830   8.185
 2529ETHY    C1 2516  26.255  26.210   8.409
 2530THSLK    S 2517  27.399  25.645   8.033
 2531ETHY    C1 2518  27.457  26.017   8.301
 2532ETHY    C1 2519  27.441  26.496   8.586
 2533AUSL   AUS 2520  27.213  25.497   7.664
 2534AUSL   AUS 2521  27.516  25.497   7.337
 2535AUL    AUL 2522  27.365  25.805   7.501
 2536THSLK    S 2523  27.244  25.757   7.770
 2537ETHY    C1 2524  27.234  26.198   7.907
 2538ETHY    C1 2525  27.125  26.727   8.048
 2539THSLK    S 2526  27.561  25.746   7.235
 2540ETHY    C1 2527  27.699  26.164   7.097
 2541ETHY    C1 2528  27.771  26.699   6.955
 2542AUSL   AUS 2529  27.516  25.497   7.664
 2543AUSL   AUS 2530  27.630  25.240   8.011
 2544AUL    AUL 2531  27.668  25.618   7.991
 2545THSLK    S 2532  27.804  25.368   8.185
 2546ETHY    C1 2533  28.040  25.587   8.517
 2547ETHY    C1 2534  28.266  25.929   8.895
 2548THSLK    S 2535  27.561  25.745   7.767
 2549ETHY    C1 2536  27.700  26.166   7.898
 2550ETHY    C1 2537  27.773  26.700   8.041
 2551AUSL   AUS 2538  27.365  24.244   7.910
 2552AUSL   AUS 2539  27.781  24.313   7.765
 2553AUL    AUL 2540  27.668  24.029   7.991
 2554THSLK    S 2541  27.331  23.980   7.997
 2555ETHY    C1 2542  27.276  23.571   8.205
 2556ETHY    C1 2543  27.291  23.103   8.507
 2557THSLK    S 2544  27.913  24.122   7.910
 2558ETHY    C1 2545  28.136  23.760   8.089
 2559ETHY    C1 2546  28.477  23.390   8.330
 2560AUSL   AUS 2547  27.213  24.150   7.664
 2561AUSL   AUS 2548  27.100  24.407   8.011
 2562AUL    AUL 2549  27.061  24.029   7.991
 2563THSLK    S 2550  27.168  23.897   7.746
 2564ETHY    C1 2551  27.031  23.466   7.843
 2565ETHY    C1 2552  26.958  22.934   7.996
 2566THSLK    S 2553  26.925  24.233   8.146
 2567ETHY    C1 2554  26.694  23.935   8.413
 2568ETHY    C1 2555  26.467  23.615   8.810
 2569AUSL   AUS 2556  27.516  24.150   7.664
 2570AUSL   AUS 2557  27.213  24.150   7.337
 2571AUL    AUL 2558  27.365  23.842   7.501
 2572THSLK    S 2559  27.168  23.897   7.255
 2573ETHY    C1 2560  27.029  23.468   7.152
 2574ETHY    C1 2561  26.957  22.936   7.001
 2575THSLK    S 2562  27.485  23.885   7.750
 2576ETHY    C1 2563  27.498  23.434   7.852
 2577ETHY    C1 2564  27.606  22.908   8.003
 2578AUSL   AUS 2565  27.365  25.404   7.092
 2579AUSL   AUS 2566  27.781  25.334   7.236
 2580AUL    AUL 2567  27.668  25.618   7.010
 2581THSLK    S 2568  27.399  25.645   6.969
 2582ETHY    C1 2569  27.454  26.014   6.696
 2583ETHY    C1 2570  27.438  26.493   6.412
 2584THSLK    S 2571  27.968  25.469   7.077
 2585ETHY    C1 2572  28.281  25.736   6.868
 2586ETHY    C1 2573  28.596  26.133   6.634
 2587AUSL   AUS 2574  27.213  25.497   7.337
 2588AUSL   AUS 2575  27.100  25.240   6.990
 2589AUL    AUL 2576  27.061  25.618   7.010
 2590THSLK    S 2577  27.244  25.758   7.232
 2591ETHY    C1 2578  27.232  26.196   7.088
 2592ETHY    C1 2579  27.124  26.725   6.948
 2593THSLK    S 2580  26.973  25.383   6.799
 2594ETHY    C1 2581  26.815  25.623   6.437
 2595ETHY    C1 2582  26.567  25.958   6.067
 2596AUSL   AUS 2583  27.365  24.244   7.092
 2597AUSL   AUS 2584  26.948  24.313   7.236
 2598AUL    AUL 2585  27.061  24.029   7.010
 2599THSLK    S 2586  26.762  24.156   7.113
 2600ETHY    C1 2587  26.446  23.854   6.964
 2601ETHY    C1 2588  26.132  23.467   6.714
 2602THSLK    S 2589  27.331  23.980   7.004
 2603ETHY    C1 2590  27.272  23.575   6.791
 2604ETHY    C1 2591  27.289  23.105   6.490
 2605AUSL   AUS 2592  27.516  24.150   7.337
 2606AUSL   AUS 2593  27.630  24.407   6.990
 2607AUL    AUL 2594  27.668  24.029   7.010
 2608THSLK    S 2595  27.486  23.884   7.252
 2609ETHY    C1 2596  27.496  23.436   7.143
 2610ETHY    C1 2597  27.604  22.909   6.993
 2611THSLK    S 2598  27.758  24.218   6.839
 2612ETHY    C1 2599  27.910  23.900   6.541
 2613ETHY    C1 2600  28.159  23.586   6.152
 2614AUC    AUC 2601  19.469  28.931   7.501
 2615AUC    AUC 2602  19.714  28.931   7.349
 2616AUC    AUC 2603  19.714  28.931   7.652
 2617AUC    AUC 2604  19.223  28.931   7.349
 2618AUC    AUC 2605  19.223  28.931   7.652
 2619AUC    AUC 2606  19.317  29.176   7.501
 2620AUC    AUC 2607  19.620  29.176   7.501
 2621AUC    AUC 2608  19.317  28.685   7.501
 2622AUC    AUC 2609  19.620  28.685   7.501
 2623AUC    AUC 2610  19.469  28.779   7.746
 2624AUC    AUC 2611  19.469  29.082   7.746
 2625AUC    AUC 2612  19.469  28.779   7.255
 2626AUC    AUC 2613  19.469  29.082   7.255
 2627AUC    AUC 2614  19.960  28.931   7.197
 2628AUC    AUC 2615  19.960  28.931   7.501
 2629AUC    AUC 2616  19.960  28.931   7.804
 2630AUC    AUC 2617  18.978  28.931   7.197
 2631AUC    AUC 2618  18.978  28.931   7.501
 2632AUC    AUC 2619  18.978  28.931   7.804
 2633AUC    AUC 2620  19.165  29.421   7.501
 2634AUC    AUC 2621  19.469  29.421   7.501
 2635AUC    AUC 2622  19.772  29.421   7.501
 2636AUC    AUC 2623  19.165  28.440   7.501
 2637AUC    AUC 2624  19.469  28.440   7.501
 2638AUC    AUC 2625  19.772  28.440   7.501
 2639AUC    AUC 2626  19.469  28.627   7.991
 2640AUC    AUC 2627  19.469  28.931   7.991
 2641AUC    AUC 2628  19.469  29.234   7.991
 2642AUC    AUC 2629  19.469  28.627   7.010
 2643AUC    AUC 2630  19.469  28.931   7.010
 2644AUC    AUC 2631  19.469  29.234   7.010
 2645AUC    AUC 2632  19.714  28.779   7.898
 2646AUC    AUC 2633  19.714  29.082   7.898
 2647AUC    AUC 2634  19.714  28.779   7.103
 2648AUC    AUC 2635  19.714  29.082   7.103
 2649AUC    AUC 2636  19.223  28.779   7.898
 2650AUC    AUC 2637  19.223  29.082   7.898
 2651AUC    AUC 2638  19.223  28.779   7.103
 2652AUC    AUC 2639  19.223  29.082   7.103
 2653AUC    AUC 2640  19.866  29.176   7.349
 2654AUC    AUC 2641  19.866  29.176   7.652
 2655AUC    AUC 2642  19.072  29.176   7.349
 2656AUC    AUC 2643  19.072  29.176   7.652
 2657AUC    AUC 2644  19.866  28.685   7.349
 2658AUC    AUC 2645  19.866  28.685   7.652
 2659AUC    AUC 2646  19.072  28.685   7.349
 2660AUC    AUC 2647  19.072  28.685   7.652
 2661AUC    AUC 2648  19.317  29.328   7.746
 2662AUC    AUC 2649  19.620  29.328   7.746
 2663AUC    AUC 2650  19.317  28.534   7.746
 2664AUC    AUC 2651  19.620  28.534   7.746
 2665AUC    AUC 2652  19.317  29.328   7.255
 2666AUC    AUC 2653  19.620  29.328   7.255
 2667AUC    AUC 2654  19.317  28.534   7.255
 2668AUC    AUC 2655  19.620  28.534   7.255
 2669AUSL   AUS 2656  19.878  28.931   8.081
 2670AUSL   AUS 2657  19.734  28.514   8.011
 2671AUL    AUL 2658  19.960  28.627   8.295
 2672THSLK    S 2659  19.861  28.326   8.163
 2673ETHY    C1 2660  20.019  28.005   8.456
 2674ETHY    C1 2661  20.267  27.692   8.845
 2675THSLK    S 2662  19.983  28.891   8.333
 2676ETHY    C1 2663  20.226  28.824   8.720
 2677ETHY    C1 2664  20.519  28.843   9.194
 2678AUSL   AUS 2665  19.632  28.779   8.174
 2679AUSL   AUS 2666  19.305  29.082   8.174
 2680AUL    AUL 2667  19.469  28.931   8.482
 2681THSLK    S 2668  19.719  28.733   8.426
 2682ETHY    C1 2669  19.832  28.592   8.852
 2683ETHY    C1 2670  19.981  28.521   9.385
 2684THSLK    S 2671  19.217  29.051   8.439
 2685ETHY    C1 2672  19.112  29.062   8.889
 2686ETHY    C1 2673  18.962  29.170   9.415
 2687AUSL   AUS 2674  19.632  29.082   8.174
 2688AUSL   AUS 2675  19.979  29.195   7.917
 2689AUL    AUL 2676  19.960  29.234   8.295
 2690THSLK    S 2677  19.720  29.128   8.426
 2691ETHY    C1 2678  19.826  29.268   8.854
 2692ETHY    C1 2679  19.976  29.340   9.386
 2693THSLK    S 2680  20.159  29.311   8.082
 2694ETHY    C1 2681  20.504  29.446   8.358
 2695ETHY    C1 2682  20.879  29.700   8.683
 2696AUSL   AUS 2683  19.878  28.931   6.921
 2697AUSL   AUS 2684  19.734  29.347   6.990
 2698AUL    AUL 2685  19.960  29.234   6.706
 2699THSLK    S 2686  19.984  28.891   6.668
 2700ETHY    C1 2687  20.221  28.824   6.278
 2701ETHY    C1 2688  20.514  28.843   5.804
 2702THSLK    S 2689  19.909  29.475   6.816
 2703ETHY    C1 2690  20.140  29.693   6.480
 2704ETHY    C1 2691  20.366  30.035   6.102
 2705AUSL   AUS 2692  19.632  28.779   6.827
 2706AUSL   AUS 2693  19.979  28.666   7.084
 2707AUL    AUL 2694  19.960  28.627   6.706
 2708THSLK    S 2695  20.125  28.479   6.932
 2709ETHY    C1 2696  20.409  28.225   6.670
 2710ETHY    C1 2697  20.801  28.005   6.340
 2711THSLK    S 2698  19.720  28.733   6.575
 2712ETHY    C1 2699  19.826  28.593   6.147
 2713ETHY    C1 2700  19.976  28.521   5.615
 2714AUSL   AUS 2701  19.632  29.082   6.827
 2715AUSL   AUS 2702  19.305  28.779   6.827
 2716AUL    AUL 2703  19.469  28.931   6.519
 2717THSLK    S 2704  19.205  28.733   6.579
 2718ETHY    C1 2705  19.071  28.595   6.158
 2719ETHY    C1 2706  18.928  28.523   5.624
 2720THSLK    S 2707  19.733  29.050   6.566
 2721ETHY    C1 2708  19.860  29.059   6.121
 2722ETHY    C1 2709  20.004  29.168   5.594
 2723AUSL   AUS 2710  19.060  28.931   8.081
 2724AUSL   AUS 2711  19.204  29.347   8.011
 2725AUL    AUL 2712  18.978  29.234   8.295
 2726THSLK    S 2713  18.954  28.891   8.333
 2727ETHY    C1 2714  18.717  28.824   8.723
 2728ETHY    C1 2715  18.423  28.843   9.197
 2729THSLK    S 2716  19.076  29.489   8.202
 2730ETHY    C1 2717  18.923  29.734   8.563
 2731ETHY    C1 2718  18.675  30.069   8.933
 2732AUSL   AUS 2719  19.305  28.779   8.174
 2733AUSL   AUS 2720  18.959  28.666   7.917
 2734AUL    AUL 2721  18.978  28.627   8.295
 2735THSLK    S 2722  18.778  28.498   8.043
 2736ETHY    C1 2723  18.437  28.272   8.259
 2737ETHY    C1 2724  18.061  28.044   8.602
 2738THSLK    S 2725  19.205  28.733   8.422
 2739ETHY    C1 2726  19.077  28.594   8.844
 2740ETHY    C1 2727  18.933  28.522   9.378
 2741AUSL   AUS 2728  19.060  28.931   6.921
 2742AUSL   AUS 2729  19.204  28.514   6.990
 2743AUL    AUL 2730  18.978  28.627   6.706
 2744THSLK    S 2731  18.955  28.891   6.668
 2745ETHY    C1 2732  18.711  28.824   6.281
 2746ETHY    C1 2733  18.419  28.843   5.807
 2747THSLK    S 2734  19.030  28.340   6.855
 2748ETHY    C1 2735  18.793  28.047   6.587
 2749ETHY    C1 2736  18.568  27.726   6.190
 2750AUSL   AUS 2737  19.305  29.082   6.827
 2751AUSL   AUS 2738  18.959  29.195   7.084
 2752AUL    AUL 2739  18.978  29.234   6.706
 2753THSLK    S 2740  18.813  29.330   6.894
 2754ETHY    C1 2741  18.524  29.494   6.572
 2755ETHY    C1 2742  18.133  29.739   6.259
 2756THSLK    S 2743  19.218  29.051   6.562
 2757ETHY    C1 2744  19.105  29.061   6.114
 2758ETHY    C1 2745  18.957  29.169   5.587
 2759AUSL   AUS 2746  20.049  29.340   7.501
 2760AUSL   AUS 2747  19.979  29.195   7.084
 2761AUL    AUL 2748  20.263  29.421   7.197
 2762THSLK    S 2749  20.159  29.312   6.920
 2763ETHY    C1 2750  20.500  29.445   6.638
 2764ETHY    C1 2751  20.876  29.699   6.314
 2765THSLK    S 2752  20.322  29.411   7.501
 2766ETHY    C1 2753  20.746  29.595   7.497
 2767ETHY    C1 2754  21.210  29.904   7.498
 2768AUSL   AUS 2755  20.143  29.094   7.349
 2769AUSL   AUS 2756  20.143  28.767   7.652
 2770AUL    AUL 2757  20.450  28.931   7.501
 2771THSLK    S 2758  20.410  29.149   7.341
 2772ETHY    C1 2759  20.862  29.205   7.262
 2773ETHY    C1 2760  21.387  29.370   7.172
 2774THSLK    S 2761  20.389  28.635   7.659
 2775ETHY    C1 2762  20.806  28.450   7.728
 2776ETHY    C1 2763  21.342  28.322   7.820
 2777AUSL   AUS 2764  20.143  29.094   7.652
 2778AUSL   AUS 2765  19.885  29.441   7.765
 2779AUL    AUL 2766  20.263  29.421   7.804
 2780THSLK    S 2767  20.071  29.576   7.925
 2781ETHY    C1 2768  20.387  29.844   8.128
 2782ETHY    C1 2769  20.702  30.241   8.362
 2783THSLK    S 2770  20.410  29.149   7.661
 2784ETHY    C1 2771  20.862  29.205   7.733
 2785ETHY    C1 2772  21.388  29.370   7.824
 2786AUSL   AUS 2773  18.889  29.340   7.501
 2787AUSL   AUS 2774  18.959  29.195   7.917
 2788AUL    AUL 2775  18.675  29.421   7.804
 2789THSLK    S 2776  18.812  29.330   8.107
 2790ETHY    C1 2777  18.528  29.499   8.430
 2791ETHY    C1 2778  18.136  29.744   8.743
 2792THSLK    S 2779  18.658  29.478   7.501
 2793ETHY    C1 2780  18.304  29.776   7.497
 2794ETHY    C1 2781  17.820  30.053   7.498
 2795AUSL   AUS 2782  18.795  29.094   7.349
 2796AUSL   AUS 2783  19.052  29.441   7.236
 2797AUL    AUL 2784  18.675  29.421   7.197
 2798THSLK    S 2785  18.549  29.204   7.307
 2799ETHY    C1 2786  18.131  29.349   7.173
 2800ETHY    C1 2787  17.596  29.489   7.099
 2801THSLK    S 2788  18.921  29.610   7.056
 2802ETHY    C1 2789  18.697  29.932   6.812
 2803ETHY    C1 2790  18.357  30.314   6.589
 2804AUSL   AUS 2791  18.795  29.094   7.652
 2805AUSL   AUS 2792  18.795  28.767   7.349
 2806AUL    AUL 2793  18.487  28.931   7.501
 2807THSLK    S 2794  18.528  28.689   7.377
 2808ETHY    C1 2795  18.075  28.600   7.359
 2809ETHY    C1 2796  17.550  28.445   7.252
 2810THSLK    S 2797  18.549  29.204   7.694
 2811ETHY    C1 2798  18.132  29.355   7.825
 2812ETHY    C1 2799  17.597  29.493   7.900
 2813AUSL   AUS 2800  20.049  28.522   7.501
 2814AUSL   AUS 2801  19.979  28.666   7.917
 2815AUL    AUL 2802  20.263  28.440   7.804
 2816THSLK    S 2803  20.280  28.383   7.501
 2817ETHY    C1 2804  20.634  28.085   7.497
 2818ETHY    C1 2805  21.118  27.808   7.498
 2819THSLK    S 2806  20.125  28.479   8.070
 2820ETHY    C1 2807  20.413  28.224   8.326
 2821ETHY    C1 2808  20.805  28.004   8.657
 2822AUSL   AUS 2809  20.143  28.767   7.349
 2823AUSL   AUS 2810  19.885  28.420   7.236
 2824AUL    AUL 2811  20.263  28.440   7.197
 2825THSLK    S 2812  20.389  28.635   7.343
 2826ETHY    C1 2813  20.805  28.450   7.266
 2827ETHY    C1 2814  21.341  28.322   7.176
 2828THSLK    S 2815  20.017  28.229   7.092
 2829ETHY    C1 2816  20.238  27.868   6.907
 2830ETHY    C1 2817  20.579  27.498   6.667
 2831AUSL   AUS 2818  18.889  28.522   7.501
 2832AUSL   AUS 2819  18.959  28.666   7.084
 2833AUL    AUL 2820  18.675  28.440   7.197
 2834THSLK    S 2821  18.779  28.498   6.958
 2835ETHY    C1 2822  18.433  28.278   6.743
 2836ETHY    C1 2823  18.058  28.048   6.400
 2837THSLK    S 2824  18.616  28.450   7.501
 2838ETHY    C1 2825  18.192  28.267   7.497
 2839ETHY    C1 2826  17.728  27.957   7.498
 2840AUSL   AUS 2827  18.795  28.767   7.652
 2841AUSL   AUS 2828  19.052  28.420   7.765
 2842AUL    AUL 2829  18.675  28.440   7.804
 2843THSLK    S 2830  18.866  28.263   7.889
 2844ETHY    C1 2831  18.553  27.957   8.033
 2845ETHY    C1 2832  18.238  27.570   8.284
 2846THSLK    S 2833  18.528  28.690   7.625
 2847ETHY    C1 2834  18.076  28.594   7.639
 2848ETHY    C1 2835  17.551  28.441   7.746
 2849AUSL   AUS 2836  19.469  29.511   7.910
 2850AUSL   AUS 2837  19.052  29.441   7.765
 2851AUL    AUL 2838  19.165  29.725   7.991
 2852THSLK    S 2839  18.921  29.609   7.945
 2853ETHY    C1 2840  18.700  29.937   8.185
 2854ETHY    C1 2841  18.359  30.317   8.409
 2855THSLK    S 2842  19.503  29.752   8.033
 2856ETHY    C1 2843  19.561  30.124   8.301
 2857ETHY    C1 2844  19.545  30.603   8.586
 2858AUSL   AUS 2845  19.317  29.604   7.664
 2859AUSL   AUS 2846  19.620  29.604   7.337
 2860AUL    AUL 2847  19.469  29.912   7.501
 2861THSLK    S 2848  19.348  29.864   7.770
 2862ETHY    C1 2849  19.338  30.305   7.907
 2863ETHY    C1 2850  19.229  30.834   8.048
 2864THSLK    S 2851  19.665  29.853   7.235
 2865ETHY    C1 2852  19.803  30.271   7.097
 2866ETHY    C1 2853  19.875  30.806   6.955
 2867AUSL   AUS 2854  19.620  29.604   7.664
 2868AUSL   AUS 2855  19.734  29.347   8.011
 2869AUL    AUL 2856  19.772  29.725   7.991
 2870THSLK    S 2857  19.908  29.475   8.185
 2871ETHY    C1 2858  20.144  29.694   8.517
 2872ETHY    C1 2859  20.370  30.036   8.895
 2873THSLK    S 2860  19.665  29.852   7.767
 2874ETHY    C1 2861  19.804  30.273   7.898
 2875ETHY    C1 2862  19.877  30.807   8.041
 2876AUSL   AUS 2863  19.469  28.351   7.910
 2877AUSL   AUS 2864  19.885  28.420   7.765
 2878AUL    AUL 2865  19.772  28.136   7.991
 2879THSLK    S 2866  19.435  28.087   7.997
 2880ETHY    C1 2867  19.380  27.678   8.205
 2881ETHY    C1 2868  19.395  27.210   8.507
 2882THSLK    S 2869  20.017  28.229   7.910
 2883ETHY    C1 2870  20.240  27.867   8.089
 2884ETHY    C1 2871  20.581  27.497   8.330
 2885AUSL   AUS 2872  19.317  28.257   7.664
 2886AUSL   AUS 2873  19.204  28.514   8.011
 2887AUL    AUL 2874  19.165  28.136   7.991
 2888THSLK    S 2875  19.272  28.004   7.746
 2889ETHY    C1 2876  19.135  27.573   7.843
 2890ETHY    C1 2877  19.062  27.041   7.996
 2891THSLK    S 2878  19.029  28.340   8.146
 2892ETHY    C1 2879  18.798  28.042   8.413
 2893ETHY    C1 2880  18.571  27.722   8.810
 2894AUSL   AUS 2881  19.620  28.257   7.664
 2895AUSL   AUS 2882  19.317  28.257   7.337
 2896AUL    AUL 2883  19.469  27.949   7.501
 2897THSLK    S 2884  19.272  28.004   7.255
 2898ETHY    C1 2885  19.133  27.575   7.152
 2899ETHY    C1 2886  19.061  27.043   7.001
 2900THSLK    S 2887  19.589  27.992   7.750
 2901ETHY    C1 2888  19.602  27.541   7.852
 2902ETHY    C1 2889  19.710  27.015   8.003
 2903AUSL   AUS 2890  19.469  29.511   7.092
 2904AUSL   AUS 2891  19.885  29.441   7.236
 2905AUL    AUL 2892  19.772  29.725   7.010
 2906THSLK    S 2893  19.503  29.752   6.969
 2907ETHY    C1 2894  19.558  30.121   6.696
 2908ETHY    C1 2895  19.542  30.600   6.412
 2909THSLK    S 2896  20.072  29.576   7.077
 2910ETHY    C1 2897  20.385  29.843   6.868
 2911ETHY    C1 2898  20.700  30.240   6.634
 2912AUSL   AUS 2899  19.317  29.604   7.337
 2913AUSL   AUS 2900  19.204  29.347   6.990
 2914AUL    AUL 2901  19.165  29.725   7.010
 2915THSLK    S 2902  19.348  29.865   7.232
 2916ETHY    C1 2903  19.336  30.303   7.088
 2917ETHY    C1 2904  19.228  30.832   6.948
 2918THSLK    S 2905  19.077  29.490   6.799
 2919ETHY    C1 2906  18.919  29.730   6.437
 2920ETHY    C1 2907  18.671  30.065   6.067
 2921AUSL   AUS 2908  19.469  28.351   7.092
 2922AUSL   AUS 2909  19.052  28.420   7.236
 2923AUL    AUL 2910  19.165  28.136   7.010
 2924THSLK    S 2911  18.866  28.263   7.113
 2925ETHY    C1 2912  18.550  27.961   6.964
 2926ETHY    C1 2913  18.236  27.574   6.714
 2927THSLK    S 2914  19.435  28.087   7.004
 2928ETHY    C1 2915  19.376  27.682   6.791
 2929ETHY    C1 2916  19.393  27.212   6.490
 2930AUSL   AUS 2917  19.620  28.257   7.337
 2931AUSL   AUS 2918  19.734  28.514   6.990
 2932AUL    AUL 2919  19.772  28.136   7.010
 2933THSLK    S 2920  19.590  27.991   7.252
 2934ETHY    C1 2921  19.600  27.543   7.143
 2935ETHY    C1 2922  19.708  27.016   6.993
 2936THSLK    S 2923  19.862  28.325   6.839
 2937ETHY    C1 2924  20.014  28.007   6.541
 2938ETHY    C1 2925  20.263  27.693   6.152
 2939AUC    AUC 2926  11.699  29.240   7.501
 2940AUC    AUC 2927  11.944  29.240   7.349
 2941AUC    AUC 2928  11.944  29.240   7.652
 2942AUC    AUC 2929  11.453  29.240   7.349
 2943AUC    AUC 2930  11.453  29.240   7.652
 2944AUC    AUC 2931  11.547  29.485   7.501
 2945AUC    AUC 2932  11.850  29.485   7.501
 2946AUC    AUC 2933  11.547  28.994   7.501
 2947AUC    AUC 2934  11.850  28.994   7.501
 2948AUC    AUC 2935  11.699  29.088   7.746
 2949AUC    AUC 2936  11.699  29.391   7.746
 2950AUC    AUC 2937  11.699  29.088   7.255
 2951AUC    AUC 2938  11.699  29.391   7.255
 2952AUC    AUC 2939  12.190  29.240   7.197
 2953AUC    AUC 2940  12.190  29.240   7.501
 2954AUC    AUC 2941  12.190  29.240   7.804
 2955AUC    AUC 2942  11.208  29.240   7.197
 2956AUC    AUC 2943  11.208  29.240   7.501
 2957AUC    AUC 2944  11.208  29.240   7.804
 2958AUC    AUC 2945  11.395  29.730   7.501
 2959AUC    AUC 2946  11.699  29.730   7.501
 2960AUC    AUC 2947  12.002  29.730   7.501
 2961AUC    AUC 2948  11.395  28.749   7.501
 2962AUC    AUC 2949  11.699  28.749   7.501
 2963AUC    AUC 2950  12.002  28.749   7.501
 2964AUC    AUC 2951  11.699  28.936   7.991
 2965AUC    AUC 2952  11.699  29.240   7.991
 2966AUC    AUC 2953  11.699  29.543   7.991
 2967AUC    AUC 2954  11.699  28.936   7.010
 2968AUC    AUC 2955  11.699  29.240   7.010
 2969AUC    AUC 2956  11.699  29.543   7.010
 2970AUC    AUC 2957  11.944  29.088   7.898
 2971AUC    AUC 2958  11.944  29.391   7.898
 2972AUC    AUC 2959  11.944  29.088   7.103
 2973AUC    AUC 2960  11.944  29.391   7.103
 2974AUC    AUC 2961  11.453  29.088   7.898
 2975AUC    AUC 2962  11.453  29.391   7.898
 2976AUC    AUC 2963  11.453  29.088   7.103
 2977AUC    AUC 2964  11.453  29.391   7.103
 2978AUC    AUC 2965  12.096  29.485   7.349
 2979AUC    AUC 2966  12.096  29.485   7.652
 2980AUC    AUC 2967  11.302  29.485   7.349
 2981AUC    AUC 2968  11.302  29.485   7.652
 2982AUC    AUC 2969  12.096  28.994   7.349
 2983AUC    AUC 2970  12.096  28.994   7.652
 2984AUC    AUC 2971  11.302  28.994   7.349
 2985AUC    AUC 2972  11.302  28.994   7.652
 2986AUC    AUC 2973  11.547  29.637   7.746
 2987AUC    AUC 2974  11.850  29.637   7.746
 2988AUC    AUC 2975  11.547  28.843   7.746
 2989AUC    AUC 2976  11.850  28.843   7.746
 2990AUC    AUC 2977  11.547  29.637   7.255
 2991AUC    AUC 2978  11.850  29.637   7.255
 2992AUC    AUC 2979  11.547  28.843   7.255
 2993AUC    AUC 2980  11.850  28.843   7.255
 2994AUSL   AUS 2981  12.108  29.240   8.081
 2995AUSL   AUS 2982  11.964  28.823   8.011
 2996AUL    AUL 2983  12.190  28.936   8.295
 2997THSLK    S 2984  12.091  28.635   8.163
 2998ETHY    C1 2985  12.249  28.314   8.456
 2999ETHY    C1 2986  12.497  28.001   8.845
 3000THSLK    S 2987  12.213  29.200   8.333
 3001ETHY    C1 2988  12.456  29.133   8.720
 3002ETHY    C1 2989  12.749  29.152   9.194
 3003AUSL   AUS 2990  11.862  29.088   8.174
 3004AUSL   AUS 2991  11.535  29.391   8.174
 3005AUL    AUL 2992  11.699  29.240   8.482
 3006THSLK    S 2993  11.949  29.042   8.426
 3007ETHY    C1 2994  12.062  28.901   8.852
 3008ETHY    C1 2995  12.211  28.830   9.385
 3009THSLK    S 2996  11.447  29.360   8.439
 3010ETHY    C1 2997  11.342  29.371   8.889
 3011ETHY    C1 2998  11.192  29.479   9.415
 3012AUSL   AUS 2999  11.862  29.391   8.174
 3013AUSL   AUS 3000  12.209  29.504   7.917
 3014AUL    AUL 3001  12.190  29.543   8.295
 3015THSLK    S 3002  11.950  29.437   8.426
 3016ETHY    C1 3003  12.056  29.577   8.854
 3017ETHY    C1 3004  12.206  29.649   9.386
 3018THSLK    S 3005  12.389  29.620   8.082
 3019ETHY    C1 3006  12.734  29.755   8.358
 3020ETHY    C1 3007  13.109  30.009   8.683
 3021AUSL   AUS 3008  12.108  29.240   6.921
 3022AUSL   AUS 3009  11.964  29.656   6.990
 3023AUL    AUL 3010  12.190  29.543   6.706
 3024THSLK    S 3011  12.214  29.200   6.668
 3025ETHY    C1 3012  12.451  29.133   6.278
 3026ETHY    C1 3013  12.744  29.152   5.804
 3027THSLK    S 3014  12.139  29.784   6.816
 3028ETHY    C1 3015  12.370  30.002   6.480
 3029ETHY    C1 3016  12.596  30.344   6.102
 3030AUSL   AUS 3017  11.862  29.088   6.827
 3031AUSL   AUS 3018  12.209  28.975   7.084
 3032AUL    AUL 3019  12.190  28.936   6.706
 3033THSLK    S 3020  12.355  28.788   6.932
 3034ETHY    C1 3021  12.639  28.534   6.670
 3035ETHY    C1 3022  13.031  28.314   6.340
 3036THSLK    S 3023  11.950  29.042   6.575
 3037ETHY    C1 3024  12.056  28.902   6.147
 3038ETHY    C1 3025  12.206  28.830   5.615
 3039AUSL   AUS 3026  11.862  29.391   6.827
 3040AUSL   AUS 3027  11.535  29.088   6.827
 3041AUL    AUL 3028  11.699  29.240   6.519
 3042THSLK    S 3029  11.435  29.042   6.579
 3043ETHY    C1 3030  11.301  28.904   6.158
 3044ETHY    C1 3031  11.158  28.832   5.624
 3045THSLK    S 3032  11.963  29.359   6.566
 3046ETHY    C1 3033  12.090  29.368   6.121
 3047ETHY    C1 3034  12.234  29.477   5.594
 3048AUSL   AUS 3035  11.290  29.240   8.081
 3049AUSL   AUS 3036  11.434  29.656   8.011
 3050AUL    AUL 3037  11.208  29.543   8.295
 3051THSLK    S 3038  11.184  29.200   8.333
 3052ETHY    C1 3039  10.947  29.133   8.723
 3053ETHY    C1 3040  10.653  29.152   9.197
 3054THSLK    S 3041  11.306  29.798   8.202
 3055ETHY    C1 3042  11.153  30.043   8.563
 3056ETHY    C1 3043  10.905  30.378   8.933
 3057AUSL   AUS 3044  11.535  29.088   8.174
 3058AUSL   AUS 3045  11.189  28.975   7.917
 3059AUL    AUL 3046  11.208  28.936   8.295
 3060THSLK    S 3047  11.008  28.807   8.043
 3061ETHY    C1 3048  10.667  28.581   8.259
 3062ETHY    C1 3049  10.291  28.353   8.602
 3063THSLK    S 3050  11.435  29.042   8.422
 3064ETHY    C1 3051  11.307  28.903   8.844
 3065ETHY    C1 3052  11.163  28.831   9.378
 3066AUSL   AUS 3053  11.290  29.240   6.921
 3067AUSL   AUS 3054  11.434  28.823   6.990
 3068AUL    AUL 3055  11.208  28.936   6.706
 3069THSLK    S 3056  11.185  29.200   6.668
 3070ETHY    C1 3057  10.941  29.133   6.281
 3071ETHY    C1 3058  10.649  29.152   5.807
 3072THSLK    S 3059  11.260  28.649   6.855
 3073ETHY    C1 3060  11.023  28.356   6.587
 3074ETHY    C1 3061  10.798  28.035   6.190
 3075AUSL   AUS 3062  11.535  29.391   6.827
 3076AUSL   AUS 3063  11.189  29.504   7.084
 3077AUL    AUL 3064  11.208  29.543   6.706
 3078THSLK    S 3065  11.043  29.639   6.894
 3079ETHY    C1 3066  10.754  29.803   6.572
 3080ETHY    C1 3067  10.363  30.048   6.259
 3081THSLK    S 3068  11.448  29.360   6.562
 3082ETHY    C1 3069  11.335  29.370   6.114
 3083ETHY    C1 3070  11.187  29.478   5.587
 3084AUSL   AUS 3071  12.279  29.649   7.501
 3085AUSL   AUS 3072  12.209  29.504   7.084
 3086AUL    AUL 3073  12.493  29.730   7.197
 3087THSLK    S 3074  12.389  29.621   6.920
 3088ETHY    C1 3075  12.730  29.754   6.638
 3089ETHY    C1 3076  13.106  30.008   6.314
 3090THSLK    S 3077  12.552  29.720   7.501
 3091ETHY    C1 3078  12.976  29.904   7.497
 3092ETHY    C1 3079  13.440  30.213   7.498
 3093AUSL   AUS 3080  12.373  29.403   7.349
 3094AUSL   AUS 3081  12.373  29.076   7.652
 3095AUL    AUL 3082  12.680  29.240   7.501
 3096THSLK    S 3083  12.640  29.458   7.341
 3097ETHY    C1 3084  13.092  29.514   7.262
 3098ETHY    C1 3085  13.617  29.679   7.172
 3099THSLK    S 3086  12.619  28.944   7.659
 3100ETHY    C1 3087  13.036  28.759   7.728
 3101ETHY    C1 3088  13.572  28.631   7.820
 3102AUSL   AUS 3089  12.373  29.403   7.652
 3103AUSL   AUS 3090  12.115  29.750   7.765
 3104AUL    AUL 3091  12.493  29.730   7.804
 3105THSLK    S 3092  12.301  29.885   7.925
 3106ETHY    C1 3093  12.617  30.153   8.128
 3107ETHY    C1 3094  12.932  30.550   8.362
 3108THSLK    S 3095  12.640  29.458   7.661
 3109ETHY    C1 3096  13.092  29.514   7.733
 3110ETHY    C1 3097  13.618  29.679   7.824
 3111AUSL   AUS 3098  11.119  29.649   7.501
 3112AUSL   AUS 3099  11.189  29.504   7.917
 3113AUL    AUL 3100  10.905  29.730   7.804
 3114THSLK    S 3101  11.042  29.639   8.107
 3115ETHY    C1 3102  10.758  29.808   8.430
 3116ETHY    C1 3103  10.366  30.053   8.743
 3117THSLK    S 3104  10.888  29.787   7.501
 3118ETHY    C1 3105  10.534  30.085   7.497
 3119ETHY    C1 3106  10.050  30.362   7.498
 3120AUSL   AUS 3107  11.025  29.403   7.349
 3121AUSL   AUS 3108  11.282  29.750   7.236
 3122AUL    AUL 3109  10.905  29.730   7.197
 3123THSLK    S 3110  10.779  29.513   7.307
 3124ETHY    C1 3111  10.361  29.658   7.173
 3125ETHY    C1 3112   9.826  29.798   7.099
 3126THSLK    S 3113  11.151  29.919   7.056
 3127ETHY    C1 3114  10.927  30.241   6.812
 3128ETHY    C1 3115  10.587  30.623   6.589
 3129AUSL   AUS 3116  11.025  29.403   7.652
 3130AUSL   AUS 3117  11.025  29.076   7.349
 3131AUL    AUL 3118  10.717  29.240   7.501
 3132THSLK    S 3119  10.758  28.998   7.377
 3133ETHY    C1 3120  10.305  28.909   7.359
 3134ETHY    C1 3121   9.780  28.754   7.252
 3135THSLK    S 3122  10.779  29.513   7.694
 3136ETHY    C1 3123  10.362  29.664   7.825
 3137ETHY    C1 3124   9.827  29.802   7.900
 3138AUSL   AUS 3125  12.279  28.831   7.501
 3139AUSL   AUS 3126  12.209  28.975   7.917
 3140AUL    AUL 3127  12.493  28.749   7.804
 3141THSLK    S 3128  12.510  28.692   7.501
 3142ETHY    C1 3129  12.864  28.394   7.497
 3143ETHY    C1 3130  13.348  28.117   7.498
 3144THSLK    S 3131  12.355  28.788   8.070
 3145ETHY    C1 3132  12.643  28.533   8.326
 3146ETHY    C1 3133  13.035  28.313   8.657
 3147AUSL   AUS 3134  12.373  29.076   7.349
 3148AUSL   AUS 3135  12.115  28.729   7.236
 3149AUL    AUL 3136  12.493  28.749   7.197
 3150THSLK    S 3137  12.619  28.944   7.343
 3151ETHY    C1 3138  13.035  28.759   7.266
 3152ETHY    C1 3139  13.571  28.631   7.176
 3153THSLK    S 3140  12.247  28.538   7.092
 3154ETHY    C1 3141  12.468  28.177   6.907
 3155ETHY    C1 3142  12.809  27.807   6.667
 3156AUSL   AUS 3143  11.119  28.831   7.501
 3157AUSL   AUS 3144  11.189  28.975   7.084
 3158AUL    AUL 3145  10.905  28.749   7.197
 3159THSLK    S 3146  11.009  28.807   6.958
 3160ETHY    C1 3147  10.663  28.587   6.743
 3161ETHY    C1 3148  10.288  28.357   6.400
 3162THSLK    S 3149  10.846  28.759   7.501
 3163ETHY    C1 3150  10.422  28.576   7.497
 3164ETHY    C1 3151   9.958  28.266   7.498
 3165AUSL   AUS 3152  11.025  29.076   7.652
 3166AUSL   AUS 3153  11.282  28.729   7.765
 3167AUL    AUL 3154  10.905  28.749   7.804
 3168THSLK    S 3155  11.096  28.572   7.889
 3169ETHY    C1 3156  10.783  28.266   8.033
 3170ETHY    C1 3157  10.468  27.879   8.284
 3171THSLK    S 3158  10.758  28.999   7.625
 3172ETHY    C1 3159  10.306  28.903   7.639
 3173ETHY    C1 3160   9.781  28.750   7.746
 3174AUSL   AUS 3161  11.699  29.820   7.910
 3175AUSL   AUS 3162  11.282  29.750   7.765
 3176AUL    AUL 3163  11.395  30.034   7.991
 3177THSLK    S 3164  11.151  29.918   7.945
 3178ETHY    C1 3165  10.930  30.246   8.185
 3179ETHY    C1 3166  10.589  30.626   8.409
 3180THSLK    S 3167  11.733  30.061   8.033
 3181ETHY    C1 3168  11.791  30.433   8.301
 3182ETHY    C1 3169  11.775  30.912   8.586
 3183AUSL   AUS 3170  11.547  29.913   7.664
 3184AUSL   AUS 3171  11.850  29.913   7.337
 3185AUL    AUL 3172  11.699  30.221   7.501
 3186THSLK    S 3173  11.578  30.173   7.770
 3187ETHY    C1 3174  11.568  30.614   7.907
 3188ETHY    C1 3175  11.459  31.143   8.048
 3189THSLK    S 3176  11.895  30.162   7.235
 3190ETHY    C1 3177  12.033  30.580   7.097
 3191ETHY    C1 3178  12.105  31.115   6.955
 3192AUSL   AUS 3179  11.850  29.913   7.664
 3193AUSL   AUS 3180  11.964  29.656   8.011
 3194AUL    AUL 3181  12.002  30.034   7.991
 3195THSLK    S 3182  12.138  29.784   8.185
 3196ETHY    C1 3183  12.374  30.003   8.517
 3197ETHY    C1 3184  12.600  30.345   8.895
 3198THSLK    S 3185  11.895  30.161   7.767
 3199ETHY    C1 3186  12.034  30.582   7.898
 3200ETHY    C1 3187  12.107  31.116   8.041
 3201AUSL   AUS 3188  11.699  28.660   7.910
 3202AUSL   AUS 3189  12.115  28.729   7.765
 3203AUL    AUL 3190  12.002  28.445   7.991
 3204THSLK    S 3191  11.665  28.396   7.997
 3205ETHY    C1 3192  11.610  27.987   8.205
 3206ETHY    C1 3193  11.625  27.519   8.507
 3207THSLK    S 3194  12.247  28.538   7.910
 3208ETHY    C1 3195  12.470  28.176   8.089
 3209ETHY    C1 3196  12.811  27.806   8.330
 3210AUSL   AUS 3197  11.547  28.566   7.664
 3211AUSL   AUS 3198  11.434  28.823   8.011
 3212AUL    AUL 3199  11.395  28.445   7.991
 3213THSLK    S 3200  11.502  28.313   7.746
 3214ETHY    C1 3201  11.365  27.882   7.843
 3215ETHY    C1 3202  11.292  27.350   7.996
 3216THSLK    S 3203  11.259  28.649   8.146
 3217ETHY    C1 3204  11.028  28.351   8.413
 3218ETHY    C1 3205  10.801  28.031   8.810
 3219AUSL   AUS 3206  11.850  28.566   7.664
 3220AUSL   AUS 3207  11.547  28.566   7.337
 3221AUL    AUL 3208  11.699  28.258   7.501
 3222THSLK    S 3209  11.502  28.313   7.255
 3223ETHY    C1 3210  11.363  27.884   7.152
 3224ETHY    C1 3211  11.291  27.352   7.001
 3225THSLK    S 3212  11.819  28.301   7.750
 3226ETHY    C1 3213  11.832  27.850   7.852
 3227ETHY    C1 3214  11.940  27.324   8.003
 3228AUSL   AUS 3215  11.699  29.820   7.092
 3229AUSL   AUS 3216  12.115  29.750   7.236
 3230AUL    AUL 3217  12.002  30.034   7.010
 3231THSLK    S 3218  11.733  30.061   6.969
 3232ETHY    C1 3219  11.788  30.430   6.696
 3233ETHY    C1 3220  11.772  30.909   6.412
 3234THSLK    S 3221  12.302  29.885   7.077
 3235ETHY    C1 3222  12.615  30.152   6.868
 3236ETHY    C1 3223  12.930  30.549   6.634
 3237AUSL   AUS 3224  11.547  29.913   7.337
 3238AUSL   AUS 3225  11.434  29.656   6.990
 3239AUL    AUL 3226  11.395  30.034   7.010
 3240THSLK    S 3227  11.578  30.174   7.232
 3241ETHY    C1 3228  11.566  30.612   7.088
 3242ETHY    C1 3229  11.458  31.141   6.948
 3243THSLK    S 3230  11.307  29.799   6.799
 3244ETHY    C1 3231  11.149  30.039   6.437
 3245ETHY    C1 3232  10.901  30.374   6.067
 3246AUSL   AUS 3233  11.699  28.660   7.092
 3247AUSL   AUS 3234  11.282  28.729   7.236
 3248AUL    AUL 3235  11.395  28.445   7.010
 3249THSLK    S 3236  11.096  28.572   7.113
 3250ETHY    C1 3237  10.780  28.270   6.964
 3251ETHY    C1 3238  10.466  27.883   6.714
 3252THSLK    S 3239  11.665  28.396   7.004
 3253ETHY    C1 3240  11.606  27.991   6.791
 3254ETHY    C1 3241  11.623  27.521   6.490
 3255AUSL   AUS 3242  11.850  28.566   7.337
 3256AUSL   AUS 3243  11.964  28.823   6.990
 3257AUL    AUL 3244  12.002  28.445   7.010
 3258THSLK    S 3245  11.820  28.300   7.252
 3259ETHY    C1 3246  11.830  27.852   7.143
 3260ETHY    C1 3247  11.938  27.325   6.993
 3261THSLK    S 3248  12.092  28.634   6.839
 3262ETHY    C1 3249  12.244  28.316   6.541
 3263ETHY    C1 3250  12.493  28.002   6.152
 3264POPC   NC3 3251  33.029  36.867   9.450
 3264POPC   PO4 3252  33.032  36.904   9.150
 3264POPC   GL1 3253  32.994  36.892   8.850
 3264POPC   GL2 3254  33.013  37.045   8.850
 3264POPC   C1A 3255  33.060  36.879   8.550
 3264POPC   D2A 3256  33.010  36.863   8.250
 3264POPC   C3A 3257  33.055  36.929   7.950
 3264POPC   C4A 3258  33.061  36.893   7.650
 3264POPC   C1B 3259  33.011  37.168   8.550
 3264POPC   C2B 3260  32.943  37.189   8.250
 3264POPC   C3B 3261  32.937  37.152   7.950
 3264POPC   C4B 3262  33.003  37.122   7.650
 3265POPC   NC3 3263   2.017  20.598   9.450
 3265POPC   PO4 3264   1.967  20.576   9.150
 3265POPC   GL1 3265   1.994  20.618   8.850
 3265POPC   GL2 3266   1.919  20.515   8.850
 3265POPC   C1A 3267   1.941  20.574   8.550
 3265POPC   D2A 3268   2.012  20.654   8.250
 3265POPC   C3A 3269   1.990  20.643   7.950
 3265POPC   C4A 3270   2.025  20.578   7.650
 3265POPC   C1B 3271   1.757  20.508   8.550
 3265POPC   C2B 3272   1.759  20.501   8.250
 3265POPC   C3B 3273   1.812  20.544   7.950
 3265POPC   C4B 3274   1.739  20.507   7.650
 3266POPC   NC3 3275  15.214  19.855   9.450
 3266POPC   PO4 3276  15.141  19.804   9.150
 3266POPC   GL1 3277  15.217  19.813   8.850
 3266POPC   GL2 3278  15.254  19.918   8.850
 3266POPC   C1A 3279  15.207  19.878   8.550
 3266POPC   D2A 3280  15.174  19.797   8.250
 3266POPC   C3A 3281  15.170  19.817   7.950
 3266POPC   C4A 3282  15.131  19.860   7.650
 3266POPC   C1B 3283  15.281  20.092   8.550
 3266POPC   C2B 3284  15.283  20.043   8.250
 3266POPC   C3B 3285  15.260  20.113   7.950
 3266POPC   C4B 3286  15.310  20.089   7.650
 3267POPC   NC3 3287  25.998  44.636   9.450
 3267POPC   PO4 3288  25.997  44.694   9.150
 3267POPC   GL1 3289  26.036  44.671   8.850
 3267POPC   GL2 3290  25.953  44.699   8.850
 3267POPC   C1A 3291  26.045  44.664   8.550
 3267POPC   D2A 3292  26.040  44.643   8.250
 3267POPC   C3A 3293  26.055  44.700   7.950
 3267POPC   C4A 3294  26.000  44.616   7.650
 3267POPC   C1B 3295  25.752  44.678   8.550
 3267POPC   C2B 3296  25.815  44.747   8.250
 3267POPC   C3B 3297  25.840  44.710   7.950
 3267POPC   C4B 3298  25.825  44.717   7.650
 3268POPC   NC3 3299  35.329   6.603   9.450
 3268POPC   PO4 3300  35.349   6.602   9.150
 3268POPC   GL1 3301  35.307   6.680   8.850
 3268POPC   GL2 3302  35.444   6.725   8.850
 3268POPC   C1A 3303  35.380   6.680   8.550
 3268POPC   D2A 3304  35.320   6.685   8.250
 3268POPC   C3A 3305  35.333   6.602   7.950
 3268POPC   C4A 3306  35.396   6.674   7.650
 3268POPC   C1B 3307  35.576   6.824   8.550
 3268POPC   C2B 3308  35.609   6.765   8.250
 3268POPC   C3B 3309  35.578   6.776   7.950
 3268POPC   C4B 3310  35.549   6.811   7.650
 3269POPC   NC3 3311   0.475  28.343   9.450
 3269POPC   PO4 3312   0.454  28.378   9.150
 3269POPC   GL1 3313   0.389  28.378   8.850
 3269POPC   GL2 3314   0.565  28.386   8.850
 3269POPC   C1A 3315   0.412  28.327   8.550
 3269POPC   D2A 3316   0.442  28.358   8.250
 3269POPC   C3A 3317   0.399  28.368   7.950
 3269POPC   C4A 3318   0.436  28.395   7.650
 3269POPC   C1B 3319   0.650  28.440   8.550
 3269POPC   C2B 3320   0.708  28.486   8.250
 3269POPC   C3B 3321   0.712  28.519   7.950
 3269POPC   C4B 3322   0.688  28.486   7.650
 3270POPC   NC3 3323  39.958  37.652   9.450
 3270POPC   PO4 3324  40.017  37.643   9.150
 3270POPC   GL1 3325  39.994  37.645   8.850
 3270POPC   GL2 3326  39.921  37.525   8.850
 3270POPC   C1A 3327  40.005  37.691   8.550
 3270POPC   D2A 3328  39.996  37.647   8.250
 3270POPC   C3A 3329  40.001  37.645   7.950
 3270POPC   C4A 3330  39.968  37.654   7.650
 3270POPC   C1B 3331  39.874  37.427   8.550
 3270POPC   C2B 3332  39.907  37.414   8.250
 3270POPC   C3B 3333  39.877  37.406   7.950
 3270POPC   C4B 3334  39.899  37.430   7.650
 3271POPC   NC3 3335  36.891  40.822   9.450
 3271POPC   PO4 3336  36.930  40.757   9.150
 3271POPC   GL1 3337  36.875  40.740   8.850
 3271POPC   GL2 3338  36.962  40.693   8.850
 3271POPC   C1A 3339  36.931  40.734   8.550
 3271POPC   D2A 3340  36.861  40.793   8.250
 3271POPC   C3A 3341  36.874  40.801   7.950
 3271POPC   C4A 3342  36.894  40.798   7.650
 3271POPC   C1B 3343  37.158  40.653   8.550
 3271POPC   C2B 3344  37.077  40.689   8.250
 3271POPC   C3B 3345  37.167  40.701   7.950
 3271POPC   C4B 3346  37.097  40.694   7.650
 3272POPC   NC3 3347   0.483  13.636   9.450
 3272POPC   PO4 3348   0.422  13.651   9.150
 3272POPC   GL1 3349   0.414  13.637   8.850
 3272POPC   GL2 3350   0.342  13.722   8.850
 3272POPC   C1A 3351   0.458  13.644   8.550
 3272POPC   D2A 3352   0.407  13.638   8.250
 3272POPC   C3A 3353   0.439  13.581   7.950
 3272POPC   C4A 3354   0.422  13.658   7.650
 3272POPC   C1B 3355   0.250  13.873   8.550
 3272POPC   C2B 3356   0.279  13.843   8.250
 3272POPC   C3B 3357   0.279  13.847   7.950
 3272POPC   C4B 3358   0.323  13.842   7.650
 3273POPC   NC3 3359  24.512   0.477   9.450
 3273POPC   PO4 3360  24.486   0.399   9.150
 3273POPC   GL1 3361  24.459   0.410   8.850
 3273POPC   GL2 3362  24.484   0.565   8.850
 3273POPC   C1A 3363  24.532   0.412   8.550
 3273POPC   D2A 3364  24.537   0.444   8.250
 3273POPC   C3A 3365  24.451   0.437   7.950
 3273POPC   C4A 3366  24.482   0.462   7.650
 3273POPC   C1B 3367  24.419   0.711   8.550
 3273POPC   C2B 3368  24.442   0.704   8.250
 3273POPC   C3B 3369  24.406   0.685   7.950
 3273POPC   C4B 3370  24.404   0.700   7.650
 3274POPC   NC3 3371  22.982  22.948   9.450
 3274POPC   PO4 3372  22.926  22.934   9.150
 3274POPC   GL1 3373  22.961  22.955   8.850
 3274POPC   GL2 3374  22.889  23.007   8.850
 3274POPC   C1A 3375  22.986  22.917   8.550
 3274POPC   D2A 3376  22.960  22.966   8.250
 3274POPC   C3A 3377  22.988  22.906   7.950
 3274POPC   C4A 3378  22.970  22.978   7.650
 3274POPC   C1B 3379  22.729  23.153   8.550
 3274POPC   C2B 3380  22.724  23.091   8.250
 3274POPC   C3B 3381  22.793  23.132   7.950
 3274POPC   C4B 3382  22.792  23.153   7.650
 3275POPC   NC3 3383  16.732  30.733   9.450
 3275POPC   PO4 3384  16.764  30.717   9.150
 3275POPC   GL1 3385  16.714  30.677   8.850
 3275POPC   GL2 3386  16.850  30.739   8.850
 3275POPC   C1A 3387  16.708  30.694   8.550
 3275POPC   D2A 3388  16.720  30.680   8.250
 3275POPC   C3A 3389  16.749  30.657   7.950
 3275POPC   C4A 3390  16.705  30.651   7.650
 3275POPC   C1B 3391  16.969  30.775   8.550
 3275POPC   C2B 3392  16.970  30.805   8.250
 3275POPC   C3B 3393  16.969  30.832   7.950
 3275POPC   C4B 3394  16.982  30.789   7.650
 3276POPC   NC3 3395   2.762  44.682   9.450
 3276POPC   PO4 3396   2.787  44.658   9.150
 3276POPC   GL1 3397   2.762  44.702   8.850
 3276POPC   GL2 3398   2.852  44.786   8.850
 3276POPC   C1A 3399   2.777  44.686   8.550
 3276POPC   D2A 3400   2.770  44.613   8.250
 3276POPC   C3A 3401   2.792  44.680   7.950
 3276POPC   C4A 3402   2.767  44.624   7.650
 3276POPC   C1B 3403   2.910  44.854   8.550
 3276POPC   C2B 3404   2.862  44.896   8.250
 3276POPC   C3B 3405   2.879  44.897   7.950
 3276POPC   C4B 3406   2.855  44.854   7.650
 3277POPC   NC3 3407  38.419  32.280   9.450
 3277POPC   PO4 3408  38.489  32.287   9.150
 3277POPC   GL1 3409  38.469  32.234   8.850
 3277POPC   GL2 3410  38.563  32.335   8.850
 3277POPC   C1A 3411  38.467  32.294   8.550
 3277POPC   D2A 3412  38.421  32.216   8.250
 3277POPC   C3A 3413  38.420  32.226   7.950
 3277POPC   C4A 3414  38.463  32.202   7.650
 3277POPC   C1B 3415  38.693  32.415   8.550
 3277POPC   C2B 3416  38.622  32.444   8.250
 3277POPC   C3B 3417  38.653  32.402   7.950
 3277POPC   C4B 3418  38.688  32.452   7.650
 3278POPC   NC3 3419  39.216   8.944   9.450
 3278POPC   PO4 3420  39.203   8.936   9.150
 3278POPC   GL1 3421  39.247   8.951   8.850
 3278POPC   GL2 3422  39.115   9.062   8.850
 3278POPC   C1A 3423  39.274   9.015   8.550
 3278POPC   D2A 3424  39.281   8.988   8.250
 3278POPC   C3A 3425  39.207   8.943   7.950
 3278POPC   C4A 3426  39.209   8.961   7.650
 3278POPC   C1B 3427  39.073   9.162   8.550
 3278POPC   C2B 3428  39.085   9.179   8.250
 3278POPC   C3B 3429  39.056   9.179   7.950
 3278POPC   C4B 3430  39.056   9.117   7.650
 3279POPC   NC3 3431   1.204  26.786   9.450
 3279POPC   PO4 3432   1.166  26.858   9.150
 3279POPC   GL1 3433   1.188  26.810   8.850
 3279POPC   GL2 3434   1.136  26.854   8.850
 3279POPC   C1A 3435   1.240  26.839   8.550
 3279POPC   D2A 3436   1.207  26.768   8.250
 3279POPC   C3A 3437   1.231  26.769   7.950
 3279POPC   C4A 3438   1.216  26.808   7.650
 3279POPC   C1B 3439   0.950  26.922   8.550
 3279POPC   C2B 3440   0.966  26.929   8.250
 3279POPC   C3B 3441   1.018  26.913   7.950
 3279POPC   C4B 3442   0.938  26.959   7.650
 3280POPC   NC3 3443   4.293  15.940   9.450
 3280POPC   PO4 3444   4.301  15.936   9.150
 3280POPC   GL1 3445   4.280  15.977   8.850
 3280POPC   GL2 3446   4.259  15.889   8.850
 3280POPC   C1A 3447   4.355  16.004   8.550
 3280POPC   D2A 3448   4.280  15.915   8.250
 3280POPC   C3A 3449   4.316  15.945   7.950
 3280POPC   C4A 3450   4.313  15.992   7.650
 3280POPC   C1B 3451   4.173  15.758   8.550
 3280POPC   C2B 3452   4.220  15.782   8.250
 3280POPC   C3B 3453   4.219  15.786   7.950
 3280POPC   C4B 3454   4.206  15.733   7.650
 3281POPC   NC3 3455  19.822  11.340   9.450
 3281POPC   PO4 3456  19.800  11.341   9.150
 3281POPC   GL1 3457  19.840  11.305   8.850
 3281POPC   GL2 3458  19.734  11.200   8.850
 3281POPC   C1A 3459  19.877  11.307   8.550
 3281POPC   D2A 3460  19.790  11.342   8.250
 3281POPC   C3A 3461  19.840  11.331   7.950
 3281POPC   C4A 3462  19.874  11.315   7.650
 3281POPC   C1B 3463  19.669  11.091   8.550
 3281POPC   C2B 3464  19.706  11.159   8.250
 3281POPC   C3B 3465  19.694  11.080   7.950
 3281POPC   C4B 3466  19.710  11.127   7.650
 3282POPC   NC3 3467   8.940  29.926   9.450
 3282POPC   PO4 3468   9.022  29.879   9.150
 3282POPC   GL1 3469   8.998  29.915   8.850
 3282POPC   GL2 3470   9.000  29.794   8.850
 3282POPC   C1A 3471   8.971  29.952   8.550
 3282POPC   D2A 3472   8.983  29.882   8.250
 3282POPC   C3A 3473   9.009  29.889   7.950
 3282POPC   C4A 3474   9.008  29.901   7.650
 3282POPC   C1B 3475   8.912  29.711   8.550
 3282POPC   C2B 3476   8.956  29.672   8.250
 3282POPC   C3B 3477   8.972  29.634   7.950
 3282POPC   C4B 3478   8.982  29.684   7.650
 3283POPC   NC3 3479  27.547  33.007   9.450
 3283POPC   PO4 3480  27.573  33.054   9.150
 3283POPC   GL1 3481  27.603  33.071   8.850
 3283POPC   GL2 3482  27.745  32.961   8.850
 3283POPC   C1A 3483  27.572  33.024   8.550
 3283POPC   D2A 3484  27.622  33.024   8.250
 3283POPC   C3A 3485  27.589  32.985   7.950
 3283POPC   C4A 3486  27.550  32.988   7.650
 3283POPC   C1B 3487  27.797  32.927   8.550
 3283POPC   C2B 3488  27.762  32.850   8.250
 3283POPC   C3B 3489  27.820  32.929   7.950
 3283POPC   C4B 3490  27.827  32.851   7.650
 3284POPC   NC3 3491  33.055  29.886   9.450
 3284POPC   PO4 3492  33.024  29.895   9.150
 3284POPC   GL1 3493  33.024  29.925   8.850
 3284POPC   GL2 3494  33.069  29.852   8.850
 3284POPC   C1A 3495  33.067  29.915   8.550
 3284POPC   D2A 3496  33.059  29.910   8.250
 3284POPC   C3A 3497  33.028  29.893   7.950
 3284POPC   C4A 3498  33.039  29.925   7.650
 3284POPC   C1B 3499  33.155  29.742   8.550
 3284POPC   C2B 3500  33.195  29.769   8.250
 3284POPC   C3B 3501  33.228  29.697   7.950
 3284POPC   C4B 3502  33.212  29.732   7.650
 3285POPC   NC3 3503  39.997  16.745   9.450
 3285POPC   PO4 3504  39.984  16.707   9.150
 3285POPC   GL1 3505  40.029  16.764   8.850
 3285POPC   GL2 3506  39.906  16.681   8.850
 3285POPC   C1A 3507  40.030  16.760   8.550
 3285POPC   D2A 3508  39.975  16.711   8.250
 3285POPC   C3A 3509  40.045  16.716   7.950
 3285POPC   C4A 3510  39.992  16.708   7.650
 3285POPC   C1B 3511  39.734  16.598   8.550
 3285POPC   C2B 3512  39.827  16.617   8.250
 3285POPC   C3B 3513  39.820  16.608   7.950
 3285POPC   C4B 3514  39.781  16.584   7.650
 3286POPC   NC3 3515  36.173  30.745   9.450
 3286POPC   PO4 3516  36.154  30.713   9.150
 3286POPC   GL1 3517  36.112  30.717   8.850
 3286POPC   GL2 3518  36.015  30.733   8.850
 3286POPC   C1A 3519  36.118  30.695   8.550
 3286POPC   D2A 3520  36.105  30.716   8.250
 3286POPC   C3A 3521  36.169  30.712   7.950
 3286POPC   C4A 3522  36.142  30.654   7.650
 3286POPC   C1B 3523  35.888  30.761   8.550
 3286POPC   C2B 3524  35.920  30.770   8.250
 3286POPC   C3B 3525  35.908  30.791   7.950
 3286POPC   C4B 3526  35.867  30.755   7.650
 3287POPC   NC3 3527  28.400  33.015   9.450
 3287POPC   PO4 3528  28.373  33.048   9.150
 3287POPC   GL1 3529  28.384  32.985   8.850
 3287POPC   GL2 3530  28.342  32.866   8.850
 3287POPC   C1A 3531  28.403  33.019   8.550
 3287POPC   D2A 3532  28.350  33.026   8.250
 3287POPC   C3A 3533  28.338  33.063   7.950
 3287POPC   C4A 3534  28.339  33.026   7.650
 3287POPC   C1B 3535  28.336  32.804   8.550
 3287POPC   C2B 3536  28.325  32.786   8.250
 3287POPC   C3B 3537  28.318  32.803   7.950
 3287POPC   C4B 3538  28.414  32.742   7.650
 3288POPC   NC3 3539  32.259   8.244   9.450
 3288POPC   PO4 3540  32.277   8.233   9.150
 3288POPC   GL1 3541  32.214   8.151   8.850
 3288POPC   GL2 3542  32.188   8.251   8.850
 3288POPC   C1A 3543  32.270   8.231   8.550
 3288POPC   D2A 3544  32.218   8.232   8.250
 3288POPC   C3A 3545  32.277   8.212   7.950
 3288POPC   C4A 3546  32.220   8.232   7.650
 3288POPC   C1B 3547  32.057   8.360   8.550
 3288POPC   C2B 3548  32.061   8.405   8.250
 3288POPC   C3B 3549  32.044   8.383   7.950
 3288POPC   C4B 3550  32.096   8.340   7.650
 3289POPC   NC3 3551  38.433  26.051   9.450
 3289POPC   PO4 3552  38.470  26.083   9.150
 3289POPC   GL1 3553  38.463  26.057   8.850
 3289POPC   GL2 3554  38.318  26.035   8.850
 3289POPC   C1A 3555  38.450  26.058   8.550
 3289POPC   D2A 3556  38.426  26.066   8.250
 3289POPC   C3A 3557  38.446  26.063   7.950
 3289POPC   C4A 3558  38.484  26.016   7.650
 3289POPC   C1B 3559  38.165  26.002   8.550
 3289POPC   C2B 3560  38.205  25.998   8.250
 3289POPC   C3B 3561  38.161  26.037   7.950
 3289POPC   C4B 3562  38.244  26.041   7.650
 3290POPC   NC3 3563   7.449   5.914   9.450
 3290POPC   PO4 3564   7.410   5.907   9.150
 3290POPC   GL1 3565   7.439   5.886   8.850
 3290POPC   GL2 3566   7.456   5.996   8.850
 3290POPC   C1A 3567   7.395   5.891   8.550
 3290POPC   D2A 3568   7.433   5.857   8.250
 3290POPC   C3A 3569   7.404   5.848   7.950
 3290POPC   C4A 3570   7.446   5.905   7.650
 3290POPC   C1B 3571   7.551   6.077   8.550
 3290POPC   C2B 3572   7.554   6.063   8.250
 3290POPC   C3B 3573   7.543   6.054   7.950
 3290POPC   C4B 3574   7.547   6.135   7.650
 3291POPC   NC3 3575  26.854  31.456   9.450
 3291POPC   PO4 3576  26.786  31.497   9.150
 3291POPC   GL1 3577  26.809  31.486   8.850
 3291POPC   GL2 3578  26.654  31.537   8.850
 3291POPC   C1A 3579  26.807  31.479   8.550
 3291POPC   D2A 3580  26.822  31.506   8.250
 3291POPC   C3A 3581  26.865  31.505   7.950
 3291POPC   C4A 3582  26.815  31.464   7.650
 3291POPC   C1B 3583  26.576  31.531   8.550
 3291POPC   C2B 3584  26.542  31.560   8.250
 3291POPC   C3B 3585  26.581  31.626   7.950
 3291POPC   C4B 3586  26.574  31.556   7.650
 3292POPC   NC3 3587  38.440  12.029   9.450
 3292POPC   PO4 3588  38.485  12.036   9.150
 3292POPC   GL1 3589  38.427  12.059   8.850
 3292POPC   GL2 3590  38.321  12.000   8.850
 3292POPC   C1A 3591  38.503  12.041   8.550
 3292POPC   D2A 3592  38.416  12.065   8.250
 3292POPC   C3A 3593  38.471  12.030   7.950
 3292POPC   C4A 3594  38.445  12.051   7.650
 3292POPC   C1B 3595  38.225  11.944   8.550
 3292POPC   C2B 3596  38.206  11.909   8.250
 3292POPC   C3B 3597  38.271  11.925   7.950
 3292POPC   C4B 3598  38.206  11.912   7.650
 3293POPC   NC3 3599  11.267   2.718   9.450
 3293POPC   PO4 3600  11.253   2.809   9.150
 3293POPC   GL1 3601  11.317   2.806   8.850
 3293POPC   GL2 3602  11.312   2.632   8.850
 3293POPC   C1A 3603  11.337   2.790   8.550
 3293POPC   D2A 3604  11.297   2.716   8.250
 3293POPC   C3A 3605  11.276   2.809   7.950
 3293POPC   C4A 3606  11.301   2.722   7.650
 3293POPC   C1B 3607  11.404   2.566   8.550
 3293POPC   C2B 3608  11.339   2.563   8.250
 3293POPC   C3B 3609  11.372   2.556   7.950
 3293POPC   C4B 3610  11.349   2.554   7.650
 3294POPC   NC3 3611  18.331  33.036   9.450
 3294POPC   PO4 3612  18.249  33.010   9.150
 3294POPC   GL1 3613  18.249  33.066   8.850
 3294POPC   GL2 3614  18.131  33.016   8.850
 3294POPC   C1A 3615  18.237  33.020   8.550
 3294POPC   D2A 3616  18.331  33.058   8.250
 3294POPC   C3A 3617  18.235  33.021   7.950
 3294POPC   C4A 3618  18.291  33.073   7.650
 3294POPC   C1B 3619  18.041  33.114   8.550
 3294POPC   C2B 3620  18.056  33.026   8.250
 3294POPC   C3B 3621  18.022  33.031   7.950
 3294POPC   C4B 3622  18.014  33.060   7.650
 3295POPC   NC3 3623  40.004  22.199   9.450
 3295POPC   PO4 3624  39.987  22.174   9.150
 3295POPC   GL1 3625  40.023  22.165   8.850
 3295POPC   GL2 3626  40.071  22.268   8.850
 3295POPC   C1A 3627  39.977  22.128   8.550
 3295POPC   D2A 3628  40.002  22.171   8.250
 3295POPC   C3A 3629  40.028  22.119   7.950
 3295POPC   C4A 3630  39.960  22.157   7.650
 3295POPC   C1B 3631  40.234  22.320   8.550
 3295POPC   C2B 3632  40.209  22.375   8.250
 3295POPC   C3B 3633  40.236  22.312   7.950
 3295POPC   C4B 3634  40.145  22.359   7.650
 3296POPC   NC3 3635  33.028  32.234   9.450
 3296POPC   PO4 3636  32.975  32.269   9.150
 3296POPC   GL1 3637  32.980  32.246   8.850
 3296POPC   GL2 3638  32.977  32.137   8.850
 3296POPC   C1A 3639  33.004  32.273   8.550
 3296POPC   D2A 3640  32.976  32.264   8.250
 3296POPC   C3A 3641  33.058  32.258   7.950
 3296POPC   C4A 3642  32.990  32.200   7.650
 3296POPC   C1B 3643  32.901  32.018   8.550
 3296POPC   C2B 3644  32.820  32.026   8.250
 3296POPC   C3B 3645  32.855  32.080   7.950
 3296POPC   C4B 3646  32.851  32.043   7.650
 3297POPC   NC3 3647  17.512  15.179   9.450
 3297POPC   PO4 3648  17.526  15.132   9.150
 3297POPC   GL1 3649  17.517  15.159   8.850
 3297POPC   GL2 3650  17.354  15.144   8.850
 3297POPC   C1A 3651  17.502  15.213   8.550
 3297POPC   D2A 3652  17.458  15.148   8.250
 3297POPC   C3A 3653  17.547  15.166   7.950
 3297POPC   C4A 3654  17.482  15.193   7.650
 3297POPC   C1B 3655  17.246  15.023   8.550
 3297POPC   C2B 3656  17.291  15.058   8.250
 3297POPC   C3B 3657  17.277  15.017   7.950
 3297POPC   C4B 3658  17.256  15.042   7.650
 3298POPC   NC3 3659  34.558  26.086   9.450
 3298POPC   PO4 3660  34.612  26.074   9.150
 3298POPC   GL1 3661  34.623  26.024   8.850
 3298POPC   GL2 3662  34.649  26.168   8.850
 3298POPC   C1A 3663  34.592  26.050   8.550
 3298POPC   D2A 3664  34.555  26.078   8.250
 3298POPC   C3A 3665  34.590  26.046   7.950
 3298POPC   C4A 3666  34.541  26.091   7.650
 3298POPC   C1B 3667  34.592  26.236   8.550
 3298POPC   C2B 3668  34.593  26.319   8.250
 3298POPC   C3B 3669  34.654  26.268   7.950
 3298POPC   C4B 3670  34.662  26.329   7.650
 3299POPC   NC3 3671   7.400  31.513   9.450
 3299POPC   PO4 3672   7.392  31.484   9.150
 3299POPC   GL1 3673   7.415  31.458   8.850
 3299POPC   GL2 3674   7.355  31.427   8.850
 3299POPC   C1A 3675   7.450  31.441   8.550
 3299POPC   D2A 3676   7.455  31.450   8.250
 3299POPC   C3A 3677   7.434  31.477   7.950
 3299POPC   C4A 3678   7.408  31.454   7.650
 3299POPC   C1B 3679   7.221  31.311   8.550
 3299POPC   C2B 3680   7.233  31.365   8.250
 3299POPC   C3B 3681   7.216  31.346   7.950
 3299POPC   C4B 3682   7.184  31.330   7.650
 3300POPC   NC3 3683   6.685   4.284   9.450
 3300POPC   PO4 3684   6.597   4.352   9.150
 3300POPC   GL1 3685   6.667   4.289   8.850
 3300POPC   GL2 3686   6.790   4.261   8.850
 3300POPC   C1A 3687   6.625   4.290   8.550
 3300POPC   D2A 3688   6.680   4.284   8.250
 3300POPC   C3A 3689   6.637   4.313   7.950
 3300POPC   C4A 3690   6.675   4.282   7.650
 3300POPC   C1B 3691   6.836   4.250   8.550
 3300POPC   C2B 3692   6.925   4.209   8.250
 3300POPC   C3B 3693   6.830   4.255   7.950
 3300POPC   C4B 3694   6.853   4.244   7.650
 3301POPC   NC3 3695   8.926  15.923   9.450
 3301POPC   PO4 3696   9.016  15.965   9.150
 3301POPC   GL1 3697   9.018  15.921   8.850
 3301POPC   GL2 3698   8.892  16.114   8.850
 3301POPC   C1A 3699   8.924  16.005   8.550
 3301POPC   D2A 3700   8.926  15.951   8.250
 3301POPC   C3A 3701   8.986  15.964   7.950
 3301POPC   C4A 3702   8.968  15.967   7.650
 3301POPC   C1B 3703   8.922  16.239   8.550
 3301POPC   C2B 3704   8.944  16.148   8.250
 3301POPC   C3B 3705   8.902  16.216   7.950
 3301POPC   C4B 3706   8.925  16.211   7.650
 3302POPC   NC3 3707  43.118  13.582   9.450
 3302POPC   PO4 3708  43.097  13.642   9.150
 3302POPC   GL1 3709  43.098  13.675   8.850
 3302POPC   GL2 3710  43.044  13.494   8.850
 3302POPC   C1A 3711  43.120  13.598   8.550
 3302POPC   D2A 3712  43.091  13.634   8.250
 3302POPC   C3A 3713  43.098  13.659   7.950
 3302POPC   C4A 3714  43.109  13.579   7.650
 3302POPC   C1B 3715  42.994  13.425   8.550
 3302POPC   C2B 3716  42.961  13.381   8.250
 3302POPC   C3B 3717  43.008  13.465   7.950
 3302POPC   C4B 3718  43.000  13.396   7.650
 3303POPC   NC3 3719  15.986  28.350   9.450
 3303POPC   PO4 3720  15.965  28.373   9.150
 3303POPC   GL1 3721  15.917  28.341   8.850
 3303POPC   GL2 3722  15.883  28.293   8.850
 3303POPC   C1A 3723  15.943  28.335   8.550
 3303POPC   D2A 3724  15.963  28.412   8.250
 3303POPC   C3A 3725  15.985  28.392   7.950
 3303POPC   C4A 3726  15.963  28.363   7.650
 3303POPC   C1B 3727  15.712  28.258   8.550
 3303POPC   C2B 3728  15.699  28.270   8.250
 3303POPC   C3B 3729  15.747  28.243   7.950
 3303POPC   C4B 3730  15.734  28.295   7.650
 3304POPC   NC3 3731  12.865  27.621   9.450
 3304POPC   PO4 3732  12.858  27.602   9.150
 3304POPC   GL1 3733  12.810  27.583   8.850
 3304POPC   GL2 3734  12.742  27.614   8.850
 3304POPC   C1A 3735  12.818  27.555   8.550
 3304POPC   D2A 3736  12.811  27.638   8.250
 3304POPC   C3A 3737  12.856  27.608   7.950
 3304POPC   C4A 3738  12.802  27.631   7.650
 3304POPC   C1B 3739  12.641  27.744   8.550
 3304POPC   C2B 3740  12.596  27.713   8.250
 3304POPC   C3B 3741  12.670  27.706   7.950
 3304POPC   C4B 3742  12.671  27.737   7.650
 3305POPC   NC3 3743  22.984   5.059   9.450
 3305POPC   PO4 3744  22.981   5.099   9.150
 3305POPC   GL1 3745  22.980   5.093   8.850
 3305POPC   GL2 3746  22.807   5.033   8.850
 3305POPC   C1A 3747  22.888   5.114   8.550
 3305POPC   D2A 3748  22.930   5.121   8.250
 3305POPC   C3A 3749  22.915   5.048   7.950
 3305POPC   C4A 3750  22.917   5.124   7.650
 3305POPC   C1B 3751  22.690   5.017   8.550
 3305POPC   C2B 3752  22.728   4.969   8.250
 3305POPC   C3B 3753  22.690   4.970   7.950
 3305POPC   C4B 3754  22.732   4.947   7.650
 3306POPC   NC3 3755  10.542   1.205   9.450
 3306POPC   PO4 3756  10.566   1.207   9.150
 3306POPC   GL1 3757  10.515   1.178   8.850
 3306POPC   GL2 3758  10.585   1.105   8.850
 3306POPC   C1A 3759  10.560   1.251   8.550
 3306POPC   D2A 3760  10.563   1.252   8.250
 3306POPC   C3A 3761  10.524   1.202   7.950
 3306POPC   C4A 3762  10.542   1.218   7.650
 3306POPC   C1B 3763  10.649   1.042   8.550
 3306POPC   C2B 3764  10.614   0.978   8.250
 3306POPC   C3B 3765  10.651   1.014   7.950
 3306POPC   C4B 3766  10.671   0.967   7.650
 3307POPC   NC3 3767  11.253  12.114   9.450
 3307POPC   PO4 3768  11.306  12.061   9.150
 3307POPC   GL1 3769  11.327  12.094   8.850
 3307POPC   GL2 3770  11.455  12.187   8.850
 3307POPC   C1A 3771  11.272  12.029   8.550
 3307POPC   D2A 3772  11.278  12.075   8.250
 3307POPC   C3A 3773  11.350  12.050   7.950
 3307POPC   C4A 3774  11.280  12.115   7.650
 3307POPC   C1B 3775  11.527  12.192   8.550
 3307POPC   C2B 3776  11.474  12.203   8.250
 3307POPC   C3B 3777  11.492  12.170   7.950
 3307POPC   C4B 3778  11.501  12.210   7.650
 3308POPC   NC3 3779   0.436   6.682   9.450
 3308POPC   PO4 3780   0.447   6.640   9.150
 3308POPC   GL1 3781   0.397   6.618   8.850
 3308POPC   GL2 3782   0.554   6.647   8.850
 3308POPC   C1A 3783   0.477   6.639   8.550
 3308POPC   D2A 3784   0.470   6.614   8.250
 3308POPC   C3A 3785   0.415   6.688   7.950
 3308POPC   C4A 3786   0.449   6.603   7.650
 3308POPC   C1B 3787   0.707   6.642   8.550
 3308POPC   C2B 3788   0.686   6.707   8.250
 3308POPC   C3B 3789   0.650   6.633   7.950
 3308POPC   C4B 3790   0.655   6.698   7.650
 3309POPC   NC3 3791  36.177   5.883   9.450
 3309POPC   PO4 3792  36.166   5.837   9.150
 3309POPC   GL1 3793  36.129   5.879   8.850
 3309POPC   GL2 3794  36.068   5.936   8.850
 3309POPC   C1A 3795  36.175   5.843   8.550
 3309POPC   D2A 3796  36.165   5.915   8.250
 3309POPC   C3A 3797  36.080   5.890   7.950
 3309POPC   C4A 3798  36.090   5.892   7.650
 3309POPC   C1B 3799  36.002   6.019   8.550
 3309POPC   C2B 3800  35.964   6.074   8.250
 3309POPC   C3B 3801  35.930   6.073   7.950
 3309POPC   C4B 3802  35.942   6.079   7.650
 3310POPC   NC3 3803  16.733  41.595   9.450
 3310POPC   PO4 3804  16.688  41.526   9.150
 3310POPC   GL1 3805  16.776  41.545   8.850
 3310POPC   GL2 3806  16.622  41.453   8.850
 3310POPC   C1A 3807  16.717  41.541   8.550
 3310POPC   D2A 3808  16.750  41.575   8.250
 3310POPC   C3A 3809  16.757  41.541   7.950
 3310POPC   C4A 3810  16.751  41.565   7.650
 3310POPC   C1B 3811  16.538  41.471   8.550
 3310POPC   C2B 3812  16.507  41.432   8.250
 3310POPC   C3B 3813  16.506  41.439   7.950
 3310POPC   C4B 3814  16.500  41.449   7.650
 3311POPC   NC3 3815  28.380  34.623   9.450
 3311POPC   PO4 3816  28.403  34.538   9.150
 3311POPC   GL1 3817  28.381  34.570   8.850
 3311POPC   GL2 3818  28.302  34.598   8.850
 3311POPC   C1A 3819  28.393  34.566   8.550
 3311POPC   D2A 3820  28.413  34.623   8.250
 3311POPC   C3A 3821  28.351  34.616   7.950
 3311POPC   C4A 3822  28.406  34.538   7.650
 3311POPC   C1B 3823  28.173  34.629   8.550
 3311POPC   C2B 3824  28.170  34.655   8.250
 3311POPC   C3B 3825  28.109  34.693   7.950
 3311POPC   C4B 3826  28.159  34.675   7.650
 3312POPC   NC3 3827   8.228  33.066   9.450
 3312POPC   PO4 3828   8.219  33.057   9.150
 3312POPC   GL1 3829   8.187  33.034   8.850
 3312POPC   GL2 3830   8.280  33.074   8.850
 3312POPC   C1A 3831   8.229  33.059   8.550
 3312POPC   D2A 3832   8.156  33.055   8.250
 3312POPC   C3A 3833   8.157  32.983   7.950
 3312POPC   C4A 3834   8.220  33.057   7.650
 3312POPC   C1B 3835   8.445  33.043   8.550
 3312POPC   C2B 3836   8.470  32.985   8.250
 3312POPC   C3B 3837   8.404  32.984   7.950
 3312POPC   C4B 3838   8.439  32.988   7.650
 3313POPC   NC3 3839  14.426  30.726   9.450
 3313POPC   PO4 3840  14.404  30.734   9.150
 3313POPC   GL1 3841  14.420  30.740   8.850
 3313POPC   GL2 3842  14.487  30.727   8.850
 3313POPC   C1A 3843  14.392  30.699   8.550
 3313POPC   D2A 3844  14.409  30.681   8.250
 3313POPC   C3A 3845  14.414  30.729   7.950
 3313POPC   C4A 3846  14.363  30.709   7.650
 3313POPC   C1B 3847  14.641  30.883   8.550
 3313POPC   C2B 3848  14.633  30.880   8.250
 3313POPC   C3B 3849  14.625  30.836   7.950
 3313POPC   C4B 3850  14.565  30.841   7.650
 3314POPC   NC3 3851  29.159  27.565   9.450
 3314POPC   PO4 3852  29.149  27.616   9.150
 3314POPC   GL1 3853  29.177  27.549   8.850
 3314POPC   GL2 3854  29.198  27.761   8.850
 3314POPC   C1A 3855  29.114  27.613   8.550
 3314POPC   D2A 3856  29.168  27.576   8.250
 3314POPC   C3A 3857  29.124  27.580   7.950
 3314POPC   C4A 3858  29.156  27.640   7.650
 3314POPC   C1B 3859  29.220  27.836   8.550
 3314POPC   C2B 3860  29.168  27.798   8.250
 3314POPC   C3B 3861  29.217  27.801   7.950
 3314POPC   C4B 3862  29.161  27.795   7.650
 3315POPC   NC3 3863   4.347   7.396   9.450
 3315POPC   PO4 3864   4.320   7.375   9.150
 3315POPC   GL1 3865   4.342   7.448   8.850
 3315POPC   GL2 3866   4.311   7.324   8.850
 3315POPC   C1A 3867   4.361   7.423   8.550
 3315POPC   D2A 3868   4.324   7.375   8.250
 3315POPC   C3A 3869   4.297   7.434   7.950
 3315POPC   C4A 3870   4.289   7.379   7.650
 3315POPC   C1B 3871   4.354   7.220   8.550
 3315POPC   C2B 3872   4.389   7.170   8.250
 3315POPC   C3B 3873   4.357   7.185   7.950
 3315POPC   C4B 3874   4.399   7.125   7.650
 3316POPC   NC3 3875   9.789  44.675   9.450
 3316POPC   PO4 3876   9.767  44.643   9.150
 3316POPC   GL1 3877   9.755  44.630   8.850
 3316POPC   GL2 3878   9.785  44.746   8.850
 3316POPC   C1A 3879   9.708  44.664   8.550
 3316POPC   D2A 3880   9.777  44.695   8.250
 3316POPC   C3A 3881   9.762  44.660   7.950
 3316POPC   C4A 3882   9.728  44.684   7.650
 3316POPC   C1B 3883   9.752  44.952   8.550
 3316POPC   C2B 3884   9.810  44.955   8.250
 3316POPC   C3B 3885   9.801  44.934   7.950
 3316POPC   C4B 3886   9.818  44.895   7.650
 3317POPC   NC3 3887  18.253  12.122   9.450
 3317POPC   PO4 3888  18.240  12.097   9.150
 3317POPC   GL1 3889  18.240  12.087   8.850
 3317POPC   GL2 3890  18.312  12.229   8.850
 3317POPC   C1A 3891  18.285  12.100   8.550
 3317POPC   D2A 3892  18.307  12.063   8.250
 3317POPC   C3A 3893  18.307  12.036   7.950
 3317POPC   C4A 3894  18.275  12.112   7.650
 3317POPC   C1B 3895  18.280  12.362   8.550
 3317POPC   C2B 3896  18.288  12.281   8.250
 3317POPC   C3B 3897  18.225  12.329   7.950
 3317POPC   C4B 3898  18.272  12.304   7.650
 3318POPC   NC3 3899  22.897  22.116   9.450
 3318POPC   PO4 3900  22.903  22.117   9.150
 3318POPC   GL1 3901  22.982  22.161   8.850
 3318POPC   GL2 3902  23.008  22.194   8.850
 3318POPC   C1A 3903  22.961  22.176   8.550
 3318POPC   D2A 3904  22.908  22.175   8.250
 3318POPC   C3A 3905  22.891  22.171   7.950
 3318POPC   C4A 3906  22.890  22.121   7.650
 3318POPC   C1B 3907  23.177  22.295   8.550
 3318POPC   C2B 3908  23.195  22.205   8.250
 3318POPC   C3B 3909  23.208  22.255   7.950
 3318POPC   C4B 3910  23.187  22.250   7.650
 3319POPC   NC3 3911   3.527  15.943   9.450
 3319POPC   PO4 3912   3.548  15.966   9.150
 3319POPC   GL1 3913   3.591  15.964   8.850
 3319POPC   GL2 3914   3.666  16.026   8.850
 3319POPC   C1A 3915   3.522  15.925   8.550
 3319POPC   D2A 3916   3.506  15.920   8.250
 3319POPC   C3A 3917   3.545  15.917   7.950
 3319POPC   C4A 3918   3.513  15.995   7.650
 3319POPC   C1B 3919   3.783  16.008   8.550
 3319POPC   C2B 3920   3.755  15.981   8.250
 3319POPC   C3B 3921   3.756  16.044   7.950
 3319POPC   C4B 3922   3.825  16.035   7.650
 3320POPC   NC3 3923  18.286   5.054   9.450
 3320POPC   PO4 3924  18.265   5.096   9.150
 3320POPC   GL1 3925  18.252   5.120   8.850
 3320POPC   GL2 3926  18.171   5.077   8.850
 3320POPC   C1A 3927  18.330   5.053   8.550
 3320POPC   D2A 3928  18.286   5.056   8.250
 3320POPC   C3A 3929  18.242   5.072   7.950
 3320POPC   C4A 3930  18.309   5.116   7.650
 3320POPC   C1B 3931  17.987   5.095   8.550
 3320POPC   C2B 3932  18.033   5.148   8.250
 3320POPC   C3B 3933  18.081   5.173   7.950
 3320POPC   C4B 3934  18.083   5.168   7.650
 3321POPC   NC3 3935  14.413   9.012   9.450
 3321POPC   PO4 3936  14.423   8.951   9.150
 3321POPC   GL1 3937  14.411   8.959   8.850
 3321POPC   GL2 3938  14.438   8.834   8.850
 3321POPC   C1A 3939  14.409   8.941   8.550
 3321POPC   D2A 3940  14.361   8.947   8.250
 3321POPC   C3A 3941  14.437   8.947   7.950
 3321POPC   C4A 3942  14.413   8.987   7.650
 3321POPC   C1B 3943  14.463   8.709   8.550
 3321POPC   C2B 3944  14.501   8.725   8.250
 3321POPC   C3B 3945  14.477   8.733   7.950
 3321POPC   C4B 3946  14.431   8.693   7.650
 3322POPC   NC3 3947  26.832  32.226   9.450
 3322POPC   PO4 3948  26.789  32.251   9.150
 3322POPC   GL1 3949  26.799  32.218   8.850
 3322POPC   GL2 3950  26.751  32.281   8.850
 3322POPC   C1A 3951  26.805  32.257   8.550
 3322POPC   D2A 3952  26.859  32.275   8.250
 3322POPC   C3A 3953  26.769  32.238   7.950
 3322POPC   C4A 3954  26.823  32.288   7.650
 3322POPC   C1B 3955  26.625  32.339   8.550
 3322POPC   C2B 3956  26.542  32.325   8.250
 3322POPC   C3B 3957  26.560  32.333   7.950
 3322POPC   C4B 3958  26.635  32.376   7.650
 3323POPC   NC3 3959   6.611  40.768   9.450
 3323POPC   PO4 3960   6.674  40.776   9.150
 3323POPC   GL1 3961   6.636  40.795   8.850
 3323POPC   GL2 3962   6.565  40.724   8.850
 3323POPC   C1A 3963   6.654  40.771   8.550
 3323POPC   D2A 3964   6.624  40.831   8.250
 3323POPC   C3A 3965   6.633  40.830   7.950
 3323POPC   C4A 3966   6.598  40.767   7.650
 3323POPC   C1B 3967   6.487  40.594   8.550
 3323POPC   C2B 3968   6.493  40.620   8.250
 3323POPC   C3B 3969   6.503  40.547   7.950
 3323POPC   C4B 3970   6.460  40.576   7.650
 3324POPC   NC3 3971   3.512  22.961   9.450
 3324POPC   PO4 3972   3.544  22.906   9.150
 3324POPC   GL1 3973   3.563  22.953   8.850
 3324POPC   GL2 3974   3.465  22.873   8.850
 3324POPC   C1A 3975   3.505  22.970   8.550
 3324POPC   D2A 3976   3.577  22.958   8.250
 3324POPC   C3A 3977   3.570  22.904   7.950
 3324POPC   C4A 3978   3.544  22.941   7.650
 3324POPC   C1B 3979   3.310  22.831   8.550
 3324POPC   C2B 3980   3.353  22.885   8.250
 3324POPC   C3B 3981   3.316  22.847   7.950
 3324POPC   C4B 3982   3.266  22.816   7.650
 3325POPC   NC3 3983  43.860   1.206   9.450
 3325POPC   PO4 3984  43.848   1.254   9.150
 3325POPC   GL1 3985  43.925   1.170   8.850
 3325POPC   GL2 3986  43.774   1.105   8.850
 3325POPC   C1A 3987  43.903   1.245   8.550
 3325POPC   D2A 3988  43.861   1.208   8.250
 3325POPC   C3A 3989  43.896   1.203   7.950
 3325POPC   C4A 3990  43.862   1.217   7.650
 3325POPC   C1B 3991  43.660   1.017   8.550
 3325POPC   C2B 3992  43.689   1.048   8.250
 3325POPC   C3B 3993  43.700   1.021   7.950
 3325POPC   C4B 3994  43.696   1.077   7.650
 3326POPC   NC3 3995   5.906  26.811   9.450
 3326POPC   PO4 3996   5.830  26.771   9.150
 3326POPC   GL1 3997   5.883  26.812   8.850
 3326POPC   GL2 3998   5.801  26.732   8.850
 3326POPC   C1A 3999   5.826  26.847   8.550
 3326POPC   D2A 4000   5.903  26.843   8.250
 3326POPC   C3A 4001   5.820  26.827   7.950
 3326POPC   C4A 4002   5.864  26.824   7.650
 3326POPC   C1B 4003   5.606  26.686   8.550
 3326POPC   C2B 4004   5.648  26.690   8.250
 3326POPC   C3B 4005   5.652  26.713   7.950
 3326POPC   C4B 4006   5.661  26.685   7.650
 3327POPC   NC3 4007   8.234  33.842   9.450
 3327POPC   PO4 4008   8.182  33.842   9.150
 3327POPC   GL1 4009   8.176  33.774   8.850
 3327POPC   GL2 4010   8.289  33.814   8.850
 3327POPC   C1A 4011   8.199  33.843   8.550
 3327POPC   D2A 4012   8.207  33.752   8.250
 3327POPC   C3A 4013   8.194  33.829   7.950
 3327POPC   C4A 4014   8.154  33.825   7.650
 3327POPC   C1B 4015   8.459  33.839   8.550
 3327POPC   C2B 4016   8.431  33.853   8.250
 3327POPC   C3B 4017   8.466  33.862   7.950
 3327POPC   C4B 4018   8.459  33.825   7.650
 3328POPC   NC3 4019  24.464  43.092   9.450
 3328POPC   PO4 4020  24.533  43.158   9.150
 3328POPC   GL1 4021  24.520  43.148   8.850
 3328POPC   GL2 4022  24.489  42.960   8.850
 3328POPC   C1A 4023  24.498  43.087   8.550
 3328POPC   D2A 4024  24.508  43.134   8.250
 3328POPC   C3A 4025  24.524  43.132   7.950
 3328POPC   C4A 4026  24.489  43.158   7.650
 3328POPC   C1B 4027  24.505  42.859   8.550
 3328POPC   C2B 4028  24.478  42.878   8.250
 3328POPC   C3B 4029  24.536  42.840   7.950
 3328POPC   C4B 4030  24.522  42.843   7.650
 3329POPC   NC3 4031  18.324  10.532   9.450
 3329POPC   PO4 4032  18.275  10.553   9.150
 3329POPC   GL1 4033  18.306  10.491   8.850
 3329POPC   GL2 4034  18.222  10.369   8.850
 3329POPC   C1A 4035  18.270  10.527   8.550
 3329POPC   D2A 4036  18.320  10.479   8.250
 3329POPC   C3A 4037  18.294  10.529   7.950
 3329POPC   C4A 4038  18.251  10.574   7.650
 3329POPC   C1B 4039  18.205  10.273   8.550
 3329POPC   C2B 4040  18.270  10.299   8.250
 3329POPC   C3B 4041  18.231  10.318   7.950
 3329POPC   C4B 4042  18.243  10.314   7.650
 3330POPC   NC3 4043  31.461  39.198   9.450
 3330POPC   PO4 4044  31.435  39.248   9.150
 3330POPC   GL1 4045  31.517  39.222   8.850
 3330POPC   GL2 4046  31.369  39.204   8.850
 3330POPC   C1A 4047  31.486  39.247   8.550
 3330POPC   D2A 4048  31.494  39.224   8.250
 3330POPC   C3A 4049  31.469  39.232   7.950
 3330POPC   C4A 4050  31.465  39.273   7.650
 3330POPC   C1B 4051  31.216  39.310   8.550
 3330POPC   C2B 4052  31.200  39.292   8.250
 3330POPC   C3B 4053  31.270  39.289   7.950
 3330POPC   C4B 4054  31.182  39.245   7.650
 3331POPC   NC3 4055  33.762  39.246   9.450
 3331POPC   PO4 4056  33.815  39.243   9.150
 3331POPC   GL1 4057  33.763  39.270   8.850
 3331POPC   GL2 4058  33.815  39.312   8.850
 3331POPC   C1A 4059  33.826  39.187   8.550
 3331POPC   D2A 4060  33.848  39.199   8.250
 3331POPC   C3A 4061  33.792  39.211   7.950
 3331POPC   C4A 4062  33.844  39.225   7.650
 3331POPC   C1B 4063  33.892  39.464   8.550
 3331POPC   C2B 4064  33.947  39.466   8.250
 3331POPC   C3B 4065  33.902  39.428   7.950
 3331POPC   C4B 4066  33.902  39.455   7.650
 3332POPC   NC3 4067  43.117  27.554   9.450
 3332POPC   PO4 4068  43.064  27.562   9.150
 3332POPC   GL1 4069  43.149  27.620   8.850
 3332POPC   GL2 4070  43.131  27.703   8.850
 3332POPC   C1A 4071  43.151  27.573   8.550
 3332POPC   D2A 4072  43.084  27.619   8.250
 3332POPC   C3A 4073  43.073  27.549   7.950
 3332POPC   C4A 4074  43.116  27.598   7.650
 3332POPC   C1B 4075  43.227  27.828   8.550
 3332POPC   C2B 4076  43.288  27.756   8.250
 3332POPC   C3B 4077  43.216  27.830   7.950
 3332POPC   C4B 4078  43.229  27.799   7.650
 3333POPC   NC3 4079  35.356   8.953   9.450
 3333POPC   PO4 4080  35.330   8.973   9.150
 3333POPC   GL1 4081  35.302   8.998   8.850
 3333POPC   GL2 4082  35.301   8.878   8.850
 3333POPC   C1A 4083  35.379   9.006   8.550
 3333POPC   D2A 4084  35.377   8.952   8.250
 3333POPC   C3A 4085  35.339   9.010   7.950
 3333POPC   C4A 4086  35.310   9.020   7.650
 3333POPC   C1B 4087  35.161   8.814   8.550
 3333POPC   C2B 4088  35.133   8.836   8.250
 3333POPC   C3B 4089  35.209   8.826   7.950
 3333POPC   C4B 4090  35.181   8.827   7.650
 3334POPC   NC3 4091  34.606  22.140   9.450
 3334POPC   PO4 4092  34.552  22.205   9.150
 3334POPC   GL1 4093  34.599  22.144   8.850
 3334POPC   GL2 4094  34.582  22.077   8.850
 3334POPC   C1A 4095  34.590  22.125   8.550
 3334POPC   D2A 4096  34.568  22.164   8.250
 3334POPC   C3A 4097  34.599  22.123   7.950
 3334POPC   C4A 4098  34.587  22.212   7.650
 3334POPC   C1B 4099  34.681  21.965   8.550
 3334POPC   C2B 4100  34.655  21.872   8.250
 3334POPC   C3B 4101  34.638  21.904   7.950
 3334POPC   C4B 4102  34.635  21.936   7.650
 3335POPC   NC3 4103  22.945  28.366   9.450
 3335POPC   PO4 4104  22.933  28.355   9.150
 3335POPC   GL1 4105  22.952  28.372   8.850
 3335POPC   GL2 4106  22.808  28.333   8.850
 3335POPC   C1A 4107  22.922  28.322   8.550
 3335POPC   D2A 4108  22.917  28.415   8.250
 3335POPC   C3A 4109  22.922  28.362   7.950
 3335POPC   C4A 4110  22.903  28.374   7.650
 3335POPC   C1B 4111  22.676  28.361   8.550
 3335POPC   C2B 4112  22.684  28.366   8.250
 3335POPC   C3B 4113  22.671  28.300   7.950
 3335POPC   C4B 4114  22.699  28.302   7.650
 3336POPC   NC3 4115  22.181  29.144   9.450
 3336POPC   PO4 4116  22.209  29.176   9.150
 3336POPC   GL1 4117  22.209  29.113   8.850
 3336POPC   GL2 4118  22.273  29.182   8.850
 3336POPC   C1A 4119  22.147  29.120   8.550
 3336POPC   D2A 4120  22.190  29.195   8.250
 3336POPC   C3A 4121  22.202  29.193   7.950
 3336POPC   C4A 4122  22.149  29.185   7.650
 3336POPC   C1B 4123  22.375  29.331   8.550
 3336POPC   C2B 4124  22.324  29.269   8.250
 3336POPC   C3B 4125  22.356  29.293   7.950
 3336POPC   C4B 4126  22.393  29.354   7.650
 3337POPC   NC3 4127  41.548  15.915   9.450
 3337POPC   PO4 4128  41.524  15.990   9.150
 3337POPC   GL1 4129  41.549  16.004   8.850
 3337POPC   GL2 4130  41.571  15.859   8.850
 3337POPC   C1A 4131  41.576  15.968   8.550
 3337POPC   D2A 4132  41.523  15.924   8.250
 3337POPC   C3A 4133  41.569  15.913   7.950
 3337POPC   C4A 4134  41.509  15.967   7.650
 3337POPC   C1B 4135  41.542  15.678   8.550
 3337POPC   C2B 4136  41.565  15.748   8.250
 3337POPC   C3B 4137  41.585  15.718   7.950
 3337POPC   C4B 4138  41.591  15.725   7.650
 3338POPC   NC3 4139  33.019  22.156   9.450
 3338POPC   PO4 4140  33.044  22.179   9.150
 3338POPC   GL1 4141  33.062  22.168   8.850
 3338POPC   GL2 4142  32.896  22.072   8.850
 3338POPC   C1A 4143  33.065  22.141   8.550
 3338POPC   D2A 4144  32.991  22.113   8.250
 3338POPC   C3A 4145  33.055  22.164   7.950
 3338POPC   C4A 4146  33.070  22.184   7.650
 3338POPC   C1B 4147  32.795  22.031   8.550
 3338POPC   C2B 4148  32.857  21.998   8.250
 3338POPC   C3B 4149  32.844  22.011   7.950
 3338POPC   C4B 4150  32.863  21.994   7.650
 3339POPC   NC3 4151  39.236   1.192   9.450
 3339POPC   PO4 4152  39.211   1.196   9.150
 3339POPC   GL1 4153  39.244   1.194   8.850
 3339POPC   GL2 4154  39.377   1.163   8.850
 3339POPC   C1A 4155  39.213   1.208   8.550
 3339POPC   D2A 4156  39.278   1.182   8.250
 3339POPC   C3A 4157  39.281   1.182   7.950
 3339POPC   C4A 4158  39.281   1.237   7.650
 3339POPC   C1B 4159  39.441   1.128   8.550
 3339POPC   C2B 4160  39.487   1.151   8.250
 3339POPC   C3B 4161  39.446   1.117   7.950
 3339POPC   C4B 4162  39.499   1.193   7.650
 3340POPC   NC3 4163  36.884  23.706   9.450
 3340POPC   PO4 4164  36.931  23.678   9.150
 3340POPC   GL1 4165  36.886  23.689   8.850
 3340POPC   GL2 4166  36.784  23.703   8.850
 3340POPC   C1A 4167  36.861  23.729   8.550
 3340POPC   D2A 4168  36.897  23.711   8.250
 3340POPC   C3A 4169  36.941  23.696   7.950
 3340POPC   C4A 4170  36.884  23.668   7.650
 3340POPC   C1B 4171  36.642  23.681   8.550
 3340POPC   C2B 4172  36.683  23.628   8.250
 3340POPC   C3B 4173  36.618  23.607   7.950
 3340POPC   C4B 4174  36.706  23.620   7.650
 3341POPC   NC3 4175  23.669  36.119   9.450
 3341POPC   PO4 4176  23.669  36.148   9.150
 3341POPC   GL1 4177  23.704  36.099   8.850
 3341POPC   GL2 4178  23.709  36.290   8.850
 3341POPC   C1A 4179  23.722  36.083   8.550
 3341POPC   D2A 4180  23.681  36.106   8.250
 3341POPC   C3A 4181  23.734  36.157   7.950
 3341POPC   C4A 4182  23.714  36.093   7.650
 3341POPC   C1B 4183  23.753  36.416   8.550
 3341POPC   C2B 4184  23.705  36.411   8.250
 3341POPC   C3B 4185  23.754  36.369   7.950
 3341POPC   C4B 4186  23.701  36.338   7.650
 3342POPC   NC3 4187  29.191  43.881   9.450
 3342POPC   PO4 4188  29.161  43.869   9.150
 3342POPC   GL1 4189  29.151  43.931   8.850
 3342POPC   GL2 4190  29.170  44.011   8.850
 3342POPC   C1A 4191  29.096  43.930   8.550
 3342POPC   D2A 4192  29.150  43.913   8.250
 3342POPC   C3A 4193  29.105  43.848   7.950
 3342POPC   C4A 4194  29.115  43.875   7.650
 3342POPC   C1B 4195  29.215  44.137   8.550
 3342POPC   C2B 4196  29.144  44.144   8.250
 3342POPC   C3B 4197  29.133  44.102   7.950
 3342POPC   C4B 4198  29.216  44.102   7.650
 3343POPC   NC3 4199  27.575   2.743   9.450
 3343POPC   PO4 4200  27.587   2.791   9.150
 3343POPC   GL1 4201  27.564   2.781   8.850
 3343POPC   GL2 4202  27.457   2.783   8.850
 3343POPC   C1A 4203  27.600   2.727   8.550
 3343POPC   D2A 4204  27.591   2.751   8.250
 3343POPC   C3A 4205  27.606   2.719   7.950
 3343POPC   C4A 4206  27.604   2.767   7.650
 3343POPC   C1B 4207  27.339   2.782   8.550
 3343POPC   C2B 4208  27.349   2.782   8.250
 3343POPC   C3B 4209  27.372   2.753   7.950
 3343POPC   C4B 4210  27.365   2.753   7.650
 3344POPC   NC3 4211   2.721  29.141   9.450
 3344POPC   PO4 4212   2.771  29.143   9.150
 3344POPC   GL1 4213   2.793  29.142   8.850
 3344POPC   GL2 4214   2.691  29.266   8.850
 3344POPC   C1A 4215   2.809  29.182   8.550
 3344POPC   D2A 4216   2.789  29.177   8.250
 3344POPC   C3A 4217   2.793  29.118   7.950
 3344POPC   C4A 4218   2.773  29.113   7.650
 3344POPC   C1B 4219   2.696  29.374   8.550
 3344POPC   C2B 4220   2.654  29.374   8.250
 3344POPC   C3B 4221   2.717  29.367   7.950
 3344POPC   C4B 4222   2.684  29.385   7.650
 3345POPC   NC3 4223  36.172  18.292   9.450
 3345POPC   PO4 4224  36.083  18.303   9.150
 3345POPC   GL1 4225  36.154  18.249   8.850
 3345POPC   GL2 4226  36.034  18.259   8.850
 3345POPC   C1A 4227  36.106  18.274   8.550
 3345POPC   D2A 4228  36.112  18.270   8.250
 3345POPC   C3A 4229  36.087  18.282   7.950
 3345POPC   C4A 4230  36.121  18.287   7.650
 3345POPC   C1B 4231  35.928  18.149   8.550
 3345POPC   C2B 4232  35.917  18.178   8.250
 3345POPC   C3B 4233  35.920  18.158   7.950
 3345POPC   C4B 4234  35.937  18.169   7.650
 3346POPC   NC3 4235   3.535  28.338   9.450
 3346POPC   PO4 4236   3.587  28.363   9.150
 3346POPC   GL1 4237   3.573  28.333   8.850
 3346POPC   GL2 4238   3.523  28.460   8.850
 3346POPC   C1A 4239   3.505  28.402   8.550
 3346POPC   D2A 4240   3.579  28.400   8.250
 3346POPC   C3A 4241   3.591  28.352   7.950
 3346POPC   C4A 4242   3.515  28.389   7.650
 3346POPC   C1B 4243   3.434  28.564   8.550
 3346POPC   C2B 4244   3.442  28.586   8.250
 3346POPC   C3B 4245   3.414  28.560   7.950
 3346POPC   C4B 4246   3.455  28.556   7.650
 3347POPC   NC3 4247  33.761  43.840   9.450
 3347POPC   PO4 4248  33.760  43.934   9.150
 3347POPC   GL1 4249  33.795  43.886   8.850
 3347POPC   GL2 4250  33.745  43.777   8.850
 3347POPC   C1A 4251  33.771  43.911   8.550
 3347POPC   D2A 4252  33.796  43.900   8.250
 3347POPC   C3A 4253  33.831  43.862   7.950
 3347POPC   C4A 4254  33.826  43.854   7.650
 3347POPC   C1B 4255  33.616  43.700   8.550
 3347POPC   C2B 4256  33.613  43.679   8.250
 3347POPC   C3B 4257  33.679  43.707   7.950
 3347POPC   C4B 4258  33.663  43.725   7.650
 3348POPC   NC3 4259   0.399   2.795   9.450
 3348POPC   PO4 4260   0.446   2.750   9.150
 3348POPC   GL1 4261   0.485   2.794   8.850
 3348POPC   GL2 4262   0.524   2.905   8.850
 3348POPC   C1A 4263   0.402   2.725   8.550
 3348POPC   D2A 4264   0.426   2.732   8.250
 3348POPC   C3A 4265   0.461   2.747   7.950
 3348POPC   C4A 4266   0.463   2.759   7.650
 3348POPC   C1B 4267   0.575   2.952   8.550
 3348POPC   C2B 4268   0.560   2.963   8.250
 3348POPC   C3B 4269   0.499   3.029   7.950
 3348POPC   C4B 4270   0.498   3.038   7.650
 3349POPC   NC3 4271   6.609  20.640   9.450
 3349POPC   PO4 4272   6.621  20.562   9.150
 3349POPC   GL1 4273   6.693  20.586   8.850
 3349POPC   GL2 4274   6.541  20.480   8.850
 3349POPC   C1A 4275   6.657  20.593   8.550
 3349POPC   D2A 4276   6.669  20.596   8.250
 3349POPC   C3A 4277   6.638  20.568   7.950
 3349POPC   C4A 4278   6.624  20.598   7.650
 3349POPC   C1B 4279   6.549  20.345   8.550
 3349POPC   C2B 4280   6.509  20.391   8.250
 3349POPC   C3B 4281   6.525  20.421   7.950
 3349POPC   C4B 4282   6.498  20.387   7.650
 3350POPC   NC3 4283  23.746  14.438   9.450
 3350POPC   PO4 4284  23.668  14.402   9.150
 3350POPC   GL1 4285  23.758  14.380   8.850
 3350POPC   GL2 4286  23.587  14.388   8.850
 3350POPC   C1A 4287  23.712  14.389   8.550
 3350POPC   D2A 4288  23.686  14.366   8.250
 3350POPC   C3A 4289  23.680  14.393   7.950
 3350POPC   C4A 4290  23.701  14.395   7.650
 3350POPC   C1B 4291  23.514  14.430   8.550
 3350POPC   C2B 4292  23.496  14.484   8.250
 3350POPC   C3B 4293  23.516  14.432   7.950
 3350POPC   C4B 4294  23.418  14.400   7.650
 3351POPC   NC3 4295  10.521   5.832   9.450
 3351POPC   PO4 4296  10.511   5.820   9.150
 3351POPC   GL1 4297  10.529   5.887   8.850
 3351POPC   GL2 4298  10.558   5.998   8.850
 3351POPC   C1A 4299  10.515   5.876   8.550
 3351POPC   D2A 4300  10.483   5.867   8.250
 3351POPC   C3A 4301  10.509   5.858   7.950
 3351POPC   C4A 4302  10.549   5.915   7.650
 3351POPC   C1B 4303  10.532   6.108   8.550
 3351POPC   C2B 4304  10.478   6.120   8.250
 3351POPC   C3B 4305  10.492   6.155   7.950
 3351POPC   C4B 4306  10.487   6.129   7.650
 3352POPC   NC3 4307  22.195  23.672   9.450
 3352POPC   PO4 4308  22.157  23.740   9.150
 3352POPC   GL1 4309  22.173  23.749   8.850
 3352POPC   GL2 4310  22.073  23.828   8.850
 3352POPC   C1A 4311  22.156  23.667   8.550
 3352POPC   D2A 4312  22.130  23.757   8.250
 3352POPC   C3A 4313  22.120  23.693   7.950
 3352POPC   C4A 4314  22.135  23.756   7.650
 3352POPC   C1B 4315  21.985  23.802   8.550
 3352POPC   C2B 4316  21.967  23.869   8.250
 3352POPC   C3B 4317  21.982  23.843   7.950
 3352POPC   C4B 4318  21.941  23.848   7.650
 3353POPC   NC3 4319  44.678  26.044   9.450
 3353POPC   PO4 4320  44.652  26.047   9.150
 3353POPC   GL1 4321  44.686  26.000   8.850
 3353POPC   GL2 4322  44.728  25.898   8.850
 3353POPC   C1A 4323  44.696  26.054   8.550
 3353POPC   D2A 4324  44.689  26.029   8.250
 3353POPC   C3A 4325  44.666  26.073   7.950
 3353POPC   C4A 4326  44.665  26.071   7.650
 3353POPC   C1B 4327  44.773  25.840   8.550
 3353POPC   C2B 4328  44.852  25.806   8.250
 3353POPC   C3B 4329  44.823  25.826   7.950
 3353POPC   C4B 4330  44.775  25.850   7.650
 3354POPC   NC3 4331  30.716   0.455   9.450
 3354POPC   PO4 4332  30.718   0.424   9.150
 3354POPC   GL1 4333  30.651   0.441   8.850
 3354POPC   GL2 4334  30.739   0.560   8.850
 3354POPC   C1A 4335  30.700   0.462   8.550
 3354POPC   D2A 4336  30.697   0.394   8.250
 3354POPC   C3A 4337  30.670   0.400   7.950
 3354POPC   C4A 4338  30.651   0.401   7.650
 3354POPC   C1B 4339  30.824   0.599   8.550
 3354POPC   C2B 4340  30.899   0.665   8.250
 3354POPC   C3B 4341  30.858   0.648   7.950
 3354POPC   C4B 4342  30.866   0.648   7.650
 3355POPC   NC3 4343  19.877  43.107   9.450
 3355POPC   PO4 4344  19.865  43.152   9.150
 3355POPC   GL1 4345  19.805  43.138   8.850
 3355POPC   GL2 4346  19.768  42.984   8.850
 3355POPC   C1A 4347  19.796  43.075   8.550
 3355POPC   D2A 4348  19.799  43.062   8.250
 3355POPC   C3A 4349  19.817  43.124   7.950
 3355POPC   C4A 4350  19.811  43.110   7.650
 3355POPC   C1B 4351  19.676  42.991   8.550
 3355POPC   C2B 4352  19.601  42.904   8.250
 3355POPC   C3B 4353  19.652  42.938   7.950
 3355POPC   C4B 4354  19.637  42.954   7.650
 3356POPC   NC3 4355   5.819  10.517   9.450
 3356POPC   PO4 4356   5.830  10.549   9.150
 3356POPC   GL1 4357   5.862  10.520   8.850
 3356POPC   GL2 4358   5.780  10.507   8.850
 3356POPC   C1A 4359   5.824  10.511   8.550
 3356POPC   D2A 4360   5.898  10.537   8.250
 3356POPC   C3A 4361   5.913  10.494   7.950
 3356POPC   C4A 4362   5.856  10.529   7.650
 3356POPC   C1B 4363   5.622  10.524   8.550
 3356POPC   C2B 4364   5.573  10.450   8.250
 3356POPC   C3B 4365   5.620  10.454   7.950
 3356POPC   C4B 4366   5.596  10.498   7.650
 3357POPC   NC3 4367  40.756  40.767   9.450
 3357POPC   PO4 4368  40.803  40.810   9.150
 3357POPC   GL1 4369  40.748  40.767   8.850
 3357POPC   GL2 4370  40.695  40.848   8.850
 3357POPC   C1A 4371  40.823  40.813   8.550
 3357POPC   D2A 4372  40.807  40.758   8.250
 3357POPC   C3A 4373  40.783  40.747   7.950
 3357POPC   C4A 4374  40.741  40.802   7.650
 3357POPC   C1B 4375  40.540  40.890   8.550
 3357POPC   C2B 4376  40.546  40.868   8.250
 3357POPC   C3B 4377  40.576  40.893   7.950
 3357POPC   C4B 4378  40.576  40.889   7.650
 3358POPC   NC3 4379   9.764  43.091   9.450
 3358POPC   PO4 4380   9.754  43.100   9.150
 3358POPC   GL1 4381   9.750  43.154   8.850
 3358POPC   GL2 4382   9.866  43.118   8.850
 3358POPC   C1A 4383   9.717  43.149   8.550
 3358POPC   D2A 4384   9.758  43.143   8.250
 3358POPC   C3A 4385   9.732  43.074   7.950
 3358POPC   C4A 4386   9.739  43.087   7.650
 3358POPC   C1B 4387  10.007  43.202   8.550
 3358POPC   C2B 4388  10.033  43.143   8.250
 3358POPC   C3B 4389   9.965  43.164   7.950
 3358POPC   C4B 4390   9.969  43.174   7.650
 3359POPC   NC3 4391  23.689   6.684   9.450
 3359POPC   PO4 4392  23.745   6.615   9.150
 3359POPC   GL1 4393  23.680   6.630   8.850
 3359POPC   GL2 4394  23.852   6.673   8.850
 3359POPC   C1A 4395  23.759   6.606   8.550
 3359POPC   D2A 4396  23.749   6.621   8.250
 3359POPC   C3A 4397  23.731   6.662   7.950
 3359POPC   C4A 4398  23.688   6.640   7.650
 3359POPC   C1B 4399  23.927   6.747   8.550
 3359POPC   C2B 4400  23.904   6.837   8.250
 3359POPC   C3B 4401  23.936   6.758   7.950
 3359POPC   C4B 4402  23.911   6.789   7.650
 3360POPC   NC3 4403  39.230   0.404   9.450
 3360POPC   PO4 4404  39.186   0.473   9.150
 3360POPC   GL1 4405  39.216   0.390   8.850
 3360POPC   GL2 4406  39.081   0.432   8.850
 3360POPC   C1A 4407  39.189   0.397   8.550
 3360POPC   D2A 4408  39.269   0.431   8.250
 3360POPC   C3A 4409  39.206   0.442   7.950
 3360POPC   C4A 4410  39.186   0.402   7.650
 3360POPC   C1B 4411  38.975   0.392   8.550
 3360POPC   C2B 4412  38.954   0.375   8.250
 3360POPC   C3B 4413  38.952   0.392   7.950
 3360POPC   C4B 4414  38.981   0.457   7.650
 3361POPC   NC3 4415  29.947  22.895   9.450
 3361POPC   PO4 4416  29.932  22.898   9.150
 3361POPC   GL1 4417  29.885  22.961   8.850
 3361POPC   GL2 4418  30.008  22.934   8.850
 3361POPC   C1A 4419  29.962  22.919   8.550
 3361POPC   D2A 4420  29.963  22.907   8.250
 3361POPC   C3A 4421  29.912  22.987   7.950
 3361POPC   C4A 4422  29.887  22.895   7.650
 3361POPC   C1B 4423  30.107  22.858   8.550
 3361POPC   C2B 4424  30.183  22.845   8.250
 3361POPC   C3B 4425  30.111  22.860   7.950
 3361POPC   C4B 4426  30.111  22.888   7.650
 3362POPC   NC3 4427  30.696  23.753   9.450
 3362POPC   PO4 4428  30.714  23.711   9.150
 3362POPC   GL1 4429  30.703  23.759   8.850
 3362POPC   GL2 4430  30.587  23.662   8.850
 3362POPC   C1A 4431  30.742  23.667   8.550
 3362POPC   D2A 4432  30.650  23.760   8.250
 3362POPC   C3A 4433  30.721  23.714   7.950
 3362POPC   C4A 4434  30.704  23.688   7.650
 3362POPC   C1B 4435  30.414  23.683   8.550
 3362POPC   C2B 4436  30.450  23.716   8.250
 3362POPC   C3B 4437  30.484  23.681   7.950
 3362POPC   C4B 4438  30.421  23.681   7.650
 3363POPC   NC3 4439  15.187  22.888   9.450
 3363POPC   PO4 4440  15.154  22.945   9.150
 3363POPC   GL1 4441  15.155  22.905   8.850
 3363POPC   GL2 4442  15.247  23.060   8.850
 3363POPC   C1A 4443  15.152  22.900   8.550
 3363POPC   D2A 4444  15.207  22.933   8.250
 3363POPC   C3A 4445  15.166  22.936   7.950
 3363POPC   C4A 4446  15.164  22.915   7.650
 3363POPC   C1B 4447  15.333  23.165   8.550
 3363POPC   C2B 4448  15.295  23.177   8.250
 3363POPC   C3B 4449  15.304  23.165   7.950
 3363POPC   C4B 4450  15.330  23.165   7.650
 3364POPC   NC3 4451  41.600  40.054   9.450
 3364POPC   PO4 4452  41.582  40.018   9.150
 3364POPC   GL1 4453  41.535  40.006   8.850
 3364POPC   GL2 4454  41.463  40.068   8.850
 3364POPC   C1A 4455  41.597  40.001   8.550
 3364POPC   D2A 4456  41.550  40.030   8.250
 3364POPC   C3A 4457  41.537  39.997   7.950
 3364POPC   C4A 4458  41.591  40.044   7.650
 3364POPC   C1B 4459  41.277  40.026   8.550
 3364POPC   C2B 4460  41.349  40.057   8.250
 3364POPC   C3B 4461  41.268  40.103   7.950
 3364POPC   C4B 4462  41.318  40.093   7.650
 3365POPC   NC3 4463  38.467  10.570   9.450
 3365POPC   PO4 4464  38.429  10.516   9.150
 3365POPC   GL1 4465  38.474  10.510   8.850
 3365POPC   GL2 4466  38.345  10.518   8.850
 3365POPC   C1A 4467  38.427  10.570   8.550
 3365POPC   D2A 4468  38.421  10.554   8.250
 3365POPC   C3A 4469  38.423  10.512   7.950
 3365POPC   C4A 4470  38.407  10.569   7.650
 3365POPC   C1B 4471  38.186  10.526   8.550
 3365POPC   C2B 4472  38.162  10.482   8.250
 3365POPC   C3B 4473  38.223  10.512   7.950
 3365POPC   C4B 4474  38.222  10.486   7.650
 3366POPC   NC3 4475  34.619  31.440   9.450
 3366POPC   PO4 4476  34.586  31.425   9.150
 3366POPC   GL1 4477  34.602  31.470   8.850
 3366POPC   GL2 4478  34.732  31.482   8.850
 3366POPC   C1A 4479  34.621  31.459   8.550
 3366POPC   D2A 4480  34.603  31.508   8.250
 3366POPC   C3A 4481  34.540  31.469   7.950
 3366POPC   C4A 4482  34.585  31.463   7.650
 3366POPC   C1B 4483  34.805  31.456   8.550
 3366POPC   C2B 4484  34.866  31.545   8.250
 3366POPC   C3B 4485  34.799  31.545   7.950
 3366POPC   C4B 4486  34.874  31.543   7.650
 3367POPC   NC3 4487  12.832   3.508   9.450
 3367POPC   PO4 4488  12.803   3.527   9.150
 3367POPC   GL1 4489  12.854   3.506   8.850
 3367POPC   GL2 4490  12.719   3.531   8.850
 3367POPC   C1A 4491  12.899   3.534   8.550
 3367POPC   D2A 4492  12.873   3.550   8.250
 3367POPC   C3A 4493  12.877   3.532   7.950
 3367POPC   C4A 4494  12.868   3.582   7.650
 3367POPC   C1B 4495  12.615   3.581   8.550
 3367POPC   C2B 4496  12.578   3.589   8.250
 3367POPC   C3B 4497  12.620   3.614   7.950
 3367POPC   C4B 4498  12.584   3.600   7.650
 3368POPC   NC3 4499  15.194  27.640   9.450
 3368POPC   PO4 4500  15.157  27.621   9.150
 3368POPC   GL1 4501  15.229  27.638   8.850
 3368POPC   GL2 4502  15.298  27.632   8.850
 3368POPC   C1A 4503  15.168  27.561   8.550
 3368POPC   D2A 4504  15.179  27.606   8.250
 3368POPC   C3A 4505  15.212  27.551   7.950
 3368POPC   C4A 4506  15.137  27.572   7.650
 3368POPC   C1B 4507  15.417  27.637   8.550
 3368POPC   C2B 4508  15.444  27.606   8.250
 3368POPC   C3B 4509  15.397  27.577   7.950
 3368POPC   C4B 4510  15.462  27.576   7.650
 3369POPC   NC3 4511   9.791   0.469   9.450
 3369POPC   PO4 4512   9.741   0.413   9.150
 3369POPC   GL1 4513   9.707   0.404   8.850
 3369POPC   GL2 4514   9.792   0.570   8.850
 3369POPC   C1A 4515   9.782   0.419   8.550
 3369POPC   D2A 4516   9.725   0.434   8.250
 3369POPC   C3A 4517   9.745   0.485   7.950
 3369POPC   C4A 4518   9.776   0.421   7.650
 3369POPC   C1B 4519   9.916   0.610   8.550
 3369POPC   C2B 4520   9.970   0.575   8.250
 3369POPC   C3B 4521   9.954   0.649   7.950
 3369POPC   C4B 4522   9.932   0.647   7.650
 3370POPC   NC3 4523  43.868  39.221   9.450
 3370POPC   PO4 4524  43.893  39.264   9.150
 3370POPC   GL1 4525  43.885  39.273   8.850
 3370POPC   GL2 4526  43.966  39.200   8.850
 3370POPC   C1A 4527  43.874  39.202   8.550
 3370POPC   D2A 4528  43.919  39.211   8.250
 3370POPC   C3A 4529  43.878  39.197   7.950
 3370POPC   C4A 4530  43.911  39.257   7.650
 3370POPC   C1B 4531  44.148  39.259   8.550
 3370POPC   C2B 4532  44.130  39.249   8.250
 3370POPC   C3B 4533  44.148  39.262   7.950
 3370POPC   C4B 4534  44.185  39.243   7.650
 3371POPC   NC3 4535   9.788  27.556   9.450
 3371POPC   PO4 4536   9.711  27.630   9.150
 3371POPC   GL1 4537   9.712  27.639   8.850
 3371POPC   GL2 4538   9.863  27.697   8.850
 3371POPC   C1A 4539   9.746  27.573   8.550
 3371POPC   D2A 4540   9.766  27.596   8.250
 3371POPC   C3A 4541   9.766  27.616   7.950
 3371POPC   C4A 4542   9.797  27.581   7.650
 3371POPC   C1B 4543   9.957  27.762   8.550
 3371POPC   C2B 4544   9.930  27.706   8.250
 3371POPC   C3B 4545   9.902  27.701   7.950
 3371POPC   C4B 4546   9.898  27.728   7.650
 3372POPC   NC3 4547   7.381  28.410   9.450
 3372POPC   PO4 4548   7.429  28.387   9.150
 3372POPC   GL1 4549   7.469  28.360   8.850
 3372POPC   GL2 4550   7.408  28.265   8.850
 3372POPC   C1A 4551   7.443  28.332   8.550
 3372POPC   D2A 4552   7.425  28.322   8.250
 3372POPC   C3A 4553   7.422  28.354   7.950
 3372POPC   C4A 4554   7.456  28.409   7.650
 3372POPC   C1B 4555   7.333  28.107   8.550
 3372POPC   C2B 4556   7.335  28.105   8.250
 3372POPC   C3B 4557   7.322  28.177   7.950
 3372POPC   C4B 4558   7.305  28.185   7.650
 3373POPC   NC3 4559  36.902   5.056   9.450
 3373POPC   PO4 4560  36.936   5.077   9.150
 3373POPC   GL1 4561  36.890   5.044   8.850
 3373POPC   GL2 4562  37.005   5.019   8.850
 3373POPC   C1A 4563  36.939   5.119   8.550
 3373POPC   D2A 4564  36.894   5.050   8.250
 3373POPC   C3A 4565  36.915   5.074   7.950
 3373POPC   C4A 4566  36.899   5.129   7.650
 3373POPC   C1B 4567  37.114   5.013   8.550
 3373POPC   C2B 4568  37.116   4.950   8.250
 3373POPC   C3B 4569  37.100   5.002   7.950
 3373POPC   C4B 4570  37.120   5.019   7.650
 3374POPC   NC3 4571  39.240  18.294   9.450
 3374POPC   PO4 4572  39.227  18.316   9.150
 3374POPC   GL1 4573  39.242  18.267   8.850
 3374POPC   GL2 4574  39.185  18.440   8.850
 3374POPC   C1A 4575  39.210  18.256   8.550
 3374POPC   D2A 4576  39.234  18.265   8.250
 3374POPC   C3A 4577  39.233  18.246   7.950
 3374POPC   C4A 4578  39.184  18.312   7.650
 3374POPC   C1B 4579  39.267  18.534   8.550
 3374POPC   C2B 4580  39.230  18.489   8.250
 3374POPC   C3B 4581  39.213  18.505   7.950
 3374POPC   C4B 4582  39.188  18.578   7.650
 3375POPC   NC3 4583  19.811   1.954   9.450
 3375POPC   PO4 4584  19.815   2.034   9.150
 3375POPC   GL1 4585  19.826   2.013   8.850
 3375POPC   GL2 4586  19.816   2.156   8.850
 3375POPC   C1A 4587  19.804   1.993   8.550
 3375POPC   D2A 4588  19.854   2.039   8.250
 3375POPC   C3A 4589  19.840   1.950   7.950
 3375POPC   C4A 4590  19.788   1.969   7.650
 3375POPC   C1B 4591  19.839   2.262   8.550
 3375POPC   C2B 4592  19.815   2.286   8.250
 3375POPC   C3B 4593  19.778   2.217   7.950
 3375POPC   C4B 4594  19.768   2.283   7.650
 3376POPC   NC3 4595  36.082  12.893   9.450
 3376POPC   PO4 4596  36.100  12.815   9.150
 3376POPC   GL1 4597  36.123  12.814   8.850
 3376POPC   GL2 4598  36.096  12.738   8.850
 3376POPC   C1A 4599  36.092  12.885   8.550
 3376POPC   D2A 4600  36.114  12.865   8.250
 3376POPC   C3A 4601  36.099  12.881   7.950
 3376POPC   C4A 4602  36.092  12.849   7.650
 3376POPC   C1B 4603  36.152  12.563   8.550
 3376POPC   C2B 4604  36.108  12.646   8.250
 3376POPC   C3B 4605  36.072  12.580   7.950
 3376POPC   C4B 4606  36.074  12.603   7.650
 3377POPC   NC3 4607   9.773   4.308   9.450
 3377POPC   PO4 4608   9.704   4.320   9.150
 3377POPC   GL1 4609   9.778   4.314   8.850
 3377POPC   GL2 4610   9.799   4.223   8.850
 3377POPC   C1A 4611   9.793   4.275   8.550
 3377POPC   D2A 4612   9.716   4.307   8.250
 3377POPC   C3A 4613   9.765   4.324   7.950
 3377POPC   C4A 4614   9.774   4.358   7.650
 3377POPC   C1B 4615   9.923   4.081   8.550
 3377POPC   C2B 4616   9.842   4.091   8.250
 3377POPC   C3B 4617   9.867   4.152   7.950
 3377POPC   C4B 4618   9.919   4.092   7.650
 3378POPC   NC3 4619  26.768  29.133   9.450
 3378POPC   PO4 4620  26.770  29.182   9.150
 3378POPC   GL1 4621  26.846  29.175   8.850
 3378POPC   GL2 4622  26.884  29.215   8.850
 3378POPC   C1A 4623  26.776  29.118   8.550
 3378POPC   D2A 4624  26.824  29.147   8.250
 3378POPC   C3A 4625  26.803  29.173   7.950
 3378POPC   C4A 4626  26.784  29.169   7.650
 3378POPC   C1B 4627  26.961  29.297   8.550
 3378POPC   C2B 4628  27.010  29.314   8.250
 3378POPC   C3B 4629  27.014  29.314   7.950
 3378POPC   C4B 4630  26.935  29.286   7.650
 3379POPC   NC3 4631  26.062  43.874   9.450
 3379POPC   PO4 4632  26.026  43.918   9.150
 3379POPC   GL1 4633  26.073  43.873   8.850
 3379POPC   GL2 4634  25.968  43.835   8.850
 3379POPC   C1A 4635  26.065  43.878   8.550
 3379POPC   D2A 4636  26.064  43.922   8.250
 3379POPC   C3A 4637  26.057  43.902   7.950
 3379POPC   C4A 4638  26.044  43.889   7.650
 3379POPC   C1B 4639  25.785  43.781   8.550
 3379POPC   C2B 4640  25.794  43.798   8.250
 3379POPC   C3B 4641  25.873  43.727   7.950
 3379POPC   C4B 4642  25.776  43.737   7.650
 3380POPC   NC3 4643   6.650  24.487   9.450
 3380POPC   PO4 4644   6.640  24.473   9.150
 3380POPC   GL1 4645   6.603  24.471   8.850
 3380POPC   GL2 4646   6.765  24.537   8.850
 3380POPC   C1A 4647   6.633  24.521   8.550
 3380POPC   D2A 4648   6.650  24.444   8.250
 3380POPC   C3A 4649   6.678  24.526   7.950
 3380POPC   C4A 4650   6.672  24.508   7.650
 3380POPC   C1B 4651   6.847  24.529   8.550
 3380POPC   C2B 4652   6.888  24.479   8.250
 3380POPC   C3B 4653   6.929  24.480   7.950
 3380POPC   C4B 4654   6.855  24.523   7.650
 3381POPC   NC3 4655  22.922  33.790   9.450
 3381POPC   PO4 4656  22.962  33.836   9.150
 3381POPC   GL1 4657  22.941  33.771   8.850
 3381POPC   GL2 4658  22.857  33.674   8.850
 3381POPC   C1A 4659  22.966  33.752   8.550
 3381POPC   D2A 4660  22.926  33.791   8.250
 3381POPC   C3A 4661  22.915  33.791   7.950
 3381POPC   C4A 4662  22.940  33.782   7.650
 3381POPC   C1B 4663  22.702  33.684   8.550
 3381POPC   C2B 4664  22.787  33.601   8.250
 3381POPC   C3B 4665  22.767  33.684   7.950
 3381POPC   C4B 4666  22.755  33.620   7.650
 3382POPC   NC3 4667  36.138  35.310   9.450
 3382POPC   PO4 4668  36.114  35.372   9.150
 3382POPC   GL1 4669  36.171  35.390   8.850
 3382POPC   GL2 4670  36.189  35.480   8.850
 3382POPC   C1A 4671  36.116  35.328   8.550
 3382POPC   D2A 4672  36.106  35.348   8.250
 3382POPC   C3A 4673  36.107  35.379   7.950
 3382POPC   C4A 4674  36.153  35.322   7.650
 3382POPC   C1B 4675  36.264  35.521   8.550
 3382POPC   C2B 4676  36.239  35.521   8.250
 3382POPC   C3B 4677  36.261  35.606   7.950
 3382POPC   C4B 4678  36.288  35.579   7.650
 3383POPC   NC3 4679   2.023  40.820   9.450
 3383POPC   PO4 4680   2.003  40.792   9.150
 3383POPC   GL1 4681   1.965  40.774   8.850
 3383POPC   GL2 4682   2.095  40.817   8.850
 3383POPC   C1A 4683   1.973  40.798   8.550
 3383POPC   D2A 4684   2.002  40.826   8.250
 3383POPC   C3A 4685   1.945  40.755   7.950
 3383POPC   C4A 4686   1.951  40.801   7.650
 3383POPC   C1B 4687   2.261  40.727   8.550
 3383POPC   C2B 4688   2.228  40.715   8.250
 3383POPC   C3B 4689   2.198  40.765   7.950
 3383POPC   C4B 4690   2.241  40.735   7.650
 3384POPC   NC3 4691   0.392  32.255   9.450
 3384POPC   PO4 4692   0.457  32.218   9.150
 3384POPC   GL1 4693   0.447  32.238   8.850
 3384POPC   GL2 4694   0.543  32.343   8.850
 3384POPC   C1A 4695   0.454  32.205   8.550
 3384POPC   D2A 4696   0.481  32.284   8.250
 3384POPC   C3A 4697   0.412  32.274   7.950
 3384POPC   C4A 4698   0.473  32.227   7.650
 3384POPC   C1B 4699   0.614  32.482   8.550
 3384POPC   C2B 4700   0.599  32.459   8.250
 3384POPC   C3B 4701   0.551  32.476   7.950
 3384POPC   C4B 4702   0.616  32.494   7.650
 3385POPC   NC3 4703  32.228  39.994   9.450
 3385POPC   PO4 4704  32.243  39.990   9.150
 3385POPC   GL1 4705  32.279  39.981   8.850
 3385POPC   GL2 4706  32.329  40.107   8.850
 3385POPC   C1A 4707  32.257  39.968   8.550
 3385POPC   D2A 4708  32.216  40.009   8.250
 3385POPC   C3A 4709  32.226  39.997   7.950
 3385POPC   C4A 4710  32.229  40.053   7.650
 3385POPC   C1B 4711  32.430  40.167   8.550
 3385POPC   C2B 4712  32.474  40.110   8.250
 3385POPC   C3B 4713  32.437  40.136   7.950
 3385POPC   C4B 4714  32.413  40.124   7.650
 3386POPC   NC3 4715  28.419  43.067   9.450
 3386POPC   PO4 4716  28.361  43.065   9.150
 3386POPC   GL1 4717  28.353  43.112   8.850
 3386POPC   GL2 4718  28.531  43.029   8.850
 3386POPC   C1A 4719  28.397  43.082   8.550
 3386POPC   D2A 4720  28.336  43.123   8.250
 3386POPC   C3A 4721  28.342  43.129   7.950
 3386POPC   C4A 4722  28.373  43.120   7.650
 3386POPC   C1B 4723  28.611  42.993   8.550
 3386POPC   C2B 4724  28.598  43.056   8.250
 3386POPC   C3B 4725  28.641  42.982   7.950
 3386POPC   C4B 4726  28.632  43.014   7.650
 3387POPC   NC3 4727  17.536  35.362   9.450
 3387POPC   PO4 4728  17.537  35.369   9.150
 3387POPC   GL1 4729  17.508  35.370   8.850
 3387POPC   GL2 4730  17.542  35.269   8.850
 3387POPC   C1A 4731  17.474  35.317   8.550
 3387POPC   D2A 4732  17.548  35.384   8.250
 3387POPC   C3A 4733  17.535  35.388   7.950
 3387POPC   C4A 4734  17.505  35.311   7.650
 3387POPC   C1B 4735  17.621  35.184   8.550
 3387POPC   C2B 4736  17.591  35.122   8.250
 3387POPC   C3B 4737  17.676  35.110   7.950
 3387POPC   C4B 4738  17.666  35.167   7.650
 3388POPC   NC3 4739  26.008  30.724   9.450
 3388POPC   PO4 4740  26.017  30.648   9.150
 3388POPC   GL1 4741  26.074  30.744   8.850
 3388POPC   GL2 4742  25.989  30.820   8.850
 3388POPC   C1A 4743  26.037  30.734   8.550
 3388POPC   D2A 4744  26.032  30.665   8.250
 3388POPC   C3A 4745  26.043  30.729   7.950
 3388POPC   C4A 4746  26.062  30.733   7.650
 3388POPC   C1B 4747  25.901  30.924   8.550
 3388POPC   C2B 4748  25.962  30.928   8.250
 3388POPC   C3B 4749  25.899  30.974   7.950
 3388POPC   C4B 4750  25.968  30.953   7.650
 3389POPC   NC3 4751   9.771  23.685   9.450
 3389POPC   PO4 4752   9.714  23.707   9.150
 3389POPC   GL1 4753   9.766  23.680   8.850
 3389POPC   GL2 4754   9.614  23.663   8.850
 3389POPC   C1A 4755   9.729  23.752   8.550
 3389POPC   D2A 4756   9.702  23.670   8.250
 3389POPC   C3A 4757   9.716  23.757   7.950
 3389POPC   C4A 4758   9.700  23.668   7.650
 3389POPC   C1B 4759   9.542  23.647   8.550
 3389POPC   C2B 4760   9.466  23.655   8.250
 3389POPC   C3B 4761   9.509  23.696   7.950
 3389POPC   C4B 4762   9.531  23.639   7.650
 3390POPC   NC3 4763  35.395  40.754   9.450
 3390POPC   PO4 4764  35.381  40.802   9.150
 3390POPC   GL1 4765  35.369  40.781   8.850
 3390POPC   GL2 4766  35.221  40.744   8.850
 3390POPC   C1A 4767  35.394  40.781   8.550
 3390POPC   D2A 4768  35.379  40.742   8.250
 3390POPC   C3A 4769  35.318  40.756   7.950
 3390POPC   C4A 4770  35.367  40.748   7.650
 3390POPC   C1B 4771  35.063  40.817   8.550
 3390POPC   C2B 4772  35.127  40.813   8.250
 3390POPC   C3B 4773  35.108  40.780   7.950
 3390POPC   C4B 4774  35.098  40.782   7.650
 3391POPC   NC3 4775  40.009  41.526   9.450
 3391POPC   PO4 4776  40.021  41.528   9.150
 3391POPC   GL1 4777  39.983  41.556   8.850
 3391POPC   GL2 4778  39.995  41.675   8.850
 3391POPC   C1A 4779  40.051  41.583   8.550
 3391POPC   D2A 4780  39.965  41.574   8.250
 3391POPC   C3A 4781  40.044  41.571   7.950
 3391POPC   C4A 4782  40.014  41.575   7.650
 3391POPC   C1B 4783  39.959  41.761   8.550
 3391POPC   C2B 4784  40.036  41.786   8.250
 3391POPC   C3B 4785  39.960  41.797   7.950
 3391POPC   C4B 4786  40.001  41.792   7.650
 3392POPC   NC3 4787   8.952  22.933   9.450
 3392POPC   PO4 4788   9.021  22.916   9.150
 3392POPC   GL1 4789   8.972  22.945   8.850
 3392POPC   GL2 4790   9.026  23.019   8.850
 3392POPC   C1A 4791   8.927  22.924   8.550
 3392POPC   D2A 4792   9.006  22.980   8.250
 3392POPC   C3A 4793   8.960  22.911   7.950
 3392POPC   C4A 4794   8.942  22.987   7.650
 3392POPC   C1B 4795   8.965  23.218   8.550
 3392POPC   C2B 4796   8.958  23.193   8.250
 3392POPC   C3B 4797   9.038  23.221   7.950
 3392POPC   C4B 4798   8.960  23.159   7.650
 3393POPC   NC3 4799   9.761  18.286   9.450
 3393POPC   PO4 4800   9.712  18.265   9.150
 3393POPC   GL1 4801   9.769  18.241   8.850
 3393POPC   GL2 4802   9.749  18.387   8.850
 3393POPC   C1A 4803   9.724  18.305   8.550
 3393POPC   D2A 4804   9.710  18.309   8.250
 3393POPC   C3A 4805   9.774  18.316   7.950
 3393POPC   C4A 4806   9.757  18.302   7.650
 3393POPC   C1B 4807   9.769  18.578   8.550
 3393POPC   C2B 4808   9.735  18.502   8.250
 3393POPC   C3B 4809   9.714  18.488   7.950
 3393POPC   C4B 4810   9.754  18.490   7.650
 3394POPC   NC3 4811   2.745  32.298   9.450
 3394POPC   PO4 4812   2.792  32.216   9.150
 3394POPC   GL1 4813   2.772  32.216   8.850
 3394POPC   GL2 4814   2.881  32.339   8.850
 3394POPC   C1A 4815   2.752  32.297   8.550
 3394POPC   D2A 4816   2.797  32.229   8.250
 3394POPC   C3A 4817   2.726  32.261   7.950
 3394POPC   C4A 4818   2.777  32.210   7.650
 3394POPC   C1B 4819   2.990  32.399   8.550
 3394POPC   C2B 4820   2.953  32.420   8.250
 3394POPC   C3B 4821   2.960  32.393   7.950
 3394POPC   C4B 4822   2.975  32.447   7.650
 3395POPC   NC3 4823   5.858  36.921   9.450
 3395POPC   PO4 4824   5.821  36.913   9.150
 3395POPC   GL1 4825   5.888  36.897   8.850
 3395POPC   GL2 4826   6.007  36.935   8.850
 3395POPC   C1A 4827   5.877  36.920   8.550
 3395POPC   D2A 4828   5.912  36.909   8.250
 3395POPC   C3A 4829   5.891  36.917   7.950
 3395POPC   C4A 4830   5.904  36.938   7.650
 3395POPC   C1B 4831   6.126  36.958   8.550
 3395POPC   C2B 4832   6.128  36.890   8.250
 3395POPC   C3B 4833   6.116  36.872   7.950
 3395POPC   C4B 4834   6.110  36.872   7.650
 3396POPC   NC3 4835  36.943  16.745   9.450
 3396POPC   PO4 4836  36.925  16.707   9.150
 3396POPC   GL1 4837  36.953  16.767   8.850
 3396POPC   GL2 4838  36.972  16.817   8.850
 3396POPC   C1A 4839  36.858  16.732   8.550
 3396POPC   D2A 4840  36.892  16.716   8.250
 3396POPC   C3A 4841  36.906  16.763   7.950
 3396POPC   C4A 4842  36.928  16.685   7.650
 3396POPC   C1B 4843  37.118  16.821   8.550
 3396POPC   C2B 4844  37.138  16.880   8.250
 3396POPC   C3B 4845  37.078  16.894   7.950
 3396POPC   C4B 4846  37.106  16.905   7.650
 3397POPC   NC3 4847  22.958  14.378   9.450
 3397POPC   PO4 4848  22.919  14.390   9.150
 3397POPC   GL1 4849  22.980  14.369   8.850
 3397POPC   GL2 4850  23.034  14.454   8.850
 3397POPC   C1A 4851  22.956  14.435   8.550
 3397POPC   D2A 4852  22.943  14.436   8.250
 3397POPC   C3A 4853  22.901  14.408   7.950
 3397POPC   C4A 4854  22.968  14.413   7.650
 3397POPC   C1B 4855  23.091  14.537   8.550
 3397POPC   C2B 4856  23.084  14.563   8.250
 3397POPC   C3B 4857  23.125  14.529   7.950
 3397POPC   C4B 4858  23.127  14.532   7.650
 3398POPC   NC3 4859   9.744  29.875   9.450
 3398POPC   PO4 4860   9.759  29.954   9.150
 3398POPC   GL1 4861   9.749  29.912   8.850
 3398POPC   GL2 4862   9.779  30.017   8.850
 3398POPC   C1A 4863   9.785  29.918   8.550
 3398POPC   D2A 4864   9.714  29.875   8.250
 3398POPC   C3A 4865   9.773  29.912   7.950
 3398POPC   C4A 4866   9.713  29.919   7.650
 3398POPC   C1B 4867   9.739  30.206   8.550
 3398POPC   C2B 4868   9.760  30.176   8.250
 3398POPC   C3B 4869   9.792  30.198   7.950
 3398POPC   C4B 4870   9.793  30.163   7.650
 3399POPC   NC3 4871  39.228   6.646   9.450
 3399POPC   PO4 4872  39.272   6.649   9.150
 3399POPC   GL1 4873  39.248   6.614   8.850
 3399POPC   GL2 4874  39.337   6.628   8.850
 3399POPC   C1A 4875  39.185   6.599   8.550
 3399POPC   D2A 4876  39.248   6.692   8.250
 3399POPC   C3A 4877  39.242   6.649   7.950
 3399POPC   C4A 4878  39.252   6.662   7.650
 3399POPC   C1B 4879  39.420   6.563   8.550
 3399POPC   C2B 4880  39.466   6.527   8.250
 3399POPC   C3B 4881  39.427   6.516   7.950
 3399POPC   C4B 4882  39.399   6.546   7.650
 3400POPC   NC3 4883  31.428  14.376   9.450
 3400POPC   PO4 4884  31.502  14.370   9.150
 3400POPC   GL1 4885  31.449  14.419   8.850
 3400POPC   GL2 4886  31.599  14.381   8.850
 3400POPC   C1A 4887  31.458  14.376   8.550
 3400POPC   D2A 4888  31.516  14.453   8.250
 3400POPC   C3A 4889  31.503  14.359   7.950
 3400POPC   C4A 4890  31.514  14.364   7.650
 3400POPC   C1B 4891  31.639  14.239   8.550
 3400POPC   C2B 4892  31.666  14.296   8.250
 3400POPC   C3B 4893  31.692  14.262   7.950
 3400POPC   C4B 4894  31.723  14.253   7.650
 3401POPC   NC3 4895   3.560  22.164   9.450
 3401POPC   PO4 4896   3.496  22.147   9.150
 3401POPC   GL1 4897   3.554  22.201   8.850
 3401POPC   GL2 4898   3.456  22.307   8.850
 3401POPC   C1A 4899   3.567  22.119   8.550
 3401POPC   D2A 4900   3.494  22.130   8.250
 3401POPC   C3A 4901   3.510  22.186   7.950
 3401POPC   C4A 4902   3.581  22.146   7.650
 3401POPC   C1B 4903   3.421  22.416   8.550
 3401POPC   C2B 4904   3.466  22.346   8.250
 3401POPC   C3B 4905   3.435  22.426   7.950
 3401POPC   C4B 4906   3.494  22.355   7.650
 3402POPC   NC3 4907  19.818  37.684   9.450
 3402POPC   PO4 4908  19.836  37.663   9.150
 3402POPC   GL1 4909  19.849  37.710   8.850
 3402POPC   GL2 4910  19.939  37.623   8.850
 3402POPC   C1A 4911  19.802  37.727   8.550
 3402POPC   D2A 4912  19.810  37.698   8.250
 3402POPC   C3A 4913  19.843  37.688   7.950
 3402POPC   C4A 4914  19.821  37.675   7.650
 3402POPC   C1B 4915  19.985  37.534   8.550
 3402POPC   C2B 4916  20.062  37.534   8.250
 3402POPC   C3B 4917  19.985  37.525   7.950
 3402POPC   C4B 4918  19.977  37.470   7.650
 3403POPC   NC3 4919  41.577  34.559   9.450
 3403POPC   PO4 4920  41.604  34.534   9.150
 3403POPC   GL1 4921  41.572  34.540   8.850
 3403POPC   GL2 4922  41.638  34.469   8.850
 3403POPC   C1A 4923  41.518  34.618   8.550
 3403POPC   D2A 4924  41.535  34.576   8.250
 3403POPC   C3A 4925  41.511  34.608   7.950
 3403POPC   C4A 4926  41.583  34.545   7.650
 3403POPC   C1B 4927  41.741  34.425   8.550
 3403POPC   C2B 4928  41.711  34.391   8.250
 3403POPC   C3B 4929  41.764  34.394   7.950
 3403POPC   C4B 4930  41.699  34.394   7.650
 3404POPC   NC3 4931  31.429  11.314   9.450
 3404POPC   PO4 4932  31.471  11.310   9.150
 3404POPC   GL1 4933  31.428  11.297   8.850
 3404POPC   GL2 4934  31.385  11.248   8.850
 3404POPC   C1A 4935  31.436  11.331   8.550
 3404POPC   D2A 4936  31.449  11.335   8.250
 3404POPC   C3A 4937  31.476  11.261   7.950
 3404POPC   C4A 4938  31.430  11.259   7.650
 3404POPC   C1B 4939  31.264  11.230   8.550
 3404POPC   C2B 4940  31.256  11.304   8.250
 3404POPC   C3B 4941  31.223  11.278   7.950
 3404POPC   C4B 4942  31.237  11.277   7.650
 3405POPC   NC3 4943  34.611  13.625   9.450
 3405POPC   PO4 4944  34.546  13.615   9.150
 3405POPC   GL1 4945  34.579  13.646   8.850
 3405POPC   GL2 4946  34.688  13.640   8.850
 3405POPC   C1A 4947  34.533  13.671   8.550
 3405POPC   D2A 4948  34.540  13.673   8.250
 3405POPC   C3A 4949  34.597  13.598   7.950
 3405POPC   C4A 4950  34.600  13.635   7.650
 3405POPC   C1B 4951  34.844  13.632   8.550
 3405POPC   C2B 4952  34.849  13.555   8.250
 3405POPC   C3B 4953  34.798  13.620   7.950
 3405POPC   C4B 4954  34.793  13.586   7.650
 3406POPC   NC3 4955  24.457   6.672   9.450
 3406POPC   PO4 4956  24.461   6.613   9.150
 3406POPC   GL1 4957  24.537   6.676   8.850
 3406POPC   GL2 4958  24.451   6.778   8.850
 3406POPC   C1A 4959  24.518   6.603   8.550
 3406POPC   D2A 4960  24.486   6.611   8.250
 3406POPC   C3A 4961  24.491   6.652   7.950
 3406POPC   C4A 4962  24.505   6.688   7.650
 3406POPC   C1B 4963  24.416   6.923   8.550
 3406POPC   C2B 4964  24.408   6.909   8.250
 3406POPC   C3B 4965  24.366   6.893   7.950
 3406POPC   C4B 4966  24.425   6.917   7.650
 3407POPC   NC3 4967   4.362  30.703   9.450
 3407POPC   PO4 4968   4.307  30.740   9.150
 3407POPC   GL1 4969   4.339  30.718   8.850
 3407POPC   GL2 4970   4.327  30.781   8.850
 3407POPC   C1A 4971   4.354  30.734   8.550
 3407POPC   D2A 4972   4.299  30.711   8.250
 3407POPC   C3A 4973   4.276  30.714   7.950
 3407POPC   C4A 4974   4.360  30.660   7.650
 3407POPC   C1B 4975   4.392  30.963   8.550
 3407POPC   C2B 4976   4.314  30.917   8.250
 3407POPC   C3B 4977   4.364  30.972   7.950
 3407POPC   C4B 4978   4.381  30.952   7.650
 3408POPC   NC3 4979  44.648  35.397   9.450
 3408POPC   PO4 4980  44.614  35.369   9.150
 3408POPC   GL1 4981  44.697  35.331   8.850
 3408POPC   GL2 4982  44.653  35.481   8.850
 3408POPC   C1A 4983  44.621  35.375   8.550
 3408POPC   D2A 4984  44.707  35.316   8.250
 3408POPC   C3A 4985  44.630  35.378   7.950
 3408POPC   C4A 4986  44.708  35.390   7.650
 3408POPC   C1B 4987  44.642  35.573   8.550
 3408POPC   C2B 4988  44.626  35.548   8.250
 3408POPC   C3B 4989  44.580  35.553   7.950
 3408POPC   C4B 4990  44.642  35.550   7.650
 3409POPC   NC3 4991  35.353   1.206   9.450
 3409POPC   PO4 4992  35.383   1.222   9.150
 3409POPC   GL1 4993  35.391   1.243   8.850
 3409POPC   GL2 4994  35.473   1.126   8.850
 3409POPC   C1A 4995  35.365   1.187   8.550
 3409POPC   D2A 4996  35.327   1.253   8.250
 3409POPC   C3A 4997  35.343   1.228   7.950
 3409POPC   C4A 4998  35.322   1.222   7.650
 3409POPC   C1B 4999  35.609   1.164   8.550
 3409POPC   C2B 5000  35.602   1.152   8.250
 3409POPC   C3B 5001  35.621   1.108   7.950
 3409POPC   C4B 5002  35.633   1.124   7.650
 3410POPC   NC3 5003  31.423  40.798   9.450
 3410POPC   PO4 5004  31.466  40.744   9.150
 3410POPC   GL1 5005  31.498  40.767   8.850
 3410POPC   GL2 5006  31.378  40.876   8.850
 3410POPC   C1A 5007  31.478  40.805   8.550
 3410POPC   D2A 5008  31.487  40.769   8.250
 3410POPC   C3A 5009  31.464  40.734   7.950
 3410POPC   C4A 5010  31.468  40.747   7.650
 3410POPC   C1B 5011  31.329  40.993   8.550
 3410POPC   C2B 5012  31.272  40.967   8.250
 3410POPC   C3B 5013  31.320  40.931   7.950
 3410POPC   C4B 5014  31.272  40.899   7.650
 3411POPC   NC3 5015  39.247  33.005   9.450
 3411POPC   PO4 5016  39.190  33.074   9.150
 3411POPC   GL1 5017  39.239  33.031   8.850
 3411POPC   GL2 5018  39.379  33.043   8.850
 3411POPC   C1A 5019  39.250  32.977   8.550
 3411POPC   D2A 5020  39.187  32.978   8.250
 3411POPC   C3A 5021  39.269  33.070   7.950
 3411POPC   C4A 5022  39.223  33.060   7.650
 3411POPC   C1B 5023  39.411  33.139   8.550
 3411POPC   C2B 5024  39.481  33.125   8.250
 3411POPC   C3B 5025  39.471  33.141   7.950
 3411POPC   C4B 5026  39.405  33.188   7.650
 3412POPC   NC3 5027   3.525  26.059   9.450
 3412POPC   PO4 5028   3.546  26.070   9.150
 3412POPC   GL1 5029   3.558  26.075   8.850
 3412POPC   GL2 5030   3.540  25.936   8.850
 3412POPC   C1A 5031   3.520  26.077   8.550
 3412POPC   D2A 5032   3.525  25.999   8.250
 3412POPC   C3A 5033   3.544  26.013   7.950
 3412POPC   C4A 5034   3.577  26.034   7.650
 3412POPC   C1B 5035   3.574  25.747   8.550
 3412POPC   C2B 5036   3.577  25.831   8.250
 3412POPC   C3B 5037   3.550  25.779   7.950
 3412POPC   C4B 5038   3.536  25.825   7.650
 3413POPC   NC3 5039  31.465   3.539   9.450
 3413POPC   PO4 5040  31.427   3.573   9.150
 3413POPC   GL1 5041  31.508   3.542   8.850
 3413POPC   GL2 5042  31.454   3.686   8.850
 3413POPC   C1A 5043  31.506   3.521   8.550
 3413POPC   D2A 5044  31.427   3.531   8.250
 3413POPC   C3A 5045  31.465   3.546   7.950
 3413POPC   C4A 5046  31.477   3.564   7.650
 3413POPC   C1B 5047  31.289   3.790   8.550
 3413POPC   C2B 5048  31.299   3.764   8.250
 3413POPC   C3B 5049  31.307   3.778   7.950
 3413POPC   C4B 5050  31.381   3.729   7.650
 3414POPC   NC3 5051  23.763  25.227   9.450
 3414POPC   PO4 5052  23.708  25.272   9.150
 3414POPC   GL1 5053  23.732  25.265   8.850
 3414POPC   GL2 5054  23.720  25.343   8.850
 3414POPC   C1A 5055  23.759  25.291   8.550
 3414POPC   D2A 5056  23.727  25.240   8.250
 3414POPC   C3A 5057  23.728  25.308   7.950
 3414POPC   C4A 5058  23.666  25.250   7.650
 3414POPC   C1B 5059  23.654  25.498   8.550
 3414POPC   C2B 5060  23.693  25.498   8.250
 3414POPC   C3B 5061  23.634  25.484   7.950
 3414POPC   C4B 5062  23.628  25.545   7.650
 3415POPC   NC3 5063  44.618  28.408   9.450
 3415POPC   PO4 5064  44.677  28.345   9.150
 3415POPC   GL1 5065  44.705  28.341   8.850
 3415POPC   GL2 5066  44.551  28.293   8.850
 3415POPC   C1A 5067  44.673  28.397   8.550
 3415POPC   D2A 5068  44.628  28.401   8.250
 3415POPC   C3A 5069  44.685  28.416   7.950
 3415POPC   C4A 5070  44.708  28.379   7.650
 3415POPC   C1B 5071  44.433  28.187   8.550
 3415POPC   C2B 5072  44.479  28.202   8.250
 3415POPC   C3B 5073  44.500  28.208   7.950
 3415POPC   C4B 5074  44.413  28.262   7.650
 3416POPC   NC3 5075  38.452  37.650   9.450
 3416POPC   PO4 5076  38.406  37.725   9.150
 3416POPC   GL1 5077  38.481  37.725   8.850
 3416POPC   GL2 5078  38.574  37.793   8.850
 3416POPC   C1A 5079  38.473  37.647   8.550
 3416POPC   D2A 5080  38.441  37.714   8.250
 3416POPC   C3A 5081  38.430  37.657   7.950
 3416POPC   C4A 5082  38.437  37.680   7.650
 3416POPC   C1B 5083  38.636  37.821   8.550
 3416POPC   C2B 5084  38.626  37.871   8.250
 3416POPC   C3B 5085  38.628  37.816   7.950
 3416POPC   C4B 5086  38.616  37.854   7.650
 3417POPC   NC3 5087  35.380  15.915   9.450
 3417POPC   PO4 5088  35.361  15.957   9.150
 3417POPC   GL1 5089  35.338  15.946   8.850
 3417POPC   GL2 5090  35.289  15.808   8.850
 3417POPC   C1A 5091  35.311  15.994   8.550
 3417POPC   D2A 5092  35.342  15.912   8.250
 3417POPC   C3A 5093  35.332  15.932   7.950
 3417POPC   C4A 5094  35.325  15.984   7.650
 3417POPC   C1B 5095  35.286  15.698   8.550
 3417POPC   C2B 5096  35.256  15.744   8.250
 3417POPC   C3B 5097  35.242  15.752   7.950
 3417POPC   C4B 5098  35.226  15.754   7.650
 3418POPC   NC3 5099  22.960  31.466   9.450
 3418POPC   PO4 5100  22.931  31.507   9.150
 3418POPC   GL1 5101  22.952  31.425   8.850
 3418POPC   GL2 5102  23.009  31.407   8.850
 3418POPC   C1A 5103  22.944  31.448   8.550
 3418POPC   D2A 5104  22.980  31.515   8.250
 3418POPC   C3A 5105  22.983  31.445   7.950
 3418POPC   C4A 5106  22.973  31.427   7.650
 3418POPC   C1B 5107  23.195  31.384   8.550
 3418POPC   C2B 5108  23.203  31.418   8.250
 3418POPC   C3B 5109  23.174  31.358   7.950
 3418POPC   C4B 5110  23.134  31.409   7.650
 3419POPC   NC3 5111  21.372  37.670   9.450
 3419POPC   PO4 5112  21.397  37.666   9.150
 3419POPC   GL1 5113  21.418  37.672   8.850
 3419POPC   GL2 5114  21.411  37.755   8.850
 3419POPC   C1A 5115  21.416  37.630   8.550
 3419POPC   D2A 5116  21.434  37.630   8.250
 3419POPC   C3A 5117  21.390  37.673   7.950
 3419POPC   C4A 5118  21.341  37.688   7.650
 3419POPC   C1B 5119  21.507  37.924   8.550
 3419POPC   C2B 5120  21.410  37.928   8.250
 3419POPC   C3B 5121  21.477  37.945   7.950
 3419POPC   C4B 5122  21.413  37.961   7.650
 3420POPC   NC3 5123   1.173  22.935   9.450
 3420POPC   PO4 5124   1.247  22.906   9.150
 3420POPC   GL1 5125   1.203  22.976   8.850
 3420POPC   GL2 5126   1.113  22.943   8.850
 3420POPC   C1A 5127   1.253  22.983   8.550
 3420POPC   D2A 5128   1.170  22.984   8.250
 3420POPC   C3A 5129   1.257  22.908   7.950
 3420POPC   C4A 5130   1.195  22.978   7.650
 3420POPC   C1B 5131   1.000  22.878   8.550
 3420POPC   C2B 5132   0.931  22.888   8.250
 3420POPC   C3B 5133   0.988  22.894   7.950
 3420POPC   C4B 5134   0.959  22.928   7.650
 3421POPC   NC3 5135  17.497  36.168   9.450
 3421POPC   PO4 5136  17.504  36.123   9.150
 3421POPC   GL1 5137  17.538  36.152   8.850
 3421POPC   GL2 5138  17.451  36.062   8.850
 3421POPC   C1A 5139  17.468  36.107   8.550
 3421POPC   D2A 5140  17.500  36.092   8.250
 3421POPC   C3A 5141  17.485  36.156   7.950
 3421POPC   C4A 5142  17.496  36.112   7.650
 3421POPC   C1B 5143  17.295  35.971   8.550
 3421POPC   C2B 5144  17.307  36.028   8.250
 3421POPC   C3B 5145  17.301  36.032   7.950
 3421POPC   C4B 5146  17.319  35.966   7.650
 3422POPC   NC3 5147  44.616  41.582   9.450
 3422POPC   PO4 5148  44.642  41.510   9.150
 3422POPC   GL1 5149  44.706  41.555   8.850
 3422POPC   GL2 5150  44.715  41.672   8.850
 3422POPC   C1A 5151  44.667  41.597   8.550
 3422POPC   D2A 5152  44.652  41.583   8.250
 3422POPC   C3A 5153  44.651  41.599   7.950
 3422POPC   C4A 5154  44.678  41.542   7.650
 3422POPC   C1B 5155  44.834  41.725   8.550
 3422POPC   C2B 5156  44.862  41.735   8.250
 3422POPC   C3B 5157  44.822  41.743   7.950
 3422POPC   C4B 5158  44.850  41.735   7.650
 3423POPC   NC3 5159  18.317  43.142   9.450
 3423POPC   PO4 5160  18.276  43.102   9.150
 3423POPC   GL1 5161  18.303  43.145   8.850
 3423POPC   GL2 5162  18.402  43.063   8.850
 3423POPC   C1A 5163  18.269  43.117   8.550
 3423POPC   D2A 5164  18.273  43.070   8.250
 3423POPC   C3A 5165  18.264  43.147   7.950
 3423POPC   C4A 5166  18.297  43.112   7.650
 3423POPC   C1B 5167  18.458  42.965   8.550
 3423POPC   C2B 5168  18.469  42.971   8.250
 3423POPC   C3B 5169  18.531  42.990   7.950
 3423POPC   C4B 5170  18.501  43.008   7.650
 3424POPC   NC3 5171  19.837  33.012   9.450
 3424POPC   PO4 5172  19.868  32.988   9.150
 3424POPC   GL1 5173  19.881  33.012   8.850
 3424POPC   GL2 5174  19.850  33.126   8.850
 3424POPC   C1A 5175  19.832  32.987   8.550
 3424POPC   D2A 5176  19.852  33.029   8.250
 3424POPC   C3A 5177  19.842  33.056   7.950
 3424POPC   C4A 5178  19.785  32.994   7.650
 3424POPC   C1B 5179  19.745  33.316   8.550
 3424POPC   C2B 5180  19.773  33.273   8.250
 3424POPC   C3B 5181  19.787  33.283   7.950
 3424POPC   C4B 5182  19.805  33.248   7.650
 3425POPC   NC3 5183   2.004  33.776   9.450
 3425POPC   PO4 5184   1.941  33.831   9.150
 3425POPC   GL1 5185   1.955  33.836   8.850
 3425POPC   GL2 5186   1.905  33.633   8.850
 3425POPC   C1A 5187   2.011  33.833   8.550
 3425POPC   D2A 5188   2.020  33.805   8.250
 3425POPC   C3A 5189   1.958  33.768   7.950
 3425POPC   C4A 5190   1.967  33.836   7.650
 3425POPC   C1B 5191   1.965  33.555   8.550
 3425POPC   C2B 5192   1.930  33.558   8.250
 3425POPC   C3B 5193   1.868  33.606   7.950
 3425POPC   C4B 5194   1.961  33.550   7.650
 3426POPC   NC3 5195  12.114  24.518   9.450
 3426POPC   PO4 5196  12.106  24.518   9.150
 3426POPC   GL1 5197  12.032  24.505   8.850
 3426POPC   GL2 5198  11.987  24.520   8.850
 3426POPC   C1A 5199  12.112  24.476   8.550
 3426POPC   D2A 5200  12.118  24.453   8.250
 3426POPC   C3A 5201  12.051  24.499   7.950
 3426POPC   C4A 5202  12.092  24.522   7.650
 3426POPC   C1B 5203  11.839  24.558   8.550
 3426POPC   C2B 5204  11.859  24.559   8.250
 3426POPC   C3B 5205  11.875  24.536   7.950
 3426POPC   C4B 5206  11.790  24.561   7.650
 3427POPC   NC3 5207  10.500   1.943   9.450
 3427POPC   PO4 5208  10.488   1.981   9.150
 3427POPC   GL1 5209  10.533   1.975   8.850
 3427POPC   GL2 5210  10.364   2.019   8.850
 3427POPC   C1A 5211  10.510   1.982   8.550
 3427POPC   D2A 5212  10.480   1.953   8.250
 3427POPC   C3A 5213  10.539   2.003   7.950
 3427POPC   C4A 5214  10.570   2.037   7.650
 3427POPC   C1B 5215  10.257   2.026   8.550
 3427POPC   C2B 5216  10.286   2.030   8.250
 3427POPC   C3B 5217  10.237   2.079   7.950
 3427POPC   C4B 5218  10.321   2.019   7.650
 3428POPC   NC3 5219   0.459   4.341   9.450
 3428POPC   PO4 5220   0.442   4.344   9.150
 3428POPC   GL1 5221   0.426   4.301   8.850
 3428POPC   GL2 5222   0.590   4.405   8.850
 3428POPC   C1A 5223   0.486   4.269   8.550
 3428POPC   D2A 5224   0.451   4.327   8.250
 3428POPC   C3A 5225   0.427   4.366   7.950
 3428POPC   C4A 5226   0.397   4.279   7.650
 3428POPC   C1B 5227   0.670   4.375   8.550
 3428POPC   C2B 5228   0.629   4.445   8.250
 3428POPC   C3B 5229   0.631   4.461   7.950
 3428POPC   C4B 5230   0.675   4.400   7.650
 3429POPC   NC3 5231  17.528  16.714   9.450
 3429POPC   PO4 5232  17.464  16.728   9.150
 3429POPC   GL1 5233  17.486  16.718   8.850
 3429POPC   GL2 5234  17.506  16.886   8.850
 3429POPC   C1A 5235  17.464  16.751   8.550
 3429POPC   D2A 5236  17.525  16.779   8.250
 3429POPC   C3A 5237  17.468  16.718   7.950
 3429POPC   C4A 5238  17.492  16.766   7.650
 3429POPC   C1B 5239  17.597  16.951   8.550
 3429POPC   C2B 5240  17.554  16.955   8.250
 3429POPC   C3B 5241  17.504  16.994   7.950
 3429POPC   C4B 5242  17.504  16.955   7.650
 3430POPC   NC3 5243  31.434  36.931   9.450
 3430POPC   PO4 5244  31.512  36.953   9.150
 3430POPC   GL1 5245  31.502  36.871   8.850
 3430POPC   GL2 5246  31.411  36.788   8.850
 3430POPC   C1A 5247  31.500  36.940   8.550
 3430POPC   D2A 5248  31.506  36.854   8.250
 3430POPC   C3A 5249  31.497  36.874   7.950
 3430POPC   C4A 5250  31.497  36.924   7.650
 3430POPC   C1B 5251  31.318  36.739   8.550
 3430POPC   C2B 5252  31.335  36.700   8.250
 3430POPC   C3B 5253  31.384  36.681   7.950
 3430POPC   C4B 5254  31.387  36.707   7.650
 3431POPC   NC3 5255  26.785  12.821   9.450
 3431POPC   PO4 5256  26.802  12.880   9.150
 3431POPC   GL1 5257  26.859  12.886   8.850
 3431POPC   GL2 5258  26.902  12.888   8.850
 3431POPC   C1A 5259  26.791  12.810   8.550
 3431POPC   D2A 5260  26.812  12.832   8.250
 3431POPC   C3A 5261  26.829  12.892   7.950
 3431POPC   C4A 5262  26.834  12.845   7.650
 3431POPC   C1B 5263  26.988  12.993   8.550
 3431POPC   C2B 5264  27.055  12.996   8.250
 3431POPC   C3B 5265  27.042  12.980   7.950
 3431POPC   C4B 5266  27.000  13.002   7.650
 3432POPC   NC3 5267   1.222  34.568   9.450
 3432POPC   PO4 5268   1.196  34.574   9.150
 3432POPC   GL1 5269   1.224  34.626   8.850
 3432POPC   GL2 5270   1.254  34.408   8.850
 3432POPC   C1A 5271   1.219  34.587   8.550
 3432POPC   D2A 5272   1.215  34.540   8.250
 3432POPC   C3A 5273   1.201  34.618   7.950
 3432POPC   C4A 5274   1.200  34.531   7.650
 3432POPC   C1B 5275   1.297  34.297   8.550
 3432POPC   C2B 5276   1.304  34.304   8.250
 3432POPC   C3B 5277   1.304  34.314   7.950
 3432POPC   C4B 5278   1.209  34.302   7.650
 3433POPC   NC3 5279  31.478   2.733   9.450
 3433POPC   PO4 5280  31.476   2.743   9.150
 3433POPC   GL1 5281  31.516   2.813   8.850
 3433POPC   GL2 5282  31.635   2.722   8.850
 3433POPC   C1A 5283  31.446   2.757   8.550
 3433POPC   D2A 5284  31.485   2.770   8.250
 3433POPC   C3A 5285  31.438   2.800   7.950
 3433POPC   C4A 5286  31.460   2.810   7.650
 3433POPC   C1B 5287  31.724   2.704   8.550
 3433POPC   C2B 5288  31.718   2.695   8.250
 3433POPC   C3B 5289  31.738   2.734   7.950
 3433POPC   C4B 5290  31.739   2.708   7.650
 3434POPC   NC3 5291  26.785  43.929   9.450
 3434POPC   PO4 5292  26.837  43.851   9.150
 3434POPC   GL1 5293  26.848  43.892   8.850
 3434POPC   GL2 5294  26.894  43.816   8.850
 3434POPC   C1A 5295  26.807  43.914   8.550
 3434POPC   D2A 5296  26.772  43.915   8.250
 3434POPC   C3A 5297  26.794  43.922   7.950
 3434POPC   C4A 5298  26.786  43.880   7.650
 3434POPC   C1B 5299  27.003  43.653   8.550
 3434POPC   C2B 5300  26.932  43.643   8.250
 3434POPC   C3B 5301  26.999  43.654   7.950
 3434POPC   C4B 5302  26.995  43.639   7.650
 3435POPC   NC3 5303  31.436  26.015   9.450
 3435POPC   PO4 5304  31.473  26.051   9.150
 3435POPC   GL1 5305  31.484  26.068   8.850
 3435POPC   GL2 5306  31.624  26.078   8.850
 3435POPC   C1A 5307  31.505  26.008   8.550
 3435POPC   D2A 5308  31.495  26.060   8.250
 3435POPC   C3A 5309  31.438  26.028   7.950
 3435POPC   C4A 5310  31.501  26.045   7.650
 3435POPC   C1B 5311  31.723  26.074   8.550
 3435POPC   C2B 5312  31.688  26.089   8.250
 3435POPC   C3B 5313  31.766  26.031   7.950
 3435POPC   C4B 5314  31.700  26.058   7.650
 3436POPC   NC3 5315  40.785   8.982   9.450
 3436POPC   PO4 5316  40.741   9.014   9.150
 3436POPC   GL1 5317  40.744   8.969   8.850
 3436POPC   GL2 5318  40.696   9.007   8.850
 3436POPC   C1A 5319  40.765   8.968   8.550
 3436POPC   D2A 5320  40.735   8.980   8.250
 3436POPC   C3A 5321  40.795   8.942   7.950
 3436POPC   C4A 5322  40.760   9.013   7.650
 3436POPC   C1B 5323  40.537   9.022   8.550
 3436POPC   C2B 5324  40.533   9.049   8.250
 3436POPC   C3B 5325  40.536   9.006   7.950
 3436POPC   C4B 5326  40.571   9.081   7.650
 3437POPC   NC3 5327  15.992  24.500   9.450
 3437POPC   PO4 5328  15.945  24.521   9.150
 3437POPC   GL1 5329  15.911  24.522   8.850
 3437POPC   GL2 5330  15.969  24.629   8.850
 3437POPC   C1A 5331  15.973  24.519   8.550
 3437POPC   D2A 5332  16.000  24.469   8.250
 3437POPC   C3A 5333  15.931  24.530   7.950
 3437POPC   C4A 5334  15.958  24.498   7.650
 3437POPC   C1B 5335  16.036  24.765   8.550
 3437POPC   C2B 5336  16.067  24.768   8.250
 3437POPC   C3B 5337  16.041  24.736   7.950
 3437POPC   C4B 5338  16.085  24.704   7.650
 3438POPC   NC3 5339  40.017  43.091   9.450
 3438POPC   PO4 5340  40.008  43.102   9.150
 3438POPC   GL1 5341  39.972  43.104   8.850
 3438POPC   GL2 5342  39.969  43.253   8.850
 3438POPC   C1A 5343  40.054  43.060   8.550
 3438POPC   D2A 5344  40.014  43.122   8.250
 3438POPC   C3A 5345  40.038  43.061   7.950
 3438POPC   C4A 5346  40.048  43.063   7.650
 3438POPC   C1B 5347  40.001  43.402   8.550
 3438POPC   C2B 5348  39.947  43.381   8.250
 3438POPC   C3B 5349  40.041  43.334   7.950
 3438POPC   C4B 5350  39.968  43.384   7.650
 3439POPC   NC3 5351  24.512   5.118   9.450
 3439POPC   PO4 5352  24.475   5.087   9.150
 3439POPC   GL1 5353  24.539   5.106   8.850
 3439POPC   GL2 5354  24.418   5.107   8.850
 3439POPC   C1A 5355  24.455   5.087   8.550
 3439POPC   D2A 5356  24.462   5.136   8.250
 3439POPC   C3A 5357  24.486   5.122   7.950
 3439POPC   C4A 5358  24.462   5.073   7.650
 3439POPC   C1B 5359  24.291   5.136   8.550
 3439POPC   C2B 5360  24.259   5.174   8.250
 3439POPC   C3B 5361  24.223   5.206   7.950
 3439POPC   C4B 5362  24.219   5.199   7.650
 3440POPC   NC3 5363  26.839   2.802   9.450
 3440POPC   PO4 5364  26.808   2.736   9.150
 3440POPC   GL1 5365  26.770   2.725   8.850
 3440POPC   GL2 5366  26.693   2.716   8.850
 3440POPC   C1A 5367  26.819   2.781   8.550
 3440POPC   D2A 5368  26.768   2.777   8.250
 3440POPC   C3A 5369  26.859   2.735   7.950
 3440POPC   C4A 5370  26.811   2.783   7.650
 3440POPC   C1B 5371  26.687   2.580   8.550
 3440POPC   C2B 5372  26.618   2.616   8.250
 3440POPC   C3B 5373  26.621   2.593   7.950
 3440POPC   C4B 5374  26.623   2.601   7.650
 3441POPC   NC3 5375  33.799   1.990   9.450
 3441POPC   PO4 5376  33.816   1.942   9.150
 3441POPC   GL1 5377  33.757   2.034   8.850
 3441POPC   GL2 5378  33.746   2.079   8.850
 3441POPC   C1A 5379  33.844   2.031   8.550
 3441POPC   D2A 5380  33.784   1.963   8.250
 3441POPC   C3A 5381  33.779   1.966   7.950
 3441POPC   C4A 5382  33.771   1.952   7.650
 3441POPC   C1B 5383  33.708   2.224   8.550
 3441POPC   C2B 5384  33.661   2.229   8.250
 3441POPC   C3B 5385  33.683   2.158   7.950
 3441POPC   C4B 5386  33.655   2.181   7.650
 3442POPC   NC3 5387  11.306  12.827   9.450
 3442POPC   PO4 5388  11.261  12.828   9.150
 3442POPC   GL1 5389  11.288  12.870   8.850
 3442POPC   GL2 5390  11.374  12.796   8.850
 3442POPC   C1A 5391  11.298  12.867   8.550
 3442POPC   D2A 5392  11.264  12.818   8.250
 3442POPC   C3A 5393  11.292  12.810   7.950
 3442POPC   C4A 5394  11.324  12.895   7.650
 3442POPC   C1B 5395  11.570  12.808   8.550
 3442POPC   C2B 5396  11.592  12.766   8.250
 3442POPC   C3B 5397  11.545  12.850   7.950
 3442POPC   C4B 5398  11.543  12.764   7.650
 3443POPC   NC3 5399  21.366  10.529   9.450
 3443POPC   PO4 5400  21.356  10.482   9.150
 3443POPC   GL1 5401  21.363  10.489   8.850
 3443POPC   GL2 5402  21.301  10.615   8.850
 3443POPC   C1A 5403  21.391  10.477   8.550
 3443POPC   D2A 5404  21.372  10.492   8.250
 3443POPC   C3A 5405  21.358  10.511   7.950
 3443POPC   C4A 5406  21.357  10.530   7.650
 3443POPC   C1B 5407  21.207  10.721   8.550
 3443POPC   C2B 5408  21.194  10.732   8.250
 3443POPC   C3B 5409  21.211  10.720   7.950
 3443POPC   C4B 5410  21.231  10.698   7.650
 3444POPC   NC3 5411  37.640  40.049   9.450
 3444POPC   PO4 5412  37.682  40.034   9.150
 3444POPC   GL1 5413  37.709  40.025   8.850
 3444POPC   GL2 5414  37.756  40.040   8.850
 3444POPC   C1A 5415  37.713  40.012   8.550
 3444POPC   D2A 5416  37.678  40.052   8.250
 3444POPC   C3A 5417  37.643  39.976   7.950
 3444POPC   C4A 5418  37.697  40.037   7.650
 3444POPC   C1B 5419  37.885  39.995   8.550
 3444POPC   C2B 5420  37.886  39.957   8.250
 3444POPC   C3B 5421  37.881  39.990   7.950
 3444POPC   C4B 5422  37.966  40.001   7.650
 3445POPC   NC3 5423  15.209   4.308   9.450
 3445POPC   PO4 5424  15.189   4.273   9.150
 3445POPC   GL1 5425  15.207   4.328   8.850
 3445POPC   GL2 5426  15.347   4.372   8.850
 3445POPC   C1A 5427  15.182   4.316   8.550
 3445POPC   D2A 5428  15.201   4.286   8.250
 3445POPC   C3A 5429  15.162   4.366   7.950
 3445POPC   C4A 5430  15.198   4.364   7.650
 3445POPC   C1B 5431  15.377   4.417   8.550
 3445POPC   C2B 5432  15.446   4.380   8.250
 3445POPC   C3B 5433  15.459   4.399   7.950
 3445POPC   C4B 5434  15.438   4.440   7.650
 3446POPC   NC3 5435   9.700  19.076   9.450
 3446POPC   PO4 5436   9.789  19.026   9.150
 3446POPC   GL1 5437   9.760  19.051   8.850
 3446POPC   GL2 5438   9.601  19.083   8.850
 3446POPC   C1A 5439   9.781  19.087   8.550
 3446POPC   D2A 5440   9.729  19.067   8.250
 3446POPC   C3A 5441   9.725  19.075   7.950
 3446POPC   C4A 5442   9.783  19.059   7.650
 3446POPC   C1B 5443   9.468  19.048   8.550
 3446POPC   C2B 5444   9.463  18.994   8.250
 3446POPC   C3B 5445   9.512  18.990   7.950
 3446POPC   C4B 5446   9.539  19.048   7.650
 3447POPC   NC3 5447  19.103   6.693   9.450
 3447POPC   PO4 5448  19.052   6.665   9.150
 3447POPC   GL1 5449  19.103   6.685   8.850
 3447POPC   GL2 5450  19.152   6.639   8.850
 3447POPC   C1A 5451  19.011   6.608   8.550
 3447POPC   D2A 5452  19.107   6.619   8.250
 3447POPC   C3A 5453  19.087   6.660   7.950
 3447POPC   C4A 5454  19.036   6.673   7.650
 3447POPC   C1B 5455  19.273   6.714   8.550
 3447POPC   C2B 5456  19.349   6.714   8.250
 3447POPC   C3B 5457  19.337   6.688   7.950
 3447POPC   C4B 5458  19.259   6.676   7.650
 3448POPC   NC3 5459   3.513   1.947   9.450
 3448POPC   PO4 5460   3.541   1.979   9.150
 3448POPC   GL1 5461   3.573   2.040   8.850
 3448POPC   GL2 5462   3.637   2.024   8.850
 3448POPC   C1A 5463   3.498   1.964   8.550
 3448POPC   D2A 5464   3.520   1.980   8.250
 3448POPC   C3A 5465   3.585   1.946   7.950
 3448POPC   C4A 5466   3.501   1.972   7.650
 3448POPC   C1B 5467   3.834   2.061   8.550
 3448POPC   C2B 5468   3.746   2.064   8.250
 3448POPC   C3B 5469   3.816   2.080   7.950
 3448POPC   C4B 5470   3.761   2.001   7.650
 3449POPC   NC3 5471  18.291   8.926   9.450
 3449POPC   PO4 5472  18.263   9.020   9.150
 3449POPC   GL1 5473  18.238   8.940   8.850
 3449POPC   GL2 5474  18.326   9.067   8.850
 3449POPC   C1A 5475  18.274   8.932   8.550
 3449POPC   D2A 5476  18.266   8.988   8.250
 3449POPC   C3A 5477  18.236   8.992   7.950
 3449POPC   C4A 5478  18.240   8.926   7.650
 3449POPC   C1B 5479  18.424   9.169   8.550
 3449POPC   C2B 5480  18.409   9.198   8.250
 3449POPC   C3B 5481  18.422   9.151   7.950
 3449POPC   C4B 5482  18.467   9.195   7.650
 3450POPC   NC3 5483  22.979  33.031   9.450
 3450POPC   PO4 5484  22.901  33.003   9.150
 3450POPC   GL1 5485  22.930  33.008   8.850
 3450POPC   GL2 5486  22.985  32.907   8.850
 3450POPC   C1A 5487  22.968  33.023   8.550
 3450POPC   D2A 5488  22.959  33.002   8.250
 3450POPC   C3A 5489  22.889  33.060   7.950
 3450POPC   C4A 5490  22.925  33.005   7.650
 3450POPC   C1B 5491  23.056  32.771   8.550
 3450POPC   C2B 5492  23.069  32.799   8.250
 3450POPC   C3B 5493  23.062  32.779   7.950
 3450POPC   C4B 5494  23.110  32.842   7.650
 3451POPC   NC3 5495  43.082  34.590   9.450
 3451POPC   PO4 5496  43.133  34.526   9.150
 3451POPC   GL1 5497  43.119  34.600   8.850
 3451POPC   GL2 5498  43.007  34.580   8.850
 3451POPC   C1A 5499  43.068  34.607   8.550
 3451POPC   D2A 5500  43.148  34.563   8.250
 3451POPC   C3A 5501  43.080  34.543   7.950
 3451POPC   C4A 5502  43.117  34.602   7.650
 3451POPC   C1B 5503  42.900  34.595   8.550
 3451POPC   C2B 5504  42.860  34.625   8.250
 3451POPC   C3B 5505  42.856  34.578   7.950
 3451POPC   C4B 5506  42.890  34.579   7.650
 3452POPC   NC3 5507  25.995  22.889   9.450
 3452POPC   PO4 5508  26.042  22.945   9.150
 3452POPC   GL1 5509  26.032  22.932   8.850
 3452POPC   GL2 5510  26.113  23.006   8.850
 3452POPC   C1A 5511  26.085  22.938   8.550
 3452POPC   D2A 5512  25.998  22.969   8.250
 3452POPC   C3A 5513  26.080  22.964   7.950
 3452POPC   C4A 5514  26.051  22.949   7.650
 3452POPC   C1B 5515  26.314  23.070   8.550
 3452POPC   C2B 5516  26.273  23.001   8.250
 3452POPC   C3B 5517  26.247  23.012   7.950
 3452POPC   C4B 5518  26.233  23.065   7.650
 3453POPC   NC3 5519   1.971  31.482   9.450
 3453POPC   PO4 5520   1.999  31.465   9.150
 3453POPC   GL1 5521   2.009  31.500   8.850
 3453POPC   GL2 5522   2.083  31.477   8.850
 3453POPC   C1A 5523   1.946  31.489   8.550
 3453POPC   D2A 5524   1.945  31.513   8.250
 3453POPC   C3A 5525   1.981  31.475   7.950
 3453POPC   C4A 5526   1.955  31.424   7.650
 3453POPC   C1B 5527   2.244  31.494   8.550
 3453POPC   C2B 5528   2.232  31.490   8.250
 3453POPC   C3B 5529   2.221  31.508   7.950
 3453POPC   C4B 5530   2.268  31.524   7.650
 3454POPC   NC3 5531  29.871  29.194   9.450
 3454POPC   PO4 5532  29.882  29.117   9.150
 3454POPC   GL1 5533  29.962  29.113   8.850
 3454POPC   GL2 5534  29.822  29.024   8.850
 3454POPC   C1A 5535  29.957  29.127   8.550
 3454POPC   D2A 5536  29.918  29.184   8.250
 3454POPC   C3A 5537  29.880  29.109   7.950
 3454POPC   C4A 5538  29.959  29.096   7.650
 3454POPC   C1B 5539  29.772  28.940   8.550
 3454POPC   C2B 5540  29.808  28.886   8.250
 3454POPC   C3B 5541  29.783  28.897   7.950
 3454POPC   C4B 5542  29.796  28.934   7.650
 3455POPC   NC3 5543  41.542  40.820   9.450
 3455POPC   PO4 5544  41.594  40.821   9.150
 3455POPC   GL1 5545  41.590  40.773   8.850
 3455POPC   GL2 5546  41.703  40.870   8.850
 3455POPC   C1A 5547  41.575  40.812   8.550
 3455POPC   D2A 5548  41.552  40.777   8.250
 3455POPC   C3A 5549  41.562  40.825   7.950
 3455POPC   C4A 5550  41.531  40.789   7.650
 3455POPC   C1B 5551  41.747  40.938   8.550
 3455POPC   C2B 5552  41.789  40.922   8.250
 3455POPC   C3B 5553  41.755  40.873   7.950
 3455POPC   C4B 5554  41.810  40.885   7.650
 3456POPC   NC3 5555   1.985  29.949   9.450
 3456POPC   PO4 5556   2.025  29.929   9.150
 3456POPC   GL1 5557   2.027  29.937   8.850
 3456POPC   GL2 5558   2.107  29.986   8.850
 3456POPC   C1A 5559   1.984  29.882   8.550
 3456POPC   D2A 5560   2.015  29.893   8.250
 3456POPC   C3A 5561   2.013  29.920   7.950
 3456POPC   C4A 5562   2.022  29.875   7.650
 3456POPC   C1B 5563   2.126  30.132   8.550
 3456POPC   C2B 5564   2.186  30.163   8.250
 3456POPC   C3B 5565   2.160  30.099   7.950
 3456POPC   C4B 5566   2.092  30.152   7.650
 3457POPC   NC3 5567  29.910  28.403   9.450
 3457POPC   PO4 5568  29.938  28.412   9.150
 3457POPC   GL1 5569  29.940  28.392   8.850
 3457POPC   GL2 5570  30.038  28.367   8.850
 3457POPC   C1A 5571  29.894  28.405   8.550
 3457POPC   D2A 5572  29.920  28.417   8.250
 3457POPC   C3A 5573  29.934  28.375   7.950
 3457POPC   C4A 5574  29.933  28.352   7.650
 3457POPC   C1B 5575  30.113  28.325   8.550
 3457POPC   C2B 5576  30.152  28.290   8.250
 3457POPC   C3B 5577  30.200  28.322   7.950
 3457POPC   C4B 5578  30.127  28.329   7.650
 3458POPC   NC3 5579   3.570  36.105   9.450
 3458POPC   PO4 5580   3.540  36.152   9.150
 3458POPC   GL1 5581   3.511  36.094   8.850
 3458POPC   GL2 5582   3.563  35.957   8.850
 3458POPC   C1A 5583   3.532  36.118   8.550
 3458POPC   D2A 5584   3.492  36.155   8.250
 3458POPC   C3A 5585   3.522  36.175   7.950
 3458POPC   C4A 5586   3.511  36.134   7.650
 3458POPC   C1B 5587   3.564  35.928   8.550
 3458POPC   C2B 5588   3.521  35.889   8.250
 3458POPC   C3B 5589   3.513  35.869   7.950
 3458POPC   C4B 5590   3.513  35.923   7.650
 3459POPC   NC3 5591  23.738   5.105   9.450
 3459POPC   PO4 5592  23.742   5.069   9.150
 3459POPC   GL1 5593  23.708   5.055   8.850
 3459POPC   GL2 5594  23.643   4.997   8.850
 3459POPC   C1A 5595  23.749   5.051   8.550
 3459POPC   D2A 5596  23.758   5.105   8.250
 3459POPC   C3A 5597  23.680   5.114   7.950
 3459POPC   C4A 5598  23.696   5.097   7.650
 3459POPC   C1B 5599  23.546   4.956   8.550
 3459POPC   C2B 5600  23.494   4.943   8.250
 3459POPC   C3B 5601  23.588   4.944   7.950
 3459POPC   C4B 5602  23.497   4.891   7.650
 3460POPC   NC3 5603  42.372  20.642   9.450
 3460POPC   PO4 5604  42.290  20.633   9.150
 3460POPC   GL1 5605  42.293  20.561   8.850
 3460POPC   GL2 5606  42.246  20.564   8.850
 3460POPC   C1A 5607  42.351  20.644   8.550
 3460POPC   D2A 5608  42.368  20.652   8.250
 3460POPC   C3A 5609  42.373  20.613   7.950
 3460POPC   C4A 5610  42.378  20.572   7.650
 3460POPC   C1B 5611  42.189  20.465   8.550
 3460POPC   C2B 5612  42.106  20.455   8.250
 3460POPC   C3B 5613  42.113  20.428   7.950
 3460POPC   C4B 5614  42.156  20.414   7.650
 3461POPC   NC3 5615  13.660  12.872   9.450
 3461POPC   PO4 5616  13.583  12.818   9.150
 3461POPC   GL1 5617  13.650  12.889   8.850
 3461POPC   GL2 5618  13.783  12.848   8.850
 3461POPC   C1A 5619  13.629  12.865   8.550
 3461POPC   D2A 5620  13.607  12.843   8.250
 3461POPC   C3A 5621  13.589  12.856   7.950
 3461POPC   C4A 5622  13.643  12.821   7.650
 3461POPC   C1B 5623  13.889  12.897   8.550
 3461POPC   C2B 5624  13.901  12.983   8.250
 3461POPC   C3B 5625  13.879  12.941   7.950
 3461POPC   C4B 5626  13.874  12.983   7.650
 3462POPC   NC3 5627  34.549  43.118   9.450
 3462POPC   PO4 5628  34.589  43.073   9.150
 3462POPC   GL1 5629  34.558  43.134   8.850
 3462POPC   GL2 5630  34.537  42.985   8.850
 3462POPC   C1A 5631  34.551  43.097   8.550
 3462POPC   D2A 5632  34.564  43.110   8.250
 3462POPC   C3A 5633  34.534  43.079   7.950
 3462POPC   C4A 5634  34.602  43.124   7.650
 3462POPC   C1B 5635  34.460  42.905   8.550
 3462POPC   C2B 5636  34.436  42.882   8.250
 3462POPC   C3B 5637  34.388  42.880   7.950
 3462POPC   C4B 5638  34.475  42.950   7.650
 3463POPC   NC3 5639  34.545  35.354   9.450
 3463POPC   PO4 5640  34.582  35.395   9.150
 3463POPC   GL1 5641  34.585  35.365   8.850
 3463POPC   GL2 5642  34.552  35.260   8.850
 3463POPC   C1A 5643  34.580  35.310   8.550
 3463POPC   D2A 5644  34.616  35.363   8.250
 3463POPC   C3A 5645  34.539  35.380   7.950
 3463POPC   C4A 5646  34.567  35.383   7.650
 3463POPC   C1B 5647  34.534  35.147   8.550
 3463POPC   C2B 5648  34.530  35.111   8.250
 3463POPC   C3B 5649  34.569  35.151   7.950
 3463POPC   C4B 5650  34.554  35.137   7.650
 3464POPC   NC3 5651  21.417   6.688   9.450
 3464POPC   PO4 5652  21.425   6.596   9.150
 3464POPC   GL1 5653  21.432   6.642   8.850
 3464POPC   GL2 5654  21.505   6.733   8.850
 3464POPC   C1A 5655  21.435   6.618   8.550
 3464POPC   D2A 5656  21.402   6.654   8.250
 3464POPC   C3A 5657  21.375   6.668   7.950
 3464POPC   C4A 5658  21.373   6.665   7.650
 3464POPC   C1B 5659  21.617   6.782   8.550
 3464POPC   C2B 5660  21.606   6.821   8.250
 3464POPC   C3B 5661  21.566   6.811   7.950
 3464POPC   C4B 5662  21.580   6.798   7.650
 3465POPC   NC3 5663   2.038   8.956   9.450
 3465POPC   PO4 5664   1.947   8.958   9.150
 3465POPC   GL1 5665   1.975   8.998   8.850
 3465POPC   GL2 5666   1.826   8.948   8.850
 3465POPC   C1A 5667   1.947   8.990   8.550
 3465POPC   D2A 5668   2.012   8.980   8.250
 3465POPC   C3A 5669   2.031   8.965   7.950
 3465POPC   C4A 5670   2.019   8.991   7.650
 3465POPC   C1B 5671   1.703   8.990   8.550
 3465POPC   C2B 5672   1.725   8.988   8.250
 3465POPC   C3B 5673   1.745   8.952   7.950
 3465POPC   C4B 5674   1.694   9.019   7.650
 3466POPC   NC3 5675  19.081  40.771   9.450
 3466POPC   PO4 5676  19.025  40.812   9.150
 3466POPC   GL1 5677  19.035  40.781   8.850
 3466POPC   GL2 5678  19.123  40.718   8.850
 3466POPC   C1A 5679  19.098  40.797   8.550
 3466POPC   D2A 5680  19.103  40.784   8.250
 3466POPC   C3A 5681  19.038  40.752   7.950
 3466POPC   C4A 5682  19.016  40.733   7.650
 3466POPC   C1B 5683  19.117  40.522   8.550
 3466POPC   C2B 5684  19.214  40.555   8.250
 3466POPC   C3B 5685  19.180  40.526   7.950
 3466POPC   C4B 5686  19.213  40.547   7.650
 3467POPC   NC3 5687   1.167  32.239   9.450
 3467POPC   PO4 5688   1.244  32.239   9.150
 3467POPC   GL1 5689   1.191  32.235   8.850
 3467POPC   GL2 5690   1.168  32.327   8.850
 3467POPC   C1A 5691   1.191  32.207   8.550
 3467POPC   D2A 5692   1.242  32.238   8.250
 3467POPC   C3A 5693   1.228  32.212   7.950
 3467POPC   C4A 5694   1.210  32.226   7.650
 3467POPC   C1B 5695   1.067  32.419   8.550
 3467POPC   C2B 5696   1.036  32.483   8.250
 3467POPC   C3B 5697   1.065  32.410   7.950
 3467POPC   C4B 5698   1.070  32.452   7.650
 3468POPC   NC3 5699  44.658  27.572   9.450
 3468POPC   PO4 5700  44.639  27.621   9.150
 3468POPC   GL1 5701  44.702  27.607   8.850
 3468POPC   GL2 5702  44.619  27.666   8.850
 3468POPC   C1A 5703  44.703  27.620   8.550
 3468POPC   D2A 5704  44.688  27.641   8.250
 3468POPC   C3A 5705  44.701  27.582   7.950
 3468POPC   C4A 5706  44.677  27.643   7.650
 3468POPC   C1B 5707  44.514  27.791   8.550
 3468POPC   C2B 5708  44.545  27.792   8.250
 3468POPC   C3B 5709  44.540  27.809   7.950
 3468POPC   C4B 5710  44.566  27.764   7.650
 3469POPC   NC3 5711  38.491  27.565   9.450
 3469POPC   PO4 5712  38.446  27.571   9.150
 3469POPC   GL1 5713  38.499  27.557   8.850
 3469POPC   GL2 5714  38.403  27.419   8.850
 3469POPC   C1A 5715  38.467  27.600   8.550
 3469POPC   D2A 5716  38.421  27.614   8.250
 3469POPC   C3A 5717  38.440  27.638   7.950
 3469POPC   C4A 5718  38.480  27.616   7.650
 3469POPC   C1B 5719  38.400  27.342   8.550
 3469POPC   C2B 5720  38.464  27.319   8.250
 3469POPC   C3B 5721  38.386  27.367   7.950
 3469POPC   C4B 5722  38.480  27.309   7.650
 3470POPC   NC3 5723   5.897  38.483   9.450
 3470POPC   PO4 5724   5.883  38.443   9.150
 3470POPC   GL1 5725   5.836  38.428   8.850
 3470POPC   GL2 5726   5.777  38.303   8.850
 3470POPC   C1A 5727   5.871  38.425   8.550
 3470POPC   D2A 5728   5.836  38.466   8.250
 3470POPC   C3A 5729   5.832  38.466   7.950
 3470POPC   C4A 5730   5.905  38.445   7.650
 3470POPC   C1B 5731   5.802  38.263   8.550
 3470POPC   C2B 5732   5.736  38.180   8.250
 3470POPC   C3B 5733   5.724  38.208   7.950
 3470POPC   C4B 5734   5.749  38.236   7.650
 3471POPC   NC3 5735   4.310   1.957   9.450
 3471POPC   PO4 5736   4.267   2.039   9.150
 3471POPC   GL1 5737   4.291   1.991   8.850
 3471POPC   GL2 5738   4.457   2.026   8.850
 3471POPC   C1A 5739   4.275   1.996   8.550
 3471POPC   D2A 5740   4.287   1.956   8.250
 3471POPC   C3A 5741   4.328   2.028   7.950
 3471POPC   C4A 5742   4.278   2.018   7.650
 3471POPC   C1B 5743   4.570   2.161   8.550
 3471POPC   C2B 5744   4.497   2.181   8.250
 3471POPC   C3B 5745   4.511   2.105   7.950
 3471POPC   C4B 5746   4.563   2.110   7.650
 3472POPC   NC3 5747  20.624  10.478   9.450
 3472POPC   PO4 5748  20.627  10.563   9.150
 3472POPC   GL1 5749  20.648  10.476   8.850
 3472POPC   GL2 5750  20.537  10.581   8.850
 3472POPC   C1A 5751  20.637  10.540   8.550
 3472POPC   D2A 5752  20.642  10.556   8.250
 3472POPC   C3A 5753  20.636  10.565   7.950
 3472POPC   C4A 5754  20.605  10.505   7.650
 3472POPC   C1B 5755  20.409  10.596   8.550
 3472POPC   C2B 5756  20.321  10.610   8.250
 3472POPC   C3B 5757  20.415  10.595   7.950
 3472POPC   C4B 5758  20.395  10.577   7.650
 3473POPC   NC3 5759  28.362  19.811   9.450
 3473POPC   PO4 5760  28.350  19.853   9.150
 3473POPC   GL1 5761  28.393  19.790   8.850
 3473POPC   GL2 5762  28.475  19.889   8.850
 3473POPC   C1A 5763  28.335  19.879   8.550
 3473POPC   D2A 5764  28.361  19.801   8.250
 3473POPC   C3A 5765  28.399  19.825   7.950
 3473POPC   C4A 5766  28.324  19.800   7.650
 3473POPC   C1B 5767  28.548  19.940   8.550
 3473POPC   C2B 5768  28.629  19.915   8.250
 3473POPC   C3B 5769  28.627  19.934   7.950
 3473POPC   C4B 5770  28.644  19.924   7.650
 3474POPC   NC3 5771  41.510   8.948   9.450
 3474POPC   PO4 5772  41.576   8.988   9.150
 3474POPC   GL1 5773  41.544   8.923   8.850
 3474POPC   GL2 5774  41.473   8.901   8.850
 3474POPC   C1A 5775  41.558   8.929   8.550
 3474POPC   D2A 5776  41.531   8.932   8.250
 3474POPC   C3A 5777  41.548   8.922   7.950
 3474POPC   C4A 5778  41.572   8.981   7.650
 3474POPC   C1B 5779  41.361   8.865   8.550
 3474POPC   C2B 5780  41.283   8.951   8.250
 3474POPC   C3B 5781  41.339   8.919   7.950
 3474POPC   C4B 5782  41.359   8.870   7.650
 3475POPC   NC3 5783  17.470  40.828   9.450
 3475POPC   PO4 5784  17.461  40.735   9.150
 3475POPC   GL1 5785  17.494  40.790   8.850
 3475POPC   GL2 5786  17.516  40.912   8.850
 3475POPC   C1A 5787  17.474  40.755   8.550
 3475POPC   D2A 5788  17.462  40.743   8.250
 3475POPC   C3A 5789  17.470  40.755   7.950
 3475POPC   C4A 5790  17.535  40.796   7.650
 3475POPC   C1B 5791  17.659  41.002   8.550
 3475POPC   C2B 5792  17.639  40.966   8.250
 3475POPC   C3B 5793  17.596  41.049   7.950
 3475POPC   C4B 5794  17.648  40.978   7.650
 3476POPC   NC3 5795  34.618  33.008   9.450
 3476POPC   PO4 5796  34.548  32.994   9.150
 3476POPC   GL1 5797  34.594  33.042   8.850
 3476POPC   GL2 5798  34.460  32.977   8.850
 3476POPC   C1A 5799  34.559  33.073   8.550
 3476POPC   D2A 5800  34.571  33.071   8.250
 3476POPC   C3A 5801  34.532  33.005   7.950
 3476POPC   C4A 5802  34.549  33.067   7.650
 3476POPC   C1B 5803  34.301  32.984   8.550
 3476POPC   C2B 5804  34.328  33.007   8.250
 3476POPC   C3B 5805  34.366  33.028   7.950
 3476POPC   C4B 5806  34.337  33.059   7.650
 3477POPC   NC3 5807  34.544  29.120   9.450
 3477POPC   PO4 5808  34.605  29.190   9.150
 3477POPC   GL1 5809  34.590  29.156   8.850
 3477POPC   GL2 5810  34.426  29.104   8.850
 3477POPC   C1A 5811  34.605  29.183   8.550
 3477POPC   D2A 5812  34.625  29.157   8.250
 3477POPC   C3A 5813  34.531  29.140   7.950
 3477POPC   C4A 5814  34.564  29.119   7.650
 3477POPC   C1B 5815  34.296  29.046   8.550
 3477POPC   C2B 5816  34.360  29.079   8.250
 3477POPC   C3B 5817  34.362  29.116   7.950
 3477POPC   C4B 5818  34.300  29.112   7.650
 3478POPC   NC3 5819  15.145  36.095   9.450
 3478POPC   PO4 5820  15.146  36.110   9.150
 3478POPC   GL1 5821  15.225  36.134   8.850
 3478POPC   GL2 5822  15.016  36.080   8.850
 3478POPC   C1A 5823  15.135  36.137   8.550
 3478POPC   D2A 5824  15.133  36.151   8.250
 3478POPC   C3A 5825  15.138  36.128   7.950
 3478POPC   C4A 5826  15.135  36.150   7.650
 3478POPC   C1B 5827  14.927  36.028   8.550
 3478POPC   C2B 5828  14.990  36.024   8.250
 3478POPC   C3B 5829  14.970  35.999   7.950
 3478POPC   C4B 5830  14.923  36.029   7.650
 3479POPC   NC3 5831  42.298  11.302   9.450
 3479POPC   PO4 5832  42.375  11.266   9.150
 3479POPC   GL1 5833  42.316  11.267   8.850
 3479POPC   GL2 5834  42.216  11.188   8.850
 3479POPC   C1A 5835  42.308  11.332   8.550
 3479POPC   D2A 5836  42.312  11.308   8.250
 3479POPC   C3A 5837  42.344  11.316   7.950
 3479POPC   C4A 5838  42.349  11.273   7.650
 3479POPC   C1B 5839  42.122  11.197   8.550
 3479POPC   C2B 5840  42.090  11.190   8.250
 3479POPC   C3B 5841  42.123  11.199   7.950
 3479POPC   C4B 5842  42.157  11.204   7.650
 3480POPC   NC3 5843   1.248  20.632   9.450
 3480POPC   PO4 5844   1.195  20.640   9.150
 3480POPC   GL1 5845   1.173  20.623   8.850
 3480POPC   GL2 5846   1.215  20.508   8.850
 3480POPC   C1A 5847   1.242  20.576   8.550
 3480POPC   D2A 5848   1.186  20.655   8.250
 3480POPC   C3A 5849   1.218  20.627   7.950
 3480POPC   C4A 5850   1.239  20.648   7.650
 3480POPC   C1B 5851   1.156  20.381   8.550
 3480POPC   C2B 5852   1.141  20.347   8.250
 3480POPC   C3B 5853   1.167  20.370   7.950
 3480POPC   C4B 5854   1.178  20.326   7.650
 3481POPC   NC3 5855   0.418  17.526   9.450
 3481POPC   PO4 5856   0.477  17.510   9.150
 3481POPC   GL1 5857   0.393  17.530   8.850
 3481POPC   GL2 5858   0.347  17.424   8.850
 3481POPC   C1A 5859   0.480  17.517   8.550
 3481POPC   D2A 5860   0.448  17.457   8.250
 3481POPC   C3A 5861   0.420  17.464   7.950
 3481POPC   C4A 5862   0.482  17.539   7.650
 3481POPC   C1B 5863   0.308  17.299   8.550
 3481POPC   C2B 5864   0.276  17.359   8.250
 3481POPC   C3B 5865   0.285  17.338   7.950
 3481POPC   C4B 5866   0.242  17.332   7.650
 3482POPC   NC3 5867  36.897  15.204   9.450
 3482POPC   PO4 5868  36.893  15.205   9.150
 3482POPC   GL1 5869  36.951  15.152   8.850
 3482POPC   GL2 5870  36.796  15.184   8.850
 3482POPC   C1A 5871  36.898  15.134   8.550
 3482POPC   D2A 5872  36.878  15.196   8.250
 3482POPC   C3A 5873  36.876  15.150   7.950
 3482POPC   C4A 5874  36.867  15.131   7.650
 3482POPC   C1B 5875  36.686  15.301   8.550
 3482POPC   C2B 5876  36.654  15.249   8.250
 3482POPC   C3B 5877  36.688  15.312   7.950
 3482POPC   C4B 5878  36.705  15.251   7.650
 3483POPC   NC3 5879  38.497   9.732   9.450
 3483POPC   PO4 5880  38.414   9.774   9.150
 3483POPC   GL1 5881  38.452   9.702   8.850
 3483POPC   GL2 5882  38.558   9.620   8.850
 3483POPC   C1A 5883  38.405   9.747   8.550
 3483POPC   D2A 5884  38.478   9.794   8.250
 3483POPC   C3A 5885  38.501   9.745   7.950
 3483POPC   C4A 5886  38.406   9.750   7.650
 3483POPC   C1B 5887  38.649   9.594   8.550
 3483POPC   C2B 5888  38.583   9.514   8.250
 3483POPC   C3B 5889  38.624   9.592   7.950
 3483POPC   C4B 5890  38.607   9.500   7.650
 3484POPC   NC3 5891  26.797  15.187   9.450
 3484POPC   PO4 5892  26.850  15.217   9.150
 3484POPC   GL1 5893  26.785  15.142   8.850
 3484POPC   GL2 5894  26.666  15.153   8.850
 3484POPC   C1A 5895  26.796  15.199   8.550
 3484POPC   D2A 5896  26.821  15.129   8.250
 3484POPC   C3A 5897  26.829  15.225   7.950
 3484POPC   C4A 5898  26.852  15.228   7.650
 3484POPC   C1B 5899  26.598  15.177   8.550
 3484POPC   C2B 5900  26.540  15.142   8.250
 3484POPC   C3B 5901  26.605  15.137   7.950
 3484POPC   C4B 5902  26.600  15.121   7.650
 3485POPC   NC3 5903  28.361   4.323   9.450
 3485POPC   PO4 5904  28.375   4.348   9.150
 3485POPC   GL1 5905  28.342   4.274   8.850
 3485POPC   GL2 5906  28.441   4.368   8.850
 3485POPC   C1A 5907  28.352   4.290   8.550
 3485POPC   D2A 5908  28.376   4.339   8.250
 3485POPC   C3A 5909  28.339   4.268   7.950
 3485POPC   C4A 5910  28.397   4.313   7.650
 3485POPC   C1B 5911  28.575   4.546   8.550
 3485POPC   C2B 5912  28.551   4.489   8.250
 3485POPC   C3B 5913  28.482   4.556   7.950
 3485POPC   C4B 5914  28.494   4.474   7.650
 3486POPC   NC3 5915  15.210  35.351   9.450
 3486POPC   PO4 5916  15.160  35.379   9.150
 3486POPC   GL1 5917  15.217  35.364   8.850
 3486POPC   GL2 5918  15.149  35.442   8.850
 3486POPC   C1A 5919  15.139  35.310   8.550
 3486POPC   D2A 5920  15.222  35.352   8.250
 3486POPC   C3A 5921  15.200  35.360   7.950
 3486POPC   C4A 5922  15.199  35.396   7.650
 3486POPC   C1B 5923  15.168  35.643   8.550
 3486POPC   C2B 5924  15.133  35.618   8.250
 3486POPC   C3B 5925  15.134  35.611   7.950
 3486POPC   C4B 5926  15.161  35.641   7.650
 3487POPC   NC3 5927  18.312   9.717   9.450
 3487POPC   PO4 5928  18.250   9.781   9.150
 3487POPC   GL1 5929  18.249   9.732   8.850
 3487POPC   GL2 5930  18.125   9.749   8.850
 3487POPC   C1A 5931  18.272   9.769   8.550
 3487POPC   D2A 5932  18.271   9.698   8.250
 3487POPC   C3A 5933  18.302   9.774   7.950
 3487POPC   C4A 5934  18.240   9.745   7.650
 3487POPC   C1B 5935  18.078   9.610   8.550
 3487POPC   C2B 5936  18.079   9.634   8.250
 3487POPC   C3B 5937  18.096   9.684   7.950
 3487POPC   C4B 5938  18.085   9.701   7.650
 3488POPC   NC3 5939  43.892   9.739   9.450
 3488POPC   PO4 5940  43.905   9.714   9.150
 3488POPC   GL1 5941  43.861   9.712   8.850
 3488POPC   GL2 5942  43.825   9.906   8.850
 3488POPC   C1A 5943  43.918   9.751   8.550
 3488POPC   D2A 5944  43.883   9.724   8.250
 3488POPC   C3A 5945  43.915   9.709   7.950
 3488POPC   C4A 5946  43.848   9.727   7.650
 3488POPC   C1B 5947  43.737  10.019   8.550
 3488POPC   C2B 5948  43.789  10.010   8.250
 3488POPC   C3B 5949  43.815   9.974   7.950
 3488POPC   C4B 5950  43.825   9.995   7.650
 3489POPC   NC3 5951  13.617  40.749   9.450
 3489POPC   PO4 5952  13.675  40.773   9.150
 3489POPC   GL1 5953  13.663  40.804   8.850
 3489POPC   GL2 5954  13.544  40.934   8.850
 3489POPC   C1A 5955  13.605  40.831   8.550
 3489POPC   D2A 5956  13.640  40.737   8.250
 3489POPC   C3A 5957  13.635  40.791   7.950
 3489POPC   C4A 5958  13.653  40.802   7.650
 3489POPC   C1B 5959  13.518  41.034   8.550
 3489POPC   C2B 5960  13.562  41.032   8.250
 3489POPC   C3B 5961  13.568  41.049   7.950
 3489POPC   C4B 5962  13.518  41.057   7.650
 3490POPC   NC3 5963  42.346   8.932   9.450
 3490POPC   PO4 5964  42.296   8.946   9.150
 3490POPC   GL1 5965  42.327   8.964   8.850
 3490POPC   GL2 5966  42.320   8.817   8.850
 3490POPC   C1A 5967  42.365   8.946   8.550
 3490POPC   D2A 5968  42.333   9.007   8.250
 3490POPC   C3A 5969  42.356   8.944   7.950
 3490POPC   C4A 5970  42.360   8.982   7.650
 3490POPC   C1B 5971  42.285   8.704   8.550
 3490POPC   C2B 5972  42.319   8.696   8.250
 3490POPC   C3B 5973  42.241   8.778   7.950
 3490POPC   C4B 5974  42.318   8.681   7.650
 3491POPC   NC3 5975  43.146   9.767   9.450
 3491POPC   PO4 5976  43.106   9.716   9.150
 3491POPC   GL1 5977  43.155   9.730   8.850
 3491POPC   GL2 5978  42.953   9.716   8.850
 3491POPC   C1A 5979  43.157   9.724   8.550
 3491POPC   D2A 5980  43.143   9.764   8.250
 3491POPC   C3A 5981  43.097   9.781   7.950
 3491POPC   C4A 5982  43.072   9.793   7.650
 3491POPC   C1B 5983  42.890   9.685   8.550
 3491POPC   C2B 5984  42.840   9.667   8.250
 3491POPC   C3B 5985  42.903   9.604   7.950
 3491POPC   C4B 5986  42.893   9.616   7.650
 3492POPC   NC3 5987  35.371  10.518   9.450
 3492POPC   PO4 5988  35.307  10.558   9.150
 3492POPC   GL1 5989  35.344  10.566   8.850
 3492POPC   GL2 5990  35.201  10.556   8.850
 3492POPC   C1A 5991  35.391  10.509   8.550
 3492POPC   D2A 5992  35.309  10.519   8.250
 3492POPC   C3A 5993  35.347  10.478   7.950
 3492POPC   C4A 5994  35.311  10.571   7.650
 3492POPC   C1B 5995  35.175  10.691   8.550
 3492POPC   C2B 5996  35.121  10.625   8.250
 3492POPC   C3B 5997  35.172  10.661   7.950
 3492POPC   C4B 5998  35.112  10.602   7.650
 3493POPC   NC3 5999  16.776  16.689   9.450
 3493POPC   PO4 6000  16.733  16.750   9.150
 3493POPC   GL1 6001  16.772  16.736   8.850
 3493POPC   GL2 6002  16.829  16.841   8.850
 3493POPC   C1A 6003  16.701  16.691   8.550
 3493POPC   D2A 6004  16.696  16.692   8.250
 3493POPC   C3A 6005  16.752  16.739   7.950
 3493POPC   C4A 6006  16.691  16.699   7.650
 3493POPC   C1B 6007  16.943  16.823   8.550
 3493POPC   C2B 6008  16.932  16.879   8.250
 3493POPC   C3B 6009  16.905  16.833   7.950
 3493POPC   C4B 6010  16.965  16.832   7.650
 3494POPC   NC3 6011  31.458   9.009   9.450
 3494POPC   PO4 6012  31.482   8.949   9.150
 3494POPC   GL1 6013  31.522   8.941   8.850
 3494POPC   GL2 6014  31.476   8.892   8.850
 3494POPC   C1A 6015  31.516   8.982   8.550
 3494POPC   D2A 6016  31.469   8.999   8.250
 3494POPC   C3A 6017  31.423   9.021   7.950
 3494POPC   C4A 6018  31.516   8.974   7.650
 3494POPC   C1B 6019  31.500   8.727   8.550
 3494POPC   C2B 6020  31.474   8.712   8.250
 3494POPC   C3B 6021  31.535   8.743   7.950
 3494POPC   C4B 6022  31.502   8.716   7.650
 3495POPC   NC3 6023  17.554  37.717   9.450
 3495POPC   PO4 6024  17.538  37.658   9.150
 3495POPC   GL1 6025  17.550  37.680   8.850
 3495POPC   GL2 6026  17.439  37.808   8.850
 3495POPC   C1A 6027  17.526  37.657   8.550
 3495POPC   D2A 6028  17.532  37.694   8.250
 3495POPC   C3A 6029  17.483  37.686   7.950
 3495POPC   C4A 6030  17.516  37.728   7.650
 3495POPC   C1B 6031  17.408  37.940   8.550
 3495POPC   C2B 6032  17.449  37.923   8.250
 3495POPC   C3B 6033  17.389  37.955   7.950
 3495POPC   C4B 6034  17.409  37.896   7.650
 3496POPC   NC3 6035  27.546  29.966   9.450
 3496POPC   PO4 6036  27.602  29.877   9.150
 3496POPC   GL1 6037  27.607  29.955   8.850
 3496POPC   GL2 6038  27.673  29.820   8.850
 3496POPC   C1A 6039  27.566  29.945   8.550
 3496POPC   D2A 6040  27.602  29.969   8.250
 3496POPC   C3A 6041  27.625  29.918   7.950
 3496POPC   C4A 6042  27.555  29.891   7.650
 3496POPC   C1B 6043  27.724  29.712   8.550
 3496POPC   C2B 6044  27.742  29.719   8.250
 3496POPC   C3B 6045  27.723  29.693   7.950
 3496POPC   C4B 6046  27.780  29.692   7.650
 3497POPC   NC3 6047  25.243  39.989   9.450
 3497POPC   PO4 6048  25.231  40.054   9.150
 3497POPC   GL1 6049  25.217  40.026   8.850
 3497POPC   GL2 6050  25.169  40.145   8.850
 3497POPC   C1A 6051  25.314  40.023   8.550
 3497POPC   D2A 6052  25.298  39.977   8.250
 3497POPC   C3A 6053  25.278  40.025   7.950
 3497POPC   C4A 6054  25.221  40.034   7.650
 3497POPC   C1B 6055  25.088  40.237   8.550
 3497POPC   C2B 6056  25.094  40.171   8.250
 3497POPC   C3B 6057  25.083  40.212   7.950
 3497POPC   C4B 6058  25.124  40.251   7.650
 3498POPC   NC3 6059  36.906  28.381   9.450
 3498POPC   PO4 6060  36.871  28.343   9.150
 3498POPC   GL1 6061  36.877  28.386   8.850
 3498POPC   GL2 6062  36.811  28.510   8.850
 3498POPC   C1A 6063  36.885  28.401   8.550
 3498POPC   D2A 6064  36.866  28.389   8.250
 3498POPC   C3A 6065  36.914  28.403   7.950
 3498POPC   C4A 6066  36.943  28.396   7.650
 3498POPC   C1B 6067  36.800  28.567   8.550
 3498POPC   C2B 6068  36.743  28.606   8.250
 3498POPC   C3B 6069  36.795  28.560   7.950
 3498POPC   C4B 6070  36.757  28.583   7.650
 3499POPC   NC3 6071  43.924  28.321   9.450
 3499POPC   PO4 6072  43.881  28.330   9.150
 3499POPC   GL1 6073  43.908  28.376   8.850
 3499POPC   GL2 6074  43.784  28.408   8.850
 3499POPC   C1A 6075  43.899  28.326   8.550
 3499POPC   D2A 6076  43.886  28.350   8.250
 3499POPC   C3A 6077  43.912  28.382   7.950
 3499POPC   C4A 6078  43.860  28.352   7.650
 3499POPC   C1B 6079  43.691  28.514   8.550
 3499POPC   C2B 6080  43.664  28.546   8.250
 3499POPC   C3B 6081  43.746  28.580   7.950
 3499POPC   C4B 6082  43.690  28.510   7.650
 3500POPC   NC3 6083  25.994  43.148   9.450
 3500POPC   PO4 6084  25.997  43.087   9.150
 3500POPC   GL1 6085  26.072  43.087   8.850
 3500POPC   GL2 6086  26.016  43.018   8.850
 3500POPC   C1A 6087  26.014  43.088   8.550
 3500POPC   D2A 6088  26.063  43.069   8.250
 3500POPC   C3A 6089  25.999  43.135   7.950
 3500POPC   C4A 6090  26.066  43.089   7.650
 3500POPC   C1B 6091  25.988  42.873   8.550
 3500POPC   C2B 6092  26.038  42.880   8.250
 3500POPC   C3B 6093  25.987  42.877   7.950
 3500POPC   C4B 6094  26.011  42.828   7.650
 3501POPC   NC3 6095  29.912  41.539   9.450
 3501POPC   PO4 6096  29.920  41.567   9.150
 3501POPC   GL1 6097  29.933  41.510   8.850
 3501POPC   GL2 6098  29.813  41.639   8.850
 3501POPC   C1A 6099  29.883  41.564   8.550
 3501POPC   D2A 6100  29.907  41.583   8.250
 3501POPC   C3A 6101  29.965  41.556   7.950
 3501POPC   C4A 6102  29.914  41.585   7.650
 3501POPC   C1B 6103  29.694  41.655   8.550
 3501POPC   C2B 6104  29.649  41.615   8.250
 3501POPC   C3B 6105  29.644  41.655   7.950
 3501POPC   C4B 6106  29.682  41.669   7.650
 3502POPC   NC3 6107   8.933  26.072   9.450
 3502POPC   PO4 6108   8.956  26.052   9.150
 3502POPC   GL1 6109   8.950  26.003   8.850
 3502POPC   GL2 6110   8.876  25.959   8.850
 3502POPC   C1A 6111   8.978  26.090   8.550
 3502POPC   D2A 6112   9.020  26.002   8.250
 3502POPC   C3A 6113   9.005  26.018   7.950
 3502POPC   C4A 6114   9.002  26.061   7.650
 3502POPC   C1B 6115   8.836  25.878   8.550
 3502POPC   C2B 6116   8.826  25.817   8.250
 3502POPC   C3B 6117   8.873  25.850   7.950
 3502POPC   C4B 6118   8.805  25.817   7.650
 3503POPC   NC3 6119   5.830  31.521   9.450
 3503POPC   PO4 6120   5.913  31.449   9.150
 3503POPC   GL1 6121   5.866  31.450   8.850
 3503POPC   GL2 6122   5.825  31.642   8.850
 3503POPC   C1A 6123   5.861  31.466   8.550
 3503POPC   D2A 6124   5.871  31.494   8.250
 3503POPC   C3A 6125   5.825  31.435   7.950
 3503POPC   C4A 6126   5.846  31.495   7.650
 3503POPC   C1B 6127   5.781  31.737   8.550
 3503POPC   C2B 6128   5.849  31.724   8.250
 3503POPC   C3B 6129   5.791  31.734   7.950
 3503POPC   C4B 6130   5.766  31.700   7.650
 3504POPC   NC3 6131   9.796  39.986   9.450
 3504POPC   PO4 6132   9.739  39.990   9.150
 3504POPC   GL1 6133   9.699  40.030   8.850
 3504POPC   GL2 6134   9.831  39.912   8.850
 3504POPC   C1A 6135   9.729  40.026   8.550
 3504POPC   D2A 6136   9.742  40.006   8.250
 3504POPC   C3A 6137   9.781  39.979   7.950
 3504POPC   C4A 6138   9.712  39.960   7.650
 3504POPC   C1B 6139   9.810  39.794   8.550
 3504POPC   C2B 6140   9.844  39.812   8.250
 3504POPC   C3B 6141   9.835  39.782   7.950
 3504POPC   C4B 6142   9.873  39.802   7.650
 3505POPC   NC3 6143  36.871  19.072   9.450
 3505POPC   PO4 6144  36.948  19.036   9.150
 3505POPC   GL1 6145  36.854  19.034   8.850
 3505POPC   GL2 6146  36.803  19.027   8.850
 3505POPC   C1A 6147  36.859  19.057   8.550
 3505POPC   D2A 6148  36.937  19.053   8.250
 3505POPC   C3A 6149  36.947  19.021   7.950
 3505POPC   C4A 6150  36.867  19.013   7.650
 3505POPC   C1B 6151  36.671  18.945   8.550
 3505POPC   C2B 6152  36.703  18.906   8.250
 3505POPC   C3B 6153  36.731  18.885   7.950
 3505POPC   C4B 6154  36.697  18.910   7.650
 3506POPC   NC3 6155  41.515   6.610   9.450
 3506POPC   PO4 6156  41.581   6.606   9.150
 3506POPC   GL1 6157  41.587   6.645   8.850
 3506POPC   GL2 6158  41.460   6.563   8.850
 3506POPC   C1A 6159  41.602   6.596   8.550
 3506POPC   D2A 6160  41.536   6.654   8.250
 3506POPC   C3A 6161  41.548   6.684   7.950
 3506POPC   C4A 6162  41.536   6.622   7.650
 3506POPC   C1B 6163  41.439   6.435   8.550
 3506POPC   C2B 6164  41.470   6.413   8.250
 3506POPC   C3B 6165  41.482   6.443   7.950
 3506POPC   C4B 6166  41.468   6.388   7.650
 3507POPC   NC3 6167  33.000  40.784   9.450
 3507POPC   PO4 6168  32.997  40.819   9.150
 3507POPC   GL1 6169  32.999  40.825   8.850
 3507POPC   GL2 6170  32.954  40.915   8.850
 3507POPC   C1A 6171  33.006  40.795   8.550
 3507POPC   D2A 6172  33.064  40.742   8.250
 3507POPC   C3A 6173  33.043  40.813   7.950
 3507POPC   C4A 6174  33.057  40.791   7.650
 3507POPC   C1B 6175  32.935  41.033   8.550
 3507POPC   C2B 6176  32.943  41.002   8.250
 3507POPC   C3B 6177  33.012  41.053   7.950
 3507POPC   C4B 6178  33.020  40.979   7.650
 3508POPC   NC3 6179  30.723  14.365   9.450
 3508POPC   PO4 6180  30.743  14.440   9.150
 3508POPC   GL1 6181  30.685  14.421   8.850
 3508POPC   GL2 6182  30.827  14.367   8.850
 3508POPC   C1A 6183  30.694  14.419   8.550
 3508POPC   D2A 6184  30.733  14.447   8.250
 3508POPC   C3A 6185  30.742  14.452   7.950
 3508POPC   C4A 6186  30.729  14.373   7.650
 3508POPC   C1B 6187  30.910  14.334   8.550
 3508POPC   C2B 6188  30.975  14.362   8.250
 3508POPC   C3B 6189  30.920  14.347   7.950
 3508POPC   C4B 6190  30.985  14.377   7.650
 3509POPC   NC3 6191  43.133   8.215   9.450
 3509POPC   PO4 6192  43.091   8.209   9.150
 3509POPC   GL1 6193  43.069   8.211   8.850
 3509POPC   GL2 6194  43.201   8.159   8.850
 3509POPC   C1A 6195  43.132   8.160   8.550
 3509POPC   D2A 6196  43.138   8.218   8.250
 3509POPC   C3A 6197  43.150   8.203   7.950
 3509POPC   C4A 6198  43.103   8.223   7.650
 3509POPC   C1B 6199  43.272   8.086   8.550
 3509POPC   C2B 6200  43.355   8.036   8.250
 3509POPC   C3B 6201  43.323   8.027   7.950
 3509POPC   C4B 6202  43.289   8.068   7.650
 3510POPC   NC3 6203  32.989  35.340   9.450
 3510POPC   PO4 6204  32.979  35.401   9.150
 3510POPC   GL1 6205  33.031  35.353   8.850
 3510POPC   GL2 6206  33.010  35.466   8.850
 3510POPC   C1A 6207  33.009  35.373   8.550
 3510POPC   D2A 6208  33.016  35.321   8.250
 3510POPC   C3A 6209  33.009  35.313   7.950
 3510POPC   C4A 6210  33.052  35.388   7.650
 3510POPC   C1B 6211  33.056  35.647   8.550
 3510POPC   C2B 6212  33.000  35.614   8.250
 3510POPC   C3B 6213  33.022  35.573   7.950
 3510POPC   C4B 6214  32.992  35.599   7.650
 3511POPC   NC3 6215  37.673  22.211   9.450
 3511POPC   PO4 6216  37.717  22.206   9.150
 3511POPC   GL1 6217  37.690  22.161   8.850
 3511POPC   GL2 6218  37.557  22.192   8.850
 3511POPC   C1A 6219  37.715  22.156   8.550
 3511POPC   D2A 6220  37.681  22.135   8.250
 3511POPC   C3A 6221  37.652  22.160   7.950
 3511POPC   C4A 6222  37.648  22.138   7.650
 3511POPC   C1B 6223  37.419  22.160   8.550
 3511POPC   C2B 6224  37.401  22.130   8.250
 3511POPC   C3B 6225  37.383  22.108   7.950
 3511POPC   C4B 6226  37.437  22.123   7.650
 3512POPC   NC3 6227   6.688  36.932   9.450
 3512POPC   PO4 6228   6.692  36.927   9.150
 3512POPC   GL1 6229   6.601  36.940   8.850
 3512POPC   GL2 6230   6.732  36.954   8.850
 3512POPC   C1A 6231   6.663  36.854   8.550
 3512POPC   D2A 6232   6.673  36.880   8.250
 3512POPC   C3A 6233   6.642  36.917   7.950
 3512POPC   C4A 6234   6.637  36.876   7.650
 3512POPC   C1B 6235   6.935  36.925   8.550
 3512POPC   C2B 6236   6.917  36.965   8.250
 3512POPC   C3B 6237   6.901  36.936   7.950
 3512POPC   C4B 6238   6.897  36.982   7.650
 3513POPC   NC3 6239  10.515  20.608   9.450
 3513POPC   PO4 6240  10.482  20.624   9.150
 3513POPC   GL1 6241  10.523  20.642   8.850
 3513POPC   GL2 6242  10.522  20.462   8.850
 3513POPC   C1A 6243  10.484  20.589   8.550
 3513POPC   D2A 6244  10.497  20.660   8.250
 3513POPC   C3A 6245  10.489  20.653   7.950
 3513POPC   C4A 6246  10.556  20.585   7.650
 3513POPC   C1B 6247  10.445  20.330   8.550
 3513POPC   C2B 6248  10.490  20.350   8.250
 3513POPC   C3B 6249  10.470  20.386   7.950
 3513POPC   C4B 6250  10.439  20.376   7.650
 3514POPC   NC3 6251  33.780   6.631   9.450
 3514POPC   PO4 6252  33.811   6.665   9.150
 3514POPC   GL1 6253  33.792   6.608   8.850
 3514POPC   GL2 6254  33.680   6.532   8.850
 3514POPC   C1A 6255  33.823   6.598   8.550
 3514POPC   D2A 6256  33.836   6.692   8.250
 3514POPC   C3A 6257  33.790   6.660   7.950
 3514POPC   C4A 6258  33.772   6.691   7.650
 3514POPC   C1B 6259  33.603   6.492   8.550
 3514POPC   C2B 6260  33.602   6.440   8.250
 3514POPC   C3B 6261  33.679   6.451   7.950
 3514POPC   C4B 6262  33.619   6.477   7.650
 3515POPC   NC3 6263  14.411   4.364   9.450
 3515POPC   PO4 6264  14.362   4.286   9.150
 3515POPC   GL1 6265  14.444   4.316   8.850
 3515POPC   GL2 6266  14.317   4.411   8.850
 3515POPC   C1A 6267  14.382   4.363   8.550
 3515POPC   D2A 6268  14.391   4.289   8.250
 3515POPC   C3A 6269  14.429   4.303   7.950
 3515POPC   C4A 6270  14.399   4.324   7.650
 3515POPC   C1B 6271  14.297   4.522   8.550
 3515POPC   C2B 6272  14.303   4.509   8.250
 3515POPC   C3B 6273  14.353   4.599   7.950
 3515POPC   C4B 6274  14.321   4.603   7.650
 3516POPC   NC3 6275   9.738  36.145   9.450
 3516POPC   PO4 6276   9.748  36.086   9.150
 3516POPC   GL1 6277   9.747  36.081   8.850
 3516POPC   GL2 6278   9.879  36.011   8.850
 3516POPC   C1A 6279   9.787  36.101   8.550
 3516POPC   D2A 6280   9.732  36.122   8.250
 3516POPC   C3A 6281   9.773  36.101   7.950
 3516POPC   C4A 6282   9.735  36.110   7.650
 3516POPC   C1B 6283   9.960  35.914   8.550
 3516POPC   C2B 6284   9.909  35.998   8.250
 3516POPC   C3B 6285   9.941  35.972   7.950
 3516POPC   C4B 6286   9.887  35.913   7.650
 3517POPC   NC3 6287  16.683  11.332   9.450
 3517POPC   PO4 6288  16.769  11.256   9.150
 3517POPC   GL1 6289  16.766  11.341   8.850
 3517POPC   GL2 6290  16.824  11.313   8.850
 3517POPC   C1A 6291  16.773  11.277   8.550
 3517POPC   D2A 6292  16.751  11.331   8.250
 3517POPC   C3A 6293  16.766  11.292   7.950
 3517POPC   C4A 6294  16.764  11.278   7.650
 3517POPC   C1B 6295  16.987  11.357   8.550
 3517POPC   C2B 6296  17.010  11.345   8.250
 3517POPC   C3B 6297  16.973  11.354   7.950
 3517POPC   C4B 6298  16.971  11.407   7.650
 3518POPC   NC3 6299   5.090  40.827   9.450
 3518POPC   PO4 6300   5.124  40.735   9.150
 3518POPC   GL1 6301   5.079  40.761   8.850
 3518POPC   GL2 6302   5.027  40.717   8.850
 3518POPC   C1A 6303   5.110  40.819   8.550
 3518POPC   D2A 6304   5.127  40.795   8.250
 3518POPC   C3A 6305   5.060  40.801   7.950
 3518POPC   C4A 6306   5.101  40.734   7.650
 3518POPC   C1B 6307   4.942  40.578   8.550
 3518POPC   C2B 6308   4.950  40.605   8.250
 3518POPC   C3B 6309   4.911  40.644   7.950
 3518POPC   C4B 6310   4.946  40.611   7.650
 3519POPC   NC3 6311  36.906  17.488   9.450
 3519POPC   PO4 6312  36.873  17.477   9.150
 3519POPC   GL1 6313  36.901  17.499   8.850
 3519POPC   GL2 6314  36.914  17.378   8.850
 3519POPC   C1A 6315  36.893  17.504   8.550
 3519POPC   D2A 6316  36.881  17.502   8.250
 3519POPC   C3A 6317  36.924  17.556   7.950
 3519POPC   C4A 6318  36.862  17.470   7.650
 3519POPC   C1B 6319  36.826  17.264   8.550
 3519POPC   C2B 6320  36.911  17.221   8.250
 3519POPC   C3B 6321  36.859  17.246   7.950
 3519POPC   C4B 6322  36.836  17.276   7.650
 3520POPC   NC3 6323   5.089  36.882   9.450
 3520POPC   PO4 6324   5.082  36.928   9.150
 3520POPC   GL1 6325   5.102  36.876   8.850
 3520POPC   GL2 6326   4.942  36.821   8.850
 3520POPC   C1A 6327   5.096  36.927   8.550
 3520POPC   D2A 6328   5.076  36.888   8.250
 3520POPC   C3A 6329   5.124  36.895   7.950
 3520POPC   C4A 6330   5.078  36.878   7.650
 3520POPC   C1B 6331   4.828  36.780   8.550
 3520POPC   C2B 6332   4.815  36.867   8.250
 3520POPC   C3B 6333   4.888  36.849   7.950
 3520POPC   C4B 6334   4.870  36.866   7.650
 3521POPC   NC3 6335  22.910  13.618   9.450
 3521POPC   PO4 6336  22.939  13.629   9.150
 3521POPC   GL1 6337  22.962  13.580   8.850
 3521POPC   GL2 6338  22.887  13.468   8.850
 3521POPC   C1A 6339  22.977  13.592   8.550
 3521POPC   D2A 6340  22.959  13.672   8.250
 3521POPC   C3A 6341  22.950  13.600   7.950
 3521POPC   C4A 6342  22.926  13.677   7.650
 3521POPC   C1B 6343  22.871  13.422   8.550
 3521POPC   C2B 6344  22.880  13.382   8.250
 3521POPC   C3B 6345  22.893  13.344   7.950
 3521POPC   C4B 6346  22.870  13.407   7.650
 3522POPC   NC3 6347  15.981  29.163   9.450
 3522POPC   PO4 6348  15.925  29.175   9.150
 3522POPC   GL1 6349  15.908  29.162   8.850
 3522POPC   GL2 6350  15.983  29.051   8.850
 3522POPC   C1A 6351  15.980  29.113   8.550
 3522POPC   D2A 6352  15.969  29.101   8.250
 3522POPC   C3A 6353  15.954  29.165   7.950
 3522POPC   C4A 6354  15.999  29.118   7.650
 3522POPC   C1B 6355  15.940  28.860   8.550
 3522POPC   C2B 6356  15.913  28.938   8.250
 3522POPC   C3B 6357  15.883  28.920   7.950
 3522POPC   C4B 6358  15.874  28.930   7.650
 3523POPC   NC3 6359  14.367   9.722   9.450
 3523POPC   PO4 6360  14.379   9.723   9.150
 3523POPC   GL1 6361  14.395   9.719   8.850
 3523POPC   GL2 6362  14.312   9.610   8.850
 3523POPC   C1A 6363  14.427   9.745   8.550
 3523POPC   D2A 6364  14.381   9.779   8.250
 3523POPC   C3A 6365  14.369   9.788   7.950
 3523POPC   C4A 6366  14.439   9.748   7.650
 3523POPC   C1B 6367  14.315   9.472   8.550
 3523POPC   C2B 6368  14.291   9.492   8.250
 3523POPC   C3B 6369  14.330   9.505   7.950
 3523POPC   C4B 6370  14.338   9.529   7.650
 3524POPC   NC3 6371   9.789  32.996   9.450
 3524POPC   PO4 6372   9.721  33.032   9.150
 3524POPC   GL1 6373   9.775  33.016   8.850
 3524POPC   GL2 6374   9.682  32.963   8.850
 3524POPC   C1A 6375   9.713  33.008   8.550
 3524POPC   D2A 6376   9.744  33.020   8.250
 3524POPC   C3A 6377   9.727  33.068   7.950
 3524POPC   C4A 6378   9.705  33.046   7.650
 3524POPC   C1B 6379   9.637  32.825   8.550
 3524POPC   C2B 6380   9.606  32.789   8.250
 3524POPC   C3B 6381   9.585  32.813   7.950
 3524POPC   C4B 6382   9.586  32.811   7.650
 3525POPC   NC3 6383  36.918  31.522   9.450
 3525POPC   PO4 6384  36.904  31.512   9.150
 3525POPC   GL1 6385  36.866  31.454   8.850
 3525POPC   GL2 6386  36.959  31.392   8.850
 3525POPC   C1A 6387  36.888  31.500   8.550
 3525POPC   D2A 6388  36.923  31.486   8.250
 3525POPC   C3A 6389  36.876  31.423   7.950
 3525POPC   C4A 6390  36.896  31.510   7.650
 3525POPC   C1B 6391  37.046  31.239   8.550
 3525POPC   C2B 6392  37.092  31.304   8.250
 3525POPC   C3B 6393  37.061  31.252   7.950
 3525POPC   C4B 6394  37.034  31.300   7.650
 3526POPC   NC3 6395  32.279  43.121   9.450
 3526POPC   PO4 6396  32.235  43.141   9.150
 3526POPC   GL1 6397  32.204  43.145   8.850
 3526POPC   GL2 6398  32.303  43.199   8.850
 3526POPC   C1A 6399  32.223  43.109   8.550
 3526POPC   D2A 6400  32.232  43.136   8.250
 3526POPC   C3A 6401  32.269  43.131   7.950
 3526POPC   C4A 6402  32.252  43.076   7.650
 3526POPC   C1B 6403  32.322  43.312   8.550
 3526POPC   C2B 6404  32.306  43.389   8.250
 3526POPC   C3B 6405  32.333  43.357   7.950
 3526POPC   C4B 6406  32.316  43.327   7.650
 3527POPC   NC3 6407  16.699   3.577   9.450
 3527POPC   PO4 6408  16.719   3.535   9.150
 3527POPC   GL1 6409  16.750   3.533   8.850
 3527POPC   GL2 6410  16.821   3.464   8.850
 3527POPC   C1A 6411  16.769   3.563   8.550
 3527POPC   D2A 6412  16.727   3.509   8.250
 3527POPC   C3A 6413  16.776   3.502   7.950
 3527POPC   C4A 6414  16.748   3.492   7.650
 3527POPC   C1B 6415  16.892   3.358   8.550
 3527POPC   C2B 6416  16.862   3.306   8.250
 3527POPC   C3B 6417  16.916   3.325   7.950
 3527POPC   C4B 6418  16.870   3.322   7.650
 3528POPC   NC3 6419  31.464  36.092   9.450
 3528POPC   PO4 6420  31.500  36.116   9.150
 3528POPC   GL1 6421  31.427  36.175   8.850
 3528POPC   GL2 6422  31.489  35.971   8.850
 3528POPC   C1A 6423  31.490  36.089   8.550
 3528POPC   D2A 6424  31.500  36.105   8.250
 3528POPC   C3A 6425  31.511  36.080   7.950
 3528POPC   C4A 6426  31.423  36.108   7.650
 3528POPC   C1B 6427  31.576  35.853   8.550
 3528POPC   C2B 6428  31.507  35.910   8.250
 3528POPC   C3B 6429  31.531  35.895   7.950
 3528POPC   C4B 6430  31.500  35.933   7.650
 3529POPC   NC3 6431   3.538   7.457   9.450
 3529POPC   PO4 6432   3.504   7.396   9.150
 3529POPC   GL1 6433   3.541   7.470   8.850
 3529POPC   GL2 6434   3.392   7.438   8.850
 3529POPC   C1A 6435   3.507   7.402   8.550
 3529POPC   D2A 6436   3.569   7.388   8.250
 3529POPC   C3A 6437   3.587   7.386   7.950
 3529POPC   C4A 6438   3.517   7.461   7.650
 3529POPC   C1B 6439   3.301   7.373   8.550
 3529POPC   C2B 6440   3.267   7.375   8.250
 3529POPC   C3B 6441   3.292   7.369   7.950
 3529POPC   C4B 6442   3.267   7.373   7.650
 3530POPC   NC3 6443  41.550  38.497   9.450
 3530POPC   PO4 6444  41.596  38.492   9.150
 3530POPC   GL1 6445  41.583  38.501   8.850
 3530POPC   GL2 6446  41.668  38.473   8.850
 3530POPC   C1A 6447  41.553  38.498   8.550
 3530POPC   D2A 6448  41.534  38.478   8.250
 3530POPC   C3A 6449  41.603  38.455   7.950
 3530POPC   C4A 6450  41.562  38.411   7.650
 3530POPC   C1B 6451  41.803  38.560   8.550
 3530POPC   C2B 6452  41.766  38.552   8.250
 3530POPC   C3B 6453  41.746  38.548   7.950
 3530POPC   C4B 6454  41.815  38.610   7.650
 3531POPC   NC3 6455  19.061  31.460   9.450
 3531POPC   PO4 6456  19.027  31.438   9.150
 3531POPC   GL1 6457  19.102  31.517   8.850
 3531POPC   GL2 6458  18.940  31.487   8.850
 3531POPC   C1A 6459  19.096  31.482   8.550
 3531POPC   D2A 6460  19.067  31.455   8.250
 3531POPC   C3A 6461  19.013  31.480   7.950
 3531POPC   C4A 6462  19.062  31.511   7.650
 3531POPC   C1B 6463  18.814  31.494   8.550
 3531POPC   C2B 6464  18.819  31.527   8.250
 3531POPC   C3B 6465  18.762  31.531   7.950
 3531POPC   C4B 6466  18.769  31.466   7.650
 3532POPC   NC3 6467   8.949   4.298   9.450
 3532POPC   PO4 6468   9.016   4.296   9.150
 3532POPC   GL1 6469   8.929   4.274   8.850
 3532POPC   GL2 6470   9.034   4.170   8.850
 3532POPC   C1A 6471   8.923   4.284   8.550
 3532POPC   D2A 6472   8.949   4.341   8.250
 3532POPC   C3A 6473   9.013   4.280   7.950
 3532POPC   C4A 6474   8.945   4.287   7.650
 3532POPC   C1B 6475   9.136   4.082   8.550
 3532POPC   C2B 6476   9.108   4.135   8.250
 3532POPC   C3B 6477   9.078   4.166   7.950
 3532POPC   C4B 6478   9.103   4.101   7.650
 3533POPC   NC3 6479  20.582   2.742   9.450
 3533POPC   PO4 6480  20.575   2.741   9.150
 3533POPC   GL1 6481  20.596   2.770   8.850
 3533POPC   GL2 6482  20.692   2.803   8.850
 3533POPC   C1A 6483  20.569   2.757   8.550
 3533POPC   D2A 6484  20.565   2.775   8.250
 3533POPC   C3A 6485  20.631   2.758   7.950
 3533POPC   C4A 6486  20.594   2.803   7.650
 3533POPC   C1B 6487  20.873   2.789   8.550
 3533POPC   C2B 6488  20.888   2.798   8.250
 3533POPC   C3B 6489  20.814   2.779   7.950
 3533POPC   C4B 6490  20.834   2.867   7.650
 3534POPC   NC3 6491  40.779   6.646   9.450
 3534POPC   PO4 6492  40.817   6.688   9.150
 3534POPC   GL1 6493  40.808   6.673   8.850
 3534POPC   GL2 6494  40.623   6.732   8.850
 3534POPC   C1A 6495  40.784   6.640   8.550
 3534POPC   D2A 6496  40.797   6.650   8.250
 3534POPC   C3A 6497  40.792   6.627   7.950
 3534POPC   C4A 6498  40.776   6.690   7.650
 3534POPC   C1B 6499  40.552   6.715   8.550
 3534POPC   C2B 6500  40.503   6.689   8.250
 3534POPC   C3B 6501  40.516   6.750   7.950
 3534POPC   C4B 6502  40.520   6.760   7.650
 3535POPC   NC3 6503   0.406  43.149   9.450
 3535POPC   PO4 6504   0.462  43.159   9.150
 3535POPC   GL1 6505   0.438  43.077   8.850
 3535POPC   GL2 6506   0.443  43.274   8.850
 3535POPC   C1A 6507   0.475  43.149   8.550
 3535POPC   D2A 6508   0.406  43.092   8.250
 3535POPC   C3A 6509   0.435  43.075   7.950
 3535POPC   C4A 6510   0.466  43.150   7.650
 3535POPC   C1B 6511   0.545  43.363   8.550
 3535POPC   C2B 6512   0.476  43.399   8.250
 3535POPC   C3B 6513   0.513  43.308   7.950
 3535POPC   C4B 6514   0.494  43.316   7.650
 3536POPC   NC3 6515  26.823   7.389   9.450
 3536POPC   PO4 6516  26.846   7.413   9.150
 3536POPC   GL1 6517  26.801   7.372   8.850
 3536POPC   GL2 6518  26.819   7.344   8.850
 3536POPC   C1A 6519  26.850   7.460   8.550
 3536POPC   D2A 6520  26.813   7.454   8.250
 3536POPC   C3A 6521  26.863   7.374   7.950
 3536POPC   C4A 6522  26.838   7.426   7.650
 3536POPC   C1B 6523  26.750   7.201   8.550
 3536POPC   C2B 6524  26.755   7.211   8.250
 3536POPC   C3B 6525  26.766   7.213   7.950
 3536POPC   C4B 6526  26.722   7.182   7.650
 3537POPC   NC3 6527  17.469  28.373   9.450
 3537POPC   PO4 6528  17.488  28.396   9.150
 3537POPC   GL1 6529  17.487  28.398   8.850
 3537POPC   GL2 6530  17.630  28.316   8.850
 3537POPC   C1A 6531  17.490  28.389   8.550
 3537POPC   D2A 6532  17.486  28.355   8.250
 3537POPC   C3A 6533  17.552  28.367   7.950
 3537POPC   C4A 6534  17.526  28.372   7.650
 3537POPC   C1B 6535  17.704  28.172   8.550
 3537POPC   C2B 6536  17.665  28.163   8.250
 3537POPC   C3B 6537  17.679  28.158   7.950
 3537POPC   C4B 6538  17.730  28.178   7.650
 3538POPC   NC3 6539  32.217  30.708   9.450
 3538POPC   PO4 6540  32.229  30.670   9.150
 3538POPC   GL1 6541  32.269  30.668   8.850
 3538POPC   GL2 6542  32.146  30.664   8.850
 3538POPC   C1A 6543  32.241  30.699   8.550
 3538POPC   D2A 6544  32.217  30.734   8.250
 3538POPC   C3A 6545  32.276  30.743   7.950
 3538POPC   C4A 6546  32.273  30.740   7.650
 3538POPC   C1B 6547  31.972  30.639   8.550
 3538POPC   C2B 6548  31.977  30.615   8.250
 3538POPC   C3B 6549  31.966  30.637   7.950
 3538POPC   C4B 6550  31.986  30.606   7.650
 3539POPC   NC3 6551  19.017   1.174   9.450
 3539POPC   PO4 6552  19.030   1.176   9.150
 3539POPC   GL1 6553  19.051   1.195   8.850
 3539POPC   GL2 6554  19.036   1.088   8.850
 3539POPC   C1A 6555  19.065   1.240   8.550
 3539POPC   D2A 6556  19.022   1.213   8.250
 3539POPC   C3A 6557  19.090   1.237   7.950
 3539POPC   C4A 6558  19.080   1.246   7.650
 3539POPC   C1B 6559  19.000   0.984   8.550
 3539POPC   C2B 6560  19.026   0.999   8.250
 3539POPC   C3B 6561  18.995   1.008   7.950
 3539POPC   C4B 6562  19.014   0.957   7.650
 3540POPC   NC3 6563  26.033  33.752   9.450
 3540POPC   PO4 6564  25.992  33.845   9.150
 3540POPC   GL1 6565  26.045  33.830   8.850
 3540POPC   GL2 6566  26.008  33.884   8.850
 3540POPC   C1A 6567  26.013  33.839   8.550
 3540POPC   D2A 6568  26.054  33.825   8.250
 3540POPC   C3A 6569  26.022  33.820   7.950
 3540POPC   C4A 6570  26.068  33.767   7.650
 3540POPC   C1B 6571  25.903  34.026   8.550
 3540POPC   C2B 6572  25.974  34.042   8.250
 3540POPC   C3B 6573  25.995  34.054   7.950
 3540POPC   C4B 6574  25.941  33.992   7.650
 3541POPC   NC3 6575  34.544  32.267   9.450
 3541POPC   PO4 6576  34.574  32.205   9.150
 3541POPC   GL1 6577  34.549  32.272   8.850
 3541POPC   GL2 6578  34.563  32.359   8.850
 3541POPC   C1A 6579  34.532  32.288   8.550
 3541POPC   D2A 6580  34.569  32.212   8.250
 3541POPC   C3A 6581  34.558  32.248   7.950
 3541POPC   C4A 6582  34.583  32.231   7.650
 3541POPC   C1B 6583  34.601  32.536   8.550
 3541POPC   C2B 6584  34.621  32.458   8.250
 3541POPC   C3B 6585  34.617  32.533   7.950
 3541POPC   C4B 6586  34.540  32.514   7.650
 3542POPC   NC3 6587  16.699  15.936   9.450
 3542POPC   PO4 6588  16.706  15.993   9.150
 3542POPC   GL1 6589  16.684  15.916   8.850
 3542POPC   GL2 6590  16.794  16.084   8.850
 3542POPC   C1A 6591  16.733  15.984   8.550
 3542POPC   D2A 6592  16.706  15.980   8.250
 3542POPC   C3A 6593  16.706  15.906   7.950
 3542POPC   C4A 6594  16.770  15.946   7.650
 3542POPC   C1B 6595  16.903  16.138   8.550
 3542POPC   C2B 6596  16.896  16.136   8.250
 3542POPC   C3B 6597  16.825  16.141   7.950
 3542POPC   C4B 6598  16.836  16.164   7.650
 3543POPC   NC3 6599  23.759  10.561   9.450
 3543POPC   PO4 6600  23.697  10.555   9.150
 3543POPC   GL1 6601  23.702  10.491   8.850
 3543POPC   GL2 6602  23.882  10.598   8.850
 3543POPC   C1A 6603  23.749  10.547   8.550
 3543POPC   D2A 6604  23.741  10.533   8.250
 3543POPC   C3A 6605  23.665  10.530   7.950
 3543POPC   C4A 6606  23.701  10.571   7.650
 3543POPC   C1B 6607  23.956  10.538   8.550
 3543POPC   C2B 6608  23.981  10.572   8.250
 3543POPC   C3B 6609  23.997  10.618   7.950
 3543POPC   C4B 6610  23.961  10.594   7.650
 3544POPC   NC3 6611  43.061  24.511   9.450
 3544POPC   PO4 6612  43.088  24.536   9.150
 3544POPC   GL1 6613  43.091  24.490   8.850
 3544POPC   GL2 6614  43.014  24.565   8.850
 3544POPC   C1A 6615  43.108  24.465   8.550
 3544POPC   D2A 6616  43.099  24.446   8.250
 3544POPC   C3A 6617  43.107  24.452   7.950
 3544POPC   C4A 6618  43.114  24.450   7.650
 3544POPC   C1B 6619  42.841  24.522   8.550
 3544POPC   C2B 6620  42.881  24.585   8.250
 3544POPC   C3B 6621  42.858  24.529   7.950
 3544POPC   C4B 6622  42.852  24.547   7.650
 3545POPC   NC3 6623   5.873  17.458   9.450
 3545POPC   PO4 6624   5.855  17.475   9.150
 3545POPC   GL1 6625   5.901  17.489   8.850
 3545POPC   GL2 6626   5.963  17.467   8.850
 3545POPC   C1A 6627   5.882  17.553   8.550
 3545POPC   D2A 6628   5.841  17.520   8.250
 3545POPC   C3A 6629   5.902  17.525   7.950
 3545POPC   C4A 6630   5.854  17.551   7.650
 3545POPC   C1B 6631   6.094  17.348   8.550
 3545POPC   C2B 6632   6.020  17.398   8.250
 3545POPC   C3B 6633   6.061  17.375   7.950
 3545POPC   C4B 6634   6.113  17.375   7.650
 3546POPC   NC3 6635  36.915  21.363   9.450
 3546POPC   PO4 6636  36.876  21.347   9.150
 3546POPC   GL1 6637  36.873  21.347   8.850
 3546POPC   GL2 6638  36.950  21.476   8.850
 3546POPC   C1A 6639  36.945  21.418   8.550
 3546POPC   D2A 6640  36.942  21.385   8.250
 3546POPC   C3A 6641  36.930  21.342   7.950
 3546POPC   C4A 6642  36.947  21.374   7.650
 3546POPC   C1B 6643  36.944  21.593   8.550
 3546POPC   C2B 6644  36.892  21.634   8.250
 3546POPC   C3B 6645  36.975  21.605   7.950
 3546POPC   C4B 6646  36.891  21.623   7.650
 3547POPC   NC3 6647  29.898   4.325   9.450
 3547POPC   PO4 6648  29.941   4.287   9.150
 3547POPC   GL1 6649  29.969   4.292   8.850
 3547POPC   GL2 6650  29.834   4.396   8.850
 3547POPC   C1A 6651  29.911   4.354   8.550
 3547POPC   D2A 6652  29.932   4.326   8.250
 3547POPC   C3A 6653  29.895   4.305   7.950
 3547POPC   C4A 6654  29.928   4.332   7.650
 3547POPC   C1B 6655  29.728   4.453   8.550
 3547POPC   C2B 6656  29.708   4.486   8.250
 3547POPC   C3B 6657  29.759   4.446   7.950
 3547POPC   C4B 6658  29.717   4.475   7.650
 3548POPC   NC3 6659   0.392   1.169   9.450
 3548POPC   PO4 6660   0.430   1.238   9.150
 3548POPC   GL1 6661   0.411   1.171   8.850
 3548POPC   GL2 6662   0.327   1.284   8.850
 3548POPC   C1A 6663   0.453   1.193   8.550
 3548POPC   D2A 6664   0.482   1.212   8.250
 3548POPC   C3A 6665   0.392   1.230   7.950
 3548POPC   C4A 6666   0.467   1.191   7.650
 3548POPC   C1B 6667   0.299   1.383   8.550
 3548POPC   C2B 6668   0.266   1.412   8.250
 3548POPC   C3B 6669   0.289   1.406   7.950
 3548POPC   C4B 6670   0.292   1.352   7.650
 3549POPC   NC3 6671  38.484  28.351   9.450
 3549POPC   PO4 6672  38.434  28.413   9.150
 3549POPC   GL1 6673  38.443  28.405   8.850
 3549POPC   GL2 6674  38.515  28.483   8.850
 3549POPC   C1A 6675  38.446  28.410   8.550
 3549POPC   D2A 6676  38.413  28.344   8.250
 3549POPC   C3A 6677  38.413  28.377   7.950
 3549POPC   C4A 6678  38.459  28.418   7.650
 3549POPC   C1B 6679  38.453  28.644   8.550
 3549POPC   C2B 6680  38.461  28.621   8.250
 3549POPC   C3B 6681  38.489  28.658   7.950
 3549POPC   C4B 6682  38.546  28.603   7.650
 3550POPC   NC3 6683  19.018  21.406   9.450
 3550POPC   PO4 6684  19.019  21.424   9.150
 3550POPC   GL1 6685  19.071  21.384   8.850
 3550POPC   GL2 6686  19.088  21.299   8.850
 3550POPC   C1A 6687  19.107  21.392   8.550
 3550POPC   D2A 6688  19.101  21.413   8.250
 3550POPC   C3A 6689  19.017  21.408   7.950
 3550POPC   C4A 6690  19.070  21.408   7.650
 3550POPC   C1B 6691  19.147  21.180   8.550
 3550POPC   C2B 6692  19.119  21.168   8.250
 3550POPC   C3B 6693  19.078  21.141   7.950
 3550POPC   C4B 6694  19.117  21.174   7.650
 3551POPC   NC3 6695  15.183  44.616   9.450
 3551POPC   PO4 6696  15.200  44.634   9.150
 3551POPC   GL1 6697  15.171  44.640   8.850
 3551POPC   GL2 6698  15.340  44.715   8.850
 3551POPC   C1A 6699  15.152  44.634   8.550
 3551POPC   D2A 6700  15.211  44.642   8.250
 3551POPC   C3A 6701  15.155  44.687   7.950
 3551POPC   C4A 6702  15.145  44.620   7.650
 3551POPC   C1B 6703  15.427  44.694   8.550
 3551POPC   C2B 6704  15.429  44.686   8.250
 3551POPC   C3B 6705  15.399  44.668   7.950
 3551POPC   C4B 6706  15.423  44.680   7.650
 3552POPC   NC3 6707   5.887   2.037   9.450
 3552POPC   PO4 6708   5.873   1.947   9.150
 3552POPC   GL1 6709   5.889   1.975   8.850
 3552POPC   GL2 6710   5.983   2.061   8.850
 3552POPC   C1A 6711   5.903   2.017   8.550
 3552POPC   D2A 6712   5.873   1.941   8.250
 3552POPC   C3A 6713   5.835   1.968   7.950
 3552POPC   C4A 6714   5.878   1.964   7.650
 3552POPC   C1B 6715   6.104   2.043   8.550
 3552POPC   C2B 6716   6.119   2.084   8.250
 3552POPC   C3B 6717   6.100   2.047   7.950
 3552POPC   C4B 6718   6.135   2.052   7.650
 3553POPC   NC3 6719  28.321  12.094   9.450
 3553POPC   PO4 6720  28.359  12.028   9.150
 3553POPC   GL1 6721  28.343  12.110   8.850
 3553POPC   GL2 6722  28.251  12.177   8.850
 3553POPC   C1A 6723  28.328  12.101   8.550
 3553POPC   D2A 6724  28.396  12.061   8.250
 3553POPC   C3A 6725  28.410  12.111   7.950
 3553POPC   C4A 6726  28.407  12.102   7.650
 3553POPC   C1B 6727  28.168  12.219   8.550
 3553POPC   C2B 6728  28.186  12.234   8.250
 3553POPC   C3B 6729  28.129  12.277   7.950
 3553POPC   C4B 6730  28.143  12.261   7.650
 3554POPC   NC3 6731  13.649  26.070   9.450
 3554POPC   PO4 6732  13.632  26.030   9.150
 3554POPC   GL1 6733  13.650  26.038   8.850
 3554POPC   GL2 6734  13.557  25.881   8.850
 3554POPC   C1A 6735  13.615  26.015   8.550
 3554POPC   D2A 6736  13.617  26.000   8.250
 3554POPC   C3A 6737  13.631  26.023   7.950
 3554POPC   C4A 6738  13.653  26.053   7.650
 3554POPC   C1B 6739  13.560  25.844   8.550
 3554POPC   C2B 6740  13.556  25.858   8.250
 3554POPC   C3B 6741  13.513  25.784   7.950
 3554POPC   C4B 6742  13.575  25.807   7.650
 3555POPC   NC3 6743  27.562   5.870   9.450
 3555POPC   PO4 6744  27.615   5.820   9.150
 3555POPC   GL1 6745  27.609   5.832   8.850
 3555POPC   GL2 6746  27.433   5.908   8.850
 3555POPC   C1A 6747  27.616   5.826   8.550
 3555POPC   D2A 6748  27.547   5.846   8.250
 3555POPC   C3A 6749  27.565   5.852   7.950
 3555POPC   C4A 6750  27.589   5.890   7.650
 3555POPC   C1B 6751  27.321   5.927   8.550
 3555POPC   C2B 6752  27.357   5.844   8.250
 3555POPC   C3B 6753  27.363   5.872   7.950
 3555POPC   C4B 6754  27.297   5.942   7.650
 3556POPC   NC3 6755  16.761   6.680   9.450
 3556POPC   PO4 6756  16.730   6.635   9.150
 3556POPC   GL1 6757  16.712   6.617   8.850
 3556POPC   GL2 6758  16.634   6.628   8.850
 3556POPC   C1A 6759  16.686   6.652   8.550
 3556POPC   D2A 6760  16.761   6.671   8.250
 3556POPC   C3A 6761  16.776   6.608   7.950
 3556POPC   C4A 6762  16.752   6.667   7.650
 3556POPC   C1B 6763  16.437   6.627   8.550
 3556POPC   C2B 6764  16.486   6.629   8.250
 3556POPC   C3B 6765  16.513   6.548   7.950
 3556POPC   C4B 6766  16.453   6.597   7.650
 3557POPC   NC3 6767  25.239  13.625   9.450
 3557POPC   PO4 6768  25.233  13.612   9.150
 3557POPC   GL1 6769  25.311  13.634   8.850
 3557POPC   GL2 6770  25.187  13.632   8.850
 3557POPC   C1A 6771  25.231  13.652   8.550
 3557POPC   D2A 6772  25.218  13.579   8.250
 3557POPC   C3A 6773  25.307  13.603   7.950
 3557POPC   C4A 6774  25.312  13.670   7.650
 3557POPC   C1B 6775  25.066  13.714   8.550
 3557POPC   C2B 6776  25.001  13.674   8.250
 3557POPC   C3B 6777  25.025  13.702   7.950
 3557POPC   C4B 6778  25.076  13.681   7.650
 3558POPC   NC3 6779  43.876   0.476   9.450
 3558POPC   PO4 6780  43.879   0.396   9.150
 3558POPC   GL1 6781  43.846   0.456   8.850
 3558POPC   GL2 6782  43.841   0.355   8.850
 3558POPC   C1A 6783  43.897   0.407   8.550
 3558POPC   D2A 6784  43.848   0.454   8.250
 3558POPC   C3A 6785  43.888   0.486   7.950
 3558POPC   C4A 6786  43.844   0.418   7.650
 3558POPC   C1B 6787  43.793   0.224   8.550
 3558POPC   C2B 6788  43.795   0.235   8.250
 3558POPC   C3B 6789  43.768   0.265   7.950
 3558POPC   C4B 6790  43.721   0.249   7.650
 3559POPC   NC3 6791   6.634   3.504   9.450
 3559POPC   PO4 6792   6.643   3.528   9.150
 3559POPC   GL1 6793   6.644   3.511   8.850
 3559POPC   GL2 6794   6.616   3.427   8.850
 3559POPC   C1A 6795   6.629   3.563   8.550
 3559POPC   D2A 6796   6.600   3.534   8.250
 3559POPC   C3A 6797   6.605   3.536   7.950
 3559POPC   C4A 6798   6.691   3.515   7.650
 3559POPC   C1B 6799   6.529   3.326   8.550
 3559POPC   C2B 6800   6.596   3.301   8.250
 3559POPC   C3B 6801   6.558   3.330   7.950
 3559POPC   C4B 6802   6.570   3.293   7.650
 3560POPC   NC3 6803  22.118  30.731   9.450
 3560POPC   PO4 6804  22.195  30.721   9.150
 3560POPC   GL1 6805  22.153  30.737   8.850
 3560POPC   GL2 6806  22.297  30.726   8.850
 3560POPC   C1A 6807  22.129  30.698   8.550
 3560POPC   D2A 6808  22.171  30.699   8.250
 3560POPC   C3A 6809  22.183  30.739   7.950
 3560POPC   C4A 6810  22.193  30.681   7.650
 3560POPC   C1B 6811  22.430  30.794   8.550
 3560POPC   C2B 6812  22.435  30.821   8.250
 3560POPC   C3B 6813  22.349  30.793   7.950
 3560POPC   C4B 6814  22.397  30.827   7.650
 3561POPC   NC3 6815  19.057   5.086   9.450
 3561POPC   PO4 6816  19.023   5.083   9.150
 3561POPC   GL1 6817  19.106   5.130   8.850
 3561POPC   GL2 6818  19.130   5.238   8.850
 3561POPC   C1A 6819  19.094   5.088   8.550
 3561POPC   D2A 6820  19.052   5.134   8.250
 3561POPC   C3A 6821  19.094   5.079   7.950
 3561POPC   C4A 6822  19.037   5.131   7.650
 3561POPC   C1B 6823  19.215   5.345   8.550
 3561POPC   C2B 6824  19.235   5.283   8.250
 3561POPC   C3B 6825  19.206   5.286   7.950
 3561POPC   C4B 6826  19.210   5.330   7.650
 3562POPC   NC3 6827   6.618   2.020   9.450
 3562POPC   PO4 6828   6.598   1.951   9.150
 3562POPC   GL1 6829   6.692   1.998   8.850
 3562POPC   GL2 6830   6.530   2.017   8.850
 3562POPC   C1A 6831   6.628   1.945   8.550
 3562POPC   D2A 6832   6.597   1.971   8.250
 3562POPC   C3A 6833   6.609   1.994   7.950
 3562POPC   C4A 6834   6.671   1.975   7.650
 3562POPC   C1B 6835   6.378   2.016   8.550
 3562POPC   C2B 6836   6.401   2.069   8.250
 3562POPC   C3B 6837   6.399   2.033   7.950
 3562POPC   C4B 6838   6.375   2.092   7.650
 3563POPC   NC3 6839  17.474  18.263   9.450
 3563POPC   PO4 6840  17.526  18.241   9.150
 3563POPC   GL1 6841  17.505  18.289   8.850
 3563POPC   GL2 6842  17.530  18.414   8.850
 3563POPC   C1A 6843  17.486  18.235   8.550
 3563POPC   D2A 6844  17.475  18.251   8.250
 3563POPC   C3A 6845  17.554  18.307   7.950
 3563POPC   C4A 6846  17.528  18.318   7.650
 3563POPC   C1B 6847  17.551  18.516   8.550
 3563POPC   C2B 6848  17.491  18.562   8.250
 3563POPC   C3B 6849  17.558  18.482   7.950
 3563POPC   C4B 6850  17.486  18.483   7.650
 3564POPC   NC3 6851  44.641  20.586   9.450
 3564POPC   PO4 6852  44.661  20.619   9.150
 3564POPC   GL1 6853  44.636  20.572   8.850
 3564POPC   GL2 6854  44.764  20.523   8.850
 3564POPC   C1A 6855  44.671  20.638   8.550
 3564POPC   D2A 6856  44.649  20.561   8.250
 3564POPC   C3A 6857  44.615  20.575   7.950
 3564POPC   C4A 6858  44.675  20.631   7.650
 3564POPC   C1B 6859  44.835  20.454   8.550
 3564POPC   C2B 6860  44.828  20.498   8.250
 3564POPC   C3B 6861  44.893  20.451   7.950
 3564POPC   C4B 6862  44.866  20.495   7.650
 3565POPC   NC3 6863  18.256  15.208   9.450
 3565POPC   PO4 6864  18.267  15.218   9.150
 3565POPC   GL1 6865  18.261  15.159   8.850
 3565POPC   GL2 6866  18.366  15.221   8.850
 3565POPC   C1A 6867  18.245  15.195   8.550
 3565POPC   D2A 6868  18.275  15.165   8.250
 3565POPC   C3A 6869  18.276  15.148   7.950
 3565POPC   C4A 6870  18.308  15.164   7.650
 3565POPC   C1B 6871  18.562  15.190   8.550
 3565POPC   C2B 6872  18.531  15.145   8.250
 3565POPC   C3B 6873  18.542  15.179   7.950
 3565POPC   C4B 6874  18.562  15.152   7.650
 3566POPC   NC3 6875   5.102  26.054   9.450
 3566POPC   PO4 6876   5.063  26.062   9.150
 3566POPC   GL1 6877   5.117  26.014   8.850
 3566POPC   GL2 6878   5.114  25.940   8.850
 3566POPC   C1A 6879   5.071  25.996   8.550
 3566POPC   D2A 6880   5.051  26.066   8.250
 3566POPC   C3A 6881   5.130  26.073   7.950
 3566POPC   C4A 6882   5.077  26.082   7.650
 3566POPC   C1B 6883   5.115  25.780   8.550
 3566POPC   C2B 6884   5.038  25.813   8.250
 3566POPC   C3B 6885   5.072  25.800   7.950
 3566POPC   C4B 6886   5.087  25.820   7.650
 3567POPC   NC3 6887   9.756  39.189   9.450
 3567POPC   PO4 6888   9.702  39.220   9.150
 3567POPC   GL1 6889   9.766  39.274   8.850
 3567POPC   GL2 6890   9.633  39.163   8.850
 3567POPC   C1A 6891   9.724  39.193   8.550
 3567POPC   D2A 6892   9.725  39.243   8.250
 3567POPC   C3A 6893   9.787  39.221   7.950
 3567POPC   C4A 6894   9.763  39.253   7.650
 3567POPC   C1B 6895   9.543  39.105   8.550
 3567POPC   C2B 6896   9.574  39.089   8.250
 3567POPC   C3B 6897   9.540  39.096   7.950
 3567POPC   C4B 6898   9.512  39.099   7.650
 3568POPC   NC3 6899  22.144  43.095   9.450
 3568POPC   PO4 6900  22.134  43.073   9.150
 3568POPC   GL1 6901  22.163  43.101   8.850
 3568POPC   GL2 6902  22.126  43.268   8.850
 3568POPC   C1A 6903  22.117  43.099   8.550
 3568POPC   D2A 6904  22.160  43.076   8.250
 3568POPC   C3A 6905  22.126  43.124   7.950
 3568POPC   C4A 6906  22.120  43.147   7.650
 3568POPC   C1B 6907  22.082  43.357   8.550
 3568POPC   C2B 6908  22.043  43.309   8.250
 3568POPC   C3B 6909  22.060  43.352   7.950
 3568POPC   C4B 6910  22.131  43.345   7.650
 3569POPC   NC3 6911  30.669  43.919   9.450
 3569POPC   PO4 6912  30.650  43.894   9.150
 3569POPC   GL1 6913  30.743  43.912   8.850
 3569POPC   GL2 6914  30.580  43.839   8.850
 3569POPC   C1A 6915  30.745  43.915   8.550
 3569POPC   D2A 6916  30.672  43.859   8.250
 3569POPC   C3A 6917  30.654  43.886   7.950
 3569POPC   C4A 6918  30.657  43.867   7.650
 3569POPC   C1B 6919  30.511  43.844   8.550
 3569POPC   C2B 6920  30.420  43.792   8.250
 3569POPC   C3B 6921  30.495  43.749   7.950
 3569POPC   C4B 6922  30.486  43.825   7.650
 3570POPC   NC3 6923  27.629  37.650   9.450
 3570POPC   PO4 6924  27.569  37.681   9.150
 3570POPC   GL1 6925  27.576  37.722   8.850
 3570POPC   GL2 6926  27.464  37.666   8.850
 3570POPC   C1A 6927  27.581  37.707   8.550
 3570POPC   D2A 6928  27.634  37.710   8.250
 3570POPC   C3A 6929  27.565  37.638   7.950
 3570POPC   C4A 6930  27.614  37.729   7.650
 3570POPC   C1B 6931  27.307  37.736   8.550
 3570POPC   C2B 6932  27.311  37.716   8.250
 3570POPC   C3B 6933  27.321  37.739   7.950
 3570POPC   C4B 6934  27.334  37.737   7.650
 3571POPC   NC3 6935   2.750   9.762   9.450
 3571POPC   PO4 6936   2.717   9.795   9.150
 3571POPC   GL1 6937   2.726   9.737   8.850
 3571POPC   GL2 6938   2.853   9.834   8.850
 3571POPC   C1A 6939   2.774   9.748   8.550
 3571POPC   D2A 6940   2.719   9.783   8.250
 3571POPC   C3A 6941   2.740   9.754   7.950
 3571POPC   C4A 6942   2.772   9.744   7.650
 3571POPC   C1B 6943   2.904   9.931   8.550
 3571POPC   C2B 6944   2.868   9.991   8.250
 3571POPC   C3B 6945   2.869   9.987   7.950
 3571POPC   C4B 6946   2.893   9.993   7.650
 3572POPC   NC3 6947  43.145  12.838   9.450
 3572POPC   PO4 6948  43.103  12.845   9.150
 3572POPC   GL1 6949  43.074  12.810   8.850
 3572POPC   GL2 6950  43.254  12.882   8.850
 3572POPC   C1A 6951  43.065  12.816   8.550
 3572POPC   D2A 6952  43.098  12.863   8.250
 3572POPC   C3A 6953  43.151  12.836   7.950
 3572POPC   C4A 6954  43.156  12.848   7.650
 3572POPC   C1B 6955  43.373  12.846   8.550
 3572POPC   C2B 6956  43.347  12.848   8.250
 3572POPC   C3B 6957  43.381  12.847   7.950
 3572POPC   C4B 6958  43.356  12.852   7.650
 3573POPC   NC3 6959  43.896  18.233   9.450
 3573POPC   PO4 6960  43.906  18.316   9.150
 3573POPC   GL1 6961  43.895  18.256   8.850
 3573POPC   GL2 6962  43.875  18.386   8.850
 3573POPC   C1A 6963  43.907  18.308   8.550
 3573POPC   D2A 6964  43.902  18.272   8.250
 3573POPC   C3A 6965  43.866  18.240   7.950
 3573POPC   C4A 6966  43.891  18.255   7.650
 3573POPC   C1B 6967  43.833  18.518   8.550
 3573POPC   C2B 6968  43.858  18.553   8.250
 3573POPC   C3B 6969  43.862  18.559   7.950
 3573POPC   C4B 6970  43.825  18.558   7.650
 3574POPC   NC3 6971  22.985  40.799   9.450
 3574POPC   PO4 6972  22.915  40.832   9.150
 3574POPC   GL1 6973  22.976  40.777   8.850
 3574POPC   GL2 6974  22.941  40.918   8.850
 3574POPC   C1A 6975  22.932  40.802   8.550
 3574POPC   D2A 6976  22.890  40.814   8.250
 3574POPC   C3A 6977  22.888  40.795   7.950
 3574POPC   C4A 6978  22.894  40.807   7.650
 3574POPC   C1B 6979  22.957  40.996   8.550
 3574POPC   C2B 6980  22.994  41.032   8.250
 3574POPC   C3B 6981  22.982  41.014   7.950
 3574POPC   C4B 6982  23.022  41.062   7.650
 3575POPC   NC3 6983  19.817  20.563   9.450
 3575POPC   PO4 6984  19.840  20.624   9.150
 3575POPC   GL1 6985  19.787  20.654   8.850
 3575POPC   GL2 6986  19.874  20.736   8.850
 3575POPC   C1A 6987  19.817  20.627   8.550
 3575POPC   D2A 6988  19.821  20.569   8.250
 3575POPC   C3A 6989  19.840  20.615   7.950
 3575POPC   C4A 6990  19.866  20.617   7.650
 3575POPC   C1B 6991  19.876  20.839   8.550
 3575POPC   C2B 6992  19.840  20.907   8.250
 3575POPC   C3B 6993  19.885  20.902   7.950
 3575POPC   C4B 6994  19.908  20.851   7.650
 3576POPC   NC3 6995  35.389   5.103   9.450
 3576POPC   PO4 6996  35.378   5.097   9.150
 3576POPC   GL1 6997  35.397   5.071   8.850
 3576POPC   GL2 6998  35.517   5.097   8.850
 3576POPC   C1A 6999  35.350   5.060   8.550
 3576POPC   D2A 7000  35.317   5.115   8.250
 3576POPC   C3A 7001  35.316   5.125   7.950
 3576POPC   C4A 7002  35.357   5.064   7.650
 3576POPC   C1B 7003  35.598   5.039   8.550
 3576POPC   C2B 7004  35.604   5.097   8.250
 3576POPC   C3B 7005  35.611   5.018   7.950
 3576POPC   C4B 7006  35.619   5.081   7.650
 3577POPC   NC3 7007  15.944  13.599   9.450
 3577POPC   PO4 7008  15.959  13.663   9.150
 3577POPC   GL1 7009  15.934  13.671   8.850
 3577POPC   GL2 7010  15.902  13.581   8.850
 3577POPC   C1A 7011  15.916  13.644   8.550
 3577POPC   D2A 7012  15.927  13.589   8.250
 3577POPC   C3A 7013  15.932  13.644   7.950
 3577POPC   C4A 7014  15.918  13.580   7.650
 3577POPC   C1B 7015  15.714  13.448   8.550
 3577POPC   C2B 7016  15.793  13.481   8.250
 3577POPC   C3B 7017  15.737  13.510   7.950
 3577POPC   C4B 7018  15.721  13.480   7.650
 3578POPC   NC3 7019  28.329  26.836   9.450
 3578POPC   PO4 7020  28.366  26.803   9.150
 3578POPC   GL1 7021  28.415  26.816   8.850
 3578POPC   GL2 7022  28.515  26.876   8.850
 3578POPC   C1A 7023  28.321  26.854   8.550
 3578POPC   D2A 7024  28.356  26.811   8.250
 3578POPC   C3A 7025  28.371  26.798   7.950
 3578POPC   C4A 7026  28.326  26.840   7.650
 3578POPC   C1B 7027  28.629  26.930   8.550
 3578POPC   C2B 7028  28.574  26.840   8.250
 3578POPC   C3B 7029  28.604  26.894   7.950
 3578POPC   C4B 7030  28.648  26.918   7.650
 3579POPC   NC3 7031  17.528  22.929   9.450
 3579POPC   PO4 7032  17.510  22.892   9.150
 3579POPC   GL1 7033  17.480  22.986   8.850
 3579POPC   GL2 7034  17.530  22.798   8.850
 3579POPC   C1A 7035  17.533  22.983   8.550
 3579POPC   D2A 7036  17.494  22.901   8.250
 3579POPC   C3A 7037  17.547  22.957   7.950
 3579POPC   C4A 7038  17.502  22.932   7.650
 3579POPC   C1B 7039  17.642  22.749   8.550
 3579POPC   C2B 7040  17.597  22.773   8.250
 3579POPC   C3B 7041  17.620  22.737   7.950
 3579POPC   C4B 7042  17.625  22.770   7.650
 3580POPC   NC3 7043  43.889  13.590   9.450
 3580POPC   PO4 7044  43.864  13.665   9.150
 3580POPC   GL1 7045  43.923  13.664   8.850
 3580POPC   GL2 7046  43.885  13.715   8.850
 3580POPC   C1A 7047  43.867  13.641   8.550
 3580POPC   D2A 7048  43.844  13.598   8.250
 3580POPC   C3A 7049  43.907  13.584   7.950
 3580POPC   C4A 7050  43.922  13.637   7.650
 3580POPC   C1B 7051  43.900  13.832   8.550
 3580POPC   C2B 7052  43.887  13.918   8.250
 3580POPC   C3B 7053  43.840  13.832   7.950
 3580POPC   C4B 7054  43.828  13.847   7.650
 3581POPC   NC3 7055  24.492  28.356   9.450
 3581POPC   PO4 7056  24.484  28.356   9.150
 3581POPC   GL1 7057  24.487  28.331   8.850
 3581POPC   GL2 7058  24.429  28.422   8.850
 3581POPC   C1A 7059  24.442  28.344   8.550
 3581POPC   D2A 7060  24.459  28.382   8.250
 3581POPC   C3A 7061  24.455  28.412   7.950
 3581POPC   C4A 7062  24.500  28.353   7.650
 3581POPC   C1B 7063  24.329  28.603   8.550
 3581POPC   C2B 7064  24.301  28.553   8.250
 3581POPC   C3B 7065  24.306  28.587   7.950
 3581POPC   C4B 7066  24.323  28.607   7.650
 3582POPC   NC3 7067   5.880  37.635   9.450
 3582POPC   PO4 7068   5.861  37.650   9.150
 3582POPC   GL1 7069   5.910  37.664   8.850
 3582POPC   GL2 7070   5.849  37.598   8.850
 3582POPC   C1A 7071   5.821  37.697   8.550
 3582POPC   D2A 7072   5.884  37.681   8.250
 3582POPC   C3A 7073   5.854  37.687   7.950
 3582POPC   C4A 7074   5.910  37.652   7.650
 3582POPC   C1B 7075   5.807  37.437   8.550
 3582POPC   C2B 7076   5.829  37.425   8.250
 3582POPC   C3B 7077   5.852  37.392   7.950
 3582POPC   C4B 7078   5.820  37.480   7.650
 3583POPC   NC3 7079  16.002   7.385   9.450
 3583POPC   PO4 7080  15.994   7.453   9.150
 3583POPC   GL1 7081  15.911   7.417   8.850
 3583POPC   GL2 7082  15.869   7.483   8.850
 3583POPC   C1A 7083  15.977   7.380   8.550
 3583POPC   D2A 7084  15.988   7.434   8.250
 3583POPC   C3A 7085  15.928   7.391   7.950
 3583POPC   C4A 7086  15.958   7.412   7.650
 3583POPC   C1B 7087  15.746   7.485   8.550
 3583POPC   C2B 7088  15.733   7.528   8.250
 3583POPC   C3B 7089  15.756   7.564   7.950
 3583POPC   C4B 7090  15.707   7.474   7.650
 3584POPC   NC3 7091  39.989  35.356   9.450
 3584POPC   PO4 7092  40.016  35.398   9.150
 3584POPC   GL1 7093  39.977  35.343   8.850
 3584POPC   GL2 7094  40.095  35.327   8.850
 3584POPC   C1A 7095  39.979  35.390   8.550
 3584POPC   D2A 7096  39.983  35.316   8.250
 3584POPC   C3A 7097  40.011  35.359   7.950
 3584POPC   C4A 7098  40.024  35.380   7.650
 3584POPC   C1B 7099  40.221  35.274   8.550
 3584POPC   C2B 7100  40.283  35.265   8.250
 3584POPC   C3B 7101  40.217  35.284   7.950
 3584POPC   C4B 7102  40.290  35.351   7.650
 3585POPC   NC3 7103  12.058   1.966   9.450
 3585POPC   PO4 7104  12.124   1.982   9.150
 3585POPC   GL1 7105  12.044   2.034   8.850
 3585POPC   GL2 7106  12.090   2.145   8.850
 3585POPC   C1A 7107  12.050   1.995   8.550
 3585POPC   D2A 7108  12.027   1.966   8.250
 3585POPC   C3A 7109  12.124   1.958   7.950
 3585POPC   C4A 7110  12.096   1.944   7.650
 3585POPC   C1B 7111  12.131   2.227   8.550
 3585POPC   C2B 7112  12.125   2.207   8.250
 3585POPC   C3B 7113  12.169   2.228   7.950
 3585POPC   C4B 7114  12.119   2.256   7.650
 3586POPC   NC3 7115  39.206  16.754   9.450
 3586POPC   PO4 7116  39.218  16.750   9.150
 3586POPC   GL1 7117  39.259  16.717   8.850
 3586POPC   GL2 7118  39.095  16.756   8.850
 3586POPC   C1A 7119  39.198  16.757   8.550
 3586POPC   D2A 7120  39.223  16.755   8.250
 3586POPC   C3A 7121  39.244  16.704   7.950
 3586POPC   C4A 7122  39.212  16.715   7.650
 3586POPC   C1B 7123  39.032  16.834   8.550
 3586POPC   C2B 7124  38.986  16.793   8.250
 3586POPC   C3B 7125  38.979  16.779   7.950
 3586POPC   C4B 7126  39.009  16.796   7.650
 3587POPC   NC3 7127   8.217  12.072   9.450
 3587POPC   PO4 7128   8.160  12.087   9.150
 3587POPC   GL1 7129   8.247  12.057   8.850
 3587POPC   GL2 7130   8.193  11.938   8.850
 3587POPC   C1A 7131   8.210  12.052   8.550
 3587POPC   D2A 7132   8.205  12.090   8.250
 3587POPC   C3A 7133   8.169  12.038   7.950
 3587POPC   C4A 7134   8.150  12.081   7.650
 3587POPC   C1B 7135   8.220  11.841   8.550
 3587POPC   C2B 7136   8.222  11.798   8.250
 3587POPC   C3B 7137   8.215  11.806   7.950
 3587POPC   C4B 7138   8.193  11.791   7.650
 3588POPC   NC3 7139  41.576  37.639   9.450
 3588POPC   PO4 7140  41.598  37.694   9.150
 3588POPC   GL1 7141  41.559  37.727   8.850
 3588POPC   GL2 7142  41.637  37.529   8.850
 3588POPC   C1A 7143  41.540  37.630   8.550
 3588POPC   D2A 7144  41.577  37.663   8.250
 3588POPC   C3A 7145  41.547  37.634   7.950
 3588POPC   C4A 7146  41.526  37.695   7.650
 3588POPC   C1B 7147  41.642  37.402   8.550
 3588POPC   C2B 7148  41.650  37.414   8.250
 3588POPC   C3B 7149  41.653  37.424   7.950
 3588POPC   C4B 7150  41.668  37.500   7.650
 3589POPC   NC3 7151  23.671  11.345   9.450
 3589POPC   PO4 7152  23.717  11.288   9.150
 3589POPC   GL1 7153  23.705  11.345   8.850
 3589POPC   GL2 7154  23.838  11.269   8.850
 3589POPC   C1A 7155  23.725  11.328   8.550
 3589POPC   D2A 7156  23.718  11.329   8.250
 3589POPC   C3A 7157  23.670  11.291   7.950
 3589POPC   C4A 7158  23.707  11.331   7.650
 3589POPC   C1B 7159  23.942  11.250   8.550
 3589POPC   C2B 7160  23.965  11.182   8.250
 3589POPC   C3B 7161  23.950  11.216   7.950
 3589POPC   C4B 7162  23.914  11.184   7.650
 3590POPC   NC3 7163  14.373  40.810   9.450
 3590POPC   PO4 7164  14.402  40.793   9.150
 3590POPC   GL1 7165  14.409  40.783   8.850
 3590POPC   GL2 7166  14.297  40.881   8.850
 3590POPC   C1A 7167  14.438  40.795   8.550
 3590POPC   D2A 7168  14.366  40.777   8.250
 3590POPC   C3A 7169  14.434  40.737   7.950
 3590POPC   C4A 7170  14.405  40.794   7.650
 3590POPC   C1B 7171  14.224  40.946   8.550
 3590POPC   C2B 7172  14.164  40.980   8.250
 3590POPC   C3B 7173  14.228  40.907   7.950
 3590POPC   C4B 7174  14.249  40.951   7.650
 3591POPC   NC3 7175  13.636   2.774   9.450
 3591POPC   PO4 7176  13.593   2.762   9.150
 3591POPC   GL1 7177  13.580   2.739   8.850
 3591POPC   GL2 7178  13.456   2.787   8.850
 3591POPC   C1A 7179  13.641   2.774   8.550
 3591POPC   D2A 7180  13.584   2.771   8.250
 3591POPC   C3A 7181  13.666   2.723   7.950
 3591POPC   C4A 7182  13.661   2.764   7.650
 3591POPC   C1B 7183  13.352   2.765   8.550
 3591POPC   C2B 7184  13.347   2.817   8.250
 3591POPC   C3B 7185  13.382   2.783   7.950
 3591POPC   C4B 7186  13.424   2.765   7.650
 3592POPC   NC3 7187  31.501  35.399   9.450
 3592POPC   PO4 7188  31.424  35.334   9.150
 3592POPC   GL1 7189  31.483  35.330   8.850
 3592POPC   GL2 7190  31.568  35.235   8.850
 3592POPC   C1A 7191  31.451  35.313   8.550
 3592POPC   D2A 7192  31.489  35.330   8.250
 3592POPC   C3A 7193  31.450  35.313   7.950
 3592POPC   C4A 7194  31.427  35.351   7.650
 3592POPC   C1B 7195  31.655  35.154   8.550
 3592POPC   C2B 7196  31.689  35.224   8.250
 3592POPC   C3B 7197  31.616  35.213   7.950
 3592POPC   C4B 7198  31.624  35.205   7.650
 3593POPC   NC3 7199  26.061  32.244   9.450
 3593POPC   PO4 7200  26.085  32.294   9.150
 3593POPC   GL1 7201  26.045  32.230   8.850
 3593POPC   GL2 7202  26.044  32.095   8.850
 3593POPC   C1A 7203  26.057  32.221   8.550
 3593POPC   D2A 7204  26.065  32.235   8.250
 3593POPC   C3A 7205  26.038  32.247   7.950
 3593POPC   C4A 7206  26.005  32.212   7.650
 3593POPC   C1B 7207  26.074  32.046   8.550
 3593POPC   C2B 7208  26.035  32.019   8.250
 3593POPC   C3B 7209  26.072  31.956   7.950
 3593POPC   C4B 7210  25.989  31.975   7.650
 3594POPC   NC3 7211  27.632  18.270   9.450
 3594POPC   PO4 7212  27.570  18.266   9.150
 3594POPC   GL1 7213  27.642  18.310   8.850
 3594POPC   GL2 7214  27.761  18.290   8.850
 3594POPC   C1A 7215  27.548  18.310   8.550
 3594POPC   D2A 7216  27.582  18.292   8.250
 3594POPC   C3A 7217  27.590  18.281   7.950
 3594POPC   C4A 7218  27.640  18.306   7.650
 3594POPC   C1B 7219  27.821  18.191   8.550
 3594POPC   C2B 7220  27.819  18.253   8.250
 3594POPC   C3B 7221  27.845  18.200   7.950
 3594POPC   C4B 7222  27.863  18.200   7.650
 3595POPC   NC3 7223  26.809   6.612   9.450
 3595POPC   PO4 7224  26.801   6.667   9.150
 3595POPC   GL1 7225  26.780   6.672   8.850
 3595POPC   GL2 7226  26.681   6.571   8.850
 3595POPC   C1A 7227  26.838   6.626   8.550
 3595POPC   D2A 7228  26.801   6.688   8.250
 3595POPC   C3A 7229  26.782   6.611   7.950
 3595POPC   C4A 7230  26.802   6.650   7.650
 3595POPC   C1B 7231  26.596   6.542   8.550
 3595POPC   C2B 7232  26.573   6.597   8.250
 3595POPC   C3B 7233  26.589   6.532   7.950
 3595POPC   C4B 7234  26.575   6.542   7.650
 3596POPC   NC3 7235  43.148  43.916   9.450
 3596POPC   PO4 7236  43.141  43.862   9.150
 3596POPC   GL1 7237  43.140  43.923   8.850
 3596POPC   GL2 7238  42.965  43.990   8.850
 3596POPC   C1A 7239  43.148  43.932   8.550
 3596POPC   D2A 7240  43.091  43.863   8.250
 3596POPC   C3A 7241  43.116  43.874   7.950
 3596POPC   C4A 7242  43.067  43.867   7.650
 3596POPC   C1B 7243  42.943  44.026   8.550
 3596POPC   C2B 7244  42.954  44.065   8.250
 3596POPC   C3B 7245  42.861  44.046   7.950
 3596POPC   C4B 7246  42.863  44.035   7.650
 3597POPC   NC3 7247  10.527  27.624   9.450
 3597POPC   PO4 7248  10.487  27.613   9.150
 3597POPC   GL1 7249  10.475  27.598   8.850
 3597POPC   GL2 7250  10.532  27.719   8.850
 3597POPC   C1A 7251  10.544  27.609   8.550
 3597POPC   D2A 7252  10.485  27.610   8.250
 3597POPC   C3A 7253  10.548  27.573   7.950
 3597POPC   C4A 7254  10.498  27.592   7.650
 3597POPC   C1B 7255  10.647  27.849   8.550
 3597POPC   C2B 7256  10.606  27.857   8.250
 3597POPC   C3B 7257  10.624  27.871   7.950
 3597POPC   C4B 7258  10.597  27.781   7.650
 3598POPC   NC3 7259  24.454  25.311   9.450
 3598POPC   PO4 7260  24.482  25.242   9.150
 3598POPC   GL1 7261  24.472  25.307   8.850
 3598POPC   GL2 7262  24.328  25.328   8.850
 3598POPC   C1A 7263  24.452  25.266   8.550
 3598POPC   D2A 7264  24.491  25.234   8.250
 3598POPC   C3A 7265  24.460  25.304   7.950
 3598POPC   C4A 7266  24.486  25.257   7.650
 3598POPC   C1B 7267  24.267  25.328   8.550
 3598POPC   C2B 7268  24.301  25.318   8.250
 3598POPC   C3B 7269  24.219  25.343   7.950
 3598POPC   C4B 7270  24.225  25.395   7.650
 3599POPC   NC3 7271  14.365  21.379   9.450
 3599POPC   PO4 7272  14.429  21.407   9.150
 3599POPC   GL1 7273  14.419  21.369   8.850
 3599POPC   GL2 7274  14.532  21.302   8.850
 3599POPC   C1A 7275  14.430  21.344   8.550
 3599POPC   D2A 7276  14.356  21.355   8.250
 3599POPC   C3A 7277  14.394  21.385   7.950
 3599POPC   C4A 7278  14.364  21.353   7.650
 3599POPC   C1B 7279  14.588  21.308   8.550
 3599POPC   C2B 7280  14.667  21.238   8.250
 3599POPC   C3B 7281  14.625  21.312   7.950
 3599POPC   C4B 7282  14.598  21.306   7.650
 3600POPC   NC3 7283  24.500  29.101   9.450
 3600POPC   PO4 7284  24.509  29.193   9.150
 3600POPC   GL1 7285  24.521  29.103   8.850
 3600POPC   GL2 7286  24.402  29.061   8.850
 3600POPC   C1A 7287  24.461  29.186   8.550
 3600POPC   D2A 7288  24.515  29.123   8.250
 3600POPC   C3A 7289  24.526  29.131   7.950
 3600POPC   C4A 7290  24.529  29.146   7.650
 3600POPC   C1B 7291  24.440  28.931   8.550
 3600POPC   C2B 7292  24.369  28.916   8.250
 3600POPC   C3B 7293  24.424  28.908   7.950
 3600POPC   C4B 7294  24.360  28.886   7.650
 3601POPC   NC3 7295  22.969  24.478   9.450
 3601POPC   PO4 7296  22.919  24.469   9.150
 3601POPC   GL1 7297  22.915  24.462   8.850
 3601POPC   GL2 7298  23.099  24.414   8.850
 3601POPC   C1A 7299  22.978  24.518   8.550
 3601POPC   D2A 7300  22.899  24.477   8.250
 3601POPC   C3A 7301  22.961  24.525   7.950
 3601POPC   C4A 7302  22.898  24.471   7.650
 3601POPC   C1B 7303  23.199  24.445   8.550
 3601POPC   C2B 7304  23.143  24.394   8.250
 3601POPC   C3B 7305  23.123  24.379   7.950
 3601POPC   C4B 7306  23.207  24.423   7.650
 3602POPC   NC3 7307  36.176  22.141   9.450
 3602POPC   PO4 7308  36.099  22.167   9.150
 3602POPC   GL1 7309  36.170  22.209   8.850
 3602POPC   GL2 7310  36.037  22.097   8.850
 3602POPC   C1A 7311  36.109  22.211   8.550
 3602POPC   D2A 7312  36.158  22.161   8.250
 3602POPC   C3A 7313  36.104  22.204   7.950
 3602POPC   C4A 7314  36.142  22.167   7.650
 3602POPC   C1B 7315  35.938  22.012   8.550
 3602POPC   C2B 7316  35.909  22.047   8.250
 3602POPC   C3B 7317  35.938  21.990   7.950
 3602POPC   C4B 7318  35.908  22.053   7.650
 3603POPC   NC3 7319   9.793  15.964   9.450
 3603POPC   PO4 7320   9.754  15.987   9.150
 3603POPC   GL1 7321   9.760  15.999   8.850
 3603POPC   GL2 7322   9.594  15.878   8.850
 3603POPC   C1A 7323   9.699  15.967   8.550
 3603POPC   D2A 7324   9.743  15.932   8.250
 3603POPC   C3A 7325   9.772  15.996   7.950
 3603POPC   C4A 7326   9.732  15.947   7.650
 3603POPC   C1B 7327   9.495  15.853   8.550
 3603POPC   C2B 7328   9.499  15.856   8.250
 3603POPC   C3B 7329   9.546  15.882   7.950
 3603POPC   C4B 7330   9.502  15.810   7.650
 3604POPC   NC3 7331  33.827  10.489   9.450
 3604POPC   PO4 7332  33.838  10.477   9.150
 3604POPC   GL1 7333  33.792  10.542   8.850
 3604POPC   GL2 7334  33.735  10.449   8.850
 3604POPC   C1A 7335  33.790  10.562   8.550
 3604POPC   D2A 7336  33.849  10.554   8.250
 3604POPC   C3A 7337  33.807  10.529   7.950
 3604POPC   C4A 7338  33.768  10.486   7.650
 3604POPC   C1B 7339  33.782  10.266   8.550
 3604POPC   C2B 7340  33.736  10.277   8.250
 3604POPC   C3B 7341  33.776  10.237   7.950
 3604POPC   C4B 7342  33.743  10.319   7.650
 3605POPC   NC3 7343  10.479  42.357   9.450
 3605POPC   PO4 7344  10.542  42.346   9.150
 3605POPC   GL1 7345  10.547  42.318   8.850
 3605POPC   GL2 7346  10.589  42.421   8.850
 3605POPC   C1A 7347  10.542  42.307   8.550
 3605POPC   D2A 7348  10.571  42.287   8.250
 3605POPC   C3A 7349  10.476  42.359   7.950
 3605POPC   C4A 7350  10.508  42.318   7.650
 3605POPC   C1B 7351  10.612  42.517   8.550
 3605POPC   C2B 7352  10.635  42.518   8.250
 3605POPC   C3B 7353  10.610  42.509   7.950
 3605POPC   C4B 7354  10.632  42.594   7.650
 3606POPC   NC3 7355  21.353  39.259   9.450
 3606POPC   PO4 7356  21.351  39.216   9.150
 3606POPC   GL1 7357  21.346  39.233   8.850
 3606POPC   GL2 7358  21.424  39.284   8.850
 3606POPC   C1A 7359  21.344  39.260   8.550
 3606POPC   D2A 7360  21.436  39.207   8.250
 3606POPC   C3A 7361  21.425  39.252   7.950
 3606POPC   C4A 7362  21.422  39.200   7.650
 3606POPC   C1B 7363  21.601  39.428   8.550
 3606POPC   C2B 7364  21.563  39.404   8.250
 3606POPC   C3B 7365  21.583  39.385   7.950
 3606POPC   C4B 7366  21.511  39.421   7.650
 3607POPC   NC3 7367   9.783  20.595   9.450
 3607POPC   PO4 7368   9.714  20.608   9.150
 3607POPC   GL1 7369   9.726  20.577   8.850
 3607POPC   GL2 7370   9.719  20.451   8.850
 3607POPC   C1A 7371   9.757  20.633   8.550
 3607POPC   D2A 7372   9.758  20.612   8.250
 3607POPC   C3A 7373   9.785  20.622   7.950
 3607POPC   C4A 7374   9.780  20.564   7.650
 3607POPC   C1B 7375   9.621  20.364   8.550
 3607POPC   C2B 7376   9.656  20.350   8.250
 3607POPC   C3B 7377   9.668  20.349   7.950
 3607POPC   C4B 7378   9.679  20.413   7.650
 3608POPC   NC3 7379  40.046   2.805   9.450
 3608POPC   PO4 7380  39.972   2.743   9.150
 3608POPC   GL1 7381  39.974   2.753   8.850
 3608POPC   GL2 7382  40.041   2.816   8.850
 3608POPC   C1A 7383  39.983   2.755   8.550
 3608POPC   D2A 7384  40.050   2.728   8.250
 3608POPC   C3A 7385  39.968   2.768   7.950
 3608POPC   C4A 7386  40.035   2.751   7.650
 3608POPC   C1B 7387  40.171   2.960   8.550
 3608POPC   C2B 7388  40.178   2.988   8.250
 3608POPC   C3B 7389  40.183   2.996   7.950
 3608POPC   C4B 7390  40.135   2.951   7.650
 3609POPC   NC3 7391  32.989   9.738   9.450
 3609POPC   PO4 7392  32.979   9.773   9.150
 3609POPC   GL1 7393  33.039   9.766   8.850
 3609POPC   GL2 7394  33.080   9.879   8.850
 3609POPC   C1A 7395  33.061   9.718   8.550
 3609POPC   D2A 7396  33.021   9.763   8.250
 3609POPC   C3A 7397  32.980   9.792   7.950
 3609POPC   C4A 7398  32.981   9.725   7.650
 3609POPC   C1B 7399  33.180   9.897   8.550
 3609POPC   C2B 7400  33.133   9.897   8.250
 3609POPC   C3B 7401  33.147   9.983   7.950
 3609POPC   C4B 7402  33.173   9.896   7.650
 3610POPC   NC3 7403  30.675  22.179   9.450
 3610POPC   PO4 7404  30.743  22.141   9.150
 3610POPC   GL1 7405  30.663  22.181   8.850
 3610POPC   GL2 7406  30.626  22.226   8.850
 3610POPC   C1A 7407  30.694  22.141   8.550
 3610POPC   D2A 7408  30.670  22.125   8.250
 3610POPC   C3A 7409  30.707  22.154   7.950
 3610POPC   C4A 7410  30.668  22.171   7.650
 3610POPC   C1B 7411  30.445  22.331   8.550
 3610POPC   C2B 7412  30.480  22.262   8.250
 3610POPC   C3B 7413  30.475  22.316   7.950
 3610POPC   C4B 7414  30.505  22.294   7.650
 3611POPC   NC3 7415  12.113  31.457   9.450
 3611POPC   PO4 7416  12.036  31.470   9.150
 3611POPC   GL1 7417  12.050  31.475   8.850
 3611POPC   GL2 7418  11.965  31.384   8.850
 3611POPC   C1A 7419  12.111  31.453   8.550
 3611POPC   D2A 7420  12.104  31.482   8.250
 3611POPC   C3A 7421  12.037  31.498   7.950
 3611POPC   C4A 7422  12.104  31.457   7.650
 3611POPC   C1B 7423  11.871  31.350   8.550
 3611POPC   C2B 7424  11.886  31.355   8.250
 3611POPC   C3B 7425  11.894  31.372   7.950
 3611POPC   C4B 7426  11.891  31.384   7.650
 3612POPC   NC3 7427  13.594  30.720   9.450
 3612POPC   PO4 7428  13.581  30.665   9.150
 3612POPC   GL1 7429  13.666  30.685   8.850
 3612POPC   GL2 7430  13.550  30.586   8.850
 3612POPC   C1A 7431  13.614  30.700   8.550
 3612POPC   D2A 7432  13.603  30.742   8.250
 3612POPC   C3A 7433  13.653  30.720   7.950
 3612POPC   C4A 7434  13.632  30.743   7.650
 3612POPC   C1B 7435  13.468  30.469   8.550
 3612POPC   C2B 7436  13.464  30.437   8.250
 3612POPC   C3B 7437  13.465  30.453   7.950
 3612POPC   C4B 7438  13.498  30.428   7.650
 3613POPC   NC3 7439  42.357  15.947   9.450
 3613POPC   PO4 7440  42.286  15.919   9.150
 3613POPC   GL1 7441  42.346  15.931   8.850
 3613POPC   GL2 7442  42.358  15.835   8.850
 3613POPC   C1A 7443  42.285  15.943   8.550
 3613POPC   D2A 7444  42.383  15.931   8.250
 3613POPC   C3A 7445  42.348  15.939   7.950
 3613POPC   C4A 7446  42.289  15.963   7.650
 3613POPC   C1B 7447  42.376  15.767   8.550
 3613POPC   C2B 7448  42.440  15.680   8.250
 3613POPC   C3B 7449  42.449  15.749   7.950
 3613POPC   C4B 7450  42.416  15.690   7.650
 3614POPC   NC3 7451  36.124  12.038   9.450
 3614POPC   PO4 7452  36.134  12.076   9.150
 3614POPC   GL1 7453  36.097  12.049   8.850
 3614POPC   GL2 7454  35.983  12.100   8.850
 3614POPC   C1A 7455  36.147  12.068   8.550
 3614POPC   D2A 7456  36.126  12.062   8.250
 3614POPC   C3A 7457  36.139  12.089   7.950
 3614POPC   C4A 7458  36.160  12.062   7.650
 3614POPC   C1B 7459  35.866  12.037   8.550
 3614POPC   C2B 7460  35.883  12.121   8.250
 3614POPC   C3B 7461  35.904  12.066   7.950
 3614POPC   C4B 7462  35.893  12.050   7.650
 3615POPC   NC3 7463  22.164  24.504   9.450
 3615POPC   PO4 7464  22.159  24.468   9.150
 3615POPC   GL1 7465  22.187  24.535   8.850
 3615POPC   GL2 7466  22.089  24.478   8.850
 3615POPC   C1A 7467  22.114  24.496   8.550
 3615POPC   D2A 7468  22.126  24.506   8.250
 3615POPC   C3A 7469  22.137  24.502   7.950
 3615POPC   C4A 7470  22.180  24.530   7.650
 3615POPC   C1B 7471  21.905  24.508   8.550
 3615POPC   C2B 7472  21.909  24.585   8.250
 3615POPC   C3B 7473  21.912  24.555   7.950
 3615POPC   C4B 7474  21.929  24.594   7.650
 3616POPC   NC3 7475  31.451  31.455   9.450
 3616POPC   PO4 7476  31.515  31.463   9.150
 3616POPC   GL1 7477  31.507  31.492   8.850
 3616POPC   GL2 7478  31.557  31.413   8.850
 3616POPC   C1A 7479  31.514  31.510   8.550
 3616POPC   D2A 7480  31.495  31.488   8.250
 3616POPC   C3A 7481  31.433  31.423   7.950
 3616POPC   C4A 7482  31.502  31.501   7.650
 3616POPC   C1B 7483  31.739  31.389   8.550
 3616POPC   C2B 7484  31.732  31.368   8.250
 3616POPC   C3B 7485  31.673  31.345   7.950
 3616POPC   C4B 7486  31.698  31.423   7.650
 3617POPC   NC3 7487  40.770   4.301   9.450
 3617POPC   PO4 7488  40.753   4.309   9.150
 3617POPC   GL1 7489  40.763   4.268   8.850
 3617POPC   GL2 7490  40.858   4.286   8.850
 3617POPC   C1A 7491  40.754   4.348   8.550
 3617POPC   D2A 7492  40.777   4.316   8.250
 3617POPC   C3A 7493  40.749   4.340   7.950
 3617POPC   C4A 7494  40.789   4.358   7.650
 3617POPC   C1B 7495  40.990   4.233   8.550
 3617POPC   C2B 7496  41.055   4.304   8.250
 3617POPC   C3B 7497  40.979   4.312   7.950
 3617POPC   C4B 7498  41.005   4.277   7.650
 3618POPC   NC3 7499  25.271   1.972   9.450
 3618POPC   PO4 7500  25.256   1.968   9.150
 3618POPC   GL1 7501  25.314   1.991   8.850
 3618POPC   GL2 7502  25.400   2.025   8.850
 3618POPC   C1A 7503  25.296   2.001   8.550
 3618POPC   D2A 7504  25.228   1.994   8.250
 3618POPC   C3A 7505  25.281   2.036   7.950
 3618POPC   C4A 7506  25.299   1.981   7.650
 3618POPC   C1B 7507  25.527   2.101   8.550
 3618POPC   C2B 7508  25.481   2.105   8.250
 3618POPC   C3B 7509  25.498   2.123   7.950
 3618POPC   C4B 7510  25.509   2.098   7.650
 3619POPC   NC3 7511  19.028  35.327   9.450
 3619POPC   PO4 7512  19.027  35.364   9.150
 3619POPC   GL1 7513  19.085  35.318   8.850
 3619POPC   GL2 7514  18.953  35.217   8.850
 3619POPC   C1A 7515  19.041  35.310   8.550
 3619POPC   D2A 7516  19.087  35.309   8.250
 3619POPC   C3A 7517  19.072  35.380   7.950
 3619POPC   C4A 7518  19.043  35.351   7.650
 3619POPC   C1B 7519  18.929  35.147   8.550
 3619POPC   C2B 7520  18.926  35.161   8.250
 3619POPC   C3B 7521  18.914  35.089   7.950
 3619POPC   C4B 7522  18.895  35.091   7.650
 3620POPC   NC3 7523  43.842  15.916   9.450
 3620POPC   PO4 7524  43.840  15.964   9.150
 3620POPC   GL1 7525  43.867  15.939   8.850
 3620POPC   GL2 7526  43.754  15.932   8.850
 3620POPC   C1A 7527  43.927  15.982   8.550
 3620POPC   D2A 7528  43.863  15.985   8.250
 3620POPC   C3A 7529  43.884  15.908   7.950
 3620POPC   C4A 7530  43.869  15.920   7.650
 3620POPC   C1B 7531  43.600  16.011   8.550
 3620POPC   C2B 7532  43.609  16.025   8.250
 3620POPC   C3B 7533  43.661  15.966   7.950
 3620POPC   C4B 7534  43.678  15.987   7.650
 3621POPC   NC3 7535  36.133  22.899   9.450
 3621POPC   PO4 7536  36.151  22.941   9.150
 3621POPC   GL1 7537  36.087  22.906   8.850
 3621POPC   GL2 7538  36.072  23.106   8.850
 3621POPC   C1A 7539  36.116  22.946   8.550
 3621POPC   D2A 7540  36.159  22.919   8.250
 3621POPC   C3A 7541  36.160  22.950   7.950
 3621POPC   C4A 7542  36.097  22.926   7.650
 3621POPC   C1B 7543  36.080  23.143   8.550
 3621POPC   C2B 7544  36.078  23.179   8.250
 3621POPC   C3B 7545  36.053  23.203   7.950
 3621POPC   C4B 7546  36.048  23.132   7.650
 3622POPC   NC3 7547  43.079  22.211   9.450
 3622POPC   PO4 7548  43.147  22.118   9.150
 3622POPC   GL1 7549  43.093  22.155   8.850
 3622POPC   GL2 7550  43.271  22.149   8.850
 3622POPC   C1A 7551  43.088  22.171   8.550
 3622POPC   D2A 7552  43.119  22.210   8.250
 3622POPC   C3A 7553  43.149  22.151   7.950
 3622POPC   C4A 7554  43.081  22.159   7.650
 3622POPC   C1B 7555  43.389  22.110   8.550
 3622POPC   C2B 7556  43.351  22.159   8.250
 3622POPC   C3B 7557  43.367  22.112   7.950
 3622POPC   C4B 7558  43.402  22.094   7.650
 3623POPC   NC3 7559   2.023  29.128   9.450
 3623POPC   PO4 7560   1.971  29.128   9.150
 3623POPC   GL1 7561   1.952  29.159   8.850
 3623POPC   GL2 7562   1.966  29.307   8.850
 3623POPC   C1A 7563   2.017  29.151   8.550
 3623POPC   D2A 7564   1.968  29.132   8.250
 3623POPC   C3A 7565   2.033  29.161   7.950
 3623POPC   C4A 7566   1.996  29.102   7.650
 3623POPC   C1B 7567   1.933  29.371   8.550
 3623POPC   C2B 7568   1.932  29.398   8.250
 3623POPC   C3B 7569   1.969  29.424   7.950
 3623POPC   C4B 7570   1.961  29.409   7.650
 3624POPC   NC3 7571  32.199  44.621   9.450
 3624POPC   PO4 7572  32.295  44.634   9.150
 3624POPC   GL1 7573  32.202  44.635   8.850
 3624POPC   GL2 7574  32.160  44.610   8.850
 3624POPC   C1A 7575  32.273  44.709   8.550
 3624POPC   D2A 7576  32.222  44.630   8.250
 3624POPC   C3A 7577  32.245  44.686   7.950
 3624POPC   C4A 7578  32.257  44.641   7.650
 3624POPC   C1B 7579  32.014  44.550   8.550
 3624POPC   C2B 7580  32.028  44.546   8.250
 3624POPC   C3B 7581  32.002  44.594   7.950
 3624POPC   C4B 7582  32.046  44.631   7.650
 3625POPC   NC3 7583   4.309  40.048   9.450
 3625POPC   PO4 7584   4.338  39.995   9.150
 3625POPC   GL1 7585   4.331  39.979   8.850
 3625POPC   GL2 7586   4.385  39.931   8.850
 3625POPC   C1A 7587   4.282  39.975   8.550
 3625POPC   D2A 7588   4.304  39.967   8.250
 3625POPC   C3A 7589   4.320  39.988   7.950
 3625POPC   C4A 7590   4.354  40.017   7.650
 3625POPC   C1B 7591   4.427  39.733   8.550
 3625POPC   C2B 7592   4.399  39.820   8.250
 3625POPC   C3B 7593   4.362  39.792   7.950
 3625POPC   C4B 7594   4.358  39.786   7.650
 3626POPC   NC3 7595  15.173  15.916   9.450
 3626POPC   PO4 7596  15.207  15.959   9.150
 3626POPC   GL1 7597  15.210  15.996   8.850
 3626POPC   GL2 7598  15.318  16.012   8.850
 3626POPC   C1A 7599  15.141  15.929   8.550
 3626POPC   D2A 7600  15.182  15.948   8.250
 3626POPC   C3A 7601  15.221  15.933   7.950
 3626POPC   C4A 7602  15.140  16.000   7.650
 3626POPC   C1B 7603  15.420  16.078   8.550
 3626POPC   C2B 7604  15.424  16.036   8.250
 3626POPC   C3B 7605  15.415  16.075   7.950
 3626POPC   C4B 7606  15.375  15.989   7.650
 3627POPC   NC3 7607   4.288  22.183   9.450
 3627POPC   PO4 7608   4.330  22.122   9.150
 3627POPC   GL1 7609   4.323  22.112   8.850
 3627POPC   GL2 7610   4.450  22.227   8.850
 3627POPC   C1A 7611   4.361  22.179   8.550
 3627POPC   D2A 7612   4.292  22.200   8.250
 3627POPC   C3A 7613   4.355  22.125   7.950
 3627POPC   C4A 7614   4.304  22.210   7.650
 3627POPC   C1B 7615   4.538  22.356   8.550
 3627POPC   C2B 7616   4.518  22.382   8.250
 3627POPC   C3B 7617   4.529  22.358   7.950
 3627POPC   C4B 7618   4.529  22.331   7.650
 3628POPC   NC3 7619   4.270  19.871   9.450
 3628POPC   PO4 7620   4.337  19.799   9.150
 3628POPC   GL1 7621   4.276  19.786   8.850
 3628POPC   GL2 7622   4.208  19.872   8.850
 3628POPC   C1A 7623   4.314  19.794   8.550
 3628POPC   D2A 7624   4.284  19.879   8.250
 3628POPC   C3A 7625   4.292  19.837   7.950
 3628POPC   C4A 7626   4.275  19.834   7.650
 3628POPC   C1B 7627   4.116  20.024   8.550
 3628POPC   C2B 7628   4.110  19.965   8.250
 3628POPC   C3B 7629   4.089  20.037   7.950
 3628POPC   C4B 7630   4.108  19.948   7.650
 3629POPC   NC3 7631   1.982  19.796   9.450
 3629POPC   PO4 7632   1.971  19.876   9.150
 3629POPC   GL1 7633   1.993  19.813   8.850
 3629POPC   GL2 7634   2.081  19.836   8.850
 3629POPC   C1A 7635   2.011  19.827   8.550
 3629POPC   D2A 7636   1.946  19.802   8.250
 3629POPC   C3A 7637   1.972  19.800   7.950
 3629POPC   C4A 7638   1.964  19.870   7.650
 3629POPC   C1B 7639   2.236  19.911   8.550
 3629POPC   C2B 7640   2.209  19.855   8.250
 3629POPC   C3B 7641   2.213  19.901   7.950
 3629POPC   C4B 7642   2.208  19.860   7.650
 3630POPC   NC3 7643  12.084  15.194   9.450
 3630POPC   PO4 7644  12.069  15.208   9.150
 3630POPC   GL1 7645  12.102  15.179   8.850
 3630POPC   GL2 7646  12.211  15.168   8.850
 3630POPC   C1A 7647  12.059  15.139   8.550
 3630POPC   D2A 7648  12.052  15.174   8.250
 3630POPC   C3A 7649  12.103  15.213   7.950
 3630POPC   C4A 7650  12.030  15.149   7.650
 3630POPC   C1B 7651  12.339  15.239   8.550
 3630POPC   C2B 7652  12.284  15.229   8.250
 3630POPC   C3B 7653  12.312  15.293   7.950
 3630POPC   C4B 7654  12.335  15.230   7.650
 3631POPC   NC3 7655  29.931  35.335   9.450
 3631POPC   PO4 7656  29.969  35.325   9.150
 3631POPC   GL1 7657  29.896  35.323   8.850
 3631POPC   GL2 7658  30.079  35.345   8.850
 3631POPC   C1A 7659  29.887  35.314   8.550
 3631POPC   D2A 7660  29.922  35.317   8.250
 3631POPC   C3A 7661  29.958  35.306   7.950
 3631POPC   C4A 7662  29.907  35.348   7.650
 3631POPC   C1B 7663  30.201  35.330   8.550
 3631POPC   C2B 7664  30.215  35.327   8.250
 3631POPC   C3B 7665  30.152  35.380   7.950
 3631POPC   C4B 7666  30.123  35.308   7.650
 3632POPC   NC3 7667  29.922   9.775   9.450
 3632POPC   PO4 7668  29.950   9.702   9.150
 3632POPC   GL1 7669  29.890   9.707   8.850
 3632POPC   GL2 7670  29.903   9.624   8.850
 3632POPC   C1A 7671  29.956   9.763   8.550
 3632POPC   D2A 7672  29.891   9.760   8.250
 3632POPC   C3A 7673  29.892   9.726   7.950
 3632POPC   C4A 7674  29.951   9.714   7.650
 3632POPC   C1B 7675  29.953   9.514   8.550
 3632POPC   C2B 7676  29.979   9.529   8.250
 3632POPC   C3B 7677  29.958   9.546   7.950
 3632POPC   C4B 7678  29.900   9.514   7.650
 3633POPC   NC3 7679  15.219   8.177   9.450
 3633POPC   PO4 7680  15.222   8.185   9.150
 3633POPC   GL1 7681  15.229   8.150   8.850
 3633POPC   GL2 7682  15.033   8.162   8.850
 3633POPC   C1A 7683  15.131   8.180   8.550
 3633POPC   D2A 7684  15.172   8.238   8.250
 3633POPC   C3A 7685  15.180   8.192   7.950
 3633POPC   C4A 7686  15.146   8.200   7.650
 3633POPC   C1B 7687  14.947   8.081   8.550
 3633POPC   C2B 7688  14.954   8.093   8.250
 3633POPC   C3B 7689  14.953   8.051   7.950
 3633POPC   C4B 7690  15.006   8.025   7.650
 3634POPC   NC3 7691  35.347  17.528   9.450
 3634POPC   PO4 7692  35.325  17.553   9.150
 3634POPC   GL1 7693  35.312  17.535   8.850
 3634POPC   GL2 7694  35.351  17.414   8.850
 3634POPC   C1A 7695  35.397  17.495   8.550
 3634POPC   D2A 7696  35.321  17.552   8.250
 3634POPC   C3A 7697  35.356  17.542   7.950
 3634POPC   C4A 7698  35.401  17.467   7.650
 3634POPC   C1B 7699  35.255  17.214   8.550
 3634POPC   C2B 7700  35.284  17.309   8.250
 3634POPC   C3B 7701  35.334  17.289   7.950
 3634POPC   C4B 7702  35.315  17.273   7.650
 3635POPC   NC3 7703  14.431  43.846   9.450
 3635POPC   PO4 7704  14.406  43.839   9.150
 3635POPC   GL1 7705  14.439  43.880   8.850
 3635POPC   GL2 7706  14.538  43.833   8.850
 3635POPC   C1A 7707  14.428  43.838   8.550
 3635POPC   D2A 7708  14.379  43.848   8.250
 3635POPC   C3A 7709  14.362  43.935   7.950
 3635POPC   C4A 7710  14.356  43.908   7.650
 3635POPC   C1B 7711  14.605  43.821   8.550
 3635POPC   C2B 7712  14.631  43.784   8.250
 3635POPC   C3B 7713  14.582  43.791   7.950
 3635POPC   C4B 7714  14.660  43.769   7.650
 3636POPC   NC3 7715  25.298   5.881   9.450
 3636POPC   PO4 7716  25.250   5.887   9.150
 3636POPC   GL1 7717  25.281   5.856   8.850
 3636POPC   GL2 7718  25.319   5.937   8.850
 3636POPC   C1A 7719  25.284   5.886   8.550
 3636POPC   D2A 7720  25.284   5.842   8.250
 3636POPC   C3A 7721  25.312   5.895   7.950
 3636POPC   C4A 7722  25.313   5.849   7.650
 3636POPC   C1B 7723  25.471   6.053   8.550
 3636POPC   C2B 7724  25.463   6.033   8.250
 3636POPC   C3B 7725  25.463   6.004   7.950
 3636POPC   C4B 7726  25.446   6.042   7.650
 3637POPC   NC3 7727  14.452  18.255   9.450
 3637POPC   PO4 7728  14.440  18.328   9.150
 3637POPC   GL1 7729  14.381  18.277   8.850
 3637POPC   GL2 7730  14.393  18.387   8.850
 3637POPC   C1A 7731  14.408  18.317   8.550
 3637POPC   D2A 7732  14.450  18.254   8.250
 3637POPC   C3A 7733  14.383  18.329   7.950
 3637POPC   C4A 7734  14.388  18.274   7.650
 3637POPC   C1B 7735  14.372  18.567   8.550
 3637POPC   C2B 7736  14.394  18.538   8.250
 3637POPC   C3B 7737  14.378  18.487   7.950
 3637POPC   C4B 7738  14.390  18.550   7.650
 3638POPC   NC3 7739  24.524  20.601   9.450
 3638POPC   PO4 7740  24.442  20.568   9.150
 3638POPC   GL1 7741  24.508  20.568   8.850
 3638POPC   GL2 7742  24.329  20.618   8.850
 3638POPC   C1A 7743  24.468  20.613   8.550
 3638POPC   D2A 7744  24.467  20.637   8.250
 3638POPC   C3A 7745  24.484  20.653   7.950
 3638POPC   C4A 7746  24.537  20.617   7.650
 3638POPC   C1B 7747  24.203  20.563   8.550
 3638POPC   C2B 7748  24.241  20.637   8.250
 3638POPC   C3B 7749  24.226  20.604   7.950
 3638POPC   C4B 7750  24.252  20.614   7.650
 3639POPC   NC3 7751  25.243  37.701   9.450
 3639POPC   PO4 7752  25.291  37.694   9.150
 3639POPC   GL1 7753  25.243  37.678   8.850
 3639POPC   GL2 7754  25.124  37.666   8.850
 3639POPC   C1A 7755  25.257  37.705   8.550
 3639POPC   D2A 7756  25.311  37.643   8.250
 3639POPC   C3A 7757  25.244  37.631   7.950
 3639POPC   C4A 7758  25.234  37.677   7.650
 3639POPC   C1B 7759  25.004  37.672   8.550
 3639POPC   C2B 7760  24.984  37.691   8.250
 3639POPC   C3B 7761  25.009  37.673   7.950
 3639POPC   C4B 7762  25.015  37.625   7.650
 3640POPC   NC3 7763  29.146  31.512   9.450
 3640POPC   PO4 7764  29.179  31.479   9.150
 3640POPC   GL1 7765  29.148  31.482   8.850
 3640POPC   GL2 7766  29.207  31.584   8.850
 3640POPC   C1A 7767  29.100  31.514   8.550
 3640POPC   D2A 7768  29.105  31.465   8.250
 3640POPC   C3A 7769  29.191  31.510   7.950
 3640POPC   C4A 7770  29.132  31.454   7.650
 3640POPC   C1B 7771  29.272  31.628   8.550
 3640POPC   C2B 7772  29.295  31.662   8.250
 3640POPC   C3B 7773  29.303  31.686   7.950
 3640POPC   C4B 7774  29.371  31.599   7.650
 3641POPC   NC3 7775  19.011  41.523   9.450
 3641POPC   PO4 7776  19.081  41.563   9.150
 3641POPC   GL1 7777  19.087  41.603   8.850
 3641POPC   GL2 7778  18.947  41.546   8.850
 3641POPC   C1A 7779  19.030  41.598   8.550
 3641POPC   D2A 7780  19.076  41.509   8.250
 3641POPC   C3A 7781  19.024  41.594   7.950
 3641POPC   C4A 7782  19.073  41.555   7.650
 3641POPC   C1B 7783  18.858  41.524   8.550
 3641POPC   C2B 7784  18.873  41.463   8.250
 3641POPC   C3B 7785  18.858  41.478   7.950
 3641POPC   C4B 7786  18.791  41.425   7.650
 3642POPC   NC3 7787   0.480  43.863   9.450
 3642POPC   PO4 7788   0.413  43.837   9.150
 3642POPC   GL1 7789   0.408  43.850   8.850
 3642POPC   GL2 7790   0.427  44.007   8.850
 3642POPC   C1A 7791   0.438  43.860   8.550
 3642POPC   D2A 7792   0.397  43.931   8.250
 3642POPC   C3A 7793   0.399  43.869   7.950
 3642POPC   C4A 7794   0.406  43.903   7.650
 3642POPC   C1B 7795   0.430  44.134   8.550
 3642POPC   C2B 7796   0.419  44.091   8.250
 3642POPC   C3B 7797   0.393  44.178   7.950
 3642POPC   C4B 7798   0.401  44.173   7.650
 3643POPC   NC3 7799   4.282  19.096   9.450
 3643POPC   PO4 7800   4.356  19.048   9.150
 3643POPC   GL1 7801   4.324  19.011   8.850
 3643POPC   GL2 7802   4.368  18.962   8.850
 3643POPC   C1A 7803   4.281  19.071   8.550
 3643POPC   D2A 7804   4.355  19.093   8.250
 3643POPC   C3A 7805   4.331  19.106   7.950
 3643POPC   C4A 7806   4.302  19.088   7.650
 3643POPC   C1B 7807   4.561  18.919   8.550
 3643POPC   C2B 7808   4.549  18.873   8.250
 3643POPC   C3B 7809   4.480  18.917   7.950
 3643POPC   C4B 7810   4.482  18.870   7.650
 3644POPC   NC3 7811  42.350  36.086   9.450
 3644POPC   PO4 7812  42.355  36.100   9.150
 3644POPC   GL1 7813  42.345  36.174   8.850
 3644POPC   GL2 7814  42.237  36.039   8.850
 3644POPC   C1A 7815  42.353  36.156   8.550
 3644POPC   D2A 7816  42.359  36.169   8.250
 3644POPC   C3A 7817  42.319  36.081   7.950
 3644POPC   C4A 7818  42.318  36.173   7.650
 3644POPC   C1B 7819  42.274  35.904   8.550
 3644POPC   C2B 7820  42.237  35.895   8.250
 3644POPC   C3B 7821  42.269  35.891   7.950
 3644POPC   C4B 7822  42.238  35.933   7.650
 3645POPC   NC3 7823  17.457   2.784   9.450
 3645POPC   PO4 7824  17.481   2.737   9.150
 3645POPC   GL1 7825  17.521   2.754   8.850
 3645POPC   GL2 7826  17.637   2.880   8.850
 3645POPC   C1A 7827  17.498   2.809   8.550
 3645POPC   D2A 7828  17.517   2.742   8.250
 3645POPC   C3A 7829  17.488   2.812   7.950
 3645POPC   C4A 7830  17.498   2.747   7.650
 3645POPC   C1B 7831  17.720   2.955   8.550
 3645POPC   C2B 7832  17.651   2.972   8.250
 3645POPC   C3B 7833  17.691   2.965   7.950
 3645POPC   C4B 7834  17.689   2.970   7.650
 3646POPC   NC3 7835  29.921  30.705   9.450
 3646POPC   PO4 7836  29.924  30.681   9.150
 3646POPC   GL1 7837  29.893  30.708   8.850
 3646POPC   GL2 7838  29.809  30.641   8.850
 3646POPC   C1A 7839  29.938  30.665   8.550
 3646POPC   D2A 7840  29.879  30.722   8.250
 3646POPC   C3A 7841  29.937  30.679   7.950
 3646POPC   C4A 7842  29.875  30.679   7.650
 3646POPC   C1B 7843  29.760  30.513   8.550
 3646POPC   C2B 7844  29.732  30.514   8.250
 3646POPC   C3B 7845  29.773  30.503   7.950
 3646POPC   C4B 7846  29.758  30.555   7.650
 3647POPC   NC3 7847   6.662  18.308   9.450
 3647POPC   PO4 7848   6.687  18.297   9.150
 3647POPC   GL1 7849   6.602  18.325   8.850
 3647POPC   GL2 7850   6.678  18.178   8.850
 3647POPC   C1A 7851   6.681  18.271   8.550
 3647POPC   D2A 7852   6.615  18.270   8.250
 3647POPC   C3A 7853   6.645  18.238   7.950
 3647POPC   C4A 7854   6.599  18.253   7.650
 3647POPC   C1B 7855   6.823  18.046   8.550
 3647POPC   C2B 7856   6.756  18.055   8.250
 3647POPC   C3B 7857   6.830  18.045   7.950
 3647POPC   C4B 7858   6.780  18.127   7.650
 3648POPC   NC3 7859  18.275  12.870   9.450
 3648POPC   PO4 7860  18.263  12.839   9.150
 3648POPC   GL1 7861  18.239  12.847   8.850
 3648POPC   GL2 7862  18.404  12.895   8.850
 3648POPC   C1A 7863  18.321  12.871   8.550
 3648POPC   D2A 7864  18.256  12.806   8.250
 3648POPC   C3A 7865  18.298  12.893   7.950
 3648POPC   C4A 7866  18.327  12.854   7.650
 3648POPC   C1B 7867  18.489  12.934   8.550
 3648POPC   C2B 7868  18.487  12.981   8.250
 3648POPC   C3B 7869  18.524  12.996   7.950
 3648POPC   C4B 7870  18.467  12.995   7.650
 3649POPC   NC3 7871  33.837  12.049   9.450
 3649POPC   PO4 7872  33.776  12.088   9.150
 3649POPC   GL1 7873  33.810  12.103   8.850
 3649POPC   GL2 7874  33.907  12.194   8.850
 3649POPC   C1A 7875  33.767  12.076   8.550
 3649POPC   D2A 7876  33.805  12.037   8.250
 3649POPC   C3A 7877  33.791  12.049   7.950
 3649POPC   C4A 7878  33.772  12.088   7.650
 3649POPC   C1B 7879  33.923  12.254   8.550
 3649POPC   C2B 7880  33.891  12.309   8.250
 3649POPC   C3B 7881  33.919  12.307   7.950
 3649POPC   C4B 7882  33.960  12.282   7.650
 3650POPC   NC3 7883  21.361  35.393   9.450
 3650POPC   PO4 7884  21.376  35.367   9.150
 3650POPC   GL1 7885  21.416  35.304   8.850
 3650POPC   GL2 7886  21.474  35.313   8.850
 3650POPC   C1A 7887  21.367  35.361   8.550
 3650POPC   D2A 7888  21.371  35.370   8.250
 3650POPC   C3A 7889  21.435  35.364   7.950
 3650POPC   C4A 7890  21.387  35.363   7.650
 3650POPC   C1B 7891  21.605  35.176   8.550
 3650POPC   C2B 7892  21.544  35.236   8.250
 3650POPC   C3B 7893  21.540  35.166   7.950
 3650POPC   C4B 7894  21.630  35.227   7.650
 3651POPC   NC3 7895  43.892   3.522   9.450
 3651POPC   PO4 7896  43.908   3.513   9.150
 3651POPC   GL1 7897  43.860   3.498   8.850
 3651POPC   GL2 7898  43.984   3.442   8.850
 3651POPC   C1A 7899  43.907   3.579   8.550
 3651POPC   D2A 7900  43.927   3.576   8.250
 3651POPC   C3A 7901  43.920   3.575   7.950
 3651POPC   C4A 7902  43.839   3.527   7.650
 3651POPC   C1B 7903  44.119   3.440   8.550
 3651POPC   C2B 7904  44.099   3.457   8.250
 3651POPC   C3B 7905  44.117   3.391   7.950
 3651POPC   C4B 7906  44.128   3.389   7.650
 3652POPC   NC3 7907  33.004   4.309   9.450
 3652POPC   PO4 7908  33.020   4.311   9.150
 3652POPC   GL1 7909  32.982   4.310   8.850
 3652POPC   GL2 7910  32.975   4.406   8.850
 3652POPC   C1A 7911  32.983   4.301   8.550
 3652POPC   D2A 7912  33.041   4.366   8.250
 3652POPC   C3A 7913  33.030   4.290   7.950
 3652POPC   C4A 7914  33.064   4.325   7.650
 3652POPC   C1B 7915  32.979   4.541   8.550
 3652POPC   C2B 7916  32.921   4.532   8.250
 3652POPC   C3B 7917  32.998   4.582   7.950
 3652POPC   C4B 7918  32.986   4.593   7.650
 3653POPC   NC3 7919  22.145  26.772   9.450
 3653POPC   PO4 7920  22.200  26.865   9.150
 3653POPC   GL1 7921  22.146  26.799   8.850
 3653POPC   GL2 7922  22.033  26.873   8.850
 3653POPC   C1A 7923  22.211  26.811   8.550
 3653POPC   D2A 7924  22.203  26.786   8.250
 3653POPC   C3A 7925  22.121  26.774   7.950
 3653POPC   C4A 7926  22.144  26.834   7.650
 3653POPC   C1B 7927  22.031  27.024   8.550
 3653POPC   C2B 7928  22.007  27.052   8.250
 3653POPC   C3B 7929  22.009  27.033   7.950
 3653POPC   C4B 7930  21.971  27.045   7.650
 3654POPC   NC3 7931   2.719   6.624   9.450
 3654POPC   PO4 7932   2.760   6.677   9.150
 3654POPC   GL1 7933   2.754   6.637   8.850
 3654POPC   GL2 7934   2.732   6.488   8.850
 3654POPC   C1A 7935   2.738   6.661   8.550
 3654POPC   D2A 7936   2.804   6.625   8.250
 3654POPC   C3A 7937   2.726   6.684   7.950
 3654POPC   C4A 7938   2.789   6.606   7.650
 3654POPC   C1B 7939   2.708   6.370   8.550
 3654POPC   C2B 7940   2.693   6.457   8.250
 3654POPC   C3B 7941   2.701   6.412   7.950
 3654POPC   C4B 7942   2.705   6.448   7.650
 3655POPC   NC3 7943  26.837  33.039   9.450
 3655POPC   PO4 7944  26.812  33.074   9.150
 3655POPC   GL1 7945  26.786  33.052   8.850
 3655POPC   GL2 7946  26.839  33.157   8.850
 3655POPC   C1A 7947  26.830  32.993   8.550
 3655POPC   D2A 7948  26.793  33.065   8.250
 3655POPC   C3A 7949  26.789  33.054   7.950
 3655POPC   C4A 7950  26.798  33.043   7.650
 3655POPC   C1B 7951  26.907  33.240   8.550
 3655POPC   C2B 7952  26.895  33.235   8.250
 3655POPC   C3B 7953  26.947  33.224   7.950
 3655POPC   C4B 7954  26.976  33.202   7.650
 3656POPC   NC3 7955  33.063  29.137   9.450
 3656POPC   PO4 7956  33.001  29.097   9.150
 3656POPC   GL1 7957  33.000  29.166   8.850
 3656POPC   GL2 7958  33.092  29.067   8.850
 3656POPC   C1A 7959  33.012  29.106   8.550
 3656POPC   D2A 7960  33.040  29.121   8.250
 3656POPC   C3A 7961  32.990  29.183   7.950
 3656POPC   C4A 7962  32.976  29.109   7.650
 3656POPC   C1B 7963  33.081  28.877   8.550
 3656POPC   C2B 7964  33.065  28.878   8.250
 3656POPC   C3B 7965  33.050  28.937   7.950
 3656POPC   C4B 7966  33.097  28.875   7.650
 3657POPC   NC3 7967  10.521   3.553   9.450
 3657POPC   PO4 7968  10.556   3.532   9.150
 3657POPC   GL1 7969  10.531   3.547   8.850
 3657POPC   GL2 7970  10.617   3.640   8.850
 3657POPC   C1A 7971  10.502   3.535   8.550
 3657POPC   D2A 7972  10.539   3.526   8.250
 3657POPC   C3A 7973  10.516   3.558   7.950
 3657POPC   C4A 7974  10.514   3.568   7.650
 3657POPC   C1B 7975  10.722   3.697   8.550
 3657POPC   C2B 7976  10.746   3.647   8.250
 3657POPC   C3B 7977  10.778   3.677   7.950
 3657POPC   C4B 7978  10.700   3.651   7.650
 3658POPC   NC3 7979  39.238  13.676   9.450
 3658POPC   PO4 7980  39.248  13.597   9.150
 3658POPC   GL1 7981  39.239  13.637   8.850
 3658POPC   GL2 7982  39.320  13.736   8.850
 3658POPC   C1A 7983  39.203  13.645   8.550
 3658POPC   D2A 7984  39.252  13.613   8.250
 3658POPC   C3A 7985  39.225  13.662   7.950
 3658POPC   C4A 7986  39.235  13.637   7.650
 3658POPC   C1B 7987  39.445  13.812   8.550
 3658POPC   C2B 7988  39.435  13.772   8.250
 3658POPC   C3B 7989  39.407  13.758   7.950
 3658POPC   C4B 7990  39.403  13.813   7.650
 3659POPC   NC3 7991  30.712  10.498   9.450
 3659POPC   PO4 7992  30.689  10.487   9.150
 3659POPC   GL1 7993  30.673  10.536   8.850
 3659POPC   GL2 7994  30.841  10.555   8.850
 3659POPC   C1A 7995  30.689  10.475   8.550
 3659POPC   D2A 7996  30.655  10.476   8.250
 3659POPC   C3A 7997  30.705  10.511   7.950
 3659POPC   C4A 7998  30.689  10.500   7.650
 3659POPC   C1B 7999  30.987  10.585   8.550
 3659POPC   C2B 8000  30.973  10.582   8.250
 3659POPC   C3B 8001  30.952  10.590   7.950
 3659POPC   C4B 8002  30.982  10.557   7.650
 3660POPC   NC3 8003  19.813   9.743   9.450
 3660POPC   PO4 8004  19.840   9.754   9.150
 3660POPC   GL1 8005  19.815   9.753   8.850
 3660POPC   GL2 8006  19.782   9.693   8.850
 3660POPC   C1A 8007  19.862   9.701   8.550
 3660POPC   D2A 8008  19.821   9.788   8.250
 3660POPC   C3A 8009  19.818   9.757   7.950
 3660POPC   C4A 8010  19.837   9.725   7.650
 3660POPC   C1B 8011  19.655   9.542   8.550
 3660POPC   C2B 8012  19.714   9.530   8.250
 3660POPC   C3B 8013  19.725   9.519   7.950
 3660POPC   C4B 8014  19.655   9.530   7.650
 3661POPC   NC3 8015  30.684   4.327   9.450
 3661POPC   PO4 8016  30.675   4.298   9.150
 3661POPC   GL1 8017  30.709   4.306   8.850
 3661POPC   GL2 8018  30.584   4.228   8.850
 3661POPC   C1A 8019  30.661   4.292   8.550
 3661POPC   D2A 8020  30.744   4.340   8.250
 3661POPC   C3A 8021  30.707   4.300   7.950
 3661POPC   C4A 8022  30.714   4.325   7.650
 3661POPC   C1B 8023  30.509   4.093   8.550
 3661POPC   C2B 8024  30.575   4.124   8.250
 3661POPC   C3B 8025  30.582   4.066   7.950
 3661POPC   C4B 8026  30.500   4.119   7.650
 3662POPC   NC3 8027   3.514   9.720   9.450
 3662POPC   PO4 8028   3.520   9.749   9.150
 3662POPC   GL1 8029   3.505   9.776   8.850
 3662POPC   GL2 8030   3.503   9.900   8.850
 3662POPC   C1A 8031   3.552   9.753   8.550
 3662POPC   D2A 8032   3.521   9.740   8.250
 3662POPC   C3A 8033   3.538   9.757   7.950
 3662POPC   C4A 8034   3.522   9.739   7.650
 3662POPC   C1B 8035   3.517   9.974   8.550
 3662POPC   C2B 8036   3.515  10.030   8.250
 3662POPC   C3B 8037   3.519  10.042   7.950
 3662POPC   C4B 8038   3.482  10.018   7.650
 3663POPC   NC3 8039   1.181  15.948   9.450
 3663POPC   PO4 8040   1.251  15.938   9.150
 3663POPC   GL1 8041   1.258  15.907   8.850
 3663POPC   GL2 8042   1.120  16.029   8.850
 3663POPC   C1A 8043   1.248  15.998   8.550
 3663POPC   D2A 8044   1.182  15.997   8.250
 3663POPC   C3A 8045   1.240  15.992   7.950
 3663POPC   C4A 8046   1.248  15.937   7.650
 3663POPC   C1B 8047   1.012  16.041   8.550
 3663POPC   C2B 8048   0.986  16.118   8.250
 3663POPC   C3B 8049   0.963  16.097   7.950
 3663POPC   C4B 8050   0.975  16.074   7.650
 3664POPC   NC3 8051  37.701  17.471   9.450
 3664POPC   PO4 8052  37.655  17.487   9.150
 3664POPC   GL1 8053  37.709  17.480   8.850
 3664POPC   GL2 8054  37.649  17.388   8.850
 3664POPC   C1A 8055  37.649  17.469   8.550
 3664POPC   D2A 8056  37.692  17.502   8.250
 3664POPC   C3A 8057  37.667  17.490   7.950
 3664POPC   C4A 8058  37.729  17.505   7.650
 3664POPC   C1B 8059  37.545  17.294   8.550
 3664POPC   C2B 8060  37.514  17.288   8.250
 3664POPC   C3B 8061  37.556  17.276   7.950
 3664POPC   C4B 8062  37.543  17.287   7.650
 3665POPC   NC3 8063  15.152  15.163   9.450
 3665POPC   PO4 8064  15.193  15.135   9.150
 3665POPC   GL1 8065  15.222  15.170   8.850
 3665POPC   GL2 8066  15.066  15.090   8.850
 3665POPC   C1A 8067  15.177  15.182   8.550
 3665POPC   D2A 8068  15.184  15.147   8.250
 3665POPC   C3A 8069  15.134  15.145   7.950
 3665POPC   C4A 8070  15.153  15.139   7.650
 3665POPC   C1B 8071  14.933  15.125   8.550
 3665POPC   C2B 8072  14.971  15.108   8.250
 3665POPC   C3B 8073  14.971  15.064   7.950
 3665POPC   C4B 8074  14.934  15.104   7.650
 3666POPC   NC3 8075  26.088  16.700   9.450
 3666POPC   PO4 8076  26.086  16.765   9.150
 3666POPC   GL1 8077  26.061  16.780   8.850
 3666POPC   GL2 8078  25.888  16.795   8.850
 3666POPC   C1A 8079  26.091  16.758   8.550
 3666POPC   D2A 8080  26.018  16.727   8.250
 3666POPC   C3A 8081  26.073  16.719   7.950
 3666POPC   C4A 8082  26.014  16.746   7.650
 3666POPC   C1B 8083  25.791  16.802   8.550
 3666POPC   C2B 8084  25.824  16.764   8.250
 3666POPC   C3B 8085  25.836  16.828   7.950
 3666POPC   C4B 8086  25.774  16.803   7.650
 3667POPC   NC3 8087  34.572  30.745   9.450
 3667POPC   PO4 8088  34.571  30.726   9.150
 3667POPC   GL1 8089  34.559  30.728   8.850
 3667POPC   GL2 8090  34.471  30.570   8.850
 3667POPC   C1A 8091  34.582  30.664   8.550
 3667POPC   D2A 8092  34.607  30.732   8.250
 3667POPC   C3A 8093  34.625  30.664   7.950
 3667POPC   C4A 8094  34.605  30.743   7.650
 3667POPC   C1B 8095  34.409  30.567   8.550
 3667POPC   C2B 8096  34.389  30.531   8.250
 3667POPC   C3B 8097  34.421  30.522   7.950
 3667POPC   C4B 8098  34.437  30.570   7.650
 3668POPC   NC3 8099  37.699   2.724   9.450
 3668POPC   PO4 8100  37.640   2.778   9.150
 3668POPC   GL1 8101  37.693   2.811   8.850
 3668POPC   GL2 8102  37.602   2.768   8.850
 3668POPC   C1A 8103  37.648   2.802   8.550
 3668POPC   D2A 8104  37.650   2.797   8.250
 3668POPC   C3A 8105  37.686   2.791   7.950
 3668POPC   C4A 8106  37.718   2.803   7.650
 3668POPC   C1B 8107  37.443   2.837   8.550
 3668POPC   C2B 8108  37.420   2.836   8.250
 3668POPC   C3B 8109  37.432   2.818   7.950
 3668POPC   C4B 8110  37.421   2.805   7.650
 3669POPC   NC3 8111  26.016  10.537   9.450
 3669POPC   PO4 8112  26.076  10.505   9.150
 3669POPC   GL1 8113  26.020  10.529   8.850
 3669POPC   GL2 8114  25.946  10.618   8.850
 3669POPC   C1A 8115  26.057  10.493   8.550
 3669POPC   D2A 8116  26.009  10.505   8.250
 3669POPC   C3A 8117  26.012  10.506   7.950
 3669POPC   C4A 8118  26.091  10.476   7.650
 3669POPC   C1B 8119  25.914  10.716   8.550
 3669POPC   C2B 8120  25.874  10.715   8.250
 3669POPC   C3B 8121  25.916  10.718   7.950
 3669POPC   C4B 8122  25.946  10.765   7.650
 3670POPC   NC3 8123  18.302  11.288   9.450
 3670POPC   PO4 8124  18.277  11.290   9.150
 3670POPC   GL1 8125  18.263  11.322   8.850
 3670POPC   GL2 8126  18.114  11.343   8.850
 3670POPC   C1A 8127  18.304  11.323   8.550
 3670POPC   D2A 8128  18.277  11.263   8.250
 3670POPC   C3A 8129  18.249  11.321   7.950
 3670POPC   C4A 8130  18.322  11.323   7.650
 3670POPC   C1B 8131  18.050  11.320   8.550
 3670POPC   C2B 8132  18.033  11.308   8.250
 3670POPC   C3B 8133  18.055  11.302   7.950
 3670POPC   C4B 8134  18.058  11.378   7.650
 3671POPC   NC3 8135  39.276   2.809   9.450
 3671POPC   PO4 8136  39.244   2.754   9.150
 3671POPC   GL1 8137  39.198   2.742   8.850
 3671POPC   GL2 8138  39.261   2.898   8.850
 3671POPC   C1A 8139  39.224   2.776   8.550
 3671POPC   D2A 8140  39.273   2.811   8.250
 3671POPC   C3A 8141  39.243   2.760   7.950
 3671POPC   C4A 8142  39.219   2.736   7.650
 3671POPC   C1B 8143  39.246   3.001   8.550
 3671POPC   C2B 8144  39.218   3.021   8.250
 3671POPC   C3B 8145  39.198   3.001   7.950
 3671POPC   C4B 8146  39.244   3.042   7.650
 3672POPC   NC3 8147   9.714  36.905   9.450
 3672POPC   PO4 8148   9.712  36.863   9.150
 3672POPC   GL1 8149   9.787  36.929   8.850
 3672POPC   GL2 8150   9.811  37.024   8.850
 3672POPC   C1A 8151   9.727  36.862   8.550
 3672POPC   D2A 8152   9.772  36.890   8.250
 3672POPC   C3A 8153   9.776  36.863   7.950
 3672POPC   C4A 8154   9.762  36.878   7.650
 3672POPC   C1B 8155   9.891  37.085   8.550
 3672POPC   C2B 8156   9.873  37.096   8.250
 3672POPC   C3B 8157   9.881  37.164   7.950
 3672POPC   C4B 8158   9.863  37.114   7.650
 3673POPC   NC3 8159  34.566   0.401   9.450
 3673POPC   PO4 8160  34.539   0.412   9.150
 3673POPC   GL1 8161  34.570   0.403   8.850
 3673POPC   GL2 8162  34.412   0.372   8.850
 3673POPC   C1A 8163  34.532   0.405   8.550
 3673POPC   D2A 8164  34.595   0.408   8.250
 3673POPC   C3A 8165  34.597   0.460   7.950
 3673POPC   C4A 8166  34.571   0.459   7.650
 3673POPC   C1B 8167  34.332   0.351   8.550
 3673POPC   C2B 8168  34.375   0.354   8.250
 3673POPC   C3B 8169  34.320   0.342   7.950
 3673POPC   C4B 8170  34.323   0.383   7.650
 3674POPC   NC3 8171  37.714  40.759   9.450
 3674POPC   PO4 8172  37.660  40.801   9.150
 3674POPC   GL1 8173  37.713  40.803   8.850
 3674POPC   GL2 8174  37.567  40.735   8.850
 3674POPC   C1A 8175  37.683  40.813   8.550
 3674POPC   D2A 8176  37.679  40.820   8.250
 3674POPC   C3A 8177  37.689  40.772   7.950
 3674POPC   C4A 8178  37.724  40.772   7.650
 3674POPC   C1B 8179  37.427  40.732   8.550
 3674POPC   C2B 8180  37.434  40.703   8.250
 3674POPC   C3B 8181  37.450  40.746   7.950
 3674POPC   C4B 8182  37.407  40.728   7.650
 3675POPC   NC3 8183  15.218   5.060   9.450
 3675POPC   PO4 8184  15.131   5.111   9.150
 3675POPC   GL1 8185  15.141   5.113   8.850
 3675POPC   GL2 8186  15.230   5.171   8.850
 3675POPC   C1A 8187  15.180   5.121   8.550
 3675POPC   D2A 8188  15.203   5.088   8.250
 3675POPC   C3A 8189  15.201   5.136   7.950
 3675POPC   C4A 8190  15.156   5.111   7.650
 3675POPC   C1B 8191  15.236   5.375   8.550
 3675POPC   C2B 8192  15.268   5.331   8.250
 3675POPC   C3B 8193  15.177   5.388   7.950
 3675POPC   C4B 8194  15.207   5.350   7.650
 3676POPC   NC3 8195   8.188  43.894   9.450
 3676POPC   PO4 8196   8.239  43.921   9.150
 3676POPC   GL1 8197   8.199  43.892   8.850
 3676POPC   GL2 8198   8.119  43.822   8.850
 3676POPC   C1A 8199   8.173  43.848   8.550
 3676POPC   D2A 8200   8.210  43.871   8.250
 3676POPC   C3A 8201   8.222  43.911   7.950
 3676POPC   C4A 8202   8.228  43.905   7.650
 3676POPC   C1B 8203   8.028  43.729   8.550
 3676POPC   C2B 8204   7.969  43.744   8.250
 3676POPC   C3B 8205   7.969  43.666   7.950
 3676POPC   C4B 8206   8.066  43.732   7.650
 3677POPC   NC3 8207   4.274  12.104   9.450
 3677POPC   PO4 8208   4.287  12.122   9.150
 3677POPC   GL1 8209   4.271  12.035   8.850
 3677POPC   GL2 8210   4.367  12.238   8.850
 3677POPC   C1A 8211   4.301  12.122   8.550
 3677POPC   D2A 8212   4.331  12.039   8.250
 3677POPC   C3A 8213   4.312  12.038   7.950
 3677POPC   C4A 8214   4.356  12.111   7.650
 3677POPC   C1B 8215   4.348  12.341   8.550
 3677POPC   C2B 8216   4.338  12.298   8.250
 3677POPC   C3B 8217   4.379  12.355   7.950
 3677POPC   C4B 8218   4.353  12.345   7.650
 3678POPC   NC3 8219  28.346  15.993   9.450
 3678POPC   PO4 8220  28.394  15.910   9.150
 3678POPC   GL1 8221  28.408  15.975   8.850
 3678POPC   GL2 8222  28.384  16.037   8.850
 3678POPC   C1A 8223  28.414  15.949   8.550
 3678POPC   D2A 8224  28.393  15.921   8.250
 3678POPC   C3A 8225  28.349  15.912   7.950
 3678POPC   C4A 8226  28.391  15.921   7.650
 3678POPC   C1B 8227  28.346  16.203   8.550
 3678POPC   C2B 8228  28.372  16.212   8.250
 3678POPC   C3B 8229  28.336  16.238   7.950
 3678POPC   C4B 8230  28.371  16.189   7.650
 3679POPC   NC3 8231   4.311  37.677   9.450
 3679POPC   PO4 8232   4.286  37.676   9.150
 3679POPC   GL1 8233   4.318  37.712   8.850
 3679POPC   GL2 8234   4.411  37.660   8.850
 3679POPC   C1A 8235   4.278  37.640   8.550
 3679POPC   D2A 8236   4.280  37.690   8.250
 3679POPC   C3A 8237   4.296  37.682   7.950
 3679POPC   C4A 8238   4.353  37.693   7.650
 3679POPC   C1B 8239   4.576  37.634   8.550
 3679POPC   C2B 8240   4.563  37.631   8.250
 3679POPC   C3B 8241   4.585  37.692   7.950
 3679POPC   C4B 8242   4.560  37.673   7.650
 3680POPC   NC3 8243  19.031  40.044   9.450
 3680POPC   PO4 8244  19.067  40.029   9.150
 3680POPC   GL1 8245  19.059  39.989   8.850
 3680POPC   GL2 8246  19.097  39.874   8.850
 3680POPC   C1A 8247  19.099  40.050   8.550
 3680POPC   D2A 8248  19.027  40.046   8.250
 3680POPC   C3A 8249  19.052  40.044   7.950
 3680POPC   C4A 8250  19.035  39.962   7.650
 3680POPC   C1B 8251  19.058  39.795   8.550
 3680POPC   C2B 8252  19.031  39.732   8.250
 3680POPC   C3B 8253  19.076  39.801   7.950
 3680POPC   C4B 8254  19.076  39.785   7.650
 3681POPC   NC3 8255  10.481  31.511   9.450
 3681POPC   PO4 8256  10.494  31.483   9.150
 3681POPC   GL1 8257  10.536  31.498   8.850
 3681POPC   GL2 8258  10.578  31.419   8.850
 3681POPC   C1A 8259  10.560  31.442   8.550
 3681POPC   D2A 8260  10.526  31.513   8.250
 3681POPC   C3A 8261  10.514  31.435   7.950
 3681POPC   C4A 8262  10.508  31.433   7.650
 3681POPC   C1B 8263  10.700  31.311   8.550
 3681POPC   C2B 8264  10.757  31.300   8.250
 3681POPC   C3B 8265  10.699  31.334   7.950
 3681POPC   C4B 8266  10.736  31.349   7.650
 3682POPC   NC3 8267  22.136  20.658   9.450
 3682POPC   PO4 8268  22.185  20.635   9.150
 3682POPC   GL1 8269  22.173  20.586   8.850
 3682POPC   GL2 8270  22.220  20.464   8.850
 3682POPC   C1A 8271  22.122  20.607   8.550
 3682POPC   D2A 8272  22.175  20.563   8.250
 3682POPC   C3A 8273  22.132  20.633   7.950
 3682POPC   C4A 8274  22.118  20.645   7.650
 3682POPC   C1B 8275  22.330  20.383   8.550
 3682POPC   C2B 8276  22.303  20.398   8.250
 3682POPC   C3B 8277  22.359  20.458   7.950
 3682POPC   C4B 8278  22.353  20.365   7.650
 3683POPC   NC3 8279  42.337  27.626   9.450
 3683POPC   PO4 8280  42.352  27.612   9.150
 3683POPC   GL1 8281  42.312  27.575   8.850
 3683POPC   GL2 8282  42.380  27.464   8.850
 3683POPC   C1A 8283  42.305  27.545   8.550
 3683POPC   D2A 8284  42.368  27.611   8.250
 3683POPC   C3A 8285  42.330  27.638   7.950
 3683POPC   C4A 8286  42.336  27.547   7.650
 3683POPC   C1B 8287  42.502  27.378   8.550
 3683POPC   C2B 8288  42.523  27.404   8.250
 3683POPC   C3B 8289  42.484  27.407   7.950
 3683POPC   C4B 8290  42.461  27.402   7.650
 3684POPC   NC3 8291  34.596  16.684   9.450
 3684POPC   PO4 8292  34.572  16.696   9.150
 3684POPC   GL1 8293  34.584  16.699   8.850
 3684POPC   GL2 8294  34.611  16.876   8.850
 3684POPC   C1A 8295  34.546  16.688   8.550
 3684POPC   D2A 8296  34.605  16.700   8.250
 3684POPC   C3A 8297  34.583  16.767   7.950
 3684POPC   C4A 8298  34.622  16.705   7.650
 3684POPC   C1B 8299  34.687  16.895   8.550
 3684POPC   C2B 8300  34.749  16.964   8.250
 3684POPC   C3B 8301  34.735  16.932   7.950
 3684POPC   C4B 8302  34.761  16.931   7.650
 3685POPC   NC3 8303  21.369  27.614   9.450
 3685POPC   PO4 8304  21.391  27.562   9.150
 3685POPC   GL1 8305  21.408  27.617   8.850
 3685POPC   GL2 8306  21.380  27.455   8.850
 3685POPC   C1A 8307  21.384  27.583   8.550
 3685POPC   D2A 8308  21.346  27.591   8.250
 3685POPC   C3A 8309  21.404  27.607   7.950
 3685POPC   C4A 8310  21.379  27.582   7.650
 3685POPC   C1B 8311  21.425  27.400   8.550
 3685POPC   C2B 8312  21.459  27.382   8.250
 3685POPC   C3B 8313  21.494  27.325   7.950
 3685POPC   C4B 8314  21.473  27.325   7.650
 3686POPC   NC3 8315  36.135   8.230   9.450
 3686POPC   PO4 8316  36.176   8.159   9.150
 3686POPC   GL1 8317  36.118   8.186   8.850
 3686POPC   GL2 8318  36.015   8.165   8.850
 3686POPC   C1A 8319  36.140   8.199   8.550
 3686POPC   D2A 8320  36.083   8.168   8.250
 3686POPC   C3A 8321  36.090   8.161   7.950
 3686POPC   C4A 8322  36.151   8.150   7.650
 3686POPC   C1B 8323  35.922   8.178   8.550
 3686POPC   C2B 8324  35.889   8.240   8.250
 3686POPC   C3B 8325  35.925   8.174   7.950
 3686POPC   C4B 8326  35.869   8.181   7.650
 3687POPC   NC3 8327  26.785  37.631   9.450
 3687POPC   PO4 8328  26.796  37.669   9.150
 3687POPC   GL1 8329  26.773  37.660   8.850
 3687POPC   GL2 8330  26.971  37.755   8.850
 3687POPC   C1A 8331  26.768  37.635   8.550
 3687POPC   D2A 8332  26.859  37.682   8.250
 3687POPC   C3A 8333  26.810  37.639   7.950
 3687POPC   C4A 8334  26.777  37.713   7.650
 3687POPC   C1B 8335  27.023  37.771   8.550
 3687POPC   C2B 8336  27.049  37.794   8.250
 3687POPC   C3B 8337  26.993  37.803   7.950
 3687POPC   C4B 8338  27.019  37.831   7.650
 3688POPC   NC3 8339  38.465  12.851   9.450
 3688POPC   PO4 8340  38.458  12.849   9.150
 3688POPC   GL1 8341  38.415  12.805   8.850
 3688POPC   GL2 8342  38.343  12.969   8.850
 3688POPC   C1A 8343  38.466  12.854   8.550
 3688POPC   D2A 8344  38.479  12.875   8.250
 3688POPC   C3A 8345  38.499  12.874   7.950
 3688POPC   C4A 8346  38.471  12.815   7.650
 3688POPC   C1B 8347  38.241  13.057   8.550
 3688POPC   C2B 8348  38.266  13.084   8.250
 3688POPC   C3B 8349  38.313  13.037   7.950
 3688POPC   C4B 8350  38.285  13.076   7.650
 3689POPC   NC3 8351  36.107  29.127   9.450
 3689POPC   PO4 8352  36.148  29.123   9.150
 3689POPC   GL1 8353  36.144  29.104   8.850
 3689POPC   GL2 8354  36.007  29.116   8.850
 3689POPC   C1A 8355  36.138  29.119   8.550
 3689POPC   D2A 8356  36.101  29.182   8.250
 3689POPC   C3A 8357  36.083  29.163   7.950
 3689POPC   C4A 8358  36.085  29.100   7.650
 3689POPC   C1B 8359  35.914  29.035   8.550
 3689POPC   C2B 8360  35.941  28.979   8.250
 3689POPC   C3B 8361  35.906  29.044   7.950
 3689POPC   C4B 8362  35.877  29.018   7.650
 3690POPC   NC3 8363   0.431  37.693   9.450
 3690POPC   PO4 8364   0.397  37.721   9.150
 3690POPC   GL1 8365   0.398  37.728   8.850
 3690POPC   GL2 8366   0.411  37.822   8.850
 3690POPC   C1A 8367   0.432  37.697   8.550
 3690POPC   D2A 8368   0.434  37.677   8.250
 3690POPC   C3A 8369   0.399  37.727   7.950
 3690POPC   C4A 8370   0.465  37.636   7.650
 3690POPC   C1B 8371   0.331  37.915   8.550
 3690POPC   C2B 8372   0.392  37.941   8.250
 3690POPC   C3B 8373   0.406  37.950   7.950
 3690POPC   C4B 8374   0.418  37.898   7.650
 3691POPC   NC3 8375  26.858  39.258   9.450
 3691POPC   PO4 8376  26.807  39.244   9.150
 3691POPC   GL1 8377  26.831  39.195   8.850
 3691POPC   GL2 8378  26.689  39.196   8.850
 3691POPC   C1A 8379  26.856  39.195   8.550
 3691POPC   D2A 8380  26.844  39.221   8.250
 3691POPC   C3A 8381  26.854  39.241   7.950
 3691POPC   C4A 8382  26.782  39.272   7.650
 3691POPC   C1B 8383  26.572  39.178   8.550
 3691POPC   C2B 8384  26.554  39.191   8.250
 3691POPC   C3B 8385  26.544  39.195   7.950
 3691POPC   C4B 8386  26.565  39.180   7.650
 3692POPC   NC3 8387  31.453  21.369   9.450
 3692POPC   PO4 8388  31.436  21.411   9.150
 3692POPC   GL1 8389  31.429  21.369   8.850
 3692POPC   GL2 8390  31.417  21.257   8.850
 3692POPC   C1A 8391  31.453  21.386   8.550
 3692POPC   D2A 8392  31.443  21.416   8.250
 3692POPC   C3A 8393  31.495  21.376   7.950
 3692POPC   C4A 8394  31.461  21.403   7.650
 3692POPC   C1B 8395  31.272  21.229   8.550
 3692POPC   C2B 8396  31.252  21.186   8.250
 3692POPC   C3B 8397  31.334  21.255   7.950
 3692POPC   C4B 8398  31.313  21.235   7.650
 3693POPC   NC3 8399  33.841  41.579   9.450
 3693POPC   PO4 8400  33.779  41.527   9.150
 3693POPC   GL1 8401  33.758  41.556   8.850
 3693POPC   GL2 8402  33.690  41.634   8.850
 3693POPC   C1A 8403  33.769  41.526   8.550
 3693POPC   D2A 8404  33.814  41.531   8.250
 3693POPC   C3A 8405  33.812  41.566   7.950
 3693POPC   C4A 8406  33.813  41.600   7.650
 3693POPC   C1B 8407  33.571  41.636   8.550
 3693POPC   C2B 8408  33.538  41.581   8.250
 3693POPC   C3B 8409  33.580  41.573   7.950
 3693POPC   C4B 8410  33.557  41.641   7.650
 3694POPC   NC3 8411  34.529  20.660   9.450
 3694POPC   PO4 8412  34.583  20.583   9.150
 3694POPC   GL1 8413  34.564  20.621   8.850
 3694POPC   GL2 8414  34.459  20.729   8.850
 3694POPC   C1A 8415  34.549  20.589   8.550
 3694POPC   D2A 8416  34.621  20.618   8.250
 3694POPC   C3A 8417  34.533  20.628   7.950
 3694POPC   C4A 8418  34.532  20.650   7.650
 3694POPC   C1B 8419  34.435  20.774   8.550
 3694POPC   C2B 8420  34.431  20.811   8.250
 3694POPC   C3B 8421  34.364  20.785   7.950
 3694POPC   C4B 8422  34.398  20.825   7.650
 3695POPC   NC3 8423  18.271  19.049   9.450
 3695POPC   PO4 8424  18.284  19.015   9.150
 3695POPC   GL1 8425  18.258  19.070   8.850
 3695POPC   GL2 8426  18.451  19.114   8.850
 3695POPC   C1A 8427  18.311  19.043   8.550
 3695POPC   D2A 8428  18.307  19.106   8.250
 3695POPC   C3A 8429  18.307  19.022   7.950
 3695POPC   C4A 8430  18.297  19.018   7.650
 3695POPC   C1B 8431  18.551  19.078   8.550
 3695POPC   C2B 8432  18.576  19.124   8.250
 3695POPC   C3B 8433  18.570  19.072   7.950
 3695POPC   C4B 8434  18.515  19.041   7.650
 3696POPC   NC3 8435  33.773  22.209   9.450
 3696POPC   PO4 8436  33.764  22.158   9.150
 3696POPC   GL1 8437  33.844  22.173   8.850
 3696POPC   GL2 8438  33.724  22.192   8.850
 3696POPC   C1A 8439  33.801  22.157   8.550
 3696POPC   D2A 8440  33.770  22.202   8.250
 3696POPC   C3A 8441  33.786  22.129   7.950
 3696POPC   C4A 8442  33.793  22.202   7.650
 3696POPC   C1B 8443  33.555  22.331   8.550
 3696POPC   C2B 8444  33.621  22.338   8.250
 3696POPC   C3B 8445  33.572  22.333   7.950
 3696POPC   C4B 8446  33.609  22.320   7.650
 3697POPC   NC3 8447  42.322  30.651   9.450
 3697POPC   PO4 8448  42.300  30.726   9.150
 3697POPC   GL1 8449  42.321  30.666   8.850
 3697POPC   GL2 8450  42.228  30.637   8.850
 3697POPC   C1A 8451  42.339  30.692   8.550
 3697POPC   D2A 8452  42.329  30.712   8.250
 3697POPC   C3A 8453  42.335  30.655   7.950
 3697POPC   C4A 8454  42.354  30.679   7.650
 3697POPC   C1B 8455  42.091  30.568   8.550
 3697POPC   C2B 8456  42.099  30.623   8.250
 3697POPC   C3B 8457  42.147  30.607   7.950
 3697POPC   C4B 8458  42.075  30.600   7.650
 3698POPC   NC3 8459   9.019  40.741   9.450
 3698POPC   PO4 8460   9.001  40.789   9.150
 3698POPC   GL1 8461   8.950  40.809   8.850
 3698POPC   GL2 8462   8.950  40.860   8.850
 3698POPC   C1A 8463   8.973  40.741   8.550
 3698POPC   D2A 8464   8.963  40.804   8.250
 3698POPC   C3A 8465   8.989  40.782   7.950
 3698POPC   C4A 8466   9.009  40.734   7.650
 3698POPC   C1B 8467   8.871  41.052   8.550
 3698POPC   C2B 8468   8.820  41.007   8.250
 3698POPC   C3B 8469   8.862  41.008   7.950
 3698POPC   C4B 8470   8.825  41.039   7.650
 3699POPC   NC3 8471  43.932  29.134   9.450
 3699POPC   PO4 8472  43.914  29.163   9.150
 3699POPC   GL1 8473  43.902  29.180   8.850
 3699POPC   GL2 8474  43.902  29.047   8.850
 3699POPC   C1A 8475  43.855  29.132   8.550
 3699POPC   D2A 8476  43.878  29.112   8.250
 3699POPC   C3A 8477  43.849  29.177   7.950
 3699POPC   C4A 8478  43.845  29.142   7.650
 3699POPC   C1B 8479  44.021  28.927   8.550
 3699POPC   C2B 8480  43.950  28.930   8.250
 3699POPC   C3B 8481  43.950  28.920   7.950
 3699POPC   C4B 8482  43.997  28.896   7.650
 3700POPC   NC3 8483  40.040   3.571   9.450
 3700POPC   PO4 8484  39.975   3.588   9.150
 3700POPC   GL1 8485  39.975   3.510   8.850
 3700POPC   GL2 8486  40.059   3.636   8.850
 3700POPC   C1A 8487  39.959   3.587   8.550
 3700POPC   D2A 8488  40.036   3.534   8.250
 3700POPC   C3A 8489  40.037   3.503   7.950
 3700POPC   C4A 8490  40.028   3.548   7.650
 3700POPC   C1B 8491  40.081   3.794   8.550
 3700POPC   C2B 8492  40.116   3.728   8.250
 3700POPC   C3B 8493  40.140   3.775   7.950
 3700POPC   C4B 8494  40.099   3.757   7.650
 3701POPC   NC3 8495  37.672  33.754   9.450
 3701POPC   PO4 8496  37.702  33.834   9.150
 3701POPC   GL1 8497  37.719  33.842   8.850
 3701POPC   GL2 8498  37.594  33.934   8.850
 3701POPC   C1A 8499  37.714  33.785   8.550
 3701POPC   D2A 8500  37.727  33.797   8.250
 3701POPC   C3A 8501  37.633  33.807   7.950
 3701POPC   C4A 8502  37.657  33.783   7.650
 3701POPC   C1B 8503  37.469  33.950   8.550
 3701POPC   C2B 8504  37.459  33.937   8.250
 3701POPC   C3B 8505  37.527  33.992   7.950
 3701POPC   C4B 8506  37.537  33.958   7.650
 3702POPC   NC3 8507   8.962   5.049   9.450
 3702POPC   PO4 8508   8.986   5.116   9.150
 3702POPC   GL1 8509   9.006   5.074   8.850
 3702POPC   GL2 8510   8.902   4.934   8.850
 3702POPC   C1A 8511   9.013   5.098   8.550
 3702POPC   D2A 8512   9.007   5.115   8.250
 3702POPC   C3A 8513   8.956   5.101   7.950
 3702POPC   C4A 8514   9.017   5.044   7.650
 3702POPC   C1B 8515   8.956   4.817   8.550
 3702POPC   C2B 8516   8.912   4.879   8.250
 3702POPC   C3B 8517   8.976   4.875   7.950
 3702POPC   C4B 8518   8.915   4.825   7.650
 3703POPC   NC3 8519  40.041  34.604   9.450
 3703POPC   PO4 8520  40.038  34.531   9.150
 3703POPC   GL1 8521  39.970  34.603   8.850
 3703POPC   GL2 8522  39.917  34.582   8.850
 3703POPC   C1A 8523  39.989  34.596   8.550
 3703POPC   D2A 8524  40.004  34.585   8.250
 3703POPC   C3A 8525  40.022  34.559   7.950
 3703POPC   C4A 8526  40.002  34.593   7.650
 3703POPC   C1B 8527  39.769  34.621   8.550
 3703POPC   C2B 8528  39.803  34.630   8.250
 3703POPC   C3B 8529  39.784  34.595   7.950
 3703POPC   C4B 8530  39.727  34.577   7.650
 3704POPC   NC3 8531   5.869  15.158   9.450
 3704POPC   PO4 8532   5.916  15.172   9.150
 3704POPC   GL1 8533   5.912  15.174   8.850
 3704POPC   GL2 8534   5.746  15.231   8.850
 3704POPC   C1A 8535   5.908  15.173   8.550
 3704POPC   D2A 8536   5.821  15.185   8.250
 3704POPC   C3A 8537   5.868  15.183   7.950
 3704POPC   C4A 8538   5.889  15.218   7.650
 3704POPC   C1B 8539   5.724  15.353   8.550
 3704POPC   C2B 8540   5.676  15.332   8.250
 3704POPC   C3B 8541   5.719  15.399   7.950
 3704POPC   C4B 8542   5.718  15.411   7.650
 3705POPC   NC3 8543  18.242  15.971   9.450
 3705POPC   PO4 8544  18.272  16.004   9.150
 3705POPC   GL1 8545  18.274  15.957   8.850
 3705POPC   GL2 8546  18.423  16.013   8.850
 3705POPC   C1A 8547  18.298  15.980   8.550
 3705POPC   D2A 8548  18.253  15.995   8.250
 3705POPC   C3A 8549  18.246  15.918   7.950
 3705POPC   C4A 8550  18.234  15.986   7.650
 3705POPC   C1B 8551  18.469  16.091   8.550
 3705POPC   C2B 8552  18.442  16.060   8.250
 3705POPC   C3B 8553  18.499  16.084   7.950
 3705POPC   C4B 8554  18.467  16.047   7.650
 3706POPC   NC3 8555  16.004  12.815   9.450
 3706POPC   PO4 8556  15.997  12.866   9.150
 3706POPC   GL1 8557  15.950  12.896   8.850
 3706POPC   GL2 8558  16.121  12.827   8.850
 3706POPC   C1A 8559  15.909  12.901   8.550
 3706POPC   D2A 8560  15.985  12.841   8.250
 3706POPC   C3A 8561  15.948  12.821   7.950
 3706POPC   C4A 8562  15.910  12.842   7.650
 3706POPC   C1B 8563  16.235  12.779   8.550
 3706POPC   C2B 8564  16.221  12.745   8.250
 3706POPC   C3B 8565  16.180  12.792   7.950
 3706POPC   C4B 8566  16.162  12.805   7.650
 3707POPC   NC3 8567   4.283  38.463   9.450
 3707POPC   PO4 8568   4.297  38.486   9.150
 3707POPC   GL1 8569   4.289  38.450   8.850
 3707POPC   GL2 8570   4.167  38.425   8.850
 3707POPC   C1A 8571   4.304  38.501   8.550
 3707POPC   D2A 8572   4.282  38.479   8.250
 3707POPC   C3A 8573   4.277  38.502   7.950
 3707POPC   C4A 8574   4.366  38.465   7.650
 3707POPC   C1B 8575   4.072  38.470   8.550
 3707POPC   C2B 8576   4.023  38.489   8.250
 3707POPC   C3B 8577   4.071  38.494   7.950
 3707POPC   C4B 8578   4.096  38.444   7.650
 3708POPC   NC3 8579  28.357   1.968   9.450
 3708POPC   PO4 8580  28.418   2.008   9.150
 3708POPC   GL1 8581  28.355   2.007   8.850
 3708POPC   GL2 8582  28.381   1.855   8.850
 3708POPC   C1A 8583  28.384   1.988   8.550
 3708POPC   D2A 8584  28.408   2.028   8.250
 3708POPC   C3A 8585  28.418   1.974   7.950
 3708POPC   C4A 8586  28.385   1.998   7.650
 3708POPC   C1B 8587  28.310   1.762   8.550
 3708POPC   C2B 8588  28.287   1.744   8.250
 3708POPC   C3B 8589  28.367   1.750   7.950
 3708POPC   C4B 8590  28.311   1.726   7.650
 3709POPC   NC3 8591  13.649   6.673   9.450
 3709POPC   PO4 8592  13.663   6.627   9.150
 3709POPC   GL1 8593  13.587   6.687   8.850
 3709POPC   GL2 8594  13.563   6.777   8.850
 3709POPC   C1A 8595  13.611   6.598   8.550
 3709POPC   D2A 8596  13.661   6.597   8.250
 3709POPC   C3A 8597  13.642   6.653   7.950
 3709POPC   C4A 8598  13.616   6.639   7.650
 3709POPC   C1B 8599  13.517   6.893   8.550
 3709POPC   C2B 8600  13.518   6.841   8.250
 3709POPC   C3B 8601  13.465   6.892   7.950
 3709POPC   C4B 8602  13.456   6.905   7.650
 3710POPC   NC3 8603  40.809  28.339   9.450
 3710POPC   PO4 8604  40.733  28.399   9.150
 3710POPC   GL1 8605  40.790  28.402   8.850
 3710POPC   GL2 8606  40.729  28.320   8.850
 3710POPC   C1A 8607  40.757  28.372   8.550
 3710POPC   D2A 8608  40.811  28.323   8.250
 3710POPC   C3A 8609  40.824  28.327   7.950
 3710POPC   C4A 8610  40.765  28.374   7.650
 3710POPC   C1B 8611  40.608  28.234   8.550
 3710POPC   C2B 8612  40.642  28.189   8.250
 3710POPC   C3B 8613  40.597  28.252   7.950
 3710POPC   C4B 8614  40.564  28.180   7.650
 3711POPC   NC3 8615  37.716  20.575   9.450
 3711POPC   PO4 8616  37.668  20.636   9.150
 3711POPC   GL1 8617  37.688  20.635   8.850
 3711POPC   GL2 8618  37.571  20.636   8.850
 3711POPC   C1A 8619  37.675  20.593   8.550
 3711POPC   D2A 8620  37.655  20.586   8.250
 3711POPC   C3A 8621  37.723  20.622   7.950
 3711POPC   C4A 8622  37.681  20.572   7.650
 3711POPC   C1B 8623  37.487  20.650   8.550
 3711POPC   C2B 8624  37.475  20.681   8.250
 3711POPC   C3B 8625  37.405  20.667   7.950
 3711POPC   C4B 8626  37.438  20.696   7.650
 3712POPC   NC3 8627  24.529  34.582   9.450
 3712POPC   PO4 8628  24.514  34.533   9.150
 3712POPC   GL1 8629  24.514  34.577   8.850
 3712POPC   GL2 8630  24.527  34.440   8.850
 3712POPC   C1A 8631  24.479  34.531   8.550
 3712POPC   D2A 8632  24.507  34.590   8.250
 3712POPC   C3A 8633  24.464  34.625   7.950
 3712POPC   C4A 8634  24.448  34.607   7.650
 3712POPC   C1B 8635  24.570  34.300   8.550
 3712POPC   C2B 8636  24.558  34.368   8.250
 3712POPC   C3B 8637  24.576  34.363   7.950
 3712POPC   C4B 8638  24.539  34.314   7.650
 3713POPC   NC3 8639   8.234  23.722   9.450
 3713POPC   PO4 8640   8.151  23.721   9.150
 3713POPC   GL1 8641   8.219  23.701   8.850
 3713POPC   GL2 8642   8.278  23.784   8.850
 3713POPC   C1A 8643   8.187  23.730   8.550
 3713POPC   D2A 8644   8.202  23.685   8.250
 3713POPC   C3A 8645   8.158  23.704   7.950
 3713POPC   C4A 8646   8.153  23.707   7.650
 3713POPC   C1B 8647   8.298  23.908   8.550
 3713POPC   C2B 8648   8.253  23.917   8.250
 3713POPC   C3B 8649   8.249  23.983   7.950
 3713POPC   C4B 8650   8.312  23.940   7.650
 3714POPC   NC3 8651  32.290  23.715   9.450
 3714POPC   PO4 8652  32.242  23.741   9.150
 3714POPC   GL1 8653  32.281  23.750   8.850
 3714POPC   GL2 8654  32.345  23.654   8.850
 3714POPC   C1A 8655  32.220  23.729   8.550
 3714POPC   D2A 8656  32.235  23.691   8.250
 3714POPC   C3A 8657  32.266  23.706   7.950
 3714POPC   C4A 8658  32.252  23.689   7.650
 3714POPC   C1B 8659  32.464  23.662   8.550
 3714POPC   C2B 8660  32.499  23.597   8.250
 3714POPC   C3B 8661  32.496  23.659   7.950
 3714POPC   C4B 8662  32.440  23.621   7.650
 3715POPC   NC3 8663  15.931  14.362   9.450
 3715POPC   PO4 8664  15.935  14.399   9.150
 3715POPC   GL1 8665  15.920  14.418   8.850
 3715POPC   GL2 8666  15.940  14.252   8.850
 3715POPC   C1A 8667  15.929  14.444   8.550
 3715POPC   D2A 8668  15.993  14.401   8.250
 3715POPC   C3A 8669  15.934  14.355   7.950
 3715POPC   C4A 8670  15.913  14.407   7.650
 3715POPC   C1B 8671  15.833  14.211   8.550
 3715POPC   C2B 8672  15.875  14.214   8.250
 3715POPC   C3B 8673  15.825  14.208   7.950
 3715POPC   C4B 8674  15.865  14.179   7.650
 3716POPC   NC3 8675  17.555  20.579   9.450
 3716POPC   PO4 8676  17.488  20.649   9.150
 3716POPC   GL1 8677  17.549  20.618   8.850
 3716POPC   GL2 8678  17.415  20.595   8.850
 3716POPC   C1A 8679  17.468  20.626   8.550
 3716POPC   D2A 8680  17.515  20.656   8.250
 3716POPC   C3A 8681  17.553  20.656   7.950
 3716POPC   C4A 8682  17.462  20.644   7.650
 3716POPC   C1B 8683  17.269  20.713   8.550
 3716POPC   C2B 8684  17.303  20.652   8.250
 3716POPC   C3B 8685  17.282  20.681   7.950
 3716POPC   C4B 8686  17.269  20.676   7.650
 3717POPC   NC3 8687  41.576  42.286   9.450
 3717POPC   PO4 8688  41.534  42.319   9.150
 3717POPC   GL1 8689  41.567  42.353   8.850
 3717POPC   GL2 8690  41.670  42.401   8.850
 3717POPC   C1A 8691  41.578  42.290   8.550
 3717POPC   D2A 8692  41.566  42.296   8.250
 3717POPC   C3A 8693  41.518  42.315   7.950
 3717POPC   C4A 8694  41.550  42.313   7.650
 3717POPC   C1B 8695  41.686  42.502   8.550
 3717POPC   C2B 8696  41.745  42.537   8.250
 3717POPC   C3B 8697  41.711  42.506   7.950
 3717POPC   C4B 8698  41.706  42.552   7.650
 3718POPC   NC3 8699   0.469   9.732   9.450
 3718POPC   PO4 8700   0.440   9.777   9.150
 3718POPC   GL1 8701   0.487   9.746   8.850
 3718POPC   GL2 8702   0.497   9.893   8.850
 3718POPC   C1A 8703   0.471   9.770   8.550
 3718POPC   D2A 8704   0.420   9.701   8.250
 3718POPC   C3A 8705   0.468   9.735   7.950
 3718POPC   C4A 8706   0.425   9.707   7.650
 3718POPC   C1B 8707   0.498  10.016   8.550
 3718POPC   C2B 8708   0.509  10.000   8.250
 3718POPC   C3B 8709   0.460   9.974   7.950
 3718POPC   C4B 8710   0.481  10.046   7.650
 3719POPC   NC3 8711  29.181  23.733   9.450
 3719POPC   PO4 8712  29.164  23.669   9.150
 3719POPC   GL1 8713  29.176  23.717   8.850
 3719POPC   GL2 8714  29.294  23.717   8.850
 3719POPC   C1A 8715  29.109  23.698   8.550
 3719POPC   D2A 8716  29.155  23.736   8.250
 3719POPC   C3A 8717  29.188  23.706   7.950
 3719POPC   C4A 8718  29.190  23.746   7.650
 3719POPC   C1B 8719  29.373  23.733   8.550
 3719POPC   C2B 8720  29.425  23.731   8.250
 3719POPC   C3B 8721  29.357  23.672   7.950
 3719POPC   C4B 8722  29.431  23.740   7.650
 3720POPC   NC3 8723  27.563  36.936   9.450
 3720POPC   PO4 8724  27.564  36.915   9.150
 3720POPC   GL1 8725  27.585  36.862   8.850
 3720POPC   GL2 8726  27.593  36.997   8.850
 3720POPC   C1A 8727  27.570  36.854   8.550
 3720POPC   D2A 8728  27.584  36.904   8.250
 3720POPC   C3A 8729  27.557  36.859   7.950
 3720POPC   C4A 8730  27.606  36.897   7.650
 3720POPC   C1B 8731  27.495  37.184   8.550
 3720POPC   C2B 8732  27.576  37.180   8.250
 3720POPC   C3B 8733  27.489  37.151   7.950
 3720POPC   C4B 8734  27.576  37.099   7.650
 3721POPC   NC3 8735  31.498  22.177   9.450
 3721POPC   PO4 8736  31.432  22.143   9.150
 3721POPC   GL1 8737  31.457  22.184   8.850
 3721POPC   GL2 8738  31.585  22.157   8.850
 3721POPC   C1A 8739  31.423  22.115   8.550
 3721POPC   D2A 8740  31.440  22.170   8.250
 3721POPC   C3A 8741  31.495  22.173   7.950
 3721POPC   C4A 8742  31.519  22.150   7.650
 3721POPC   C1B 8743  31.692  22.047   8.550
 3721POPC   C2B 8744  31.699  22.125   8.250
 3721POPC   C3B 8745  31.699  22.108   7.950
 3721POPC   C4B 8746  31.759  22.087   7.650
 3722POPC   NC3 8747  33.760  14.401   9.450
 3722POPC   PO4 8748  33.791  14.439   9.150
 3722POPC   GL1 8749  33.768  14.392   8.850
 3722POPC   GL2 8750  33.716  14.347   8.850
 3722POPC   C1A 8751  33.767  14.358   8.550
 3722POPC   D2A 8752  33.813  14.426   8.250
 3722POPC   C3A 8753  33.823  14.396   7.950
 3722POPC   C4A 8754  33.751  14.354   7.650
 3722POPC   C1B 8755  33.697  14.229   8.550
 3722POPC   C2B 8756  33.661  14.203   8.250
 3722POPC   C3B 8757  33.619  14.215   7.950
 3722POPC   C4B 8758  33.617  14.229   7.650
 3723POPC   NC3 8759  21.375  36.915   9.450
 3723POPC   PO4 8760  21.430  36.932   9.150
 3723POPC   GL1 8761  21.374  36.912   8.850
 3723POPC   GL2 8762  21.259  36.966   8.850
 3723POPC   C1A 8763  21.349  36.945   8.550
 3723POPC   D2A 8764  21.425  36.872   8.250
 3723POPC   C3A 8765  21.412  36.936   7.950
 3723POPC   C4A 8766  21.338  36.911   7.650
 3723POPC   C1B 8767  21.118  37.050   8.550
 3723POPC   C2B 8768  21.204  37.018   8.250
 3723POPC   C3B 8769  21.135  37.067   7.950
 3723POPC   C4B 8770  21.179  37.026   7.650
 3724POPC   NC3 8771   4.336  21.391   9.450
 3724POPC   PO4 8772   4.346  21.407   9.150
 3724POPC   GL1 8773   4.328  21.429   8.850
 3724POPC   GL2 8774   4.397  21.400   8.850
 3724POPC   C1A 8775   4.327  21.382   8.550
 3724POPC   D2A 8776   4.278  21.430   8.250
 3724POPC   C3A 8777   4.297  21.430   7.950
 3724POPC   C4A 8778   4.292  21.414   7.650
 3724POPC   C1B 8779   4.576  21.478   8.550
 3724POPC   C2B 8780   4.605  21.469   8.250
 3724POPC   C3B 8781   4.571  21.485   7.950
 3724POPC   C4B 8782   4.513  21.423   7.650
 3725POPC   NC3 8783  23.747  39.272   9.450
 3725POPC   PO4 8784  23.705  39.223   9.150
 3725POPC   GL1 8785  23.751  39.213   8.850
 3725POPC   GL2 8786  23.815  39.091   8.850
 3725POPC   C1A 8787  23.763  39.196   8.550
 3725POPC   D2A 8788  23.684  39.258   8.250
 3725POPC   C3A 8789  23.758  39.230   7.950
 3725POPC   C4A 8790  23.759  39.186   7.650
 3725POPC   C1B 8791  23.858  39.007   8.550
 3725POPC   C2B 8792  23.875  38.990   8.250
 3725POPC   C3B 8793  23.786  39.038   7.950
 3725POPC   C4B 8794  23.789  38.978   7.650
 3726POPC   NC3 8795   8.215  40.743   9.450
 3726POPC   PO4 8796   8.201  40.810   9.150
 3726POPC   GL1 8797   8.210  40.747   8.850
 3726POPC   GL2 8798   8.328  40.780   8.850
 3726POPC   C1A 8799   8.225  40.819   8.550
 3726POPC   D2A 8800   8.188  40.824   8.250
 3726POPC   C3A 8801   8.170  40.756   7.950
 3726POPC   C4A 8802   8.215  40.789   7.650
 3726POPC   C1B 8803   8.414  40.757   8.550
 3726POPC   C2B 8804   8.412  40.787   8.250
 3726POPC   C3B 8805   8.446  40.763   7.950
 3726POPC   C4B 8806   8.436  40.740   7.650
 3727POPC   NC3 8807   9.706  14.431   9.450
 3727POPC   PO4 8808   9.735  14.384   9.150
 3727POPC   GL1 8809   9.712  14.388   8.850
 3727POPC   GL2 8810   9.654  14.494   8.850
 3727POPC   C1A 8811   9.749  14.441   8.550
 3727POPC   D2A 8812   9.749  14.407   8.250
 3727POPC   C3A 8813   9.797  14.446   7.950
 3727POPC   C4A 8814   9.725  14.355   7.650
 3727POPC   C1B 8815   9.529  14.516   8.550
 3727POPC   C2B 8816   9.577  14.545   8.250
 3727POPC   C3B 8817   9.567  14.597   7.950
 3727POPC   C4B 8818   9.496  14.518   7.650
 3728POPC   NC3 8819  40.029  17.506   9.450
 3728POPC   PO4 8820  39.982  17.501   9.150
 3728POPC   GL1 8821  39.970  17.495   8.850
 3728POPC   GL2 8822  39.862  17.512   8.850
 3728POPC   C1A 8823  40.015  17.538   8.550
 3728POPC   D2A 8824  40.050  17.459   8.250
 3728POPC   C3A 8825  40.027  17.512   7.950
 3728POPC   C4A 8826  39.974  17.485   7.650
 3728POPC   C1B 8827  39.724  17.551   8.550
 3728POPC   C2B 8828  39.712  17.500   8.250
 3728POPC   C3B 8829  39.766  17.552   7.950
 3728POPC   C4B 8830  39.769  17.554   7.650
 3729POPC   NC3 8831  14.405  16.764   9.450
 3729POPC   PO4 8832  14.445  16.768   9.150
 3729POPC   GL1 8833  14.355  16.776   8.850
 3729POPC   GL2 8834  14.553  16.656   8.850
 3729POPC   C1A 8835  14.390  16.696   8.550
 3729POPC   D2A 8836  14.377  16.696   8.250
 3729POPC   C3A 8837  14.360  16.762   7.950
 3729POPC   C4A 8838  14.450  16.761   7.650
 3729POPC   C1B 8839  14.647  16.606   8.550
 3729POPC   C2B 8840  14.586  16.647   8.250
 3729POPC   C3B 8841  14.616  16.593   7.950
 3729POPC   C4B 8842  14.631  16.646   7.650
 3730POPC   NC3 8843  34.555  19.842   9.450
 3730POPC   PO4 8844  34.536  19.878   9.150
 3730POPC   GL1 8845  34.622  19.800   8.850
 3730POPC   GL2 8846  34.570  19.993   8.850
 3730POPC   C1A 8847  34.528  19.839   8.550
 3730POPC   D2A 8848  34.595  19.811   8.250
 3730POPC   C3A 8849  34.582  19.805   7.950
 3730POPC   C4A 8850  34.539  19.884   7.650
 3730POPC   C1B 8851  34.510  20.078   8.550
 3730POPC   C2B 8852  34.506  20.046   8.250
 3730POPC   C3B 8853  34.521  20.034   7.950
 3730POPC   C4B 8854  34.534  20.050   7.650
 3731POPC   NC3 8855  38.442  33.786   9.450
 3731POPC   PO4 8856  38.424  33.788   9.150
 3731POPC   GL1 8857  38.412  33.770   8.850
 3731POPC   GL2 8858  38.449  33.653   8.850
 3731POPC   C1A 8859  38.474  33.829   8.550
 3731POPC   D2A 8860  38.503  33.798   8.250
 3731POPC   C3A 8861  38.438  33.845   7.950
 3731POPC   C4A 8862  38.430  33.835   7.650
 3731POPC   C1B 8863  38.509  33.582   8.550
 3731POPC   C2B 8864  38.474  33.560   8.250
 3731POPC   C3B 8865  38.448  33.573   7.950
 3731POPC   C4B 8866  38.453  33.523   7.650
 3732POPC   NC3 8867   6.684   9.702   9.450
 3732POPC   PO4 8868   6.658   9.759   9.150
 3732POPC   GL1 8869   6.650   9.782   8.850
 3732POPC   GL2 8870   6.778   9.674   8.850
 3732POPC   C1A 8871   6.663   9.767   8.550
 3732POPC   D2A 8872   6.625   9.730   8.250
 3732POPC   C3A 8873   6.616   9.712   7.950
 3732POPC   C4A 8874   6.623   9.717   7.650
 3732POPC   C1B 8875   6.882   9.617   8.550
 3732POPC   C2B 8876   6.820   9.636   8.250
 3732POPC   C3B 8877   6.879   9.630   7.950
 3732POPC   C4B 8878   6.823   9.585   7.650
 3733POPC   NC3 8879   1.972   0.390   9.450
 3733POPC   PO4 8880   1.945   0.443   9.150
 3733POPC   GL1 8881   1.978   0.389   8.850
 3733POPC   GL2 8882   1.894   0.540   8.850
 3733POPC   C1A 8883   1.998   0.431   8.550
 3733POPC   D2A 8884   2.032   0.462   8.250
 3733POPC   C3A 8885   2.008   0.454   7.950
 3733POPC   C4A 8886   2.035   0.418   7.650
 3733POPC   C1B 8887   1.836   0.703   8.550
 3733POPC   C2B 8888   1.907   0.702   8.250
 3733POPC   C3B 8889   1.873   0.679   7.950
 3733POPC   C4B 8890   1.876   0.614   7.650
 3734POPC   NC3 8891  31.468  37.697   9.450
 3734POPC   PO4 8892  31.484  37.696   9.150
 3734POPC   GL1 8893  31.433  37.652   8.850
 3734POPC   GL2 8894  31.528  37.827   8.850
 3734POPC   C1A 8895  31.483  37.681   8.550
 3734POPC   D2A 8896  31.493  37.632   8.250
 3734POPC   C3A 8897  31.469  37.630   7.950
 3734POPC   C4A 8898  31.512  37.646   7.650
 3734POPC   C1B 8899  31.632  37.898   8.550
 3734POPC   C2B 8900  31.580  37.928   8.250
 3734POPC   C3B 8901  31.571  37.887   7.950
 3734POPC   C4B 8902  31.617  37.860   7.650
 3735POPC   NC3 8903  24.472  33.045   9.450
 3735POPC   PO4 8904  24.514  32.998   9.150
 3735POPC   GL1 8905  24.521  32.993   8.850
 3735POPC   GL2 8906  24.640  33.017   8.850
 3735POPC   C1A 8907  24.450  33.036   8.550
 3735POPC   D2A 8908  24.531  33.006   8.250
 3735POPC   C3A 8909  24.510  33.025   7.950
 3735POPC   C4A 8910  24.474  33.029   7.650
 3735POPC   C1B 8911  24.711  32.912   8.550
 3735POPC   C2B 8912  24.719  32.969   8.250
 3735POPC   C3B 8913  24.752  32.946   7.950
 3735POPC   C4B 8914  24.750  32.961   7.650
 3736POPC   NC3 8915  40.015   2.017   9.450
 3736POPC   PO4 8916  40.057   1.980   9.150
 3736POPC   GL1 8917  40.024   1.973   8.850
 3736POPC   GL2 8918  40.086   2.081   8.850
 3736POPC   C1A 8919  40.035   1.941   8.550
 3736POPC   D2A 8920  40.044   2.003   8.250
 3736POPC   C3A 8921  40.046   1.964   7.950
 3736POPC   C4A 8922  39.988   1.961   7.650
 3736POPC   C1B 8923  40.103   2.238   8.550
 3736POPC   C2B 8924  40.113   2.246   8.250
 3736POPC   C3B 8925  40.052   2.252   7.950
 3736POPC   C4B 8926  40.133   2.217   7.650
 3737POPC   NC3 8927  22.156  35.308   9.450
 3737POPC   PO4 8928  22.184  35.372   9.150
 3737POPC   GL1 8929  22.128  35.398   8.850
 3737POPC   GL2 8930  22.219  35.495   8.850
 3737POPC   C1A 8931  22.142  35.311   8.550
 3737POPC   D2A 8932  22.149  35.310   8.250
 3737POPC   C3A 8933  22.120  35.343   7.950
 3737POPC   C4A 8934  22.129  35.387   7.650
 3737POPC   C1B 8935  22.338  35.597   8.550
 3737POPC   C2B 8936  22.301  35.531   8.250
 3737POPC   C3B 8937  22.292  35.539   7.950
 3737POPC   C4B 8938  22.305  35.548   7.650
 3738POPC   NC3 8939  24.518  25.993   9.450
 3738POPC   PO4 8940  24.488  26.030   9.150
 3738POPC   GL1 8941  24.471  26.091   8.850
 3738POPC   GL2 8942  24.494  26.188   8.850
 3738POPC   C1A 8943  24.441  26.085   8.550
 3738POPC   D2A 8944  24.531  26.027   8.250
 3738POPC   C3A 8945  24.506  26.078   7.950
 3738POPC   C4A 8946  24.482  26.024   7.650
 3738POPC   C1B 8947  24.527  26.327   8.550
 3738POPC   C2B 8948  24.560  26.246   8.250
 3738POPC   C3B 8949  24.558  26.259   7.950
 3738POPC   C4B 8950  24.485  26.291   7.650
 3739POPC   NC3 8951  12.805  41.565   9.450
 3739POPC   PO4 8952  12.869  41.606   9.150
 3739POPC   GL1 8953  12.881  41.557   8.850
 3739POPC   GL2 8954  12.738  41.607   8.850
 3739POPC   C1A 8955  12.893  41.573   8.550
 3739POPC   D2A 8956  12.898  41.551   8.250
 3739POPC   C3A 8957  12.842  41.530   7.950
 3739POPC   C4A 8958  12.898  41.546   7.650
 3739POPC   C1B 8959  12.652  41.756   8.550
 3739POPC   C2B 8960  12.699  41.663   8.250
 3739POPC   C3B 8961  12.630  41.701   7.950
 3739POPC   C4B 8962  12.651  41.686   7.650
 3740POPC   NC3 8963  15.998   1.972   9.450
 3740POPC   PO4 8964  15.922   1.971   9.150
 3740POPC   GL1 8965  15.985   1.993   8.850
 3740POPC   GL2 8966  16.063   2.016   8.850
 3740POPC   C1A 8967  15.915   1.955   8.550
 3740POPC   D2A 8968  16.004   1.983   8.250
 3740POPC   C3A 8969  15.931   2.010   7.950
 3740POPC   C4A 8970  15.928   1.976   7.650
 3740POPC   C1B 8971  16.173   2.044   8.550
 3740POPC   C2B 8972  16.218   1.965   8.250
 3740POPC   C3B 8973  16.169   1.965   7.950
 3740POPC   C4B 8974  16.221   2.025   7.650
 3741POPC   NC3 8975  33.820  40.825   9.450
 3741POPC   PO4 8976  33.776  40.791   9.150
 3741POPC   GL1 8977  33.820  40.794   8.850
 3741POPC   GL2 8978  33.784  40.876   8.850
 3741POPC   C1A 8979  33.817  40.746   8.550
 3741POPC   D2A 8980  33.776  40.810   8.250
 3741POPC   C3A 8981  33.798  40.831   7.950
 3741POPC   C4A 8982  33.789  40.753   7.650
 3741POPC   C1B 8983  33.761  41.000   8.550
 3741POPC   C2B 8984  33.794  41.021   8.250
 3741POPC   C3B 8985  33.736  41.059   7.950
 3741POPC   C4B 8986  33.761  41.013   7.650
 3742POPC   NC3 8987  34.545  39.247   9.450
 3742POPC   PO4 8988  34.562  39.204   9.150
 3742POPC   GL1 8989  34.615  39.199   8.850
 3742POPC   GL2 8990  34.645  39.116   8.850
 3742POPC   C1A 8991  34.527  39.200   8.550
 3742POPC   D2A 8992  34.582  39.221   8.250
 3742POPC   C3A 8993  34.611  39.275   7.950
 3742POPC   C4A 8994  34.591  39.205   7.650
 3742POPC   C1B 8995  34.713  38.964   8.550
 3742POPC   C2B 8996  34.671  39.049   8.250
 3742POPC   C3B 8997  34.714  38.963   7.950
 3742POPC   C4B 8998  34.658  38.972   7.650
 3743POPC   NC3 8999   5.056  33.847   9.450
 3743POPC   PO4 9000   5.079  33.830   9.150
 3743POPC   GL1 9001   5.137  33.789   8.850
 3743POPC   GL2 9002   5.027  33.872   8.850
 3743POPC   C1A 9003   5.060  33.819   8.550
 3743POPC   D2A 9004   5.049  33.791   8.250
 3743POPC   C3A 9005   5.128  33.785   7.950
 3743POPC   C4A 9006   5.138  33.779   7.650
 3743POPC   C1B 9007   5.004  34.037   8.550
 3743POPC   C2B 9008   4.958  34.016   8.250
 3743POPC   C3B 9009   4.988  33.971   7.950
 3743POPC   C4B 9010   4.998  34.017   7.650
 3744POPC   NC3 9011  40.739  36.938   9.450
 3744POPC   PO4 9012  40.785  36.915   9.150
 3744POPC   GL1 9013  40.797  36.923   8.850
 3744POPC   GL2 9014  40.777  37.046   8.850
 3744POPC   C1A 9015  40.826  36.859   8.550
 3744POPC   D2A 9016  40.776  36.913   8.250
 3744POPC   C3A 9017  40.825  36.906   7.950
 3744POPC   C4A 9018  40.828  36.901   7.650
 3744POPC   C1B 9019  40.647  37.123   8.550
 3744POPC   C2B 9020  40.672  37.091   8.250
 3744POPC   C3B 9021  40.653  37.106   7.950
 3744POPC   C4B 9022  40.679  37.117   7.650
 3745POPC   NC3 9023   1.197  32.997   9.450
 3745POPC   PO4 9024   1.235  33.013   9.150
 3745POPC   GL1 9025   1.174  33.028   8.850
 3745POPC   GL2 9026   1.184  33.175   8.850
 3745POPC   C1A 9027   1.254  33.073   8.550
 3745POPC   D2A 9028   1.224  33.021   8.250
 3745POPC   C3A 9029   1.212  32.983   7.950
 3745POPC   C4A 9030   1.246  33.013   7.650
 3745POPC   C1B 9031   1.147  33.268   8.550
 3745POPC   C2B 9032   1.145  33.235   8.250
 3745POPC   C3B 9033   1.143  33.261   7.950
 3745POPC   C4B 9034   1.079  33.292   7.650
 3746POPC   NC3 9035  40.015  33.020   9.450
 3746POPC   PO4 9036  40.008  33.053   9.150
 3746POPC   GL1 9037  40.036  33.014   8.850
 3746POPC   GL2 9038  39.980  32.874   8.850
 3746POPC   C1A 9039  40.035  33.069   8.550
 3746POPC   D2A 9040  40.013  33.057   8.250
 3746POPC   C3A 9041  39.993  32.976   7.950
 3746POPC   C4A 9042  39.962  33.000   7.650
 3746POPC   C1B 9043  40.027  32.786   8.550
 3746POPC   C2B 9044  40.011  32.749   8.250
 3746POPC   C3B 9045  40.032  32.823   7.950
 3746POPC   C4B 9046  40.067  32.770   7.650
 3747POPC   NC3 9047  39.211  29.159   9.450
 3747POPC   PO4 9048  39.261  29.172   9.150
 3747POPC   GL1 9049  39.206  29.135   8.850
 3747POPC   GL2 9050  39.263  29.318   8.850
 3747POPC   C1A 9051  39.230  29.105   8.550
 3747POPC   D2A 9052  39.184  29.140   8.250
 3747POPC   C3A 9053  39.201  29.146   7.950
 3747POPC   C4A 9054  39.226  29.098   7.650
 3747POPC   C1B 9055  39.254  29.402   8.550
 3747POPC   C2B 9056  39.200  29.391   8.250
 3747POPC   C3B 9057  39.188  29.379   7.950
 3747POPC   C4B 9058  39.246  29.355   7.650
 3748POPC   NC3 9059  15.921   5.873   9.450
 3748POPC   PO4 9060  15.988   5.849   9.150
 3748POPC   GL1 9061  15.975   5.879   8.850
 3748POPC   GL2 9062  15.835   5.934   8.850
 3748POPC   C1A 9063  15.979   5.860   8.550
 3748POPC   D2A 9064  15.971   5.841   8.250
 3748POPC   C3A 9065  15.979   5.824   7.950
 3748POPC   C4A 9066  15.976   5.885   7.650
 3748POPC   C1B 9067  15.756   5.966   8.550
 3748POPC   C2B 9068  15.779   6.022   8.250
 3748POPC   C3B 9069  15.746   5.952   7.950
 3748POPC   C4B 9070  15.694   5.994   7.650
 3749POPC   NC3 9071   5.869  20.644   9.450
 3749POPC   PO4 9072   5.886  20.639   9.150
 3749POPC   GL1 9073   5.830  20.611   8.850
 3749POPC   GL2 9074   5.923  20.718   8.850
 3749POPC   C1A 9075   5.835  20.630   8.550
 3749POPC   D2A 9076   5.850  20.574   8.250
 3749POPC   C3A 9077   5.908  20.582   7.950
 3749POPC   C4A 9078   5.887  20.581   7.650
 3749POPC   C1B 9079   6.027  20.710   8.550
 3749POPC   C2B 9080   6.084  20.801   8.250
 3749POPC   C3B 9081   6.075  20.746   7.950
 3749POPC   C4B 9082   6.032  20.780   7.650
 3750POPC   NC3 9083  39.221  23.707   9.450
 3750POPC   PO4 9084  39.217  23.740   9.150
 3750POPC   GL1 9085  39.247  23.744   8.850
 3750POPC   GL2 9086  39.356  23.749   8.850
 3750POPC   C1A 9087  39.208  23.689   8.550
 3750POPC   D2A 9088  39.226  23.729   8.250
 3750POPC   C3A 9089  39.231  23.753   7.950
 3750POPC   C4A 9090  39.183  23.667   7.650
 3750POPC   C1B 9091  39.455  23.752   8.550
 3750POPC   C2B 9092  39.491  23.691   8.250
 3750POPC   C3B 9093  39.452  23.737   7.950
 3750POPC   C4B 9094  39.460  23.666   7.650
 3751POPC   NC3 9095  43.091  44.688   9.450
 3751POPC   PO4 9096  43.107  44.639   9.150
 3751POPC   GL1 9097  43.123  44.669   8.850
 3751POPC   GL2 9098  43.148  44.775   8.850
 3751POPC   C1A 9099  43.068  44.675   8.550
 3751POPC   D2A 9100  43.106  44.681   8.250
 3751POPC   C3A 9101  43.152  44.710   7.950
 3751POPC   C4A 9102  43.116  44.707   7.650
 3751POPC   C1B 9103  43.181  44.904   8.550
 3751POPC   C2B 9104  43.246  44.936   8.250
 3751POPC   C3B 9105  43.234  44.892   7.950
 3751POPC   C4B 9106  43.214  44.855   7.650
 3752POPC   NC3 9107  10.544  44.707   9.450
 3752POPC   PO4 9108  10.553  44.694   9.150
 3752POPC   GL1 9109  10.567  44.691   8.850
 3752POPC   GL2 9110  10.554  44.551   8.850
 3752POPC   C1A 9111  10.479  44.671   8.550
 3752POPC   D2A 9112  10.527  44.674   8.250
 3752POPC   C3A 9113  10.491  44.694   7.950
 3752POPC   C4A 9114  10.506  44.649   7.650
 3752POPC   C1B 9115  10.626  44.404   8.550
 3752POPC   C2B 9116  10.655  44.450   8.250
 3752POPC   C3B 9117  10.668  44.408   7.950
 3752POPC   C4B 9118  10.643  44.496   7.650
 3753POPC   NC3 9119  40.771   1.976   9.450
 3753POPC   PO4 9120  40.826   2.005   9.150
 3753POPC   GL1 9121  40.794   2.019   8.850
 3753POPC   GL2 9122  40.846   1.872   8.850
 3753POPC   C1A 9123  40.806   1.956   8.550
 3753POPC   D2A 9124  40.784   1.978   8.250
 3753POPC   C3A 9125  40.772   2.022   7.950
 3753POPC   C4A 9126  40.804   1.972   7.650
 3753POPC   C1B 9127  41.000   1.788   8.550
 3753POPC   C2B 9128  40.990   1.781   8.250
 3753POPC   C3B 9129  41.014   1.847   7.950
 3753POPC   C4B 9130  40.963   1.842   7.650
 3754POPC   NC3 9131   9.786  26.859   9.450
 3754POPC   PO4 9132   9.785  26.824   9.150
 3754POPC   GL1 9133   9.794  26.768   8.850
 3754POPC   GL2 9134   9.651  26.900   8.850
 3754POPC   C1A 9135   9.792  26.779   8.550
 3754POPC   D2A 9136   9.762  26.793   8.250
 3754POPC   C3A 9137   9.762  26.822   7.950
 3754POPC   C4A 9138   9.766  26.824   7.650
 3754POPC   C1B 9139   9.592  27.007   8.550
 3754POPC   C2B 9140   9.575  26.981   8.250
 3754POPC   C3B 9141   9.529  27.014   7.950
 3754POPC   C4B 9142   9.565  27.010   7.650
 3755POPC   NC3 9143   5.110  12.054   9.450
 3755POPC   PO4 9144   5.124  12.062   9.150
 3755POPC   GL1 9145   5.115  12.124   8.850
 3755POPC   GL2 9146   5.126  11.963   8.850
 3755POPC   C1A 9147   5.129  12.055   8.550
 3755POPC   D2A 9148   5.099  12.068   8.250
 3755POPC   C3A 9149   5.093  12.113   7.950
 3755POPC   C4A 9150   5.057  12.075   7.650
 3755POPC   C1B 9151   5.227  11.844   8.550
 3755POPC   C2B 9152   5.300  11.928   8.250
 3755POPC   C3B 9153   5.304  11.927   7.950
 3755POPC   C4B 9154   5.238  11.851   7.650
 3756POPC   NC3 9155  25.269  38.451   9.450
 3756POPC   PO4 9156  25.229  38.477   9.150
 3756POPC   GL1 9157  25.299  38.413   8.850
 3756POPC   GL2 9158  25.254  38.568   8.850
 3756POPC   C1A 9159  25.238  38.452   8.550
 3756POPC   D2A 9160  25.308  38.452   8.250
 3756POPC   C3A 9161  25.289  38.446   7.950
 3756POPC   C4A 9162  25.253  38.426   7.650
 3756POPC   C1B 9163  25.299  38.727   8.550
 3756POPC   C2B 9164  25.288  38.680   8.250
 3756POPC   C3B 9165  25.225  38.741   7.950
 3756POPC   C4B 9166  25.269  38.666   7.650
 3757POPC   NC3 9167  33.815   1.187   9.450
 3757POPC   PO4 9168  33.846   1.251   9.150
 3757POPC   GL1 9169  33.802   1.225   8.850
 3757POPC   GL2 9170  33.720   1.305   8.850
 3757POPC   C1A 9171  33.771   1.213   8.550
 3757POPC   D2A 9172  33.815   1.171   8.250
 3757POPC   C3A 9173  33.833   1.173   7.950
 3757POPC   C4A 9174  33.810   1.244   7.650
 3757POPC   C1B 9175  33.542   1.319   8.550
 3757POPC   C2B 9176  33.607   1.282   8.250
 3757POPC   C3B 9177  33.588   1.362   7.950
 3757POPC   C4B 9178  33.588   1.332   7.650
 3758POPC   NC3 9179  40.792  26.028   9.450
 3758POPC   PO4 9180  40.736  26.043   9.150
 3758POPC   GL1 9181  40.747  26.056   8.850
 3758POPC   GL2 9182  40.890  25.986   8.850
 3758POPC   C1A 9183  40.806  26.048   8.550
 3758POPC   D2A 9184  40.823  26.060   8.250
 3758POPC   C3A 9185  40.823  26.082   7.950
 3758POPC   C4A 9186  40.772  26.086   7.650
 3758POPC   C1B 9187  41.048  25.904   8.550
 3758POPC   C2B 9188  40.960  25.916   8.250
 3758POPC   C3B 9189  41.012  25.901   7.950
 3758POPC   C4B 9190  41.037  25.960   7.650
 3759POPC   NC3 9191  32.284   3.584   9.450
 3759POPC   PO4 9192  32.220   3.496   9.150
 3759POPC   GL1 9193  32.270   3.579   8.850
 3759POPC   GL2 9194  32.150   3.594   8.850
 3759POPC   C1A 9195  32.229   3.533   8.550
 3759POPC   D2A 9196  32.234   3.499   8.250
 3759POPC   C3A 9197  32.267   3.505   7.950
 3759POPC   C4A 9198  32.281   3.566   7.650
 3759POPC   C1B 9199  32.057   3.711   8.550
 3759POPC   C2B 9200  32.140   3.719   8.250
 3759POPC   C3B 9201  32.057   3.791   7.950
 3759POPC   C4B 9202  32.115   3.759   7.650
 3760POPC   NC3 9203  43.108  38.428   9.450
 3760POPC   PO4 9204  43.135  38.412   9.150
 3760POPC   GL1 9205  43.102  38.497   8.850
 3760POPC   GL2 9206  43.037  38.379   8.850
 3760POPC   C1A 9207  43.113  38.413   8.550
 3760POPC   D2A 9208  43.129  38.493   8.250
 3760POPC   C3A 9209  43.105  38.479   7.950
 3760POPC   C4A 9210  43.118  38.432   7.650
 3760POPC   C1B 9211  43.022  38.206   8.550
 3760POPC   C2B 9212  42.985  38.224   8.250
 3760POPC   C3B 9213  43.063  38.226   7.950
 3760POPC   C4B 9214  43.011  38.232   7.650
 3761POPC   NC3 9215  38.428  35.348   9.450
 3761POPC   PO4 9216  38.422  35.350   9.150
 3761POPC   GL1 9217  38.435  35.318   8.850
 3761POPC   GL2 9218  38.366  35.349   8.850
 3761POPC   C1A 9219  38.479  35.386   8.550
 3761POPC   D2A 9220  38.464  35.350   8.250
 3761POPC   C3A 9221  38.481  35.375   7.950
 3761POPC   C4A 9222  38.474  35.361   7.650
 3761POPC   C1B 9223  38.255  35.307   8.550
 3761POPC   C2B 9224  38.189  35.350   8.250
 3761POPC   C3B 9225  38.250  35.359   7.950
 3761POPC   C4B 9226  38.161  35.339   7.650
 3762POPC   NC3 9227  23.748  15.948   9.450
 3762POPC   PO4 9228  23.738  16.000   9.150
 3762POPC   GL1 9229  23.762  15.913   8.850
 3762POPC   GL2 9230  23.759  15.908   8.850
 3762POPC   C1A 9231  23.743  16.005   8.550
 3762POPC   D2A 9232  23.719  15.938   8.250
 3762POPC   C3A 9233  23.760  15.995   7.950
 3762POPC   C4A 9234  23.670  15.916   7.650
 3762POPC   C1B 9235  23.873  15.784   8.550
 3762POPC   C2B 9236  23.897  15.786   8.250
 3762POPC   C3B 9237  23.835  15.734   7.950
 3762POPC   C4B 9238  23.868  15.787   7.650
 3763POPC   NC3 9239  19.044  16.765   9.450
 3763POPC   PO4 9240  19.083  16.773   9.150
 3763POPC   GL1 9241  19.104  16.750   8.850
 3763POPC   GL2 9242  19.047  16.625   8.850
 3763POPC   C1A 9243  19.063  16.727   8.550
 3763POPC   D2A 9244  19.078  16.691   8.250
 3763POPC   C3A 9245  19.050  16.722   7.950
 3763POPC   C4A 9246  19.096  16.771   7.650
 3763POPC   C1B 9247  19.071  16.530   8.550
 3763POPC   C2B 9248  19.078  16.464   8.250
 3763POPC   C3B 9249  19.062  16.448   7.950
 3763POPC   C4B 9250  19.124  16.487   7.650
 3764POPC   NC3 9251  32.218  22.165   9.450
 3764POPC   PO4 9252  32.223  22.142   9.150
 3764POPC   GL1 9253  32.254  22.169   8.850
 3764POPC   GL2 9254  32.126  22.156   8.850
 3764POPC   C1A 9255  32.263  22.151   8.550
 3764POPC   D2A 9256  32.293  22.182   8.250
 3764POPC   C3A 9257  32.225  22.198   7.950
 3764POPC   C4A 9258  32.238  22.178   7.650
 3764POPC   C1B 9259  32.004  22.185   8.550
 3764POPC   C2B 9260  31.995  22.279   8.250
 3764POPC   C3B 9261  32.024  22.247   7.950
 3764POPC   C4B 9262  32.007  22.261   7.650
 3765POPC   NC3 9263  10.562   5.056   9.450
 3765POPC   PO4 9264  10.516   5.070   9.150
 3765POPC   GL1 9265  10.501   5.134   8.850
 3765POPC   GL2 9266  10.604   5.050   8.850
 3765POPC   C1A 9267  10.550   5.068   8.550
 3765POPC   D2A 9268  10.491   5.052   8.250
 3765POPC   C3A 9269  10.548   5.141   7.950
 3765POPC   C4A 9270  10.527   5.056   7.650
 3765POPC   C1B 9271  10.733   4.977   8.550
 3765POPC   C2B 9272  10.759   5.004   8.250
 3765POPC   C3B 9273  10.722   4.960   7.950
 3765POPC   C4B 9274  10.766   4.969   7.650
 3766POPC   NC3 9275  15.155  41.521   9.450
 3766POPC   PO4 9276  15.148  41.575   9.150
 3766POPC   GL1 9277  15.137  41.567   8.850
 3766POPC   GL2 9278  15.324  41.553   8.850
 3766POPC   C1A 9279  15.210  41.536   8.550
 3766POPC   D2A 9280  15.143  41.530   8.250
 3766POPC   C3A 9281  15.195  41.569   7.950
 3766POPC   C4A 9282  15.159  41.549   7.650
 3766POPC   C1B 9283  15.408  41.453   8.550
 3766POPC   C2B 9284  15.395  41.536   8.250
 3766POPC   C3B 9285  15.390  41.509   7.950
 3766POPC   C4B 9286  15.381  41.518   7.650
 3767POPC   NC3 9287  27.566   8.193   9.450
 3767POPC   PO4 9288  27.549   8.160   9.150
 3767POPC   GL1 9289  27.632   8.185   8.850
 3767POPC   GL2 9290  27.723   8.261   8.850
 3767POPC   C1A 9291  27.636   8.183   8.550
 3767POPC   D2A 9292  27.607   8.168   8.250
 3767POPC   C3A 9293  27.551   8.245   7.950
 3767POPC   C4A 9294  27.569   8.227   7.650
 3767POPC   C1B 9295  27.799   8.426   8.550
 3767POPC   C2B 9296  27.803   8.433   8.250
 3767POPC   C3B 9297  27.715   8.338   7.950
 3767POPC   C4B 9298  27.755   8.418   7.650
 3768POPC   NC3 9299  43.110  33.789   9.450
 3768POPC   PO4 9300  43.105  33.770   9.150
 3768POPC   GL1 9301  43.092  33.820   8.850
 3768POPC   GL2 9302  43.183  33.794   8.850
 3768POPC   C1A 9303  43.108  33.793   8.550
 3768POPC   D2A 9304  43.100  33.774   8.250
 3768POPC   C3A 9305  43.098  33.763   7.950
 3768POPC   C4A 9306  43.103  33.791   7.650
 3768POPC   C1B 9307  43.388  33.895   8.550
 3768POPC   C2B 9308  43.320  33.910   8.250
 3768POPC   C3B 9309  43.327  33.914   7.950
 3768POPC   C4B 9310  43.373  33.876   7.650
 3769POPC   NC3 9311  44.622   3.565   9.450
 3769POPC   PO4 9312  44.619   3.507   9.150
 3769POPC   GL1 9313  44.628   3.513   8.850
 3769POPC   GL2 9314  44.577   3.444   8.850
 3769POPC   C1A 9315  44.619   3.586   8.550
 3769POPC   D2A 9316  44.691   3.565   8.250
 3769POPC   C3A 9317  44.690   3.535   7.950
 3769POPC   C4A 9318  44.616   3.580   7.650
 3769POPC   C1B 9319  44.471   3.363   8.550
 3769POPC   C2B 9320  44.475   3.428   8.250
 3769POPC   C3B 9321  44.474   3.361   7.950
 3769POPC   C4B 9322  44.496   3.394   7.650
 3770POPC   NC3 9323  41.559  10.567   9.450
 3770POPC   PO4 9324  41.590  10.493   9.150
 3770POPC   GL1 9325  41.534  10.533   8.850
 3770POPC   GL2 9326  41.557  10.352   8.850
 3770POPC   C1A 9327  41.541  10.549   8.550
 3770POPC   D2A 9328  41.607  10.534   8.250
 3770POPC   C3A 9329  41.550  10.476   7.950
 3770POPC   C4A 9330  41.520  10.497   7.650
 3770POPC   C1B 9331  41.602  10.309   8.550
 3770POPC   C2B 9332  41.574  10.290   8.250
 3770POPC   C3B 9333  41.599  10.290   7.950
 3770POPC   C4B 9334  41.600  10.316   7.650
 3771POPC   NC3 9335  29.099  40.055   9.450
 3771POPC   PO4 9336  29.112  40.041   9.150
 3771POPC   GL1 9337  29.174  39.989   8.850
 3771POPC   GL2 9338  29.217  39.911   8.850
 3771POPC   C1A 9339  29.118  39.976   8.550
 3771POPC   D2A 9340  29.133  39.979   8.250
 3771POPC   C3A 9341  29.137  40.043   7.950
 3771POPC   C4A 9342  29.102  40.035   7.650
 3771POPC   C1B 9343  29.318  39.819   8.550
 3771POPC   C2B 9344  29.331  39.853   8.250
 3771POPC   C3B 9345  29.307  39.797   7.950
 3771POPC   C4B 9346  29.316  39.872   7.650
 3772POPC   NC3 9347  26.778   8.191   9.450
 3772POPC   PO4 9348  26.838   8.174   9.150
 3772POPC   GL1 9349  26.837   8.232   8.850
 3772POPC   GL2 9350  26.768   8.059   8.850
 3772POPC   C1A 9351  26.858   8.158   8.550
 3772POPC   D2A 9352  26.832   8.164   8.250
 3772POPC   C3A 9353  26.850   8.161   7.950
 3772POPC   C4A 9354  26.834   8.231   7.650
 3772POPC   C1B 9355  26.782   7.903   8.550
 3772POPC   C2B 9356  26.763   7.935   8.250
 3772POPC   C3B 9357  26.755   7.984   7.950
 3772POPC   C4B 9358  26.805   7.932   7.650
 3773POPC   NC3 9359  33.027  42.287   9.450
 3773POPC   PO4 9360  33.034  42.377   9.150
 3773POPC   GL1 9361  32.979  42.294   8.850
 3773POPC   GL2 9362  32.875  42.428   8.850
 3773POPC   C1A 9363  33.026  42.321   8.550
 3773POPC   D2A 9364  33.049  42.345   8.250
 3773POPC   C3A 9365  32.983  42.370   7.950
 3773POPC   C4A 9366  33.063  42.318   7.650
 3773POPC   C1B 9367  32.855  42.472   8.550
 3773POPC   C2B 9368  32.858  42.418   8.250
 3773POPC   C3B 9369  32.857  42.498   7.950
 3773POPC   C4B 9370  32.765  42.473   7.650
 3774POPC   NC3 9371  33.759  29.878   9.450
 3774POPC   PO4 9372  33.763  29.959   9.150
 3774POPC   GL1 9373  33.817  29.911   8.850
 3774POPC   GL2 9374  33.692  29.902   8.850
 3774POPC   C1A 9375  33.767  29.883   8.550
 3774POPC   D2A 9376  33.787  29.930   8.250
 3774POPC   C3A 9377  33.825  29.918   7.950
 3774POPC   C4A 9378  33.779  29.882   7.650
 3774POPC   C1B 9379  33.597  29.809   8.550
 3774POPC   C2B 9380  33.604  29.857   8.250
 3774POPC   C3B 9381  33.534  29.867   7.950
 3774POPC   C4B 9382  33.572  29.809   7.650
 3775POPC   NC3 9383  19.091  22.922   9.450
 3775POPC   PO4 9384  19.032  22.979   9.150
 3775POPC   GL1 9385  19.029  22.943   8.850
 3775POPC   GL2 9386  19.199  22.877   8.850
 3775POPC   C1A 9387  19.051  22.975   8.550
 3775POPC   D2A 9388  19.047  22.928   8.250
 3775POPC   C3A 9389  19.053  22.983   7.950
 3775POPC   C4A 9390  19.048  22.920   7.650
 3775POPC   C1B 9391  19.271  22.807   8.550
 3775POPC   C2B 9392  19.302  22.742   8.250
 3775POPC   C3B 9393  19.297  22.819   7.950
 3775POPC   C4B 9394  19.301  22.746   7.650
 3776POPC   NC3 9395  36.858  26.847   9.450
 3776POPC   PO4 9396  36.904  26.785   9.150
 3776POPC   GL1 9397  36.855  26.787   8.850
 3776POPC   GL2 9398  36.744  26.764   8.850
 3776POPC   C1A 9399  36.876  26.835   8.550
 3776POPC   D2A 9400  36.861  26.840   8.250
 3776POPC   C3A 9401  36.913  26.830   7.950
 3776POPC   C4A 9402  36.896  26.783   7.650
 3776POPC   C1B 9403  36.694  26.711   8.550
 3776POPC   C2B 9404  36.678  26.772   8.250
 3776POPC   C3B 9405  36.667  26.756   7.950
 3776POPC   C4B 9406  36.663  26.739   7.650
 3777POPC   NC3 9407  30.736   2.721   9.450
 3777POPC   PO4 9408  30.712   2.793   9.150
 3777POPC   GL1 9409  30.659   2.728   8.850
 3777POPC   GL2 9410  30.747   2.905   8.850
 3777POPC   C1A 9411  30.648   2.723   8.550
 3777POPC   D2A 9412  30.669   2.777   8.250
 3777POPC   C3A 9413  30.668   2.732   7.950
 3777POPC   C4A 9414  30.707   2.804   7.650
 3777POPC   C1B 9415  30.785   2.957   8.550
 3777POPC   C2B 9416  30.768   2.973   8.250
 3777POPC   C3B 9417  30.822   3.045   7.950
 3777POPC   C4B 9418  30.761   3.050   7.650
 3778POPC   NC3 9419   8.957  25.301   9.450
 3778POPC   PO4 9420   8.965  25.300   9.150
 3778POPC   GL1 9421   8.993  25.288   8.850
 3778POPC   GL2 9422   8.945  25.148   8.850
 3778POPC   C1A 9423   8.942  25.221   8.550
 3778POPC   D2A 9424   8.933  25.289   8.250
 3778POPC   C3A 9425   8.996  25.277   7.950
 3778POPC   C4A 9426   8.962  25.301   7.650
 3778POPC   C1B 9427   8.880  24.998   8.550
 3778POPC   C2B 9428   8.857  24.989   8.250
 3778POPC   C3B 9429   8.935  25.019   7.950
 3778POPC   C4B 9430   8.930  24.991   7.650
 3779POPC   NC3 9431   3.582  30.712   9.450
 3779POPC   PO4 9432   3.566  30.686   9.150
 3779POPC   GL1 9433   3.584  30.721   8.850
 3779POPC   GL2 9434   3.634  30.843   8.850
 3779POPC   C1A 9435   3.501  30.656   8.550
 3779POPC   D2A 9436   3.566  30.698   8.250
 3779POPC   C3A 9437   3.581  30.688   7.950
 3779POPC   C4A 9438   3.513  30.729   7.650
 3779POPC   C1B 9439   3.637  30.926   8.550
 3779POPC   C2B 9440   3.605  30.881   8.250
 3779POPC   C3B 9441   3.690  30.924   7.950
 3779POPC   C4B 9442   3.690  30.934   7.650
 3780POPC   NC3 9443  43.072   5.853   9.450
 3780POPC   PO4 9444  43.083   5.864   9.150
 3780POPC   GL1 9445  43.085   5.844   8.850
 3780POPC   GL2 9446  43.215   5.762   8.850
 3780POPC   C1A 9447  43.100   5.917   8.550
 3780POPC   D2A 9448  43.084   5.873   8.250
 3780POPC   C3A 9449  43.087   5.889   7.950
 3780POPC   C4A 9450  43.157   5.886   7.650
 3780POPC   C1B 9451  43.306   5.713   8.550
 3780POPC   C2B 9452  43.318   5.646   8.250
 3780POPC   C3B 9453  43.246   5.685   7.950
 3780POPC   C4B 9454  43.330   5.661   7.650
 3781POPC   NC3 9455  33.806  29.184   9.450
 3781POPC   PO4 9456  33.825  29.112   9.150
 3781POPC   GL1 9457  33.769  29.194   8.850
 3781POPC   GL2 9458  33.725  29.291   8.850
 3781POPC   C1A 9459  33.840  29.100   8.550
 3781POPC   D2A 9460  33.828  29.164   8.250
 3781POPC   C3A 9461  33.765  29.099   7.950
 3781POPC   C4A 9462  33.798  29.125   7.650
 3781POPC   C1B 9463  33.692  29.334   8.550
 3781POPC   C2B 9464  33.662  29.398   8.250
 3781POPC   C3B 9465  33.676  29.372   7.950
 3781POPC   C4B 9466  33.705  29.332   7.650
 3782POPC   NC3 9467  32.207  13.605   9.450
 3782POPC   PO4 9468  32.212  13.669   9.150
 3782POPC   GL1 9469  32.236  13.654   8.850
 3782POPC   GL2 9470  32.130  13.554   8.850
 3782POPC   C1A 9471  32.206  13.624   8.550
 3782POPC   D2A 9472  32.222  13.636   8.250
 3782POPC   C3A 9473  32.251  13.654   7.950
 3782POPC   C4A 9474  32.218  13.664   7.650
 3782POPC   C1B 9475  32.003  13.543   8.550
 3782POPC   C2B 9476  32.070  13.508   8.250
 3782POPC   C3B 9477  32.081  13.523   7.950
 3782POPC   C4B 9478  32.048  13.546   7.650
 3783POPC   NC3 9479  23.671  26.812   9.450
 3783POPC   PO4 9480  23.740  26.852   9.150
 3783POPC   GL1 9481  23.721  26.794   8.850
 3783POPC   GL2 9482  23.693  26.924   8.850
 3783POPC   C1A 9483  23.691  26.815   8.550
 3783POPC   D2A 9484  23.717  26.816   8.250
 3783POPC   C3A 9485  23.745  26.818   7.950
 3783POPC   C4A 9486  23.742  26.779   7.650
 3783POPC   C1B 9487  23.669  27.063   8.550
 3783POPC   C2B 9488  23.699  27.037   8.250
 3783POPC   C3B 9489  23.689  27.094   7.950
 3783POPC   C4B 9490  23.714  27.083   7.650
 3784POPC   NC3 9491  18.305  41.563   9.450
 3784POPC   PO4 9492  18.258  41.529   9.150
 3784POPC   GL1 9493  18.311  41.591   8.850
 3784POPC   GL2 9494  18.231  41.463   8.850
 3784POPC   C1A 9495  18.328  41.563   8.550
 3784POPC   D2A 9496  18.328  41.540   8.250
 3784POPC   C3A 9497  18.295  41.607   7.950
 3784POPC   C4A 9498  18.259  41.560   7.650
 3784POPC   C1B 9499  18.294  41.330   8.550
 3784POPC   C2B 9500  18.200  41.291   8.250
 3784POPC   C3B 9501  18.234  41.289   7.950
 3784POPC   C4B 9502  18.239  41.312   7.650
 3785POPC   NC3 9503   4.366  31.445   9.450
 3785POPC   PO4 9504   4.286  31.515   9.150
 3785POPC   GL1 9505   4.320  31.427   8.850
 3785POPC   GL2 9506   4.375  31.351   8.850
 3785POPC   C1A 9507   4.316  31.521   8.550
 3785POPC   D2A 9508   4.337  31.511   8.250
 3785POPC   C3A 9509   4.284  31.487   7.950
 3785POPC   C4A 9510   4.302  31.507   7.650
 3785POPC   C1B 9511   4.327  31.192   8.550
 3785POPC   C2B 9512   4.345  31.247   8.250
 3785POPC   C3B 9513   4.371  31.200   7.950
 3785POPC   C4B 9514   4.372  31.189   7.650
 3786POPC   NC3 9515  14.418  33.816   9.450
 3786POPC   PO4 9516  14.429  33.827   9.150
 3786POPC   GL1 9517  14.414  33.817   8.850
 3786POPC   GL2 9518  14.503  33.867   8.850
 3786POPC   C1A 9519  14.400  33.759   8.550
 3786POPC   D2A 9520  14.448  33.842   8.250
 3786POPC   C3A 9521  14.417  33.792   7.950
 3786POPC   C4A 9522  14.428  33.841   7.650
 3786POPC   C1B 9523  14.673  33.881   8.550
 3786POPC   C2B 9524  14.622  33.815   8.250
 3786POPC   C3B 9525  14.636  33.813   7.950
 3786POPC   C4B 9526  14.602  33.894   7.650
 3787POPC   NC3 9527   8.215  22.937   9.450
 3787POPC   PO4 9528   8.172  22.959   9.150
 3787POPC   GL1 9529   8.218  22.912   8.850
 3787POPC   GL2 9530   8.094  23.046   8.850
 3787POPC   C1A 9531   8.213  22.965   8.550
 3787POPC   D2A 9532   8.207  22.920   8.250
 3787POPC   C3A 9533   8.153  22.897   7.950
 3787POPC   C4A 9534   8.220  22.960   7.650
 3787POPC   C1B 9535   7.999  23.160   8.550
 3787POPC   C2B 9536   7.982  23.063   8.250
 3787POPC   C3B 9537   8.004  23.144   7.950
 3787POPC   C4B 9538   8.024  23.113   7.650
 3788POPC   NC3 9539  12.821  42.321   9.450
 3788POPC   PO4 9540  12.891  42.298   9.150
 3788POPC   GL1 9541  12.819  42.313   8.850
 3788POPC   GL2 9542  12.884  42.464   8.850
 3788POPC   C1A 9543  12.843  42.352   8.550
 3788POPC   D2A 9544  12.840  42.296   8.250
 3788POPC   C3A 9545  12.863  42.366   7.950
 3788POPC   C4A 9546  12.840  42.359   7.650
 3788POPC   C1B 9547  12.904  42.605   8.550
 3788POPC   C2B 9548  12.937  42.565   8.250
 3788POPC   C3B 9549  12.949  42.613   7.950
 3788POPC   C4B 9550  12.968  42.567   7.650
 3789POPC   NC3 9551  21.409  26.839   9.450
 3789POPC   PO4 9552  21.397  26.841   9.150
 3789POPC   GL1 9553  21.364  26.844   8.850
 3789POPC   GL2 9554  21.309  26.725   8.850
 3789POPC   C1A 9555  21.343  26.768   8.550
 3789POPC   D2A 9556  21.401  26.783   8.250
 3789POPC   C3A 9557  21.396  26.851   7.950
 3789POPC   C4A 9558  21.434  26.838   7.650
 3789POPC   C1B 9559  21.240  26.588   8.550
 3789POPC   C2B 9560  21.259  26.620   8.250
 3789POPC   C3B 9561  21.191  26.653   7.950
 3789POPC   C4B 9562  21.221  26.593   7.650
 3790POPC   NC3 9563   7.375   9.728   9.450
 3790POPC   PO4 9564   7.422   9.727   9.150
 3790POPC   GL1 9565   7.407   9.700   8.850
 3790POPC   GL2 9566   7.464   9.826   8.850
 3790POPC   C1A 9567   7.434   9.790   8.550
 3790POPC   D2A 9568   7.433   9.775   8.250
 3790POPC   C3A 9569   7.371   9.731   7.950
 3790POPC   C4A 9570   7.382   9.762   7.650
 3790POPC   C1B 9571   7.568   9.904   8.550
 3790POPC   C2B 9572   7.625   9.958   8.250
 3790POPC   C3B 9573   7.599   9.956   7.950
 3790POPC   C4B 9574   7.540   9.924   7.650
 3791POPC   NC3 9575  43.933  36.118   9.450
 3791POPC   PO4 9576  43.884  36.174   9.150
 3791POPC   GL1 9577  43.907  36.093   8.850
 3791POPC   GL2 9578  43.757  36.071   8.850
 3791POPC   C1A 9579  43.847  36.114   8.550
 3791POPC   D2A 9580  43.846  36.096   8.250
 3791POPC   C3A 9581  43.845  36.117   7.950
 3791POPC   C4A 9582  43.911  36.086   7.650
 3791POPC   C1B 9583  43.703  35.989   8.550
 3791POPC   C2B 9584  43.675  35.928   8.250
 3791POPC   C3B 9585  43.706  35.998   7.950
 3791POPC   C4B 9586  43.745  35.965   7.650
 3792POPC   NC3 9587   5.102  20.611   9.450
 3792POPC   PO4 9588   5.062  20.633   9.150
 3792POPC   GL1 9589   5.138  20.630   8.850
 3792POPC   GL2 9590   5.125  20.766   8.850
 3792POPC   C1A 9591   5.067  20.610   8.550
 3792POPC   D2A 9592   5.069  20.607   8.250
 3792POPC   C3A 9593   5.063  20.647   7.950
 3792POPC   C4A 9594   5.068  20.601   7.650
 3792POPC   C1B 9595   5.111  20.867   8.550
 3792POPC   C2B 9596   5.159  20.866   8.250
 3792POPC   C3B 9597   5.111  20.888   7.950
 3792POPC   C4B 9598   5.155  20.814   7.650
 3793POPC   NC3 9599  22.160  37.649   9.450
 3793POPC   PO4 9600  22.124  37.696   9.150
 3793POPC   GL1 9601  22.167  37.666   8.850
 3793POPC   GL2 9602  22.105  37.630   8.850
 3793POPC   C1A 9603  22.207  37.631   8.550
 3793POPC   D2A 9604  22.181  37.635   8.250
 3793POPC   C3A 9605  22.175  37.719   7.950
 3793POPC   C4A 9606  22.202  37.683   7.650
 3793POPC   C1B 9607  21.993  37.568   8.550
 3793POPC   C2B 9608  21.938  37.517   8.250
 3793POPC   C3B 9609  22.012  37.563   7.950
 3793POPC   C4B 9610  21.994  37.543   7.650
 3794POPC   NC3 9611  32.294   4.352   9.450
 3794POPC   PO4 9612  32.221   4.336   9.150
 3794POPC   GL1 9613  32.203   4.351   8.850
 3794POPC   GL2 9614  32.300   4.228   8.850
 3794POPC   C1A 9615  32.254   4.288   8.550
 3794POPC   D2A 9616  32.202   4.313   8.250
 3794POPC   C3A 9617  32.265   4.319   7.950
 3794POPC   C4A 9618  32.257   4.354   7.650
 3794POPC   C1B 9619  32.282   4.041   8.550
 3794POPC   C2B 9620  32.258   4.067   8.250
 3794POPC   C3B 9621  32.253   4.040   7.950
 3794POPC   C4B 9622  32.229   4.091   7.650
 3795POPC   NC3 9623   5.875  44.631   9.450
 3795POPC   PO4 9624   5.893  44.653   9.150
 3795POPC   GL1 9625   5.842  44.685   8.850
 3795POPC   GL2 9626   5.812  44.818   8.850
 3795POPC   C1A 9627   5.847  44.657   8.550
 3795POPC   D2A 9628   5.841  44.625   8.250
 3795POPC   C3A 9629   5.839  44.700   7.950
 3795POPC   C4A 9630   5.879  44.637   7.650
 3795POPC   C1B 9631   5.835  44.871   8.550
 3795POPC   C2B 9632   5.843  44.882   8.250
 3795POPC   C3B 9633   5.884  44.922   7.950
 3795POPC   C4B 9634   5.820  44.915   7.650
 3796POPC   NC3 9635  29.112  34.547   9.450
 3796POPC   PO4 9636  29.183  34.623   9.150
 3796POPC   GL1 9637  29.146  34.551   8.850
 3796POPC   GL2 9638  29.068  34.489   8.850
 3796POPC   C1A 9639  29.141  34.590   8.550
 3796POPC   D2A 9640  29.151  34.615   8.250
 3796POPC   C3A 9641  29.102  34.576   7.950
 3796POPC   C4A 9642  29.181  34.606   7.650
 3796POPC   C1B 9643  29.079  34.303   8.550
 3796POPC   C2B 9644  29.040  34.362   8.250
 3796POPC   C3B 9645  29.021  34.348   7.950
 3796POPC   C4B 9646  29.039  34.366   7.650
 3797POPC   NC3 9647  36.950  20.627   9.450
 3797POPC   PO4 9648  36.915  20.647   9.150
 3797POPC   GL1 9649  36.943  20.596   8.850
 3797POPC   GL2 9650  36.887  20.453   8.850
 3797POPC   C1A 9651  36.934  20.647   8.550
 3797POPC   D2A 9652  36.927  20.613   8.250
 3797POPC   C3A 9653  36.952  20.660   7.950
 3797POPC   C4A 9654  36.947  20.609   7.650
 3797POPC   C1B 9655  36.908  20.324   8.550
 3797POPC   C2B 9656  36.820  20.329   8.250
 3797POPC   C3B 9657  36.861  20.338   7.950
 3797POPC   C4B 9658  36.817  20.395   7.650
 3798POPC   NC3 9659  26.853  19.078   9.450
 3798POPC   PO4 9660  26.793  19.013   9.150
 3798POPC   GL1 9661  26.770  19.094   8.850
 3798POPC   GL2 9662  26.783  18.916   8.850
 3798POPC   C1A 9663  26.847  19.078   8.550
 3798POPC   D2A 9664  26.857  19.086   8.250
 3798POPC   C3A 9665  26.844  19.063   7.950
 3798POPC   C4A 9666  26.838  19.087   7.650
 3798POPC   C1B 9667  26.627  18.821   8.550
 3798POPC   C2B 9668  26.679  18.835   8.250
 3798POPC   C3B 9669  26.650  18.883   7.950
 3798POPC   C4B 9670  26.719  18.811   7.650
 3799POPC   NC3 9671   4.336  11.286   9.450
 3799POPC   PO4 9672   4.293  11.255   9.150
 3799POPC   GL1 9673   4.310  11.319   8.850
 3799POPC   GL2 9674   4.356  11.168   8.850
 3799POPC   C1A 9675   4.324  11.321   8.550
 3799POPC   D2A 9676   4.284  11.331   8.250
 3799POPC   C3A 9677   4.276  11.250   7.950
 3799POPC   C4A 9678   4.346  11.341   7.650
 3799POPC   C1B 9679   4.354  11.015   8.550
 3799POPC   C2B 9680   4.345  11.041   8.250
 3799POPC   C3B 9681   4.352  11.074   7.950
 3799POPC   C4B 9682   4.281  11.069   7.650
 3800POPC   NC3 9683  42.345   4.268   9.450
 3800POPC   PO4 9684  42.354   4.303   9.150
 3800POPC   GL1 9685  42.373   4.282   8.850
 3800POPC   GL2 9686  42.395   4.473   8.850
 3800POPC   C1A 9687  42.299   4.300   8.550
 3800POPC   D2A 9688  42.372   4.296   8.250
 3800POPC   C3A 9689  42.384   4.344   7.950
 3800POPC   C4A 9690  42.351   4.311   7.650
 3800POPC   C1B 9691  42.384   4.530   8.550
 3800POPC   C2B 9692  42.343   4.543   8.250
 3800POPC   C3B 9693  42.336   4.609   7.950
 3800POPC   C4B 9694  42.398   4.603   7.650
 3801POPC   NC3 9695  15.912  17.555   9.450
 3801POPC   PO4 9696  15.933  17.476   9.150
 3801POPC   GL1 9697  15.937  17.510   8.850
 3801POPC   GL2 9698  15.872  17.401   8.850
 3801POPC   C1A 9699  15.952  17.530   8.550
 3801POPC   D2A 9700  15.975  17.472   8.250
 3801POPC   C3A 9701  15.912  17.506   7.950
 3801POPC   C4A 9702  15.961  17.539   7.650
 3801POPC   C1B 9703  15.814  17.349   8.550
 3801POPC   C2B 9704  15.853  17.277   8.250
 3801POPC   C3B 9705  15.804  17.333   7.950
 3801POPC   C4B 9706  15.800  17.290   7.650
 3802POPC   NC3 9707  36.169  17.492   9.450
 3802POPC   PO4 9708  36.107  17.473   9.150
 3802POPC   GL1 9709  36.159  17.518   8.850
 3802POPC   GL2 9710  36.104  17.362   8.850
 3802POPC   C1A 9711  36.165  17.458   8.550
 3802POPC   D2A 9712  36.177  17.524   8.250
 3802POPC   C3A 9713  36.113  17.494   7.950
 3802POPC   C4A 9714  36.112  17.492   7.650
 3802POPC   C1B 9715  36.095  17.265   8.550
 3802POPC   C2B 9716  36.180  17.244   8.250
 3802POPC   C3B 9717  36.146  17.263   7.950
 3802POPC   C4B 9718  36.158  17.295   7.650
 3803POPC   NC3 9719  26.058   6.673   9.450
 3803POPC   PO4 9720  26.029   6.628   9.150
 3803POPC   GL1 9721  26.048   6.669   8.850
 3803POPC   GL2 9722  26.203   6.682   8.850
 3803POPC   C1A 9723  26.047   6.676   8.550
 3803POPC   D2A 9724  26.023   6.601   8.250
 3803POPC   C3A 9725  26.012   6.651   7.950
 3803POPC   C4A 9726  26.042   6.643   7.650
 3803POPC   C1B 9727  26.329   6.685   8.550
 3803POPC   C2B 9728  26.237   6.692   8.250
 3803POPC   C3B 9729  26.316   6.731   7.950
 3803POPC   C4B 9730  26.305   6.761   7.650
 3804POPC   NC3 9731  22.923  32.272   9.450
 3804POPC   PO4 9732  22.953  32.211   9.150
 3804POPC   GL1 9733  22.982  32.263   8.850
 3804POPC   GL2 9734  23.024  32.294   8.850
 3804POPC   C1A 9735  22.971  32.284   8.550
 3804POPC   D2A 9736  22.897  32.243   8.250
 3804POPC   C3A 9737  22.965  32.223   7.950
 3804POPC   C4A 9738  22.946  32.201   7.650
 3804POPC   C1B 9739  23.055  32.452   8.550
 3804POPC   C2B 9740  23.052  32.450   8.250
 3804POPC   C3B 9741  23.096  32.430   7.950
 3804POPC   C4B 9742  23.146  32.396   7.650
 3805POPC   NC3 9743  15.979  21.381   9.450
 3805POPC   PO4 9744  15.971  21.399   9.150
 3805POPC   GL1 9745  15.989  21.422   8.850
 3805POPC   GL2 9746  15.852  21.273   8.850
 3805POPC   C1A 9747  16.003  21.366   8.550
 3805POPC   D2A 9748  15.987  21.355   8.250
 3805POPC   C3A 9749  15.953  21.407   7.950
 3805POPC   C4A 9750  15.917  21.381   7.650
 3805POPC   C1B 9751  15.824  21.149   8.550
 3805POPC   C2B 9752  15.842  21.183   8.250
 3805POPC   C3B 9753  15.854  21.176   7.950
 3805POPC   C4B 9754  15.854  21.200   7.650
 3806POPC   NC3 9755  22.135   8.955   9.450
 3806POPC   PO4 9756  22.136   8.952   9.150
 3806POPC   GL1 9757  22.150   8.934   8.850
 3806POPC   GL2 9758  22.022   8.928   8.850
 3806POPC   C1A 9759  22.208   8.946   8.550
 3806POPC   D2A 9760  22.165   8.949   8.250
 3806POPC   C3A 9761  22.177   8.980   7.950
 3806POPC   C4A 9762  22.113   8.991   7.650
 3806POPC   C1B 9763  21.873   8.993   8.550
 3806POPC   C2B 9764  21.930   8.999   8.250
 3806POPC   C3B 9765  21.908   8.931   7.950
 3806POPC   C4B 9766  21.955   8.974   7.650
 3807POPC   NC3 9767  29.179  11.340   9.450
 3807POPC   PO4 9768  29.181  11.347   9.150
 3807POPC   GL1 9769  29.136  11.287   8.850
 3807POPC   GL2 9770  29.099  11.380   8.850
 3807POPC   C1A 9771  29.109  11.332   8.550
 3807POPC   D2A 9772  29.188  11.344   8.250
 3807POPC   C3A 9773  29.143  11.342   7.950
 3807POPC   C4A 9774  29.143  11.332   7.650
 3807POPC   C1B 9775  29.074  11.577   8.550
 3807POPC   C2B 9776  29.112  11.558   8.250
 3807POPC   C3B 9777  29.129  11.556   7.950
 3807POPC   C4B 9778  29.080  11.561   7.650
 3808POPC   NC3 9779  36.099  31.499   9.450
 3808POPC   PO4 9780  36.140  31.510   9.150
 3808POPC   GL1 9781  36.159  31.504   8.850
 3808POPC   GL2 9782  36.019  31.398   8.850
 3808POPC   C1A 9783  36.111  31.479   8.550
 3808POPC   D2A 9784  36.160  31.502   8.250
 3808POPC   C3A 9785  36.093  31.428   7.950
 3808POPC   C4A 9786  36.091  31.506   7.650
 3808POPC   C1B 9787  35.984  31.297   8.550
 3808POPC   C2B 9788  35.961  31.254   8.250
 3808POPC   C3B 9789  35.991  31.263   7.950
 3808POPC   C4B 9790  35.994  31.267   7.650
 3809POPC   NC3 9791  12.092   0.481   9.450
 3809POPC   PO4 9792  12.118   0.427   9.150
 3809POPC   GL1 9793  12.125   0.437   8.850
 3809POPC   GL2 9794  12.066   0.347   8.850
 3809POPC   C1A 9795  12.062   0.482   8.550
 3809POPC   D2A 9796  12.120   0.454   8.250
 3809POPC   C3A 9797  12.075   0.442   7.950
 3809POPC   C4A 9798  12.059   0.406   7.650
 3809POPC   C1B 9799  12.089   0.142   8.550
 3809POPC   C2B 9800  12.049   0.156   8.250
 3809POPC   C3B 9801  12.100   0.140   7.950
 3809POPC   C4B 9802  12.129   0.210   7.650
 3810POPC   NC3 9803  26.862  10.554   9.450
 3810POPC   PO4 9804  26.827  10.541   9.150
 3810POPC   GL1 9805  26.784  10.547   8.850
 3810POPC   GL2 9806  26.962  10.487   8.850
 3810POPC   C1A 9807  26.804  10.476   8.550
 3810POPC   D2A 9808  26.801  10.555   8.250
 3810POPC   C3A 9809  26.789  10.476   7.950
 3810POPC   C4A 9810  26.771  10.498   7.650
 3810POPC   C1B 9811  27.003  10.374   8.550
 3810POPC   C2B 9812  27.059  10.371   8.250
 3810POPC   C3B 9813  27.018  10.363   7.950
 3810POPC   C4B 9814  27.088  10.446   7.650
 3811POPC   NC3 9815  32.297   8.930   9.450
 3811POPC   PO4 9816  32.261   9.021   9.150
 3811POPC   GL1 9817  32.207   8.994   8.850
 3811POPC   GL2 9818  32.109   8.918   8.850
 3811POPC   C1A 9819  32.232   8.968   8.550
 3811POPC   D2A 9820  32.205   9.014   8.250
 3811POPC   C3A 9821  32.265   8.976   7.950
 3811POPC   C4A 9822  32.260   9.001   7.650
 3811POPC   C1B 9823  32.036   8.913   8.550
 3811POPC   C2B 9824  31.995   8.893   8.250
 3811POPC   C3B 9825  31.988   8.964   7.950
 3811POPC   C4B 9826  31.968   8.888   7.650
 3812POPC   NC3 9827   2.775  19.818   9.450
 3812POPC   PO4 9828   2.733  19.814   9.150
 3812POPC   GL1 9829   2.766  19.881   8.850
 3812POPC   GL2 9830   2.849  19.678   8.850
 3812POPC   C1A 9831   2.769  19.834   8.550
 3812POPC   D2A 9832   2.768  19.826   8.250
 3812POPC   C3A 9833   2.764  19.833   7.950
 3812POPC   C4A 9834   2.812  19.847   7.650
 3812POPC   C1B 9835   2.917  19.593   8.550
 3812POPC   C2B 9836   2.833  19.641   8.250
 3812POPC   C3B 9837   2.894  19.615   7.950
 3812POPC   C4B 9838   2.838  19.632   7.650
 3813POPC   NC3 9839  28.337  22.897   9.450
 3813POPC   PO4 9840  28.343  22.981   9.150
 3813POPC   GL1 9841  28.336  22.905   8.850
 3813POPC   GL2 9842  28.250  22.839   8.850
 3813POPC   C1A 9843  28.362  22.912   8.550
 3813POPC   D2A 9844  28.397  22.961   8.250
 3813POPC   C3A 9845  28.326  22.975   7.950
 3813POPC   C4A 9846  28.416  22.963   7.650
 3813POPC   C1B 9847  28.218  22.756   8.550
 3813POPC   C2B 9848  28.256  22.785   8.250
 3813POPC   C3B 9849  28.250  22.723   7.950
 3813POPC   C4B 9850  28.175  22.713   7.650
 3814POPC   NC3 9851  29.103  42.323   9.450
 3814POPC   PO4 9852  29.186  42.312   9.150
 3814POPC   GL1 9853  29.137  42.289   8.850
 3814POPC   GL2 9854  29.125  42.452   8.850
 3814POPC   C1A 9855  29.130  42.330   8.550
 3814POPC   D2A 9856  29.143  42.287   8.250
 3814POPC   C3A 9857  29.107  42.305   7.950
 3814POPC   C4A 9858  29.189  42.366   7.650
 3814POPC   C1B 9859  29.195  42.595   8.550
 3814POPC   C2B 9860  29.205  42.557   8.250
 3814POPC   C3B 9861  29.187  42.530   7.950
 3814POPC   C4B 9862  29.184  42.544   7.650
 3815POPC   NC3 9863  43.861  16.723   9.450
 3815POPC   PO4 9864  43.925  16.722   9.150
 3815POPC   GL1 9865  43.895  16.695   8.850
 3815POPC   GL2 9866  43.767  16.840   8.850
 3815POPC   C1A 9867  43.893  16.758   8.550
 3815POPC   D2A 9868  43.926  16.708   8.250
 3815POPC   C3A 9869  43.845  16.767   7.950
 3815POPC   C4A 9870  43.927  16.727   7.650
 3815POPC   C1B 9871  43.632  16.890   8.550
 3815POPC   C2B 9872  43.665  16.856   8.250
 3815POPC   C3B 9873  43.663  16.887   7.950
 3815POPC   C4B 9874  43.696  16.835   7.650
 3816POPC   NC3 9875  12.097  11.304   9.450
 3816POPC   PO4 9876  12.087  11.327   9.150
 3816POPC   GL1 9877  12.120  11.334   8.850
 3816POPC   GL2 9878  12.153  11.300   8.850
 3816POPC   C1A 9879  12.028  11.282   8.550
 3816POPC   D2A 9880  12.053  11.267   8.250
 3816POPC   C3A 9881  12.121  11.342   7.950
 3816POPC   C4A 9882  12.094  11.327   7.650
 3816POPC   C1B 9883  12.301  11.352   8.550
 3816POPC   C2B 9884  12.302  11.297   8.250
 3816POPC   C3B 9885  12.279  11.295   7.950
 3816POPC   C4B 9886  12.355  11.365   7.650
 3817POPC   NC3 9887  15.130  14.431   9.450
 3817POPC   PO4 9888  15.159  14.410   9.150
 3817POPC   GL1 9889  15.143  14.444   8.850
 3817POPC   GL2 9890  15.348  14.362   8.850
 3817POPC   C1A 9891  15.156  14.387   8.550
 3817POPC   D2A 9892  15.172  14.375   8.250
 3817POPC   C3A 9893  15.200  14.447   7.950
 3817POPC   C4A 9894  15.166  14.394   7.650
 3817POPC   C1B 9895  15.428  14.380   8.550
 3817POPC   C2B 9896  15.392  14.351   8.250
 3817POPC   C3B 9897  15.435  14.305   7.950
 3817POPC   C4B 9898  15.461  14.393   7.650
 3818POPC   NC3 9899   2.010  37.673   9.450
 3818POPC   PO4 9900   2.016  37.707   9.150
 3818POPC   GL1 9901   1.949  37.691   8.850
 3818POPC   GL2 9902   2.048  37.833   8.850
 3818POPC   C1A 9903   1.991  37.700   8.550
 3818POPC   D2A 9904   1.983  37.646   8.250
 3818POPC   C3A 9905   1.995  37.703   7.950
 3818POPC   C4A 9906   1.992  37.664   7.650
 3818POPC   C1B 9907   2.091  37.884   8.550
 3818POPC   C2B 9908   2.115  37.949   8.250
 3818POPC   C3B 9909   2.125  37.948   7.950
 3818POPC   C4B 9910   2.031  37.876   7.650
 3819POPC   NC3 9911   4.329  17.511   9.450
 3819POPC   PO4 9912   4.338  17.463   9.150
 3819POPC   GL1 9913   4.342  17.518   8.850
 3819POPC   GL2 9914   4.403  17.484   8.850
 3819POPC   C1A 9915   4.327  17.474   8.550
 3819POPC   D2A 9916   4.319  17.508   8.250
 3819POPC   C3A 9917   4.323  17.460   7.950
 3819POPC   C4A 9918   4.303  17.502   7.650
 3819POPC   C1B 9919   4.562  17.400   8.550
 3819POPC   C2B 9920   4.511  17.376   8.250
 3819POPC   C3B 9921   4.543  17.435   7.950
 3819POPC   C4B 9922   4.511  17.452   7.650
 3820POPC   NC3 9923  41.568  21.364   9.450
 3820POPC   PO4 9924  41.524  21.417   9.150
 3820POPC   GL1 9925  41.547  21.405   8.850
 3820POPC   GL2 9926  41.449  21.235   8.850
 3820POPC   C1A 9927  41.545  21.357   8.550
 3820POPC   D2A 9928  41.566  21.341   8.250
 3820POPC   C3A 9929  41.568  21.387   7.950
 3820POPC   C4A 9930  41.513  21.343   7.650
 3820POPC   C1B 9931  41.411  21.160   8.550
 3820POPC   C2B 9932  41.430  21.178   8.250
 3820POPC   C3B 9933  41.424  21.173   7.950
 3820POPC   C4B 9934  41.435  21.139   7.650
 3821POPC   NC3 9935  19.815  26.051   9.450
 3821POPC   PO4 9936  19.798  26.010   9.150
 3821POPC   GL1 9937  19.785  26.079   8.850
 3821POPC   GL2 9938  19.887  26.133   8.850
 3821POPC   C1A 9939  19.834  26.078   8.550
 3821POPC   D2A 9940  19.792  26.030   8.250
 3821POPC   C3A 9941  19.873  26.047   7.950
 3821POPC   C4A 9942  19.852  26.035   7.650
 3821POPC   C1B 9943  19.987  26.293   8.550
 3821POPC   C2B 9944  19.922  26.249   8.250
 3821POPC   C3B 9945  19.988  26.261   7.950
 3821POPC   C4B 9946  19.962  26.294   7.650
 3822POPC   NC3 9947  13.655  15.938   9.450
 3822POPC   PO4 9948  13.647  16.003   9.150
 3822POPC   GL1 9949  13.658  15.928   8.850
 3822POPC   GL2 9950  13.765  15.886   8.850
 3822POPC   C1A 9951  13.583  15.909   8.550
 3822POPC   D2A 9952  13.636  15.918   8.250
 3822POPC   C3A 9953  13.583  15.994   7.950
 3822POPC   C4A 9954  13.592  15.916   7.650
 3822POPC   C1B 9955  13.886  15.944   8.550
 3822POPC   C2B 9956  13.877  15.922   8.250
 3822POPC   C3B 9957  13.863  15.912   7.950
 3822POPC   C4B 9958  13.860  15.935   7.650
 3823POPC   NC3 9959  12.819  34.596   9.450
 3823POPC   PO4 9960  12.835  34.586   9.150
 3823POPC   GL1 9961  12.889  34.537   8.850
 3823POPC   GL2 9962  12.808  34.491   8.850
 3823POPC   C1A 9963  12.808  34.553   8.550
 3823POPC   D2A 9964  12.820  34.559   8.250
 3823POPC   C3A 9965  12.868  34.582   7.950
 3823POPC   C4A 9966  12.892  34.536   7.650
 3823POPC   C1B 9967  12.712  34.407   8.550
 3823POPC   C2B 9968  12.689  34.353   8.250
 3823POPC   C3B 9969  12.641  34.436   7.950
 3823POPC   C4B 9970  12.693  34.404   7.650
 3824POPC   NC3 9971  31.459  20.606   9.450
 3824POPC   PO4 9972  31.492  20.605   9.150
 3824POPC   GL1 9973  31.494  20.609   8.850
 3824POPC   GL2 9974  31.603  20.636   8.850
 3824POPC   C1A 9975  31.447  20.637   8.550
 3824POPC   D2A 9976  31.431  20.651   8.250
 3824POPC   C3A 9977  31.449  20.649   7.950
 3824POPC   C4A 9978  31.436  20.650   7.650
 3824POPC   C1B 9979  31.751  20.601   8.550
 3824POPC   C2B 9980  31.708  20.562   8.250
 3824POPC   C3B 9981  31.728  20.543   7.950
 3824POPC   C4B 9982  31.688  20.583   7.650
 3825POPC   NC3 9983  25.289  26.842   9.450
 3825POPC   PO4 9984  25.307  26.847   9.150
 3825POPC   GL1 9985  25.310  26.811   8.850
 3825POPC   GL2 9986  25.242  26.720   8.850
 3825POPC   C1A 9987  25.232  26.832   8.550
 3825POPC   D2A 9988  25.222  26.864   8.250
 3825POPC   C3A 9989  25.240  26.798   7.950
 3825POPC   C4A 9990  25.272  26.867   7.650
 3825POPC   C1B 9991  25.194  26.584   8.550
 3825POPC   C2B 9992  25.137  26.628   8.250
 3825POPC   C3B 9993  25.133  26.607   7.950
 3825POPC   C4B 9994  25.128  26.588   7.650
 3826POPC   NC3 9995  33.844   2.786   9.450
 3826POPC   PO4 9996  33.769   2.812   9.150
 3826POPC   GL1 9997  33.789   2.737   8.850
 3826POPC   GL2 9998  33.716   2.636   8.850
 3826POPC   C1A 9999  33.834   2.736   8.550
 3826POPC   D2A10000  33.832   2.796   8.250
 3826POPC   C3A10001  33.843   2.762   7.950
 3826POPC   C4A10002  33.797   2.777   7.650
 3826POPC   C1B10003  33.596   2.586   8.550
 3826POPC   C2B10004  33.628   2.568   8.250
 3826POPC   C3B10005  33.617   2.537   7.950
 3826POPC   C4B10006  33.608   2.587   7.650
 3827POPC   NC310007  40.819  22.940   9.450
 3827POPC   PO410008  40.808  22.971   9.150
 3827POPC   GL110009  40.810  22.942   8.850
 3827POPC   GL210010  40.876  23.065   8.850
 3827POPC   C1A10011  40.762  22.906   8.550
 3827POPC   D2A10012  40.833  22.942   8.250
 3827POPC   C3A10013  40.793  22.961   7.950
 3827POPC   C4A10014  40.771  22.913   7.650
 3827POPC   C1B10015  40.947  23.171   8.550
 3827POPC   C2B10016  40.889  23.087   8.250
 3827POPC   C3B10017  40.902  23.118   7.950
 3827POPC   C4B10018  40.969  23.174   7.650
 3828POPC   NC310019  27.627   3.495   9.450
 3828POPC   PO410020  27.635   3.554   9.150
 3828POPC   GL110021  27.612   3.571   8.850
 3828POPC   GL210022  27.639   3.391   8.850
 3828POPC   C1A10023  27.564   3.564   8.550
 3828POPC   D2A10024  27.623   3.584   8.250
 3828POPC   C3A10025  27.619   3.519   7.950
 3828POPC   C4A10026  27.599   3.572   7.650
 3828POPC   C1B10027  27.550   3.259   8.550
 3828POPC   C2B10028  27.551   3.331   8.250
 3828POPC   C3B10029  27.630   3.317   7.950
 3828POPC   C4B10030  27.606   3.336   7.650
 3829POPC   NC310031  11.350  39.985   9.450
 3829POPC   PO410032  11.286  40.051   9.150
 3829POPC   GL110033  11.273  39.983   8.850
 3829POPC   GL210034  11.219  39.977   8.850
 3829POPC   C1A10035  11.310  40.024   8.550
 3829POPC   D2A10036  11.313  40.034   8.250
 3829POPC   C3A10037  11.282  39.977   7.950
 3829POPC   C4A10038  11.272  40.010   7.650
 3829POPC   C1B10039  11.114  39.905   8.550
 3829POPC   C2B10040  11.124  39.883   8.250
 3829POPC   C3B10041  11.069  39.853   7.950
 3829POPC   C4B10042  11.103  39.932   7.650
 3830POPC   NC310043  36.855  29.141   9.450
 3830POPC   PO410044  36.929  29.119   9.150
 3830POPC   GL110045  36.920  29.104   8.850
 3830POPC   GL210046  36.891  29.019   8.850
 3830POPC   C1A10047  36.883  29.192   8.550
 3830POPC   D2A10048  36.945  29.193   8.250
 3830POPC   C3A10049  36.855  29.115   7.950
 3830POPC   C4A10050  36.868  29.148   7.650
 3830POPC   C1B10051  36.966  28.914   8.550
 3830POPC   C2B10052  36.919  28.935   8.250
 3830POPC   C3B10053  36.965  28.917   7.950
 3830POPC   C4B10054  36.905  28.919   7.650
 3831POPC   NC310055  39.215  40.055   9.450
 3831POPC   PO410056  39.229  39.978   9.150
 3831POPC   GL110057  39.181  39.990   8.850
 3831POPC   GL210058  39.269  40.095   8.850
 3831POPC   C1A10059  39.188  39.962   8.550
 3831POPC   D2A10060  39.211  39.996   8.250
 3831POPC   C3A10061  39.248  40.051   7.950
 3831POPC   C4A10062  39.205  39.988   7.650
 3831POPC   C1B10063  39.266  40.220   8.550
 3831POPC   C2B10064  39.207  40.277   8.250
 3831POPC   C3B10065  39.285  40.297   7.950
 3831POPC   C4B10066  39.266  40.238   7.650
 3832POPC   NC310067   7.456  40.740   9.450
 3832POPC   PO410068   7.432  40.791   9.150
 3832POPC   GL110069   7.424  40.808   8.850
 3832POPC   GL210070   7.341  40.749   8.850
 3832POPC   C1A10071   7.427  40.736   8.550
 3832POPC   D2A10072   7.466  40.807   8.250
 3832POPC   C3A10073   7.433  40.740   7.950
 3832POPC   C4A10074   7.390  40.756   7.650
 3832POPC   C1B10075   7.168  40.682   8.550
 3832POPC   C2B10076   7.212  40.610   8.250
 3832POPC   C3B10077   7.183  40.694   7.950
 3832POPC   C4B10078   7.181  40.621   7.650
 3833POPC   NC310079  33.827  26.792   9.450
 3833POPC   PO410080  33.799  26.817   9.150
 3833POPC   GL110081  33.844  26.836   8.850
 3833POPC   GL210082  33.890  26.729   8.850
 3833POPC   C1A10083  33.752  26.859   8.550
 3833POPC   D2A10084  33.807  26.793   8.250
 3833POPC   C3A10085  33.775  26.831   7.950
 3833POPC   C4A10086  33.823  26.859   7.650
 3833POPC   C1B10087  33.905  26.565   8.550
 3833POPC   C2B10088  33.882  26.586   8.250
 3833POPC   C3B10089  33.916  26.554   7.950
 3833POPC   C4B10090  33.978  26.611   7.650
 3834POPC   NC310091  28.358  18.236   9.450
 3834POPC   PO410092  28.376  18.288   9.150
 3834POPC   GL110093  28.332  18.241   8.850
 3834POPC   GL210094  28.458  18.312   8.850
 3834POPC   C1A10095  28.358  18.258   8.550
 3834POPC   D2A10096  28.393  18.238   8.250
 3834POPC   C3A10097  28.369  18.329   7.950
 3834POPC   C4A10098  28.386  18.330   7.650
 3834POPC   C1B10099  28.661  18.211   8.550
 3834POPC   C2B10100  28.612  18.246   8.250
 3834POPC   C3B10101  28.629  18.245   7.950
 3834POPC   C4B10102  28.594  18.276   7.650
 3835POPC   NC310103  17.534  44.669   9.450
 3835POPC   PO410104  17.551  44.670   9.150
 3835POPC   GL110105  17.486  44.680   8.850
 3835POPC   GL210106  17.443  44.593   8.850
 3835POPC   C1A10107  17.505  44.622   8.550
 3835POPC   D2A10108  17.522  44.685   8.250
 3835POPC   C3A10109  17.461  44.669   7.950
 3835POPC   C4A10110  17.545  44.705   7.650
 3835POPC   C1B10111  17.397  44.409   8.550
 3835POPC   C2B10112  17.434  44.473   8.250
 3835POPC   C3B10113  17.403  44.407   7.950
 3835POPC   C4B10114  17.461  44.460   7.650
 3836POPC   NC310115  12.116  19.806   9.450
 3836POPC   PO410116  12.038  19.831   9.150
 3836POPC   GL110117  12.044  19.807   8.850
 3836POPC   GL210118  12.110  19.778   8.850
 3836POPC   C1A10119  12.047  19.808   8.550
 3836POPC   D2A10120  12.040  19.875   8.250
 3836POPC   C3A10121  12.080  19.840   7.950
 3836POPC   C4A10122  12.059  19.814   7.650
 3836POPC   C1B10123  12.209  19.656   8.550
 3836POPC   C2B10124  12.236  19.653   8.250
 3836POPC   C3B10125  12.219  19.648   7.950
 3836POPC   C4B10126  12.271  19.623   7.650
 3837POPC   NC310127  36.128   5.109   9.450
 3837POPC   PO410128  36.105   5.075   9.150
 3837POPC   GL110129  36.121   5.115   8.850
 3837POPC   GL210130  36.099   5.194   8.850
 3837POPC   C1A10131  36.128   5.047   8.550
 3837POPC   D2A10132  36.150   5.139   8.250
 3837POPC   C3A10133  36.159   5.059   7.950
 3837POPC   C4A10134  36.138   5.106   7.650
 3837POPC   C1B10135  36.031   5.382   8.550
 3837POPC   C2B10136  36.041   5.354   8.250
 3837POPC   C3B10137  36.068   5.318   7.950
 3837POPC   C4B10138  36.102   5.332   7.650
 3838POPC   NC310139  39.256  43.846   9.450
 3838POPC   PO410140  39.220  43.932   9.150
 3838POPC   GL110141  39.218  43.920   8.850
 3838POPC   GL210142  39.212  43.799   8.850
 3838POPC   C1A10143  39.214  43.904   8.550
 3838POPC   D2A10144  39.204  43.900   8.250
 3838POPC   C3A10145  39.187  43.893   7.950
 3838POPC   C4A10146  39.241  43.860   7.650
 3838POPC   C1B10147  39.158  43.600   8.550
 3838POPC   C2B10148  39.180  43.639   8.250
 3838POPC   C3B10149  39.155  43.637   7.950
 3838POPC   C4B10150  39.165  43.688   7.650
 3839POPC   NC310151  22.123  38.430   9.450
 3839POPC   PO410152  22.153  38.428   9.150
 3839POPC   GL110153  22.191  38.410   8.850
 3839POPC   GL210154  22.080  38.462   8.850
 3839POPC   C1A10155  22.159  38.447   8.550
 3839POPC   D2A10156  22.145  38.433   8.250
 3839POPC   C3A10157  22.131  38.406   7.950
 3839POPC   C4A10158  22.197  38.492   7.650
 3839POPC   C1B10159  21.887  38.495   8.550
 3839POPC   C2B10160  21.935  38.541   8.250
 3839POPC   C3B10161  21.958  38.500   7.950
 3839POPC   C4B10162  21.930  38.515   7.650
 3840POPC   NC310163   4.281  16.734   9.450
 3840POPC   PO410164   4.269  16.754   9.150
 3840POPC   GL110165   4.270  16.684   8.850
 3840POPC   GL210166   4.295  16.849   8.850
 3840POPC   C1A10167   4.285  16.748   8.550
 3840POPC   D2A10168   4.301  16.767   8.250
 3840POPC   C3A10169   4.309  16.719   7.950
 3840POPC   C4A10170   4.298  16.761   7.650
 3840POPC   C1B10171   4.375  16.988   8.550
 3840POPC   C2B10172   4.373  17.019   8.250
 3840POPC   C3B10173   4.334  16.982   7.950
 3840POPC   C4B10174   4.343  16.994   7.650
 3841POPC   NC310175   8.225   2.720   9.450
 3841POPC   PO410176   8.190   2.777   9.150
 3841POPC   GL110177   8.158   2.727   8.850
 3841POPC   GL210178   8.238   2.822   8.850
 3841POPC   C1A10179   8.244   2.801   8.550
 3841POPC   D2A10180   8.214   2.785   8.250
 3841POPC   C3A10181   8.157   2.774   7.950
 3841POPC   C4A10182   8.177   2.756   7.650
 3841POPC   C1B10183   8.356   2.970   8.550
 3841POPC   C2B10184   8.355   2.977   8.250
 3841POPC   C3B10185   8.356   2.912   7.950
 3841POPC   C4B10186   8.350   2.937   7.650
 3842POPC   NC310187  22.901   2.730   9.450
 3842POPC   PO410188  22.977   2.791   9.150
 3842POPC   GL110189  22.946   2.774   8.850
 3842POPC   GL210190  22.897   2.835   8.850
 3842POPC   C1A10191  22.889   2.771   8.550
 3842POPC   D2A10192  22.960   2.793   8.250
 3842POPC   C3A10193  22.911   2.777   7.950
 3842POPC   C4A10194  22.955   2.781   7.650
 3842POPC   C1B10195  22.857   3.023   8.550
 3842POPC   C2B10196  22.800   2.933   8.250
 3842POPC   C3B10197  22.846   3.031   7.950
 3842POPC   C4B10198  22.823   3.002   7.650
 3843POPC   NC310199  34.621  42.369   9.450
 3843POPC   PO410200  34.601  42.354   9.150
 3843POPC   GL110201  34.602  42.350   8.850
 3843POPC   GL210202  34.604  42.493   8.850
 3843POPC   C1A10203  34.561  42.316   8.550
 3843POPC   D2A10204  34.543  42.363   8.250
 3843POPC   C3A10205  34.565  42.375   7.950
 3843POPC   C4A10206  34.553  42.310   7.650
 3843POPC   C1B10207  34.652  42.557   8.550
 3843POPC   C2B10208  34.680  42.553   8.250
 3843POPC   C3B10209  34.623  42.560   7.950
 3843POPC   C4B10210  34.647  42.605   7.650
 3844POPC   NC310211   1.964  35.331   9.450
 3844POPC   PO410212   1.961  35.365   9.150
 3844POPC   GL110213   2.016  35.354   8.850
 3844POPC   GL210214   2.013  35.432   8.850
 3844POPC   C1A10215   1.975  35.375   8.550
 3844POPC   D2A10216   1.963  35.327   8.250
 3844POPC   C3A10217   1.951  35.381   7.950
 3844POPC   C4A10218   1.982  35.329   7.650
 3844POPC   C1B10219   2.136  35.600   8.550
 3844POPC   C2B10220   2.124  35.544   8.250
 3844POPC   C3B10221   2.069  35.602   7.950
 3844POPC   C4B10222   2.130  35.574   7.650
 3845POPC   NC310223  31.483  27.595   9.450
 3845POPC   PO410224  31.427  27.558   9.150
 3845POPC   GL110225  31.467  27.545   8.850
 3845POPC   GL210226  31.588  27.690   8.850
 3845POPC   C1A10227  31.515  27.566   8.550
 3845POPC   D2A10228  31.505  27.585   8.250
 3845POPC   C3A10229  31.466  27.609   7.950
 3845POPC   C4A10230  31.500  27.621   7.650
 3845POPC   C1B10231  31.646  27.776   8.550
 3845POPC   C2B10232  31.638  27.761   8.250
 3845POPC   C3B10233  31.606  27.789   7.950
 3845POPC   C4B10234  31.645  27.771   7.650
 3846POPC   NC310235  37.656  13.643   9.450
 3846POPC   PO410236  37.721  13.651   9.150
 3846POPC   GL110237  37.726  13.655   8.850
 3846POPC   GL210238  37.573  13.667   8.850
 3846POPC   C1A10239  37.712  13.591   8.550
 3846POPC   D2A10240  37.639  13.608   8.250
 3846POPC   C3A10241  37.717  13.604   7.950
 3846POPC   C4A10242  37.690  13.605   7.650
 3846POPC   C1B10243  37.466  13.776   8.550
 3846POPC   C2B10244  37.519  13.724   8.250
 3846POPC   C3B10245  37.505  13.796   7.950
 3846POPC   C4B10246  37.487  13.798   7.650
 3847POPC   NC310247   5.090  31.516   9.450
 3847POPC   PO410248   5.071  31.486   9.150
 3847POPC   GL110249   5.070  31.466   8.850
 3847POPC   GL210250   5.072  31.345   8.850
 3847POPC   C1A10251   5.076  31.506   8.550
 3847POPC   D2A10252   5.047  31.452   8.250
 3847POPC   C3A10253   5.143  31.438   7.950
 3847POPC   C4A10254   5.133  31.428   7.650
 3847POPC   C1B10255   5.118  31.236   8.550
 3847POPC   C2B10256   5.075  31.233   8.250
 3847POPC   C3B10257   5.154  31.182   7.950
 3847POPC   C4B10258   5.120  31.269   7.650
 3848POPC   NC310259  36.874  42.317   9.450
 3848POPC   PO410260  36.885  42.311   9.150
 3848POPC   GL110261  36.917  42.292   8.850
 3848POPC   GL210262  36.791  42.322   8.850
 3848POPC   C1A10263  36.878  42.347   8.550
 3848POPC   D2A10264  36.886  42.349   8.250
 3848POPC   C3A10265  36.860  42.320   7.950
 3848POPC   C4A10266  36.859  42.350   7.650
 3848POPC   C1B10267  36.698  42.276   8.550
 3848POPC   C2B10268  36.679  42.288   8.250
 3848POPC   C3B10269  36.663  42.237   7.950
 3848POPC   C4B10270  36.683  42.287   7.650
 3849POPC   NC310271  38.458  41.600   9.450
 3849POPC   PO410272  38.406  41.579   9.150
 3849POPC   GL110273  38.425  41.598   8.850
 3849POPC   GL210274  38.398  41.611   8.850
 3849POPC   C1A10275  38.453  41.603   8.550
 3849POPC   D2A10276  38.417  41.528   8.250
 3849POPC   C3A10277  38.445  41.591   7.950
 3849POPC   C4A10278  38.424  41.554   7.650
 3849POPC   C1B10279  38.245  41.653   8.550
 3849POPC   C2B10280  38.265  41.658   8.250
 3849POPC   C3B10281  38.291  41.714   7.950
 3849POPC   C4B10282  38.261  41.741   7.650
 3850POPC   NC310283  19.054  34.619   9.450
 3850POPC   PO410284  19.109  34.615   9.150
 3850POPC   GL110285  19.030  34.605   8.850
 3850POPC   GL210286  19.173  34.615   8.850
 3850POPC   C1A10287  19.023  34.528   8.550
 3850POPC   D2A10288  19.098  34.537   8.250
 3850POPC   C3A10289  19.027  34.568   7.950
 3850POPC   C4A10290  19.078  34.552   7.650
 3850POPC   C1B10291  19.257  34.731   8.550
 3850POPC   C2B10292  19.277  34.672   8.250
 3850POPC   C3B10293  19.322  34.682   7.950
 3850POPC   C4B10294  19.269  34.690   7.650
 3851POPC   NC310295  31.477  13.578   9.450
 3851POPC   PO410296  31.447  13.661   9.150
 3851POPC   GL110297  31.449  13.663   8.850
 3851POPC   GL210298  31.432  13.784   8.850
 3851POPC   C1A10299  31.451  13.673   8.550
 3851POPC   D2A10300  31.468  13.654   8.250
 3851POPC   C3A10301  31.431  13.580   7.950
 3851POPC   C4A10302  31.437  13.590   7.650
 3851POPC   C1B10303  31.498  13.907   8.550
 3851POPC   C2B10304  31.500  13.834   8.250
 3851POPC   C3B10305  31.533  13.842   7.950
 3851POPC   C4B10306  31.496  13.842   7.650
 3852POPC   NC310307  13.584   9.759   9.450
 3852POPC   PO410308  13.673   9.727   9.150
 3852POPC   GL110309  13.591   9.762   8.850
 3852POPC   GL210310  13.519   9.738   8.850
 3852POPC   C1A10311  13.651   9.781   8.550
 3852POPC   D2A10312  13.675   9.743   8.250
 3852POPC   C3A10313  13.660   9.727   7.950
 3852POPC   C4A10314  13.639   9.780   7.650
 3852POPC   C1B10315  13.387   9.588   8.550
 3852POPC   C2B10316  13.384   9.669   8.250
 3852POPC   C3B10317  13.384   9.658   7.950
 3852POPC   C4B10318  13.433   9.656   7.650
 3853POPC   NC310319   0.424  29.110   9.450
 3853POPC   PO410320   0.426  29.112   9.150
 3853POPC   GL110321   0.467  29.190   8.850
 3853POPC   GL210322   0.280  29.089   8.850
 3853POPC   C1A10323   0.440  29.112   8.550
 3853POPC   D2A10324   0.438  29.192   8.250
 3853POPC   C3A10325   0.419  29.105   7.950
 3853POPC   C4A10326   0.462  29.128   7.650
 3853POPC   C1B10327   0.164  29.054   8.550
 3853POPC   C2B10328   0.240  29.092   8.250
 3853POPC   C3B10329   0.165  29.083   7.950
 3853POPC   C4B10330   0.201  29.021   7.650
 3854POPC   NC310331  33.056  25.220   9.450
 3854POPC   PO410332  33.042  25.291   9.150
 3854POPC   GL110333  33.067  25.313   8.850
 3854POPC   GL210334  33.149  25.280   8.850
 3854POPC   C1A10335  33.059  25.307   8.550
 3854POPC   D2A10336  33.009  25.221   8.250
 3854POPC   C3A10337  33.045  25.228   7.950
 3854POPC   C4A10338  32.982  25.277   7.650
 3854POPC   C1B10339  33.238  25.375   8.550
 3854POPC   C2B10340  33.224  25.334   8.250
 3854POPC   C3B10341  33.293  25.317   7.950
 3854POPC   C4B10342  33.258  25.294   7.650
 3855POPC   NC310343  10.540  41.569   9.450
 3855POPC   PO410344  10.517  41.577   9.150
 3855POPC   GL110345  10.551  41.515   8.850
 3855POPC   GL210346  10.625  41.511   8.850
 3855POPC   C1A10347  10.487  41.510   8.550
 3855POPC   D2A10348  10.564  41.586   8.250
 3855POPC   C3A10349  10.540  41.514   7.950
 3855POPC   C4A10350  10.494  41.543   7.650
 3855POPC   C1B10351  10.678  41.441   8.550
 3855POPC   C2B10352  10.676  41.411   8.250
 3855POPC   C3B10353  10.712  41.372   7.950
 3855POPC   C4B10354  10.716  41.425   7.650
 3856POPC   NC310355  27.580  20.586   9.450
 3856POPC   PO410356  27.588  20.611   9.150
 3856POPC   GL110357  27.548  20.570   8.850
 3856POPC   GL210358  27.618  20.775   8.850
 3856POPC   C1A10359  27.548  20.652   8.550
 3856POPC   D2A10360  27.601  20.560   8.250
 3856POPC   C3A10361  27.580  20.581   7.950
 3856POPC   C4A10362  27.641  20.606   7.650
 3856POPC   C1B10363  27.618  20.890   8.550
 3856POPC   C2B10364  27.608  20.888   8.250
 3856POPC   C3B10365  27.684  20.892   7.950
 3856POPC   C4B10366  27.672  20.830   7.650
 3857POPC   NC310367  20.638  36.933   9.450
 3857POPC   PO410368  20.568  36.894   9.150
 3857POPC   GL110369  20.654  36.933   8.850
 3857POPC   GL210370  20.536  36.895   8.850
 3857POPC   C1A10371  20.636  36.862   8.550
 3857POPC   D2A10372  20.608  36.885   8.250
 3857POPC   C3A10373  20.645  36.911   7.950
 3857POPC   C4A10374  20.650  36.921   7.650
 3857POPC   C1B10375  20.358  36.801   8.550
 3857POPC   C2B10376  20.323  36.817   8.250
 3857POPC   C3B10377  20.369  36.833   7.950
 3857POPC   C4B10378  20.380  36.850   7.650
 3858POPC   NC310379  16.707  42.377   9.450
 3858POPC   PO410380  16.713  42.352   9.150
 3858POPC   GL110381  16.729  42.299   8.850
 3858POPC   GL210382  16.603  42.233   8.850
 3858POPC   C1A10383  16.733  42.379   8.550
 3858POPC   D2A10384  16.693  42.334   8.250
 3858POPC   C3A10385  16.694  42.303   7.950
 3858POPC   C4A10386  16.704  42.295   7.650
 3858POPC   C1B10387  16.495  42.218   8.550
 3858POPC   C2B10388  16.493  42.201   8.250
 3858POPC   C3B10389  16.504  42.146   7.950
 3858POPC   C4B10390  16.555  42.135   7.650
 3859POPC   NC310391  40.006   5.830   9.450
 3859POPC   PO410392  40.019   5.861   9.150
 3859POPC   GL110393  40.022   5.855   8.850
 3859POPC   GL210394  39.880   5.922   8.850
 3859POPC   C1A10395  39.997   5.820   8.550
 3859POPC   D2A10396  40.045   5.884   8.250
 3859POPC   C3A10397  40.025   5.831   7.950
 3859POPC   C4A10398  40.003   5.879   7.650
 3859POPC   C1B10399  39.783   5.950   8.550
 3859POPC   C2B10400  39.821   5.966   8.250
 3859POPC   C3B10401  39.744   5.963   7.950
 3859POPC   C4B10402  39.735   5.962   7.650
 3860POPC   NC310403  29.113  28.345   9.450
 3860POPC   PO410404  29.110  28.331   9.150
 3860POPC   GL110405  29.109  28.348   8.850
 3860POPC   GL210406  29.274  28.385   8.850
 3860POPC   C1A10407  29.103  28.327   8.550
 3860POPC   D2A10408  29.117  28.331   8.250
 3860POPC   C3A10409  29.154  28.370   7.950
 3860POPC   C4A10410  29.111  28.372   7.650
 3860POPC   C1B10411  29.365  28.386   8.550
 3860POPC   C2B10412  29.436  28.374   8.250
 3860POPC   C3B10413  29.377  28.401   7.950
 3860POPC   C4B10414  29.348  28.399   7.650
 3861POPC   NC310415  34.570  22.955   9.450
 3861POPC   PO410416  34.623  22.916   9.150
 3861POPC   GL110417  34.532  22.953   8.850
 3861POPC   GL210418  34.628  22.867   8.850
 3861POPC   C1A10419  34.601  22.926   8.550
 3861POPC   D2A10420  34.598  22.898   8.250
 3861POPC   C3A10421  34.600  22.941   7.950
 3861POPC   C4A10422  34.542  22.927   7.650
 3861POPC   C1B10423  34.783  22.742   8.550
 3861POPC   C2B10424  34.724  22.750   8.250
 3861POPC   C3B10425  34.772  22.702   7.950
 3861POPC   C4B10426  34.724  22.762   7.650
 3862POPC   NC310427  11.262  14.374   9.450
 3862POPC   PO410428  11.341  14.439   9.150
 3862POPC   GL110429  11.273  14.431   8.850
 3862POPC   GL210430  11.161  14.286   8.850
 3862POPC   C1A10431  11.312  14.439   8.550
 3862POPC   D2A10432  11.325  14.356   8.250
 3862POPC   C3A10433  11.289  14.407   7.950
 3862POPC   C4A10434  11.295  14.371   7.650
 3862POPC   C1B10435  11.064  14.243   8.550
 3862POPC   C2B10436  11.091  14.205   8.250
 3862POPC   C3B10437  11.092  14.227   7.950
 3862POPC   C4B10438  11.118  14.296   7.650
 3863POPC   NC310439  10.573   9.739   9.450
 3863POPC   PO410440  10.502   9.797   9.150
 3863POPC   GL110441  10.531   9.723   8.850
 3863POPC   GL210442  10.454   9.837   8.850
 3863POPC   C1A10443  10.487   9.718   8.550
 3863POPC   D2A10444  10.543   9.793   8.250
 3863POPC   C3A10445  10.520   9.713   7.950
 3863POPC   C4A10446  10.530   9.726   7.650
 3863POPC   C1B10447  10.400  10.009   8.550
 3863POPC   C2B10448  10.413   9.976   8.250
 3863POPC   C3B10449  10.398   9.963   7.950
 3863POPC   C4B10450  10.446   9.981   7.650
 3864POPC   NC310451   1.241  31.430   9.450
 3864POPC   PO410452   1.228  31.431   9.150
 3864POPC   GL110453   1.221  31.485   8.850
 3864POPC   GL210454   1.113  31.538   8.850
 3864POPC   C1A10455   1.226  31.445   8.550
 3864POPC   D2A10456   1.188  31.511   8.250
 3864POPC   C3A10457   1.253  31.446   7.950
 3864POPC   C4A10458   1.238  31.504   7.650
 3864POPC   C1B10459   1.045  31.585   8.550
 3864POPC   C2B10460   1.044  31.678   8.250
 3864POPC   C3B10461   0.974  31.592   7.950
 3864POPC   C4B10462   1.027  31.668   7.650
 3865POPC   NC310463  36.950  15.979   9.450
 3865POPC   PO410464  36.854  15.910   9.150
 3865POPC   GL110465  36.918  15.950   8.850
 3865POPC   GL210466  36.953  16.042   8.850
 3865POPC   C1A10467  36.927  15.990   8.550
 3865POPC   D2A10468  36.907  15.914   8.250
 3865POPC   C3A10469  36.941  16.000   7.950
 3865POPC   C4A10470  36.904  15.926   7.650
 3865POPC   C1B10471  37.137  16.086   8.550
 3865POPC   C2B10472  37.112  16.155   8.250
 3865POPC   C3B10473  37.064  16.153   7.950
 3865POPC   C4B10474  37.099  16.114   7.650
 3866POPC   NC310475  28.396   0.488   9.450
 3866POPC   PO410476  28.341   0.407   9.150
 3866POPC   GL110477  28.367   0.457   8.850
 3866POPC   GL210478  28.266   0.393   8.850
 3866POPC   C1A10479  28.359   0.464   8.550
 3866POPC   D2A10480  28.335   0.467   8.250
 3866POPC   C3A10481  28.380   0.419   7.950
 3866POPC   C4A10482  28.357   0.448   7.650
 3866POPC   C1B10483  28.138   0.464   8.550
 3866POPC   C2B10484  28.118   0.428   8.250
 3866POPC   C3B10485  28.140   0.422   7.950
 3866POPC   C4B10486  28.110   0.386   7.650
 3867POPC   NC310487   8.190  13.584   9.450
 3867POPC   PO410488   8.242  13.607   9.150
 3867POPC   GL110489   8.149  13.611   8.850
 3867POPC   GL210490   8.257  13.517   8.850
 3867POPC   C1A10491   8.182  13.662   8.550
 3867POPC   D2A10492   8.206  13.652   8.250
 3867POPC   C3A10493   8.215  13.675   7.950
 3867POPC   C4A10494   8.203  13.603   7.650
 3867POPC   C1B10495   8.327  13.449   8.550
 3867POPC   C2B10496   8.266  13.389   8.250
 3867POPC   C3B10497   8.340  13.401   7.950
 3867POPC   C4B10498   8.340  13.387   7.650
 3868POPC   NC310499  41.565  16.749   9.450
 3868POPC   PO410500  41.556  16.682   9.150
 3868POPC   GL110501  41.556  16.699   8.850
 3868POPC   GL210502  41.460  16.783   8.850
 3868POPC   C1A10503  41.606  16.694   8.550
 3868POPC   D2A10504  41.512  16.729   8.250
 3868POPC   C3A10505  41.549  16.726   7.950
 3868POPC   C4A10506  41.590  16.692   7.650
 3868POPC   C1B10507  41.410  16.906   8.550
 3868POPC   C2B10508  41.450  16.965   8.250
 3868POPC   C3B10509  41.391  16.903   7.950
 3868POPC   C4B10510  41.453  16.945   7.650
 3869POPC   NC310511  17.548  41.591   9.450
 3869POPC   PO410512  17.500  41.584   9.150
 3869POPC   GL110513  17.490  41.581   8.850
 3869POPC   GL210514  17.420  41.400   8.850
 3869POPC   C1A10515  17.481  41.596   8.550
 3869POPC   D2A10516  17.546  41.590   8.250
 3869POPC   C3A10517  17.517  41.597   7.950
 3869POPC   C4A10518  17.472  41.545   7.650
 3869POPC   C1B10519  17.366  41.287   8.550
 3869POPC   C2B10520  17.405  41.347   8.250
 3869POPC   C3B10521  17.381  41.332   7.950
 3869POPC   C4B10522  17.447  41.339   7.650
 3870POPC   NC310523   1.261  13.615   9.450
 3870POPC   PO410524   1.235  13.588   9.150
 3870POPC   GL110525   1.181  13.662   8.850
 3870POPC   GL210526   1.367  13.601   8.850
 3870POPC   C1A10527   1.250  13.632   8.550
 3870POPC   D2A10528   1.260  13.632   8.250
 3870POPC   C3A10529   1.262  13.667   7.950
 3870POPC   C4A10530   1.250  13.613   7.650
 3870POPC   C1B10531   1.495  13.509   8.550
 3870POPC   C2B10532   1.463  13.597   8.250
 3870POPC   C3B10533   1.421  13.585   7.950
 3870POPC   C4B10534   1.500  13.573   7.650
 3871POPC   NC310535  34.536  43.858   9.450
 3871POPC   PO410536  34.562  43.897   9.150
 3871POPC   GL110537  34.591  43.901   8.850
 3871POPC   GL210538  34.580  43.984   8.850
 3871POPC   C1A10539  34.531  43.927   8.550
 3871POPC   D2A10540  34.553  43.849   8.250
 3871POPC   C3A10541  34.584  43.849   7.950
 3871POPC   C4A10542  34.552  43.900   7.650
 3871POPC   C1B10543  34.647  44.121   8.550
 3871POPC   C2B10544  34.601  44.169   8.250
 3871POPC   C3B10545  34.611  44.164   7.950
 3871POPC   C4B10546  34.679  44.141   7.650
 3872POPC   NC310547   1.226   0.441   9.450
 3872POPC   PO410548   1.233   0.464   9.150
 3872POPC   GL110549   1.168   0.394   8.850
 3872POPC   GL210550   1.271   0.560   8.850
 3872POPC   C1A10551   1.198   0.430   8.550
 3872POPC   D2A10552   1.211   0.414   8.250
 3872POPC   C3A10553   1.246   0.418   7.950
 3872POPC   C4A10554   1.201   0.393   7.650
 3872POPC   C1B10555   1.365   0.624   8.550
 3872POPC   C2B10556   1.328   0.651   8.250
 3872POPC   C3B10557   1.365   0.654   7.950
 3872POPC   C4B10558   1.383   0.612   7.650
 3873POPC   NC310559  19.092  36.172   9.450
 3873POPC   PO410560  19.059  36.103   9.150
 3873POPC   GL110561  19.054  36.099   8.850
 3873POPC   GL210562  19.220  36.114   8.850
 3873POPC   C1A10563  19.091  36.141   8.550
 3873POPC   D2A10564  19.071  36.083   8.250
 3873POPC   C3A10565  19.022  36.097   7.950
 3873POPC   C4A10566  19.045  36.171   7.650
 3873POPC   C1B10567  19.348  36.049   8.550
 3873POPC   C2B10568  19.274  36.056   8.250
 3873POPC   C3B10569  19.267  36.050   7.950
 3873POPC   C4B10570  19.305  36.081   7.650
 3874POPC   NC310571  38.445   2.754   9.450
 3874POPC   PO410572  38.424   2.806   9.150
 3874POPC   GL110573  38.452   2.803   8.850
 3874POPC   GL210574  38.608   2.723   8.850
 3874POPC   C1A10575  38.448   2.791   8.550
 3874POPC   D2A10576  38.478   2.788   8.250
 3874POPC   C3A10577  38.414   2.781   7.950
 3874POPC   C4A10578  38.490   2.804   7.650
 3874POPC   C1B10579  38.649   2.635   8.550
 3874POPC   C2B10580  38.683   2.619   8.250
 3874POPC   C3B10581  38.680   2.642   7.950
 3874POPC   C4B10582  38.663   2.641   7.650
 3875POPC   NC310583   5.049  19.065   9.450
 3875POPC   PO410584   5.085  19.077   9.150
 3875POPC   GL110585   5.125  19.017   8.850
 3875POPC   GL210586   5.012  19.005   8.850
 3875POPC   C1A10587   5.092  19.018   8.550
 3875POPC   D2A10588   5.101  19.021   8.250
 3875POPC   C3A10589   5.123  19.073   7.950
 3875POPC   C4A10590   5.106  19.060   7.650
 3875POPC   C1B10591   4.811  18.957   8.550
 3875POPC   C2B10592   4.847  18.976   8.250
 3875POPC   C3B10593   4.890  18.953   7.950
 3875POPC   C4B10594   4.854  19.015   7.650
 3876POPC   NC310595  25.306  29.165   9.450
 3876POPC   PO410596  25.233  29.159   9.150
 3876POPC   GL110597  25.272  29.177   8.850
 3876POPC   GL210598  25.253  29.241   8.850
 3876POPC   C1A10599  25.244  29.166   8.550
 3876POPC   D2A10600  25.225  29.102   8.250
 3876POPC   C3A10601  25.303  29.147   7.950
 3876POPC   C4A10602  25.289  29.163   7.650
 3876POPC   C1B10603  25.253  29.364   8.550
 3876POPC   C2B10604  25.192  29.426   8.250
 3876POPC   C3B10605  25.232  29.438   7.950
 3876POPC   C4B10606  25.203  29.401   7.650
 3877POPC   NC310607  35.365  25.264   9.450
 3877POPC   PO410608  35.338  25.309   9.150
 3877POPC   GL110609  35.355  25.268   8.850
 3877POPC   GL210610  35.408  25.298   8.850
 3877POPC   C1A10611  35.367  25.222   8.550
 3877POPC   D2A10612  35.303  25.291   8.250
 3877POPC   C3A10613  35.329  25.230   7.950
 3877POPC   C4A10614  35.307  25.297   7.650
 3877POPC   C1B10615  35.531  25.382   8.550
 3877POPC   C2B10616  35.518  25.435   8.250
 3877POPC   C3B10617  35.555  25.434   7.950
 3877POPC   C4B10618  35.585  25.373   7.650
 3878POPC   NC310619  20.569   5.089   9.450
 3878POPC   PO410620  20.567   5.096   9.150
 3878POPC   GL110621  20.594   5.078   8.850
 3878POPC   GL210622  20.488   5.047   8.850
 3878POPC   C1A10623  20.571   5.132   8.550
 3878POPC   D2A10624  20.581   5.108   8.250
 3878POPC   C3A10625  20.647   5.058   7.950
 3878POPC   C4A10626  20.596   5.044   7.650
 3878POPC   C1B10627  20.374   5.135   8.550
 3878POPC   C2B10628  20.404   5.054   8.250
 3878POPC   C3B10629  20.385   5.087   7.950
 3878POPC   C4B10630  20.343   5.106   7.650
 3879POPC   NC310631  21.375  31.450   9.450
 3879POPC   PO410632  21.416  31.475   9.150
 3879POPC   GL110633  21.337  31.434   8.850
 3879POPC   GL210634  21.318  31.329   8.850
 3879POPC   C1A10635  21.338  31.436   8.550
 3879POPC   D2A10636  21.372  31.436   8.250
 3879POPC   C3A10637  21.383  31.475   7.950
 3879POPC   C4A10638  21.358  31.510   7.650
 3879POPC   C1B10639  21.279  31.202   8.550
 3879POPC   C2B10640  21.322  31.274   8.250
 3879POPC   C3B10641  21.296  31.262   7.950
 3879POPC   C4B10642  21.336  31.199   7.650
 3880POPC   NC310643  14.396  12.833   9.450
 3880POPC   PO410644  14.395  12.852   9.150
 3880POPC   GL110645  14.408  12.865   8.850
 3880POPC   GL210646  14.376  12.694   8.850
 3880POPC   C1A10647  14.417  12.861   8.550
 3880POPC   D2A10648  14.425  12.816   8.250
 3880POPC   C3A10649  14.430  12.828   7.950
 3880POPC   C4A10650  14.360  12.898   7.650
 3880POPC   C1B10651  14.443  12.611   8.550
 3880POPC   C2B10652  14.382  12.580   8.250
 3880POPC   C3B10653  14.451  12.628   7.950
 3880POPC   C4B10654  14.406  12.634   7.650
 3881POPC   NC310655  22.932  39.202   9.450
 3881POPC   PO410656  22.898  39.226   9.150
 3881POPC   GL110657  22.952  39.212   8.850
 3881POPC   GL210658  22.913  39.353   8.850
 3881POPC   C1A10659  22.894  39.181   8.550
 3881POPC   D2A10660  22.925  39.261   8.250
 3881POPC   C3A10661  22.941  39.236   7.950
 3881POPC   C4A10662  22.910  39.250   7.650
 3881POPC   C1B10663  22.982  39.471   8.550
 3881POPC   C2B10664  22.953  39.515   8.250
 3881POPC   C3B10665  22.933  39.522   7.950
 3881POPC   C4B10666  22.967  39.435   7.650
 3882POPC   NC310667  14.413  32.266   9.450
 3882POPC   PO410668  14.435  32.275   9.150
 3882POPC   GL110669  14.416  32.255   8.850
 3882POPC   GL210670  14.316  32.140   8.850
 3882POPC   C1A10671  14.389  32.291   8.550
 3882POPC   D2A10672  14.360  32.246   8.250
 3882POPC   C3A10673  14.426  32.209   7.950
 3882POPC   C4A10674  14.408  32.212   7.650
 3882POPC   C1B10675  14.182  32.091   8.550
 3882POPC   C2B10676  14.190  32.108   8.250
 3882POPC   C3B10677  14.142  32.088   7.950
 3882POPC   C4B10678  14.170  32.078   7.650
 3883POPC   NC310679  15.218  11.330   9.450
 3883POPC   PO410680  15.150  11.308   9.150
 3883POPC   GL110681  15.143  11.290   8.850
 3883POPC   GL210682  15.293  11.342   8.850
 3883POPC   C1A10683  15.210  11.305   8.550
 3883POPC   D2A10684  15.145  11.301   8.250
 3883POPC   C3A10685  15.219  11.313   7.950
 3883POPC   C4A10686  15.156  11.337   7.650
 3883POPC   C1B10687  15.380  11.330   8.550
 3883POPC   C2B10688  15.410  11.322   8.250
 3883POPC   C3B10689  15.426  11.414   7.950
 3883POPC   C4B10690  15.404  11.417   7.650
 3884POPC   NC310691   6.610  13.664   9.450
 3884POPC   PO410692   6.597  13.675   9.150
 3884POPC   GL110693   6.677  13.652   8.850
 3884POPC   GL210694   6.660  13.534   8.850
 3884POPC   C1A10695   6.626  13.624   8.550
 3884POPC   D2A10696   6.672  13.629   8.250
 3884POPC   C3A10697   6.625  13.625   7.950
 3884POPC   C4A10698   6.661  13.582   7.650
 3884POPC   C1B10699   6.663  13.387   8.550
 3884POPC   C2B10700   6.697  13.341   8.250
 3884POPC   C3B10701   6.612  13.381   7.950
 3884POPC   C4B10702   6.703  13.404   7.650
 3885POPC   NC310703  31.498  24.440   9.450
 3885POPC   PO410704  31.432  24.480   9.150
 3885POPC   GL110705  31.485  24.526   8.850
 3885POPC   GL210706  31.514  24.338   8.850
 3885POPC   C1A10707  31.477  24.444   8.550
 3885POPC   D2A10708  31.491  24.488   8.250
 3885POPC   C3A10709  31.513  24.442   7.950
 3885POPC   C4A10710  31.514  24.510   7.650
 3885POPC   C1B10711  31.423  24.216   8.550
 3885POPC   C2B10712  31.517  24.276   8.250
 3885POPC   C3B10713  31.516  24.262   7.950
 3885POPC   C4B10714  31.511  24.239   7.650
 3886POPC   NC310715  35.367  33.782   9.450
 3886POPC   PO410716  35.393  33.811   9.150
 3886POPC   GL110717  35.337  33.757   8.850
 3886POPC   GL210718  35.212  33.760   8.850
 3886POPC   C1A10719  35.384  33.837   8.550
 3886POPC   D2A10720  35.338  33.822   8.250
 3886POPC   C3A10721  35.349  33.841   7.950
 3886POPC   C4A10722  35.331  33.830   7.650
 3886POPC   C1B10723  35.086  33.702   8.550
 3886POPC   C2B10724  35.103  33.750   8.250
 3886POPC   C3B10725  35.152  33.679   7.950
 3886POPC   C4B10726  35.113  33.705   7.650
 3887POPC   NC310727  37.680   7.371   9.450
 3887POPC   PO410728  37.700   7.373   9.150
 3887POPC   GL110729  37.641   7.440   8.850
 3887POPC   GL210730  37.577   7.554   8.850
 3887POPC   C1A10731  37.662   7.387   8.550
 3887POPC   D2A10732  37.684   7.471   8.250
 3887POPC   C3A10733  37.661   7.466   7.950
 3887POPC   C4A10734  37.647   7.425   7.650
 3887POPC   C1B10735  37.561   7.658   8.550
 3887POPC   C2B10736  37.562   7.610   8.250
 3887POPC   C3B10737  37.541   7.611   7.950
 3887POPC   C4B10738  37.542   7.609   7.650
 3888POPC   NC310739  31.468  43.922   9.450
 3888POPC   PO410740  31.440  43.851   9.150
 3888POPC   GL110741  31.480  43.901   8.850
 3888POPC   GL210742  31.476  43.797   8.850
 3888POPC   C1A10743  31.447  43.921   8.550
 3888POPC   D2A10744  31.449  43.840   8.250
 3888POPC   C3A10745  31.486  43.921   7.950
 3888POPC   C4A10746  31.456  43.852   7.650
 3888POPC   C1B10747  31.521  43.606   8.550
 3888POPC   C2B10748  31.571  43.628   8.250
 3888POPC   C3B10749  31.518  43.642   7.950
 3888POPC   C4B10750  31.534  43.683   7.650
 3889POPC   NC310751   8.228  11.286   9.450
 3889POPC   PO410752   8.215  11.316   9.150
 3889POPC   GL110753   8.192  11.322   8.850
 3889POPC   GL210754   8.205  11.401   8.850
 3889POPC   C1A10755   8.149  11.313   8.550
 3889POPC   D2A10756   8.161  11.302   8.250
 3889POPC   C3A10757   8.159  11.289   7.950
 3889POPC   C4A10758   8.147  11.294   7.650
 3889POPC   C1B10759   8.225  11.520   8.550
 3889POPC   C2B10760   8.174  11.542   8.250
 3889POPC   C3B10761   8.251  11.531   7.950
 3889POPC   C4B10762   8.157  11.588   7.650
 3890POPC   NC310763  23.744   1.196   9.450
 3890POPC   PO410764  23.699   1.186   9.150
 3890POPC   GL110765  23.700   1.203   8.850
 3890POPC   GL210766  23.700   1.121   8.850
 3890POPC   C1A10767  23.754   1.255   8.550
 3890POPC   D2A10768  23.674   1.206   8.250
 3890POPC   C3A10769  23.716   1.175   7.950
 3890POPC   C4A10770  23.692   1.235   7.650
 3890POPC   C1B10771  23.743   0.915   8.550
 3890POPC   C2B10772  23.738   0.924   8.250
 3890POPC   C3B10773  23.699   0.971   7.950
 3890POPC   C4B10774  23.757   0.959   7.650
 3891POPC   NC310775  29.121  12.839   9.450
 3891POPC   PO410776  29.154  12.833   9.150
 3891POPC   GL110777  29.146  12.877   8.850
 3891POPC   GL210778  29.250  12.701   8.850
 3891POPC   C1A10779  29.176  12.828   8.550
 3891POPC   D2A10780  29.163  12.890   8.250
 3891POPC   C3A10781  29.110  12.836   7.950
 3891POPC   C4A10782  29.113  12.861   7.650
 3891POPC   C1B10783  29.295  12.604   8.550
 3891POPC   C2B10784  29.301  12.620   8.250
 3891POPC   C3B10785  29.314  12.671   7.950
 3891POPC   C4B10786  29.291  12.650   7.650
 3892POPC   NC310787  29.927  43.095   9.450
 3892POPC   PO410788  29.909  43.086   9.150
 3892POPC   GL110789  29.910  43.085   8.850
 3892POPC   GL210790  30.054  43.059   8.850
 3892POPC   C1A10791  29.951  43.103   8.550
 3892POPC   D2A10792  29.876  43.123   8.250
 3892POPC   C3A10793  29.942  43.112   7.950
 3892POPC   C4A10794  29.929  43.114   7.650
 3892POPC   C1B10795  30.183  42.991   8.550
 3892POPC   C2B10796  30.157  42.980   8.250
 3892POPC   C3B10797  30.179  42.962   7.950
 3892POPC   C4B10798  30.150  43.022   7.650
 3893POPC   NC310799  33.791  44.670   9.450
 3893POPC   PO410800  33.794  44.711   9.150
 3893POPC   GL110801  33.791  44.658   8.850
 3893POPC   GL210802  33.891  44.712   8.850
 3893POPC   C1A10803  33.801  44.616   8.550
 3893POPC   D2A10804  33.812  44.690   8.250
 3893POPC   C3A10805  33.817  44.618   7.950
 3893POPC   C4A10806  33.785  44.695   7.650
 3893POPC   C1B10807  33.996  44.839   8.550
 3893POPC   C2B10808  33.992  44.884   8.250
 3893POPC   C3B10809  33.931  44.842   7.950
 3893POPC   C4B10810  34.030  44.822   7.650
 3894POPC   NC310811  16.708  33.840   9.450
 3894POPC   PO410812  16.758  33.836   9.150
 3894POPC   GL110813  16.773  33.832   8.850
 3894POPC   GL210814  16.801  33.693   8.850
 3894POPC   C1A10815  16.685  33.820   8.550
 3894POPC   D2A10816  16.772  33.815   8.250
 3894POPC   C3A10817  16.780  33.788   7.950
 3894POPC   C4A10818  16.683  33.811   7.650
 3894POPC   C1B10819  16.910  33.682   8.550
 3894POPC   C2B10820  16.931  33.654   8.250
 3894POPC   C3B10821  16.983  33.671   7.950
 3894POPC   C4B10822  16.965  33.650   7.650
 3895POPC   NC310823   3.506  23.724   9.450
 3895POPC   PO410824   3.536  23.677   9.150
 3895POPC   GL110825   3.500  23.733   8.850
 3895POPC   GL210826   3.423  23.790   8.850
 3895POPC   C1A10827   3.526  23.724   8.550
 3895POPC   D2A10828   3.534  23.671   8.250
 3895POPC   C3A10829   3.577  23.757   7.950
 3895POPC   C4A10830   3.552  23.737   7.650
 3895POPC   C1B10831   3.345  23.904   8.550
 3895POPC   C2B10832   3.406  23.888   8.250
 3895POPC   C3B10833   3.380  23.929   7.950
 3895POPC   C4B10834   3.349  23.924   7.650
 3896POPC   NC310835  18.302   1.258   9.450
 3896POPC   PO410836  18.305   1.241   9.150
 3896POPC   GL110837  18.299   1.197   8.850
 3896POPC   GL210838  18.416   1.303   8.850
 3896POPC   C1A10839  18.286   1.262   8.550
 3896POPC   D2A10840  18.293   1.210   8.250
 3896POPC   C3A10841  18.252   1.234   7.950
 3896POPC   C4A10842  18.269   1.214   7.650
 3896POPC   C1B10843  18.511   1.333   8.550
 3896POPC   C2B10844  18.495   1.329   8.250
 3896POPC   C3B10845  18.451   1.318   7.950
 3896POPC   C4B10846  18.524   1.377   7.650
 3897POPC   NC310847  18.276   3.513   9.450
 3897POPC   PO410848  18.333   3.588   9.150
 3897POPC   GL110849  18.279   3.580   8.850
 3897POPC   GL210850  18.194   3.473   8.850
 3897POPC   C1A10851  18.319   3.497   8.550
 3897POPC   D2A10852  18.295   3.509   8.250
 3897POPC   C3A10853  18.244   3.508   7.950
 3897POPC   C4A10854  18.282   3.507   7.650
 3897POPC   C1B10855  18.046   3.434   8.550
 3897POPC   C2B10856  18.028   3.477   8.250
 3897POPC   C3B10857  18.074   3.434   7.950
 3897POPC   C4B10858  18.018   3.506   7.650
 3898POPC   NC310859  13.625   7.418   9.450
 3898POPC   PO410860  13.622   7.373   9.150
 3898POPC   GL110861  13.628   7.384   8.850
 3898POPC   GL210862  13.541   7.460   8.850
 3898POPC   C1A10863  13.635   7.375   8.550
 3898POPC   D2A10864  13.612   7.406   8.250
 3898POPC   C3A10865  13.661   7.441   7.950
 3898POPC   C4A10866  13.616   7.374   7.650
 3898POPC   C1B10867  13.422   7.540   8.550
 3898POPC   C2B10868  13.349   7.524   8.250
 3898POPC   C3B10869  13.438   7.518   7.950
 3898POPC   C4B10870  13.371   7.481   7.650
 3899POPC   NC310871  34.592  34.622   9.450
 3899POPC   PO410872  34.575  34.547   9.150
 3899POPC   GL110873  34.577  34.583   8.850
 3899POPC   GL210874  34.505  34.477   8.850
 3899POPC   C1A10875  34.575  34.614   8.550
 3899POPC   D2A10876  34.593  34.535   8.250
 3899POPC   C3A10877  34.542  34.527   7.950
 3899POPC   C4A10878  34.563  34.550   7.650
 3899POPC   C1B10879  34.488  34.326   8.550
 3899POPC   C2B10880  34.528  34.306   8.250
 3899POPC   C3B10881  34.477  34.298   7.950
 3899POPC   C4B10882  34.491  34.374   7.650
 3900POPC   NC310883  16.761  36.112   9.450
 3900POPC   PO410884  16.696  36.164   9.150
 3900POPC   GL110885  16.771  36.134   8.850
 3900POPC   GL210886  16.888  36.188   8.850
 3900POPC   C1A10887  16.728  36.161   8.550
 3900POPC   D2A10888  16.743  36.138   8.250
 3900POPC   C3A10889  16.739  36.145   7.950
 3900POPC   C4A10890  16.688  36.147   7.650
 3900POPC   C1B10891  17.009  36.222   8.550
 3900POPC   C2B10892  17.013  36.154   8.250
 3900POPC   C3B10893  16.958  36.234   7.950
 3900POPC   C4B10894  16.933  36.174   7.650
 3901POPC   NC310895  35.340  12.822   9.450
 3901POPC   PO410896  35.306  12.870   9.150
 3901POPC   GL110897  35.303  12.866   8.850
 3901POPC   GL210898  35.231  12.950   8.850
 3901POPC   C1A10899  35.319  12.816   8.550
 3901POPC   D2A10900  35.379  12.835   8.250
 3901POPC   C3A10901  35.386  12.867   7.950
 3901POPC   C4A10902  35.364  12.868   7.650
 3901POPC   C1B10903  35.144  12.986   8.550
 3901POPC   C2B10904  35.152  13.044   8.250
 3901POPC   C3B10905  35.204  13.065   7.950
 3901POPC   C4B10906  35.143  13.022   7.650
 3902POPC   NC310907  39.209  28.377   9.450
 3902POPC   PO410908  39.199  28.402   9.150
 3902POPC   GL110909  39.278  28.352   8.850
 3902POPC   GL210910  39.062  28.382   8.850
 3902POPC   C1A10911  39.193  28.412   8.550
 3902POPC   D2A10912  39.231  28.406   8.250
 3902POPC   C3A10913  39.237  28.376   7.950
 3902POPC   C4A10914  39.195  28.406   7.650
 3902POPC   C1B10915  39.008  28.440   8.550
 3902POPC   C2B10916  38.962  28.406   8.250
 3902POPC   C3B10917  39.023  28.441   7.950
 3902POPC   C4B10918  38.958  28.450   7.650
 3903POPC   NC310919   2.803  14.441   9.450
 3903POPC   PO410920   2.737  14.452   9.150
 3903POPC   GL110921   2.718  14.383   8.850
 3903POPC   GL210922   2.701  14.323   8.850
 3903POPC   C1A10923   2.801  14.406   8.550
 3903POPC   D2A10924   2.788  14.449   8.250
 3903POPC   C3A10925   2.815  14.368   7.950
 3903POPC   C4A10926   2.776  14.398   7.650
 3903POPC   C1B10927   2.631  14.219   8.550
 3903POPC   C2B10928   2.561  14.243   8.250
 3903POPC   C3B10929   2.608  14.259   7.950
 3903POPC   C4B10930   2.568  14.175   7.650
 3904POPC   NC310931  32.280  41.597   9.450
 3904POPC   PO410932  32.269  41.515   9.150
 3904POPC   GL110933  32.220  41.546   8.850
 3904POPC   GL210934  32.364  41.599   8.850
 3904POPC   C1A10935  32.264  41.561   8.550
 3904POPC   D2A10936  32.224  41.560   8.250
 3904POPC   C3A10937  32.286  41.556   7.950
 3904POPC   C4A10938  32.222  41.534   7.650
 3904POPC   C1B10939  32.444  41.667   8.550
 3904POPC   C2B10940  32.511  41.684   8.250
 3904POPC   C3B10941  32.476  41.674   7.950
 3904POPC   C4B10942  32.440  41.708   7.650
 3905POPC   NC310943  32.200  43.928   9.450
 3905POPC   PO410944  32.214  43.838   9.150
 3905POPC   GL110945  32.264  43.903   8.850
 3905POPC   GL210946  32.149  43.955   8.850
 3905POPC   C1A10947  32.290  43.908   8.550
 3905POPC   D2A10948  32.277  43.859   8.250
 3905POPC   C3A10949  32.277  43.881   7.950
 3905POPC   C4A10950  32.257  43.876   7.650
 3905POPC   C1B10951  32.137  44.123   8.550
 3905POPC   C2B10952  32.121  44.112   8.250
 3905POPC   C3B10953  32.087  44.123   7.950
 3905POPC   C4B10954  32.065  44.122   7.650
 3906POPC   NC310955  27.546  39.211   9.450
 3906POPC   PO410956  27.637  39.231   9.150
 3906POPC   GL110957  27.579  39.229   8.850
 3906POPC   GL210958  27.561  39.360   8.850
 3906POPC   C1A10959  27.543  39.217   8.550
 3906POPC   D2A10960  27.637  39.260   8.250
 3906POPC   C3A10961  27.621  39.250   7.950
 3906POPC   C4A10962  27.604  39.195   7.650
 3906POPC   C1B10963  27.603  39.498   8.550
 3906POPC   C2B10964  27.610  39.528   8.250
 3906POPC   C3B10965  27.611  39.461   7.950
 3906POPC   C4B10966  27.545  39.438   7.650
 3907POPC   NC310967  11.252  36.111   9.450
 3907POPC   PO410968  11.338  36.139   9.150
 3907POPC   GL110969  11.276  36.139   8.850
 3907POPC   GL210970  11.159  36.208   8.850
 3907POPC   C1A10971  11.344  36.139   8.550
 3907POPC   D2A10972  11.338  36.113   8.250
 3907POPC   C3A10973  11.291  36.105   7.950
 3907POPC   C4A10974  11.296  36.173   7.650
 3907POPC   C1B10975  11.025  36.203   8.550
 3907POPC   C2B10976  11.082  36.222   8.250
 3907POPC   C3B10977  11.051  36.194   7.950
 3907POPC   C4B10978  11.095  36.235   7.650
 3908POPC   NC310979  26.043  42.313   9.450
 3908POPC   PO410980  26.056  42.360   9.150
 3908POPC   GL110981  26.085  42.352   8.850
 3908POPC   GL210982  26.104  42.378   8.850
 3908POPC   C1A10983  26.073  42.347   8.550
 3908POPC   D2A10984  26.079  42.304   8.250
 3908POPC   C3A10985  26.086  42.354   7.950
 3908POPC   C4A10986  26.064  42.343   7.650
 3908POPC   C1B10987  26.288  42.513   8.550
 3908POPC   C2B10988  26.251  42.426   8.250
 3908POPC   C3B10989  26.265  42.523   7.950
 3908POPC   C4B10990  26.243  42.481   7.650
 3909POPC   NC310991   8.219  28.367   9.450
 3909POPC   PO410992   8.195  28.389   9.150
 3909POPC   GL110993   8.222  28.372   8.850
 3909POPC   GL210994   8.336  28.378   8.850
 3909POPC   C1A10995   8.201  28.321   8.550
 3909POPC   D2A10996   8.193  28.368   8.250
 3909POPC   C3A10997   8.219  28.364   7.950
 3909POPC   C4A10998   8.150  28.359   7.650
 3909POPC   C1B10999   8.398  28.318   8.550
 3909POPC   C2B11000   8.457  28.332   8.250
 3909POPC   C3B11001   8.428  28.343   7.950
 3909POPC   C4B11002   8.470  28.307   7.650
 3910POPC   NC311003   9.724   1.986   9.450
 3910POPC   PO411004   9.734   2.027   9.150
 3910POPC   GL111005   9.741   1.970   8.850
 3910POPC   GL211006   9.860   1.918   8.850
 3910POPC   C1A11007   9.730   2.004   8.550
 3910POPC   D2A11008   9.742   1.956   8.250
 3910POPC   C3A11009   9.741   2.037   7.950
 3910POPC   C4A11010   9.701   1.948   7.650
 3910POPC   C1B11011  10.019   1.925   8.550
 3910POPC   C2B11012  10.006   1.882   8.250
 3910POPC   C3B11013  10.011   1.927   7.950
 3910POPC   C4B11014   9.962   1.868   7.650
 3911POPC   NC311015  44.636  12.896   9.450
 3911POPC   PO411016  44.691  12.865   9.150
 3911POPC   GL111017  44.615  12.867   8.850
 3911POPC   GL211018  44.716  12.993   8.850
 3911POPC   C1A11019  44.691  12.843   8.550
 3911POPC   D2A11020  44.703  12.887   8.250
 3911POPC   C3A11021  44.637  12.813   7.950
 3911POPC   C4A11022  44.682  12.812   7.650
 3911POPC   C1B11023  44.691  13.066   8.550
 3911POPC   C2B11024  44.770  13.129   8.250
 3911POPC   C3B11025  44.749  13.054   7.950
 3911POPC   C4B11026  44.761  13.059   7.650
 3912POPC   NC311027  35.357  36.174   9.450
 3912POPC   PO411028  35.382  36.112   9.150
 3912POPC   GL111029  35.335  36.127   8.850
 3912POPC   GL211030  35.284  36.223   8.850
 3912POPC   C1A11031  35.392  36.091   8.550
 3912POPC   D2A11032  35.326  36.118   8.250
 3912POPC   C3A11033  35.317  36.145   7.950
 3912POPC   C4A11034  35.373  36.130   7.650
 3912POPC   C1B11035  35.226  36.397   8.550
 3912POPC   C2B11036  35.242  36.345   8.250
 3912POPC   C3B11037  35.238  36.334   7.950
 3912POPC   C4B11038  35.289  36.386   7.650
 3913POPC   NC311039   3.510  35.322   9.450
 3913POPC   PO411040   3.537  35.368   9.150
 3913POPC   GL111041   3.547  35.308   8.850
 3913POPC   GL211042   3.546  35.512   8.850
 3913POPC   C1A11043   3.518  35.371   8.550
 3913POPC   D2A11044   3.582  35.308   8.250
 3913POPC   C3A11045   3.559  35.396   7.950
 3913POPC   C4A11046   3.547  35.398   7.650
 3913POPC   C1B11047   3.623  35.634   8.550
 3913POPC   C2B11048   3.631  35.556   8.250
 3913POPC   C3B11049   3.643  35.623   7.950
 3913POPC   C4B11050   3.634  35.579   7.650
 3914POPC   NC311051  39.240  37.695   9.450
 3914POPC   PO411052  39.236  37.655   9.150
 3914POPC   GL111053  39.257  37.647   8.850
 3914POPC   GL211054  39.102  37.603   8.850
 3914POPC   C1A11055  39.255  37.713   8.550
 3914POPC   D2A11056  39.197  37.665   8.250
 3914POPC   C3A11057  39.257  37.634   7.950
 3914POPC   C4A11058  39.206  37.673   7.650
 3914POPC   C1B11059  38.973  37.654   8.550
 3914POPC   C2B11060  39.038  37.592   8.250
 3914POPC   C3B11061  38.993  37.598   7.950
 3914POPC   C4B11062  39.034  37.631   7.650
 3915POPC   NC311063  19.802  19.878   9.450
 3915POPC   PO411064  19.822  19.857   9.150
 3915POPC   GL111065  19.848  19.882   8.850
 3915POPC   GL211066  19.776  19.753   8.850
 3915POPC   C1A11067  19.856  19.802   8.550
 3915POPC   D2A11068  19.813  19.879   8.250
 3915POPC   C3A11069  19.815  19.848   7.950
 3915POPC   C4A11070  19.876  19.862   7.650
 3915POPC   C1B11071  19.672  19.645   8.550
 3915POPC   C2B11072  19.718  19.569   8.250
 3915POPC   C3B11073  19.718  19.603   7.950
 3915POPC   C4B11074  19.675  19.625   7.650
 3916POPC   NC311075  43.865  42.334   9.450
 3916POPC   PO411076  43.932  42.339   9.150
 3916POPC   GL111077  43.840  42.309   8.850
 3916POPC   GL211078  44.001  42.344   8.850
 3916POPC   C1A11079  43.881  42.286   8.550
 3916POPC   D2A11080  43.847  42.328   8.250
 3916POPC   C3A11081  43.853  42.331   7.950
 3916POPC   C4A11082  43.838  42.318   7.650
 3916POPC   C1B11083  44.136  42.440   8.550
 3916POPC   C2B11084  44.132  42.440   8.250
 3916POPC   C3B11085  44.123  42.380   7.950
 3916POPC   C4B11086  44.161  42.445   7.650
 3917POPC   NC311087  13.649  19.833   9.450
 3917POPC   PO411088  13.606  19.788   9.150
 3917POPC   GL111089  13.662  19.846   8.850
 3917POPC   GL211090  13.777  19.835   8.850
 3917POPC   C1A11091  13.578  19.866   8.550
 3917POPC   D2A11092  13.593  19.845   8.250
 3917POPC   C3A11093  13.591  19.845   7.950
 3917POPC   C4A11094  13.647  19.849   7.650
 3917POPC   C1B11095  13.829  19.908   8.550
 3917POPC   C2B11096  13.853  19.932   8.250
 3917POPC   C3B11097  13.893  19.909   7.950
 3917POPC   C4B11098  13.875  19.871   7.650
 3918POPC   NC311099  26.835  38.417   9.450
 3918POPC   PO411100  26.782  38.478   9.150
 3918POPC   GL111101  26.806  38.452   8.850
 3918POPC   GL211102  26.877  38.496   8.850
 3918POPC   C1A11103  26.778  38.500   8.550
 3918POPC   D2A11104  26.785  38.417   8.250
 3918POPC   C3A11105  26.797  38.448   7.950
 3918POPC   C4A11106  26.782  38.448   7.650
 3918POPC   C1B11107  27.013  38.581   8.550
 3918POPC   C2B11108  26.986  38.611   8.250
 3918POPC   C3B11109  27.042  38.611   7.950
 3918POPC   C4B11110  27.080  38.549   7.650
 3919POPC   NC311111  29.933  19.024   9.450
 3919POPC   PO411112  29.874  19.080   9.150
 3919POPC   GL111113  29.929  19.014   8.850
 3919POPC   GL211114  29.821  18.993   8.850
 3919POPC   C1A11115  29.900  19.051   8.550
 3919POPC   D2A11116  29.902  19.029   8.250
 3919POPC   C3A11117  29.940  19.055   7.950
 3919POPC   C4A11118  29.886  19.063   7.650
 3919POPC   C1B11119  29.710  19.004   8.550
 3919POPC   C2B11120  29.716  18.934   8.250
 3919POPC   C3B11121  29.680  18.983   7.950
 3919POPC   C4B11122  29.677  18.931   7.650
 3920POPC   NC311123  16.694  22.935   9.450
 3920POPC   PO411124  16.724  22.903   9.150
 3920POPC   GL111125  16.743  22.957   8.850
 3920POPC   GL211126  16.832  22.870   8.850
 3920POPC   C1A11127  16.689  22.908   8.550
 3920POPC   D2A11128  16.710  22.978   8.250
 3920POPC   C3A11129  16.709  22.902   7.950
 3920POPC   C4A11130  16.771  22.918   7.650
 3920POPC   C1B11131  16.946  22.826   8.550
 3920POPC   C2B11132  17.004  22.843   8.250
 3920POPC   C3B11133  17.015  22.812   7.950
 3920POPC   C4B11134  17.004  22.894   7.650
 3921POPC   NC311135  12.889  13.593   9.450
 3921POPC   PO411136  12.854  13.664   9.150
 3921POPC   GL111137  12.838  13.642   8.850
 3921POPC   GL211138  12.763  13.648   8.850
 3921POPC   C1A11139  12.876  13.596   8.550
 3921POPC   D2A11140  12.882  13.592   8.250
 3921POPC   C3A11141  12.860  13.616   7.950
 3921POPC   C4A11142  12.835  13.620   7.650
 3921POPC   C1B11143  12.567  13.584   8.550
 3921POPC   C2B11144  12.587  13.645   8.250
 3921POPC   C3B11145  12.606  13.579   7.950
 3921POPC   C4B11146  12.640  13.632   7.650
 3922POPC   NC311147   9.016  19.097   9.450
 3922POPC   PO411148   8.956  19.045   9.150
 3922POPC   GL111149   8.985  19.058   8.850
 3922POPC   GL211150   9.096  19.173   8.850
 3922POPC   C1A11151   8.927  19.081   8.550
 3922POPC   D2A11152   9.005  19.052   8.250
 3922POPC   C3A11153   8.951  19.052   7.950
 3922POPC   C4A11154   8.977  19.062   7.650
 3922POPC   C1B11155   9.203  19.179   8.550
 3922POPC   C2B11156   9.218  19.206   8.250
 3922POPC   C3B11157   9.191  19.205   7.950
 3922POPC   C4B11158   9.185  19.221   7.650
 3923POPC   NC311159  19.857   7.388   9.450
 3923POPC   PO411160  19.882   7.451   9.150
 3923POPC   GL111161  19.863   7.462   8.850
 3923POPC   GL211162  19.965   7.426   8.850
 3923POPC   C1A11163  19.809   7.460   8.550
 3923POPC   D2A11164  19.802   7.392   8.250
 3923POPC   C3A11165  19.839   7.435   7.950
 3923POPC   C4A11166  19.854   7.459   7.650
 3923POPC   C1B11167  20.033   7.318   8.550
 3923POPC   C2B11168  20.106   7.391   8.250
 3923POPC   C3B11169  20.111   7.317   7.950
 3923POPC   C4B11170  20.059   7.373   7.650
 3924POPC   NC311171   4.268   4.294   9.450
 3924POPC   PO411172   4.362   4.273   9.150
 3924POPC   GL111173   4.309   4.320   8.850
 3924POPC   GL211174   4.364   4.235   8.850
 3924POPC   C1A11175   4.285   4.347   8.550
 3924POPC   D2A11176   4.336   4.324   8.250
 3924POPC   C3A11177   4.334   4.316   7.950
 3924POPC   C4A11178   4.353   4.358   7.650
 3924POPC   C1B11179   4.506   4.120   8.550
 3924POPC   C2B11180   4.479   4.094   8.250
 3924POPC   C3B11181   4.490   4.116   7.950
 3924POPC   C4B11182   4.466   4.185   7.650
 3925POPC   NC311183  15.954  10.559   9.450
 3925POPC   PO411184  15.926  10.574   9.150
 3925POPC   GL111185  15.989  10.527   8.850
 3925POPC   GL211186  16.056  10.640   8.850
 3925POPC   C1A11187  15.917  10.532   8.550
 3925POPC   D2A11188  15.910  10.523   8.250
 3925POPC   C3A11189  15.982  10.573   7.950
 3925POPC   C4A11190  15.954  10.483   7.650
 3925POPC   C1B11191  16.039  10.742   8.550
 3925POPC   C2B11192  16.048  10.767   8.250
 3925POPC   C3B11193  16.064  10.711   7.950
 3925POPC   C4B11194  16.075  10.703   7.650
 3926POPC   NC311195  34.605  19.065   9.450
 3926POPC   PO411196  34.555  19.021   9.150
 3926POPC   GL111197  34.554  19.079   8.850
 3926POPC   GL211198  34.556  18.900   8.850
 3926POPC   C1A11199  34.545  19.017   8.550
 3926POPC   D2A11200  34.542  19.019   8.250
 3926POPC   C3A11201  34.605  19.064   7.950
 3926POPC   C4A11202  34.554  19.064   7.650
 3926POPC   C1B11203  34.580  18.843   8.550
 3926POPC   C2B11204  34.619  18.793   8.250
 3926POPC   C3B11205  34.587  18.847   7.950
 3926POPC   C4B11206  34.625  18.820   7.650
 3927POPC   NC311207  17.480  33.025   9.450
 3927POPC   PO411208  17.523  32.993   9.150
 3927POPC   GL111209  17.494  32.993   8.850
 3927POPC   GL211210  17.588  32.954   8.850
 3927POPC   C1A11211  17.484  32.989   8.550
 3927POPC   D2A11212  17.514  33.006   8.250
 3927POPC   C3A11213  17.469  33.008   7.950
 3927POPC   C4A11214  17.548  33.073   7.650
 3927POPC   C1B11215  17.738  32.912   8.550
 3927POPC   C2B11216  17.753  32.935   8.250
 3927POPC   C3B11217  17.688  32.949   7.950
 3927POPC   C4B11218  17.684  32.903   7.650
 3928POPC   NC311219  36.877  11.266   9.450
 3928POPC   PO411220  36.855  11.295   9.150
 3928POPC   GL111221  36.869  11.349   8.850
 3928POPC   GL211222  36.923  11.461   8.850
 3928POPC   C1A11223  36.918  11.308   8.550
 3928POPC   D2A11224  36.876  11.292   8.250
 3928POPC   C3A11225  36.882  11.330   7.950
 3928POPC   C4A11226  36.901  11.308   7.650
 3928POPC   C1B11227  36.981  11.523   8.550
 3928POPC   C2B11228  36.988  11.550   8.250
 3928POPC   C3B11229  36.989  11.567   7.950
 3928POPC   C4B11230  37.003  11.526   7.650
 3929POPC   NC311231  27.603  29.098   9.450
 3929POPC   PO411232  27.633  29.138   9.150
 3929POPC   GL111233  27.626  29.159   8.850
 3929POPC   GL211234  27.696  29.234   8.850
 3929POPC   C1A11235  27.606  29.113   8.550
 3929POPC   D2A11236  27.581  29.191   8.250
 3929POPC   C3A11237  27.630  29.176   7.950
 3929POPC   C4A11238  27.563  29.156   7.650
 3929POPC   C1B11239  27.720  29.354   8.550
 3929POPC   C2B11240  27.741  29.368   8.250
 3929POPC   C3B11241  27.785  29.314   7.950
 3929POPC   C4B11242  27.723  29.333   7.650
 3930POPC   NC311243   5.062   1.225   9.450
 3930POPC   PO411244   5.060   1.257   9.150
 3930POPC   GL111245   5.082   1.249   8.850
 3930POPC   GL211246   5.176   1.313   8.850
 3930POPC   C1A11247   5.137   1.183   8.550
 3930POPC   D2A11248   5.125   1.198   8.250
 3930POPC   C3A11249   5.068   1.179   7.950
 3930POPC   C4A11250   5.074   1.176   7.650
 3930POPC   C1B11251   5.183   1.450   8.550
 3930POPC   C2B11252   5.249   1.445   8.250
 3930POPC   C3B11253   5.197   1.397   7.950
 3930POPC   C4B11254   5.191   1.477   7.650
 3931POPC   NC311255  18.284  20.574   9.450
 3931POPC   PO411256  18.261  20.631   9.150
 3931POPC   GL111257  18.302  20.566   8.850
 3931POPC   GL211258  18.302  20.497   8.850
 3931POPC   C1A11259  18.306  20.640   8.550
 3931POPC   D2A11260  18.295  20.578   8.250
 3931POPC   C3A11261  18.265  20.576   7.950
 3931POPC   C4A11262  18.275  20.576   7.650
 3931POPC   C1B11263  18.327  20.367   8.550
 3931POPC   C2B11264  18.294  20.371   8.250
 3931POPC   C3B11265  18.308  20.411   7.950
 3931POPC   C4B11266  18.343  20.321   7.650
 3932POPC   NC311267  37.725  37.675   9.450
 3932POPC   PO411268  37.681  37.689   9.150
 3932POPC   GL111269  37.644  37.726   8.850
 3932POPC   GL211270  37.727  37.588   8.850
 3932POPC   C1A11271  37.641  37.717   8.550
 3932POPC   D2A11272  37.640  37.655   8.250
 3932POPC   C3A11273  37.651  37.630   7.950
 3932POPC   C4A11274  37.714  37.723   7.650
 3932POPC   C1B11275  37.820  37.460   8.550
 3932POPC   C2B11276  37.777  37.493   8.250
 3932POPC   C3B11277  37.857  37.453   7.950
 3932POPC   C4B11278  37.843  37.484   7.650
 3933POPC   NC311279  26.852  28.322   9.450
 3933POPC   PO411280  26.788  28.387   9.150
 3933POPC   GL111281  26.782  28.342   8.850
 3933POPC   GL211282  26.732  28.370   8.850
 3933POPC   C1A11283  26.785  28.350   8.550
 3933POPC   D2A11284  26.775  28.373   8.250
 3933POPC   C3A11285  26.769  28.379   7.950
 3933POPC   C4A11286  26.775  28.390   7.650
 3933POPC   C1B11287  26.585  28.342   8.550
 3933POPC   C2B11288  26.526  28.328   8.250
 3933POPC   C3B11289  26.600  28.349   7.950
 3933POPC   C4B11290  26.608  28.357   7.650
 3934POPC   NC311291  39.273  12.053   9.450
 3934POPC   PO411292  39.280  12.037   9.150
 3934POPC   GL111293  39.226  12.117   8.850
 3934POPC   GL211294  39.101  12.205   8.850
 3934POPC   C1A11295  39.211  12.113   8.550
 3934POPC   D2A11296  39.221  12.114   8.250
 3934POPC   C3A11297  39.206  12.062   7.950
 3934POPC   C4A11298  39.252  12.085   7.650
 3934POPC   C1B11299  39.059  12.213   8.550
 3934POPC   C2B11300  39.021  12.282   8.250
 3934POPC   C3B11301  39.005  12.204   7.950
 3934POPC   C4B11302  39.042  12.264   7.650
 3935POPC   NC311303  29.188  17.464   9.450
 3935POPC   PO411304  29.140  17.484   9.150
 3935POPC   GL111305  29.110  17.529   8.850
 3935POPC   GL211306  29.174  17.671   8.850
 3935POPC   C1A11307  29.129  17.546   8.550
 3935POPC   D2A11308  29.142  17.465   8.250
 3935POPC   C3A11309  29.128  17.466   7.950
 3935POPC   C4A11310  29.149  17.518   7.650
 3935POPC   C1B11311  29.206  17.762   8.550
 3935POPC   C2B11312  29.241  17.724   8.250
 3935POPC   C3B11313  29.245  17.778   7.950
 3935POPC   C4B11314  29.268  17.779   7.650
 3936POPC   NC311315  34.543  14.380   9.450
 3936POPC   PO411316  34.587  14.398   9.150
 3936POPC   GL111317  34.574  14.381   8.850
 3936POPC   GL211318  34.474  14.328   8.850
 3936POPC   C1A11319  34.612  14.377   8.550
 3936POPC   D2A11320  34.560  14.410   8.250
 3936POPC   C3A11321  34.537  14.370   7.950
 3936POPC   C4A11322  34.625  14.412   7.650
 3936POPC   C1B11323  34.387  14.166   8.550
 3936POPC   C2B11324  34.412  14.189   8.250
 3936POPC   C3B11325  34.435  14.157   7.950
 3936POPC   C4B11326  34.398  14.157   7.650
 3937POPC   NC311327  39.280  17.545   9.450
 3937POPC   PO411328  39.182  17.461   9.150
 3937POPC   GL111329  39.188  17.466   8.850
 3937POPC   GL211330  39.382  17.527   8.850
 3937POPC   C1A11331  39.211  17.460   8.550
 3937POPC   D2A11332  39.229  17.473   8.250
 3937POPC   C3A11333  39.221  17.496   7.950
 3937POPC   C4A11334  39.260  17.482   7.650
 3937POPC   C1B11335  39.472  17.461   8.550
 3937POPC   C2B11336  39.465  17.489   8.250
 3937POPC   C3B11337  39.498  17.520   7.950
 3937POPC   C4B11338  39.461  17.551   7.650
 3938POPC   NC311339  24.498   1.251   9.450
 3938POPC   PO411340  24.524   1.244   9.150
 3938POPC   GL111341  24.500   1.213   8.850
 3938POPC   GL211342  24.498   1.319   8.850
 3938POPC   C1A11343  24.517   1.240   8.550
 3938POPC   D2A11344  24.537   1.252   8.250
 3938POPC   C3A11345  24.459   1.187   7.950
 3938POPC   C4A11346  24.498   1.214   7.650
 3938POPC   C1B11347  24.546   1.484   8.550
 3938POPC   C2B11348  24.576   1.458   8.250
 3938POPC   C3B11349  24.497   1.449   7.950
 3938POPC   C4B11350  24.537   1.442   7.650
 3939POPC   NC311351  21.375  22.932   9.450
 3939POPC   PO411352  21.408  22.896   9.150
 3939POPC   GL111353  21.387  22.948   8.850
 3939POPC   GL211354  21.344  23.036   8.850
 3939POPC   C1A11355  21.435  22.926   8.550
 3939POPC   D2A11356  21.433  22.953   8.250
 3939POPC   C3A11357  21.385  22.934   7.950
 3939POPC   C4A11358  21.407  22.896   7.650
 3939POPC   C1B11359  21.214  23.120   8.550
 3939POPC   C2B11360  21.226  23.152   8.250
 3939POPC   C3B11361  21.216  23.108   7.950
 3939POPC   C4B11362  21.217  23.157   7.650
 3940POPC   NC311363  19.881  31.426   9.450
 3940POPC   PO411364  19.868  31.480   9.150
 3940POPC   GL111365  19.833  31.478   8.850
 3940POPC   GL211366  19.766  31.553   8.850
 3940POPC   C1A11367  19.852  31.516   8.550
 3940POPC   D2A11368  19.866  31.458   8.250
 3940POPC   C3A11369  19.823  31.507   7.950
 3940POPC   C4A11370  19.841  31.479   7.650
 3940POPC   C1B11371  19.664  31.633   8.550
 3940POPC   C2B11372  19.683  31.660   8.250
 3940POPC   C3B11373  19.666  31.673   7.950
 3940POPC   C4B11374  19.687  31.631   7.650
 3941POPC   NC311375  43.848  41.590   9.450
 3941POPC   PO411376  43.843  41.534   9.150
 3941POPC   GL111377  43.882  41.521   8.850
 3941POPC   GL211378  43.963  41.492   8.850
 3941POPC   C1A11379  43.888  41.541   8.550
 3941POPC   D2A11380  43.890  41.599   8.250
 3941POPC   C3A11381  43.849  41.582   7.950
 3941POPC   C4A11382  43.886  41.510   7.650
 3941POPC   C1B11383  44.093  41.442   8.550
 3941POPC   C2B11384  44.133  41.491   8.250
 3941POPC   C3B11385  44.084  41.530   7.950
 3941POPC   C4B11386  44.170  41.538   7.650
 3942POPC   NC311387  17.529  32.216   9.450
 3942POPC   PO411388  17.524  32.217   9.150
 3942POPC   GL111389  17.503  32.277   8.850
 3942POPC   GL211390  17.421  32.196   8.850
 3942POPC   C1A11391  17.503  32.216   8.550
 3942POPC   D2A11392  17.510  32.247   8.250
 3942POPC   C3A11393  17.544  32.285   7.950
 3942POPC   C4A11394  17.534  32.213   7.650
 3942POPC   C1B11395  17.302  32.010   8.550
 3942POPC   C2B11396  17.343  32.056   8.250
 3942POPC   C3B11397  17.391  32.040   7.950
 3942POPC   C4B11398  17.352  32.090   7.650
 3943POPC   NC311399   3.591   8.170   9.450
 3943POPC   PO411400   3.527   8.199   9.150
 3943POPC   GL111401   3.535   8.222   8.850
 3943POPC   GL211402   3.471   8.265   8.850
 3943POPC   C1A11403   3.530   8.159   8.550
 3943POPC   D2A11404   3.553   8.198   8.250
 3943POPC   C3A11405   3.582   8.148   7.950
 3943POPC   C4A11406   3.551   8.232   7.650
 3943POPC   C1B11407   3.384   8.381   8.550
 3943POPC   C2B11408   3.324   8.401   8.250
 3943POPC   C3B11409   3.396   8.320   7.950
 3943POPC   C4B11410   3.400   8.380   7.650
 3944POPC   NC311411  24.448  13.590   9.450
 3944POPC   PO411412  24.515  13.618   9.150
 3944POPC   GL111413  24.508  13.676   8.850
 3944POPC   GL211414  24.610  13.677   8.850
 3944POPC   C1A11415  24.453  13.580   8.550
 3944POPC   D2A11416  24.480  13.609   8.250
 3944POPC   C3A11417  24.498  13.628   7.950
 3944POPC   C4A11418  24.453  13.641   7.650
 3944POPC   C1B11419  24.674  13.801   8.550
 3944POPC   C2B11420  24.613  13.808   8.250
 3944POPC   C3B11421  24.690  13.848   7.950
 3944POPC   C4B11422  24.640  13.843   7.650
 3945POPC   NC311423  25.247  33.009   9.450
 3945POPC   PO411424  25.283  33.070   9.150
 3945POPC   GL111425  25.233  32.998   8.850
 3945POPC   GL211426  25.384  32.991   8.850
 3945POPC   C1A11427  25.265  32.999   8.550
 3945POPC   D2A11428  25.308  33.001   8.250
 3945POPC   C3A11429  25.271  33.056   7.950
 3945POPC   C4A11430  25.271  33.055   7.650
 3945POPC   C1B11431  25.514  32.969   8.550
 3945POPC   C2B11432  25.485  32.924   8.250
 3945POPC   C3B11433  25.545  33.002   7.950
 3945POPC   C4B11434  25.521  32.933   7.650
 3946POPC   NC311435  13.650  31.475   9.450
 3946POPC   PO411436  13.663  31.440   9.150
 3946POPC   GL111437  13.673  31.470   8.850
 3946POPC   GL211438  13.718  31.500   8.850
 3946POPC   C1A11439  13.598  31.430   8.550
 3946POPC   D2A11440  13.601  31.466   8.250
 3946POPC   C3A11441  13.675  31.517   7.950
 3946POPC   C4A11442  13.654  31.520   7.650
 3946POPC   C1B11443  13.894  31.503   8.550
 3946POPC   C2B11444  13.884  31.465   8.250
 3946POPC   C3B11445  13.900  31.513   7.950
 3946POPC   C4B11446  13.886  31.460   7.650
 3947POPC   NC311447  26.067  26.856   9.450
 3947POPC   PO411448  25.992  26.840   9.150
 3947POPC   GL111449  26.079  26.828   8.850
 3947POPC   GL211450  25.880  26.814   8.850
 3947POPC   C1A11451  26.078  26.833   8.550
 3947POPC   D2A11452  26.080  26.860   8.250
 3947POPC   C3A11453  26.053  26.806   7.950
 3947POPC   C4A11454  25.994  26.855   7.650
 3947POPC   C1B11455  25.789  26.877   8.550
 3947POPC   C2B11456  25.802  26.927   8.250
 3947POPC   C3B11457  25.808  26.901   7.950
 3947POPC   C4B11458  25.816  26.925   7.650
 3948POPC   NC311459  37.724   5.074   9.450
 3948POPC   PO411460  37.637   5.121   9.150
 3948POPC   GL111461  37.633   5.108   8.850
 3948POPC   GL211462  37.679   5.183   8.850
 3948POPC   C1A11463  37.655   5.080   8.550
 3948POPC   D2A11464  37.701   5.090   8.250
 3948POPC   C3A11465  37.679   5.080   7.950
 3948POPC   C4A11466  37.645   5.057   7.650
 3948POPC   C1B11467  37.695   5.308   8.550
 3948POPC   C2B11468  37.713   5.354   8.250
 3948POPC   C3B11469  37.740   5.364   7.950
 3948POPC   C4B11470  37.734   5.304   7.650
 3949POPC   NC311471  44.673  21.375   9.450
 3949POPC   PO411472  44.624  21.390   9.150
 3949POPC   GL111473  44.619  21.368   8.850
 3949POPC   GL211474  44.537  21.473   8.850
 3949POPC   C1A11475  44.615  21.383   8.550
 3949POPC   D2A11476  44.699  21.341   8.250
 3949POPC   C3A11477  44.708  21.406   7.950
 3949POPC   C4A11478  44.671  21.384   7.650
 3949POPC   C1B11479  44.497  21.540   8.550
 3949POPC   C2B11480  44.460  21.596   8.250
 3949POPC   C3B11481  44.474  21.534   7.950
 3949POPC   C4B11482  44.524  21.528   7.650
 3950POPC   NC311483  15.944  40.783   9.450
 3950POPC   PO411484  15.938  40.768   9.150
 3950POPC   GL111485  16.000  40.734   8.850
 3950POPC   GL211486  16.022  40.917   8.850
 3950POPC   C1A11487  15.956  40.761   8.550
 3950POPC   D2A11488  15.959  40.747   8.250
 3950POPC   C3A11489  15.937  40.797   7.950
 3950POPC   C4A11490  15.905  40.772   7.650
 3950POPC   C1B11491  15.998  40.978   8.550
 3950POPC   C2B11492  16.066  40.984   8.250
 3950POPC   C3B11493  15.983  41.006   7.950
 3950POPC   C4B11494  15.998  41.023   7.650
 3951POPC   NC311495  29.156  30.730   9.450
 3951POPC   PO411496  29.157  30.707   9.150
 3951POPC   GL111497  29.177  30.673   8.850
 3951POPC   GL211498  29.056  30.748   8.850
 3951POPC   C1A11499  29.128  30.652   8.550
 3951POPC   D2A11500  29.150  30.655   8.250
 3951POPC   C3A11501  29.170  30.682   7.950
 3951POPC   C4A11502  29.101  30.716   7.650
 3951POPC   C1B11503  28.940  30.812   8.550
 3951POPC   C2B11504  28.994  30.848   8.250
 3951POPC   C3B11505  28.977  30.896   7.950
 3951POPC   C4B11506  28.900  30.867   7.650
 3952POPC   NC311507  23.739   0.451   9.450
 3952POPC   PO411508  23.721   0.410   9.150
 3952POPC   GL111509  23.728   0.465   8.850
 3952POPC   GL211510  23.693   0.529   8.850
 3952POPC   C1A11511  23.670   0.469   8.550
 3952POPC   D2A11512  23.682   0.465   8.250
 3952POPC   C3A11513  23.709   0.400   7.950
 3952POPC   C4A11514  23.700   0.419   7.650
 3952POPC   C1B11515  23.725   0.717   8.550
 3952POPC   C2B11516  23.663   0.701   8.250
 3952POPC   C3B11517  23.724   0.726   7.950
 3952POPC   C4B11518  23.691   0.701   7.650
 3953POPC   NC311519  15.958  15.941   9.450
 3953POPC   PO411520  16.004  15.941   9.150
 3953POPC   GL111521  15.907  15.906   8.850
 3953POPC   GL211522  16.091  15.914   8.850
 3953POPC   C1A11523  15.962  15.975   8.550
 3953POPC   D2A11524  15.946  15.931   8.250
 3953POPC   C3A11525  15.974  15.948   7.950
 3953POPC   C4A11526  15.968  15.918   7.650
 3953POPC   C1B11527  16.159  15.988   8.550
 3953POPC   C2B11528  16.227  15.917   8.250
 3953POPC   C3B11529  16.176  15.918   7.950
 3953POPC   C4B11530  16.205  15.961   7.650
 3954POPC   NC311531  41.532  35.393   9.450
 3954POPC   PO411532  41.524  35.343   9.150
 3954POPC   GL111533  41.579  35.329   8.850
 3954POPC   GL211534  41.487  35.215   8.850
 3954POPC   C1A11535  41.542  35.392   8.550
 3954POPC   D2A11536  41.565  35.398   8.250
 3954POPC   C3A11537  41.588  35.342   7.950
 3954POPC   C4A11538  41.565  35.342   7.650
 3954POPC   C1B11539  41.499  35.169   8.550
 3954POPC   C2B11540  41.487  35.159   8.250
 3954POPC   C3B11541  41.507  35.143   7.950
 3954POPC   C4B11542  41.472  35.147   7.650
 3955POPC   NC311543  43.859  32.226   9.450
 3955POPC   PO411544  43.929  32.266   9.150
 3955POPC   GL111545  43.917  32.210   8.850
 3955POPC   GL211546  43.945  32.154   8.850
 3955POPC   C1A11547  43.843  32.248   8.550
 3955POPC   D2A11548  43.882  32.267   8.250
 3955POPC   C3A11549  43.905  32.244   7.950
 3955POPC   C4A11550  43.911  32.282   7.650
 3955POPC   C1B11551  44.135  32.152   8.550
 3955POPC   C2B11552  44.109  32.093   8.250
 3955POPC   C3B11553  44.133  32.137   7.950
 3955POPC   C4B11554  44.068  32.104   7.650
 3956POPC   NC311555   8.246  27.617   9.450
 3956POPC   PO411556   8.232  27.611   9.150
 3956POPC   GL111557   8.223  27.606   8.850
 3956POPC   GL211558   8.175  27.521   8.850
 3956POPC   C1A11559   8.186  27.626   8.550
 3956POPC   D2A11560   8.161  27.598   8.250
 3956POPC   C3A11561   8.161  27.569   7.950
 3956POPC   C4A11562   8.160  27.577   7.650
 3956POPC   C1B11563   8.100  27.369   8.550
 3956POPC   C2B11564   8.086  27.393   8.250
 3956POPC   C3B11565   8.049  27.359   7.950
 3956POPC   C4B11566   8.015  27.350   7.650
 3957POPC   NC311567  20.567  13.629   9.450
 3957POPC   PO411568  20.646  13.631   9.150
 3957POPC   GL111569  20.655  13.642   8.850
 3957POPC   GL211570  20.483  13.519   8.850
 3957POPC   C1A11571  20.650  13.631   8.550
 3957POPC   D2A11572  20.647  13.648   8.250
 3957POPC   C3A11573  20.626  13.588   7.950
 3957POPC   C4A11574  20.564  13.674   7.650
 3957POPC   C1B11575  20.348  13.551   8.550
 3957POPC   C2B11576  20.436  13.524   8.250
 3957POPC   C3B11577  20.373  13.549   7.950
 3957POPC   C4B11578  20.408  13.549   7.650
 3958POPC   NC311579  39.971  29.907   9.450
 3958POPC   PO411580  40.024  29.888   9.150
 3958POPC   GL111581  39.962  29.892   8.850
 3958POPC   GL211582  39.903  29.842   8.850
 3958POPC   C1A11583  39.979  29.899   8.550
 3958POPC   D2A11584  40.042  29.945   8.250
 3958POPC   C3A11585  39.996  29.894   7.950
 3958POPC   C4A11586  40.039  29.963   7.650
 3958POPC   C1B11587  39.880  29.690   8.550
 3958POPC   C2B11588  39.889  29.754   8.250
 3958POPC   C3B11589  39.923  29.747   7.950
 3958POPC   C4B11590  39.915  29.682   7.650
 3959POPC   NC311591  40.051  13.588   9.450
 3959POPC   PO411592  40.018  13.674   9.150
 3959POPC   GL111593  40.043  13.625   8.850
 3959POPC   GL211594  39.882  13.688   8.850
 3959POPC   C1A11595  39.985  13.660   8.550
 3959POPC   D2A11596  39.976  13.632   8.250
 3959POPC   C3A11597  40.025  13.659   7.950
 3959POPC   C4A11598  40.001  13.620   7.650
 3959POPC   C1B11599  39.728  13.665   8.550
 3959POPC   C2B11600  39.804  13.630   8.250
 3959POPC   C3B11601  39.787  13.661   7.950
 3959POPC   C4B11602  39.749  13.665   7.650
 3960POPC   NC311603  32.994  19.085   9.450
 3960POPC   PO411604  33.013  19.017   9.150
 3960POPC   GL111605  32.983  19.107   8.850
 3960POPC   GL211606  33.066  19.206   8.850
 3960POPC   C1A11607  33.058  19.066   8.550
 3960POPC   D2A11608  33.038  19.077   8.250
 3960POPC   C3A11609  32.976  19.054   7.950
 3960POPC   C4A11610  33.069  19.015   7.650
 3960POPC   C1B11611  33.048  19.285   8.550
 3960POPC   C2B11612  33.138  19.268   8.250
 3960POPC   C3B11613  33.094  19.281   7.950
 3960POPC   C4B11614  33.092  19.283   7.650
 3961POPC   NC311615  33.766  36.911   9.450
 3961POPC   PO411616  33.771  36.881   9.150
 3961POPC   GL111617  33.764  36.914   8.850
 3961POPC   GL211618  33.886  36.963   8.850
 3961POPC   C1A11619  33.826  36.899   8.550
 3961POPC   D2A11620  33.819  36.900   8.250
 3961POPC   C3A11621  33.763  36.911   7.950
 3961POPC   C4A11622  33.821  36.946   7.650
 3961POPC   C1B11623  34.026  37.041   8.550
 3961POPC   C2B11624  34.006  37.025   8.250
 3961POPC   C3B11625  33.986  37.038   7.950
 3961POPC   C4B11626  34.058  37.033   7.650
 3962POPC   NC311627   9.750   9.727   9.450
 3962POPC   PO411628   9.789   9.704   9.150
 3962POPC   GL111629   9.710   9.702   8.850
 3962POPC   GL211630   9.681   9.696   8.850
 3962POPC   C1A11631   9.703   9.708   8.550
 3962POPC   D2A11632   9.702   9.727   8.250
 3962POPC   C3A11633   9.743   9.772   7.950
 3962POPC   C4A11634   9.728   9.770   7.650
 3962POPC   C1B11635   9.543   9.620   8.550
 3962POPC   C2B11636   9.534   9.538   8.250
 3962POPC   C3B11637   9.575   9.544   7.950
 3962POPC   C4B11638   9.597   9.582   7.650
 3963POPC   NC311639  16.750   2.013   9.450
 3963POPC   PO411640  16.760   1.969   9.150
 3963POPC   GL111641  16.684   1.952   8.850
 3963POPC   GL211642  16.641   1.896   8.850
 3963POPC   C1A11643  16.704   2.012   8.550
 3963POPC   D2A11644  16.699   1.958   8.250
 3963POPC   C3A11645  16.773   1.982   7.950
 3963POPC   C4A11646  16.742   1.962   7.650
 3963POPC   C1B11647  16.596   1.746   8.550
 3963POPC   C2B11648  16.592   1.720   8.250
 3963POPC   C3B11649  16.649   1.738   7.950
 3963POPC   C4B11650  16.576   1.808   7.650
 3964POPC   NC311651  33.805  42.335   9.450
 3964POPC   PO411652  33.778  42.343   9.150
 3964POPC   GL111653  33.797  42.331   8.850
 3964POPC   GL211654  33.716  42.275   8.850
 3964POPC   C1A11655  33.824  42.315   8.550
 3964POPC   D2A11656  33.769  42.304   8.250
 3964POPC   C3A11657  33.760  42.366   7.950
 3964POPC   C4A11658  33.809  42.318   7.650
 3964POPC   C1B11659  33.515  42.263   8.550
 3964POPC   C2B11660  33.516  42.245   8.250
 3964POPC   C3B11661  33.595  42.266   7.950
 3964POPC   C4B11662  33.562  42.292   7.650
 3965POPC   NC311663  13.586   4.358   9.450
 3965POPC   PO411664  13.583   4.335   9.150
 3965POPC   GL111665  13.636   4.287   8.850
 3965POPC   GL211666  13.728   4.227   8.850
 3965POPC   C1A11667  13.598   4.362   8.550
 3965POPC   D2A11668  13.654   4.337   8.250
 3965POPC   C3A11669  13.603   4.272   7.950
 3965POPC   C4A11670  13.672   4.277   7.650
 3965POPC   C1B11671  13.798   4.131   8.550
 3965POPC   C2B11672  13.810   4.167   8.250
 3965POPC   C3B11673  13.774   4.157   7.950
 3965POPC   C4B11674  13.816   4.157   7.650
 3966POPC   NC311675  16.722  37.663   9.450
 3966POPC   PO411676  16.747  37.679   9.150
 3966POPC   GL111677  16.708  37.662   8.850
 3966POPC   GL211678  16.803  37.555   8.850
 3966POPC   C1A11679  16.741  37.668   8.550
 3966POPC   D2A11680  16.728  37.715   8.250
 3966POPC   C3A11681  16.709  37.702   7.950
 3966POPC   C4A11682  16.780  37.670   7.650
 3966POPC   C1B11683  16.877  37.542   8.550
 3966POPC   C2B11684  16.951  37.485   8.250
 3966POPC   C3B11685  16.898  37.544   7.950
 3966POPC   C4B11686  16.919  37.469   7.650
 3967POPC   NC311687  27.586  14.426   9.450
 3967POPC   PO411688  27.643  14.448   9.150
 3967POPC   GL111689  27.612  14.404   8.850
 3967POPC   GL211690  27.511  14.535   8.850
 3967POPC   C1A11691  27.591  14.363   8.550
 3967POPC   D2A11692  27.590  14.382   8.250
 3967POPC   C3A11693  27.603  14.359   7.950
 3967POPC   C4A11694  27.565  14.363   7.650
 3967POPC   C1B11695  27.417  14.547   8.550
 3967POPC   C2B11696  27.396  14.598   8.250
 3967POPC   C3B11697  27.400  14.611   7.950
 3967POPC   C4B11698  27.386  14.566   7.650
 3968POPC   NC311699  28.352  44.644   9.450
 3968POPC   PO411700  28.324  44.692   9.150
 3968POPC   GL111701  28.341  44.619   8.850
 3968POPC   GL211702  28.496  44.610   8.850
 3968POPC   C1A11703  28.406  44.691   8.550
 3968POPC   D2A11704  28.352  44.653   8.250
 3968POPC   C3A11705  28.393  44.653   7.950
 3968POPC   C4A11706  28.354  44.642   7.650
 3968POPC   C1B11707  28.519  44.540   8.550
 3968POPC   C2B11708  28.506  44.522   8.250
 3968POPC   C3B11709  28.513  44.466   7.950
 3968POPC   C4B11710  28.557  44.485   7.650
 3969POPC   NC311711  20.614  22.123   9.450
 3969POPC   PO411712  20.569  22.151   9.150
 3969POPC   GL111713  20.573  22.161   8.850
 3969POPC   GL211714  20.519  22.038   8.850
 3969POPC   C1A11715  20.590  22.134   8.550
 3969POPC   D2A11716  20.656  22.174   8.250
 3969POPC   C3A11717  20.595  22.205   7.950
 3969POPC   C4A11718  20.596  22.169   7.650
 3969POPC   C1B11719  20.499  21.922   8.550
 3969POPC   C2B11720  20.507  21.927   8.250
 3969POPC   C3B11721  20.500  21.950   7.950
 3969POPC   C4B11722  20.482  21.974   7.650
 3970POPC   NC311723  16.690  29.105   9.450
 3970POPC   PO411724  16.754  29.134   9.150
 3970POPC   GL111725  16.775  29.177   8.850
 3970POPC   GL211726  16.646  29.266   8.850
 3970POPC   C1A11727  16.726  29.109   8.550
 3970POPC   D2A11728  16.710  29.128   8.250
 3970POPC   C3A11729  16.779  29.122   7.950
 3970POPC   C4A11730  16.693  29.103   7.650
 3970POPC   C1B11731  16.530  29.288   8.550
 3970POPC   C2B11732  16.483  29.325   8.250
 3970POPC   C3B11733  16.499  29.264   7.950
 3970POPC   C4B11734  16.549  29.247   7.650
 3971POPC   NC311735   1.254  43.077   9.450
 3971POPC   PO411736   1.259  43.150   9.150
 3971POPC   GL111737   1.198  43.128   8.850
 3971POPC   GL211738   1.102  43.166   8.850
 3971POPC   C1A11739   1.218  43.077   8.550
 3971POPC   D2A11740   1.201  43.137   8.250
 3971POPC   C3A11741   1.203  43.126   7.950
 3971POPC   C4A11742   1.249  43.110   7.650
 3971POPC   C1B11743   0.977  43.084   8.550
 3971POPC   C2B11744   0.992  43.155   8.250
 3971POPC   C3B11745   0.989  43.079   7.950
 3971POPC   C4B11746   1.008  43.147   7.650
 3972POPC   NC311747  43.140  16.777   9.450
 3972POPC   PO411748  43.099  16.758   9.150
 3972POPC   GL111749  43.097  16.725   8.850
 3972POPC   GL211750  43.102  16.559   8.850
 3972POPC   C1A11751  43.067  16.698   8.550
 3972POPC   D2A11752  43.081  16.722   8.250
 3972POPC   C3A11753  43.158  16.723   7.950
 3972POPC   C4A11754  43.094  16.716   7.650
 3972POPC   C1B11755  43.020  16.491   8.550
 3972POPC   C2B11756  43.098  16.448   8.250
 3972POPC   C3B11757  43.060  16.501   7.950
 3972POPC   C4B11758  43.087  16.498   7.650
 3973POPC   NC311759  25.227   3.552   9.450
 3973POPC   PO411760  25.264   3.503   9.150
 3973POPC   GL111761  25.264   3.559   8.850
 3973POPC   GL211762  25.226   3.480   8.850
 3973POPC   C1A11763  25.262   3.512   8.550
 3973POPC   D2A11764  25.298   3.591   8.250
 3973POPC   C3A11765  25.280   3.544   7.950
 3973POPC   C4A11766  25.236   3.521   7.650
 3973POPC   C1B11767  25.133   3.366   8.550
 3973POPC   C2B11768  25.117   3.384   8.250
 3973POPC   C3B11769  25.053   3.349   7.950
 3973POPC   C4B11770  25.120   3.346   7.650
 3974POPC   NC311771   7.456  33.027   9.450
 3974POPC   PO411772   7.373  33.034   9.150
 3974POPC   GL111773   7.404  33.062   8.850
 3974POPC   GL211774   7.281  32.995   8.850
 3974POPC   C1A11775   7.399  32.991   8.550
 3974POPC   D2A11776   7.401  33.057   8.250
 3974POPC   C3A11777   7.429  33.058   7.950
 3974POPC   C4A11778   7.409  33.042   7.650
 3974POPC   C1B11779   7.221  33.017   8.550
 3974POPC   C2B11780   7.137  33.033   8.250
 3974POPC   C3B11781   7.169  32.974   7.950
 3974POPC   C4B11782   7.123  32.962   7.650
 3975POPC   NC311783   5.069  43.134   9.450
 3975POPC   PO411784   5.089  43.144   9.150
 3975POPC   GL111785   5.118  43.135   8.850
 3975POPC   GL211786   5.118  43.266   8.850
 3975POPC   C1A11787   5.111  43.128   8.550
 3975POPC   D2A11788   5.116  43.123   8.250
 3975POPC   C3A11789   5.138  43.124   7.950
 3975POPC   C4A11790   5.082  43.090   7.650
 3975POPC   C1B11791   5.182  43.364   8.550
 3975POPC   C2B11792   5.229  43.354   8.250
 3975POPC   C3B11793   5.257  43.374   7.950
 3975POPC   C4B11794   5.182  43.351   7.650
 3976POPC   NC311795  23.746  33.047   9.450
 3976POPC   PO411796  23.724  33.030   9.150
 3976POPC   GL111797  23.712  33.070   8.850
 3976POPC   GL211798  23.730  32.915   8.850
 3976POPC   C1A11799  23.745  33.044   8.550
 3976POPC   D2A11800  23.719  32.975   8.250
 3976POPC   C3A11801  23.737  33.032   7.950
 3976POPC   C4A11802  23.761  33.041   7.650
 3976POPC   C1B11803  23.756  32.813   8.550
 3976POPC   C2B11804  23.751  32.810   8.250
 3976POPC   C3B11805  23.779  32.757   7.950
 3976POPC   C4B11806  23.776  32.798   7.650
 3977POPC   NC311807   5.821  12.892   9.450
 3977POPC   PO411808   5.833  12.848   9.150
 3977POPC   GL111809   5.884  12.848   8.850
 3977POPC   GL211810   5.760  12.816   8.850
 3977POPC   C1A11811   5.836  12.821   8.550
 3977POPC   D2A11812   5.864  12.837   8.250
 3977POPC   C3A11813   5.843  12.827   7.950
 3977POPC   C4A11814   5.821  12.812   7.650
 3977POPC   C1B11815   5.634  12.838   8.550
 3977POPC   C2B11816   5.627  12.878   8.250
 3977POPC   C3B11817   5.637  12.870   7.950
 3977POPC   C4B11818   5.641  12.896   7.650
 3978POPC   NC311819   4.326  43.910   9.450
 3978POPC   PO411820   4.342  43.880   9.150
 3978POPC   GL111821   4.357  43.928   8.850
 3978POPC   GL211822   4.378  43.966   8.850
 3978POPC   C1A11823   4.301  43.918   8.550
 3978POPC   D2A11824   4.314  43.839   8.250
 3978POPC   C3A11825   4.276  43.863   7.950
 3978POPC   C4A11826   4.320  43.904   7.650
 3978POPC   C1B11827   4.404  44.098   8.550
 3978POPC   C2B11828   4.406  44.094   8.250
 3978POPC   C3B11829   4.361  44.088   7.950
 3978POPC   C4B11830   4.347  44.082   7.650
 3979POPC   NC311831  22.926  36.169   9.450
 3979POPC   PO411832  22.917  36.084   9.150
 3979POPC   GL111833  22.895  36.102   8.850
 3979POPC   GL211834  23.069  36.026   8.850
 3979POPC   C1A11835  22.982  36.131   8.550
 3979POPC   D2A11836  22.903  36.110   8.250
 3979POPC   C3A11837  22.913  36.132   7.950
 3979POPC   C4A11838  22.986  36.103   7.650
 3979POPC   C1B11839  23.110  35.920   8.550
 3979POPC   C2B11840  23.117  35.921   8.250
 3979POPC   C3B11841  23.162  35.965   7.950
 3979POPC   C4B11842  23.121  35.946   7.650
 3980POPC   NC311843   0.443  15.135   9.450
 3980POPC   PO411844   0.472  15.222   9.150
 3980POPC   GL111845   0.438  15.155   8.850
 3980POPC   GL211846   0.463  15.071   8.850
 3980POPC   C1A11847   0.479  15.229   8.550
 3980POPC   D2A11848   0.458  15.168   8.250
 3980POPC   C3A11849   0.400  15.207   7.950
 3980POPC   C4A11850   0.397  15.197   7.650
 3980POPC   C1B11851   0.409  14.958   8.550
 3980POPC   C2B11852   0.446  14.912   8.250
 3980POPC   C3B11853   0.374  14.914   7.950
 3980POPC   C4B11854   0.412  14.890   7.650
 3981POPC   NC311855   3.541  29.928   9.450
 3981POPC   PO411856   3.585  29.892   9.150
 3981POPC   GL111857   3.591  29.878   8.850
 3981POPC   GL211858   3.445  29.865   8.850
 3981POPC   C1A11859   3.510  29.877   8.550
 3981POPC   D2A11860   3.542  29.961   8.250
 3981POPC   C3A11861   3.545  29.874   7.950
 3981POPC   C4A11862   3.502  29.957   7.650
 3981POPC   C1B11863   3.380  29.802   8.550
 3981POPC   C2B11864   3.377  29.759   8.250
 3981POPC   C3B11865   3.370  29.740   7.950
 3981POPC   C4B11866   3.315  29.783   7.650
 3982POPC   NC311867  28.412  36.866   9.450
 3982POPC   PO411868  28.397  36.868   9.150
 3982POPC   GL111869  28.367  36.949   8.850
 3982POPC   GL211870  28.346  36.824   8.850
 3982POPC   C1A11871  28.333  36.870   8.550
 3982POPC   D2A11872  28.365  36.888   8.250
 3982POPC   C3A11873  28.340  36.940   7.950
 3982POPC   C4A11874  28.406  36.864   7.650
 3982POPC   C1B11875  28.351  36.638   8.550
 3982POPC   C2B11876  28.375  36.660   8.250
 3982POPC   C3B11877  28.393  36.686   7.950
 3982POPC   C4B11878  28.330  36.695   7.650
 3983POPC   NC311879  44.707  32.234   9.450
 3983POPC   PO411880  44.708  32.284   9.150
 3983POPC   GL111881  44.636  32.226   8.850
 3983POPC   GL211882  44.547  32.200   8.850
 3983POPC   C1A11883  44.665  32.281   8.550
 3983POPC   D2A11884  44.664  32.199   8.250
 3983POPC   C3A11885  44.663  32.242   7.950
 3983POPC   C4A11886  44.626  32.271   7.650
 3983POPC   C1B11887  44.489  32.136   8.550
 3983POPC   C2B11888  44.422  32.082   8.250
 3983POPC   C3B11889  44.455  32.086   7.950
 3983POPC   C4B11890  44.454  32.040   7.650
 3984POPC   NC311891   5.875  43.923   9.450
 3984POPC   PO411892   5.856  43.919   9.150
 3984POPC   GL111893   5.918  43.861   8.850
 3984POPC   GL211894   5.797  44.027   8.850
 3984POPC   C1A11895   5.842  43.883   8.550
 3984POPC   D2A11896   5.871  43.875   8.250
 3984POPC   C3A11897   5.836  43.922   7.950
 3984POPC   C4A11898   5.885  43.872   7.650
 3984POPC   C1B11899   5.756  44.068   8.550
 3984POPC   C2B11900   5.781  44.134   8.250
 3984POPC   C3B11901   5.777  44.109   7.950
 3984POPC   C4B11902   5.731  44.140   7.650
 3985POPC   NC311903  22.212  42.318   9.450
 3985POPC   PO411904  22.182  42.305   9.150
 3985POPC   GL111905  22.165  42.337   8.850
 3985POPC   GL211906  22.069  42.336   8.850
 3985POPC   C1A11907  22.185  42.341   8.550
 3985POPC   D2A11908  22.177  42.310   8.250
 3985POPC   C3A11909  22.157  42.325   7.950
 3985POPC   C4A11910  22.177  42.315   7.650
 3985POPC   C1B11911  21.965  42.426   8.550
 3985POPC   C2B11912  21.917  42.415   8.250
 3985POPC   C3B11913  21.925  42.425   7.950
 3985POPC   C4B11914  21.952  42.393   7.650
 3986POPC   NC311915  40.750  41.597   9.450
 3986POPC   PO411916  40.802  41.571   9.150
 3986POPC   GL111917  40.734  41.569   8.850
 3986POPC   GL211918  40.899  41.600   8.850
 3986POPC   C1A11919  40.795  41.522   8.550
 3986POPC   D2A11920  40.789  41.526   8.250
 3986POPC   C3A11921  40.797  41.551   7.950
 3986POPC   C4A11922  40.776  41.563   7.650
 3986POPC   C1B11923  41.008  41.724   8.550
 3986POPC   C2B11924  40.988  41.682   8.250
 3986POPC   C3B11925  40.969  41.667   7.950
 3986POPC   C4B11926  40.967  41.710   7.650
 3987POPC   NC311927  44.637   9.703   9.450
 3987POPC   PO411928  44.672   9.766   9.150
 3987POPC   GL111929  44.677   9.736   8.850
 3987POPC   GL211930  44.642   9.613   8.850
 3987POPC   C1A11931  44.675   9.733   8.550
 3987POPC   D2A11932  44.622   9.783   8.250
 3987POPC   C3A11933  44.630   9.745   7.950
 3987POPC   C4A11934  44.657   9.752   7.650
 3987POPC   C1B11935  44.641   9.472   8.550
 3987POPC   C2B11936  44.572   9.527   8.250
 3987POPC   C3B11937  44.597   9.513   7.950
 3987POPC   C4B11938  44.585   9.467   7.650
 3988POPC   NC311939  16.762  18.319   9.450
 3988POPC   PO411940  16.776  18.328   9.150
 3988POPC   GL111941  16.691  18.255   8.850
 3988POPC   GL211942  16.751  18.450   8.850
 3988POPC   C1A11943  16.768  18.304   8.550
 3988POPC   D2A11944  16.729  18.249   8.250
 3988POPC   C3A11945  16.683  18.302   7.950
 3988POPC   C4A11946  16.682  18.251   7.650
 3988POPC   C1B11947  16.686  18.566   8.550
 3988POPC   C2B11948  16.734  18.532   8.250
 3988POPC   C3B11949  16.770  18.548   7.950
 3988POPC   C4B11950  16.748  18.575   7.650
 3989POPC   NC311951  22.181  39.281   9.450
 3989POPC   PO411952  22.142  39.255   9.150
 3989POPC   GL111953  22.185  39.202   8.850
 3989POPC   GL211954  22.201  39.094   8.850
 3989POPC   C1A11955  22.120  39.189   8.550
 3989POPC   D2A11956  22.211  39.208   8.250
 3989POPC   C3A11957  22.134  39.276   7.950
 3989POPC   C4A11958  22.156  39.197   7.650
 3989POPC   C1B11959  22.280  38.954   8.550
 3989POPC   C2B11960  22.283  38.983   8.250
 3989POPC   C3B11961  22.198  38.959   7.950
 3989POPC   C4B11962  22.262  38.977   7.650
 3990POPC   NC311963  37.671  36.938   9.450
 3990POPC   PO411964  37.661  36.891   9.150
 3990POPC   GL111965  37.647  36.907   8.850
 3990POPC   GL211966  37.520  36.857   8.850
 3990POPC   C1A11967  37.683  36.920   8.550
 3990POPC   D2A11968  37.719  36.933   8.250
 3990POPC   C3A11969  37.638  36.899   7.950
 3990POPC   C4A11970  37.659  36.912   7.650
 3990POPC   C1B11971  37.444  36.871   8.550
 3990POPC   C2B11972  37.456  36.893   8.250
 3990POPC   C3B11973  37.444  36.806   7.950
 3990POPC   C4B11974  37.421  36.871   7.650
 3991POPC   NC311975  20.571   6.603   9.450
 3991POPC   PO411976  20.658   6.674   9.150
 3991POPC   GL111977  20.587   6.621   8.850
 3991POPC   GL211978  20.516   6.738   8.850
 3991POPC   C1A11979  20.590   6.597   8.550
 3991POPC   D2A11980  20.645   6.694   8.250
 3991POPC   C3A11981  20.649   6.612   7.950
 3991POPC   C4A11982  20.651   6.599   7.650
 3991POPC   C1B11983  20.368   6.719   8.550
 3991POPC   C2B11984  20.333   6.750   8.250
 3991POPC   C3B11985  20.400   6.756   7.950
 3991POPC   C4B11986  20.382   6.759   7.650
 3992POPC   NC311987  31.466   4.295   9.450
 3992POPC   PO411988  31.519   4.326   9.150
 3992POPC   GL111989  31.427   4.325   8.850
 3992POPC   GL211990  31.434   4.178   8.850
 3992POPC   C1A11991  31.445   4.275   8.550
 3992POPC   D2A11992  31.461   4.298   8.250
 3992POPC   C3A11993  31.502   4.296   7.950
 3992POPC   C4A11994  31.514   4.303   7.650
 3992POPC   C1B11995  31.351   4.060   8.550
 3992POPC   C2B11996  31.349   4.147   8.250
 3992POPC   C3B11997  31.390   4.146   7.950
 3992POPC   C4B11998  31.371   4.060   7.650
 3993POPC   NC311999  35.312  38.500   9.450
 3993POPC   PO412000  35.368  38.442   9.150
 3993POPC   GL112001  35.345  38.459   8.850
 3993POPC   GL212002  35.228  38.486   8.850
 3993POPC   C1A12003  35.349  38.446   8.550
 3993POPC   D2A12004  35.329  38.484   8.250
 3993POPC   C3A12005  35.331  38.449   7.950
 3993POPC   C4A12006  35.343  38.467   7.650
 3993POPC   C1B12007  35.113  38.620   8.550
 3993POPC   C2B12008  35.101  38.630   8.250
 3993POPC   C3B12009  35.152  38.645   7.950
 3993POPC   C4B12010  35.134  38.564   7.650
 3994POPC   NC312011  29.136  18.332   9.450
 3994POPC   PO412012  29.109  18.274   9.150
 3994POPC   GL112013  29.106  18.280   8.850
 3994POPC   GL212014  29.189  18.382   8.850
 3994POPC   C1A12015  29.127  18.329   8.550
 3994POPC   D2A12016  29.132  18.303   8.250
 3994POPC   C3A12017  29.166  18.238   7.950
 3994POPC   C4A12018  29.121  18.278   7.650
 3994POPC   C1B12019  29.231  18.501   8.550
 3994POPC   C2B12020  29.214  18.548   8.250
 3994POPC   C3B12021  29.276  18.541   7.950
 3994POPC   C4B12022  29.289  18.530   7.650
 3995POPC   NC312023   9.728  29.194   9.450
 3995POPC   PO412024   9.795  29.135   9.150
 3995POPC   GL112025   9.705  29.150   8.850
 3995POPC   GL212026   9.904  29.117   8.850
 3995POPC   C1A12027   9.718  29.128   8.550
 3995POPC   D2A12028   9.793  29.172   8.250
 3995POPC   C3A12029   9.759  29.186   7.950
 3995POPC   C4A12030   9.721  29.193   7.650
 3995POPC   C1B12031   9.942  29.073   8.550
 3995POPC   C2B12032   9.971  29.129   8.250
 3995POPC   C3B12033   9.985  29.044   7.950
 3995POPC   C4B12034   9.970  29.044   7.650
 3996POPC   NC312035  42.354   3.558   9.450
 3996POPC   PO412036  42.363   3.544   9.150
 3996POPC   GL112037  42.321   3.522   8.850
 3996POPC   GL212038  42.238   3.649   8.850
 3996POPC   C1A12039  42.331   3.573   8.550
 3996POPC   D2A12040  42.364   3.527   8.250
 3996POPC   C3A12041  42.322   3.500   7.950
 3996POPC   C4A12042  42.292   3.497   7.650
 3996POPC   C1B12043  42.165   3.740   8.550
 3996POPC   C2B12044  42.173   3.763   8.250
 3996POPC   C3B12045  42.178   3.731   7.950
 3996POPC   C4B12046  42.129   3.714   7.650
 3997POPC   NC312047  31.459  12.830   9.450
 3997POPC   PO412048  31.447  12.818   9.150
 3997POPC   GL112049  31.454  12.866   8.850
 3997POPC   GL212050  31.482  12.714   8.850
 3997POPC   C1A12051  31.481  12.816   8.550
 3997POPC   D2A12052  31.440  12.891   8.250
 3997POPC   C3A12053  31.482  12.848   7.950
 3997POPC   C4A12054  31.497  12.835   7.650
 3997POPC   C1B12055  31.522  12.653   8.550
 3997POPC   C2B12056  31.587  12.596   8.250
 3997POPC   C3B12057  31.604  12.628   7.950
 3997POPC   C4B12058  31.527  12.626   7.650
 3998POPC   NC312059   1.995   5.839   9.450
 3998POPC   PO412060   1.966   5.874   9.150
 3998POPC   GL112061   2.016   5.880   8.850
 3998POPC   GL212062   2.071   5.735   8.850
 3998POPC   C1A12063   1.961   5.868   8.550
 3998POPC   D2A12064   2.040   5.912   8.250
 3998POPC   C3A12065   1.956   5.914   7.950
 3998POPC   C4A12066   1.985   5.902   7.650
 3998POPC   C1B12067   2.195   5.665   8.550
 3998POPC   C2B12068   2.190   5.693   8.250
 3998POPC   C3B12069   2.131   5.680   7.950
 3998POPC   C4B12070   2.121   5.727   7.650
 3999POPC   NC312071  25.277   8.208   9.450
 3999POPC   PO412072  25.289   8.182   9.150
 3999POPC   GL112073  25.226   8.149   8.850
 3999POPC   GL212074  25.254   8.107   8.850
 3999POPC   C1A12075  25.230   8.193   8.550
 3999POPC   D2A12076  25.227   8.239   8.250
 3999POPC   C3A12077  25.280   8.155   7.950
 3999POPC   C4A12078  25.232   8.183   7.650
 3999POPC   C1B12079  25.369   8.006   8.550
 3999POPC   C2B12080  25.350   8.000   8.250
 3999POPC   C3B12081  25.320   7.910   7.950
 3999POPC   C4B12082  25.383   7.967   7.650
 4000POPC   NC312083  21.370   5.140   9.450
 4000POPC   PO412084  21.354   5.134   9.150
 4000POPC   GL112085  21.338   5.078   8.850
 4000POPC   GL212086  21.296   5.099   8.850
 4000POPC   C1A12087  21.340   5.067   8.550
 4000POPC   D2A12088  21.357   5.128   8.250
 4000POPC   C3A12089  21.424   5.115   7.950
 4000POPC   C4A12090  21.381   5.055   7.650
 4000POPC   C1B12091  21.105   5.082   8.550
 4000POPC   C2B12092  21.163   5.057   8.250
 4000POPC   C3B12093  21.133   5.061   7.950
 4000POPC   C4B12094  21.121   5.079   7.650
 4001POPC   NC312095  26.022  22.210   9.450
 4001POPC   PO412096  26.062  22.197   9.150
 4001POPC   GL112097  26.027  22.157   8.850
 4001POPC   GL212098  26.009  22.013   8.850
 4001POPC   C1A12099  26.014  22.148   8.550
 4001POPC   D2A12100  26.076  22.167   8.250
 4001POPC   C3A12101  26.008  22.159   7.950
 4001POPC   C4A12102  26.038  22.155   7.650
 4001POPC   C1B12103  26.002  21.924   8.550
 4001POPC   C2B12104  25.990  21.933   8.250
 4001POPC   C3B12105  25.989  21.949   7.950
 4001POPC   C4B12106  26.042  21.946   7.650
 4002POPC   NC312107   9.722  30.734   9.450
 4002POPC   PO412108   9.715  30.653   9.150
 4002POPC   GL112109   9.741  30.742   8.850
 4002POPC   GL212110   9.793  30.644   8.850
 4002POPC   C1A12111   9.756  30.661   8.550
 4002POPC   D2A12112   9.759  30.699   8.250
 4002POPC   C3A12113   9.796  30.719   7.950
 4002POPC   C4A12114   9.702  30.651   7.650
 4002POPC   C1B12115   9.880  30.499   8.550
 4002POPC   C2B12116   9.951  30.538   8.250
 4002POPC   C3B12117   9.921  30.556   7.950
 4002POPC   C4B12118   9.960  30.472   7.650
 4003POPC   NC312119  12.864  11.311   9.450
 4003POPC   PO412120  12.890  11.347   9.150
 4003POPC   GL112121  12.854  11.334   8.850
 4003POPC   GL212122  12.982  11.369   8.850
 4003POPC   C1A12123  12.827  11.290   8.550
 4003POPC   D2A12124  12.885  11.334   8.250
 4003POPC   C3A12125  12.878  11.284   7.950
 4003POPC   C4A12126  12.849  11.257   7.650
 4003POPC   C1B12127  13.051  11.378   8.550
 4003POPC   C2B12128  13.144  11.365   8.250
 4003POPC   C3B12129  13.123  11.404   7.950
 4003POPC   C4B12130  13.062  11.370   7.650
 4004POPC   NC312131  18.320  21.425   9.450
 4004POPC   PO412132  18.237  21.434   9.150
 4004POPC   GL112133  18.330  21.430   8.850
 4004POPC   GL212134  18.455  21.422   8.850
 4004POPC   C1A12135  18.289  21.391   8.550
 4004POPC   D2A12136  18.256  21.348   8.250
 4004POPC   C3A12137  18.237  21.375   7.950
 4004POPC   C4A12138  18.301  21.383   7.650
 4004POPC   C1B12139  18.570  21.407   8.550
 4004POPC   C2B12140  18.512  21.442   8.250
 4004POPC   C3B12141  18.565  21.398   7.950
 4004POPC   C4B12142  18.496  21.420   7.650
 4005POPC   NC312143  31.471  32.294   9.450
 4005POPC   PO412144  31.430  32.204   9.150
 4005POPC   GL112145  31.452  32.262   8.850
 4005POPC   GL212146  31.533  32.416   8.850
 4005POPC   C1A12147  31.484  32.229   8.550
 4005POPC   D2A12148  31.423  32.210   8.250
 4005POPC   C3A12149  31.476  32.251   7.950
 4005POPC   C4A12150  31.489  32.224   7.650
 4005POPC   C1B12151  31.520  32.540   8.550
 4005POPC   C2B12152  31.520  32.487   8.250
 4005POPC   C3B12153  31.568  32.494   7.950
 4005POPC   C4B12154  31.532  32.446   7.650
 4006POPC   NC312155   0.414  36.862   9.450
 4006POPC   PO412156   0.438  36.856   9.150
 4006POPC   GL112157   0.453  36.937   8.850
 4006POPC   GL212158   0.472  36.787   8.850
 4006POPC   C1A12159   0.417  36.943   8.550
 4006POPC   D2A12160   0.440  36.887   8.250
 4006POPC   C3A12161   0.427  36.893   7.950
 4006POPC   C4A12162   0.448  36.875   7.650
 4006POPC   C1B12163   0.488  36.617   8.550
 4006POPC   C2B12164   0.512  36.683   8.250
 4006POPC   C3B12165   0.519  36.625   7.950
 4006POPC   C4B12166   0.493  36.615   7.650
 4007POPC   NC312167   7.425  27.637   9.450
 4007POPC   PO412168   7.441  27.577   9.150
 4007POPC   GL112169   7.395  27.643   8.850
 4007POPC   GL212170   7.396  27.744   8.850
 4007POPC   C1A12171   7.437  27.600   8.550
 4007POPC   D2A12172   7.382  27.604   8.250
 4007POPC   C3A12173   7.467  27.633   7.950
 4007POPC   C4A12174   7.445  27.561   7.650
 4007POPC   C1B12175   7.407  27.856   8.550
 4007POPC   C2B12176   7.457  27.826   8.250
 4007POPC   C3B12177   7.425  27.825   7.950
 4007POPC   C4B12178   7.455  27.842   7.650
 4008POPC   NC312179   2.807  15.186   9.450
 4008POPC   PO412180   2.751  15.160   9.150
 4008POPC   GL112181   2.764  15.148   8.850
 4008POPC   GL212182   2.641  15.113   8.850
 4008POPC   C1A12183   2.786  15.147   8.550
 4008POPC   D2A12184   2.804  15.210   8.250
 4008POPC   C3A12185   2.753  15.216   7.950
 4008POPC   C4A12186   2.789  15.184   7.650
 4008POPC   C1B12187   2.545  15.038   8.550
 4008POPC   C2B12188   2.581  15.093   8.250
 4008POPC   C3B12189   2.544  15.028   7.950
 4008POPC   C4B12190   2.577  15.081   7.650
 4009POPC   NC312191  10.529  38.448   9.450
 4009POPC   PO412192  10.520  38.457   9.150
 4009POPC   GL112193  10.553  38.422   8.850
 4009POPC   GL212194  10.611  38.535   8.850
 4009POPC   C1A12195  10.541  38.477   8.550
 4009POPC   D2A12196  10.538  38.476   8.250
 4009POPC   C3A12197  10.486  38.473   7.950
 4009POPC   C4A12198  10.532  38.469   7.650
 4009POPC   C1B12199  10.702  38.592   8.550
 4009POPC   C2B12200  10.730  38.665   8.250
 4009POPC   C3B12201  10.711  38.606   7.950
 4009POPC   C4B12202  10.761  38.639   7.650
 4010POPC   NC312203  26.824   4.332   9.450
 4010POPC   PO412204  26.829   4.317   9.150
 4010POPC   GL112205  26.822   4.341   8.850
 4010POPC   GL212206  26.871   4.453   8.850
 4010POPC   C1A12207  26.769   4.324   8.550
 4010POPC   D2A12208  26.823   4.355   8.250
 4010POPC   C3A12209  26.790   4.295   7.950
 4010POPC   C4A12210  26.773   4.363   7.650
 4010POPC   C1B12211  26.904   4.610   8.550
 4010POPC   C2B12212  26.895   4.556   8.250
 4010POPC   C3B12213  26.859   4.535   7.950
 4010POPC   C4B12214  26.822   4.547   7.650
 4011POPC   NC312215  29.871  20.601   9.450
 4011POPC   PO412216  29.873  20.607   9.150
 4011POPC   GL112217  29.965  20.622   8.850
 4011POPC   GL212218  29.997  20.660   8.850
 4011POPC   C1A12219  29.883  20.637   8.550
 4011POPC   D2A12220  29.919  20.591   8.250
 4011POPC   C3A12221  29.897  20.576   7.950
 4011POPC   C4A12222  29.931  20.594   7.650
 4011POPC   C1B12223  30.151  20.623   8.550
 4011POPC   C2B12224  30.184  20.685   8.250
 4011POPC   C3B12225  30.183  20.709   7.950
 4011POPC   C4B12226  30.184  20.622   7.650
 4012POPC   NC312227  43.112  17.556   9.450
 4012POPC   PO412228  43.106  17.513   9.150
 4012POPC   GL112229  43.131  17.529   8.850
 4012POPC   GL212230  43.087  17.407   8.850
 4012POPC   C1A12231  43.066  17.539   8.550
 4012POPC   D2A12232  43.087  17.495   8.250
 4012POPC   C3A12233  43.066  17.467   7.950
 4012POPC   C4A12234  43.147  17.460   7.650
 4012POPC   C1B12235  43.001  17.265   8.550
 4012POPC   C2B12236  42.938  17.307   8.250
 4012POPC   C3B12237  43.011  17.298   7.950
 4012POPC   C4B12238  42.961  17.296   7.650
 4013POPC   NC312239  25.283  31.509   9.450
 4013POPC   PO412240  25.272  31.443   9.150
 4013POPC   GL112241  25.244  31.452   8.850
 4013POPC   GL212242  25.315  31.524   8.850
 4013POPC   C1A12243  25.272  31.500   8.550
 4013POPC   D2A12244  25.259  31.430   8.250
 4013POPC   C3A12245  25.275  31.499   7.950
 4013POPC   C4A12246  25.218  31.462   7.650
 4013POPC   C1B12247  25.445  31.596   8.550
 4013POPC   C2B12248  25.454  31.589   8.250
 4013POPC   C3B12249  25.502  31.653   7.950
 4013POPC   C4B12250  25.421  31.656   7.650
 4014POPC   NC312251  30.730  44.701   9.450
 4014POPC   PO412252  30.708  44.649   9.150
 4014POPC   GL112253  30.695  44.659   8.850
 4014POPC   GL212254  30.651  44.586   8.850
 4014POPC   C1A12255  30.688  44.707   8.550
 4014POPC   D2A12256  30.692  44.615   8.250
 4014POPC   C3A12257  30.701  44.681   7.950
 4014POPC   C4A12258  30.729  44.638   7.650
 4014POPC   C1B12259  30.649  44.410   8.550
 4014POPC   C2B12260  30.680  44.457   8.250
 4014POPC   C3B12261  30.694  44.409   7.950
 4014POPC   C4B12262  30.680  44.373   7.650
 4015POPC   NC312263  16.743  28.350   9.450
 4015POPC   PO412264  16.709  28.369   9.150
 4015POPC   GL112265  16.710  28.385   8.850
 4015POPC   GL212266  16.713  28.222   8.850
 4015POPC   C1A12267  16.753  28.343   8.550
 4015POPC   D2A12268  16.750  28.400   8.250
 4015POPC   C3A12269  16.736  28.359   7.950
 4015POPC   C4A12270  16.681  28.368   7.650
 4015POPC   C1B12271  16.793  28.121   8.550
 4015POPC   C2B12272  16.805  28.098   8.250
 4015POPC   C3B12273  16.810  28.139   7.950
 4015POPC   C4B12274  16.739  28.105   7.650
 4016POPC   NC312275  20.608  22.889   9.450
 4016POPC   PO412276  20.624  22.973   9.150
 4016POPC   GL112277  20.631  22.959   8.850
 4016POPC   GL212278  20.673  22.929   8.850
 4016POPC   C1A12279  20.577  22.894   8.550
 4016POPC   D2A12280  20.632  22.932   8.250
 4016POPC   C3A12281  20.622  22.908   7.950
 4016POPC   C4A12282  20.649  22.902   7.650
 4016POPC   C1B12283  20.820  22.813   8.550
 4016POPC   C2B12284  20.834  22.792   8.250
 4016POPC   C3B12285  20.841  22.873   7.950
 4016POPC   C4B12286  20.847  22.815   7.650
 4017POPC   NC312287  31.493  22.940   9.450
 4017POPC   PO412288  31.491  22.948   9.150
 4017POPC   GL112289  31.423  22.921   8.850
 4017POPC   GL212290  31.639  22.937   8.850
 4017POPC   C1A12291  31.522  22.984   8.550
 4017POPC   D2A12292  31.518  22.971   8.250
 4017POPC   C3A12293  31.507  22.967   7.950
 4017POPC   C4A12294  31.428  22.950   7.650
 4017POPC   C1B12295  31.673  23.058   8.550
 4017POPC   C2B12296  31.701  23.008   8.250
 4017POPC   C3B12297  31.679  23.045   7.950
 4017POPC   C4B12298  31.736  23.001   7.650
 4018POPC   NC312299  19.803  17.523   9.450
 4018POPC   PO412300  19.832  17.545   9.150
 4018POPC   GL112301  19.827  17.489   8.850
 4018POPC   GL212302  19.737  17.508   8.850
 4018POPC   C1A12303  19.880  17.505   8.550
 4018POPC   D2A12304  19.799  17.487   8.250
 4018POPC   C3A12305  19.819  17.534   7.950
 4018POPC   C4A12306  19.842  17.485   7.650
 4018POPC   C1B12307  19.552  17.611   8.550
 4018POPC   C2B12308  19.578  17.607   8.250
 4018POPC   C3B12309  19.578  17.555   7.950
 4018POPC   C4B12310  19.625  17.621   7.650
 4019POPC   NC312311  28.361  32.200   9.450
 4019POPC   PO412312  28.343  32.217   9.150
 4019POPC   GL112313  28.328  32.227   8.850
 4019POPC   GL212314  28.293  32.320   8.850
 4019POPC   C1A12315  28.354  32.236   8.550
 4019POPC   D2A12316  28.354  32.268   8.250
 4019POPC   C3A12317  28.417  32.264   7.950
 4019POPC   C4A12318  28.365  32.283   7.650
 4019POPC   C1B12319  28.101  32.355   8.550
 4019POPC   C2B12320  28.104  32.336   8.250
 4019POPC   C3B12321  28.161  32.272   7.950
 4019POPC   C4B12322  28.112  32.271   7.650
 4020POPC   NC312323   1.179  42.382   9.450
 4020POPC   PO412324   1.200  42.312   9.150
 4020POPC   GL112325   1.203  42.304   8.850
 4020POPC   GL212326   1.203  42.199   8.850
 4020POPC   C1A12327   1.179  42.335   8.550
 4020POPC   D2A12328   1.168  42.316   8.250
 4020POPC   C3A12329   1.207  42.285   7.950
 4020POPC   C4A12330   1.232  42.308   7.650
 4020POPC   C1B12331   1.258  42.090   8.550
 4020POPC   C2B12332   1.242  42.070   8.250
 4020POPC   C3B12333   1.245  42.105   7.950
 4020POPC   C4B12334   1.236  42.089   7.650
 4021POPC   NC312335   6.611   7.459   9.450
 4021POPC   PO412336   6.674   7.458   9.150
 4021POPC   GL112337   6.603   7.410   8.850
 4021POPC   GL212338   6.479   7.487   8.850
 4021POPC   C1A12339   6.607   7.464   8.550
 4021POPC   D2A12340   6.623   7.372   8.250
 4021POPC   C3A12341   6.650   7.394   7.950
 4021POPC   C4A12342   6.619   7.400   7.650
 4021POPC   C1B12343   6.410   7.509   8.550
 4021POPC   C2B12344   6.424   7.434   8.250
 4021POPC   C3B12345   6.418   7.451   7.950
 4021POPC   C4B12346   6.412   7.503   7.650
 4022POPC   NC312347  40.772   5.111   9.450
 4022POPC   PO412348  40.826   5.073   9.150
 4022POPC   GL112349  40.736   5.108   8.850
 4022POPC   GL212350  40.914   5.009   8.850
 4022POPC   C1A12351  40.745   5.057   8.550
 4022POPC   D2A12352  40.803   5.059   8.250
 4022POPC   C3A12353  40.773   5.093   7.950
 4022POPC   C4A12354  40.815   5.065   7.650
 4022POPC   C1B12355  41.004   4.974   8.550
 4022POPC   C2B12356  41.017   5.040   8.250
 4022POPC   C3B12357  41.038   5.020   7.950
 4022POPC   C4B12358  41.034   5.030   7.650
 4023POPC   NC312359  16.685  14.377   9.450
 4023POPC   PO412360  16.684  14.407   9.150
 4023POPC   GL112361  16.719  14.361   8.850
 4023POPC   GL212362  16.731  14.289   8.850
 4023POPC   C1A12363  16.746  14.449   8.550
 4023POPC   D2A12364  16.745  14.376   8.250
 4023POPC   C3A12365  16.710  14.449   7.950
 4023POPC   C4A12366  16.731  14.449   7.650
 4023POPC   C1B12367  16.622  14.179   8.550
 4023POPC   C2B12368  16.635  14.154   8.250
 4023POPC   C3B12369  16.648  14.141   7.950
 4023POPC   C4B12370  16.609  14.136   7.650
 4024POPC   NC312371  22.138  10.570   9.450
 4024POPC   PO412372  22.173  10.531   9.150
 4024POPC   GL112373  22.188  10.484   8.850
 4024POPC   GL212374  22.289  10.576   8.850
 4024POPC   C1A12375  22.138  10.573   8.550
 4024POPC   D2A12376  22.133  10.505   8.250
 4024POPC   C3A12377  22.146  10.514   7.950
 4024POPC   C4A12378  22.198  10.477   7.650
 4024POPC   C1B12379  22.422  10.506   8.550
 4024POPC   C2B12380  22.367  10.553   8.250
 4024POPC   C3B12381  22.408  10.577   7.950
 4024POPC   C4B12382  22.412  10.519   7.650
 4025POPC   NC312383   1.979  38.479   9.450
 4025POPC   PO412384   1.977  38.458   9.150
 4025POPC   GL112385   1.970  38.434   8.850
 4025POPC   GL212386   1.955  38.620   8.850
 4025POPC   C1A12387   2.035  38.491   8.550
 4025POPC   D2A12388   2.036  38.486   8.250
 4025POPC   C3A12389   1.950  38.421   7.950
 4025POPC   C4A12390   2.006  38.418   7.650
 4025POPC   C1B12391   1.999  38.708   8.550
 4025POPC   C2B12392   1.985  38.727   8.250
 4025POPC   C3B12393   1.980  38.739   7.950
 4025POPC   C4B12394   1.910  38.718   7.650
 4026POPC   NC312395  25.289  12.095   9.450
 4026POPC   PO412396  25.258  12.113   9.150
 4026POPC   GL112397  25.225  12.116   8.850
 4026POPC   GL212398  25.348  12.167   8.850
 4026POPC   C1A12399  25.229  12.051   8.550
 4026POPC   D2A12400  25.310  12.063   8.250
 4026POPC   C3A12401  25.284  12.082   7.950
 4026POPC   C4A12402  25.293  12.057   7.650
 4026POPC   C1B12403  25.332  12.281   8.550
 4026POPC   C2B12404  25.357  12.283   8.250
 4026POPC   C3B12405  25.344  12.323   7.950
 4026POPC   C4B12406  25.399  12.256   7.650
 4027POPC   NC312407  39.970  32.298   9.450
 4027POPC   PO412408  40.011  32.228   9.150
 4027POPC   GL112409  40.035  32.245   8.850
 4027POPC   GL212410  39.851  32.267   8.850
 4027POPC   C1A12411  39.997  32.210   8.550
 4027POPC   D2A12412  40.026  32.267   8.250
 4027POPC   C3A12413  39.992  32.289   7.950
 4027POPC   C4A12414  40.047  32.270   7.650
 4027POPC   C1B12415  39.761  32.364   8.550
 4027POPC   C2B12416  39.810  32.298   8.250
 4027POPC   C3B12417  39.749  32.324   7.950
 4027POPC   C4B12418  39.812  32.345   7.650
 4028POPC   NC312419  36.924  26.063   9.450
 4028POPC   PO412420  36.887  26.028   9.150
 4028POPC   GL112421  36.876  26.085   8.850
 4028POPC   GL212422  36.924  26.110   8.850
 4028POPC   C1A12423  36.862  26.087   8.550
 4028POPC   D2A12424  36.878  26.085   8.250
 4028POPC   C3A12425  36.950  26.079   7.950
 4028POPC   C4A12426  36.897  26.090   7.650
 4028POPC   C1B12427  37.059  26.261   8.550
 4028POPC   C2B12428  37.019  26.219   8.250
 4028POPC   C3B12429  36.981  26.284   7.950
 4028POPC   C4B12430  37.047  26.243   7.650
 4029POPC   NC312431  36.089   3.591   9.450
 4029POPC   PO412432  36.151   3.538   9.150
 4029POPC   GL112433  36.100   3.496   8.850
 4029POPC   GL212434  36.001   3.471   8.850
 4029POPC   C1A12435  36.122   3.501   8.550
 4029POPC   D2A12436  36.111   3.589   8.250
 4029POPC   C3A12437  36.122   3.498   7.950
 4029POPC   C4A12438  36.164   3.586   7.650
 4029POPC   C1B12439  35.994   3.364   8.550
 4029POPC   C2B12440  35.925   3.310   8.250
 4029POPC   C3B12441  35.976   3.314   7.950
 4029POPC   C4B12442  35.925   3.305   7.650
 4030POPC   NC312443   3.562  17.534   9.450
 4030POPC   PO412444   3.501  17.533   9.150
 4030POPC   GL112445   3.533  17.522   8.850
 4030POPC   GL212446   3.586  17.631   8.850
 4030POPC   C1A12447   3.512  17.495   8.550
 4030POPC   D2A12448   3.527  17.552   8.250
 4030POPC   C3A12449   3.554  17.458   7.950
 4030POPC   C4A12450   3.530  17.509   7.650
 4030POPC   C1B12451   3.588  17.792   8.550
 4030POPC   C2B12452   3.559  17.758   8.250
 4030POPC   C3B12453   3.627  17.721   7.950
 4030POPC   C4B12454   3.570  17.720   7.650
 4031POPC   NC312455  43.917  40.784   9.450
 4031POPC   PO412456  43.840  40.785   9.150
 4031POPC   GL112457  43.872  40.819   8.850
 4031POPC   GL212458  43.801  40.843   8.850
 4031POPC   C1A12459  43.848  40.743   8.550
 4031POPC   D2A12460  43.927  40.755   8.250
 4031POPC   C3A12461  43.886  40.799   7.950
 4031POPC   C4A12462  43.936  40.765   7.650
 4031POPC   C1B12463  43.734  40.976   8.550
 4031POPC   C2B12464  43.728  41.019   8.250
 4031POPC   C3B12465  43.719  40.980   7.950
 4031POPC   C4B12466  43.696  40.980   7.650
 4032POPC   NC312467  21.343  28.323   9.450
 4032POPC   PO412468  21.348  28.409   9.150
 4032POPC   GL112469  21.418  28.372   8.850
 4032POPC   GL212470  21.525  28.425   8.850
 4032POPC   C1A12471  21.414  28.355   8.550
 4032POPC   D2A12472  21.412  28.320   8.250
 4032POPC   C3A12473  21.343  28.337   7.950
 4032POPC   C4A12474  21.354  28.377   7.650
 4032POPC   C1B12475  21.597  28.442   8.550
 4032POPC   C2B12476  21.631  28.441   8.250
 4032POPC   C3B12477  21.634  28.478   7.950
 4032POPC   C4B12478  21.641  28.428   7.650
 4033POPC   NC312479  41.553   5.901   9.450
 4033POPC   PO412480  41.535   5.841   9.150
 4033POPC   GL112481  41.564   5.884   8.850
 4033POPC   GL212482  41.654   5.948   8.850
 4033POPC   C1A12483  41.597   5.870   8.550
 4033POPC   D2A12484  41.566   5.859   8.250
 4033POPC   C3A12485  41.548   5.885   7.950
 4033POPC   C4A12486  41.513   5.863   7.650
 4033POPC   C1B12487  41.691   6.026   8.550
 4033POPC   C2B12488  41.777   6.061   8.250
 4033POPC   C3B12489  41.747   6.065   7.950
 4033POPC   C4B12490  41.756   6.091   7.650
 4034POPC   NC312491  15.941  19.859   9.450
 4034POPC   PO412492  15.994  19.838   9.150
 4034POPC   GL112493  15.905  19.792   8.850
 4034POPC   GL212494  15.838  19.941   8.850
 4034POPC   C1A12495  15.959  19.836   8.550
 4034POPC   D2A12496  15.991  19.814   8.250
 4034POPC   C3A12497  15.999  19.858   7.950
 4034POPC   C4A12498  15.909  19.825   7.650
 4034POPC   C1B12499  15.756  20.072   8.550
 4034POPC   C2B12500  15.760  19.996   8.250
 4034POPC   C3B12501  15.830  20.080   7.950
 4034POPC   C4B12502  15.767  20.029   7.650
 4035POPC   NC312503   6.692  28.386   9.450
 4035POPC   PO412504   6.680  28.326   9.150
 4035POPC   GL112505   6.643  28.344   8.850
 4035POPC   GL212506   6.527  28.327   8.850
 4035POPC   C1A12507   6.637  28.341   8.550
 4035POPC   D2A12508   6.628  28.361   8.250
 4035POPC   C3A12509   6.671  28.380   7.950
 4035POPC   C4A12510   6.642  28.350   7.650
 4035POPC   C1B12511   6.379  28.333   8.550
 4035POPC   C2B12512   6.427  28.340   8.250
 4035POPC   C3B12513   6.409  28.354   7.950
 4035POPC   C4B12514   6.411  28.317   7.650
 4036POPC   NC312515  12.121  14.451   9.450
 4036POPC   PO412516  12.071  14.374   9.150
 4036POPC   GL112517  12.091  14.376   8.850
 4036POPC   GL212518  12.069  14.319   8.850
 4036POPC   C1A12519  12.063  14.420   8.550
 4036POPC   D2A12520  12.032  14.362   8.250
 4036POPC   C3A12521  12.034  14.399   7.950
 4036POPC   C4A12522  12.085  14.405   7.650
 4036POPC   C1B12523  11.988  14.197   8.550
 4036POPC   C2B12524  12.016  14.145   8.250
 4036POPC   C3B12525  12.048  14.139   7.950
 4036POPC   C4B12526  12.082  14.178   7.650
 4037POPC   NC312527  11.318   7.461   9.450
 4037POPC   PO412528  11.273   7.413   9.150
 4037POPC   GL112529  11.288   7.386   8.850
 4037POPC   GL212530  11.388   7.490   8.850
 4037POPC   C1A12531  11.346   7.404   8.550
 4037POPC   D2A12532  11.341   7.465   8.250
 4037POPC   C3A12533  11.276   7.449   7.950
 4037POPC   C4A12534  11.350   7.430   7.650
 4037POPC   C1B12535  11.484   7.661   8.550
 4037POPC   C2B12536  11.429   7.576   8.250
 4037POPC   C3B12537  11.421   7.662   7.950
 4037POPC   C4B12538  11.400   7.592   7.650
 4038POPC   NC312539  40.734  20.601   9.450
 4038POPC   PO412540  40.753  20.567   9.150
 4038POPC   GL112541  40.776  20.612   8.850
 4038POPC   GL212542  40.909  20.589   8.850
 4038POPC   C1A12543  40.828  20.612   8.550
 4038POPC   D2A12544  40.736  20.631   8.250
 4038POPC   C3A12545  40.804  20.575   7.950
 4038POPC   C4A12546  40.817  20.645   7.650
 4038POPC   C1B12547  41.045  20.691   8.550
 4038POPC   C2B12548  41.072  20.598   8.250
 4038POPC   C3B12549  40.992  20.692   7.950
 4038POPC   C4B12550  41.039  20.602   7.650
 4039POPC   NC312551  22.916   5.879   9.450
 4039POPC   PO412552  22.904   5.839   9.150
 4039POPC   GL112553  22.983   5.863   8.850
 4039POPC   GL212554  22.859   5.983   8.850
 4039POPC   C1A12555  22.976   5.914   8.550
 4039POPC   D2A12556  22.928   5.883   8.250
 4039POPC   C3A12557  22.917   5.855   7.950
 4039POPC   C4A12558  22.959   5.903   7.650
 4039POPC   C1B12559  22.754   6.062   8.550
 4039POPC   C2B12560  22.786   6.038   8.250
 4039POPC   C3B12561  22.774   6.024   7.950
 4039POPC   C4B12562  22.727   6.077   7.650
 4040POPC   NC312563  40.789   7.433   9.450
 4040POPC   PO412564  40.775   7.457   9.150
 4040POPC   GL112565  40.737   7.374   8.850
 4040POPC   GL212566  40.704   7.387   8.850
 4040POPC   C1A12567  40.811   7.410   8.550
 4040POPC   D2A12568  40.794   7.393   8.250
 4040POPC   C3A12569  40.827   7.382   7.950
 4040POPC   C4A12570  40.819   7.432   7.650
 4040POPC   C1B12571  40.534   7.306   8.550
 4040POPC   C2B12572  40.540   7.380   8.250
 4040POPC   C3B12573  40.581   7.391   7.950
 4040POPC   C4B12574  40.546   7.347   7.650
 4041POPC   NC312575  10.499  36.864   9.450
 4041POPC   PO412576  10.549  36.932   9.150
 4041POPC   GL112577  10.561  36.864   8.850
 4041POPC   GL212578  10.406  37.040   8.850
 4041POPC   C1A12579  10.476  36.857   8.550
 4041POPC   D2A12580  10.490  36.929   8.250
 4041POPC   C3A12581  10.569  36.893   7.950
 4041POPC   C4A12582  10.512  36.873   7.650
 4041POPC   C1B12583  10.384  37.112   8.550
 4041POPC   C2B12584  10.335  37.098   8.250
 4041POPC   C3B12585  10.344  37.059   7.950
 4041POPC   C4B12586  10.360  37.068   7.650
 4042POPC   NC312587   0.477  44.644   9.450
 4042POPC   PO412588   0.417  44.680   9.150
 4042POPC   GL112589   0.462  44.626   8.850
 4042POPC   GL212590   0.432  44.777   8.850
 4042POPC   C1A12591   0.466  44.694   8.550
 4042POPC   D2A12592   0.415  44.702   8.250
 4042POPC   C3A12593   0.443  44.654   7.950
 4042POPC   C4A12594   0.432  44.620   7.650
 4042POPC   C1B12595   0.509  44.898   8.550
 4042POPC   C2B12596   0.501  44.913   8.250
 4042POPC   C3B12597   0.471  44.888   7.950
 4042POPC   C4B12598   0.507  44.865   7.650
 4043POPC   NC312599   9.743  37.689   9.450
 4043POPC   PO412600   9.770  37.686   9.150
 4043POPC   GL112601   9.739  37.683   8.850
 4043POPC   GL212602   9.616  37.770   8.850
 4043POPC   C1A12603   9.764  37.643   8.550
 4043POPC   D2A12604   9.793  37.723   8.250
 4043POPC   C3A12605   9.758  37.643   7.950
 4043POPC   C4A12606   9.759  37.664   7.650
 4043POPC   C1B12607   9.535  37.873   8.550
 4043POPC   C2B12608   9.596  37.848   8.250
 4043POPC   C3B12609   9.522  37.855   7.950
 4043POPC   C4B12610   9.592  37.885   7.650
 4044POPC   NC312611  19.086  15.208   9.450
 4044POPC   PO412612  19.037  15.197   9.150
 4044POPC   GL112613  19.010  15.210   8.850
 4044POPC   GL212614  19.170  15.234   8.850
 4044POPC   C1A12615  19.085  15.145   8.550
 4044POPC   D2A12616  19.089  15.195   8.250
 4044POPC   C3A12617  19.084  15.150   7.950
 4044POPC   C4A12618  19.061  15.218   7.650
 4044POPC   C1B12619  19.193  15.356   8.550
 4044POPC   C2B12620  19.286  15.339   8.250
 4044POPC   C3B12621  19.208  15.400   7.950
 4044POPC   C4B12622  19.254  15.365   7.650
 4045POPC   NC312623  22.209  11.286   9.450
 4045POPC   PO412624  22.202  11.266   9.150
 4045POPC   GL112625  22.118  11.296   8.850
 4045POPC   GL212626  22.224  11.222   8.850
 4045POPC   C1A12627  22.173  11.350   8.550
 4045POPC   D2A12628  22.153  11.334   8.250
 4045POPC   C3A12629  22.124  11.344   7.950
 4045POPC   C4A12630  22.125  11.327   7.650
 4045POPC   C1B12631  22.329  11.137   8.550
 4045POPC   C2B12632  22.413  11.143   8.250
 4045POPC   C3B12633  22.377  11.197   7.950
 4045POPC   C4B12634  22.389  11.163   7.650
 4046POPC   NC312635  28.391  40.057   9.450
 4046POPC   PO412636  28.329  39.982   9.150
 4046POPC   GL112637  28.361  39.959   8.850
 4046POPC   GL212638  28.531  40.070   8.850
 4046POPC   C1A12639  28.365  40.003   8.550
 4046POPC   D2A12640  28.360  39.996   8.250
 4046POPC   C3A12641  28.375  40.041   7.950
 4046POPC   C4A12642  28.400  40.018   7.650
 4046POPC   C1B12643  28.586  40.008   8.550
 4046POPC   C2B12644  28.568  40.094   8.250
 4046POPC   C3B12645  28.662  40.084   7.950
 4046POPC   C4B12646  28.621  40.051   7.650
 4047POPC   NC312647  17.503   1.955   9.450
 4047POPC   PO412648  17.554   2.022   9.150
 4047POPC   GL112649  17.542   1.975   8.850
 4047POPC   GL212650  17.557   1.896   8.850
 4047POPC   C1A12651  17.471   2.017   8.550
 4047POPC   D2A12652  17.462   1.975   8.250
 4047POPC   C3A12653  17.542   1.997   7.950
 4047POPC   C4A12654  17.494   1.977   7.650
 4047POPC   C1B12655  17.498   1.719   8.550
 4047POPC   C2B12656  17.505   1.774   8.250
 4047POPC   C3B12657  17.473   1.693   7.950
 4047POPC   C4B12658  17.549   1.767   7.650
 4048POPC   NC312659   5.124  30.711   9.450
 4048POPC   PO412660   5.089  30.740   9.150
 4048POPC   GL112661   5.053  30.698   8.850
 4048POPC   GL212662   4.966  30.786   8.850
 4048POPC   C1A12663   5.107  30.666   8.550
 4048POPC   D2A12664   5.082  30.685   8.250
 4048POPC   C3A12665   5.049  30.705   7.950
 4048POPC   C4A12666   5.121  30.699   7.650
 4048POPC   C1B12667   4.877  30.811   8.550
 4048POPC   C2B12668   4.856  30.886   8.250
 4048POPC   C3B12669   4.888  30.901   7.950
 4048POPC   C4B12670   4.908  30.828   7.650
 4049POPC   NC312671  10.493  40.053   9.450
 4049POPC   PO412672  10.489  40.039   9.150
 4049POPC   GL112673  10.538  40.004   8.850
 4049POPC   GL212674  10.664  40.010   8.850
 4049POPC   C1A12675  10.525  40.043   8.550
 4049POPC   D2A12676  10.562  40.007   8.250
 4049POPC   C3A12677  10.510  40.043   7.950
 4049POPC   C4A12678  10.560  39.980   7.650
 4049POPC   C1B12679  10.728  40.100   8.550
 4049POPC   C2B12680  10.775  40.135   8.250
 4049POPC   C3B12681  10.780  40.063   7.950
 4049POPC   C4B12682  10.782  40.042   7.650
 4050POPC   NC312683   9.765  11.259   9.450
 4050POPC   PO412684   9.699  11.339   9.150
 4050POPC   GL112685   9.724  11.322   8.850
 4050POPC   GL212686   9.879  11.331   8.850
 4050POPC   C1A12687   9.750  11.289   8.550
 4050POPC   D2A12688   9.765  11.342   8.250
 4050POPC   C3A12689   9.738  11.293   7.950
 4050POPC   C4A12690   9.704  11.311   7.650
 4050POPC   C1B12691  10.000  11.261   8.550
 4050POPC   C2B12692   9.953  11.321   8.250
 4050POPC   C3B12693  10.043  11.334   7.950
 4050POPC   C4B12694  10.029  11.336   7.650
 4051POPC   NC312695  29.186  20.641   9.450
 4051POPC   PO412696  29.127  20.639   9.150
 4051POPC   GL112697  29.190  20.619   8.850
 4051POPC   GL212698  29.128  20.533   8.850
 4051POPC   C1A12699  29.132  20.635   8.550
 4051POPC   D2A12700  29.096  20.628   8.250
 4051POPC   C3A12701  29.120  20.616   7.950
 4051POPC   C4A12702  29.098  20.650   7.650
 4051POPC   C1B12703  29.100  20.332   8.550
 4051POPC   C2B12704  29.106  20.386   8.250
 4051POPC   C3B12705  29.106  20.382   7.950
 4051POPC   C4B12706  29.122  20.399   7.650
 4052POPC   NC312707   4.325  13.613   9.450
 4052POPC   PO412708   4.364  13.619   9.150
 4052POPC   GL112709   4.360  13.642   8.850
 4052POPC   GL212710   4.285  13.504   8.850
 4052POPC   C1A12711   4.332  13.672   8.550
 4052POPC   D2A12712   4.314  13.629   8.250
 4052POPC   C3A12713   4.270  13.653   7.950
 4052POPC   C4A12714   4.331  13.672   7.650
 4052POPC   C1B12715   4.187  13.420   8.550
 4052POPC   C2B12716   4.222  13.403   8.250
 4052POPC   C3B12717   4.184  13.451   7.950
 4052POPC   C4B12718   4.144  13.450   7.650
 4053POPC   NC312719  33.070   7.438   9.450
 4053POPC   PO412720  32.988   7.394   9.150
 4053POPC   GL112721  32.980   7.458   8.850
 4053POPC   GL212722  33.135   7.367   8.850
 4053POPC   C1A12723  33.072   7.464   8.550
 4053POPC   D2A12724  33.072   7.407   8.250
 4053POPC   C3A12725  32.991   7.426   7.950
 4053POPC   C4A12726  32.975   7.393   7.650
 4053POPC   C1B12727  33.259   7.336   8.550
 4053POPC   C2B12728  33.276   7.382   8.250
 4053POPC   C3B12729  33.305   7.386   7.950
 4053POPC   C4B12730  33.282   7.340   7.650
 4054POPC   NC312731  36.128  38.413   9.450
 4054POPC   PO412732  36.098  38.460   9.150
 4054POPC   GL112733  36.151  38.470   8.850
 4054POPC   GL212734  36.034  38.384   8.850
 4054POPC   C1A12735  36.104  38.490   8.550
 4054POPC   D2A12736  36.141  38.471   8.250
 4054POPC   C3A12737  36.141  38.499   7.950
 4054POPC   C4A12738  36.162  38.420   7.650
 4054POPC   C1B12739  35.892  38.322   8.550
 4054POPC   C2B12740  35.909  38.363   8.250
 4054POPC   C3B12741  35.925  38.303   7.950
 4054POPC   C4B12742  35.926  38.300   7.650
 4055POPC   NC312743   9.764  41.606   9.450
 4055POPC   PO412744   9.795  41.602   9.150
 4055POPC   GL112745   9.721  41.511   8.850
 4055POPC   GL212746   9.766  41.700   8.850
 4055POPC   C1A12747   9.727  41.590   8.550
 4055POPC   D2A12748   9.787  41.593   8.250
 4055POPC   C3A12749   9.719  41.533   7.950
 4055POPC   C4A12750   9.747  41.562   7.650
 4055POPC   C1B12751   9.790  41.807   8.550
 4055POPC   C2B12752   9.766  41.799   8.250
 4055POPC   C3B12753   9.846  41.788   7.950
 4055POPC   C4B12754   9.854  41.847   7.650
 4056POPC   NC312755  37.716  43.127   9.450
 4056POPC   PO412756  37.693  43.061   9.150
 4056POPC   GL112757  37.690  43.120   8.850
 4056POPC   GL212758  37.737  43.215   8.850
 4056POPC   C1A12759  37.645  43.148   8.550
 4056POPC   D2A12760  37.664  43.160   8.250
 4056POPC   C3A12761  37.634  43.072   7.950
 4056POPC   C4A12762  37.662  43.075   7.650
 4056POPC   C1B12763  37.861  43.303   8.550
 4056POPC   C2B12764  37.854  43.220   8.250
 4056POPC   C3B12765  37.884  43.281   7.950
 4056POPC   C4B12766  37.913  43.218   7.650
 4057POPC   NC312767   2.744  41.509   9.450
 4057POPC   PO412768   2.749  41.567   9.150
 4057POPC   GL112769   2.811  41.541   8.850
 4057POPC   GL212770   2.693  41.687   8.850
 4057POPC   C1A12771   2.793  41.527   8.550
 4057POPC   D2A12772   2.806  41.515   8.250
 4057POPC   C3A12773   2.751  41.559   7.950
 4057POPC   C4A12774   2.781  41.534   7.650
 4057POPC   C1B12775   2.682  41.837   8.550
 4057POPC   C2B12776   2.653  41.823   8.250
 4057POPC   C3B12777   2.682  41.806   7.950
 4057POPC   C4B12778   2.692  41.806   7.650
 4058POPC   NC312779   5.887  29.138   9.450
 4058POPC   PO412780   5.916  29.118   9.150
 4058POPC   GL112781   5.905  29.142   8.850
 4058POPC   GL212782   5.741  29.068   8.850
 4058POPC   C1A12783   5.826  29.168   8.550
 4058POPC   D2A12784   5.855  29.156   8.250
 4058POPC   C3A12785   5.915  29.138   7.950
 4058POPC   C4A12786   5.918  29.115   7.650
 4058POPC   C1B12787   5.700  28.970   8.550
 4058POPC   C2B12788   5.699  29.008   8.250
 4058POPC   C3B12789   5.642  29.052   7.950
 4058POPC   C4B12790   5.647  28.984   7.650
 4059POPC   NC312791  43.927  34.621   9.450
 4059POPC   PO412792  43.868  34.542   9.150
 4059POPC   GL112793  43.920  34.611   8.850
 4059POPC   GL212794  43.997  34.547   8.850
 4059POPC   C1A12795  43.934  34.577   8.550
 4059POPC   D2A12796  43.880  34.596   8.250
 4059POPC   C3A12797  43.871  34.587   7.950
 4059POPC   C4A12798  43.876  34.560   7.650
 4059POPC   C1B12799  44.132  34.529   8.550
 4059POPC   C2B12800  44.134  34.569   8.250
 4059POPC   C3B12801  44.107  34.586   7.950
 4059POPC   C4B12802  44.156  34.557   7.650
 4060POPC   NC312803  36.159  43.896   9.450
 4060POPC   PO412804  36.137  43.844   9.150
 4060POPC   GL112805  36.178  43.917   8.850
 4060POPC   GL212806  36.031  43.904   8.850
 4060POPC   C1A12807  36.092  43.902   8.550
 4060POPC   D2A12808  36.143  43.883   8.250
 4060POPC   C3A12809  36.105  43.864   7.950
 4060POPC   C4A12810  36.157  43.878   7.650
 4060POPC   C1B12811  35.862  44.034   8.550
 4060POPC   C2B12812  35.886  44.010   8.250
 4060POPC   C3B12813  35.894  44.028   7.950
 4060POPC   C4B12814  35.927  44.022   7.650
 4061POPC   NC312815  14.436  28.349   9.450
 4061POPC   PO412816  14.396  28.339   9.150
 4061POPC   GL112817  14.382  28.328   8.850
 4061POPC   GL212818  14.306  28.286   8.850
 4061POPC   C1A12819  14.407  28.406   8.550
 4061POPC   D2A12820  14.446  28.376   8.250
 4061POPC   C3A12821  14.400  28.335   7.950
 4061POPC   C4A12822  14.430  28.380   7.650
 4061POPC   C1B12823  14.244  28.181   8.550
 4061POPC   C2B12824  14.198  28.186   8.250
 4061POPC   C3B12825  14.199  28.192   7.950
 4061POPC   C4B12826  14.215  28.196   7.650
 4062POPC   NC312827  13.641  33.022   9.450
 4062POPC   PO412828  13.634  33.028   9.150
 4062POPC   GL112829  13.622  32.986   8.850
 4062POPC   GL212830  13.521  33.040   8.850
 4062POPC   C1A12831  13.586  33.025   8.550
 4062POPC   D2A12832  13.660  32.980   8.250
 4062POPC   C3A12833  13.647  33.033   7.950
 4062POPC   C4A12834  13.647  33.031   7.650
 4062POPC   C1B12835  13.338  32.990   8.550
 4062POPC   C2B12836  13.425  32.982   8.250
 4062POPC   C3B12837  13.353  32.967   7.950
 4062POPC   C4B12838  13.428  32.937   7.650
 4063POPC   NC312839  26.056  12.028   9.450
 4063POPC   PO412840  26.078  12.119   9.150
 4063POPC   GL112841  25.995  12.103   8.850
 4063POPC   GL212842  25.990  11.936   8.850
 4063POPC   C1A12843  26.071  12.053   8.550
 4063POPC   D2A12844  26.083  12.056   8.250
 4063POPC   C3A12845  26.090  12.073   7.950
 4063POPC   C4A12846  26.010  12.058   7.650
 4063POPC   C1B12847  25.913  11.897   8.550
 4063POPC   C2B12848  25.864  11.831   8.250
 4063POPC   C3B12849  25.874  11.852   7.950
 4063POPC   C4B12850  25.843  11.922   7.650
 4064POPC   NC312851   2.787   1.962   9.450
 4064POPC   PO412852   2.759   1.959   9.150
 4064POPC   GL112853   2.773   1.950   8.850
 4064POPC   GL212854   2.738   1.896   8.850
 4064POPC   C1A12855   2.771   2.032   8.550
 4064POPC   D2A12856   2.810   1.990   8.250
 4064POPC   C3A12857   2.784   1.987   7.950
 4064POPC   C4A12858   2.765   2.018   7.650
 4064POPC   C1B12859   2.655   1.829   8.550
 4064POPC   C2B12860   2.582   1.819   8.250
 4064POPC   C3B12861   2.566   1.825   7.950
 4064POPC   C4B12862   2.613   1.776   7.650
 4065POPC   NC312863  33.848  15.132   9.450
 4065POPC   PO412864  33.830  15.190   9.150
 4065POPC   GL112865  33.813  15.214   8.850
 4065POPC   GL212866  33.732  15.276   8.850
 4065POPC   C1A12867  33.756  15.152   8.550
 4065POPC   D2A12868  33.816  15.169   8.250
 4065POPC   C3A12869  33.783  15.162   7.950
 4065POPC   C4A12870  33.793  15.150   7.650
 4065POPC   C1B12871  33.596  15.333   8.550
 4065POPC   C2B12872  33.648  15.381   8.250
 4065POPC   C3B12873  33.581  15.353   7.950
 4065POPC   C4B12874  33.634  15.328   7.650
 4066POPC   NC312875  30.647  33.071   9.450
 4066POPC   PO412876  30.714  32.999   9.150
 4066POPC   GL112877  30.678  33.055   8.850
 4066POPC   GL212878  30.734  32.863   8.850
 4066POPC   C1A12879  30.685  33.031   8.550
 4066POPC   D2A12880  30.736  33.050   8.250
 4066POPC   C3A12881  30.733  32.995   7.950
 4066POPC   C4A12882  30.721  33.044   7.650
 4066POPC   C1B12883  30.727  32.790   8.550
 4066POPC   C2B12884  30.796  32.751   8.250
 4066POPC   C3B12885  30.806  32.788   7.950
 4066POPC   C4B12886  30.820  32.829   7.650
 4067POPC   NC312887  44.631  31.476   9.450
 4067POPC   PO412888  44.668  31.481   9.150
 4067POPC   GL112889  44.659  31.471   8.850
 4067POPC   GL212890  44.572  31.366   8.850
 4067POPC   C1A12891  44.617  31.424   8.550
 4067POPC   D2A12892  44.630  31.444   8.250
 4067POPC   C3A12893  44.647  31.492   7.950
 4067POPC   C4A12894  44.697  31.495   7.650
 4067POPC   C1B12895  44.483  31.243   8.550
 4067POPC   C2B12896  44.557  31.218   8.250
 4067POPC   C3B12897  44.504  31.286   7.950
 4067POPC   C4B12898  44.504  31.244   7.650
 4068POPC   NC312899  36.116  14.373   9.450
 4068POPC   PO412900  36.163  14.414   9.150
 4068POPC   GL112901  36.168  14.435   8.850
 4068POPC   GL212902  36.147  14.553   8.850
 4068POPC   C1A12903  36.078  14.417   8.550
 4068POPC   D2A12904  36.134  14.361   8.250
 4068POPC   C3A12905  36.100  14.375   7.950
 4068POPC   C4A12906  36.164  14.415   7.650
 4068POPC   C1B12907  36.244  14.629   8.550
 4068POPC   C2B12908  36.284  14.600   8.250
 4068POPC   C3B12909  36.260  14.627   7.950
 4068POPC   C4B12910  36.223  14.571   7.650
 4069POPC   NC312911   2.008   6.647   9.450
 4069POPC   PO412912   2.036   6.673   9.150
 4069POPC   GL112913   2.032   6.599   8.850
 4069POPC   GL212914   1.836   6.617   8.850
 4069POPC   C1A12915   2.010   6.634   8.550
 4069POPC   D2A12916   1.963   6.600   8.250
 4069POPC   C3A12917   1.962   6.684   7.950
 4069POPC   C4A12918   1.981   6.656   7.650
 4069POPC   C1B12919   1.773   6.632   8.550
 4069POPC   C2B12920   1.770   6.631   8.250
 4069POPC   C3B12921   1.751   6.632   7.950
 4069POPC   C4B12922   1.724   6.689   7.650
 4070POPC   NC312923   6.663  43.914   9.450
 4070POPC   PO412924   6.692  43.871   9.150
 4070POPC   GL112925   6.655  43.845   8.850
 4070POPC   GL212926   6.615  43.725   8.850
 4070POPC   C1A12927   6.630  43.844   8.550
 4070POPC   D2A12928   6.660  43.904   8.250
 4070POPC   C3A12929   6.673  43.859   7.950
 4070POPC   C4A12930   6.618  43.843   7.650
 4070POPC   C1B12931   6.618  43.593   8.550
 4070POPC   C2B12932   6.591  43.592   8.250
 4070POPC   C3B12933   6.592  43.682   7.950
 4070POPC   C4B12934   6.675  43.687   7.650
 4071POPC   NC312935  26.050  21.342   9.450
 4071POPC   PO412936  26.049  21.371   9.150
 4071POPC   GL112937  26.012  21.408   8.850
 4071POPC   GL212938  25.969  21.422   8.850
 4071POPC   C1A12939  25.994  21.355   8.550
 4071POPC   D2A12940  26.055  21.363   8.250
 4071POPC   C3A12941  26.005  21.400   7.950
 4071POPC   C4A12942  26.042  21.435   7.650
 4071POPC   C1B12943  25.813  21.430   8.550
 4071POPC   C2B12944  25.780  21.453   8.250
 4071POPC   C3B12945  25.787  21.486   7.950
 4071POPC   C4B12946  25.825  21.520   7.650
 4072POPC   NC312947  40.767  15.991   9.450
 4072POPC   PO412948  40.738  15.957   9.150
 4072POPC   GL112949  40.822  15.915   8.850
 4072POPC   GL212950  40.766  15.791   8.850
 4072POPC   C1A12951  40.744  15.995   8.550
 4072POPC   D2A12952  40.770  15.981   8.250
 4072POPC   C3A12953  40.804  15.921   7.950
 4072POPC   C4A12954  40.829  15.924   7.650
 4072POPC   C1B12955  40.716  15.713   8.550
 4072POPC   C2B12956  40.747  15.680   8.250
 4072POPC   C3B12957  40.725  15.719   7.950
 4072POPC   C4B12958  40.709  15.679   7.650
 4073POPC   NC312959  38.459  13.655   9.450
 4073POPC   PO412960  38.501  13.614   9.150
 4073POPC   GL112961  38.414  13.612   8.850
 4073POPC   GL212962  38.308  13.648   8.850
 4073POPC   C1A12963  38.477  13.648   8.550
 4073POPC   D2A12964  38.413  13.665   8.250
 4073POPC   C3A12965  38.424  13.667   7.950
 4073POPC   C4A12966  38.467  13.634   7.650
 4073POPC   C1B12967  38.237  13.739   8.550
 4073POPC   C2B12968  38.202  13.799   8.250
 4073POPC   C3B12969  38.260  13.802   7.950
 4073POPC   C4B12970  38.205  13.728   7.650
 4074POPC   NC312971  37.651  33.010   9.450
 4074POPC   PO412972  37.636  33.024   9.150
 4074POPC   GL112973  37.640  33.043   8.850
 4074POPC   GL212974  37.781  33.018   8.850
 4074POPC   C1A12975  37.653  33.046   8.550
 4074POPC   D2A12976  37.659  33.026   8.250
 4074POPC   C3A12977  37.646  33.025   7.950
 4074POPC   C4A12978  37.669  33.041   7.650
 4074POPC   C1B12979  37.942  32.927   8.550
 4074POPC   C2B12980  37.918  32.927   8.250
 4074POPC   C3B12981  37.917  32.944   7.950
 4074POPC   C4B12982  37.868  32.918   7.650
 4075POPC   NC312983  19.022  39.184   9.450
 4075POPC   PO412984  19.024  39.196   9.150
 4075POPC   GL112985  19.031  39.259   8.850
 4075POPC   GL212986  19.197  39.213   8.850
 4075POPC   C1A12987  19.074  39.212   8.550
 4075POPC   D2A12988  19.034  39.225   8.250
 4075POPC   C3A12989  19.070  39.210   7.950
 4075POPC   C4A12990  19.058  39.181   7.650
 4075POPC   C1B12991  19.296  39.253   8.550
 4075POPC   C2B12992  19.309  39.211   8.250
 4075POPC   C3B12993  19.338  39.163   7.950
 4075POPC   C4B12994  19.270  39.212   7.650
 4076POPC   NC312995   7.411  13.633   9.450
 4076POPC   PO412996   7.374  13.636   9.150
 4076POPC   GL112997   7.375  13.654   8.850
 4076POPC   GL212998   7.361  13.750   8.850
 4076POPC   C1A12999   7.432  13.634   8.550
 4076POPC   D2A13000   7.426  13.609   8.250
 4076POPC   C3A13001   7.446  13.665   7.950
 4076POPC   C4A13002   7.448  13.643   7.650
 4076POPC   C1B13003   7.240  13.809   8.550
 4076POPC   C2B13004   7.249  13.814   8.250
 4076POPC   C3B13005   7.227  13.813   7.950
 4076POPC   C4B13006   7.279  13.794   7.650
 4077POPC   NC313007  30.685  19.814   9.450
 4077POPC   PO413008  30.691  19.853   9.150
 4077POPC   GL113009  30.726  19.816   8.850
 4077POPC   GL213010  30.587  19.921   8.850
 4077POPC   C1A13011  30.652  19.806   8.550
 4077POPC   D2A13012  30.683  19.859   8.250
 4077POPC   C3A13013  30.701  19.853   7.950
 4077POPC   C4A13014  30.699  19.821   7.650
 4077POPC   C1B13015  30.499  19.925   8.550
 4077POPC   C2B13016  30.414  19.930   8.250
 4077POPC   C3B13017  30.505  19.860   7.950
 4077POPC   C4B13018  30.440  19.868   7.650
 4078POPC   NC313019  41.578  27.638   9.450
 4078POPC   PO413020  41.596  27.586   9.150
 4078POPC   GL113021  41.514  27.621   8.850
 4078POPC   GL213022  41.604  27.658   8.850
 4078POPC   C1A13023  41.563  27.575   8.550
 4078POPC   D2A13024  41.583  27.622   8.250
 4078POPC   C3A13025  41.604  27.555   7.950
 4078POPC   C4A13026  41.600  27.642   7.650
 4078POPC   C1B13027  41.659  27.863   8.550
 4078POPC   C2B13028  41.671  27.781   8.250
 4078POPC   C3B13029  41.704  27.869   7.950
 4078POPC   C4B13030  41.659  27.850   7.650
 4079POPC   NC313031  26.061  36.864   9.450
 4079POPC   PO413032  26.025  36.917   9.150
 4079POPC   GL113033  26.088  36.907   8.850
 4079POPC   GL213034  26.103  37.070   8.850
 4079POPC   C1A13035  26.055  36.931   8.550
 4079POPC   D2A13036  26.023  36.888   8.250
 4079POPC   C3A13037  26.053  36.937   7.950
 4079POPC   C4A13038  26.028  36.898   7.650
 4079POPC   C1B13039  26.118  37.131   8.550
 4079POPC   C2B13040  26.099  37.103   8.250
 4079POPC   C3B13041  26.144  37.101   7.950
 4079POPC   C4B13042  26.080  37.153   7.650
 4080POPC   NC313043  41.518  30.745   9.450
 4080POPC   PO413044  41.513  30.673   9.150
 4080POPC   GL113045  41.568  30.734   8.850
 4080POPC   GL213046  41.683  30.631   8.850
 4080POPC   C1A13047  41.538  30.742   8.550
 4080POPC   D2A13048  41.532  30.718   8.250
 4080POPC   C3A13049  41.550  30.695   7.950
 4080POPC   C4A13050  41.577  30.699   7.650
 4080POPC   C1B13051  41.725  30.527   8.550
 4080POPC   C2B13052  41.696  30.513   8.250
 4080POPC   C3B13053  41.730  30.540   7.950
 4080POPC   C4B13054  41.697  30.491   7.650
 4081POPC   NC313055   0.474  34.528   9.450
 4081POPC   PO413056   0.433  34.528   9.150
 4081POPC   GL113057   0.413  34.555   8.850
 4081POPC   GL213058   0.527  34.468   8.850
 4081POPC   C1A13059   0.407  34.597   8.550
 4081POPC   D2A13060   0.455  34.592   8.250
 4081POPC   C3A13061   0.461  34.611   7.950
 4081POPC   C4A13062   0.400  34.544   7.650
 4081POPC   C1B13063   0.635  34.373   8.550
 4081POPC   C2B13064   0.659  34.374   8.250
 4081POPC   C3B13065   0.581  34.456   7.950
 4081POPC   C4B13066   0.594  34.378   7.650
 4082POPC   NC313067  29.112  35.393   9.450
 4082POPC   PO413068  29.147  35.330   9.150
 4082POPC   GL113069  29.182  35.327   8.850
 4082POPC   GL213070  29.025  35.406   8.850
 4082POPC   C1A13071  29.173  35.340   8.550
 4082POPC   D2A13072  29.173  35.315   8.250
 4082POPC   C3A13073  29.146  35.340   7.950
 4082POPC   C4A13074  29.113  35.336   7.650
 4082POPC   C1B13075  29.047  35.549   8.550
 4082POPC   C2B13076  28.984  35.594   8.250
 4082POPC   C3B13077  29.001  35.515   7.950
 4082POPC   C4B13078  28.987  35.573   7.650
 4083POPC   NC313079  32.214  33.050   9.450
 4083POPC   PO413080  32.219  33.037   9.150
 4083POPC   GL113081  32.255  33.061   8.850
 4083POPC   GL213082  32.393  33.003   8.850
 4083POPC   C1A13083  32.273  33.035   8.550
 4083POPC   D2A13084  32.229  32.990   8.250
 4083POPC   C3A13085  32.214  32.986   7.950
 4083POPC   C4A13086  32.212  33.068   7.650
 4083POPC   C1B13087  32.467  33.052   8.550
 4083POPC   C2B13088  32.519  33.041   8.250
 4083POPC   C3B13089  32.492  33.073   7.950
 4083POPC   C4B13090  32.523  33.017   7.650
 4084POPC   NC313091  21.336  43.136   9.450
 4084POPC   PO413092  21.371  43.075   9.150
 4084POPC   GL113093  21.433  43.153   8.850
 4084POPC   GL213094  21.275  43.040   8.850
 4084POPC   C1A13095  21.385  43.061   8.550
 4084POPC   D2A13096  21.361  43.108   8.250
 4084POPC   C3A13097  21.388  43.081   7.950
 4084POPC   C4A13098  21.349  43.109   7.650
 4084POPC   C1B13099  21.196  42.997   8.550
 4084POPC   C2B13100  21.173  42.932   8.250
 4084POPC   C3B13101  21.190  42.962   7.950
 4084POPC   C4B13102  21.157  42.929   7.650
 4085POPC   NC313103  36.081  29.918   9.450
 4085POPC   PO413104  36.084  29.892   9.150
 4085POPC   GL113105  36.140  29.927   8.850
 4085POPC   GL213106  36.051  29.975   8.850
 4085POPC   C1A13107  36.084  29.886   8.550
 4085POPC   D2A13108  36.080  29.945   8.250
 4085POPC   C3A13109  36.137  29.954   7.950
 4085POPC   C4A13110  36.147  29.938   7.650
 4085POPC   C1B13111  35.917  30.099   8.550
 4085POPC   C2B13112  35.952  30.153   8.250
 4085POPC   C3B13113  35.952  30.120   7.950
 4085POPC   C4B13114  35.917  30.133   7.650
 4086POPC   NC313115  35.369  24.473   9.450
 4086POPC   PO413116  35.364  24.521   9.150
 4086POPC   GL113117  35.355  24.477   8.850
 4086POPC   GL213118  35.510  24.454   8.850
 4086POPC   C1A13119  35.351  24.511   8.550
 4086POPC   D2A13120  35.379  24.466   8.250
 4086POPC   C3A13121  35.338  24.493   7.950
 4086POPC   C4A13122  35.321  24.486   7.650
 4086POPC   C1B13123  35.641  24.420   8.550
 4086POPC   C2B13124  35.649  24.443   8.250
 4086POPC   C3B13125  35.583  24.508   7.950
 4086POPC   C4B13126  35.564  24.457   7.650
 4087POPC   NC313127  23.713   8.970   9.450
 4087POPC   PO413128  23.746   8.927   9.150
 4087POPC   GL113129  23.722   8.976   8.850
 4087POPC   GL213130  23.741   8.891   8.850
 4087POPC   C1A13131  23.686   8.945   8.550
 4087POPC   D2A13132  23.715   8.928   8.250
 4087POPC   C3A13133  23.759   8.934   7.950
 4087POPC   C4A13134  23.764   9.015   7.650
 4087POPC   C1B13135  23.761   8.740   8.550
 4087POPC   C2B13136  23.810   8.743   8.250
 4087POPC   C3B13137  23.813   8.698   7.950
 4087POPC   C4B13138  23.815   8.735   7.650
 4088POPC   NC313139  36.121   6.643   9.450
 4088POPC   PO413140  36.177   6.677   9.150
 4088POPC   GL113141  36.172   6.618   8.850
 4088POPC   GL213142  36.242   6.543   8.850
 4088POPC   C1A13143  36.154   6.646   8.550
 4088POPC   D2A13144  36.169   6.600   8.250
 4088POPC   C3A13145  36.088   6.683   7.950
 4088POPC   C4A13146  36.129   6.640   7.650
 4088POPC   C1B13147  36.250   6.448   8.550
 4088POPC   C2B13148  36.213   6.400   8.250
 4088POPC   C3B13149  36.249   6.464   7.950
 4088POPC   C4B13150  36.253   6.474   7.650
 4089POPC   NC313151  19.839   2.722   9.450
 4089POPC   PO413152  19.834   2.805   9.150
 4089POPC   GL113153  19.820   2.717   8.850
 4089POPC   GL213154  19.821   2.619   8.850
 4089POPC   C1A13155  19.877   2.805   8.550
 4089POPC   D2A13156  19.868   2.780   8.250
 4089POPC   C3A13157  19.820   2.717   7.950
 4089POPC   C4A13158  19.840   2.725   7.650
 4089POPC   C1B13159  19.810   2.467   8.550
 4089POPC   C2B13160  19.786   2.558   8.250
 4089POPC   C3B13161  19.860   2.507   7.950
 4089POPC   C4B13162  19.819   2.543   7.650
 4090POPC   NC313163  31.496  41.525   9.450
 4090POPC   PO413164  31.443  41.558   9.150
 4090POPC   GL113165  31.507  41.544   8.850
 4090POPC   GL213166  31.432  41.684   8.850
 4090POPC   C1A13167  31.481  41.559   8.550
 4090POPC   D2A13168  31.498  41.557   8.250
 4090POPC   C3A13169  31.448  41.545   7.950
 4090POPC   C4A13170  31.449  41.569   7.650
 4090POPC   C1B13171  31.463  41.789   8.550
 4090POPC   C2B13172  31.430  41.814   8.250
 4090POPC   C3B13173  31.435  41.778   7.950
 4090POPC   C4B13174  31.399  41.797   7.650
 4091POPC   NC313175   2.753  16.727   9.450
 4091POPC   PO413176   2.787  16.697   9.150
 4091POPC   GL113177   2.727  16.735   8.850
 4091POPC   GL213178   2.706  16.677   8.850
 4091POPC   C1A13179   2.742  16.706   8.550
 4091POPC   D2A13180   2.721  16.742   8.250
 4091POPC   C3A13181   2.811  16.739   7.950
 4091POPC   C4A13182   2.792  16.777   7.650
 4091POPC   C1B13183   2.592  16.552   8.550
 4091POPC   C2B13184   2.551  16.589   8.250
 4091POPC   C3B13185   2.575  16.636   7.950
 4091POPC   C4B13186   2.556  16.555   7.650
 4092POPC   NC313187  16.712  26.077   9.450
 4092POPC   PO413188  16.744  25.999   9.150
 4092POPC   GL113189  16.685  26.089   8.850
 4092POPC   GL213190  16.840  25.978   8.850
 4092POPC   C1A13191  16.738  26.040   8.550
 4092POPC   D2A13192  16.765  26.061   8.250
 4092POPC   C3A13193  16.700  26.077   7.950
 4092POPC   C4A13194  16.697  26.064   7.650
 4092POPC   C1B13195  16.903  25.888   8.550
 4092POPC   C2B13196  16.975  25.952   8.250
 4092POPC   C3B13197  16.906  25.873   7.950
 4092POPC   C4B13198  16.924  25.931   7.650
 4093POPC   NC313199  13.628  16.722   9.450
 4093POPC   PO413200  13.630  16.771   9.150
 4093POPC   GL113201  13.656  16.685   8.850
 4093POPC   GL213202  13.661  16.817   8.850
 4093POPC   C1A13203  13.605  16.711   8.550
 4093POPC   D2A13204  13.671  16.758   8.250
 4093POPC   C3A13205  13.578  16.738   7.950
 4093POPC   C4A13206  13.586  16.719   7.650
 4093POPC   C1B13207  13.778  16.963   8.550
 4093POPC   C2B13208  13.761  16.904   8.250
 4093POPC   C3B13209  13.816  16.958   7.950
 4093POPC   C4B13210  13.771  16.968   7.650
 4094POPC   NC313211  33.828  38.463   9.450
 4094POPC   PO413212  33.756  38.467   9.150
 4094POPC   GL113213  33.780  38.410   8.850
 4094POPC   GL213214  33.900  38.460   8.850
 4094POPC   C1A13215  33.779  38.466   8.550
 4094POPC   D2A13216  33.804  38.481   8.250
 4094POPC   C3A13217  33.756  38.503   7.950
 4094POPC   C4A13218  33.758  38.416   7.650
 4094POPC   C1B13219  34.016  38.384   8.550
 4094POPC   C2B13220  34.066  38.388   8.250
 4094POPC   C3B13221  34.039  38.356   7.950
 4094POPC   C4B13222  34.007  38.348   7.650
 4095POPC   NC313223  24.463  12.840   9.450
 4095POPC   PO413224  24.539  12.862   9.150
 4095POPC   GL113225  24.502  12.830   8.850
 4095POPC   GL213226  24.379  12.794   8.850
 4095POPC   C1A13227  24.463  12.857   8.550
 4095POPC   D2A13228  24.506  12.859   8.250
 4095POPC   C3A13229  24.527  12.859   7.950
 4095POPC   C4A13230  24.484  12.845   7.650
 4095POPC   C1B13231  24.284  12.617   8.550
 4095POPC   C2B13232  24.374  12.628   8.250
 4095POPC   C3B13233  24.302  12.655   7.950
 4095POPC   C4B13234  24.318  12.680   7.650
 4096POPC   NC313235  42.343  41.552   9.450
 4096POPC   PO413236  42.342  41.597   9.150
 4096POPC   GL113237  42.340  41.554   8.850
 4096POPC   GL213238  42.497  41.522   8.850
 4096POPC   C1A13239  42.342  41.540   8.550
 4096POPC   D2A13240  42.310  41.574   8.250
 4096POPC   C3A13241  42.358  41.522   7.950
 4096POPC   C4A13242  42.360  41.526   7.650
 4096POPC   C1B13243  42.593  41.462   8.550
 4096POPC   C2B13244  42.583  41.489   8.250
 4096POPC   C3B13245  42.572  41.471   7.950
 4096POPC   C4B13246  42.514  41.429   7.650
 4097POPC   NC313247  15.196  23.724   9.450
 4097POPC   PO413248  15.189  23.670   9.150
 4097POPC   GL113249  15.130  23.762   8.850
 4097POPC   GL213250  15.256  23.733   8.850
 4097POPC   C1A13251  15.172  23.678   8.550
 4097POPC   D2A13252  15.226  23.763   8.250
 4097POPC   C3A13253  15.175  23.756   7.950
 4097POPC   C4A13254  15.151  23.705   7.650
 4097POPC   C1B13255  15.411  23.796   8.550
 4097POPC   C2B13256  15.422  23.751   8.250
 4097POPC   C3B13257  15.421  23.813   7.950
 4097POPC   C4B13258  15.395  23.740   7.650
 4098POPC   NC313259   4.305  39.197   9.450
 4098POPC   PO413260   4.277  39.233   9.150
 4098POPC   GL113261   4.307  39.237   8.850
 4098POPC   GL213262   4.450  39.166   8.850
 4098POPC   C1A13263   4.344  39.186   8.550
 4098POPC   D2A13264   4.293  39.202   8.250
 4098POPC   C3A13265   4.283  39.225   7.950
 4098POPC   C4A13266   4.312  39.190   7.650
 4098POPC   C1B13267   4.559  39.102   8.550
 4098POPC   C2B13268   4.472  39.031   8.250
 4098POPC   C3B13269   4.471  39.024   7.950
 4098POPC   C4B13270   4.475  39.068   7.650
 4099POPC   NC313271   9.773  25.223   9.450
 4099POPC   PO413272   9.754  25.247   9.150
 4099POPC   GL113273   9.729  25.289   8.850
 4099POPC   GL213274   9.746  25.128   8.850
 4099POPC   C1A13275   9.744  25.240   8.550
 4099POPC   D2A13276   9.754  25.292   8.250
 4099POPC   C3A13277   9.745  25.291   7.950
 4099POPC   C4A13278   9.756  25.235   7.650
 4099POPC   C1B13279   9.778  24.982   8.550
 4099POPC   C2B13280   9.794  25.013   8.250
 4099POPC   C3B13281   9.794  25.056   7.950
 4099POPC   C4B13282   9.792  25.040   7.650
 4100POPC   NC313283  25.306  15.957   9.450
 4100POPC   PO413284  25.230  15.956   9.150
 4100POPC   GL113285  25.284  15.987   8.850
 4100POPC   GL213286  25.368  15.968   8.850
 4100POPC   C1A13287  25.301  15.983   8.550
 4100POPC   D2A13288  25.216  15.970   8.250
 4100POPC   C3A13289  25.230  16.002   7.950
 4100POPC   C4A13290  25.221  15.955   7.650
 4100POPC   C1B13291  25.498  15.870   8.550
 4100POPC   C2B13292  25.521  15.944   8.250
 4100POPC   C3B13293  25.514  15.872   7.950
 4100POPC   C4B13294  25.516  15.969   7.650
 4101POPC   NC313295  14.415  23.718   9.450
 4101POPC   PO413296  14.445  23.743   9.150
 4101POPC   GL113297  14.398  23.708   8.850
 4101POPC   GL213298  14.346  23.568   8.850
 4101POPC   C1A13299  14.441  23.737   8.550
 4101POPC   D2A13300  14.420  23.762   8.250
 4101POPC   C3A13301  14.414  23.718   7.950
 4101POPC   C4A13302  14.389  23.702   7.650
 4101POPC   C1B13303  14.347  23.502   8.550
 4101POPC   C2B13304  14.405  23.478   8.250
 4101POPC   C3B13305  14.391  23.438   7.950
 4101POPC   C4B13306  14.326  23.464   7.650
 4102POPC   NC313307  21.424  42.320   9.450
 4102POPC   PO413308  21.431  42.376   9.150
 4102POPC   GL113309  21.390  42.327   8.850
 4102POPC   GL213310  21.467  42.268   8.850
 4102POPC   C1A13311  21.385  42.312   8.550
 4102POPC   D2A13312  21.421  42.312   8.250
 4102POPC   C3A13313  21.360  42.308   7.950
 4102POPC   C4A13314  21.346  42.314   7.650
 4102POPC   C1B13315  21.443  42.135   8.550
 4102POPC   C2B13316  21.490  42.131   8.250
 4102POPC   C3B13317  21.515  42.070   7.950
 4102POPC   C4B13318  21.453  42.132   7.650
 4103POPC   NC313319  44.621   5.893   9.450
 4103POPC   PO413320  44.651   5.872   9.150
 4103POPC   GL113321  44.707   5.896   8.850
 4103POPC   GL213322  44.825   5.880   8.850
 4103POPC   C1A13323  44.640   5.840   8.550
 4103POPC   D2A13324  44.653   5.833   8.250
 4103POPC   C3A13325  44.695   5.852   7.950
 4103POPC   C4A13326  44.703   5.852   7.650
 4103POPC   C1B13327  44.906   5.971   8.550
 4103POPC   C2B13328  44.880   5.960   8.250
 4103POPC   C3B13329  44.934   5.938   7.950
 4103POPC   C4B13330  44.903   5.930   7.650
 4104POPC   NC313331  25.257  19.016   9.450
 4104POPC   PO413332  25.228  19.078   9.150
 4104POPC   GL113333  25.250  19.092   8.850
 4104POPC   GL213334  25.148  18.950   8.850
 4104POPC   C1A13335  25.218  19.080   8.550
 4104POPC   D2A13336  25.286  19.068   8.250
 4104POPC   C3A13337  25.233  19.106   7.950
 4104POPC   C4A13338  25.274  19.014   7.650
 4104POPC   C1B13339  25.120  18.876   8.550
 4104POPC   C2B13340  25.066  18.899   8.250
 4104POPC   C3B13341  25.096  18.863   7.950
 4104POPC   C4B13342  25.073  18.893   7.650
 4105POPC   NC313343  18.248  25.271   9.450
 4105POPC   PO413344  18.304  25.226   9.150
 4105POPC   GL113345  18.249  25.313   8.850
 4105POPC   GL213346  18.376  25.347   8.850
 4105POPC   C1A13347  18.280  25.254   8.550
 4105POPC   D2A13348  18.281  25.259   8.250
 4105POPC   C3A13349  18.294  25.305   7.950
 4105POPC   C4A13350  18.278  25.301   7.650
 4105POPC   C1B13351  18.473  25.383   8.550
 4105POPC   C2B13352  18.483  25.369   8.250
 4105POPC   C3B13353  18.506  25.371   7.950
 4105POPC   C4B13354  18.513  25.321   7.650
 4106POPC   NC313355  36.099  23.719   9.450
 4106POPC   PO413356  36.088  23.666   9.150
 4106POPC   GL113357  36.172  23.745   8.850
 4106POPC   GL213358  36.139  23.827   8.850
 4106POPC   C1A13359  36.151  23.763   8.550
 4106POPC   D2A13360  36.133  23.707   8.250
 4106POPC   C3A13361  36.088  23.683   7.950
 4106POPC   C4A13362  36.136  23.698   7.650
 4106POPC   C1B13363  36.055  23.956   8.550
 4106POPC   C2B13364  36.026  24.000   8.250
 4106POPC   C3B13365  36.110  23.922   7.950
 4106POPC   C4B13366  36.070  23.932   7.650
 4107POPC   NC313367  38.428  40.784   9.450
 4107POPC   PO413368  38.415  40.808   9.150
 4107POPC   GL113369  38.416  40.763   8.850
 4107POPC   GL213370  38.533  40.838   8.850
 4107POPC   C1A13371  38.416  40.777   8.550
 4107POPC   D2A13372  38.434  40.797   8.250
 4107POPC   C3A13373  38.472  40.790   7.950
 4107POPC   C4A13374  38.473  40.790   7.650
 4107POPC   C1B13375  38.633  40.964   8.550
 4107POPC   C2B13376  38.672  40.958   8.250
 4107POPC   C3B13377  38.671  40.993   7.950
 4107POPC   C4B13378  38.646  40.939   7.650
 4108POPC   NC313379  15.139  17.465   9.450
 4108POPC   PO413380  15.223  17.530   9.150
 4108POPC   GL113381  15.187  17.522   8.850
 4108POPC   GL213382  15.054  17.397   8.850
 4108POPC   C1A13383  15.187  17.526   8.550
 4108POPC   D2A13384  15.190  17.471   8.250
 4108POPC   C3A13385  15.224  17.462   7.950
 4108POPC   C4A13386  15.204  17.482   7.650
 4108POPC   C1B13387  14.982  17.348   8.550
 4108POPC   C2B13388  15.031  17.302   8.250
 4108POPC   C3B13389  14.985  17.273   7.950
 4108POPC   C4B13390  15.016  17.332   7.650
 4109POPC   NC313391  43.854  23.665   9.450
 4109POPC   PO413392  43.908  23.726   9.150
 4109POPC   GL113393  43.918  23.670   8.850
 4109POPC   GL213394  43.985  23.646   8.850
 4109POPC   C1A13395  43.883  23.736   8.550
 4109POPC   D2A13396  43.845  23.738   8.250
 4109POPC   C3A13397  43.897  23.692   7.950
 4109POPC   C4A13398  43.845  23.722   7.650
 4109POPC   C1B13399  43.995  23.534   8.550
 4109POPC   C2B13400  44.005  23.511   8.250
 4109POPC   C3B13401  44.070  23.519   7.950
 4109POPC   C4B13402  44.001  23.465   7.650
 4110POPC   NC313403  23.740  20.657   9.450
 4110POPC   PO413404  23.693  20.578   9.150
 4110POPC   GL113405  23.753  20.640   8.850
 4110POPC   GL213406  23.623  20.517   8.850
 4110POPC   C1A13407  23.696  20.645   8.550
 4110POPC   D2A13408  23.698  20.594   8.250
 4110POPC   C3A13409  23.749  20.645   7.950
 4110POPC   C4A13410  23.691  20.645   7.650
 4110POPC   C1B13411  23.471  20.463   8.550
 4110POPC   C2B13412  23.528  20.478   8.250
 4110POPC   C3B13413  23.494  20.489   7.950
 4110POPC   C4B13414  23.559  20.459   7.650
 4111POPC   NC313415   2.778  29.926   9.450
 4111POPC   PO413416   2.741  29.914   9.150
 4111POPC   GL113417   2.753  29.895   8.850
 4111POPC   GL213418   2.753  29.759   8.850
 4111POPC   C1A13419   2.806  29.885   8.550
 4111POPC   D2A13420   2.802  29.937   8.250
 4111POPC   C3A13421   2.750  29.965   7.950
 4111POPC   C4A13422   2.727  29.960   7.650
 4111POPC   C1B13423   2.842  29.643   8.550
 4111POPC   C2B13424   2.801  29.718   8.250
 4111POPC   C3B13425   2.869  29.661   7.950
 4111POPC   C4B13426   2.861  29.667   7.650
 4112POPC   NC313427   2.742  34.539   9.450
 4112POPC   PO413428   2.746  34.571   9.150
 4112POPC   GL113429   2.788  34.587   8.850
 4112POPC   GL213430   2.910  34.606   8.850
 4112POPC   C1A13431   2.809  34.611   8.550
 4112POPC   D2A13432   2.792  34.558   8.250
 4112POPC   C3A13433   2.749  34.565   7.950
 4112POPC   C4A13434   2.742  34.580   7.650
 4112POPC   C1B13435   2.959  34.748   8.550
 4112POPC   C2B13436   2.978  34.711   8.250
 4112POPC   C3B13437   2.996  34.739   7.950
 4112POPC   C4B13438   3.002  34.709   7.650
 4113POPC   NC313439   8.979  34.621   9.450
 4113POPC   PO413440   8.934  34.588   9.150
 4113POPC   GL113441   8.984  34.582   8.850
 4113POPC   GL213442   8.815  34.483   8.850
 4113POPC   C1A13443   9.018  34.547   8.550
 4113POPC   D2A13444   8.984  34.535   8.250
 4113POPC   C3A13445   8.986  34.573   7.950
 4113POPC   C4A13446   8.977  34.571   7.650
 4113POPC   C1B13447   8.707  34.512   8.550
 4113POPC   C2B13448   8.727  34.421   8.250
 4113POPC   C3B13449   8.768  34.510   7.950
 4113POPC   C4B13450   8.709  34.485   7.650
 4114POPC   NC313451  41.592   7.462   9.450
 4114POPC   PO413452  41.547   7.421   9.150
 4114POPC   GL113453  41.520   7.387   8.850
 4114POPC   GL213454  41.541   7.563   8.850
 4114POPC   C1A13455  41.530   7.398   8.550
 4114POPC   D2A13456  41.526   7.380   8.250
 4114POPC   C3A13457  41.524   7.452   7.950
 4114POPC   C4A13458  41.527   7.465   7.650
 4114POPC   C1B13459  41.590   7.690   8.550
 4114POPC   C2B13460  41.575   7.673   8.250
 4114POPC   C3B13461  41.614   7.708   7.950
 4114POPC   C4B13462  41.565   7.645   7.650
 4115POPC   NC313463  37.651  28.375   9.450
 4115POPC   PO413464  37.645  28.341   9.150
 4115POPC   GL113465  37.710  28.341   8.850
 4115POPC   GL213466  37.839  28.377   8.850
 4115POPC   C1A13467  37.634  28.416   8.550
 4115POPC   D2A13468  37.643  28.367   8.250
 4115POPC   C3A13469  37.679  28.325   7.950
 4115POPC   C4A13470  37.693  28.406   7.650
 4115POPC   C1B13471  37.876  28.250   8.550
 4115POPC   C2B13472  37.964  28.254   8.250
 4115POPC   C3B13473  37.902  28.250   7.950
 4115POPC   C4B13474  37.942  28.302   7.650
 4116POPC   NC313475  44.684  13.665   9.450
 4116POPC   PO413476  44.618  13.642   9.150
 4116POPC   GL113477  44.699  13.645   8.850
 4116POPC   GL213478  44.655  13.532   8.850
 4116POPC   C1A13479  44.667  13.613   8.550
 4116POPC   D2A13480  44.696  13.634   8.250
 4116POPC   C3A13481  44.693  13.584   7.950
 4116POPC   C4A13482  44.703  13.617   7.650
 4116POPC   C1B13483  44.670  13.402   8.550
 4116POPC   C2B13484  44.681  13.402   8.250
 4116POPC   C3B13485  44.660  13.404   7.950
 4116POPC   C4B13486  44.637  13.418   7.650
 4117POPC   NC313487  21.376  12.043   9.450
 4117POPC   PO413488  21.393  12.110   9.150
 4117POPC   GL113489  21.411  12.114   8.850
 4117POPC   GL213490  21.506  12.131   8.850
 4117POPC   C1A13491  21.411  12.113   8.550
 4117POPC   D2A13492  21.402  12.104   8.250
 4117POPC   C3A13493  21.429  12.115   7.950
 4117POPC   C4A13494  21.363  12.055   7.650
 4117POPC   C1B13495  21.606  12.199   8.550
 4117POPC   C2B13496  21.600  12.213   8.250
 4117POPC   C3B13497  21.616  12.240   7.950
 4117POPC   C4B13498  21.643  12.243   7.650
 4118POPC   NC313499  16.761  21.351   9.450
 4118POPC   PO413500  16.723  21.363   9.150
 4118POPC   GL113501  16.756  21.360   8.850
 4118POPC   GL213502  16.605  21.365   8.850
 4118POPC   C1A13503  16.701  21.406   8.550
 4118POPC   D2A13504  16.751  21.356   8.250
 4118POPC   C3A13505  16.761  21.373   7.950
 4118POPC   C4A13506  16.758  21.379   7.650
 4118POPC   C1B13507  16.457  21.274   8.550
 4118POPC   C2B13508  16.468  21.288   8.250
 4118POPC   C3B13509  16.546  21.300   7.950
 4118POPC   C4B13510  16.536  21.263   7.650
 4119POPC   NC313511  40.775   1.227   9.450
 4119POPC   PO413512  40.813   1.191   9.150
 4119POPC   GL113513  40.830   1.203   8.850
 4119POPC   GL213514  40.896   1.189   8.850
 4119POPC   C1A13515  40.820   1.254   8.550
 4119POPC   D2A13516  40.753   1.255   8.250
 4119POPC   C3A13517  40.765   1.174   7.950
 4119POPC   C4A13518  40.783   1.229   7.650
 4119POPC   C1B13519  41.031   1.109   8.550
 4119POPC   C2B13520  41.048   1.179   8.250
 4119POPC   C3B13521  41.035   1.187   7.950
 4119POPC   C4B13522  41.006   1.137   7.650
 4120POPC   NC313523  28.384  43.905   9.450
 4120POPC   PO413524  28.358  43.861   9.150
 4120POPC   GL113525  28.368  43.912   8.850
 4120POPC   GL213526  28.412  43.776   8.850
 4120POPC   C1A13527  28.416  43.871   8.550
 4120POPC   D2A13528  28.359  43.839   8.250
 4120POPC   C3A13529  28.332  43.891   7.950
 4120POPC   C4A13530  28.337  43.896   7.650
 4120POPC   C1B13531  28.543  43.745   8.550
 4120POPC   C2B13532  28.490  43.667   8.250
 4120POPC   C3B13533  28.497  43.724   7.950
 4120POPC   C4B13534  28.515  43.740   7.650
 4121POPC   NC313535  32.260  34.616   9.450
 4121POPC   PO413536  32.289  34.576   9.150
 4121POPC   GL113537  32.282  34.540   8.850
 4121POPC   GL213538  32.333  34.622   8.850
 4121POPC   C1A13539  32.269  34.555   8.550
 4121POPC   D2A13540  32.229  34.626   8.250
 4121POPC   C3A13541  32.247  34.570   7.950
 4121POPC   C4A13542  32.280  34.556   7.650
 4121POPC   C1B13543  32.473  34.749   8.550
 4121POPC   C2B13544  32.410  34.781   8.250
 4121POPC   C3B13545  32.457  34.754   7.950
 4121POPC   C4B13546  32.415  34.777   7.650
 4122POPC   NC313547  41.563  12.818   9.450
 4122POPC   PO413548  41.569  12.862   9.150
 4122POPC   GL113549  41.607  12.865   8.850
 4122POPC   GL213550  41.604  12.754   8.850
 4122POPC   C1A13551  41.605  12.837   8.550
 4122POPC   D2A13552  41.518  12.889   8.250
 4122POPC   C3A13553  41.517  12.847   7.950
 4122POPC   C4A13554  41.552  12.831   7.650
 4122POPC   C1B13555  41.696  12.659   8.550
 4122POPC   C2B13556  41.737  12.714   8.250
 4122POPC   C3B13557  41.694  12.667   7.950
 4122POPC   C4B13558  41.761  12.650   7.650
 4123POPC   NC313559  36.142   2.030   9.450
 4123POPC   PO413560  36.117   1.942   9.150
 4123POPC   GL113561  36.150   2.033   8.850
 4123POPC   GL213562  36.212   2.023   8.850
 4123POPC   C1A13563  36.148   1.943   8.550
 4123POPC   D2A13564  36.122   1.969   8.250
 4123POPC   C3A13565  36.127   2.029   7.950
 4123POPC   C4A13566  36.162   1.993   7.650
 4123POPC   C1B13567  36.287   2.170   8.550
 4123POPC   C2B13568  36.285   2.126   8.250
 4123POPC   C3B13569  36.348   2.103   7.950
 4123POPC   C4B13570  36.364   2.168   7.650
 4124POPC   NC313571   1.966  19.108   9.450
 4124POPC   PO413572   1.957  19.103   9.150
 4124POPC   GL113573   1.944  19.104   8.850
 4124POPC   GL213574   2.068  18.909   8.850
 4124POPC   C1A13575   2.031  19.096   8.550
 4124POPC   D2A13576   1.941  19.018   8.250
 4124POPC   C3A13577   2.016  19.054   7.950
 4124POPC   C4A13578   1.984  19.100   7.650
 4124POPC   C1B13579   2.083  18.784   8.550
 4124POPC   C2B13580   2.119  18.871   8.250
 4124POPC   C3B13581   2.038  18.779   7.950
 4124POPC   C4B13582   2.103  18.854   7.650
 4125POPC   NC313583  40.741  40.034   9.450
 4125POPC   PO413584  40.765  39.997   9.150
 4125POPC   GL113585  40.804  39.995   8.850
 4125POPC   GL213586  40.797  40.116   8.850
 4125POPC   C1A13587  40.811  40.037   8.550
 4125POPC   D2A13588  40.818  40.037   8.250
 4125POPC   C3A13589  40.814  40.053   7.950
 4125POPC   C4A13590  40.756  40.025   7.650
 4125POPC   C1B13591  40.869  40.243   8.550
 4125POPC   C2B13592  40.834  40.260   8.250
 4125POPC   C3B13593  40.859  40.239   7.950
 4125POPC   C4B13594  40.861  40.246   7.650
 4126POPC   NC313595  34.588  27.629   9.450
 4126POPC   PO413596  34.554  27.570   9.150
 4126POPC   GL113597  34.610  27.559   8.850
 4126POPC   GL213598  34.439  27.564   8.850
 4126POPC   C1A13599  34.539  27.572   8.550
 4126POPC   D2A13600  34.549  27.555   8.250
 4126POPC   C3A13601  34.561  27.627   7.950
 4126POPC   C4A13602  34.595  27.569   7.650
 4126POPC   C1B13603  34.376  27.597   8.550
 4126POPC   C2B13604  34.369  27.614   8.250
 4126POPC   C3B13605  34.347  27.591   7.950
 4126POPC   C4B13606  34.280  27.600   7.650
 4127POPC   NC313607  39.976  28.376   9.450
 4127POPC   PO413608  40.019  28.379   9.150
 4127POPC   GL113609  39.976  28.387   8.850
 4127POPC   GL213610  39.946  28.295   8.850
 4127POPC   C1A13611  39.967  28.319   8.550
 4127POPC   D2A13612  40.042  28.322   8.250
 4127POPC   C3A13613  40.023  28.395   7.950
 4127POPC   C4A13614  40.025  28.322   7.650
 4127POPC   C1B13615  39.946  28.138   8.550
 4127POPC   C2B13616  39.953  28.119   8.250
 4127POPC   C3B13617  39.972  28.098   7.950
 4127POPC   C4B13618  39.928  28.099   7.650
 4128POPC   NC313619  26.011  41.574   9.450
 4128POPC   PO413620  26.020  41.608   9.150
 4128POPC   GL113621  26.090  41.587   8.850
 4128POPC   GL213622  26.176  41.558   8.850
 4128POPC   C1A13623  26.063  41.584   8.550
 4128POPC   D2A13624  26.004  41.532   8.250
 4128POPC   C3A13625  26.067  41.517   7.950
 4128POPC   C4A13626  26.058  41.563   7.650
 4128POPC   C1B13627  26.260  41.464   8.550
 4128POPC   C2B13628  26.273  41.455   8.250
 4128POPC   C3B13629  26.273  41.452   7.950
 4128POPC   C4B13630  26.301  41.478   7.650
 4129POPC   NC313631   1.203  22.143   9.450
 4129POPC   PO413632   1.167  22.132   9.150
 4129POPC   GL113633   1.202  22.166   8.850
 4129POPC   GL213634   1.281  21.996   8.850
 4129POPC   C1A13635   1.172  22.125   8.550
 4129POPC   D2A13636   1.226  22.178   8.250
 4129POPC   C3A13637   1.178  22.201   7.950
 4129POPC   C4A13638   1.179  22.174   7.650
 4129POPC   C1B13639   1.274  21.944   8.550
 4129POPC   C2B13640   1.304  21.925   8.250
 4129POPC   C3B13641   1.282  21.914   7.950
 4129POPC   C4B13642   1.309  21.924   7.650
 4130POPC   NC313643  29.106  36.169   9.450
 4130POPC   PO413644  29.185  36.158   9.150
 4130POPC   GL113645  29.099  36.134   8.850
 4130POPC   GL213646  29.282  36.162   8.850
 4130POPC   C1A13647  29.104  36.163   8.550
 4130POPC   D2A13648  29.166  36.140   8.250
 4130POPC   C3A13649  29.144  36.105   7.950
 4130POPC   C4A13650  29.144  36.097   7.650
 4130POPC   C1B13651  29.377  36.154   8.550
 4130POPC   C2B13652  29.396  36.114   8.250
 4130POPC   C3B13653  29.388  36.143   7.950
 4130POPC   C4B13654  29.398  36.180   7.650
 4131POPC   NC313655  14.387  31.498   9.450
 4131POPC   PO413656  14.394  31.453   9.150
 4131POPC   GL113657  14.390  31.517   8.850
 4131POPC   GL213658  14.272  31.470   8.850
 4131POPC   C1A13659  14.420  31.486   8.550
 4131POPC   D2A13660  14.423  31.451   8.250
 4131POPC   C3A13661  14.396  31.435   7.950
 4131POPC   C4A13662  14.380  31.521   7.650
 4131POPC   C1B13663  14.197  31.464   8.550
 4131POPC   C2B13664  14.141  31.498   8.250
 4131POPC   C3B13665  14.140  31.526   7.950
 4131POPC   C4B13666  14.197  31.517   7.650
 4132POPC   NC313667  26.802  27.619   9.450
 4132POPC   PO413668  26.838  27.604   9.150
 4132POPC   GL113669  26.793  27.602   8.850
 4132POPC   GL213670  26.714  27.507   8.850
 4132POPC   C1A13671  26.798  27.616   8.550
 4132POPC   D2A13672  26.849  27.638   8.250
 4132POPC   C3A13673  26.830  27.593   7.950
 4132POPC   C4A13674  26.861  27.571   7.650
 4132POPC   C1B13675  26.679  27.401   8.550
 4132POPC   C2B13676  26.670  27.439   8.250
 4132POPC   C3B13677  26.646  27.364   7.950
 4132POPC   C4B13678  26.658  27.424   7.650
 4133POPC   NC313679  12.061  26.768   9.450
 4133POPC   PO413680  12.101  26.828   9.150
 4133POPC   GL113681  12.034  26.808   8.850
 4133POPC   GL213682  12.106  26.716   8.850
 4133POPC   C1A13683  12.037  26.860   8.550
 4133POPC   D2A13684  12.072  26.839   8.250
 4133POPC   C3A13685  12.079  26.808   7.950
 4133POPC   C4A13686  12.106  26.823   7.650
 4133POPC   C1B13687  12.266  26.592   8.550
 4133POPC   C2B13688  12.178  26.576   8.250
 4133POPC   C3B13689  12.240  26.596   7.950
 4133POPC   C4B13690  12.259  26.663   7.650
 4134POPC   NC313691  19.844  27.606   9.450
 4134POPC   PO413692  19.869  27.578   9.150
 4134POPC   GL113693  19.866  27.609   8.850
 4134POPC   GL213694  19.991  27.568   8.850
 4134POPC   C1A13695  19.863  27.622   8.550
 4134POPC   D2A13696  19.814  27.573   8.250
 4134POPC   C3A13697  19.854  27.596   7.950
 4134POPC   C4A13698  19.813  27.551   7.650
 4134POPC   C1B13699  20.098  27.575   8.550
 4134POPC   C2B13700  20.073  27.614   8.250
 4134POPC   C3B13701  20.048  27.592   7.950
 4134POPC   C4B13702  20.045  27.623   7.650
 4135POPC   NC313703  33.816  34.593   9.450
 4135POPC   PO413704  33.846  34.623   9.150
 4135POPC   GL113705  33.759  34.569   8.850
 4135POPC   GL213706  33.899  34.626   8.850
 4135POPC   C1A13707  33.794  34.605   8.550
 4135POPC   D2A13708  33.806  34.598   8.250
 4135POPC   C3A13709  33.845  34.612   7.950
 4135POPC   C4A13710  33.787  34.599   7.650
 4135POPC   C1B13711  34.030  34.665   8.550
 4135POPC   C2B13712  34.025  34.652   8.250
 4135POPC   C3B13713  33.992  34.718   7.950
 4135POPC   C4B13714  34.041  34.623   7.650
 4136POPC   NC313715  27.548   5.118   9.450
 4136POPC   PO413716  27.544   5.077   9.150
 4136POPC   GL113717  27.618   5.071   8.850
 4136POPC   GL213718  27.635   4.977   8.850
 4136POPC   C1A13719  27.612   5.051   8.550
 4136POPC   D2A13720  27.616   5.123   8.250
 4136POPC   C3A13721  27.549   5.120   7.950
 4136POPC   C4A13722  27.570   5.083   7.650
 4136POPC   C1B13723  27.693   4.843   8.550
 4136POPC   C2B13724  27.613   4.805   8.250
 4136POPC   C3B13725  27.650   4.841   7.950
 4136POPC   C4B13726  27.657   4.830   7.650
 4137POPC   NC313727   8.932  43.890   9.450
 4137POPC   PO413728   8.993  43.844   9.150
 4137POPC   GL113729   8.943  43.881   8.850
 4137POPC   GL213730   8.887  43.945   8.850
 4137POPC   C1A13731   8.967  43.873   8.550
 4137POPC   D2A13732   8.978  43.909   8.250
 4137POPC   C3A13733   8.999  43.925   7.950
 4137POPC   C4A13734   8.940  43.915   7.650
 4137POPC   C1B13735   8.771  44.033   8.550
 4137POPC   C2B13736   8.779  44.037   8.250
 4137POPC   C3B13737   8.784  44.054   7.950
 4137POPC   C4B13738   8.771  44.018   7.650
 4138POPC   NC313739  22.950  35.322   9.450
 4138POPC   PO413740  22.972  35.316   9.150
 4138POPC   GL113741  22.956  35.385   8.850
 4138POPC   GL213742  22.942  35.221   8.850
 4138POPC   C1A13743  22.959  35.318   8.550
 4138POPC   D2A13744  22.961  35.330   8.250
 4138POPC   C3A13745  22.955  35.375   7.950
 4138POPC   C4A13746  22.916  35.308   7.650
 4138POPC   C1B13747  23.015  35.101   8.550
 4138POPC   C2B13748  22.948  35.103   8.250
 4138POPC   C3B13749  22.970  35.065   7.950
 4138POPC   C4B13750  22.944  35.103   7.650
 4139POPC   NC313751  20.602  19.863   9.450
 4139POPC   PO413752  20.641  19.853   9.150
 4139POPC   GL113753  20.580  19.800   8.850
 4139POPC   GL213754  20.526  19.897   8.850
 4139POPC   C1A13755  20.601  19.859   8.550
 4139POPC   D2A13756  20.564  19.808   8.250
 4139POPC   C3A13757  20.641  19.794   7.950
 4139POPC   C4A13758  20.626  19.856   7.650
 4139POPC   C1B13759  20.359  19.918   8.550
 4139POPC   C2B13760  20.399  19.931   8.250
 4139POPC   C3B13761  20.416  19.916   7.950
 4139POPC   C4B13762  20.353  19.970   7.650
 4140POPC   NC313763   5.888  23.730   9.450
 4140POPC   PO413764   5.827  23.687   9.150
 4140POPC   GL113765   5.855  23.719   8.850
 4140POPC   GL213766   5.786  23.656   8.850
 4140POPC   C1A13767   5.827  23.719   8.550
 4140POPC   D2A13768   5.905  23.683   8.250
 4140POPC   C3A13769   5.854  23.686   7.950
 4140POPC   C4A13770   5.888  23.745   7.650
 4140POPC   C1B13771   5.640  23.605   8.550
 4140POPC   C2B13772   5.599  23.640   8.250
 4140POPC   C3B13773   5.651  23.663   7.950
 4140POPC   C4B13774   5.677  23.613   7.650
 4141POPC   NC313775  24.513  12.062   9.450
 4141POPC   PO413776  24.477  12.064   9.150
 4141POPC   GL113777  24.533  12.104   8.850
 4141POPC   GL213778  24.534  12.214   8.850
 4141POPC   C1A13779  24.456  12.028   8.550
 4141POPC   D2A13780  24.478  12.072   8.250
 4141POPC   C3A13781  24.444  12.054   7.950
 4141POPC   C4A13782  24.457  12.029   7.650
 4141POPC   C1B13783  24.481  12.358   8.550
 4141POPC   C2B13784  24.451  12.307   8.250
 4141POPC   C3B13785  24.497  12.307   7.950
 4141POPC   C4B13786  24.536  12.325   7.650
 4142POPC   NC313787   2.013  13.632   9.450
 4142POPC   PO413788   1.950  13.597   9.150
 4142POPC   GL113789   1.962  13.623   8.850
 4142POPC   GL213790   1.971  13.502   8.850
 4142POPC   C1A13791   1.996  13.643   8.550
 4142POPC   D2A13792   1.968  13.615   8.250
 4142POPC   C3A13793   2.029  13.661   7.950
 4142POPC   C4A13794   1.947  13.633   7.650
 4142POPC   C1B13795   1.889  13.371   8.550
 4142POPC   C2B13796   1.899  13.420   8.250
 4142POPC   C3B13797   1.871  13.412   7.950
 4142POPC   C4B13798   1.837  13.459   7.650
 4143POPC   NC313799  43.072   5.111   9.450
 4143POPC   PO413800  43.104   5.131   9.150
 4143POPC   GL113801  43.117   5.047   8.850
 4143POPC   GL213802  43.034   4.954   8.850
 4143POPC   C1A13803  43.106   5.049   8.550
 4143POPC   D2A13804  43.090   5.086   8.250
 4143POPC   C3A13805  43.141   5.094   7.950
 4143POPC   C4A13806  43.063   5.109   7.650
 4143POPC   C1B13807  42.975   4.868   8.550
 4143POPC   C2B13808  42.969   4.892   8.250
 4143POPC   C3B13809  42.974   4.869   7.950
 4143POPC   C4B13810  42.925   4.866   7.650
 4144POPC   NC313811  28.373  35.399   9.450
 4144POPC   PO413812  28.394  35.398   9.150
 4144POPC   GL113813  28.365  35.377   8.850
 4144POPC   GL213814  28.469  35.234   8.850
 4144POPC   C1A13815  28.417  35.375   8.550
 4144POPC   D2A13816  28.395  35.327   8.250
 4144POPC   C3A13817  28.377  35.337   7.950
 4144POPC   C4A13818  28.341  35.367   7.650
 4144POPC   C1B13819  28.593  35.148   8.550
 4144POPC   C2B13820  28.539  35.129   8.250
 4144POPC   C3B13821  28.537  35.194   7.950
 4144POPC   C4B13822  28.508  35.153   7.650
 4145POPC   NC313823  30.708  37.691   9.450
 4145POPC   PO413824  30.683  37.683   9.150
 4145POPC   GL113825  30.673  37.662   8.850
 4145POPC   GL213826  30.744  37.540   8.850
 4145POPC   C1A13827  30.732  37.700   8.550
 4145POPC   D2A13828  30.672  37.688   8.250
 4145POPC   C3A13829  30.658  37.706   7.950
 4145POPC   C4A13830  30.740  37.648   7.650
 4145POPC   C1B13831  30.869  37.498   8.550
 4145POPC   C2B13832  30.873  37.475   8.250
 4145POPC   C3B13833  30.860  37.475   7.950
 4145POPC   C4B13834  30.894  37.516   7.650
 4146POPC   NC313835   5.906  33.011   9.450
 4146POPC   PO413836   5.829  33.021   9.150
 4146POPC   GL113837   5.847  33.041   8.850
 4146POPC   GL213838   5.951  33.055   8.850
 4146POPC   C1A13839   5.870  33.069   8.550
 4146POPC   D2A13840   5.870  33.023   8.250
 4146POPC   C3A13841   5.823  33.004   7.950
 4146POPC   C4A13842   5.919  33.007   7.650
 4146POPC   C1B13843   6.021  33.154   8.550
 4146POPC   C2B13844   6.033  33.221   8.250
 4146POPC   C3B13845   6.022  33.156   7.950
 4146POPC   C4B13846   6.101  33.141   7.650
 4147POPC   NC313847  43.916  26.008   9.450
 4147POPC   PO413848  43.910  26.003   9.150
 4147POPC   GL113849  43.918  26.010   8.850
 4147POPC   GL213850  43.734  25.952   8.850
 4147POPC   C1A13851  43.870  26.017   8.550
 4147POPC   D2A13852  43.913  26.070   8.250
 4147POPC   C3A13853  43.896  26.081   7.950
 4147POPC   C4A13854  43.886  26.049   7.650
 4147POPC   C1B13855  43.612  25.918   8.550
 4147POPC   C2B13856  43.648  25.957   8.250
 4147POPC   C3B13857  43.618  26.003   7.950
 4147POPC   C4B13858  43.617  25.976   7.650
 4148POPC   NC313859  19.811  15.965   9.450
 4148POPC   PO413860  19.883  15.919   9.150
 4148POPC   GL113861  19.842  15.952   8.850
 4148POPC   GL213862  19.777  15.877   8.850
 4148POPC   C1A13863  19.853  15.931   8.550
 4148POPC   D2A13864  19.855  15.962   8.250
 4148POPC   C3A13865  19.823  15.914   7.950
 4148POPC   C4A13866  19.808  15.960   7.650
 4148POPC   C1B13867  19.695  15.750   8.550
 4148POPC   C2B13868  19.741  15.717   8.250
 4148POPC   C3B13869  19.691  15.707   7.950
 4148POPC   C4B13870  19.697  15.772   7.650
 4149POPC   NC313871  32.289  26.793   9.450
 4149POPC   PO413872  32.239  26.804   9.150
 4149POPC   GL113873  32.203  26.792   8.850
 4149POPC   GL213874  32.412  26.815   8.850
 4149POPC   C1A13875  32.240  26.808   8.550
 4149POPC   D2A13876  32.270  26.813   8.250
 4149POPC   C3A13877  32.229  26.773   7.950
 4149POPC   C4A13878  32.280  26.841   7.650
 4149POPC   C1B13879  32.533  26.743   8.550
 4149POPC   C2B13880  32.515  26.712   8.250
 4149POPC   C3B13881  32.444  26.783   7.950
 4149POPC   C4B13882  32.503  26.787   7.650
 4150POPC   NC313883  43.855  10.552   9.450
 4150POPC   PO413884  43.853  10.534   9.150
 4150POPC   GL113885  43.836  10.489   8.850
 4150POPC   GL213886  43.797  10.563   8.850
 4150POPC   C1A13887  43.915  10.532   8.550
 4150POPC   D2A13888  43.864  10.536   8.250
 4150POPC   C3A13889  43.905  10.523   7.950
 4150POPC   C4A13890  43.914  10.555   7.650
 4150POPC   C1B13891  43.657  10.529   8.550
 4150POPC   C2B13892  43.608  10.538   8.250
 4150POPC   C3B13893  43.644  10.483   7.950
 4150POPC   C4B13894  43.675  10.541   7.650
 4151POPC   NC313895  42.301  29.168   9.450
 4151POPC   PO413896  42.329  29.106   9.150
 4151POPC   GL113897  42.381  29.161   8.850
 4151POPC   GL213898  42.217  29.240   8.850
 4151POPC   C1A13899  42.355  29.174   8.550
 4151POPC   D2A13900  42.354  29.172   8.250
 4151POPC   C3A13901  42.330  29.107   7.950
 4151POPC   C4A13902  42.381  29.108   7.650
 4151POPC   C1B13903  42.168  29.291   8.550
 4151POPC   C2B13904  42.097  29.247   8.250
 4151POPC   C3B13905  42.156  29.239   7.950
 4151POPC   C4B13906  42.117  29.243   7.650
 4152POPC   NC313907  44.709  42.315   9.450
 4152POPC   PO413908  44.651  42.369   9.150
 4152POPC   GL113909  44.656  42.289   8.850
 4152POPC   GL213910  44.780  42.366   8.850
 4152POPC   C1A13911  44.686  42.349   8.550
 4152POPC   D2A13912  44.685  42.358   8.250
 4152POPC   C3A13913  44.622  42.320   7.950
 4152POPC   C4A13914  44.661  42.354   7.650
 4152POPC   C1B13915  44.892  42.341   8.550
 4152POPC   C2B13916  44.961  42.372   8.250
 4152POPC   C3B13917  44.900  42.380   7.950
 4152POPC   C4B13918  44.961  42.404   7.650
 4153POPC   NC313919  22.923  20.619   9.450
 4153POPC   PO413920  22.961  20.657   9.150
 4153POPC   GL113921  22.921  20.571   8.850
 4153POPC   GL213922  22.776  20.584   8.850
 4153POPC   C1A13923  22.960  20.632   8.550
 4153POPC   D2A13924  22.950  20.583   8.250
 4153POPC   C3A13925  22.954  20.641   7.950
 4153POPC   C4A13926  22.974  20.621   7.650
 4153POPC   C1B13927  22.691  20.573   8.550
 4153POPC   C2B13928  22.677  20.573   8.250
 4153POPC   C3B13929  22.646  20.629   7.950
 4153POPC   C4B13930  22.642  20.629   7.650
 4154POPC   NC313931  41.602  41.534   9.450
 4154POPC   PO413932  41.590  41.594   9.150
 4154POPC   GL113933  41.512  41.595   8.850
 4154POPC   GL213934  41.516  41.491   8.850
 4154POPC   C1A13935  41.561  41.553   8.550
 4154POPC   D2A13936  41.549  41.583   8.250
 4154POPC   C3A13937  41.540  41.536   7.950
 4154POPC   C4A13938  41.571  41.607   7.650
 4154POPC   C1B13939  41.428  41.305   8.550
 4154POPC   C2B13940  41.467  41.382   8.250
 4154POPC   C3B13941  41.383  41.370   7.950
 4154POPC   C4B13942  41.411  41.319   7.650
 4155POPC   NC313943  19.850  36.932   9.450
 4155POPC   PO413944  19.822  36.935   9.150
 4155POPC   GL113945  19.874  36.904   8.850
 4155POPC   GL213946  19.773  36.831   8.850
 4155POPC   C1A13947  19.862  36.910   8.550
 4155POPC   D2A13948  19.816  36.888   8.250
 4155POPC   C3A13949  19.858  36.925   7.950
 4155POPC   C4A13950  19.877  36.889   7.650
 4155POPC   C1B13951  19.688  36.731   8.550
 4155POPC   C2B13952  19.606  36.716   8.250
 4155POPC   C3B13953  19.691  36.693   7.950
 4155POPC   C4B13954  19.606  36.779   7.650
 4156POPC   NC313955   2.029  26.815   9.450
 4156POPC   PO413956   2.017  26.775   9.150
 4156POPC   GL113957   1.968  26.809   8.850
 4156POPC   GL213958   1.891  26.753   8.850
 4156POPC   C1A13959   2.021  26.771   8.550
 4156POPC   D2A13960   1.974  26.846   8.250
 4156POPC   C3A13961   2.030  26.792   7.950
 4156POPC   C4A13962   2.033  26.835   7.650
 4156POPC   C1B13963   1.715  26.774   8.550
 4156POPC   C2B13964   1.734  26.708   8.250
 4156POPC   C3B13965   1.732  26.723   7.950
 4156POPC   C4B13966   1.740  26.766   7.650
 4157POPC   NC313967  39.209  26.806   9.450
 4157POPC   PO413968  39.272  26.777   9.150
 4157POPC   GL113969  39.240  26.794   8.850
 4157POPC   GL213970  39.132  26.706   8.850
 4157POPC   C1A13971  39.230  26.866   8.550
 4157POPC   D2A13972  39.235  26.770   8.250
 4157POPC   C3A13973  39.216  26.788   7.950
 4157POPC   C4A13974  39.239  26.863   7.650
 4157POPC   C1B13975  39.162  26.620   8.550
 4157POPC   C2B13976  39.105  26.554   8.250
 4157POPC   C3B13977  39.170  26.565   7.950
 4157POPC   C4B13978  39.124  26.633   7.650
 4158POPC   NC313979  21.357  12.861   9.450
 4158POPC   PO413980  21.356  12.803   9.150
 4158POPC   GL113981  21.430  12.806   8.850
 4158POPC   GL213982  21.387  12.748   8.850
 4158POPC   C1A13983  21.392  12.871   8.550
 4158POPC   D2A13984  21.366  12.895   8.250
 4158POPC   C3A13985  21.378  12.825   7.950
 4158POPC   C4A13986  21.379  12.845   7.650
 4158POPC   C1B13987  21.250  12.609   8.550
 4158POPC   C2B13988  21.337  12.625   8.250
 4158POPC   C3B13989  21.338  12.626   7.950
 4158POPC   C4B13990  21.282  12.653   7.650
 4159POPC   NC313991  29.183  43.109   9.450
 4159POPC   PO413992  29.106  43.095   9.150
 4159POPC   GL113993  29.146  43.079   8.850
 4159POPC   GL213994  29.015  43.129   8.850
 4159POPC   C1A13995  29.102  43.061   8.550
 4159POPC   D2A13996  29.142  43.079   8.250
 4159POPC   C3A13997  29.176  43.154   7.950
 4159POPC   C4A13998  29.143  43.127   7.650
 4159POPC   C1B13999  28.858  43.117   8.550
 4159POPC   C2B14000  28.901  43.142   8.250
 4159POPC   C3B14001  28.916  43.206   7.950
 4159POPC   C4B14002  28.930  43.190   7.650
 4160POPC   NC314003  44.673  43.112   9.450
 4160POPC   PO414004  44.689  43.084   9.150
 4160POPC   GL114005  44.622  43.144   8.850
 4160POPC   GL214006  44.764  43.015   8.850
 4160POPC   C1A14007  44.708  43.079   8.550
 4160POPC   D2A14008  44.646  43.073   8.250
 4160POPC   C3A14009  44.649  43.113   7.950
 4160POPC   C4A14010  44.664  43.077   7.650
 4160POPC   C1B14011  44.844  42.899   8.550
 4160POPC   C2B14012  44.799  42.906   8.250
 4160POPC   C3B14013  44.864  42.937   7.950
 4160POPC   C4B14014  44.829  42.976   7.650
 4161POPC   NC314015  22.926   1.177   9.450
 4161POPC   PO414016  22.983   1.214   9.150
 4161POPC   GL114017  22.985   1.191   8.850
 4161POPC   GL214018  22.922   1.138   8.850
 4161POPC   C1A14019  22.976   1.199   8.550
 4161POPC   D2A14020  22.907   1.262   8.250
 4161POPC   C3A14021  22.930   1.173   7.950
 4161POPC   C4A14022  22.922   1.171   7.650
 4161POPC   C1B14023  22.924   0.961   8.550
 4161POPC   C2B14024  22.903   0.971   8.250
 4161POPC   C3B14025  22.926   0.949   7.950
 4161POPC   C4B14026  22.950   0.995   7.650
 4162POPC   NC314027  28.325  39.207   9.450
 4162POPC   PO414028  28.350  39.226   9.150
 4162POPC   GL114029  28.419  39.193   8.850
 4162POPC   GL214030  28.395  39.150   8.850
 4162POPC   C1A14031  28.361  39.188   8.550
 4162POPC   D2A14032  28.399  39.253   8.250
 4162POPC   C3A14033  28.411  39.247   7.950
 4162POPC   C4A14034  28.412  39.233   7.650
 4162POPC   C1B14035  28.429  39.011   8.550
 4162POPC   C2B14036  28.364  38.995   8.250
 4162POPC   C3B14037  28.341  39.006   7.950
 4162POPC   C4B14038  28.376  38.961   7.650
 4163POPC   NC314039  12.065  23.684   9.450
 4163POPC   PO414040  12.124  23.691   9.150
 4163POPC   GL114041  12.121  23.753   8.850
 4163POPC   GL214042  12.178  23.626   8.850
 4163POPC   C1A14043  12.042  23.739   8.550
 4163POPC   D2A14044  12.089  23.730   8.250
 4163POPC   C3A14045  12.035  23.678   7.950
 4163POPC   C4A14046  12.033  23.699   7.650
 4163POPC   C1B14047  12.227  23.545   8.550
 4163POPC   C2B14048  12.206  23.463   8.250
 4163POPC   C3B14049  12.223  23.500   7.950
 4163POPC   C4B14050  12.190  23.553   7.650
 4164POPC   NC314051  12.814  22.128   9.450
 4164POPC   PO414052  12.862  22.208   9.150
 4164POPC   GL114053  12.803  22.171   8.850
 4164POPC   GL214054  12.701  22.106   8.850
 4164POPC   C1A14055  12.875  22.203   8.550
 4164POPC   D2A14056  12.855  22.132   8.250
 4164POPC   C3A14057  12.896  22.133   7.950
 4164POPC   C4A14058  12.843  22.176   7.650
 4164POPC   C1B14059  12.591  22.124   8.550
 4164POPC   C2B14060  12.567  22.118   8.250
 4164POPC   C3B14061  12.615  22.047   7.950
 4164POPC   C4B14062  12.653  22.059   7.650
 4165POPC   NC314063   8.961  18.307   9.450
 4165POPC   PO414064   8.967  18.319   9.150
 4165POPC   GL114065   8.973  18.331   8.850
 4165POPC   GL214066   9.091  18.253   8.850
 4165POPC   C1A14067   9.006  18.267   8.550
 4165POPC   D2A14068   9.017  18.293   8.250
 4165POPC   C3A14069   8.979  18.317   7.950
 4165POPC   C4A14070   8.937  18.256   7.650
 4165POPC   C1B14071   9.176  18.181   8.550
 4165POPC   C2B14072   9.240  18.248   8.250
 4165POPC   C3B14073   9.190  18.266   7.950
 4165POPC   C4B14074   9.240  18.177   7.650
 4166POPC   NC314075  36.133  10.548   9.450
 4166POPC   PO414076  36.166  10.518   9.150
 4166POPC   GL114077  36.139  10.519   8.850
 4166POPC   GL214078  36.208  10.440   8.850
 4166POPC   C1A14079  36.116  10.572   8.550
 4166POPC   D2A14080  36.120  10.487   8.250
 4166POPC   C3A14081  36.142  10.562   7.950
 4166POPC   C4A14082  36.097  10.497   7.650
 4166POPC   C1B14083  36.349  10.414   8.550
 4166POPC   C2B14084  36.349  10.400   8.250
 4166POPC   C3B14085  36.311  10.351   7.950
 4166POPC   C4B14086  36.363  10.368   7.650
 4167POPC   NC314087  11.310  35.315   9.450
 4167POPC   PO414088  11.300  35.383   9.150
 4167POPC   GL114089  11.323  35.380   8.850
 4167POPC   GL214090  11.189  35.363   8.850
 4167POPC   C1A14091  11.324  35.322   8.550
 4167POPC   D2A14092  11.310  35.376   8.250
 4167POPC   C3A14093  11.308  35.381   7.950
 4167POPC   C4A14094  11.297  35.313   7.650
 4167POPC   C1B14095  11.056  35.443   8.550
 4167POPC   C2B14096  11.092  35.415   8.250
 4167POPC   C3B14097  11.049  35.398   7.950
 4167POPC   C4B14098  11.071  35.401   7.650
 4168POPC   NC314099  41.521  22.114   9.450
 4168POPC   PO414100  41.589  22.180   9.150
 4168POPC   GL114101  41.598  22.131   8.850
 4168POPC   GL214102  41.531  22.070   8.850
 4168POPC   C1A14103  41.521  22.198   8.550
 4168POPC   D2A14104  41.571  22.183   8.250
 4168POPC   C3A14105  41.513  22.119   7.950
 4168POPC   C4A14106  41.517  22.191   7.650
 4168POPC   C1B14107  41.394  21.955   8.550
 4168POPC   C2B14108  41.457  21.920   8.250
 4168POPC   C3B14109  41.473  21.892   7.950
 4168POPC   C4B14110  41.415  21.939   7.650
 4169POPC   NC314111  11.296  23.681   9.450
 4169POPC   PO414112  11.347  23.729   9.150
 4169POPC   GL114113  11.349  23.753   8.850
 4169POPC   GL214114  11.385  23.691   8.850
 4169POPC   C1A14115  11.340  23.737   8.550
 4169POPC   D2A14116  11.284  23.679   8.250
 4169POPC   C3A14117  11.272  23.672   7.950
 4169POPC   C4A14118  11.312  23.731   7.650
 4169POPC   C1B14119  11.530  23.754   8.550
 4169POPC   C2B14120  11.553  23.679   8.250
 4169POPC   C3B14121  11.581  23.733   7.950
 4169POPC   C4B14122  11.573  23.684   7.650
 4170POPC   NC314123  15.910   5.109   9.450
 4170POPC   PO414124  15.919   5.054   9.150
 4170POPC   GL114125  15.920   5.097   8.850
 4170POPC   GL214126  16.067   5.022   8.850
 4170POPC   C1A14127  15.992   5.068   8.550
 4170POPC   D2A14128  15.908   5.102   8.250
 4170POPC   C3A14129  15.986   5.059   7.950
 4170POPC   C4A14130  15.957   5.140   7.650
 4170POPC   C1B14131  16.232   4.971   8.550
 4170POPC   C2B14132  16.198   4.994   8.250
 4170POPC   C3B14133  16.183   5.028   7.950
 4170POPC   C4B14134  16.231   4.995   7.650
 4171POPC   NC314135  19.879  33.777   9.450
 4171POPC   PO414136  19.831  33.764   9.150
 4171POPC   GL114137  19.823  33.830   8.850
 4171POPC   GL214138  19.736  33.715   8.850
 4171POPC   C1A14139  19.865  33.850   8.550
 4171POPC   D2A14140  19.817  33.842   8.250
 4171POPC   C3A14141  19.837  33.762   7.950
 4171POPC   C4A14142  19.831  33.810   7.650
 4171POPC   C1B14143  19.664  33.658   8.550
 4171POPC   C2B14144  19.677  33.654   8.250
 4171POPC   C3B14145  19.673  33.616   7.950
 4171POPC   C4B14146  19.667  33.603   7.650
 4172POPC   NC314147  12.113  43.841   9.450
 4172POPC   PO414148  12.094  43.839   9.150
 4172POPC   GL114149  12.108  43.846   8.850
 4172POPC   GL214150  12.020  43.736   8.850
 4172POPC   C1A14151  12.027  43.925   8.550
 4172POPC   D2A14152  12.123  43.933   8.250
 4172POPC   C3A14153  12.076  43.929   7.950
 4172POPC   C4A14154  12.106  43.892   7.650
 4172POPC   C1B14155  12.007  43.682   8.550
 4172POPC   C2B14156  11.970  43.703   8.250
 4172POPC   C3B14157  11.989  43.617   7.950
 4172POPC   C4B14158  11.980  43.626   7.650
 4173POPC   NC314159  17.523  25.230   9.450
 4173POPC   PO414160  17.472  25.233   9.150
 4173POPC   GL114161  17.479  25.248   8.850
 4173POPC   GL214162  17.630  25.174   8.850
 4173POPC   C1A14163  17.496  25.273   8.550
 4173POPC   D2A14164  17.470  25.278   8.250
 4173POPC   C3A14165  17.488  25.301   7.950
 4173POPC   C4A14166  17.477  25.277   7.650
 4173POPC   C1B14167  17.648  25.077   8.550
 4173POPC   C2B14168  17.681  25.030   8.250
 4173POPC   C3B14169  17.639  25.079   7.950
 4173POPC   C4B14170  17.635  25.047   7.650
 4174POPC   NC314171   9.017  24.460   9.450
 4174POPC   PO414172   9.012  24.442   9.150
 4174POPC   GL114173   9.020  24.508   8.850
 4174POPC   GL214174   8.940  24.429   8.850
 4174POPC   C1A14175   9.016  24.504   8.550
 4174POPC   D2A14176   8.940  24.488   8.250
 4174POPC   C3A14177   8.956  24.489   7.950
 4174POPC   C4A14178   8.923  24.463   7.650
 4174POPC   C1B14179   8.874  24.282   8.550
 4174POPC   C2B14180   8.869  24.257   8.250
 4174POPC   C3B14181   8.867  24.258   7.950
 4174POPC   C4B14182   8.832  24.330   7.650
 4175POPC   NC314183  14.385  15.963   9.450
 4175POPC   PO414184  14.407  15.980   9.150
 4175POPC   GL114185  14.422  15.999   8.850
 4175POPC   GL214186  14.297  15.941   8.850
 4175POPC   C1A14187  14.435  15.917   8.550
 4175POPC   D2A14188  14.368  15.914   8.250
 4175POPC   C3A14189  14.423  15.942   7.950
 4175POPC   C4A14190  14.417  16.001   7.650
 4175POPC   C1B14191  14.110  15.911   8.550
 4175POPC   C2B14192  14.142  15.930   8.250
 4175POPC   C3B14193  14.146  15.941   7.950
 4175POPC   C4B14194  14.113  15.934   7.650
 4176POPC   NC314195  27.603  35.334   9.450
 4176POPC   PO414196  27.640  35.363   9.150
 4176POPC   GL114197  27.564  35.332   8.850
 4176POPC   GL214198  27.461  35.259   8.850
 4176POPC   C1A14199  27.586  35.394   8.550
 4176POPC   D2A14200  27.613  35.340   8.250
 4176POPC   C3A14201  27.638  35.350   7.950
 4176POPC   C4A14202  27.620  35.393   7.650
 4176POPC   C1B14203  27.414  35.153   8.550
 4176POPC   C2B14204  27.386  35.138   8.250
 4176POPC   C3B14205  27.392  35.181   7.950
 4176POPC   C4B14206  27.373  35.199   7.650
 4177POPC   NC314207  34.530  29.959   9.450
 4177POPC   PO414208  34.547  29.875   9.150
 4177POPC   GL114209  34.552  29.883   8.850
 4177POPC   GL214210  34.518  29.770   8.850
 4177POPC   C1A14211  34.578  29.937   8.550
 4177POPC   D2A14212  34.608  29.895   8.250
 4177POPC   C3A14213  34.620  29.931   7.950
 4177POPC   C4A14214  34.610  29.878   7.650
 4177POPC   C1B14215  34.481  29.668   8.550
 4177POPC   C2B14216  34.542  29.648   8.250
 4177POPC   C3B14217  34.459  29.651   7.950
 4177POPC   C4B14218  34.530  29.644   7.650
 4178POPC   NC314219  16.759   5.124   9.450
 4178POPC   PO414220  16.745   5.106   9.150
 4178POPC   GL114221  16.699   5.059   8.850
 4178POPC   GL214222  16.570   5.085   8.850
 4178POPC   C1A14223  16.766   5.119   8.550
 4178POPC   D2A14224  16.717   5.121   8.250
 4178POPC   C3A14225  16.775   5.087   7.950
 4178POPC   C4A14226  16.694   5.090   7.650
 4178POPC   C1B14227  16.485   5.138   8.550
 4178POPC   C2B14228  16.438   5.155   8.250
 4178POPC   C3B14229  16.519   5.106   7.950
 4178POPC   C4B14230  16.478   5.142   7.650
 4179POPC   NC314231  15.907  16.770   9.450
 4179POPC   PO414232  15.940  16.725   9.150
 4179POPC   GL114233  15.954  16.770   8.850
 4179POPC   GL214234  15.829  16.742   8.850
 4179POPC   C1A14235  15.979  16.693   8.550
 4179POPC   D2A14236  15.906  16.731   8.250
 4179POPC   C3A14237  15.978  16.752   7.950
 4179POPC   C4A14238  15.930  16.729   7.650
 4179POPC   C1B14239  15.669  16.726   8.550
 4179POPC   C2B14240  15.701  16.756   8.250
 4179POPC   C3B14241  15.754  16.772   7.950
 4179POPC   C4B14242  15.710  16.779   7.650
 4180POPC   NC314243  27.618  43.106   9.450
 4180POPC   PO414244  27.628  43.097   9.150
 4180POPC   GL114245  27.642  43.070   8.850
 4180POPC   GL214246  27.707  43.155   8.850
 4180POPC   C1A14247  27.544  43.119   8.550
 4180POPC   D2A14248  27.588  43.138   8.250
 4180POPC   C3A14249  27.608  43.108   7.950
 4180POPC   C4A14250  27.624  43.105   7.650
 4180POPC   C1B14251  27.860  43.180   8.550
 4180POPC   C2B14252  27.773  43.173   8.250
 4180POPC   C3B14253  27.838  43.179   7.950
 4180POPC   C4B14254  27.824  43.246   7.650
 4181POPC   NC314255  43.888  19.842   9.450
 4181POPC   PO414256  43.837  19.842   9.150
 4181POPC   GL114257  43.922  19.870   8.850
 4181POPC   GL214258  43.949  19.940   8.850
 4181POPC   C1A14259  43.873  19.845   8.550
 4181POPC   D2A14260  43.879  19.843   8.250
 4181POPC   C3A14261  43.900  19.882   7.950
 4181POPC   C4A14262  43.844  19.812   7.650
 4181POPC   C1B14263  44.034  20.012   8.550
 4181POPC   C2B14264  44.065  20.075   8.250
 4181POPC   C3B14265  44.036  20.041   7.950
 4181POPC   C4B14266  44.058  20.069   7.650
 4182POPC   NC314267   5.895  22.893   9.450
 4182POPC   PO414268   5.828  22.963   9.150
 4182POPC   GL114269   5.854  22.953   8.850
 4182POPC   GL214270   5.835  22.773   8.850
 4182POPC   C1A14271   5.894  22.925   8.550
 4182POPC   D2A14272   5.892  22.980   8.250
 4182POPC   C3A14273   5.899  22.909   7.950
 4182POPC   C4A14274   5.855  22.983   7.650
 4182POPC   C1B14275   5.793  22.711   8.550
 4182POPC   C2B14276   5.768  22.740   8.250
 4182POPC   C3B14277   5.747  22.744   7.950
 4182POPC   C4B14278   5.772  22.688   7.650
 4183POPC   NC314279  30.659  42.348   9.450
 4183POPC   PO414280  30.696  42.377   9.150
 4183POPC   GL114281  30.671  42.349   8.850
 4183POPC   GL214282  30.608  42.359   8.850
 4183POPC   C1A14283  30.723  42.323   8.550
 4183POPC   D2A14284  30.670  42.352   8.250
 4183POPC   C3A14285  30.655  42.331   7.950
 4183POPC   C4A14286  30.700  42.320   7.650
 4183POPC   C1B14287  30.431  42.435   8.550
 4183POPC   C2B14288  30.504  42.461   8.250
 4183POPC   C3B14289  30.508  42.408   7.950
 4183POPC   C4B14290  30.452  42.464   7.650
 4184POPC   NC314291  34.569  36.102   9.450
 4184POPC   PO414292  34.621  36.086   9.150
 4184POPC   GL114293  34.595  36.135   8.850
 4184POPC   GL214294  34.411  36.142   8.850
 4184POPC   C1A14295  34.612  36.093   8.550
 4184POPC   D2A14296  34.592  36.127   8.250
 4184POPC   C3A14297  34.573  36.151   7.950
 4184POPC   C4A14298  34.580  36.168   7.650
 4184POPC   C1B14299  34.300  36.183   8.550
 4184POPC   C2B14300  34.357  36.196   8.250
 4184POPC   C3B14301  34.381  36.260   7.950
 4184POPC   C4B14302  34.300  36.271   7.650
 4185POPC   NC314303   5.888   6.634   9.450
 4185POPC   PO414304   5.884   6.666   9.150
 4185POPC   GL114305   5.914   6.664   8.850
 4185POPC   GL214306   5.794   6.601   8.850
 4185POPC   C1A14307   5.903   6.680   8.550
 4185POPC   D2A14308   5.916   6.689   8.250
 4185POPC   C3A14309   5.870   6.688   7.950
 4185POPC   C4A14310   5.866   6.643   7.650
 4185POPC   C1B14311   5.657   6.654   8.550
 4185POPC   C2B14312   5.655   6.640   8.250
 4185POPC   C3B14313   5.666   6.608   7.950
 4185POPC   C4B14314   5.655   6.610   7.650
 4186POPC   NC314315  43.842  35.390   9.450
 4186POPC   PO414316  43.842  35.324   9.150
 4186POPC   GL114317  43.868  35.392   8.850
 4186POPC   GL214318  43.744  35.481   8.850
 4186POPC   C1A14319  43.908  35.315   8.550
 4186POPC   D2A14320  43.931  35.388   8.250
 4186POPC   C3A14321  43.850  35.385   7.950
 4186POPC   C4A14322  43.846  35.342   7.650
 4186POPC   C1B14323  43.698  35.562   8.550
 4186POPC   C2B14324  43.743  35.502   8.250
 4186POPC   C3B14325  43.712  35.524   7.950
 4186POPC   C4B14326  43.718  35.524   7.650
 4187POPC   NC314327   7.396  16.728   9.450
 4187POPC   PO414328   7.406  16.706   9.150
 4187POPC   GL114329   7.397  16.766   8.850
 4187POPC   GL214330   7.508  16.631   8.850
 4187POPC   C1A14331   7.468  16.750   8.550
 4187POPC   D2A14332   7.454  16.736   8.250
 4187POPC   C3A14333   7.396  16.706   7.950
 4187POPC   C4A14334   7.390  16.703   7.650
 4187POPC   C1B14335   7.618  16.487   8.550
 4187POPC   C2B14336   7.579  16.540   8.250
 4187POPC   C3B14337   7.536  16.512   7.950
 4187POPC   C4B14338   7.590  16.558   7.650
 4188POPC   NC314339  12.054   7.452   9.450
 4188POPC   PO414340  12.117   7.435   9.150
 4188POPC   GL114341  12.116   7.408   8.850
 4188POPC   GL214342  12.013   7.352   8.850
 4188POPC   C1A14343  12.059   7.434   8.550
 4188POPC   D2A14344  12.051   7.469   8.250
 4188POPC   C3A14345  12.126   7.391   7.950
 4188POPC   C4A14346  12.050   7.401   7.650
 4188POPC   C1B14347  11.904   7.312   8.550
 4188POPC   C2B14348  11.886   7.282   8.250
 4188POPC   C3B14349  11.837   7.309   7.950
 4188POPC   C4B14350  11.868   7.294   7.650
 4189POPC   NC314351   4.300  26.834   9.450
 4189POPC   PO414352   4.362  26.847   9.150
 4189POPC   GL114353   4.312  26.845   8.850
 4189POPC   GL214354   4.256  26.953   8.850
 4189POPC   C1A14355   4.341  26.789   8.550
 4189POPC   D2A14356   4.341  26.843   8.250
 4189POPC   C3A14357   4.348  26.850   7.950
 4189POPC   C4A14358   4.357  26.807   7.650
 4189POPC   C1B14359   4.237  27.023   8.550
 4189POPC   C2B14360   4.198  27.016   8.250
 4189POPC   C3B14361   4.236  27.008   7.950
 4189POPC   C4B14362   4.265  27.014   7.650
 4190POPC   NC314363  16.729  17.549   9.450
 4190POPC   PO414364  16.729  17.488   9.150
 4190POPC   GL114365  16.768  17.464   8.850
 4190POPC   GL214366  16.590  17.386   8.850
 4190POPC   C1A14367  16.770  17.509   8.550
 4190POPC   D2A14368  16.774  17.463   8.250
 4190POPC   C3A14369  16.776  17.467   7.950
 4190POPC   C4A14370  16.761  17.520   7.650
 4190POPC   C1B14371  16.484  17.399   8.550
 4190POPC   C2B14372  16.497  17.402   8.250
 4190POPC   C3B14373  16.571  17.323   7.950
 4190POPC   C4B14374  16.482  17.410   7.650
 4191POPC   NC314375  12.032  43.114   9.450
 4191POPC   PO414376  12.037  43.147   9.150
 4191POPC   GL114377  12.078  43.065   8.850
 4191POPC   GL214378  11.963  43.103   8.850
 4191POPC   C1A14379  12.085  43.140   8.550
 4191POPC   D2A14380  12.028  43.121   8.250
 4191POPC   C3A14381  12.061  43.157   7.950
 4191POPC   C4A14382  12.094  43.121   7.650
 4191POPC   C1B14383  11.823  43.121   8.550
 4191POPC   C2B14384  11.807  43.101   8.250
 4191POPC   C3B14385  11.822  43.138   7.950
 4191POPC   C4B14386  11.856  43.130   7.650
 4192POPC   NC314387  19.019   1.999   9.450
 4192POPC   PO414388  19.070   1.990   9.150
 4192POPC   GL114389  19.047   1.954   8.850
 4192POPC   GL214390  19.132   1.844   8.850
 4192POPC   C1A14391  19.024   2.029   8.550
 4192POPC   D2A14392  19.089   2.020   8.250
 4192POPC   C3A14393  19.073   1.991   7.950
 4192POPC   C4A14394  19.101   2.008   7.650
 4192POPC   C1B14395  19.076   1.773   8.550
 4192POPC   C2B14396  19.134   1.734   8.250
 4192POPC   C3B14397  19.134   1.797   7.950
 4192POPC   C4B14398  19.160   1.723   7.650
 4193POPC   NC314399  12.075  44.659   9.450
 4193POPC   PO414400  12.046  44.703   9.150
 4193POPC   GL114401  12.066  44.686   8.850
 4193POPC   GL214402  12.013  44.579   8.850
 4193POPC   C1A14403  12.041  44.618   8.550
 4193POPC   D2A14404  12.107  44.694   8.250
 4193POPC   C3A14405  12.092  44.633   7.950
 4193POPC   C4A14406  12.096  44.666   7.650
 4193POPC   C1B14407  11.923  44.453   8.550
 4193POPC   C2B14408  11.899  44.497   8.250
 4193POPC   C3B14409  11.921  44.492   7.950
 4193POPC   C4B14410  11.855  44.460   7.650
 4194POPC   NC314411  34.545   9.702   9.450
 4194POPC   PO414412  34.610   9.792   9.150
 4194POPC   GL114413  34.548   9.761   8.850
 4194POPC   GL214414  34.570   9.665   8.850
 4194POPC   C1A14415  34.593   9.798   8.550
 4194POPC   D2A14416  34.621   9.774   8.250
 4194POPC   C3A14417  34.555   9.730   7.950
 4194POPC   C4A14418  34.545   9.766   7.650
 4194POPC   C1B14419  34.555   9.509   8.550
 4194POPC   C2B14420  34.532   9.525   8.250
 4194POPC   C3B14421  34.517   9.470   7.950
 4194POPC   C4B14422  34.562   9.461   7.650
 4195POPC   NC314423  34.607  12.816   9.450
 4195POPC   PO414424  34.548  12.856   9.150
 4195POPC   GL114425  34.533  12.855   8.850
 4195POPC   GL214426  34.626  12.948   8.850
 4195POPC   C1A14427  34.623  12.852   8.550
 4195POPC   D2A14428  34.537  12.880   8.250
 4195POPC   C3A14429  34.528  12.872   7.950
 4195POPC   C4A14430  34.578  12.902   7.650
 4195POPC   C1B14431  34.577  13.102   8.550
 4195POPC   C2B14432  34.608  13.093   8.250
 4195POPC   C3B14433  34.609  13.068   7.950
 4195POPC   C4B14434  34.595  13.050   7.650
 4196POPC   NC314435  33.055  26.037   9.450
 4196POPC   PO414436  33.043  26.084   9.150
 4196POPC   GL114437  33.053  26.090   8.850
 4196POPC   GL214438  33.116  25.950   8.850
 4196POPC   C1A14439  33.030  26.063   8.550
 4196POPC   D2A14440  33.015  26.081   8.250
 4196POPC   C3A14441  33.037  26.043   7.950
 4196POPC   C4A14442  32.985  26.003   7.650
 4196POPC   C1B14443  33.126  25.842   8.550
 4196POPC   C2B14444  33.134  25.841   8.250
 4196POPC   C3B14445  33.215  25.810   7.950
 4196POPC   C4B14446  33.203  25.828   7.650
 4197POPC   NC314447  19.813  14.443   9.450
 4197POPC   PO414448  19.831  14.385   9.150
 4197POPC   GL114449  19.786  14.420   8.850
 4197POPC   GL214450  19.681  14.500   8.850
 4197POPC   C1A14451  19.806  14.374   8.550
 4197POPC   D2A14452  19.843  14.384   8.250
 4197POPC   C3A14453  19.873  14.406   7.950
 4197POPC   C4A14454  19.820  14.445   7.650
 4197POPC   C1B14455  19.598  14.579   8.550
 4197POPC   C2B14456  19.595  14.500   8.250
 4197POPC   C3B14457  19.598  14.534   7.950
 4197POPC   C4B14458  19.606  14.520   7.650
 4198POPC   NC314459  14.420  17.481   9.450
 4198POPC   PO414460  14.437  17.504   9.150
 4198POPC   GL114461  14.384  17.475   8.850
 4198POPC   GL214462  14.569  17.506   8.850
 4198POPC   C1A14463  14.447  17.503   8.550
 4198POPC   D2A14464  14.377  17.496   8.250
 4198POPC   C3A14465  14.447  17.503   7.950
 4198POPC   C4A14466  14.392  17.541   7.650
 4198POPC   C1B14467  14.631  17.497   8.550
 4198POPC   C2B14468  14.614  17.539   8.250
 4198POPC   C3B14469  14.604  17.509   7.950
 4198POPC   C4B14470  14.677  17.510   7.650
 4199POPC   NC314471   3.569  34.557   9.450
 4199POPC   PO414472   3.578  34.589   9.150
 4199POPC   GL114473   3.591  34.625   8.850
 4199POPC   GL214474   3.437  34.501   8.850
 4199POPC   C1A14475   3.551  34.543   8.550
 4199POPC   D2A14476   3.515  34.584   8.250
 4199POPC   C3A14477   3.531  34.528   7.950
 4199POPC   C4A14478   3.549  34.572   7.650
 4199POPC   C1B14479   3.337  34.409   8.550
 4199POPC   C2B14480   3.385  34.446   8.250
 4199POPC   C3B14481   3.341  34.384   7.950
 4199POPC   C4B14482   3.389  34.422   7.650
 4200POPC   NC314483  43.882  22.905   9.450
 4200POPC   PO414484  43.882  22.890   9.150
 4200POPC   GL114485  43.892  22.947   8.850
 4200POPC   GL214486  43.900  23.026   8.850
 4200POPC   C1A14487  43.848  22.983   8.550
 4200POPC   D2A14488  43.900  22.895   8.250
 4200POPC   C3A14489  43.903  22.981   7.950
 4200POPC   C4A14490  43.841  22.982   7.650
 4200POPC   C1B14491  43.967  23.182   8.550
 4200POPC   C2B14492  43.888  23.139   8.250
 4200POPC   C3B14493  43.912  23.158   7.950
 4200POPC   C4B14494  43.959  23.203   7.650
 4201POPC   NC314495  27.595  44.650   9.450
 4201POPC   PO414496  27.556  44.700   9.150
 4201POPC   GL114497  27.614  44.654   8.850
 4201POPC   GL214498  27.649  44.539   8.850
 4201POPC   C1A14499  27.638  44.708   8.550
 4201POPC   D2A14500  27.591  44.634   8.250
 4201POPC   C3A14501  27.568  44.679   7.950
 4201POPC   C4A14502  27.613  44.657   7.650
 4201POPC   C1B14503  27.583  44.451   8.550
 4201POPC   C2B14504  27.593  44.379   8.250
 4201POPC   C3B14505  27.604  44.452   7.950
 4201POPC   C4B14506  27.664  44.433   7.650
 4202POPC   NC314507  26.778   5.821   9.450
 4202POPC   PO414508  26.844   5.886   9.150
 4202POPC   GL114509  26.830   5.865   8.850
 4202POPC   GL214510  26.673   5.809   8.850
 4202POPC   C1A14511  26.841   5.862   8.550
 4202POPC   D2A14512  26.785   5.911   8.250
 4202POPC   C3A14513  26.787   5.826   7.950
 4202POPC   C4A14514  26.771   5.843   7.650
 4202POPC   C1B14515  26.576   5.731   8.550
 4202POPC   C2B14516  26.585   5.749   8.250
 4202POPC   C3B14517  26.618   5.734   7.950
 4202POPC   C4B14518  26.567   5.719   7.650
 4203POPC   NC314519  22.929  27.590   9.450
 4203POPC   PO414520  22.942  27.579   9.150
 4203POPC   GL114521  22.956  27.603   8.850
 4203POPC   GL214522  22.873  27.672   8.850
 4203POPC   C1A14523  22.898  27.607   8.550
 4203POPC   D2A14524  22.984  27.556   8.250
 4203POPC   C3A14525  22.982  27.627   7.950
 4203POPC   C4A14526  22.953  27.636   7.650
 4203POPC   C1B14527  22.702  27.794   8.550
 4203POPC   C2B14528  22.727  27.786   8.250
 4203POPC   C3B14529  22.762  27.728   7.950
 4203POPC   C4B14530  22.758  27.799   7.650
 4204POPC   NC314531   5.823   8.193   9.450
 4204POPC   PO414532   5.883   8.166   9.150
 4204POPC   GL114533   5.893   8.161   8.850
 4204POPC   GL214534   6.038   8.168   8.850
 4204POPC   C1A14535   5.836   8.234   8.550
 4204POPC   D2A14536   5.918   8.225   8.250
 4204POPC   C3A14537   5.835   8.165   7.950
 4204POPC   C4A14538   5.868   8.241   7.650
 4204POPC   C1B14539   6.091   8.196   8.550
 4204POPC   C2B14540   6.153   8.183   8.250
 4204POPC   C3B14541   6.103   8.150   7.950
 4204POPC   C4B14542   6.114   8.194   7.650
 4205POPC   NC314543   9.019  29.133   9.450
 4205POPC   PO414544   9.015  29.145   9.150
 4205POPC   GL114545   9.003  29.177   8.850
 4205POPC   GL214546   8.958  29.234   8.850
 4205POPC   C1A14547   8.988  29.174   8.550
 4205POPC   D2A14548   9.017  29.161   8.250
 4205POPC   C3A14549   8.963  29.182   7.950
 4205POPC   C4A14550   9.009  29.186   7.650
 4205POPC   C1B14551   8.934  29.391   8.550
 4205POPC   C2B14552   8.964  29.416   8.250
 4205POPC   C3B14553   8.916  29.397   7.950
 4205POPC   C4B14554   8.893  29.346   7.650
 4206POPC   NC314555  16.732  26.835   9.450
 4206POPC   PO414556  16.686  26.839   9.150
 4206POPC   GL114557  16.737  26.785   8.850
 4206POPC   GL214558  16.874  26.912   8.850
 4206POPC   C1A14559  16.708  26.830   8.550
 4206POPC   D2A14560  16.705  26.780   8.250
 4206POPC   C3A14561  16.734  26.777   7.950
 4206POPC   C4A14562  16.733  26.806   7.650
 4206POPC   C1B14563  16.921  26.933   8.550
 4206POPC   C2B14564  16.926  26.948   8.250
 4206POPC   C3B14565  16.990  26.914   7.950
 4206POPC   C4B14566  16.990  26.970   7.650
 4207POPC   NC314567  32.252  21.399   9.450
 4207POPC   PO414568  32.296  21.391   9.150
 4207POPC   GL114569  32.234  21.386   8.850
 4207POPC   GL214570  32.332  21.423   8.850
 4207POPC   C1A14571  32.279  21.428   8.550
 4207POPC   D2A14572  32.269  21.353   8.250
 4207POPC   C3A14573  32.293  21.368   7.950
 4207POPC   C4A14574  32.273  21.414   7.650
 4207POPC   C1B14575  32.456  21.387   8.550
 4207POPC   C2B14576  32.508  21.400   8.250
 4207POPC   C3B14577  32.470  21.384   7.950
 4207POPC   C4B14578  32.449  21.372   7.650
 4208POPC   NC314579   6.678  10.526   9.450
 4208POPC   PO414580   6.658  10.477   9.150
 4208POPC   GL114581   6.613  10.524   8.850
 4208POPC   GL214582   6.747  10.568   8.850
 4208POPC   C1A14583   6.678  10.510   8.550
 4208POPC   D2A14584   6.639  10.495   8.250
 4208POPC   C3A14585   6.652  10.480   7.950
 4208POPC   C4A14586   6.608  10.560   7.650
 4208POPC   C1B14587   6.887  10.565   8.550
 4208POPC   C2B14588   6.859  10.642   8.250
 4208POPC   C3B14589   6.847  10.563   7.950
 4208POPC   C4B14590   6.846  10.593   7.650
 4209POPC   NC314591  20.613  30.738   9.450
 4209POPC   PO414592  20.571  30.725   9.150
 4209POPC   GL114593  20.637  30.721   8.850
 4209POPC   GL214594  20.550  30.612   8.850
 4209POPC   C1A14595  20.634  30.716   8.550
 4209POPC   D2A14596  20.615  30.697   8.250
 4209POPC   C3A14597  20.657  30.703   7.950
 4209POPC   C4A14598  20.616  30.663   7.650
 4209POPC   C1B14599  20.623  30.483   8.550
 4209POPC   C2B14600  20.601  30.491   8.250
 4209POPC   C3B14601  20.528  30.438   7.950
 4209POPC   C4B14602  20.528  30.447   7.650
 4210POPC   NC314603  10.526  23.676   9.450
 4210POPC   PO414604  10.480  23.685   9.150
 4210POPC   GL114605  10.498  23.694   8.850
 4210POPC   GL214606  10.493  23.817   8.850
 4210POPC   C1A14607  10.565  23.703   8.550
 4210POPC   D2A14608  10.503  23.714   8.250
 4210POPC   C3A14609  10.520  23.672   7.950
 4210POPC   C4A14610  10.553  23.743   7.650
 4210POPC   C1B14611  10.386  23.896   8.550
 4210POPC   C2B14612  10.411  23.908   8.250
 4210POPC   C3B14613  10.424  23.921   7.950
 4210POPC   C4B14614  10.383  23.951   7.650
 4211POPC   NC314615   1.231  15.177   9.450
 4211POPC   PO414616   1.249  15.222   9.150
 4211POPC   GL114617   1.252  15.181   8.850
 4211POPC   GL214618   1.314  15.270   8.850
 4211POPC   C1A14619   1.214  15.176   8.550
 4211POPC   D2A14620   1.251  15.154   8.250
 4211POPC   C3A14621   1.170  15.143   7.950
 4211POPC   C4A14622   1.245  15.152   7.650
 4211POPC   C1B14623   1.463  15.269   8.550
 4211POPC   C2B14624   1.387  15.291   8.250
 4211POPC   C3B14625   1.375  15.335   7.950
 4211POPC   C4B14626   1.380  15.365   7.650
 4212POPC   NC314627  30.700   1.980   9.450
 4212POPC   PO414628  30.679   2.014   9.150
 4212POPC   GL114629  30.696   2.035   8.850
 4212POPC   GL214630  30.777   1.859   8.850
 4212POPC   C1A14631  30.674   2.035   8.550
 4212POPC   D2A14632  30.720   1.943   8.250
 4212POPC   C3A14633  30.697   2.028   7.950
 4212POPC   C4A14634  30.718   1.963   7.650
 4212POPC   C1B14635  30.825   1.757   8.550
 4212POPC   C2B14636  30.890   1.752   8.250
 4212POPC   C3B14637  30.857   1.830   7.950
 4212POPC   C4B14638  30.817   1.840   7.650
 4213POPC   NC314639  15.941  11.267   9.450
 4213POPC   PO414640  15.946  11.311   9.150
 4213POPC   GL114641  15.958  11.303   8.850
 4213POPC   GL214642  15.937  11.189   8.850
 4213POPC   C1A14643  15.924  11.289   8.550
 4213POPC   D2A14644  15.918  11.293   8.250
 4213POPC   C3A14645  15.906  11.277   7.950
 4213POPC   C4A14646  15.910  11.286   7.650
 4213POPC   C1B14647  15.954  11.066   8.550
 4213POPC   C2B14648  15.966  11.032   8.250
 4213POPC   C3B14649  15.979  11.087   7.950
 4213POPC   C4B14650  16.018  11.045   7.650
 4214POPC   NC314651  12.893  19.010   9.450
 4214POPC   PO414652  12.890  19.077   9.150
 4214POPC   GL114653  12.865  19.049   8.850
 4214POPC   GL214654  12.709  19.097   8.850
 4214POPC   C1A14655  12.861  19.018   8.550
 4214POPC   D2A14656  12.862  19.040   8.250
 4214POPC   C3A14657  12.830  19.080   7.950
 4214POPC   C4A14658  12.892  19.108   7.650
 4214POPC   C1B14659  12.562  19.087   8.550
 4214POPC   C2B14660  12.567  19.120   8.250
 4214POPC   C3B14661  12.596  19.135   7.950
 4214POPC   C4B14662  12.568  19.101   7.650
 4215POPC   NC314663   4.348  41.548   9.450
 4215POPC   PO414664   4.317  41.576   9.150
 4215POPC   GL114665   4.363  41.576   8.850
 4215POPC   GL214666   4.483  41.594   8.850
 4215POPC   C1A14667   4.301  41.588   8.550
 4215POPC   D2A14668   4.338  41.541   8.250
 4215POPC   C3A14669   4.280  41.591   7.950
 4215POPC   C4A14670   4.283  41.553   7.650
 4215POPC   C1B14671   4.559  41.558   8.550
 4215POPC   C2B14672   4.530  41.602   8.250
 4215POPC   C3B14673   4.538  41.624   7.950
 4215POPC   C4B14674   4.587  41.617   7.650
 4216POPC   NC314675  36.090  20.652   9.450
 4216POPC   PO414676  36.120  20.640   9.150
 4216POPC   GL114677  36.170  20.654   8.850
 4216POPC   GL214678  36.202  20.701   8.850
 4216POPC   C1A14679  36.101  20.598   8.550
 4216POPC   D2A14680  36.082  20.658   8.250
 4216POPC   C3A14681  36.084  20.598   7.950
 4216POPC   C4A14682  36.150  20.601   7.650
 4216POPC   C1B14683  36.386  20.657   8.550
 4216POPC   C2B14684  36.380  20.670   8.250
 4216POPC   C3B14685  36.400  20.750   7.950
 4216POPC   C4B14686  36.403  20.722   7.650
 4217POPC   NC314687  15.991   3.509   9.450
 4217POPC   PO414688  15.916   3.492   9.150
 4217POPC   GL114689  15.918   3.546   8.850
 4217POPC   GL214690  15.851   3.611   8.850
 4217POPC   C1A14691  15.917   3.567   8.550
 4217POPC   D2A14692  15.972   3.521   8.250
 4217POPC   C3A14693  15.993   3.502   7.950
 4217POPC   C4A14694  15.937   3.543   7.650
 4217POPC   C1B14695  15.831   3.743   8.550
 4217POPC   C2B14696  15.793   3.756   8.250
 4217POPC   C3B14697  15.752   3.747   7.950
 4217POPC   C4B14698  15.811   3.774   7.650
 4218POPC   NC314699  12.870  26.080   9.450
 4218POPC   PO414700  12.876  26.048   9.150
 4218POPC   GL114701  12.805  26.044   8.850
 4218POPC   GL214702  12.967  25.976   8.850
 4218POPC   C1A14703  12.846  26.046   8.550
 4218POPC   D2A14704  12.895  26.063   8.250
 4218POPC   C3A14705  12.821  26.021   7.950
 4218POPC   C4A14706  12.858  26.039   7.650
 4218POPC   C1B14707  13.104  25.968   8.550
 4218POPC   C2B14708  13.108  25.938   8.250
 4218POPC   C3B14709  13.067  25.989   7.950
 4218POPC   C4B14710  13.070  25.932   7.650
 4219POPC   NC314711   1.186  19.083   9.450
 4219POPC   PO414712   1.216  19.023   9.150
 4219POPC   GL114713   1.194  19.053   8.850
 4219POPC   GL214714   1.309  19.016   8.850
 4219POPC   C1A14715   1.232  19.094   8.550
 4219POPC   D2A14716   1.170  19.067   8.250
 4219POPC   C3A14717   1.221  19.009   7.950
 4219POPC   C4A14718   1.230  19.103   7.650
 4219POPC   C1B14719   1.375  18.903   8.550
 4219POPC   C2B14720   1.373  18.892   8.250
 4219POPC   C3B14721   1.421  18.924   7.950
 4219POPC   C4B14722   1.368  18.869   7.650
 4220POPC   NC314723  20.600  26.024   9.450
 4220POPC   PO414724  20.579  26.088   9.150
 4220POPC   GL114725  20.659  26.033   8.850
 4220POPC   GL214726  20.490  26.066   8.850
 4220POPC   C1A14727  20.603  25.993   8.550
 4220POPC   D2A14728  20.656  26.055   8.250
 4220POPC   C3A14729  20.660  26.033   7.950
 4220POPC   C4A14730  20.620  25.995   7.650
 4220POPC   C1B14731  20.352  25.956   8.550
 4220POPC   C2B14732  20.317  25.957   8.250
 4220POPC   C3B14733  20.393  26.031   7.950
 4220POPC   C4B14734  20.360  25.977   7.650
 4221POPC   NC314735  24.478  26.833   9.450
 4221POPC   PO414736  24.503  26.782   9.150
 4221POPC   GL114737  24.516  26.829   8.850
 4221POPC   GL214738  24.560  26.706   8.850
 4221POPC   C1A14739  24.529  26.792   8.550
 4221POPC   D2A14740  24.482  26.847   8.250
 4221POPC   C3A14741  24.459  26.803   7.950
 4221POPC   C4A14742  24.516  26.840   7.650
 4221POPC   C1B14743  24.561  26.531   8.550
 4221POPC   C2B14744  24.569  26.593   8.250
 4221POPC   C3B14745  24.558  26.543   7.950
 4221POPC   C4B14746  24.569  26.553   7.650
 4222POPC   NC314747  12.064  13.644   9.450
 4222POPC   PO414748  12.046  13.640   9.150
 4222POPC   GL114749  12.121  13.660   8.850
 4222POPC   GL214750  12.028  13.557   8.850
 4222POPC   C1A14751  12.077  13.600   8.550
 4222POPC   D2A14752  12.123  13.639   8.250
 4222POPC   C3A14753  12.029  13.590   7.950
 4222POPC   C4A14754  12.102  13.600   7.650
 4222POPC   C1B14755  11.970  13.432   8.550
 4222POPC   C2B14756  11.956  13.401   8.250
 4222POPC   C3B14757  11.909  13.437   7.950
 4222POPC   C4B14758  11.944  13.376   7.650
 4223POPC   NC314759   8.201   7.412   9.450
 4223POPC   PO414760   8.167   7.454   9.150
 4223POPC   GL114761   8.241   7.436   8.850
 4223POPC   GL214762   8.308   7.532   8.850
 4223POPC   C1A14763   8.206   7.447   8.550
 4223POPC   D2A14764   8.197   7.407   8.250
 4223POPC   C3A14765   8.199   7.449   7.950
 4223POPC   C4A14766   8.225   7.423   7.650
 4223POPC   C1B14767   8.400   7.547   8.550
 4223POPC   C2B14768   8.341   7.597   8.250
 4223POPC   C3B14769   8.345   7.633   7.950
 4223POPC   C4B14770   8.374   7.565   7.650
 4224POPC   NC314771  15.131   9.773   9.450
 4224POPC   PO414772  15.136   9.794   9.150
 4224POPC   GL114773  15.142   9.738   8.850
 4224POPC   GL214774  15.254   9.699   8.850
 4224POPC   C1A14775  15.221   9.751   8.550
 4224POPC   D2A14776  15.170   9.776   8.250
 4224POPC   C3A14777  15.193   9.732   7.950
 4224POPC   C4A14778  15.219   9.795   7.650
 4224POPC   C1B14779  15.372   9.626   8.550
 4224POPC   C2B14780  15.419   9.555   8.250
 4224POPC   C3B14781  15.414   9.635   7.950
 4224POPC   C4B14782  15.412   9.601   7.650
 4225POPC   NC314783  37.724   6.644   9.450
 4225POPC   PO414784  37.709   6.624   9.150
 4225POPC   GL114785  37.706   6.617   8.850
 4225POPC   GL214786  37.599   6.576   8.850
 4225POPC   C1A14787  37.681   6.602   8.550
 4225POPC   D2A14788  37.647   6.601   8.250
 4225POPC   C3A14789  37.705   6.660   7.950
 4225POPC   C4A14790  37.676   6.657   7.650
 4225POPC   C1B14791  37.499   6.477   8.550
 4225POPC   C2B14792  37.456   6.462   8.250
 4225POPC   C3B14793  37.513   6.471   7.950
 4225POPC   C4B14794  37.425   6.493   7.650
 4226POPC   NC314795   7.390  39.189   9.450
 4226POPC   PO414796   7.385  39.257   9.150
 4226POPC   GL114797   7.451  39.219   8.850
 4226POPC   GL214798   7.249  39.256   8.850
 4226POPC   C1A14799   7.400  39.276   8.550
 4226POPC   D2A14800   7.431  39.278   8.250
 4226POPC   C3A14801   7.468  39.279   7.950
 4226POPC   C4A14802   7.396  39.226   7.650
 4226POPC   C1B14803   7.212  39.266   8.550
 4226POPC   C2B14804   7.217  39.219   8.250
 4226POPC   C3B14805   7.215  39.269   7.950
 4226POPC   C4B14806   7.149  39.307   7.650
 4227POPC   NC314807  35.333  21.353   9.450
 4227POPC   PO414808  35.397  21.340   9.150
 4227POPC   GL114809  35.346  21.354   8.850
 4227POPC   GL214810  35.255  21.255   8.850
 4227POPC   C1A14811  35.319  21.405   8.550
 4227POPC   D2A14812  35.341  21.374   8.250
 4227POPC   C3A14813  35.315  21.341   7.950
 4227POPC   C4A14814  35.393  21.416   7.650
 4227POPC   C1B14815  35.156  21.250   8.550
 4227POPC   C2B14816  35.209  21.235   8.250
 4227POPC   C3B14817  35.150  21.258   7.950
 4227POPC   C4B14818  35.151  21.179   7.650
 4228POPC   NC314819  36.929  36.921   9.450
 4228POPC   PO414820  36.935  36.922   9.150
 4228POPC   GL114821  36.933  36.854   8.850
 4228POPC   GL214822  36.736  36.868   8.850
 4228POPC   C1A14823  36.918  36.941   8.550
 4228POPC   D2A14824  36.908  36.917   8.250
 4228POPC   C3A14825  36.945  36.928   7.950
 4228POPC   C4A14826  36.923  36.887   7.650
 4228POPC   C1B14827  36.662  36.908   8.550
 4228POPC   C2B14828  36.656  36.863   8.250
 4228POPC   C3B14829  36.650  36.861   7.950
 4228POPC   C4B14830  36.688  36.869   7.650
 4229POPC   NC314831  15.154  32.221   9.450
 4229POPC   PO414832  15.210  32.242   9.150
 4229POPC   GL114833  15.174  32.288   8.850
 4229POPC   GL214834  15.276  32.252   8.850
 4229POPC   C1A14835  15.141  32.251   8.550
 4229POPC   D2A14836  15.219  32.204   8.250
 4229POPC   C3A14837  15.176  32.234   7.950
 4229POPC   C4A14838  15.205  32.237   7.650
 4229POPC   C1B14839  15.383  32.241   8.550
 4229POPC   C2B14840  15.413  32.213   8.250
 4229POPC   C3B14841  15.472  32.198   7.950
 4229POPC   C4B14842  15.421  32.167   7.650
 4230POPC   NC314843  15.161  25.293   9.450
 4230POPC   PO414844  15.215  25.241   9.150
 4230POPC   GL114845  15.179  25.227   8.850
 4230POPC   GL214846  15.181  25.118   8.850
 4230POPC   C1A14847  15.158  25.245   8.550
 4230POPC   D2A14848  15.206  25.301   8.250
 4230POPC   C3A14849  15.194  25.286   7.950
 4230POPC   C4A14850  15.227  25.309   7.650
 4230POPC   C1B14851  15.177  25.050   8.550
 4230POPC   C2B14852  15.129  24.977   8.250
 4230POPC   C3B14853  15.124  24.979   7.950
 4230POPC   C4B14854  15.191  24.975   7.650
 4231POPC   NC314855  30.647   1.222   9.450
 4231POPC   PO414856  30.652   1.207   9.150
 4231POPC   GL114857  30.746   1.217   8.850
 4231POPC   GL214858  30.688   1.316   8.850
 4231POPC   C1A14859  30.734   1.164   8.550
 4231POPC   D2A14860  30.688   1.210   8.250
 4231POPC   C3A14861  30.727   1.175   7.950
 4231POPC   C4A14862  30.729   1.259   7.650
 4231POPC   C1B14863  30.795   1.431   8.550
 4231POPC   C2B14864  30.810   1.432   8.250
 4231POPC   C3B14865  30.814   1.492   7.950
 4231POPC   C4B14866  30.728   1.470   7.650
 4232POPC   NC314867   7.450  34.579   9.450
 4232POPC   PO414868   7.383  34.595   9.150
 4232POPC   GL114869   7.394  34.576   8.850
 4232POPC   GL214870   7.294  34.532   8.850
 4232POPC   C1A14871   7.443  34.531   8.550
 4232POPC   D2A14872   7.465  34.581   8.250
 4232POPC   C3A14873   7.374  34.568   7.950
 4232POPC   C4A14874   7.460  34.586   7.650
 4232POPC   C1B14875   7.208  34.548   8.550
 4232POPC   C2B14876   7.150  34.496   8.250
 4232POPC   C3B14877   7.153  34.522   7.950
 4232POPC   C4B14878   7.211  34.524   7.650
 4233POPC   NC314879  38.483   5.077   9.450
 4233POPC   PO414880  38.451   5.116   9.150
 4233POPC   GL114881  38.440   5.116   8.850
 4233POPC   GL214882  38.306   5.063   8.850
 4233POPC   C1A14883  38.495   5.110   8.550
 4233POPC   D2A14884  38.419   5.043   8.250
 4233POPC   C3A14885  38.442   5.079   7.950
 4233POPC   C4A14886  38.408   5.056   7.650
 4233POPC   C1B14887  38.162   5.102   8.550
 4233POPC   C2B14888  38.207   5.092   8.250
 4233POPC   C3B14889  38.161   5.085   7.950
 4233POPC   C4B14890  38.230   5.084   7.650
 4234POPC   NC314891  14.389  40.031   9.450
 4234POPC   PO414892  14.405  39.986   9.150
 4234POPC   GL114893  14.354  40.034   8.850
 4234POPC   GL214894  14.368  39.936   8.850
 4234POPC   C1A14895  14.435  40.004   8.550
 4234POPC   D2A14896  14.355  39.994   8.250
 4234POPC   C3A14897  14.395  39.987   7.950
 4234POPC   C4A14898  14.411  40.051   7.650
 4234POPC   C1B14899  14.304  39.755   8.550
 4234POPC   C2B14900  14.333  39.784   8.250
 4234POPC   C3B14901  14.274  39.798   7.950
 4234POPC   C4B14902  14.283  39.751   7.650
 4235POPC   NC314903  36.857   3.525   9.450
 4235POPC   PO414904  36.883   3.551   9.150
 4235POPC   GL114905  36.919   3.558   8.850
 4235POPC   GL214906  36.982   3.430   8.850
 4235POPC   C1A14907  36.919   3.513   8.550
 4235POPC   D2A14908  36.927   3.493   8.250
 4235POPC   C3A14909  36.856   3.542   7.950
 4235POPC   C4A14910  36.886   3.583   7.650
 4235POPC   C1B14911  37.145   3.419   8.550
 4235POPC   C2B14912  37.097   3.371   8.250
 4235POPC   C3B14913  37.155   3.422   7.950
 4235POPC   C4B14914  37.161   3.382   7.650
 4236POPC   NC314915  12.120  10.543   9.450
 4236POPC   PO414916  12.107  10.541   9.150
 4236POPC   GL114917  12.068  10.539   8.850
 4236POPC   GL214918  11.988  10.481   8.850
 4236POPC   C1A14919  12.047  10.565   8.550
 4236POPC   D2A14920  12.098  10.481   8.250
 4236POPC   C3A14921  12.044  10.502   7.950
 4236POPC   C4A14922  12.050  10.513   7.650
 4236POPC   C1B14923  11.881  10.351   8.550
 4236POPC   C2B14924  11.873  10.441   8.250
 4236POPC   C3B14925  11.857  10.402   7.950
 4236POPC   C4B14926  11.879  10.426   7.650
 4237POPC   NC314927  40.768  33.773   9.450
 4237POPC   PO414928  40.804  33.828   9.150
 4237POPC   GL114929  40.826  33.768   8.850
 4237POPC   GL214930  40.854  33.840   8.850
 4237POPC   C1A14931  40.734  33.785   8.550
 4237POPC   D2A14932  40.768  33.826   8.250
 4237POPC   C3A14933  40.779  33.765   7.950
 4237POPC   C4A14934  40.793  33.839   7.650
 4237POPC   C1B14935  41.006  34.009   8.550
 4237POPC   C2B14936  40.919  34.022   8.250
 4237POPC   C3B14937  40.980  33.941   7.950
 4237POPC   C4B14938  40.999  33.957   7.650
 4238POPC   NC314939  18.294  13.642   9.450
 4238POPC   PO414940  18.250  13.580   9.150
 4238POPC   GL114941  18.297  13.619   8.850
 4238POPC   GL214942  18.443  13.561   8.850
 4238POPC   C1A14943  18.294  13.650   8.550
 4238POPC   D2A14944  18.323  13.676   8.250
 4238POPC   C3A14945  18.237  13.630   7.950
 4238POPC   C4A14946  18.255  13.628   7.650
 4238POPC   C1B14947  18.546  13.569   8.550
 4238POPC   C2B14948  18.507  13.574   8.250
 4238POPC   C3B14949  18.521  13.577   7.950
 4238POPC   C4B14950  18.495  13.622   7.650
 4239POPC   NC314951  25.239  36.108   9.450
 4239POPC   PO414952  25.223  36.145   9.150
 4239POPC   GL114953  25.286  36.083   8.850
 4239POPC   GL214954  25.151  36.088   8.850
 4239POPC   C1A14955  25.223  36.177   8.550
 4239POPC   D2A14956  25.279  36.162   8.250
 4239POPC   C3A14957  25.286  36.106   7.950
 4239POPC   C4A14958  25.287  36.133   7.650
 4239POPC   C1B14959  25.058  36.161   8.550
 4239POPC   C2B14960  25.055  36.132   8.250
 4239POPC   C3B14961  25.032  36.131   7.950
 4239POPC   C4B14962  24.984  36.147   7.650
 4240POPC   NC314963   2.020  21.354   9.450
 4240POPC   PO414964   1.986  21.428   9.150
 4240POPC   GL114965   1.972  21.364   8.850
 4240POPC   GL214966   1.983  21.265   8.850
 4240POPC   C1A14967   1.958  21.392   8.550
 4240POPC   D2A14968   2.005  21.387   8.250
 4240POPC   C3A14969   1.976  21.369   7.950
 4240POPC   C4A14970   1.963  21.428   7.650
 4240POPC   C1B14971   1.947  21.132   8.550
 4240POPC   C2B14972   1.930  21.127   8.250
 4240POPC   C3B14973   1.972  21.117   7.950
 4240POPC   C4B14974   1.954  21.191   7.650
 4241POPC   NC314975   2.811  30.670   9.450
 4241POPC   PO414976   2.763  30.665   9.150
 4241POPC   GL114977   2.723  30.659   8.850
 4241POPC   GL214978   2.607  30.628   8.850
 4241POPC   C1A14979   2.773  30.739   8.550
 4241POPC   D2A14980   2.734  30.682   8.250
 4241POPC   C3A14981   2.731  30.660   7.950
 4241POPC   C4A14982   2.761  30.714   7.650
 4241POPC   C1B14983   2.480  30.598   8.550
 4241POPC   C2B14984   2.543  30.619   8.250
 4241POPC   C3B14985   2.560  30.675   7.950
 4241POPC   C4B14986   2.552  30.612   7.650
 4242POPC   NC314987  20.657  23.666   9.450
 4242POPC   PO414988  20.604  23.752   9.150
 4242POPC   GL114989  20.579  23.682   8.850
 4242POPC   GL214990  20.486  23.578   8.850
 4242POPC   C1A14991  20.607  23.721   8.550
 4242POPC   D2A14992  20.658  23.693   8.250
 4242POPC   C3A14993  20.624  23.694   7.950
 4242POPC   C4A14994  20.595  23.745   7.650
 4242POPC   C1B14995  20.413  23.537   8.550
 4242POPC   C2B14996  20.427  23.579   8.250
 4242POPC   C3B14997  20.410  23.525   7.950
 4242POPC   C4B14998  20.475  23.564   7.650
 4243POPC   NC314999  23.701  29.939   9.450
 4243POPC   PO415000  23.671  29.914   9.150
 4243POPC   GL115001  23.683  29.971   8.850
 4243POPC   GL215002  23.800  29.805   8.850
 4243POPC   C1A15003  23.706  29.907   8.550
 4243POPC   D2A15004  23.752  29.945   8.250
 4243POPC   C3A15005  23.686  29.950   7.950
 4243POPC   C4A15006  23.691  29.967   7.650
 4243POPC   C1B15007  23.849  29.704   8.550
 4243POPC   C2B15008  23.783  29.712   8.250
 4243POPC   C3B15009  23.792  29.717   7.950
 4243POPC   C4B15010  23.769  29.689   7.650
 4244POPC   NC315011  14.374  29.933   9.450
 4244POPC   PO415012  14.402  29.918   9.150
 4244POPC   GL115013  14.371  29.895   8.850
 4244POPC   GL215014  14.540  29.992   8.850
 4244POPC   C1A15015  14.405  29.908   8.550
 4244POPC   D2A15016  14.429  29.914   8.250
 4244POPC   C3A15017  14.444  29.887   7.950
 4244POPC   C4A15018  14.389  29.879   7.650
 4244POPC   C1B15019  14.644  29.998   8.550
 4244POPC   C2B15020  14.610  30.032   8.250
 4244POPC   C3B15021  14.676  29.977   7.950
 4244POPC   C4B15022  14.647  30.015   7.650
 4245POPC   NC315023  34.589   3.508   9.450
 4245POPC   PO415024  34.584   3.557   9.150
 4245POPC   GL115025  34.569   3.537   8.850
 4245POPC   GL215026  34.588   3.417   8.850
 4245POPC   C1A15027  34.593   3.560   8.550
 4245POPC   D2A15028  34.618   3.559   8.250
 4245POPC   C3A15029  34.624   3.517   7.950
 4245POPC   C4A15030  34.565   3.506   7.650
 4245POPC   C1B15031  34.733   3.270   8.550
 4245POPC   C2B15032  34.720   3.299   8.250
 4245POPC   C3B15033  34.695   3.351   7.950
 4245POPC   C4B15034  34.659   3.304   7.650
 4246POPC   NC315035  43.842  36.883   9.450
 4246POPC   PO415036  43.902  36.911   9.150
 4246POPC   GL115037  43.838  36.890   8.850
 4246POPC   GL215038  44.036  36.893   8.850
 4246POPC   C1A15039  43.892  36.915   8.550
 4246POPC   D2A15040  43.923  36.878   8.250
 4246POPC   C3A15041  43.927  36.920   7.950
 4246POPC   C4A15042  43.915  36.873   7.650
 4246POPC   C1B15043  44.121  36.903   8.550
 4246POPC   C2B15044  44.169  36.923   8.250
 4246POPC   C3B15045  44.154  36.966   7.950
 4246POPC   C4B15046  44.105  36.956   7.650
 4247POPC   NC315047  10.571  24.516   9.450
 4247POPC   PO415048  10.513  24.468   9.150
 4247POPC   GL115049  10.571  24.448   8.850
 4247POPC   GL215050  10.586  24.381   8.850
 4247POPC   C1A15051  10.509  24.463   8.550
 4247POPC   D2A15052  10.530  24.443   8.250
 4247POPC   C3A15053  10.488  24.472   7.950
 4247POPC   C4A15054  10.498  24.450   7.650
 4247POPC   C1B15055  10.645  24.240   8.550
 4247POPC   C2B15056  10.665  24.251   8.250
 4247POPC   C3B15057  10.599  24.250   7.950
 4247POPC   C4B15058  10.639  24.228   7.650
 4248POPC   NC315059  33.801  11.282   9.450
 4248POPC   PO415060  33.760  11.296   9.150
 4248POPC   GL115061  33.820  11.311   8.850
 4248POPC   GL215062  33.689  11.281   8.850
 4248POPC   C1A15063  33.850  11.308   8.550
 4248POPC   D2A15064  33.774  11.276   8.250
 4248POPC   C3A15065  33.781  11.298   7.950
 4248POPC   C4A15066  33.765  11.310   7.650
 4248POPC   C1B15067  33.566  11.298   8.550
 4248POPC   C2B15068  33.556  11.302   8.250
 4248POPC   C3B15069  33.507  11.265   7.950
 4248POPC   C4B15070  33.579  11.222   7.650
 4249POPC   NC315071  40.791  19.810   9.450
 4249POPC   PO415072  40.740  19.865   9.150
 4249POPC   GL115073  40.784  19.878   8.850
 4249POPC   GL215074  40.876  19.914   8.850
 4249POPC   C1A15075  40.800  19.840   8.550
 4249POPC   D2A15076  40.789  19.812   8.250
 4249POPC   C3A15077  40.828  19.796   7.950
 4249POPC   C4A15078  40.776  19.815   7.650
 4249POPC   C1B15079  40.952  20.056   8.550
 4249POPC   C2B15080  40.953  20.015   8.250
 4249POPC   C3B15081  40.984  20.045   7.950
 4249POPC   C4B15082  40.962  20.070   7.650
 4250POPC   NC315083  37.651  29.178   9.450
 4250POPC   PO415084  37.709  29.143   9.150
 4250POPC   GL115085  37.707  29.109   8.850
 4250POPC   GL215086  37.669  29.069   8.850
 4250POPC   C1A15087  37.694  29.182   8.550
 4250POPC   D2A15088  37.669  29.171   8.250
 4250POPC   C3A15089  37.717  29.146   7.950
 4250POPC   C4A15090  37.694  29.129   7.650
 4250POPC   C1B15091  37.534  28.912   8.550
 4250POPC   C2B15092  37.610  28.962   8.250
 4250POPC   C3B15093  37.528  28.928   7.950
 4250POPC   C4B15094  37.620  28.901   7.650
 4251POPC   NC315095   8.962  44.653   9.450
 4251POPC   PO415096   8.961  44.647   9.150
 4251POPC   GL115097   8.929  44.694   8.850
 4251POPC   GL215098   9.086  44.540   8.850
 4251POPC   C1A15099   8.939  44.640   8.550
 4251POPC   D2A15100   9.008  44.709   8.250
 4251POPC   C3A15101   8.933  44.618   7.950
 4251POPC   C4A15102   8.981  44.649   7.650
 4251POPC   C1B15103   9.172  44.436   8.550
 4251POPC   C2B15104   9.161  44.428   8.250
 4251POPC   C3B15105   9.127  44.462   7.950
 4251POPC   C4B15106   9.133  44.443   7.650
 4252POPC   NC315107   1.194  25.266   9.450
 4252POPC   PO415108   1.176  25.264   9.150
 4252POPC   GL115109   1.173  25.229   8.850
 4252POPC   GL215110   1.134  25.139   8.850
 4252POPC   C1A15111   1.236  25.308   8.550
 4252POPC   D2A15112   1.245  25.227   8.250
 4252POPC   C3A15113   1.253  25.293   7.950
 4252POPC   C4A15114   1.256  25.284   7.650
 4252POPC   C1B15115   0.999  25.138   8.550
 4252POPC   C2B15116   1.046  25.063   8.250
 4252POPC   C3B15117   1.079  25.098   7.950
 4252POPC   C4B15118   1.064  25.052   7.650
 4253POPC   NC315119  36.885  19.881   9.450
 4253POPC   PO415120  36.860  19.855   9.150
 4253POPC   GL115121  36.877  19.825   8.850
 4253POPC   GL215122  37.016  19.836   8.850
 4253POPC   C1A15123  36.861  19.823   8.550
 4253POPC   D2A15124  36.877  19.826   8.250
 4253POPC   C3A15125  36.883  19.873   7.950
 4253POPC   C4A15126  36.900  19.872   7.650
 4253POPC   C1B15127  37.161  19.768   8.550
 4253POPC   C2B15128  37.094  19.775   8.250
 4253POPC   C3B15129  37.154  19.810   7.950
 4253POPC   C4B15130  37.152  19.791   7.650
 4254POPC   NC315131   8.163  25.247   9.450
 4254POPC   PO415132   8.244  25.269   9.150
 4254POPC   GL115133   8.242  25.242   8.850
 4254POPC   GL215134   8.342  25.281   8.850
 4254POPC   C1A15135   8.171  25.311   8.550
 4254POPC   D2A15136   8.240  25.222   8.250
 4254POPC   C3A15137   8.189  25.237   7.950
 4254POPC   C4A15138   8.169  25.278   7.650
 4254POPC   C1B15139   8.446  25.222   8.550
 4254POPC   C2B15140   8.465  25.201   8.250
 4254POPC   C3B15141   8.443  25.253   7.950
 4254POPC   C4B15142   8.482  25.204   7.650
 4255POPC   NC315143  37.705   5.855   9.450
 4255POPC   PO415144  37.705   5.916   9.150
 4255POPC   GL115145  37.687   5.841   8.850
 4255POPC   GL215146  37.711   5.976   8.850
 4255POPC   C1A15147  37.650   5.866   8.550
 4255POPC   D2A15148  37.726   5.883   8.250
 4255POPC   C3A15149  37.687   5.822   7.950
 4255POPC   C4A15150  37.691   5.917   7.650
 4255POPC   C1B15151  37.680   6.165   8.550
 4255POPC   C2B15152  37.682   6.142   8.250
 4255POPC   C3B15153  37.633   6.081   7.950
 4255POPC   C4B15154  37.626   6.110   7.650
 4256POPC   NC315155  21.359   4.318   9.450
 4256POPC   PO415156  21.380   4.303   9.150
 4256POPC   GL115157  21.347   4.287   8.850
 4256POPC   GL215158  21.273   4.377   8.850
 4256POPC   C1A15159  21.382   4.331   8.550
 4256POPC   D2A15160  21.426   4.355   8.250
 4256POPC   C3A15161  21.360   4.356   7.950
 4256POPC   C4A15162  21.404   4.365   7.650
 4256POPC   C1B15163  21.212   4.506   8.550
 4256POPC   C2B15164  21.251   4.522   8.250
 4256POPC   C3B15165  21.260   4.489   7.950
 4256POPC   C4B15166  21.227   4.538   7.650
 4257POPC   NC315167  19.066  32.236   9.450
 4257POPC   PO415168  19.054  32.298   9.150
 4257POPC   GL115169  19.033  32.251   8.850
 4257POPC   GL215170  19.078  32.109   8.850
 4257POPC   C1A15171  19.094  32.290   8.550
 4257POPC   D2A15172  19.041  32.223   8.250
 4257POPC   C3A15173  19.078  32.240   7.950
 4257POPC   C4A15174  19.083  32.280   7.650
 4257POPC   C1B15175  19.150  32.036   8.550
 4257POPC   C2B15176  19.080  32.042   8.250
 4257POPC   C3B15177  19.114  32.001   7.950
 4257POPC   C4B15178  19.158  32.054   7.650
 4258POPC   NC315179   7.454   2.797   9.450
 4258POPC   PO415180   7.410   2.719   9.150
 4258POPC   GL115181   7.405   2.814   8.850
 4258POPC   GL215182   7.461   2.699   8.850
 4258POPC   C1A15183   7.408   2.794   8.550
 4258POPC   D2A15184   7.463   2.784   8.250
 4258POPC   C3A15185   7.444   2.723   7.950
 4258POPC   C4A15186   7.456   2.794   7.650
 4258POPC   C1B15187   7.541   2.533   8.550
 4258POPC   C2B15188   7.534   2.515   8.250
 4258POPC   C3B15189   7.615   2.525   7.950
 4258POPC   C4B15190   7.523   2.520   7.650
 4259POPC   NC315191  26.030  15.134   9.450
 4259POPC   PO415192  26.079  15.216   9.150
 4259POPC   GL115193  26.027  15.139   8.850
 4259POPC   GL215194  26.058  15.299   8.850
 4259POPC   C1A15195  26.009  15.221   8.550
 4259POPC   D2A15196  26.001  15.179   8.250
 4259POPC   C3A15197  26.001  15.159   7.950
 4259POPC   C4A15198  26.018  15.191   7.650
 4259POPC   C1B15199  26.072  15.392   8.550
 4259POPC   C2B15200  26.055  15.434   8.250
 4259POPC   C3B15201  26.068  15.430   7.950
 4259POPC   C4B15202  26.077  15.475   7.650
 4260POPC   NC315203  14.378  34.569   9.450
 4260POPC   PO415204  14.422  34.585   9.150
 4260POPC   GL115205  14.442  34.573   8.850
 4260POPC   GL215206  14.307  34.442   8.850
 4260POPC   C1A15207  14.413  34.578   8.550
 4260POPC   D2A15208  14.437  34.545   8.250
 4260POPC   C3A15209  14.362  34.580   7.950
 4260POPC   C4A15210  14.409  34.540   7.650
 4260POPC   C1B15211  14.268  34.402   8.550
 4260POPC   C2B15212  14.242  34.433   8.250
 4260POPC   C3B15213  14.186  34.438   7.950
 4260POPC   C4B15214  14.265  34.413   7.650
 4261POPC   NC315215   3.556   2.754   9.450
 4261POPC   PO415216   3.517   2.720   9.150
 4261POPC   GL115217   3.524   2.724   8.850
 4261POPC   GL215218   3.583   2.595   8.850
 4261POPC   C1A15219   3.549   2.736   8.550
 4261POPC   D2A15220   3.521   2.768   8.250
 4261POPC   C3A15221   3.508   2.727   7.950
 4261POPC   C4A15222   3.580   2.783   7.650
 4261POPC   C1B15223   3.531   2.548   8.550
 4261POPC   C2B15224   3.603   2.558   8.250
 4261POPC   C3B15225   3.615   2.527   7.950
 4261POPC   C4B15226   3.568   2.551   7.650
 4262POPC   NC315227  19.839   3.504   9.450
 4262POPC   PO415228  19.876   3.506   9.150
 4262POPC   GL115229  19.857   3.542   8.850
 4262POPC   GL215230  19.720   3.610   8.850
 4262POPC   C1A15231  19.805   3.565   8.550
 4262POPC   D2A15232  19.880   3.509   8.250
 4262POPC   C3A15233  19.882   3.578   7.950
 4262POPC   C4A15234  19.822   3.492   7.650
 4262POPC   C1B15235  19.619   3.684   8.550
 4262POPC   C2B15236  19.604   3.689   8.250
 4262POPC   C3B15237  19.603   3.649   7.950
 4262POPC   C4B15238  19.645   3.673   7.650
 4263POPC   NC315239   2.012  34.620   9.450
 4263POPC   PO415240   2.018  34.618   9.150
 4263POPC   GL115241   2.030  34.576   8.850
 4263POPC   GL215242   2.052  34.444   8.850
 4263POPC   C1A15243   2.012  34.561   8.550
 4263POPC   D2A15244   1.950  34.612   8.250
 4263POPC   C3A15245   2.027  34.533   7.950
 4263POPC   C4A15246   2.011  34.534   7.650
 4263POPC   C1B15247   2.052  34.314   8.550
 4263POPC   C2B15248   1.995  34.279   8.250
 4263POPC   C3B15249   2.022  34.316   7.950
 4263POPC   C4B15250   1.983  34.346   7.650
 4264POPC   NC315251   7.421  44.698   9.450
 4264POPC   PO415252   7.414  44.655   9.150
 4264POPC   GL115253   7.421  44.612   8.850
 4264POPC   GL215254   7.263  44.568   8.850
 4264POPC   C1A15255   7.467  44.675   8.550
 4264POPC   D2A15256   7.410  44.678   8.250
 4264POPC   C3A15257   7.448  44.630   7.950
 4264POPC   C4A15258   7.454  44.684   7.650
 4264POPC   C1B15259   7.197  44.536   8.550
 4264POPC   C2B15260   7.152  44.512   8.250
 4264POPC   C3B15261   7.238  44.526   7.950
 4264POPC   C4B15262   7.157  44.506   7.650
 4265POPC   NC315263  27.621  38.410   9.450
 4265POPC   PO415264  27.600  38.442   9.150
 4265POPC   GL115265  27.635  38.441   8.850
 4265POPC   GL215266  27.635  38.333   8.850
 4265POPC   C1A15267  27.552  38.409   8.550
 4265POPC   D2A15268  27.582  38.431   8.250
 4265POPC   C3A15269  27.557  38.429   7.950
 4265POPC   C4A15270  27.641  38.449   7.650
 4265POPC   C1B15271  27.751  38.221   8.550
 4265POPC   C2B15272  27.732  38.288   8.250
 4265POPC   C3B15273  27.743  38.225   7.950
 4265POPC   C4B15274  27.759  38.280   7.650
 4266POPC   NC315275  34.579  21.412   9.450
 4266POPC   PO415276  34.543  21.381   9.150
 4266POPC   GL115277  34.575  21.389   8.850
 4266POPC   GL215278  34.410  21.353   8.850
 4266POPC   C1A15279  34.591  21.372   8.550
 4266POPC   D2A15280  34.599  21.346   8.250
 4266POPC   C3A15281  34.583  21.353   7.950
 4266POPC   C4A15282  34.573  21.402   7.650
 4266POPC   C1B15283  34.293  21.260   8.550
 4266POPC   C2B15284  34.376  21.295   8.250
 4266POPC   C3B15285  34.302  21.333   7.950
 4266POPC   C4B15286  34.301  21.327   7.650
 4267POPC   NC315287  12.116  39.254   9.450
 4267POPC   PO415288  12.040  39.228   9.150
 4267POPC   GL115289  12.049  39.218   8.850
 4267POPC   GL215290  12.114  39.091   8.850
 4267POPC   C1A15291  12.049  39.275   8.550
 4267POPC   D2A15292  12.067  39.277   8.250
 4267POPC   C3A15293  12.080  39.233   7.950
 4267POPC   C4A15294  12.125  39.184   7.650
 4267POPC   C1B15295  12.189  39.029   8.550
 4267POPC   C2B15296  12.246  39.046   8.250
 4267POPC   C3B15297  12.273  39.007   7.950
 4267POPC   C4B15298  12.275  39.025   7.650
 4268POPC   NC315299  35.347  29.180   9.450
 4268POPC   PO415300  35.372  29.191   9.150
 4268POPC   GL115301  35.394  29.125   8.850
 4268POPC   GL215302  35.452  29.240   8.850
 4268POPC   C1A15303  35.363  29.105   8.550
 4268POPC   D2A15304  35.392  29.113   8.250
 4268POPC   C3A15305  35.382  29.133   7.950
 4268POPC   C4A15306  35.384  29.160   7.650
 4268POPC   C1B15307  35.563  29.299   8.550
 4268POPC   C2B15308  35.545  29.303   8.250
 4268POPC   C3B15309  35.481  29.326   7.950
 4268POPC   C4B15310  35.525  29.335   7.650
 4269POPC   NC315311   7.375  40.027   9.450
 4269POPC   PO415312   7.399  39.999   9.150
 4269POPC   GL115313   7.440  39.961   8.850
 4269POPC   GL215314   7.462  40.138   8.850
 4269POPC   C1A15315   7.375  39.984   8.550
 4269POPC   D2A15316   7.412  40.033   8.250
 4269POPC   C3A15317   7.380  40.004   7.950
 4269POPC   C4A15318   7.428  39.964   7.650
 4269POPC   C1B15319   7.578  40.232   8.550
 4269POPC   C2B15320   7.613  40.243   8.250
 4269POPC   C3B15321   7.600  40.171   7.950
 4269POPC   C4B15322   7.583  40.249   7.650
 4270POPC   NC315323  12.074   9.716   9.450
 4270POPC   PO415324  12.058   9.702   9.150
 4270POPC   GL115325  12.039   9.739   8.850
 4270POPC   GL215326  11.996   9.705   8.850
 4270POPC   C1A15327  12.045   9.752   8.550
 4270POPC   D2A15328  12.027   9.705   8.250
 4270POPC   C3A15329  12.109   9.796   7.950
 4270POPC   C4A15330  12.041   9.779   7.650
 4270POPC   C1B15331  11.871   9.629   8.550
 4270POPC   C2B15332  11.795   9.660   8.250
 4270POPC   C3B15333  11.850   9.717   7.950
 4270POPC   C4B15334  11.814   9.641   7.650
 4271POPC   NC315335   1.942   5.053   9.450
 4271POPC   PO415336   1.992   5.076   9.150
 4271POPC   GL115337   2.019   5.141   8.850
 4271POPC   GL215338   2.033   4.974   8.850
 4271POPC   C1A15339   1.982   5.067   8.550
 4271POPC   D2A15340   2.023   5.046   8.250
 4271POPC   C3A15341   1.997   5.100   7.950
 4271POPC   C4A15342   1.982   5.098   7.650
 4271POPC   C1B15343   2.210   4.914   8.550
 4271POPC   C2B15344   2.151   4.871   8.250
 4271POPC   C3B15345   2.150   4.948   7.950
 4271POPC   C4B15346   2.129   4.907   7.650
 4272POPC   NC315347  42.333   5.076   9.450
 4272POPC   PO415348  42.377   5.128   9.150
 4272POPC   GL115349  42.339   5.143   8.850
 4272POPC   GL215350  42.475   5.116   8.850
 4272POPC   C1A15351  42.361   5.112   8.550
 4272POPC   D2A15352  42.293   5.092   8.250
 4272POPC   C3A15353  42.345   5.106   7.950
 4272POPC   C4A15354  42.362   5.131   7.650
 4272POPC   C1B15355  42.519   5.213   8.550
 4272POPC   C2B15356  42.514   5.188   8.250
 4272POPC   C3B15357  42.537   5.264   7.950
 4272POPC   C4B15358  42.569   5.184   7.650
 4273POPC   NC315359  12.030  21.367   9.450
 4273POPC   PO415360  12.108  21.337   9.150
 4273POPC   GL115361  12.043  21.413   8.850
 4273POPC   GL215362  12.176  21.421   8.850
 4273POPC   C1A15363  12.071  21.391   8.550
 4273POPC   D2A15364  12.058  21.379   8.250
 4273POPC   C3A15365  12.065  21.386   7.950
 4273POPC   C4A15366  12.033  21.418   7.650
 4273POPC   C1B15367  12.248  21.529   8.550
 4273POPC   C2B15368  12.340  21.487   8.250
 4273POPC   C3B15369  12.312  21.477   7.950
 4273POPC   C4B15370  12.338  21.555   7.650
 4274POPC   NC315371   5.869  24.460   9.450
 4274POPC   PO415372   5.900  24.522   9.150
 4274POPC   GL115373   5.876  24.536   8.850
 4274POPC   GL215374   5.787  24.588   8.850
 4274POPC   C1A15375   5.819  24.463   8.550
 4274POPC   D2A15376   5.864  24.456   8.250
 4274POPC   C3A15377   5.889  24.479   7.950
 4274POPC   C4A15378   5.857  24.538   7.650
 4274POPC   C1B15379   5.715  24.685   8.550
 4274POPC   C2B15380   5.778  24.717   8.250
 4274POPC   C3B15381   5.731  24.734   7.950
 4274POPC   C4B15382   5.801  24.752   7.650
 4275POPC   NC315383  10.555   0.451   9.450
 4275POPC   PO415384  10.566   0.414   9.150
 4275POPC   GL115385  10.523   0.394   8.850
 4275POPC   GL215386  10.602   0.465   8.850
 4275POPC   C1A15387  10.547   0.487   8.550
 4275POPC   D2A15388  10.523   0.440   8.250
 4275POPC   C3A15389  10.476   0.465   7.950
 4275POPC   C4A15390  10.484   0.411   7.650
 4275POPC   C1B15391  10.746   0.607   8.550
 4275POPC   C2B15392  10.725   0.586   8.250
 4275POPC   C3B15393  10.764   0.596   7.950
 4275POPC   C4B15394  10.719   0.589   7.650
 4276POPC   NC315395  41.519  18.286   9.450
 4276POPC   PO415396  41.601  18.295   9.150
 4276POPC   GL115397  41.535  18.250   8.850
 4276POPC   GL215398  41.551  18.133   8.850
 4276POPC   C1A15399  41.536  18.283   8.550
 4276POPC   D2A15400  41.607  18.330   8.250
 4276POPC   C3A15401  41.557  18.319   7.950
 4276POPC   C4A15402  41.559  18.274   7.650
 4276POPC   C1B15403  41.579  18.072   8.550
 4276POPC   C2B15404  41.589  18.066   8.250
 4276POPC   C3B15405  41.661  18.013   7.950
 4276POPC   C4B15406  41.604  18.079   7.650
 4277POPC   NC315407  41.583  26.040   9.450
 4277POPC   PO415408  41.560  26.043   9.150
 4277POPC   GL115409  41.602  25.995   8.850
 4277POPC   GL215410  41.479  26.141   8.850
 4277POPC   C1A15411  41.602  26.054   8.550
 4277POPC   D2A15412  41.528  26.070   8.250
 4277POPC   C3A15413  41.514  26.062   7.950
 4277POPC   C4A15414  41.518  26.076   7.650
 4277POPC   C1B15415  41.436  26.222   8.550
 4277POPC   C2B15416  41.447  26.265   8.250
 4277POPC   C3B15417  41.402  26.209   7.950
 4277POPC   C4B15418  41.367  26.200   7.650
 4278POPC   NC315419  20.621  19.073   9.450
 4278POPC   PO415420  20.604  19.093   9.150
 4278POPC   GL115421  20.643  19.084   8.850
 4278POPC   GL215422  20.475  19.025   8.850
 4278POPC   C1A15423  20.651  19.010   8.550
 4278POPC   D2A15424  20.622  19.088   8.250
 4278POPC   C3A15425  20.627  19.062   7.950
 4278POPC   C4A15426  20.575  19.054   7.650
 4278POPC   C1B15427  20.380  18.956   8.550
 4278POPC   C2B15428  20.378  18.885   8.250
 4278POPC   C3B15429  20.448  18.922   7.950
 4278POPC   C4B15430  20.425  18.941   7.650
 4279POPC   NC315431  32.226  27.575   9.450
 4279POPC   PO415432  32.257  27.631   9.150
 4279POPC   GL115433  32.240  27.610   8.850
 4279POPC   GL215434  32.188  27.702   8.850
 4279POPC   C1A15435  32.246  27.613   8.550
 4279POPC   D2A15436  32.234  27.546   8.250
 4279POPC   C3A15437  32.285  27.623   7.950
 4279POPC   C4A15438  32.208  27.587   7.650
 4279POPC   C1B15439  32.183  27.889   8.550
 4279POPC   C2B15440  32.180  27.815   8.250
 4279POPC   C3B15441  32.206  27.795   7.950
 4279POPC   C4B15442  32.238  27.821   7.650
 4280POPC   NC315443  37.631  24.445   9.450
 4280POPC   PO415444  37.698  24.537   9.150
 4280POPC   GL115445  37.703  24.538   8.850
 4280POPC   GL215446  37.754  24.585   8.850
 4280POPC   C1A15447  37.681  24.478   8.550
 4280POPC   D2A15448  37.663  24.446   8.250
 4280POPC   C3A15449  37.691  24.479   7.950
 4280POPC   C4A15450  37.684  24.497   7.650
 4280POPC   C1B15451  37.943  24.578   8.550
 4280POPC   C2B15452  37.926  24.577   8.250
 4280POPC   C3B15453  37.854  24.637   7.950
 4280POPC   C4B15454  37.884  24.568   7.650
 4281POPC   NC315455  39.279  41.545   9.450
 4281POPC   PO415456  39.195  41.527   9.150
 4281POPC   GL115457  39.279  41.529   8.850
 4281POPC   GL215458  39.203  41.673   8.850
 4281POPC   C1A15459  39.280  41.565   8.550
 4281POPC   D2A15460  39.227  41.530   8.250
 4281POPC   C3A15461  39.277  41.592   7.950
 4281POPC   C4A15462  39.190  41.544   7.650
 4281POPC   C1B15463  39.092  41.807   8.550
 4281POPC   C2B15464  39.109  41.803   8.250
 4281POPC   C3B15465  39.085  41.730   7.950
 4281POPC   C4B15466  39.056  41.773   7.650
 4282POPC   NC315467   2.030  11.279   9.450
 4282POPC   PO415468   1.983  11.344   9.150
 4282POPC   GL115469   2.021  11.300   8.850
 4282POPC   GL215470   2.046  11.322   8.850
 4282POPC   C1A15471   2.024  11.339   8.550
 4282POPC   D2A15472   2.011  11.254   8.250
 4282POPC   C3A15473   1.965  11.348   7.950
 4282POPC   C4A15474   2.029  11.329   7.650
 4282POPC   C1B15475   2.233  11.450   8.550
 4282POPC   C2B15476   2.181  11.479   8.250
 4282POPC   C3B15477   2.231  11.487   7.950
 4282POPC   C4B15478   2.229  11.419   7.650
 4283POPC   NC315479  36.087  27.641   9.450
 4283POPC   PO415480  36.157  27.546   9.150
 4283POPC   GL115481  36.110  27.607   8.850
 4283POPC   GL215482  36.125  27.499   8.850
 4283POPC   C1A15483  36.134  27.637   8.550
 4283POPC   D2A15484  36.118  27.579   8.250
 4283POPC   C3A15485  36.084  27.586   7.950
 4283POPC   C4A15486  36.145  27.579   7.650
 4283POPC   C1B15487  36.220  27.337   8.550
 4283POPC   C2B15488  36.226  27.310   8.250
 4283POPC   C3B15489  36.150  27.352   7.950
 4283POPC   C4B15490  36.232  27.350   7.650
 4284POPC   NC315491  18.271  14.422   9.450
 4284POPC   PO415492  18.277  14.366   9.150
 4284POPC   GL115493  18.316  14.400   8.850
 4284POPC   GL215494  18.413  14.416   8.850
 4284POPC   C1A15495  18.313  14.444   8.550
 4284POPC   D2A15496  18.249  14.452   8.250
 4284POPC   C3A15497  18.279  14.359   7.950
 4284POPC   C4A15498  18.309  14.384   7.650
 4284POPC   C1B15499  18.568  14.407   8.550
 4284POPC   C2B15500  18.540  14.476   8.250
 4284POPC   C3B15501  18.515  14.488   7.950
 4284POPC   C4B15502  18.489  14.437   7.650
 4285POPC   NC315503   5.863   2.797   9.450
 4285POPC   PO415504   5.903   2.750   9.150
 4285POPC   GL115505   5.843   2.792   8.850
 4285POPC   GL215506   5.719   2.832   8.850
 4285POPC   C1A15507   5.825   2.788   8.550
 4285POPC   D2A15508   5.868   2.751   8.250
 4285POPC   C3A15509   5.900   2.804   7.950
 4285POPC   C4A15510   5.847   2.793   7.650
 4285POPC   C1B15511   5.662   2.904   8.550
 4285POPC   C2B15512   5.688   2.891   8.250
 4285POPC   C3B15513   5.696   2.887   7.950
 4285POPC   C4B15514   5.696   2.947   7.650
 4286POPC   NC315515  38.416  21.397   9.450
 4286POPC   PO415516  38.430  21.337   9.150
 4286POPC   GL115517  38.485  21.339   8.850
 4286POPC   GL215518  38.537  21.447   8.850
 4286POPC   C1A15519  38.480  21.362   8.550
 4286POPC   D2A15520  38.429  21.344   8.250
 4286POPC   C3A15521  38.450  21.425   7.950
 4286POPC   C4A15522  38.491  21.361   7.650
 4286POPC   C1B15523  38.644  21.467   8.550
 4286POPC   C2B15524  38.735  21.488   8.250
 4286POPC   C3B15525  38.653  21.447   7.950
 4286POPC   C4B15526  38.688  21.449   7.650
 4287POPC   NC315527  22.892  12.878   9.450
 4287POPC   PO415528  22.922  12.873   9.150
 4287POPC   GL115529  22.913  12.852   8.850
 4287POPC   GL215530  22.882  12.962   8.850
 4287POPC   C1A15531  22.897  12.805   8.550
 4287POPC   D2A15532  22.918  12.865   8.250
 4287POPC   C3A15533  22.937  12.894   7.950
 4287POPC   C4A15534  22.982  12.820   7.650
 4287POPC   C1B15535  22.820  13.114   8.550
 4287POPC   C2B15536  22.782  13.090   8.250
 4287POPC   C3B15537  22.806  13.083   7.950
 4287POPC   C4B15538  22.852  13.032   7.650
 4288POPC   NC315539  31.446  38.493   9.450
 4288POPC   PO415540  31.424  38.468   9.150
 4288POPC   GL115541  31.458  38.418   8.850
 4288POPC   GL215542  31.595  38.367   8.850
 4288POPC   C1A15543  31.514  38.435   8.550
 4288POPC   D2A15544  31.482  38.439   8.250
 4288POPC   C3A15545  31.456  38.431   7.950
 4288POPC   C4A15546  31.511  38.437   7.650
 4288POPC   C1B15547  31.648  38.252   8.550
 4288POPC   C2B15548  31.658  38.235   8.250
 4288POPC   C3B15549  31.659  38.243   7.950
 4288POPC   C4B15550  31.661  38.238   7.650
 4289POPC   NC315551   5.075   5.884   9.450
 4289POPC   PO415552   5.058   5.914   9.150
 4289POPC   GL115553   5.109   5.824   8.850
 4289POPC   GL215554   5.214   5.969   8.850
 4289POPC   C1A15555   5.095   5.899   8.550
 4289POPC   D2A15556   5.083   5.907   8.250
 4289POPC   C3A15557   5.061   5.908   7.950
 4289POPC   C4A15558   5.114   5.840   7.650
 4289POPC   C1B15559   5.222   6.105   8.550
 4289POPC   C2B15560   5.216   6.056   8.250
 4289POPC   C3B15561   5.259   6.080   7.950
 4289POPC   C4B15562   5.215   6.066   7.650
 4290POPC   NC315563  12.038   1.225   9.450
 4290POPC   PO415564  12.032   1.204   9.150
 4290POPC   GL115565  12.048   1.212   8.850
 4290POPC   GL215566  11.968   1.326   8.850
 4290POPC   C1A15567  12.069   1.211   8.550
 4290POPC   D2A15568  12.062   1.187   8.250
 4290POPC   C3A15569  12.062   1.223   7.950
 4290POPC   C4A15570  12.037   1.176   7.650
 4290POPC   C1B15571  11.918   1.451   8.550
 4290POPC   C2B15572  11.971   1.393   8.250
 4290POPC   C3B15573  11.935   1.408   7.950
 4290POPC   C4B15574  11.966   1.364   7.650
 4291POPC   NC315575  40.754  22.189   9.450
 4291POPC   PO415576  40.803  22.146   9.150
 4291POPC   GL115577  40.788  22.114   8.850
 4291POPC   GL215578  40.735  22.277   8.850
 4291POPC   C1A15579  40.801  22.206   8.550
 4291POPC   D2A15580  40.753  22.149   8.250
 4291POPC   C3A15581  40.796  22.169   7.950
 4291POPC   C4A15582  40.830  22.176   7.650
 4291POPC   C1B15583  40.719  22.409   8.550
 4291POPC   C2B15584  40.676  22.406   8.250
 4291POPC   C3B15585  40.703  22.374   7.950
 4291POPC   C4B15586  40.753  22.376   7.650
 4292POPC   NC315587  18.251   1.956   9.450
 4292POPC   PO415588  18.247   1.962   9.150
 4292POPC   GL115589  18.277   1.993   8.850
 4292POPC   GL215590  18.339   2.122   8.850
 4292POPC   C1A15591  18.287   2.014   8.550
 4292POPC   D2A15592  18.262   1.947   8.250
 4292POPC   C3A15593  18.329   1.949   7.950
 4292POPC   C4A15594  18.270   1.989   7.650
 4292POPC   C1B15595  18.407   2.184   8.550
 4292POPC   C2B15596  18.407   2.171   8.250
 4292POPC   C3B15597  18.415   2.201   7.950
 4292POPC   C4B15598  18.377   2.198   7.650
 4293POPC   NC315599  15.209   7.447   9.450
 4293POPC   PO415600  15.188   7.452   9.150
 4293POPC   GL115601  15.227   7.452   8.850
 4293POPC   GL215602  15.134   7.337   8.850
 4293POPC   C1A15603  15.141   7.458   8.550
 4293POPC   D2A15604  15.153   7.449   8.250
 4293POPC   C3A15605  15.186   7.402   7.950
 4293POPC   C4A15606  15.160   7.435   7.650
 4293POPC   C1B15607  15.020   7.283   8.550
 4293POPC   C2B15608  14.989   7.218   8.250
 4293POPC   C3B15609  15.015   7.252   7.950
 4293POPC   C4B15610  15.030   7.215   7.650
 4294POPC   NC315611  36.881  43.114   9.450
 4294POPC   PO415612  36.884  43.124   9.150
 4294POPC   GL115613  36.911  43.082   8.850
 4294POPC   GL215614  37.011  43.257   8.850
 4294POPC   C1A15615  36.906  43.065   8.550
 4294POPC   D2A15616  36.938  43.099   8.250
 4294POPC   C3A15617  36.873  43.075   7.950
 4294POPC   C4A15618  36.856  43.154   7.650
 4294POPC   C1B15619  37.057  43.313   8.550
 4294POPC   C2B15620  36.972  43.321   8.250
 4294POPC   C3B15621  36.977  43.303   7.950
 4294POPC   C4B15622  37.009  43.371   7.650
 4295POPC   NC315623   7.440  29.899   9.450
 4295POPC   PO415624   7.431  29.872   9.150
 4295POPC   GL115625   7.422  29.920   8.850
 4295POPC   GL215626   7.306  30.009   8.850
 4295POPC   C1A15627   7.467  29.901   8.550
 4295POPC   D2A15628   7.444  29.964   8.250
 4295POPC   C3A15629   7.397  29.954   7.950
 4295POPC   C4A15630   7.402  29.936   7.650
 4295POPC   C1B15631   7.308  30.085   8.550
 4295POPC   C2B15632   7.327  30.180   8.250
 4295POPC   C3B15633   7.245  30.097   7.950
 4295POPC   C4B15634   7.316  30.141   7.650
 4296POPC   NC315635  27.553  17.531   9.450
 4296POPC   PO415636  27.619  17.521   9.150
 4296POPC   GL115637  27.561  17.471   8.850
 4296POPC   GL215638  27.713  17.422   8.850
 4296POPC   C1A15639  27.573  17.527   8.550
 4296POPC   D2A15640  27.600  17.533   8.250
 4296POPC   C3A15641  27.550  17.553   7.950
 4296POPC   C4A15642  27.623  17.543   7.650
 4296POPC   C1B15643  27.838  17.400   8.550
 4296POPC   C2B15644  27.789  17.392   8.250
 4296POPC   C3B15645  27.857  17.353   7.950
 4296POPC   C4B15646  27.786  17.361   7.650
 4297POPC   NC315647   4.363   8.228   9.450
 4297POPC   PO415648   4.336   8.188   9.150
 4297POPC   GL115649   4.276   8.181   8.850
 4297POPC   GL215650   4.162   8.220   8.850
 4297POPC   C1A15651   4.328   8.210   8.550
 4297POPC   D2A15652   4.348   8.150   8.250
 4297POPC   C3A15653   4.271   8.167   7.950
 4297POPC   C4A15654   4.311   8.216   7.650
 4297POPC   C1B15655   4.113   8.221   8.550
 4297POPC   C2B15656   4.029   8.187   8.250
 4297POPC   C3B15657   4.061   8.180   7.950
 4297POPC   C4B15658   4.038   8.272   7.650
 4298POPC   NC315659  25.246  33.777   9.450
 4298POPC   PO415660  25.264  33.827   9.150
 4298POPC   GL115661  25.281  33.814   8.850
 4298POPC   GL215662  25.189  33.845   8.850
 4298POPC   C1A15663  25.258  33.757   8.550
 4298POPC   D2A15664  25.259  33.796   8.250
 4298POPC   C3A15665  25.314  33.849   7.950
 4298POPC   C4A15666  25.267  33.790   7.650
 4298POPC   C1B15667  25.114  34.013   8.550
 4298POPC   C2B15668  25.050  33.979   8.250
 4298POPC   C3B15669  25.080  33.914   7.950
 4298POPC   C4B15670  25.066  33.933   7.650
 4299POPC   NC315671  16.693  25.300   9.450
 4299POPC   PO415672  16.750  25.269   9.150
 4299POPC   GL115673  16.777  25.253   8.850
 4299POPC   GL215674  16.620  25.317   8.850
 4299POPC   C1A15675  16.769  25.268   8.550
 4299POPC   D2A15676  16.724  25.305   8.250
 4299POPC   C3A15677  16.759  25.246   7.950
 4299POPC   C4A15678  16.758  25.267   7.650
 4299POPC   C1B15679  16.494  25.409   8.550
 4299POPC   C2B15680  16.493  25.389   8.250
 4299POPC   C3B15681  16.553  25.382   7.950
 4299POPC   C4B15682  16.554  25.403   7.650
 4300POPC   NC315683   1.172   7.391   9.450
 4300POPC   PO415684   1.236   7.441   9.150
 4300POPC   GL115685   1.255   7.402   8.850
 4300POPC   GL215686   1.097   7.407   8.850
 4300POPC   C1A15687   1.201   7.455   8.550
 4300POPC   D2A15688   1.178   7.415   8.250
 4300POPC   C3A15689   1.232   7.404   7.950
 4300POPC   C4A15690   1.228   7.427   7.650
 4300POPC   C1B15691   1.038   7.300   8.550
 4300POPC   C2B15692   0.950   7.306   8.250
 4300POPC   C3B15693   0.967   7.267   7.950
 4300POPC   C4B15694   0.961   7.332   7.650
 4301POPC   NC315695  24.475  19.828   9.450
 4301POPC   PO415696  24.480  19.856   9.150
 4301POPC   GL115697  24.529  19.815   8.850
 4301POPC   GL215698  24.564  19.959   8.850
 4301POPC   C1A15699  24.530  19.847   8.550
 4301POPC   D2A15700  24.454  19.786   8.250
 4301POPC   C3A15701  24.481  19.822   7.950
 4301POPC   C4A15702  24.516  19.819   7.650
 4301POPC   C1B15703  24.702  19.986   8.550
 4301POPC   C2B15704  24.643  20.004   8.250
 4301POPC   C3B15705  24.698  20.029   7.950
 4301POPC   C4B15706  24.654  19.981   7.650
 4302POPC   NC315707  17.461   5.077   9.450
 4302POPC   PO415708  17.483   5.056   9.150
 4302POPC   GL115709  17.548   5.077   8.850
 4302POPC   GL215710  17.511   4.974   8.850
 4302POPC   C1A15711  17.463   5.056   8.550
 4302POPC   D2A15712  17.515   5.109   8.250
 4302POPC   C3A15713  17.505   5.117   7.950
 4302POPC   C4A15714  17.515   5.063   7.650
 4302POPC   C1B15715  17.474   4.896   8.550
 4302POPC   C2B15716  17.493   4.874   8.250
 4302POPC   C3B15717  17.475   4.821   7.950
 4302POPC   C4B15718  17.495   4.809   7.650
 4303POPC   NC315719  15.189  19.024   9.450
 4303POPC   PO415720  15.223  19.070   9.150
 4303POPC   GL115721  15.160  19.103   8.850
 4303POPC   GL215722  15.192  18.889   8.850
 4303POPC   C1A15723  15.172  19.064   8.550
 4303POPC   D2A15724  15.149  19.044   8.250
 4303POPC   C3A15725  15.138  19.065   7.950
 4303POPC   C4A15726  15.193  19.085   7.650
 4303POPC   C1B15727  15.215  18.774   8.550
 4303POPC   C2B15728  15.231  18.791   8.250
 4303POPC   C3B15729  15.166  18.819   7.950
 4303POPC   C4B15730  15.216  18.822   7.650
 4304POPC   NC315731  22.210  22.130   9.450
 4304POPC   PO415732  22.178  22.164   9.150
 4304POPC   GL115733  22.152  22.208   8.850
 4304POPC   GL215734  22.071  22.226   8.850
 4304POPC   C1A15735  22.198  22.122   8.550
 4304POPC   D2A15736  22.204  22.131   8.250
 4304POPC   C3A15737  22.139  22.123   7.950
 4304POPC   C4A15738  22.203  22.169   7.650
 4304POPC   C1B15739  21.954  22.302   8.550
 4304POPC   C2B15740  21.918  22.268   8.250
 4304POPC   C3B15741  21.962  22.305   7.950
 4304POPC   C4B15742  21.966  22.330   7.650
 4305POPC   NC315743   1.249   5.077   9.450
 4305POPC   PO415744   1.215   5.112   9.150
 4305POPC   GL115745   1.211   5.058   8.850
 4305POPC   GL215746   1.368   5.061   8.850
 4305POPC   C1A15747   1.175   5.089   8.550
 4305POPC   D2A15748   1.211   5.119   8.250
 4305POPC   C3A15749   1.209   5.048   7.950
 4305POPC   C4A15750   1.235   5.073   7.650
 4305POPC   C1B15751   1.439   5.029   8.550
 4305POPC   C2B15752   1.427   5.079   8.250
 4305POPC   C3B15753   1.449   5.040   7.950
 4305POPC   C4B15754   1.438   5.049   7.650
 4306POPC   NC315755   1.252   6.633   9.450
 4306POPC   PO415756   1.167   6.620   9.150
 4306POPC   GL115757   1.166   6.684   8.850
 4306POPC   GL215758   1.325   6.557   8.850
 4306POPC   C1A15759   1.213   6.668   8.550
 4306POPC   D2A15760   1.241   6.675   8.250
 4306POPC   C3A15761   1.244   6.667   7.950
 4306POPC   C4A15762   1.223   6.614   7.650
 4306POPC   C1B15763   1.437   6.518   8.550
 4306POPC   C2B15764   1.408   6.517   8.250
 4306POPC   C3B15765   1.472   6.582   7.950
 4306POPC   C4B15766   1.434   6.615   7.650
 4307POPC   NC315767   6.694  26.819   9.450
 4307POPC   PO415768   6.661  26.769   9.150
 4307POPC   GL115769   6.645  26.788   8.850
 4307POPC   GL215770   6.556  26.787   8.850
 4307POPC   C1A15771   6.603  26.797   8.550
 4307POPC   D2A15772   6.650  26.823   8.250
 4307POPC   C3A15773   6.684  26.838   7.950
 4307POPC   C4A15774   6.630  26.805   7.650
 4307POPC   C1B15775   6.364  26.755   8.550
 4307POPC   C2B15776   6.366  26.811   8.250
 4307POPC   C3B15777   6.436  26.743   7.950
 4307POPC   C4B15778   6.398  26.725   7.650
 4308POPC   NC315779  21.339   8.997   9.450
 4308POPC   PO415780  21.391   8.926   9.150
 4308POPC   GL115781  21.341   8.960   8.850
 4308POPC   GL215782  21.371   8.855   8.850
 4308POPC   C1A15783  21.369   9.017   8.550
 4308POPC   D2A15784  21.359   9.014   8.250
 4308POPC   C3A15785  21.347   9.014   7.950
 4308POPC   C4A15786  21.360   8.997   7.650
 4308POPC   C1B15787  21.413   8.733   8.550
 4308POPC   C2B15788  21.408   8.747   8.250
 4308POPC   C3B15789  21.451   8.702   7.950
 4308POPC   C4B15790  21.466   8.697   7.650
 4309POPC   NC315791   1.255  12.054   9.450
 4309POPC   PO415792   1.172  12.085   9.150
 4309POPC   GL115793   1.253  12.069   8.850
 4309POPC   GL215794   1.145  11.954   8.850
 4309POPC   C1A15795   1.256  12.124   8.550
 4309POPC   D2A15796   1.250  12.113   8.250
 4309POPC   C3A15797   1.216  12.070   7.950
 4309POPC   C4A15798   1.200  12.099   7.650
 4309POPC   C1B15799   1.115  11.883   8.550
 4309POPC   C2B15800   1.118  11.829   8.250
 4309POPC   C3B15801   1.137  11.885   7.950
 4309POPC   C4B15802   1.154  11.823   7.650
 4310POPC   NC315803  16.736  29.934   9.450
 4310POPC   PO415804  16.764  29.912   9.150
 4310POPC   GL115805  16.763  29.872   8.850
 4310POPC   GL215806  16.590  29.958   8.850
 4310POPC   C1A15807  16.756  29.884   8.550
 4310POPC   D2A15808  16.689  29.882   8.250
 4310POPC   C3A15809  16.745  29.969   7.950
 4310POPC   C4A15810  16.769  29.899   7.650
 4310POPC   C1B15811  16.480  29.990   8.550
 4310POPC   C2B15812  16.484  30.004   8.250
 4310POPC   C3B15813  16.476  30.047   7.950
 4310POPC   C4B15814  16.529  30.024   7.650
 4311POPC   NC315815  31.488   0.443   9.450
 4311POPC   PO415816  31.500   0.470   9.150
 4311POPC   GL115817  31.467   0.476   8.850
 4311POPC   GL215818  31.384   0.580   8.850
 4311POPC   C1A15819  31.466   0.432   8.550
 4311POPC   D2A15820  31.424   0.453   8.250
 4311POPC   C3A15821  31.469   0.459   7.950
 4311POPC   C4A15822  31.424   0.455   7.650
 4311POPC   C1B15823  31.315   0.668   8.550
 4311POPC   C2B15824  31.408   0.646   8.250
 4311POPC   C3B15825  31.333   0.616   7.950
 4311POPC   C4B15826  31.334   0.677   7.650
 4312POPC   NC315827  29.112  39.245   9.450
 4312POPC   PO415828  29.168  39.217   9.150
 4312POPC   GL115829  29.106  39.200   8.850
 4312POPC   GL215830  29.032  39.183   8.850
 4312POPC   C1A15831  29.161  39.213   8.550
 4312POPC   D2A15832  29.173  39.251   8.250
 4312POPC   C3A15833  29.127  39.183   7.950
 4312POPC   C4A15834  29.170  39.191   7.650
 4312POPC   C1B15835  28.887  39.180   8.550
 4312POPC   C2B15836  28.890  39.202   8.250
 4312POPC   C3B15837  28.893  39.188   7.950
 4312POPC   C4B15838  28.907  39.264   7.650
 4313POPC   NC315839   2.766  12.871   9.450
 4313POPC   PO415840   2.805  12.826   9.150
 4313POPC   GL115841   2.746  12.871   8.850
 4313POPC   GL215842   2.646  12.763   8.850
 4313POPC   C1A15843   2.787  12.839   8.550
 4313POPC   D2A15844   2.719  12.835   8.250
 4313POPC   C3A15845   2.750  12.802   7.950
 4313POPC   C4A15846   2.763  12.849   7.650
 4313POPC   C1B15847   2.584  12.660   8.550
 4313POPC   C2B15848   2.579  12.706   8.250
 4313POPC   C3B15849   2.562  12.697   7.950
 4313POPC   C4B15850   2.542  12.689   7.650
 4314POPC   NC315851  11.319  22.906   9.450
 4314POPC   PO415852  11.316  22.970   9.150
 4314POPC   GL115853  11.338  22.929   8.850
 4314POPC   GL215854  11.278  23.080   8.850
 4314POPC   C1A15855  11.263  22.977   8.550
 4314POPC   D2A15856  11.256  22.937   8.250
 4314POPC   C3A15857  11.345  22.939   7.950
 4314POPC   C4A15858  11.289  22.938   7.650
 4314POPC   C1B15859  11.212  23.153   8.550
 4314POPC   C2B15860  11.183  23.110   8.250
 4314POPC   C3B15861  11.185  23.107   7.950
 4314POPC   C4B15862  11.175  23.125   7.650
 4315POPC   NC315863  33.801  17.524   9.450
 4315POPC   PO415864  33.821  17.470   9.150
 4315POPC   GL115865  33.801  17.510   8.850
 4315POPC   GL215866  33.875  17.577   8.850
 4315POPC   C1A15867  33.795  17.499   8.550
 4315POPC   D2A15868  33.822  17.481   8.250
 4315POPC   C3A15869  33.844  17.516   7.950
 4315POPC   C4A15870  33.754  17.462   7.650
 4315POPC   C1B15871  34.055  17.625   8.550
 4315POPC   C2B15872  33.988  17.631   8.250
 4315POPC   C3B15873  34.048  17.592   7.950
 4315POPC   C4B15874  33.996  17.634   7.650
 4316POPC   NC315875  30.663  22.982   9.450
 4316POPC   PO415876  30.666  22.961   9.150
 4316POPC   GL115877  30.655  22.910   8.850
 4316POPC   GL215878  30.642  22.800   8.850
 4316POPC   C1A15879  30.704  22.961   8.550
 4316POPC   D2A15880  30.657  22.957   8.250
 4316POPC   C3A15881  30.722  22.964   7.950
 4316POPC   C4A15882  30.705  22.945   7.650
 4316POPC   C1B15883  30.586  22.698   8.550
 4316POPC   C2B15884  30.613  22.759   8.250
 4316POPC   C3B15885  30.557  22.771   7.950
 4316POPC   C4B15886  30.591  22.757   7.650
 4317POPC   NC315887  38.431  44.651   9.450
 4317POPC   PO415888  38.485  44.670   9.150
 4317POPC   GL115889  38.411  44.671   8.850
 4317POPC   GL215890  38.576  44.764   8.850
 4317POPC   C1A15891  38.462  44.655   8.550
 4317POPC   D2A15892  38.491  44.674   8.250
 4317POPC   C3A15893  38.494  44.646   7.950
 4317POPC   C4A15894  38.473  44.708   7.650
 4317POPC   C1B15895  38.719  44.816   8.550
 4317POPC   C2B15896  38.645  44.754   8.250
 4317POPC   C3B15897  38.711  44.727   7.950
 4317POPC   C4B15898  38.717  44.808   7.650
 4318POPC   NC315899  25.264   0.394   9.450
 4318POPC   PO415900  25.281   0.470   9.150
 4318POPC   GL115901  25.308   0.485   8.850
 4318POPC   GL215902  25.350   0.529   8.850
 4318POPC   C1A15903  25.307   0.409   8.550
 4318POPC   D2A15904  25.250   0.423   8.250
 4318POPC   C3A15905  25.278   0.444   7.950
 4318POPC   C4A15906  25.297   0.465   7.650
 4318POPC   C1B15907  25.365   0.620   8.550
 4318POPC   C2B15908  25.382   0.687   8.250
 4318POPC   C3B15909  25.360   0.682   7.950
 4318POPC   C4B15910  25.384   0.697   7.650
 4319POPC   NC315911   5.114  23.747   9.450
 4319POPC   PO415912   5.080  23.703   9.150
 4319POPC   GL115913   5.074  23.743   8.850
 4319POPC   GL215914   4.966  23.794   8.850
 4319POPC   C1A15915   5.121  23.763   8.550
 4319POPC   D2A15916   5.121  23.687   8.250
 4319POPC   C3A15917   5.082  23.738   7.950
 4319POPC   C4A15918   5.063  23.724   7.650
 4319POPC   C1B15919   4.840  23.853   8.550
 4319POPC   C2B15920   4.828  23.874   8.250
 4319POPC   C3B15921   4.853  23.846   7.950
 4319POPC   C4B15922   4.827  23.786   7.650
 4320POPC   NC315923   1.957   1.213   9.450
 4320POPC   PO415924   2.004   1.225   9.150
 4320POPC   GL115925   1.967   1.232   8.850
 4320POPC   GL215926   2.042   1.381   8.850
 4320POPC   C1A15927   1.948   1.249   8.550
 4320POPC   D2A15928   1.980   1.199   8.250
 4320POPC   C3A15929   2.039   1.187   7.950
 4320POPC   C4A15930   1.996   1.219   7.650
 4320POPC   C1B15931   2.043   1.464   8.550
 4320POPC   C2B15932   2.012   1.443   8.250
 4320POPC   C3B15933   1.986   1.439   7.950
 4320POPC   C4B15934   2.026   1.468   7.650
 4321POPC   NC315935  16.728  10.547   9.450
 4321POPC   PO415936  16.701  10.533   9.150
 4321POPC   GL115937  16.752  10.562   8.850
 4321POPC   GL215938  16.858  10.480   8.850
 4321POPC   C1A15939  16.774  10.566   8.550
 4321POPC   D2A15940  16.773  10.544   8.250
 4321POPC   C3A15941  16.683  10.537   7.950
 4321POPC   C4A15942  16.762  10.499   7.650
 4321POPC   C1B15943  16.951  10.571   8.550
 4321POPC   C2B15944  16.994  10.566   8.250
 4321POPC   C3B15945  16.956  10.511   7.950
 4321POPC   C4B15946  16.989  10.514   7.650
 4322POPC   NC315947   2.734  17.490   9.450
 4322POPC   PO415948   2.744  17.556   9.150
 4322POPC   GL115949   2.780  17.463   8.850
 4322POPC   GL215950   2.847  17.421   8.850
 4322POPC   C1A15951   2.760  17.474   8.550
 4322POPC   D2A15952   2.774  17.483   8.250
 4322POPC   C3A15953   2.792  17.544   7.950
 4322POPC   C4A15954   2.723  17.485   7.650
 4322POPC   C1B15955   3.019  17.404   8.550
 4322POPC   C2B15956   2.959  17.350   8.250
 4322POPC   C3B15957   2.962  17.406   7.950
 4322POPC   C4B15958   2.996  17.370   7.650
 4323POPC   NC315959   7.435  12.060   9.450
 4323POPC   PO415960   7.469  12.107   9.150
 4323POPC   GL115961   7.371  12.125   8.850
 4323POPC   GL215962   7.544  12.169   8.850
 4323POPC   C1A15963   7.378  12.108   8.550
 4323POPC   D2A15964   7.441  12.044   8.250
 4323POPC   C3A15965   7.456  12.113   7.950
 4323POPC   C4A15966   7.446  12.112   7.650
 4323POPC   C1B15967   7.598  12.305   8.550
 4323POPC   C2B15968   7.545  12.261   8.250
 4323POPC   C3B15969   7.546  12.288   7.950
 4323POPC   C4B15970   7.614  12.310   7.650
 4324POPC   NC315971  36.161  28.401   9.450
 4324POPC   PO415972  36.120  28.382   9.150
 4324POPC   GL115973  36.097  28.363   8.850
 4324POPC   GL215974  36.139  28.528   8.850
 4324POPC   C1A15975  36.108  28.407   8.550
 4324POPC   D2A15976  36.178  28.332   8.250
 4324POPC   C3A15977  36.116  28.390   7.950
 4324POPC   C4A15978  36.082  28.383   7.650
 4324POPC   C1B15979  36.193  28.617   8.550
 4324POPC   C2B15980  36.161  28.575   8.250
 4324POPC   C3B15981  36.194  28.631   7.950
 4324POPC   C4B15982  36.157  28.651   7.650
 4325POPC   NC315983  27.592  12.029   9.450
 4325POPC   PO415984  27.546  12.038   9.150
 4325POPC   GL115985  27.571  12.077   8.850
 4325POPC   GL215986  27.630  12.247   8.850
 4325POPC   C1A15987  27.574  12.100   8.550
 4325POPC   D2A15988  27.591  12.070   8.250
 4325POPC   C3A15989  27.635  12.042   7.950
 4325POPC   C4A15990  27.597  12.112   7.650
 4325POPC   C1B15991  27.569  12.331   8.550
 4325POPC   C2B15992  27.613  12.339   8.250
 4325POPC   C3B15993  27.543  12.323   7.950
 4325POPC   C4B15994  27.538  12.339   7.650
 4326POPC   NC315995  26.080  35.305   9.450
 4326POPC   PO415996  26.029  35.374   9.150
 4326POPC   GL115997  26.057  35.354   8.850
 4326POPC   GL215998  26.126  35.401   8.850
 4326POPC   C1A15999  26.072  35.381   8.550
 4326POPC   D2A16000  26.050  35.391   8.250
 4326POPC   C3A16001  26.048  35.317   7.950
 4326POPC   C4A16002  26.007  35.385   7.650
 4326POPC   C1B16003  26.308  35.472   8.550
 4326POPC   C2B16004  26.263  35.453   8.250
 4326POPC   C3B16005  26.300  35.378   7.950
 4326POPC   C4B16006  26.281  35.474   7.650
 4327POPC   NC316007  21.354  11.295   9.450
 4327POPC   PO416008  21.374  11.307   9.150
 4327POPC   GL116009  21.368  11.324   8.850
 4327POPC   GL216010  21.447  11.213   8.850
 4327POPC   C1A16011  21.340  11.299   8.550
 4327POPC   D2A16012  21.347  11.264   8.250
 4327POPC   C3A16013  21.349  11.284   7.950
 4327POPC   C4A16014  21.348  11.271   7.650
 4327POPC   C1B16015  21.548  11.044   8.550
 4327POPC   C2B16016  21.482  11.094   8.250
 4327POPC   C3B16017  21.462  11.100   7.950
 4327POPC   C4B16018  21.494  11.103   7.650
 4328POPC   NC316019   8.147  21.411   9.450
 4328POPC   PO416020   8.179  21.383   9.150
 4328POPC   GL116021   8.241  21.381   8.850
 4328POPC   GL216022   8.158  21.490   8.850
 4328POPC   C1A16023   8.177  21.424   8.550
 4328POPC   D2A16024   8.154  21.378   8.250
 4328POPC   C3A16025   8.155  21.365   7.950
 4328POPC   C4A16026   8.219  21.407   7.650
 4328POPC   C1B16027   8.060  21.583   8.550
 4328POPC   C2B16028   8.028  21.599   8.250
 4328POPC   C3B16029   8.059  21.552   7.950
 4328POPC   C4B16030   8.021  21.548   7.650
 4329POPC   NC316031  32.224   6.663   9.450
 4329POPC   PO416032  32.229   6.622   9.150
 4329POPC   GL116033  32.208   6.648   8.850
 4329POPC   GL216034  32.268   6.789   8.850
 4329POPC   C1A16035  32.244   6.633   8.550
 4329POPC   D2A16036  32.288   6.607   8.250
 4329POPC   C3A16037  32.225   6.677   7.950
 4329POPC   C4A16038  32.209   6.616   7.650
 4329POPC   C1B16039  32.297   6.859   8.550
 4329POPC   C2B16040  32.352   6.858   8.250
 4329POPC   C3B16041  32.304   6.891   7.950
 4329POPC   C4B16042  32.322   6.913   7.650
 4330POPC   NC316043  34.616  38.432   9.450
 4330POPC   PO416044  34.553  38.501   9.150
 4330POPC   GL116045  34.591  38.458   8.850
 4330POPC   GL216046  34.728  38.460   8.850
 4330POPC   C1A16047  34.555  38.484   8.550
 4330POPC   D2A16048  34.559  38.487   8.250
 4330POPC   C3A16049  34.579  38.437   7.950
 4330POPC   C4A16050  34.600  38.429   7.650
 4330POPC   C1B16051  34.778  38.526   8.550
 4330POPC   C2B16052  34.825  38.476   8.250
 4330POPC   C3B16053  34.868  38.515   7.950
 4330POPC   C4B16054  34.804  38.498   7.650
 4331POPC   NC316055  43.839  25.306   9.450
 4331POPC   PO416056  43.868  25.216   9.150
 4331POPC   GL116057  43.886  25.254   8.850
 4331POPC   GL216058  43.984  25.182   8.850
 4331POPC   C1A16059  43.936  25.298   8.550
 4331POPC   D2A16060  43.847  25.313   8.250
 4331POPC   C3A16061  43.903  25.258   7.950
 4331POPC   C4A16062  43.931  25.221   7.650
 4331POPC   C1B16063  44.053  25.073   8.550
 4331POPC   C2B16064  44.042  25.064   8.250
 4331POPC   C3B16065  44.047  25.108   7.950
 4331POPC   C4B16066  44.094  25.135   7.650
 4332POPC   NC316067  26.021   5.110   9.450
 4332POPC   PO416068  26.032   5.112   9.150
 4332POPC   GL116069  26.070   5.078   8.850
 4332POPC   GL216070  26.049   5.240   8.850
 4332POPC   C1A16071  26.023   5.044   8.550
 4332POPC   D2A16072  26.008   5.099   8.250
 4332POPC   C3A16073  26.011   5.140   7.950
 4332POPC   C4A16074  26.086   5.133   7.650
 4332POPC   C1B16075  25.986   5.354   8.550
 4332POPC   C2B16076  26.006   5.376   8.250
 4332POPC   C3B16077  25.953   5.299   7.950
 4332POPC   C4B16078  26.000   5.372   7.650
 4333POPC   NC316079  33.801   5.107   9.450
 4333POPC   PO416080  33.811   5.105   9.150
 4333POPC   GL116081  33.823   5.085   8.850
 4333POPC   GL216082  33.949   5.030   8.850
 4333POPC   C1A16083  33.824   5.069   8.550
 4333POPC   D2A16084  33.777   5.090   8.250
 4333POPC   C3A16085  33.822   5.137   7.950
 4333POPC   C4A16086  33.815   5.100   7.650
 4333POPC   C1B16087  34.043   4.975   8.550
 4333POPC   C2B16088  34.000   5.007   8.250
 4333POPC   C3B16089  34.021   5.020   7.950
 4333POPC   C4B16090  34.045   4.960   7.650
 4334POPC   NC316091  36.870   2.741   9.450
 4334POPC   PO416092  36.944   2.812   9.150
 4334POPC   GL116093  36.901   2.738   8.850
 4334POPC   GL216094  36.817   2.671   8.850
 4334POPC   C1A16095  36.910   2.737   8.550
 4334POPC   D2A16096  36.861   2.718   8.250
 4334POPC   C3A16097  36.891   2.745   7.950
 4334POPC   C4A16098  36.929   2.769   7.650
 4334POPC   C1B16099  36.670   2.635   8.550
 4334POPC   C2B16100  36.694   2.606   8.250
 4334POPC   C3B16101  36.706   2.659   7.950
 4334POPC   C4B16102  36.710   2.636   7.650
 4335POPC   NC316103  23.705   8.220   9.450
 4335POPC   PO416104  23.762   8.236   9.150
 4335POPC   GL116105  23.707   8.228   8.850
 4335POPC   GL216106  23.603   8.256   8.850
 4335POPC   C1A16107  23.674   8.181   8.550
 4335POPC   D2A16108  23.706   8.149   8.250
 4335POPC   C3A16109  23.737   8.214   7.950
 4335POPC   C4A16110  23.664   8.225   7.650
 4335POPC   C1B16111  23.449   8.296   8.550
 4335POPC   C2B16112  23.439   8.223   8.250
 4335POPC   C3B16113  23.463   8.291   7.950
 4335POPC   C4B16114  23.508   8.227   7.650
 4336POPC   NC316115   3.525   6.646   9.450
 4336POPC   PO416116   3.584   6.679   9.150
 4336POPC   GL116117   3.552   6.600   8.850
 4336POPC   GL216118   3.553   6.499   8.850
 4336POPC   C1A16119   3.562   6.670   8.550
 4336POPC   D2A16120   3.538   6.685   8.250
 4336POPC   C3A16121   3.582   6.655   7.950
 4336POPC   C4A16122   3.509   6.600   7.650
 4336POPC   C1B16123   3.561   6.432   8.550
 4336POPC   C2B16124   3.649   6.383   8.250
 4336POPC   C3B16125   3.595   6.354   7.950
 4336POPC   C4B16126   3.631   6.391   7.650
 4337POPC   NC316127  25.308   7.448   9.450
 4337POPC   PO416128  25.265   7.457   9.150
 4337POPC   GL116129  25.302   7.465   8.850
 4337POPC   GL216130  25.158   7.515   8.850
 4337POPC   C1A16131  25.282   7.384   8.550
 4337POPC   D2A16132  25.311   7.428   8.250
 4337POPC   C3A16133  25.303   7.391   7.950
 4337POPC   C4A16134  25.286   7.466   7.650
 4337POPC   C1B16135  25.012   7.554   8.550
 4337POPC   C2B16136  25.046   7.521   8.250
 4337POPC   C3B16137  25.034   7.496   7.950
 4337POPC   C4B16138  25.018   7.494   7.650
 4338POPC   NC316139  33.834   8.959   9.450
 4338POPC   PO416140  33.795   8.949   9.150
 4338POPC   GL116141  33.794   8.998   8.850
 4338POPC   GL216142  33.824   9.051   8.850
 4338POPC   C1A16143  33.818   8.959   8.550
 4338POPC   D2A16144  33.846   9.021   8.250
 4338POPC   C3A16145  33.847   8.933   7.950
 4338POPC   C4A16146  33.797   8.970   7.650
 4338POPC   C1B16147  33.746   9.234   8.550
 4338POPC   C2B16148  33.768   9.172   8.250
 4338POPC   C3B16149  33.771   9.260   7.950
 4338POPC   C4B16150  33.786   9.211   7.650
 4339POPC   NC316151  44.709   6.636   9.450
 4339POPC   PO416152  44.618   6.624   9.150
 4339POPC   GL116153  44.629   6.641   8.850
 4339POPC   GL216154  44.730   6.531   8.850
 4339POPC   C1A16155  44.614   6.664   8.550
 4339POPC   D2A16156  44.679   6.663   8.250
 4339POPC   C3A16157  44.668   6.648   7.950
 4339POPC   C4A16158  44.665   6.675   7.650
 4339POPC   C1B16159  44.845   6.458   8.550
 4339POPC   C2B16160  44.845   6.414   8.250
 4339POPC   C3B16161  44.758   6.448   7.950
 4339POPC   C4B16162  44.765   6.439   7.650
 4340POPC   NC316163  29.166   1.995   9.450
 4340POPC   PO416164  29.150   2.024   9.150
 4340POPC   GL116165  29.165   1.980   8.850
 4340POPC   GL216166  29.215   2.014   8.850
 4340POPC   C1A16167  29.159   1.947   8.550
 4340POPC   D2A16168  29.165   2.018   8.250
 4340POPC   C3A16169  29.165   1.963   7.950
 4340POPC   C4A16170  29.164   1.959   7.650
 4340POPC   C1B16171  29.384   2.092   8.550
 4340POPC   C2B16172  29.301   2.095   8.250
 4340POPC   C3B16173  29.330   2.172   7.950
 4340POPC   C4B16174  29.364   2.102   7.650
 4341POPC   NC316175  41.558  23.750   9.450
 4341POPC   PO416176  41.573  23.737   9.150
 4341POPC   GL116177  41.564  23.697   8.850
 4341POPC   GL216178  41.667  23.778   8.850
 4341POPC   C1A16179  41.531  23.723   8.550
 4341POPC   D2A16180  41.515  23.763   8.250
 4341POPC   C3A16181  41.579  23.687   7.950
 4341POPC   C4A16182  41.543  23.749   7.650
 4341POPC   C1B16183  41.765  23.859   8.550
 4341POPC   C2B16184  41.735  23.791   8.250
 4341POPC   C3B16185  41.728  23.813   7.950
 4341POPC   C4B16186  41.740  23.836   7.650
 4342POPC   NC316187  25.296  23.686   9.450
 4342POPC   PO416188  25.295  23.694   9.150
 4342POPC   GL116189  25.226  23.699   8.850
 4342POPC   GL216190  25.405  23.675   8.850
 4342POPC   C1A16191  25.239  23.675   8.550
 4342POPC   D2A16192  25.269  23.720   8.250
 4342POPC   C3A16193  25.275  23.704   7.950
 4342POPC   C4A16194  25.237  23.756   7.650
 4342POPC   C1B16195  25.520  23.548   8.550
 4342POPC   C2B16196  25.456  23.605   8.250
 4342POPC   C3B16197  25.492  23.561   7.950
 4342POPC   C4B16198  25.532  23.545   7.650
 4343POPC   NC316199  22.937   8.945   9.450
 4343POPC   PO416200  22.983   8.965   9.150
 4343POPC   GL116201  22.954   8.948   8.850
 4343POPC   GL216202  23.030   9.072   8.850
 4343POPC   C1A16203  22.890   8.998   8.550
 4343POPC   D2A16204  22.941   8.933   8.250
 4343POPC   C3A16205  22.980   8.967   7.950
 4343POPC   C4A16206  22.950   8.990   7.650
 4343POPC   C1B16207  23.160   9.132   8.550
 4343POPC   C2B16208  23.179   9.098   8.250
 4343POPC   C3B16209  23.153   9.097   7.950
 4343POPC   C4B16210  23.200   9.092   7.650
 4344POPC   NC316211   0.465  42.365   9.450
 4344POPC   PO416212   0.402  42.377   9.150
 4344POPC   GL116213   0.398  42.384   8.850
 4344POPC   GL216214   0.541  42.327   8.850
 4344POPC   C1A16215   0.418  42.285   8.550
 4344POPC   D2A16216   0.463  42.370   8.250
 4344POPC   C3A16217   0.398  42.295   7.950
 4344POPC   C4A16218   0.415  42.355   7.650
 4344POPC   C1B16219   0.656  42.228   8.550
 4344POPC   C2B16220   0.702  42.239   8.250
 4344POPC   C3B16221   0.713  42.231   7.950
 4344POPC   C4B16222   0.638  42.287   7.650
 4345POPC   NC316223  21.380   7.457   9.450
 4345POPC   PO416224  21.378   7.412   9.150
 4345POPC   GL116225  21.339   7.443   8.850
 4345POPC   GL216226  21.213   7.359   8.850
 4345POPC   C1A16227  21.366   7.411   8.550
 4345POPC   D2A16228  21.358   7.393   8.250
 4345POPC   C3A16229  21.395   7.386   7.950
 4345POPC   C4A16230  21.362   7.439   7.650
 4345POPC   C1B16231  21.119   7.436   8.550
 4345POPC   C2B16232  21.104   7.377   8.250
 4345POPC   C3B16233  21.153   7.357   7.950
 4345POPC   C4B16234  21.164   7.403   7.650
 4346POPC   NC316235  29.905   3.491   9.450
 4346POPC   PO416236  29.953   3.503   9.150
 4346POPC   GL116237  29.943   3.499   8.850
 4346POPC   GL216238  29.941   3.682   8.850
 4346POPC   C1A16239  29.959   3.532   8.550
 4346POPC   D2A16240  29.882   3.497   8.250
 4346POPC   C3A16241  29.876   3.522   7.950
 4346POPC   C4A16242  29.899   3.557   7.650
 4346POPC   C1B16243  29.867   3.783   8.550
 4346POPC   C2B16244  29.859   3.836   8.250
 4346POPC   C3B16245  29.832   3.786   7.950
 4346POPC   C4B16246  29.856   3.762   7.650
 4347POPC   NC316247  24.497   5.824   9.450
 4347POPC   PO416248  24.485   5.860   9.150
 4347POPC   GL116249  24.514   5.829   8.850
 4347POPC   GL216250  24.426   5.723   8.850
 4347POPC   C1A16251  24.512   5.898   8.550
 4347POPC   D2A16252  24.528   5.873   8.250
 4347POPC   C3A16253  24.500   5.912   7.950
 4347POPC   C4A16254  24.449   5.870   7.650
 4347POPC   C1B16255  24.355   5.654   8.550
 4347POPC   C2B16256  24.378   5.665   8.250
 4347POPC   C3B16257  24.373   5.714   7.950
 4347POPC   C4B16258  24.386   5.709   7.650
 4348POPC   NC316259  34.592  11.337   9.450
 4348POPC   PO416260  34.542  11.315   9.150
 4348POPC   GL116261  34.554  11.326   8.850
 4348POPC   GL216262  34.714  11.343   8.850
 4348POPC   C1A16263  34.618  11.347   8.550
 4348POPC   D2A16264  34.601  11.267   8.250
 4348POPC   C3A16265  34.624  11.322   7.950
 4348POPC   C4A16266  34.624  11.279   7.650
 4348POPC   C1B16267  34.819  11.350   8.550
 4348POPC   C2B16268  34.829  11.360   8.250
 4348POPC   C3B16269  34.778  11.283   7.950
 4348POPC   C4B16270  34.849  11.278   7.650
 4349POPC   NC316271  17.491  12.896   9.450
 4349POPC   PO416272  17.479  12.849   9.150
 4349POPC   GL116273  17.514  12.824   8.850
 4349POPC   GL216274  17.574  12.954   8.850
 4349POPC   C1A16275  17.485  12.898   8.550
 4349POPC   D2A16276  17.463  12.836   8.250
 4349POPC   C3A16277  17.476  12.882   7.950
 4349POPC   C4A16278  17.521  12.803   7.650
 4349POPC   C1B16279  17.686  12.975   8.550
 4349POPC   C2B16280  17.748  13.005   8.250
 4349POPC   C3B16281  17.682  12.954   7.950
 4349POPC   C4B16282  17.701  12.978   7.650
 4350POPC   NC316283  42.314  26.084   9.450
 4350POPC   PO416284  42.362  26.022   9.150
 4350POPC   GL116285  42.344  26.021   8.850
 4350POPC   GL216286  42.220  26.006   8.850
 4350POPC   C1A16287  42.342  26.067   8.550
 4350POPC   D2A16288  42.290  26.041   8.250
 4350POPC   C3A16289  42.315  26.061   7.950
 4350POPC   C4A16290  42.293  26.046   7.650
 4350POPC   C1B16291  42.117  25.963   8.550
 4350POPC   C2B16292  42.122  25.935   8.250
 4350POPC   C3B16293  42.102  25.962   7.950
 4350POPC   C4B16294  42.115  25.936   7.650
 4351POPC   NC316295   6.628  30.731   9.450
 4351POPC   PO416296   6.676  30.665   9.150
 4351POPC   GL116297   6.687  30.678   8.850
 4351POPC   GL216298   6.698  30.594   8.850
 4351POPC   C1A16299   6.689  30.722   8.550
 4351POPC   D2A16300   6.693  30.693   8.250
 4351POPC   C3A16301   6.650  30.647   7.950
 4351POPC   C4A16302   6.645  30.731   7.650
 4351POPC   C1B16303   6.710  30.493   8.550
 4351POPC   C2B16304   6.656  30.405   8.250
 4351POPC   C3B16305   6.689  30.466   7.950
 4351POPC   C4B16306   6.690  30.420   7.650
 4352POPC   NC316307  22.163   3.501   9.450
 4352POPC   PO416308  22.155   3.556   9.150
 4352POPC   GL116309  22.163   3.590   8.850
 4352POPC   GL216310  22.313   3.468   8.850
 4352POPC   C1A16311  22.177   3.530   8.550
 4352POPC   D2A16312  22.191   3.580   8.250
 4352POPC   C3A16313  22.154   3.571   7.950
 4352POPC   C4A16314  22.162   3.534   7.650
 4352POPC   C1B16315  22.428   3.449   8.550
 4352POPC   C2B16316  22.398   3.436   8.250
 4352POPC   C3B16317  22.363   3.437   7.950
 4352POPC   C4B16318  22.370   3.455   7.650
 4353POPC   NC316319  40.024  42.373   9.450
 4353POPC   PO416320  39.961  42.381   9.150
 4353POPC   GL116321  40.022  42.295   8.850
 4353POPC   GL216322  39.908  42.424   8.850
 4353POPC   C1A16323  39.987  42.338   8.550
 4353POPC   D2A16324  40.009  42.375   8.250
 4353POPC   C3A16325  39.964  42.310   7.950
 4353POPC   C4A16326  40.048  42.326   7.650
 4353POPC   C1B16327  39.913  42.561   8.550
 4353POPC   C2B16328  39.930  42.562   8.250
 4353POPC   C3B16329  39.919  42.607   7.950
 4353POPC   C4B16330  39.870  42.562   7.650
 4354POPC   NC316331  19.827  42.313   9.450
 4354POPC   PO416332  19.804  42.335   9.150
 4354POPC   GL116333  19.804  42.285   8.850
 4354POPC   GL216334  19.712  42.342   8.850
 4354POPC   C1A16335  19.851  42.357   8.550
 4354POPC   D2A16336  19.791  42.350   8.250
 4354POPC   C3A16337  19.876  42.364   7.950
 4354POPC   C4A16338  19.826  42.380   7.650
 4354POPC   C1B16339  19.555  42.359   8.550
 4354POPC   C2B16340  19.619  42.325   8.250
 4354POPC   C3B16341  19.614  42.336   7.950
 4354POPC   C4B16342  19.595  42.336   7.650
 4355POPC   NC316343  33.050  26.777   9.450
 4355POPC   PO416344  33.017  26.800   9.150
 4355POPC   GL116345  32.986  26.799   8.850
 4355POPC   GL216346  32.970  26.660   8.850
 4355POPC   C1A16347  33.068  26.791   8.550
 4355POPC   D2A16348  33.020  26.797   8.250
 4355POPC   C3A16349  32.997  26.853   7.950
 4355POPC   C4A16350  33.029  26.822   7.650
 4355POPC   C1B16351  32.965  26.574   8.550
 4355POPC   C2B16352  32.914  26.586   8.250
 4355POPC   C3B16353  32.911  26.632   7.950
 4355POPC   C4B16354  32.938  26.561   7.650
 4356POPC   NC316355  31.428  26.829   9.450
 4356POPC   PO416356  31.467  26.789   9.150
 4356POPC   GL116357  31.441  26.782   8.850
 4356POPC   GL216358  31.309  26.797   8.850
 4356POPC   C1A16359  31.499  26.801   8.550
 4356POPC   D2A16360  31.466  26.784   8.250
 4356POPC   C3A16361  31.466  26.857   7.950
 4356POPC   C4A16362  31.483  26.859   7.650
 4356POPC   C1B16363  31.242  26.880   8.550
 4356POPC   C2B16364  31.200  26.919   8.250
 4356POPC   C3B16365  31.278  26.908   7.950
 4356POPC   C4B16366  31.197  26.906   7.650
 4357POPC   NC316367  36.087  40.033   9.450
 4357POPC   PO416368  36.173  40.022   9.150
 4357POPC   GL116369  36.160  40.045   8.850
 4357POPC   GL216370  36.042  40.111   8.850
 4357POPC   C1A16371  36.079  39.992   8.550
 4357POPC   D2A16372  36.160  40.041   8.250
 4357POPC   C3A16373  36.175  40.044   7.950
 4357POPC   C4A16374  36.113  40.046   7.650
 4357POPC   C1B16375  36.029  40.247   8.550
 4357POPC   C2B16376  36.065  40.251   8.250
 4357POPC   C3B16377  36.036  40.237   7.950
 4357POPC   C4B16378  36.046  40.272   7.650
 4358POPC   NC316379  11.342  39.237   9.450
 4358POPC   PO416380  11.333  39.202   9.150
 4358POPC   GL116381  11.270  39.268   8.850
 4358POPC   GL216382  11.336  39.334   8.850
 4358POPC   C1A16383  11.293  39.278   8.550
 4358POPC   D2A16384  11.329  39.274   8.250
 4358POPC   C3A16385  11.303  39.251   7.950
 4358POPC   C4A16386  11.347  39.228   7.650
 4358POPC   C1B16387  11.434  39.471   8.550
 4358POPC   C2B16388  11.432  39.503   8.250
 4358POPC   C3B16389  11.416  39.429   7.950
 4358POPC   C4B16390  11.404  39.429   7.650
 4359POPC   NC316391  12.084  33.044   9.450
 4359POPC   PO416392  12.033  33.057   9.150
 4359POPC   GL116393  12.094  33.059   8.850
 4359POPC   GL216394  12.158  33.067   8.850
 4359POPC   C1A16395  12.102  33.023   8.550
 4359POPC   D2A16396  12.027  33.024   8.250
 4359POPC   C3A16397  12.112  33.065   7.950
 4359POPC   C4A16398  12.115  33.036   7.650
 4359POPC   C1B16399  12.315  33.166   8.550
 4359POPC   C2B16400  12.259  33.221   8.250
 4359POPC   C3B16401  12.301  33.132   7.950
 4359POPC   C4B16402  12.242  33.181   7.650
 4360POPC   NC316403  39.214  30.738   9.450
 4360POPC   PO416404  39.215  30.722   9.150
 4360POPC   GL116405  39.216  30.659   8.850
 4360POPC   GL216406  39.136  30.710   8.850
 4360POPC   C1A16407  39.249  30.713   8.550
 4360POPC   D2A16408  39.207  30.732   8.250
 4360POPC   C3A16409  39.183  30.701   7.950
 4360POPC   C4A16410  39.248  30.741   7.650
 4360POPC   C1B16411  39.043  30.788   8.550
 4360POPC   C2B16412  39.049  30.811   8.250
 4360POPC   C3B16413  38.974  30.858   7.950
 4360POPC   C4B16414  38.965  30.819   7.650
 4361POPC   NC316415  29.873  11.349   9.450
 4361POPC   PO416416  29.937  11.287   9.150
 4361POPC   GL116417  29.898  11.277   8.850
 4361POPC   GL216418  30.030  11.396   8.850
 4361POPC   C1A16419  29.957  11.272   8.550
 4361POPC   D2A16420  29.902  11.349   8.250
 4361POPC   C3A16421  29.936  11.325   7.950
 4361POPC   C4A16422  29.891  11.295   7.650
 4361POPC   C1B16423  30.066  11.454   8.550
 4361POPC   C2B16424  30.100  11.431   8.250
 4361POPC   C3B16425  30.142  11.426   7.950
 4361POPC   C4B16426  30.077  11.442   7.650
 4362POPC   NC316427  30.733  11.348   9.450
 4362POPC   PO416428  30.705  11.258   9.150
 4362POPC   GL116429  30.659  11.337   8.850
 4362POPC   GL216430  30.640  11.168   8.850
 4362POPC   C1A16431  30.711  11.337   8.550
 4362POPC   D2A16432  30.723  11.301   8.250
 4362POPC   C3A16433  30.739  11.264   7.950
 4362POPC   C4A16434  30.737  11.289   7.650
 4362POPC   C1B16435  30.546  11.101   8.550
 4362POPC   C2B16436  30.594  11.078   8.250
 4362POPC   C3B16437  30.580  11.124   7.950
 4362POPC   C4B16438  30.612  11.097   7.650
 4363POPC   NC316439   5.096  10.564   9.450
 4363POPC   PO416440   5.095  10.531   9.150
 4363POPC   GL116441   5.115  10.541   8.850
 4363POPC   GL216442   5.002  10.458   8.850
 4363POPC   C1A16443   5.133  10.519   8.550
 4363POPC   D2A16444   5.092  10.529   8.250
 4363POPC   C3A16445   5.070  10.521   7.950
 4363POPC   C4A16446   5.068  10.494   7.650
 4363POPC   C1B16447   4.838  10.445   8.550
 4363POPC   C2B16448   4.896  10.391   8.250
 4363POPC   C3B16449   4.831  10.441   7.950
 4363POPC   C4B16450   4.857  10.435   7.650
 4364POPC   NC316451   1.234  21.409   9.450
 4364POPC   PO416452   1.179  21.339   9.150
 4364POPC   GL116453   1.192  21.426   8.850
 4364POPC   GL216454   1.324  21.282   8.850
 4364POPC   C1A16455   1.255  21.352   8.550
 4364POPC   D2A16456   1.229  21.378   8.250
 4364POPC   C3A16457   1.185  21.420   7.950
 4364POPC   C4A16458   1.220  21.380   7.650
 4364POPC   C1B16459   1.399  21.218   8.550
 4364POPC   C2B16460   1.443  21.263   8.250
 4364POPC   C3B16461   1.410  21.191   7.950
 4364POPC   C4B16462   1.446  21.178   7.650
 4365POPC   NC316463  13.578  27.631   9.450
 4365POPC   PO416464  13.613  27.571   9.150
 4365POPC   GL116465  13.612  27.606   8.850
 4365POPC   GL216466  13.534  27.485   8.850
 4365POPC   C1A16467  13.593  27.639   8.550
 4365POPC   D2A16468  13.589  27.555   8.250
 4365POPC   C3A16469  13.626  27.572   7.950
 4365POPC   C4A16470  13.667  27.572   7.650
 4365POPC   C1B16471  13.499  27.337   8.550
 4365POPC   C2B16472  13.512  27.370   8.250
 4365POPC   C3B16473  13.539  27.423   7.950
 4365POPC   C4B16474  13.517  27.428   7.650
 4366POPC   NC316475  19.852  12.086   9.450
 4366POPC   PO416476  19.859  12.073   9.150
 4366POPC   GL116477  19.787  12.097   8.850
 4366POPC   GL216478  19.888  11.952   8.850
 4366POPC   C1A16479  19.792  12.050   8.550
 4366POPC   D2A16480  19.803  12.119   8.250
 4366POPC   C3A16481  19.866  12.037   7.950
 4366POPC   C4A16482  19.838  12.074   7.650
 4366POPC   C1B16483  19.908  11.795   8.550
 4366POPC   C2B16484  19.943  11.866   8.250
 4366POPC   C3B16485  19.923  11.871   7.950
 4366POPC   C4B16486  19.880  11.795   7.650
 4367POPC   NC316487  37.702  18.306   9.450
 4367POPC   PO416488  37.687  18.281   9.150
 4367POPC   GL116489  37.648  18.288   8.850
 4367POPC   GL216490  37.605  18.153   8.850
 4367POPC   C1A16491  37.704  18.291   8.550
 4367POPC   D2A16492  37.718  18.287   8.250
 4367POPC   C3A16493  37.648  18.258   7.950
 4367POPC   C4A16494  37.694  18.273   7.650
 4367POPC   C1B16495  37.620  18.051   8.550
 4367POPC   C2B16496  37.559  18.085   8.250
 4367POPC   C3B16497  37.627  18.073   7.950
 4367POPC   C4B16498  37.614  18.061   7.650
 4368POPC   NC316499   8.211  31.461   9.450
 4368POPC   PO416500   8.177  31.491   9.150
 4368POPC   GL116501   8.163  31.446   8.850
 4368POPC   GL216502   8.096  31.547   8.850
 4368POPC   C1A16503   8.219  31.469   8.550
 4368POPC   D2A16504   8.202  31.514   8.250
 4368POPC   C3A16505   8.164  31.444   7.950
 4368POPC   C4A16506   8.222  31.502   7.650
 4368POPC   C1B16507   8.039  31.597   8.550
 4368POPC   C2B16508   8.016  31.625   8.250
 4368POPC   C3B16509   7.977  31.611   7.950
 4368POPC   C4B16510   7.977  31.667   7.650
 4369POPC   NC316511   5.825  16.758   9.450
 4369POPC   PO416512   5.894  16.686   9.150
 4369POPC   GL116513   5.842  16.704   8.850
 4369POPC   GL216514   5.747  16.697   8.850
 4369POPC   C1A16515   5.914  16.724   8.550
 4369POPC   D2A16516   5.910  16.688   8.250
 4369POPC   C3A16517   5.832  16.685   7.950
 4369POPC   C4A16518   5.905  16.748   7.650
 4369POPC   C1B16519   5.628  16.651   8.550
 4369POPC   C2B16520   5.618  16.653   8.250
 4369POPC   C3B16521   5.639  16.628   7.950
 4369POPC   C4B16522   5.640  16.666   7.650
 4370POPC   NC316523  32.274  12.112   9.450
 4370POPC   PO416524  32.236  12.029   9.150
 4370POPC   GL116525  32.298  12.063   8.850
 4370POPC   GL216526  32.288  11.938   8.850
 4370POPC   C1A16527  32.236  12.035   8.550
 4370POPC   D2A16528  32.233  12.089   8.250
 4370POPC   C3A16529  32.241  12.045   7.950
 4370POPC   C4A16530  32.244  12.072   7.650
 4370POPC   C1B16531  32.236  11.800   8.550
 4370POPC   C2B16532  32.276  11.801   8.250
 4370POPC   C3B16533  32.250  11.794   7.950
 4370POPC   C4B16534  32.211  11.853   7.650
 4371POPC   NC316535   9.769   8.208   9.450
 4371POPC   PO416536   9.711   8.218   9.150
 4371POPC   GL116537   9.784   8.158   8.850
 4371POPC   GL216538   9.696   8.093   8.850
 4371POPC   C1A16539   9.730   8.188   8.550
 4371POPC   D2A16540   9.705   8.241   8.250
 4371POPC   C3A16541   9.708   8.159   7.950
 4371POPC   C4A16542   9.743   8.221   7.650
 4371POPC   C1B16543   9.566   7.994   8.550
 4371POPC   C2B16544   9.615   7.982   8.250
 4371POPC   C3B16545   9.613   7.999   7.950
 4371POPC   C4B16546   9.549   7.980   7.650
 4372POPC   NC316547  32.297  40.770   9.450
 4372POPC   PO416548  32.242  40.783   9.150
 4372POPC   GL116549  32.263  40.794   8.850
 4372POPC   GL216550  32.177  40.735   8.850
 4372POPC   C1A16551  32.233  40.812   8.550
 4372POPC   D2A16552  32.215  40.799   8.250
 4372POPC   C3A16553  32.207  40.806   7.950
 4372POPC   C4A16554  32.243  40.826   7.650
 4372POPC   C1B16555  32.062  40.678   8.550
 4372POPC   C2B16556  32.016  40.655   8.250
 4372POPC   C3B16557  32.026  40.693   7.950
 4372POPC   C4B16558  32.043  40.662   7.650
 4373POPC   NC316559  36.854  39.984   9.450
 4373POPC   PO416560  36.881  39.977   9.150
 4373POPC   GL116561  36.898  40.003   8.850
 4373POPC   GL216562  36.955  39.887   8.850
 4373POPC   C1A16563  36.904  39.992   8.550
 4373POPC   D2A16564  36.944  40.048   8.250
 4373POPC   C3A16565  36.911  40.052   7.950
 4373POPC   C4A16566  36.871  39.988   7.650
 4373POPC   C1B16567  37.102  39.773   8.550
 4373POPC   C2B16568  37.027  39.764   8.250
 4373POPC   C3B16569  37.026  39.768   7.950
 4373POPC   C4B16570  37.036  39.837   7.650
 4374POPC   NC316571  20.655  34.554   9.450
 4374POPC   PO416572  20.593  34.597   9.150
 4374POPC   GL116573  20.639  34.527   8.850
 4374POPC   GL216574  20.670  34.527   8.850
 4374POPC   C1A16575  20.635  34.613   8.550
 4374POPC   D2A16576  20.620  34.614   8.250
 4374POPC   C3A16577  20.658  34.608   7.950
 4374POPC   C4A16578  20.595  34.594   7.650
 4374POPC   C1B16579  20.790  34.392   8.550
 4374POPC   C2B16580  20.790  34.353   8.250
 4374POPC   C3B16581  20.827  34.358   7.950
 4374POPC   C4B16582  20.813  34.437   7.650
 4375POPC   NC316583  10.537  13.660   9.450
 4375POPC   PO416584  10.560  13.591   9.150
 4375POPC   GL116585  10.481  13.635   8.850
 4375POPC   GL216586  10.633  13.705   8.850
 4375POPC   C1A16587  10.558  13.658   8.550
 4375POPC   D2A16588  10.527  13.624   8.250
 4375POPC   C3A16589  10.494  13.609   7.950
 4375POPC   C4A16590  10.515  13.600   7.650
 4375POPC   C1B16591  10.775  13.683   8.550
 4375POPC   C2B16592  10.716  13.681   8.250
 4375POPC   C3B16593  10.742  13.704   7.950
 4375POPC   C4B16594  10.802  13.744   7.650
 4376POPC   NC316595   2.740  24.535   9.450
 4376POPC   PO416596   2.759  24.496   9.150
 4376POPC   GL116597   2.772  24.519   8.850
 4376POPC   GL216598   2.762  24.342   8.850
 4376POPC   C1A16599   2.771  24.509   8.550
 4376POPC   D2A16600   2.789  24.527   8.250
 4376POPC   C3A16601   2.753  24.533   7.950
 4376POPC   C4A16602   2.746  24.530   7.650
 4376POPC   C1B16603   2.758  24.211   8.550
 4376POPC   C2B16604   2.693  24.237   8.250
 4376POPC   C3B16605   2.710  24.238   7.950
 4376POPC   C4B16606   2.723  24.280   7.650
 4377POPC   NC316607  24.448  33.776   9.450
 4377POPC   PO416608  24.442  33.845   9.150
 4377POPC   GL116609  24.532  33.764   8.850
 4377POPC   GL216610  24.555  33.865   8.850
 4377POPC   C1A16611  24.504  33.813   8.550
 4377POPC   D2A16612  24.505  33.840   8.250
 4377POPC   C3A16613  24.503  33.795   7.950
 4377POPC   C4A16614  24.487  33.836   7.650
 4377POPC   C1B16615  24.763  33.896   8.550
 4377POPC   C2B16616  24.671  33.924   8.250
 4377POPC   C3B16617  24.738  33.861   7.950
 4377POPC   C4B16618  24.691  33.942   7.650
 4378POPC   NC316619   9.701  35.394   9.450
 4378POPC   PO416620   9.794  35.371   9.150
 4378POPC   GL116621   9.757  35.347   8.850
 4378POPC   GL216622   9.720  35.276   8.850
 4378POPC   C1A16623   9.726  35.324   8.550
 4378POPC   D2A16624   9.770  35.321   8.250
 4378POPC   C3A16625   9.784  35.363   7.950
 4378POPC   C4A16626   9.731  35.308   7.650
 4378POPC   C1B16627   9.775  35.136   8.550
 4378POPC   C2B16628   9.782  35.085   8.250
 4378POPC   C3B16629   9.743  35.054   7.950
 4378POPC   C4B16630   9.761  35.068   7.650
 4379POPC   NC316631  32.213  38.455   9.450
 4379POPC   PO416632  32.221  38.471   9.150
 4379POPC   GL116633  32.280  38.419   8.850
 4379POPC   GL216634  32.121  38.454   8.850
 4379POPC   C1A16635  32.296  38.417   8.550
 4379POPC   D2A16636  32.240  38.500   8.250
 4379POPC   C3A16637  32.283  38.420   7.950
 4379POPC   C4A16638  32.212  38.453   7.650
 4379POPC   C1B16639  32.032  38.364   8.550
 4379POPC   C2B16640  31.979  38.383   8.250
 4379POPC   C3B16641  31.983  38.339   7.950
 4379POPC   C4B16642  31.971  38.432   7.650
 4380POPC   NC316643   5.122   8.997   9.450
 4380POPC   PO416644   5.069   9.006   9.150
 4380POPC   GL116645   5.104   8.945   8.850
 4380POPC   GL216646   4.971   9.012   8.850
 4380POPC   C1A16647   5.052   9.009   8.550
 4380POPC   D2A16648   5.109   8.988   8.250
 4380POPC   C3A16649   5.097   8.971   7.950
 4380POPC   C4A16650   5.051   9.007   7.650
 4380POPC   C1B16651   4.851   9.015   8.550
 4380POPC   C2B16652   4.887   9.062   8.250
 4380POPC   C3B16653   4.830   9.077   7.950
 4380POPC   C4B16654   4.884   9.091   7.650
 4381POPC   NC316655  22.119  14.431   9.450
 4381POPC   PO416656  22.193  14.362   9.150
 4381POPC   GL116657  22.113  14.397   8.850
 4381POPC   GL216658  22.041  14.282   8.850
 4381POPC   C1A16659  22.194  14.362   8.550
 4381POPC   D2A16660  22.142  14.380   8.250
 4381POPC   C3A16661  22.114  14.430   7.950
 4381POPC   C4A16662  22.145  14.445   7.650
 4381POPC   C1B16663  21.979  14.309   8.550
 4381POPC   C2B16664  21.908  14.305   8.250
 4381POPC   C3B16665  21.963  14.221   7.950
 4381POPC   C4B16666  21.911  14.213   7.650
 4382POPC   NC316667  29.888  24.518   9.450
 4382POPC   PO416668  29.889  24.497   9.150
 4382POPC   GL116669  29.900  24.536   8.850
 4382POPC   GL216670  29.825  24.358   8.850
 4382POPC   C1A16671  29.915  24.521   8.550
 4382POPC   D2A16672  29.946  24.468   8.250
 4382POPC   C3A16673  29.942  24.521   7.950
 4382POPC   C4A16674  29.893  24.445   7.650
 4382POPC   C1B16675  29.767  24.250   8.550
 4382POPC   C2B16676  29.797  24.298   8.250
 4382POPC   C3B16677  29.778  24.251   7.950
 4382POPC   C4B16678  29.784  24.289   7.650
 4383POPC   NC316679  25.221   4.306   9.450
 4383POPC   PO416680  25.309   4.317   9.150
 4383POPC   GL116681  25.315   4.328   8.850
 4383POPC   GL216682  25.138   4.231   8.850
 4383POPC   C1A16683  25.256   4.292   8.550
 4383POPC   D2A16684  25.292   4.357   8.250
 4383POPC   C3A16685  25.264   4.313   7.950
 4383POPC   C4A16686  25.314   4.330   7.650
 4383POPC   C1B16687  25.119   4.125   8.550
 4383POPC   C2B16688  25.111   4.091   8.250
 4383POPC   C3B16689  25.054   4.106   7.950
 4383POPC   C4B16690  25.078   4.149   7.650
 4384POPC   NC316691   2.808  33.789   9.450
 4384POPC   PO416692   2.731  33.774   9.150
 4384POPC   GL116693   2.779  33.848   8.850
 4384POPC   GL216694   2.913  33.894   8.850
 4384POPC   C1A16695   2.726  33.756   8.550
 4384POPC   D2A16696   2.798  33.849   8.250
 4384POPC   C3A16697   2.739  33.816   7.950
 4384POPC   C4A16698   2.784  33.839   7.650
 4384POPC   C1B16699   3.010  33.966   8.550
 4384POPC   C2B16700   2.956  33.989   8.250
 4384POPC   C3B16701   2.956  33.929   7.950
 4384POPC   C4B16702   3.006  33.938   7.650
 4385POPC   NC316703  41.594  26.865   9.450
 4385POPC   PO416704  41.590  26.859   9.150
 4385POPC   GL116705  41.558  26.807   8.850
 4385POPC   GL216706  41.708  26.805   8.850
 4385POPC   C1A16707  41.549  26.831   8.550
 4385POPC   D2A16708  41.509  26.840   8.250
 4385POPC   C3A16709  41.533  26.801   7.950
 4385POPC   C4A16710  41.582  26.843   7.650
 4385POPC   C1B16711  41.775  26.794   8.550
 4385POPC   C2B16712  41.811  26.792   8.250
 4385POPC   C3B16713  41.856  26.791   7.950
 4385POPC   C4B16714  41.814  26.785   7.650
 4386POPC   NC316715  33.048  44.646   9.450
 4386POPC   PO416716  32.994  44.701   9.150
 4386POPC   GL116717  33.067  44.647   8.850
 4386POPC   GL216718  32.937  44.720   8.850
 4386POPC   C1A16719  33.013  44.673   8.550
 4386POPC   D2A16720  33.027  44.680   8.250
 4386POPC   C3A16721  32.995  44.685   7.950
 4386POPC   C4A16722  32.975  44.693   7.650
 4386POPC   C1B16723  32.824  44.846   8.550
 4386POPC   C2B16724  32.883  44.841   8.250
 4386POPC   C3B16725  32.871  44.857   7.950
 4386POPC   C4B16726  32.821  44.865   7.650
 4387POPC   NC316727   3.575  11.277   9.450
 4387POPC   PO416728   3.543  11.252   9.150
 4387POPC   GL116729   3.556  11.253   8.850
 4387POPC   GL216730   3.516  11.226   8.850
 4387POPC   C1A16731   3.505  11.327   8.550
 4387POPC   D2A16732   3.500  11.276   8.250
 4387POPC   C3A16733   3.523  11.331   7.950
 4387POPC   C4A16734   3.540  11.313   7.650
 4387POPC   C1B16735   3.542  11.097   8.550
 4387POPC   C2B16736   3.551  11.063   8.250
 4387POPC   C3B16737   3.538  11.073   7.950
 4387POPC   C4B16738   3.568  11.049   7.650
 4388POPC   NC316739  29.117  44.644   9.450
 4388POPC   PO416740  29.153  44.656   9.150
 4388POPC   GL116741  29.131  44.631   8.850
 4388POPC   GL216742  29.073  44.758   8.850
 4388POPC   C1A16743  29.168  44.668   8.550
 4388POPC   D2A16744  29.120  44.666   8.250
 4388POPC   C3A16745  29.102  44.616   7.950
 4388POPC   C4A16746  29.100  44.618   7.650
 4388POPC   C1B16747  28.966  44.733   8.550
 4388POPC   C2B16748  28.924  44.787   8.250
 4388POPC   C3B16749  28.889  44.795   7.950
 4388POPC   C4B16750  28.939  44.782   7.650
 4389POPC   NC316751  10.518   6.692   9.450
 4389POPC   PO416752  10.500   6.668   9.150
 4389POPC   GL116753  10.487   6.686   8.850
 4389POPC   GL216754  10.512   6.747   8.850
 4389POPC   C1A16755  10.562   6.624   8.550
 4389POPC   D2A16756  10.496   6.605   8.250
 4389POPC   C3A16757  10.526   6.671   7.950
 4389POPC   C4A16758  10.481   6.596   7.650
 4389POPC   C1B16759  10.626   6.925   8.550
 4389POPC   C2B16760  10.614   6.925   8.250
 4389POPC   C3B16761  10.610   6.900   7.950
 4389POPC   C4B16762  10.633   6.910   7.650
 4390POPC   NC316763  33.763  13.668   9.450
 4390POPC   PO416764  33.757  13.628   9.150
 4390POPC   GL116765  33.794  13.607   8.850
 4390POPC   GL216766  33.768  13.690   8.850
 4390POPC   C1A16767  33.817  13.629   8.550
 4390POPC   D2A16768  33.795  13.674   8.250
 4390POPC   C3A16769  33.803  13.671   7.950
 4390POPC   C4A16770  33.769  13.644   7.650
 4390POPC   C1B16771  33.652  13.861   8.550
 4390POPC   C2B16772  33.609  13.848   8.250
 4390POPC   C3B16773  33.682  13.854   7.950
 4390POPC   C4B16774  33.622  13.851   7.650
 4391POPC   NC316775  34.560  40.771   9.450
 4391POPC   PO416776  34.548  40.768   9.150
 4391POPC   GL116777  34.598  40.801   8.850
 4391POPC   GL216778  34.453  40.719   8.850
 4391POPC   C1A16779  34.585  40.790   8.550
 4391POPC   D2A16780  34.538  40.829   8.250
 4391POPC   C3A16781  34.573  40.771   7.950
 4391POPC   C4A16782  34.530  40.802   7.650
 4391POPC   C1B16783  34.378  40.597   8.550
 4391POPC   C2B16784  34.431  40.603   8.250
 4391POPC   C3B16785  34.417  40.653   7.950
 4391POPC   C4B16786  34.398  40.581   7.650
 4392POPC   NC316787  43.861  40.000   9.450
 4392POPC   PO416788  43.876  40.023   9.150
 4392POPC   GL116789  43.883  40.013   8.850
 4392POPC   GL216790  44.027  40.055   8.850
 4392POPC   C1A16791  43.867  39.973   8.550
 4392POPC   D2A16792  43.911  40.054   8.250
 4392POPC   C3A16793  43.839  39.971   7.950
 4392POPC   C4A16794  43.836  40.028   7.650
 4392POPC   C1B16795  44.088  40.159   8.550
 4392POPC   C2B16796  44.082  40.158   8.250
 4392POPC   C3B16797  44.091  40.167   7.950
 4392POPC   C4B16798  44.035  40.197   7.650
 4393POPC   NC316799  20.603   8.170   9.450
 4393POPC   PO416800  20.622   8.224   9.150
 4393POPC   GL116801  20.565   8.199   8.850
 4393POPC   GL216802  20.580   8.352   8.850
 4393POPC   C1A16803  20.588   8.154   8.550
 4393POPC   D2A16804  20.567   8.150   8.250
 4393POPC   C3A16805  20.644   8.163   7.950
 4393POPC   C4A16806  20.590   8.189   7.650
 4393POPC   C1B16807  20.514   8.457   8.550
 4393POPC   C2B16808  20.503   8.446   8.250
 4393POPC   C3B16809  20.449   8.420   7.950
 4393POPC   C4B16810  20.458   8.417   7.650
 4394POPC   NC316811  40.744  44.711   9.450
 4394POPC   PO416812  40.787  44.650   9.150
 4394POPC   GL116813  40.780  44.671   8.850
 4394POPC   GL216814  40.919  44.559   8.850
 4394POPC   C1A16815  40.800  44.687   8.550
 4394POPC   D2A16816  40.759  44.674   8.250
 4394POPC   C3A16817  40.740  44.703   7.950
 4394POPC   C4A16818  40.832  44.617   7.650
 4394POPC   C1B16819  40.984  44.532   8.550
 4394POPC   C2B16820  40.929  44.521   8.250
 4394POPC   C3B16821  41.009  44.468   7.950
 4394POPC   C4B16822  40.988  44.476   7.650
 4395POPC   NC316823  38.459  25.308   9.450
 4395POPC   PO416824  38.497  25.283   9.150
 4395POPC   GL116825  38.472  25.259   8.850
 4395POPC   GL216826  38.522  25.334   8.850
 4395POPC   C1A16827  38.416  25.302   8.550
 4395POPC   D2A16828  38.428  25.245   8.250
 4395POPC   C3A16829  38.448  25.240   7.950
 4395POPC   C4A16830  38.486  25.314   7.650
 4395POPC   C1B16831  38.603  25.496   8.550
 4395POPC   C2B16832  38.608  25.515   8.250
 4395POPC   C3B16833  38.641  25.460   7.950
 4395POPC   C4B16834  38.604  25.472   7.650
 4396POPC   NC316835  25.288  16.709   9.450
 4396POPC   PO416836  25.273  16.735   9.150
 4396POPC   GL116837  25.262  16.707   8.850
 4396POPC   GL216838  25.190  16.617   8.850
 4396POPC   C1A16839  25.227  16.741   8.550
 4396POPC   D2A16840  25.221  16.701   8.250
 4396POPC   C3A16841  25.249  16.739   7.950
 4396POPC   C4A16842  25.257  16.688   7.650
 4396POPC   C1B16843  25.195  16.446   8.550
 4396POPC   C2B16844  25.224  16.458   8.250
 4396POPC   C3B16845  25.233  16.462   7.950
 4396POPC   C4B16846  25.181  16.468   7.650
 4397POPC   NC316847  29.913  34.580   9.450
 4397POPC   PO416848  29.883  34.613   9.150
 4397POPC   GL116849  29.909  34.622   8.850
 4397POPC   GL216850  29.887  34.664   8.850
 4397POPC   C1A16851  29.907  34.573   8.550
 4397POPC   D2A16852  29.890  34.554   8.250
 4397POPC   C3A16853  29.889  34.534   7.950
 4397POPC   C4A16854  29.878  34.582   7.650
 4397POPC   C1B16855  29.988  34.847   8.550
 4397POPC   C2B16856  29.943  34.775   8.250
 4397POPC   C3B16857  29.899  34.859   7.950
 4397POPC   C4B16858  29.926  34.866   7.650
 4398POPC   NC316859  36.913  27.617   9.450
 4398POPC   PO416860  36.902  27.626   9.150
 4398POPC   GL116861  36.899  27.590   8.850
 4398POPC   GL216862  36.972  27.686   8.850
 4398POPC   C1A16863  36.925  27.574   8.550
 4398POPC   D2A16864  36.879  27.618   8.250
 4398POPC   C3A16865  36.884  27.578   7.950
 4398POPC   C4A16866  36.938  27.579   7.650
 4398POPC   C1B16867  37.113  27.680   8.550
 4398POPC   C2B16868  37.153  27.699   8.250
 4398POPC   C3B16869  37.104  27.691   7.950
 4398POPC   C4B16870  37.098  27.774   7.650
 4399POPC   NC316871  11.255  24.510   9.450
 4399POPC   PO416872  11.320  24.466   9.150
 4399POPC   GL116873  11.277  24.441   8.850
 4399POPC   GL216874  11.456  24.493   8.850
 4399POPC   C1A16875  11.278  24.442   8.550
 4399POPC   D2A16876  11.257  24.499   8.250
 4399POPC   C3A16877  11.282  24.508   7.950
 4399POPC   C4A16878  11.264  24.536   7.650
 4399POPC   C1B16879  11.513  24.442   8.550
 4399POPC   C2B16880  11.531  24.479   8.250
 4399POPC   C3B16881  11.595  24.460   7.950
 4399POPC   C4B16882  11.582  24.419   7.650
 4400POPC   NC316883  16.741  39.993   9.450
 4400POPC   PO416884  16.750  39.982   9.150
 4400POPC   GL116885  16.752  39.964   8.850
 4400POPC   GL216886  16.883  39.963   8.850
 4400POPC   C1A16887  16.702  39.978   8.550
 4400POPC   D2A16888  16.778  40.007   8.250
 4400POPC   C3A16889  16.697  39.999   7.950
 4400POPC   C4A16890  16.780  39.981   7.650
 4400POPC   C1B16891  16.940  39.987   8.550
 4400POPC   C2B16892  16.967  39.994   8.250
 4400POPC   C3B16893  16.963  39.963   7.950
 4400POPC   C4B16894  16.960  39.988   7.650
 4401POPC   NC316895  29.162  19.836   9.450
 4401POPC   PO416896  29.131  19.837   9.150
 4401POPC   GL116897  29.119  19.859   8.850
 4401POPC   GL216898  29.135  19.674   8.850
 4401POPC   C1A16899  29.112  19.861   8.550
 4401POPC   D2A16900  29.128  19.859   8.250
 4401POPC   C3A16901  29.175  19.857   7.950
 4401POPC   C4A16902  29.161  19.860   7.650
 4401POPC   C1B16903  29.155  19.535   8.550
 4401POPC   C2B16904  29.125  19.596   8.250
 4401POPC   C3B16905  29.121  19.594   7.950
 4401POPC   C4B16906  29.175  19.626   7.650
 4402POPC   NC316907  37.660  30.739   9.450
 4402POPC   PO416908  37.707  30.682   9.150
 4402POPC   GL116909  37.642  30.712   8.850
 4402POPC   GL216910  37.771  30.619   8.850
 4402POPC   C1A16911  37.664  30.729   8.550
 4402POPC   D2A16912  37.675  30.741   8.250
 4402POPC   C3A16913  37.658  30.676   7.950
 4402POPC   C4A16914  37.674  30.698   7.650
 4402POPC   C1B16915  37.865  30.567   8.550
 4402POPC   C2B16916  37.827  30.570   8.250
 4402POPC   C3B16917  37.855  30.494   7.950
 4402POPC   C4B16918  37.905  30.560   7.650
 4403POPC   NC316919  17.482   3.584   9.450
 4403POPC   PO416920  17.555   3.544   9.150
 4403POPC   GL116921  17.509   3.516   8.850
 4403POPC   GL216922  17.548   3.429   8.850
 4403POPC   C1A16923  17.536   3.505   8.550
 4403POPC   D2A16924  17.521   3.573   8.250
 4403POPC   C3A16925  17.522   3.567   7.950
 4403POPC   C4A16926  17.511   3.500   7.650
 4403POPC   C1B16927  17.607   3.317   8.550
 4403POPC   C2B16928  17.585   3.282   8.250
 4403POPC   C3B16929  17.591   3.327   7.950
 4403POPC   C4B16930  17.573   3.326   7.650
 4404POPC   NC316931   2.022  28.396   9.450
 4404POPC   PO416932   1.956  28.375   9.150
 4404POPC   GL116933   2.014  28.330   8.850
 4404POPC   GL216934   1.865  28.451   8.850
 4404POPC   C1A16935   2.006  28.387   8.550
 4404POPC   D2A16936   2.034  28.415   8.250
 4404POPC   C3A16937   2.008  28.408   7.950
 4404POPC   C4A16938   2.030  28.330   7.650
 4404POPC   C1B16939   1.790  28.574   8.550
 4404POPC   C2B16940   1.786  28.538   8.250
 4404POPC   C3B16941   1.837  28.569   7.950
 4404POPC   C4B16942   1.750  28.515   7.650
 4405POPC   NC316943  44.664  30.688   9.450
 4405POPC   PO416944  44.640  30.739   9.150
 4405POPC   GL116945  44.711  30.736   8.850
 4405POPC   GL216946  44.574  30.750   8.850
 4405POPC   C1A16947  44.634  30.714   8.550
 4405POPC   D2A16948  44.649  30.695   8.250
 4405POPC   C3A16949  44.705  30.667   7.950
 4405POPC   C4A16950  44.678  30.744   7.650
 4405POPC   C1B16951  44.441  30.754   8.550
 4405POPC   C2B16952  44.372  30.761   8.250
 4405POPC   C3B16953  44.395  30.772   7.950
 4405POPC   C4B16954  44.420  30.776   7.650
 4406POPC   NC316955  23.684  32.248   9.450
 4406POPC   PO416956  23.694  32.262   9.150
 4406POPC   GL116957  23.748  32.279   8.850
 4406POPC   GL216958  23.643  32.360   8.850
 4406POPC   C1A16959  23.725  32.261   8.550
 4406POPC   D2A16960  23.668  32.256   8.250
 4406POPC   C3A16961  23.755  32.200   7.950
 4406POPC   C4A16962  23.705  32.296   7.650
 4406POPC   C1B16963  23.460  32.353   8.550
 4406POPC   C2B16964  23.543  32.425   8.250
 4406POPC   C3B16965  23.469  32.374   7.950
 4406POPC   C4B16966  23.522  32.332   7.650
 4407POPC   NC316967  40.813  17.524   9.450
 4407POPC   PO416968  40.753  17.463   9.150
 4407POPC   GL116969  40.829  17.494   8.850
 4407POPC   GL216970  40.909  17.461   8.850
 4407POPC   C1A16971  40.751  17.509   8.550
 4407POPC   D2A16972  40.801  17.539   8.250
 4407POPC   C3A16973  40.824  17.506   7.950
 4407POPC   C4A16974  40.821  17.517   7.650
 4407POPC   C1B16975  40.991  17.354   8.550
 4407POPC   C2B16976  40.964  17.366   8.250
 4407POPC   C3B16977  40.996  17.382   7.950
 4407POPC   C4B16978  40.956  17.309   7.650
 4408POPC   NC316979  23.750  27.593   9.450
 4408POPC   PO416980  23.738  27.630   9.150
 4408POPC   GL116981  23.759  27.564   8.850
 4408POPC   GL216982  23.556  27.634   8.850
 4408POPC   C1A16983  23.738  27.570   8.550
 4408POPC   D2A16984  23.688  27.631   8.250
 4408POPC   C3A16985  23.715  27.640   7.950
 4408POPC   C4A16986  23.719  27.638   7.650
 4408POPC   C1B16987  23.464  27.639   8.550
 4408POPC   C2B16988  23.442  27.557   8.250
 4408POPC   C3B16989  23.492  27.591   7.950
 4408POPC   C4B16990  23.437  27.620   7.650
 4409POPC   NC316991  26.852  21.404   9.450
 4409POPC   PO416992  26.776  21.399   9.150
 4409POPC   GL116993  26.826  21.354   8.850
 4409POPC   GL216994  26.907  21.320   8.850
 4409POPC   C1A16995  26.853  21.351   8.550
 4409POPC   D2A16996  26.790  21.344   8.250
 4409POPC   C3A16997  26.853  21.428   7.950
 4409POPC   C4A16998  26.826  21.367   7.650
 4409POPC   C1B16999  26.992  21.241   8.550
 4409POPC   C2B17000  26.953  21.198   8.250
 4409POPC   C3B17001  27.000  21.209   7.950
 4409POPC   C4B17002  27.001  21.163   7.650
 4410POPC   NC317003  19.095  19.787   9.450
 4410POPC   PO417004  19.045  19.869   9.150
 4410POPC   GL117005  19.053  19.836   8.850
 4410POPC   GL217006  19.158  19.890   8.850
 4410POPC   C1A17007  19.022  19.801   8.550
 4410POPC   D2A17008  19.065  19.858   8.250
 4410POPC   C3A17009  19.055  19.845   7.950
 4410POPC   C4A17010  19.016  19.861   7.650
 4410POPC   C1B17011  19.290  19.954   8.550
 4410POPC   C2B17012  19.247  19.972   8.250
 4410POPC   C3B17013  19.250  19.953   7.950
 4410POPC   C4B17014  19.224  19.930   7.650
 4411POPC   NC317015  29.194   9.019   9.450
 4411POPC   PO417016  29.103   9.012   9.150
 4411POPC   GL117017  29.195   9.005   8.850
 4411POPC   GL217018  29.302   8.924   8.850
 4411POPC   C1A17019  29.122   9.015   8.550
 4411POPC   D2A17020  29.175   8.969   8.250
 4411POPC   C3A17021  29.115   8.924   7.950
 4411POPC   C4A17022  29.144   9.019   7.650
 4411POPC   C1B17023  29.420   8.940   8.550
 4411POPC   C2B17024  29.352   9.005   8.250
 4411POPC   C3B17025  29.390   9.002   7.950
 4411POPC   C4B17026  29.380   8.943   7.650
 4412POPC   NC317027   9.742  19.829   9.450
 4412POPC   PO417028   9.787  19.884   9.150
 4412POPC   GL117029   9.706  19.831   8.850
 4412POPC   GL217030   9.628  19.731   8.850
 4412POPC   C1A17031   9.714  19.883   8.550
 4412POPC   D2A17032   9.710  19.789   8.250
 4412POPC   C3A17033   9.707  19.824   7.950
 4412POPC   C4A17034   9.736  19.850   7.650
 4412POPC   C1B17035   9.570  19.657   8.550
 4412POPC   C2B17036   9.572  19.625   8.250
 4412POPC   C3B17037   9.549  19.625   7.950
 4412POPC   C4B17038   9.559  19.707   7.650
 4413POPC   NC317039  39.992  29.106   9.450
 4413POPC   PO417040  40.054  29.181   9.150
 4413POPC   GL117041  39.981  29.131   8.850
 4413POPC   GL217042  40.109  29.226   8.850
 4413POPC   C1A17043  40.008  29.176   8.550
 4413POPC   D2A17044  40.008  29.166   8.250
 4413POPC   C3A17045  40.038  29.104   7.950
 4413POPC   C4A17046  40.006  29.120   7.650
 4413POPC   C1B17047  40.244  29.278   8.550
 4413POPC   C2B17048  40.249  29.266   8.250
 4413POPC   C3B17049  40.234  29.203   7.950
 4413POPC   C4B17050  40.206  29.286   7.650
 4414POPC   NC317051  29.899  38.460   9.450
 4414POPC   PO417052  29.956  38.496   9.150
 4414POPC   GL117053  29.895  38.427   8.850
 4414POPC   GL217054  29.861  38.297   8.850
 4414POPC   C1A17055  29.935  38.500   8.550
 4414POPC   D2A17056  29.932  38.465   8.250
 4414POPC   C3A17057  29.924  38.408   7.950
 4414POPC   C4A17058  29.894  38.494   7.650
 4414POPC   C1B17059  29.817  38.210   8.550
 4414POPC   C2B17060  29.794  38.273   8.250
 4414POPC   C3B17061  29.794  38.262   7.950
 4414POPC   C4B17062  29.826  38.205   7.650
 4415POPC   NC317063  15.192   9.015   9.450
 4415POPC   PO417064  15.136   8.979   9.150
 4415POPC   GL117065  15.193   8.936   8.850
 4415POPC   GL217066  15.099   8.878   8.850
 4415POPC   C1A17067  15.214   8.926   8.550
 4415POPC   D2A17068  15.131   9.004   8.250
 4415POPC   C3A17069  15.205   8.966   7.950
 4415POPC   C4A17070  15.171   8.971   7.650
 4415POPC   C1B17071  15.033   8.749   8.550
 4415POPC   C2B17072  15.055   8.789   8.250
 4415POPC   C3B17073  14.992   8.770   7.950
 4415POPC   C4B17074  14.984   8.786   7.650
 4416POPC   NC317075  29.125  41.596   9.450
 4416POPC   PO417076  29.109  41.584   9.150
 4416POPC   GL117077  29.181  41.604   8.850
 4416POPC   GL217078  29.154  41.447   8.850
 4416POPC   C1A17079  29.141  41.513   8.550
 4416POPC   D2A17080  29.161  41.544   8.250
 4416POPC   C3A17081  29.181  41.534   7.950
 4416POPC   C4A17082  29.114  41.528   7.650
 4416POPC   C1B17083  29.184  41.359   8.550
 4416POPC   C2B17084  29.193  41.309   8.250
 4416POPC   C3B17085  29.172  41.264   7.950
 4416POPC   C4B17086  29.206  41.309   7.650
 4417POPC   NC317087  29.963  19.802   9.450
 4417POPC   PO417088  29.881  19.882   9.150
 4417POPC   GL117089  29.885  19.872   8.850
 4417POPC   GL217090  29.856  19.703   8.850
 4417POPC   C1A17091  29.896  19.803   8.550
 4417POPC   D2A17092  29.952  19.832   8.250
 4417POPC   C3A17093  29.904  19.793   7.950
 4417POPC   C4A17094  29.903  19.810   7.650
 4417POPC   C1B17095  29.842  19.618   8.550
 4417POPC   C2B17096  29.832  19.583   8.250
 4417POPC   C3B17097  29.784  19.587   7.950
 4417POPC   C4B17098  29.825  19.558   7.650
 4418POPC   NC317099   2.733  26.784   9.450
 4418POPC   PO417100   2.779  26.817   9.150
 4418POPC   GL117101   2.755  26.842   8.850
 4418POPC   GL217102   2.632  26.736   8.850
 4418POPC   C1A17103   2.803  26.797   8.550
 4418POPC   D2A17104   2.778  26.814   8.250
 4418POPC   C3A17105   2.751  26.846   7.950
 4418POPC   C4A17106   2.752  26.827   7.650
 4418POPC   C1B17107   2.520  26.751   8.550
 4418POPC   C2B17108   2.488  26.749   8.250
 4418POPC   C3B17109   2.504  26.687   7.950
 4418POPC   C4B17110   2.561  26.698   7.650
 4419POPC   NC317111  22.923  37.696   9.450
 4419POPC   PO417112  22.948  37.698   9.150
 4419POPC   GL117113  22.890  37.655   8.850
 4419POPC   GL217114  22.838  37.619   8.850
 4419POPC   C1A17115  22.951  37.699   8.550
 4419POPC   D2A17116  22.930  37.655   8.250
 4419POPC   C3A17117  22.898  37.664   7.950
 4419POPC   C4A17118  22.986  37.717   7.650
 4419POPC   C1B17119  22.671  37.660   8.550
 4419POPC   C2B17120  22.680  37.673   8.250
 4419POPC   C3B17121  22.689  37.685   7.950
 4419POPC   C4B17122  22.655  37.691   7.650
 4420POPC   NC317123  29.115  13.592   9.450
 4420POPC   PO417124  29.187  13.661   9.150
 4420POPC   GL117125  29.156  13.612   8.850
 4420POPC   GL217126  29.075  13.728   8.850
 4420POPC   C1A17127  29.191  13.656   8.550
 4420POPC   D2A17128  29.166  13.674   8.250
 4420POPC   C3A17129  29.184  13.668   7.950
 4420POPC   C4A17130  29.118  13.592   7.650
 4420POPC   C1B17131  29.052  13.817   8.550
 4420POPC   C2B17132  29.071  13.879   8.250
 4420POPC   C3B17133  29.009  13.894   7.950
 4420POPC   C4B17134  29.002  13.861   7.650
 4421POPC   NC317135  41.510   8.186   9.450
 4421POPC   PO417136  41.540   8.151   9.150
 4421POPC   GL117137  41.605   8.220   8.850
 4421POPC   GL217138  41.421   8.165   8.850
 4421POPC   C1A17139  41.586   8.197   8.550
 4421POPC   D2A17140  41.608   8.241   8.250
 4421POPC   C3A17141  41.574   8.240   7.950
 4421POPC   C4A17142  41.588   8.216   7.650
 4421POPC   C1B17143  41.341   8.245   8.550
 4421POPC   C2B17144  41.351   8.173   8.250
 4421POPC   C3B17145  41.313   8.160   7.950
 4421POPC   C4B17146  41.351   8.218   7.650
 4422POPC   NC317147  34.611  28.401   9.450
 4422POPC   PO417148  34.614  28.369   9.150
 4422POPC   GL117149  34.579  28.381   8.850
 4422POPC   GL217150  34.458  28.330   8.850
 4422POPC   C1A17151  34.566  28.418   8.550
 4422POPC   D2A17152  34.603  28.345   8.250
 4422POPC   C3A17153  34.532  28.340   7.950
 4422POPC   C4A17154  34.592  28.404   7.650
 4422POPC   C1B17155  34.371  28.233   8.550
 4422POPC   C2B17156  34.364  28.206   8.250
 4422POPC   C3B17157  34.404  28.175   7.950
 4422POPC   C4B17158  34.372  28.201   7.650
 4423POPC   NC317159  31.465  30.675   9.450
 4423POPC   PO417160  31.512  30.707   9.150
 4423POPC   GL117161  31.461  30.728   8.850
 4423POPC   GL217162  31.450  30.791   8.850
 4423POPC   C1A17163  31.423  30.706   8.550
 4423POPC   D2A17164  31.467  30.666   8.250
 4423POPC   C3A17165  31.461  30.720   7.950
 4423POPC   C4A17166  31.515  30.744   7.650
 4423POPC   C1B17167  31.372  30.883   8.550
 4423POPC   C2B17168  31.388  30.879   8.250
 4423POPC   C3B17169  31.363  30.902   7.950
 4423POPC   C4B17170  31.340  30.936   7.650
 4424POPC   NC317171  10.479  43.916   9.450
 4424POPC   PO417172  10.561  43.884   9.150
 4424POPC   GL117173  10.517  43.858   8.850
 4424POPC   GL217174  10.424  43.965   8.850
 4424POPC   C1A17175  10.484  43.910   8.550
 4424POPC   D2A17176  10.552  43.886   8.250
 4424POPC   C3A17177  10.480  43.920   7.950
 4424POPC   C4A17178  10.515  43.909   7.650
 4424POPC   C1B17179  10.297  43.957   8.550
 4424POPC   C2B17180  10.305  43.995   8.250
 4424POPC   C3B17181  10.272  44.008   7.950
 4424POPC   C4B17182  10.328  44.052   7.650
 4425POPC   NC317183   4.275  40.733   9.450
 4425POPC   PO417184   4.341  40.791   9.150
 4425POPC   GL117185   4.324  40.748   8.850
 4425POPC   GL217186   4.270  40.652   8.850
 4425POPC   C1A17187   4.334  40.767   8.550
 4425POPC   D2A17188   4.342  40.756   8.250
 4425POPC   C3A17189   4.342  40.817   7.950
 4425POPC   C4A17190   4.355  40.825   7.650
 4425POPC   C1B17191   4.306  40.521   8.550
 4425POPC   C2B17192   4.272  40.567   8.250
 4425POPC   C3B17193   4.274  40.530   7.950
 4425POPC   C4B17194   4.341  40.546   7.650
 4426POPC   NC317195  33.027  33.804   9.450
 4426POPC   PO417196  33.040  33.771   9.150
 4426POPC   GL117197  33.035  33.770   8.850
 4426POPC   GL217198  33.049  33.641   8.850
 4426POPC   C1A17199  33.056  33.819   8.550
 4426POPC   D2A17200  33.032  33.818   8.250
 4426POPC   C3A17201  33.046  33.772   7.950
 4426POPC   C4A17202  33.029  33.767   7.650
 4426POPC   C1B17203  33.107  33.624   8.550
 4426POPC   C2B17204  33.155  33.536   8.250
 4426POPC   C3B17205  33.090  33.573   7.950
 4426POPC   C4B17206  33.104  33.579   7.650
 4427POPC   NC317207  23.737  29.144   9.450
 4427POPC   PO417208  23.732  29.101   9.150
 4427POPC   GL117209  23.736  29.100   8.850
 4427POPC   GL217210  23.755  29.223   8.850
 4427POPC   C1A17211  23.694  29.100   8.550
 4427POPC   D2A17212  23.671  29.095   8.250
 4427POPC   C3A17213  23.704  29.164   7.950
 4427POPC   C4A17214  23.669  29.171   7.650
 4427POPC   C1B17215  23.847  29.357   8.550
 4427POPC   C2B17216  23.809  29.364   8.250
 4427POPC   C3B17217  23.794  29.368   7.950
 4427POPC   C4B17218  23.836  29.349   7.650
 4428POPC   NC317219   6.656  14.397   9.450
 4428POPC   PO417220   6.674  14.384   9.150
 4428POPC   GL117221   6.637  14.364   8.850
 4428POPC   GL217222   6.505  14.379   8.850
 4428POPC   C1A17223   6.688  14.402   8.550
 4428POPC   D2A17224   6.651  14.387   8.250
 4428POPC   C3A17225   6.607  14.439   7.950
 4428POPC   C4A17226   6.655  14.447   7.650
 4428POPC   C1B17227   6.408  14.319   8.550
 4428POPC   C2B17228   6.414  14.300   8.250
 4428POPC   C3B17229   6.357  14.379   7.950
 4428POPC   C4B17230   6.410  14.373   7.650
 4429POPC   NC317231  35.333  11.253   9.450
 4429POPC   PO417232  35.312  11.283   9.150
 4429POPC   GL117233  35.379  11.314   8.850
 4429POPC   GL217234  35.255  11.282   8.850
 4429POPC   C1A17235  35.371  11.300   8.550
 4429POPC   D2A17236  35.395  11.321   8.250
 4429POPC   C3A17237  35.377  11.310   7.950
 4429POPC   C4A17238  35.357  11.288   7.650
 4429POPC   C1B17239  35.119  11.173   8.550
 4429POPC   C2B17240  35.166  11.131   8.250
 4429POPC   C3B17241  35.127  11.205   7.950
 4429POPC   C4B17242  35.152  11.214   7.650
 4430POPC   NC317243   3.570  19.858   9.450
 4430POPC   PO417244   3.538  19.856   9.150
 4430POPC   GL117245   3.520  19.803   8.850
 4430POPC   GL217246   3.504  19.967   8.850
 4430POPC   C1A17247   3.536  19.847   8.550
 4430POPC   D2A17248   3.559  19.828   8.250
 4430POPC   C3A17249   3.543  19.791   7.950
 4430POPC   C4A17250   3.566  19.805   7.650
 4430POPC   C1B17251   3.402  20.099   8.550
 4430POPC   C2B17252   3.426  20.063   8.250
 4430POPC   C3B17253   3.455  20.102   7.950
 4430POPC   C4B17254   3.435  20.052   7.650
 4431POPC   NC317255  30.666  31.479   9.450
 4431POPC   PO417256  30.656  31.461   9.150
 4431POPC   GL117257  30.682  31.484   8.850
 4431POPC   GL217258  30.844  31.515   8.850
 4431POPC   C1A17259  30.732  31.514   8.550
 4431POPC   D2A17260  30.647  31.484   8.250
 4431POPC   C3A17261  30.746  31.465   7.950
 4431POPC   C4A17262  30.654  31.472   7.650
 4431POPC   C1B17263  30.973  31.461   8.550
 4431POPC   C2B17264  30.931  31.450   8.250
 4431POPC   C3B17265  30.987  31.519   7.950
 4431POPC   C4B17266  30.961  31.475   7.650
 4432POPC   NC317267  40.734  38.493   9.450
 4432POPC   PO417268  40.799  38.496   9.150
 4432POPC   GL117269  40.791  38.440   8.850
 4432POPC   GL217270  40.925  38.440   8.850
 4432POPC   C1A17271  40.817  38.425   8.550
 4432POPC   D2A17272  40.786  38.496   8.250
 4432POPC   C3A17273  40.791  38.428   7.950
 4432POPC   C4A17274  40.750  38.439   7.650
 4432POPC   C1B17275  41.047  38.414   8.550
 4432POPC   C2B17276  41.000  38.365   8.250
 4432POPC   C3B17277  41.034  38.323   7.950
 4432POPC   C4B17278  41.006  38.330   7.650
 4433POPC   NC317279  39.969  38.460   9.450
 4433POPC   PO417280  39.981  38.501   9.150
 4433POPC   GL117281  40.022  38.486   8.850
 4433POPC   GL217282  39.912  38.553   8.850
 4433POPC   C1A17283  40.038  38.491   8.550
 4433POPC   D2A17284  40.025  38.466   8.250
 4433POPC   C3A17285  40.031  38.407   7.950
 4433POPC   C4A17286  39.958  38.455   7.650
 4433POPC   C1B17287  39.919  38.707   8.550
 4433POPC   C2B17288  39.920  38.690   8.250
 4433POPC   C3B17289  39.852  38.705   7.950
 4433POPC   C4B17290  39.837  38.630   7.650
 4434POPC   NC317291  36.913  10.536   9.450
 4434POPC   PO417292  36.895  10.498   9.150
 4434POPC   GL117293  36.938  10.492   8.850
 4434POPC   GL217294  36.817  10.624   8.850
 4434POPC   C1A17295  36.887  10.492   8.550
 4434POPC   D2A17296  36.909  10.539   8.250
 4434POPC   C3A17297  36.951  10.528   7.950
 4434POPC   C4A17298  36.918  10.549   7.650
 4434POPC   C1B17299  36.785  10.757   8.550
 4434POPC   C2B17300  36.759  10.684   8.250
 4434POPC   C3B17301  36.804  10.775   7.950
 4434POPC   C4B17302  36.762  10.761   7.650
 4435POPC   NC317303   1.252   4.342   9.450
 4435POPC   PO417304   1.215   4.354   9.150
 4435POPC   GL117305   1.192   4.287   8.850
 4435POPC   GL217306   1.312   4.416   8.850
 4435POPC   C1A17307   1.263   4.296   8.550
 4435POPC   D2A17308   1.168   4.367   8.250
 4435POPC   C3A17309   1.218   4.294   7.950
 4435POPC   C4A17310   1.187   4.285   7.650
 4435POPC   C1B17311   1.390   4.458   8.550
 4435POPC   C2B17312   1.365   4.486   8.250
 4435POPC   C3B17313   1.434   4.483   7.950
 4435POPC   C4B17314   1.357   4.511   7.650
 4436POPC   NC317315  16.005  19.080   9.450
 4436POPC   PO417316  15.941  19.031   9.150
 4436POPC   GL117317  15.999  19.070   8.850
 4436POPC   GL217318  15.840  19.171   8.850
 4436POPC   C1A17319  15.927  19.101   8.550
 4436POPC   D2A17320  15.984  19.062   8.250
 4436POPC   C3A17321  15.925  19.089   7.950
 4436POPC   C4A17322  15.997  19.021   7.650
 4436POPC   C1B17323  15.820  19.276   8.550
 4436POPC   C2B17324  15.779  19.284   8.250
 4436POPC   C3B17325  15.770  19.189   7.950
 4436POPC   C4B17326  15.771  19.221   7.650
 4437POPC   NC317327  29.182   4.339   9.450
 4437POPC   PO417328  29.133   4.324   9.150
 4437POPC   GL117329  29.144   4.352   8.850
 4437POPC   GL217330  29.038   4.376   8.850
 4437POPC   C1A17331  29.180   4.325   8.550
 4437POPC   D2A17332  29.139   4.295   8.250
 4437POPC   C3A17333  29.127   4.328   7.950
 4437POPC   C4A17334  29.155   4.274   7.650
 4437POPC   C1B17335  28.984   4.536   8.550
 4437POPC   C2B17336  28.941   4.472   8.250
 4437POPC   C3B17337  29.005   4.530   7.950
 4437POPC   C4B17338  29.002   4.517   7.650
 4438POPC   NC317339  15.950  39.267   9.450
 4438POPC   PO417340  15.930  39.274   9.150
 4438POPC   GL117341  15.941  39.195   8.850
 4438POPC   GL217342  15.969  39.146   8.850
 4438POPC   C1A17343  15.962  39.247   8.550
 4438POPC   D2A17344  15.940  39.251   8.250
 4438POPC   C3A17345  15.959  39.280   7.950
 4438POPC   C4A17346  15.998  39.256   7.650
 4438POPC   C1B17347  15.991  38.948   8.550
 4438POPC   C2B17348  15.932  38.956   8.250
 4438POPC   C3B17349  15.927  39.016   7.950
 4438POPC   C4B17350  15.990  38.970   7.650
 4439POPC   NC317351  15.133  22.118   9.450
 4439POPC   PO417352  15.198  22.189   9.150
 4439POPC   GL117353  15.220  22.196   8.850
 4439POPC   GL217354  15.294  22.231   8.850
 4439POPC   C1A17355  15.221  22.131   8.550
 4439POPC   D2A17356  15.210  22.175   8.250
 4439POPC   C3A17357  15.217  22.182   7.950
 4439POPC   C4A17358  15.202  22.119   7.650
 4439POPC   C1B17359  15.347  22.302   8.550
 4439POPC   C2B17360  15.406  22.287   8.250
 4439POPC   C3B17361  15.357  22.277   7.950
 4439POPC   C4B17362  15.377  22.293   7.650
 4440POPC   NC317363  42.315  19.100   9.450
 4440POPC   PO417364  42.332  19.043   9.150
 4440POPC   GL117365  42.379  19.035   8.850
 4440POPC   GL217366  42.462  19.036   8.850
 4440POPC   C1A17367  42.359  19.108   8.550
 4440POPC   D2A17368  42.331  19.103   8.250
 4440POPC   C3A17369  42.358  19.024   7.950
 4440POPC   C4A17370  42.382  19.029   7.650
 4440POPC   C1B17371  42.585  19.085   8.550
 4440POPC   C2B17372  42.547  19.110   8.250
 4440POPC   C3B17373  42.608  19.098   7.950
 4440POPC   C4B17374  42.553  19.073   7.650
 4441POPC   NC317375  19.881  22.121   9.450
 4441POPC   PO417376  19.806  22.184   9.150
 4441POPC   GL117377  19.852  22.150   8.850
 4441POPC   GL217378  19.755  22.088   8.850
 4441POPC   C1A17379  19.829  22.176   8.550
 4441POPC   D2A17380  19.881  22.161   8.250
 4441POPC   C3A17381  19.827  22.194   7.950
 4441POPC   C4A17382  19.863  22.125   7.650
 4441POPC   C1B17383  19.717  21.887   8.550
 4441POPC   C2B17384  19.719  21.903   8.250
 4441POPC   C3B17385  19.786  21.925   7.950
 4441POPC   C4B17386  19.790  21.969   7.650
 4442POPC   NC317387   2.726   8.177   9.450
 4442POPC   PO417388   2.720   8.185   9.150
 4442POPC   GL117389   2.796   8.236   8.850
 4442POPC   GL217390   2.772   8.070   8.850
 4442POPC   C1A17391   2.782   8.177   8.550
 4442POPC   D2A17392   2.793   8.170   8.250
 4442POPC   C3A17393   2.729   8.190   7.950
 4442POPC   C4A17394   2.808   8.171   7.650
 4442POPC   C1B17395   2.732   7.929   8.550
 4442POPC   C2B17396   2.717   7.917   8.250
 4442POPC   C3B17397   2.737   7.901   7.950
 4442POPC   C4B17398   2.764   7.993   7.650
 4443POPC   NC317399  13.591  17.528   9.450
 4443POPC   PO417400  13.605  17.496   9.150
 4443POPC   GL117401  13.598  17.544   8.850
 4443POPC   GL217402  13.689  17.414   8.850
 4443POPC   C1A17403  13.666  17.535   8.550
 4443POPC   D2A17404  13.627  17.537   8.250
 4443POPC   C3A17405  13.633  17.549   7.950
 4443POPC   C4A17406  13.651  17.512   7.650
 4443POPC   C1B17407  13.663  17.225   8.550
 4443POPC   C2B17408  13.633  17.309   8.250
 4443POPC   C3B17409  13.674  17.225   7.950
 4443POPC   C4B17410  13.683  17.289   7.650
 4444POPC   NC317411  31.486  10.480   9.450
 4444POPC   PO417412  31.457  10.491   9.150
 4444POPC   GL117413  31.479  10.573   8.850
 4444POPC   GL217414  31.438  10.698   8.850
 4444POPC   C1A17415  31.521  10.535   8.550
 4444POPC   D2A17416  31.485  10.507   8.250
 4444POPC   C3A17417  31.463  10.555   7.950
 4444POPC   C4A17418  31.502  10.492   7.650
 4444POPC   C1B17419  31.424  10.801   8.550
 4444POPC   C2B17420  31.438  10.770   8.250
 4444POPC   C3B17421  31.515  10.756   7.950
 4444POPC   C4B17422  31.512  10.774   7.650
 4445POPC   NC317423   6.636  44.639   9.450
 4445POPC   PO417424   6.611  44.675   9.150
 4445POPC   GL117425   6.609  44.691   8.850
 4445POPC   GL217426   6.544  44.528   8.850
 4445POPC   C1A17427   6.636  44.620   8.550
 4445POPC   D2A17428   6.637  44.685   8.250
 4445POPC   C3A17429   6.600  44.641   7.950
 4445POPC   C4A17430   6.675  44.620   7.650
 4445POPC   C1B17431   6.512  44.466   8.550
 4445POPC   C2B17432   6.501  44.461   8.250
 4445POPC   C3B17433   6.442  44.440   7.950
 4445POPC   C4B17434   6.481  44.426   7.650
 4446POPC   NC317435   6.628  27.582   9.450
 4446POPC   PO417436   6.649  27.560   9.150
 4446POPC   GL117437   6.626  27.594   8.850
 4446POPC   GL217438   6.617  27.682   8.850
 4446POPC   C1A17439   6.606  27.632   8.550
 4446POPC   D2A17440   6.606  27.624   8.250
 4446POPC   C3A17441   6.667  27.601   7.950
 4446POPC   C4A17442   6.657  27.549   7.650
 4446POPC   C1B17443   6.597  27.844   8.550
 4446POPC   C2B17444   6.565  27.786   8.250
 4446POPC   C3B17445   6.581  27.818   7.950
 4446POPC   C4B17446   6.537  27.837   7.650
 4447POPC   NC317447  15.923  26.787   9.450
 4447POPC   PO417448  15.930  26.862   9.150
 4447POPC   GL117449  15.913  26.865   8.850
 4447POPC   GL217450  15.793  26.830   8.850
 4447POPC   C1A17451  15.919  26.803   8.550
 4447POPC   D2A17452  15.928  26.841   8.250
 4447POPC   C3A17453  15.980  26.802   7.950
 4447POPC   C4A17454  15.952  26.808   7.650
 4447POPC   C1B17455  15.704  26.765   8.550
 4447POPC   C2B17456  15.683  26.802   8.250
 4447POPC   C3B17457  15.692  26.756   7.950
 4447POPC   C4B17458  15.709  26.772   7.650
 4448POPC   NC317459  15.954  34.591   9.450
 4448POPC   PO417460  15.946  34.585   9.150
 4448POPC   GL117461  15.937  34.614   8.850
 4448POPC   GL217462  15.935  34.716   8.850
 4448POPC   C1A17463  15.984  34.578   8.550
 4448POPC   D2A17464  15.939  34.617   8.250
 4448POPC   C3A17465  15.967  34.544   7.950
 4448POPC   C4A17466  15.912  34.624   7.650
 4448POPC   C1B17467  15.872  34.841   8.550
 4448POPC   C2B17468  15.877  34.811   8.250
 4448POPC   C3B17469  15.874  34.798   7.950
 4448POPC   C4B17470  15.841  34.767   7.650
 4449POPC   NC317471  32.249  37.644   9.450
 4449POPC   PO417472  32.210  37.690   9.150
 4449POPC   GL117473  32.217  37.645   8.850
 4449POPC   GL217474  32.389  37.586   8.850
 4449POPC   C1A17475  32.217  37.650   8.550
 4449POPC   D2A17476  32.232  37.673   8.250
 4449POPC   C3A17477  32.230  37.671   7.950
 4449POPC   C4A17478  32.205  37.653   7.650
 4449POPC   C1B17479  32.483  37.545   8.550
 4449POPC   C2B17480  32.465  37.596   8.250
 4449POPC   C3B17481  32.499  37.638   7.950
 4449POPC   C4B17482  32.506  37.586   7.650
 4450POPC   NC317483   4.324  44.619   9.450
 4450POPC   PO417484   4.293  44.680   9.150
 4450POPC   GL117485   4.350  44.686   8.850
 4450POPC   GL217486   4.265  44.823   8.850
 4450POPC   C1A17487   4.287  44.704   8.550
 4450POPC   D2A17488   4.356  44.667   8.250
 4450POPC   C3A17489   4.326  44.671   7.950
 4450POPC   C4A17490   4.361  44.704   7.650
 4450POPC   C1B17491   4.269  44.958   8.550
 4450POPC   C2B17492   4.300  44.881   8.250
 4450POPC   C3B17493   4.313  44.864   7.950
 4450POPC   C4B17494   4.274  44.868   7.650
 4451POPC   NC317495  21.429   5.898   9.450
 4451POPC   PO417496  21.351   5.882   9.150
 4451POPC   GL117497  21.345   5.820   8.850
 4451POPC   GL217498  21.278   5.823   8.850
 4451POPC   C1A17499  21.351   5.862   8.550
 4451POPC   D2A17500  21.342   5.850   8.250
 4451POPC   C3A17501  21.390   5.826   7.950
 4451POPC   C4A17502  21.358   5.871   7.650
 4451POPC   C1B17503  21.171   5.745   8.550
 4451POPC   C2B17504  21.212   5.759   8.250
 4451POPC   C3B17505  21.187   5.691   7.950
 4451POPC   C4B17506  21.194   5.727   7.650
 4452POPC   NC317507  21.429   2.784   9.450
 4452POPC   PO417508  21.347   2.741   9.150
 4452POPC   GL117509  21.423   2.724   8.850
 4452POPC   GL217510  21.428   2.891   8.850
 4452POPC   C1A17511  21.436   2.734   8.550
 4452POPC   D2A17512  21.356   2.737   8.250
 4452POPC   C3A17513  21.380   2.805   7.950
 4452POPC   C4A17514  21.388   2.731   7.650
 4452POPC   C1B17515  21.529   3.016   8.550
 4452POPC   C2B17516  21.534   2.955   8.250
 4452POPC   C3B17517  21.469   3.013   7.950
 4452POPC   C4B17518  21.487   3.010   7.650
 4453POPC   NC317519  24.476  32.250   9.450
 4453POPC   PO417520  24.479  32.226   9.150
 4453POPC   GL117521  24.465  32.207   8.850
 4453POPC   GL217522  24.598  32.242   8.850
 4453POPC   C1A17523  24.497  32.293   8.550
 4453POPC   D2A17524  24.456  32.214   8.250
 4453POPC   C3A17525  24.465  32.281   7.950
 4453POPC   C4A17526  24.514  32.287   7.650
 4453POPC   C1B17527  24.753  32.176   8.550
 4453POPC   C2B17528  24.699  32.207   8.250
 4453POPC   C3B17529  24.773  32.148   7.950
 4453POPC   C4B17530  24.766  32.174   7.650
 4454POPC   NC317531  22.947  12.086   9.450
 4454POPC   PO417532  22.934  12.051   9.150
 4454POPC   GL117533  22.930  12.058   8.850
 4454POPC   GL217534  22.810  12.171   8.850
 4454POPC   C1A17535  22.913  12.107   8.550
 4454POPC   D2A17536  22.939  12.063   8.250
 4454POPC   C3A17537  22.964  12.093   7.950
 4454POPC   C4A17538  22.985  12.029   7.650
 4454POPC   C1B17539  22.723  12.231   8.550
 4454POPC   C2B17540  22.729  12.300   8.250
 4454POPC   C3B17541  22.751  12.250   7.950
 4454POPC   C4B17542  22.747  12.244   7.650
 4455POPC   NC317543   4.343  29.131   9.450
 4455POPC   PO417544   4.302  29.191   9.150
 4455POPC   GL117545   4.289  29.129   8.850
 4455POPC   GL217546   4.349  29.240   8.850
 4455POPC   C1A17547   4.272  29.097   8.550
 4455POPC   D2A17548   4.351  29.104   8.250
 4455POPC   C3A17549   4.313  29.195   7.950
 4455POPC   C4A17550   4.282  29.157   7.650
 4455POPC   C1B17551   4.431  29.407   8.550
 4455POPC   C2B17552   4.412  29.400   8.250
 4455POPC   C3B17553   4.402  29.343   7.950
 4455POPC   C4B17554   4.441  29.412   7.650
 4456POPC   NC317555  37.657  34.606   9.450
 4456POPC   PO417556  37.647  34.575   9.150
 4456POPC   GL117557  37.689  34.554   8.850
 4456POPC   GL217558  37.606  34.638   8.850
 4456POPC   C1A17559  37.689  34.569   8.550
 4456POPC   D2A17560  37.709  34.617   8.250
 4456POPC   C3A17561  37.645  34.563   7.950
 4456POPC   C4A17562  37.723  34.559   7.650
 4456POPC   C1B17563  37.493  34.678   8.550
 4456POPC   C2B17564  37.520  34.759   8.250
 4456POPC   C3B17565  37.453  34.739   7.950
 4456POPC   C4B17566  37.509  34.766   7.650
 4457POPC   NC317567   3.521  18.254   9.450
 4457POPC   PO417568   3.501  18.318   9.150
 4457POPC   GL117569   3.532  18.242   8.850
 4457POPC   GL217570   3.577  18.189   8.850
 4457POPC   C1A17571   3.544  18.267   8.550
 4457POPC   D2A17572   3.526  18.314   8.250
 4457POPC   C3A17573   3.518  18.317   7.950
 4457POPC   C4A17574   3.538  18.287   7.650
 4457POPC   C1B17575   3.501  18.045   8.550
 4457POPC   C2B17576   3.565  18.006   8.250
 4457POPC   C3B17577   3.475  18.073   7.950
 4457POPC   C4B17578   3.485  18.052   7.650
 4458POPC   NC317579  15.963  26.044   9.450
 4458POPC   PO417580  15.989  26.047   9.150
 4458POPC   GL117581  15.922  26.072   8.850
 4458POPC   GL217582  15.923  26.206   8.850
 4458POPC   C1A17583  15.986  26.007   8.550
 4458POPC   D2A17584  15.986  26.028   8.250
 4458POPC   C3A17585  15.971  26.016   7.950
 4458POPC   C4A17586  15.990  26.033   7.650
 4458POPC   C1B17587  15.927  26.320   8.550
 4458POPC   C2B17588  15.871  26.287   8.250
 4458POPC   C3B17589  15.925  26.292   7.950
 4458POPC   C4B17590  15.876  26.284   7.650
 4459POPC   NC317591  26.006  31.472   9.450
 4459POPC   PO417592  26.069  31.434   9.150
 4459POPC   GL117593  26.021  31.478   8.850
 4459POPC   GL217594  26.133  31.442   8.850
 4459POPC   C1A17595  26.041  31.493   8.550
 4459POPC   D2A17596  26.074  31.473   8.250
 4459POPC   C3A17597  26.073  31.505   7.950
 4459POPC   C4A17598  26.017  31.486   7.650
 4459POPC   C1B17599  26.235  31.421   8.550
 4459POPC   C2B17600  26.303  31.376   8.250
 4459POPC   C3B17601  26.262  31.362   7.950
 4459POPC   C4B17602  26.233  31.373   7.650
 4460POPC   NC317603  18.247  22.940   9.450
 4460POPC   PO417604  18.263  22.930   9.150
 4460POPC   GL117605  18.247  22.961   8.850
 4460POPC   GL217606  18.312  23.017   8.850
 4460POPC   C1A17607  18.310  22.941   8.550
 4460POPC   D2A17608  18.287  22.964   8.250
 4460POPC   C3A17609  18.310  22.921   7.950
 4460POPC   C4A17610  18.317  22.895   7.650
 4460POPC   C1B17611  18.371  23.151   8.550
 4460POPC   C2B17612  18.399  23.162   8.250
 4460POPC   C3B17613  18.378  23.202   7.950
 4460POPC   C4B17614  18.428  23.169   7.650
 4461POPC   NC317615  12.115  34.593   9.450
 4461POPC   PO417616  12.125  34.610   9.150
 4461POPC   GL117617  12.062  34.548   8.850
 4461POPC   GL217618  11.947  34.580   8.850
 4461POPC   C1A17619  12.026  34.604   8.550
 4461POPC   D2A17620  12.087  34.537   8.250
 4461POPC   C3A17621  12.034  34.583   7.950
 4461POPC   C4A17622  12.088  34.531   7.650
 4461POPC   C1B17623  11.819  34.515   8.550
 4461POPC   C2B17624  11.874  34.454   8.250
 4461POPC   C3B17625  11.821  34.516   7.950
 4461POPC   C4B17626  11.868  34.443   7.650
 4462POPC   NC317627  29.178  33.003   9.450
 4462POPC   PO417628  29.106  33.003   9.150
 4462POPC   GL117629  29.098  32.977   8.850
 4462POPC   GL217630  29.125  33.122   8.850
 4462POPC   C1A17631  29.185  33.060   8.550
 4462POPC   D2A17632  29.109  33.017   8.250
 4462POPC   C3A17633  29.184  33.003   7.950
 4462POPC   C4A17634  29.105  33.017   7.650
 4462POPC   C1B17635  29.210  33.290   8.550
 4462POPC   C2B17636  29.196  33.258   8.250
 4462POPC   C3B17637  29.171  33.298   7.950
 4462POPC   C4B17638  29.172  33.278   7.650
 4463POPC   NC317639   8.180   9.707   9.450
 4463POPC   PO417640   8.165   9.768   9.150
 4463POPC   GL117641   8.167   9.770   8.850
 4463POPC   GL217642   8.257   9.678   8.850
 4463POPC   C1A17643   8.153   9.738   8.550
 4463POPC   D2A17644   8.229   9.788   8.250
 4463POPC   C3A17645   8.187   9.786   7.950
 4463POPC   C4A17646   8.174   9.789   7.650
 4463POPC   C1B17647   8.365   9.574   8.550
 4463POPC   C2B17648   8.323   9.524   8.250
 4463POPC   C3B17649   8.384   9.524   7.950
 4463POPC   C4B17650   8.309   9.535   7.650
 4464POPC   NC317651   3.530  12.114   9.450
 4464POPC   PO417652   3.555  12.059   9.150
 4464POPC   GL117653   3.537  12.053   8.850
 4464POPC   GL217654   3.648  12.090   8.850
 4464POPC   C1A17655   3.524  12.110   8.550
 4464POPC   D2A17656   3.544  12.115   8.250
 4464POPC   C3A17657   3.498  12.100   7.950
 4464POPC   C4A17658   3.562  12.113   7.650
 4464POPC   C1B17659   3.829  12.086   8.550
 4464POPC   C2B17660   3.765  12.007   8.250
 4464POPC   C3B17661   3.830  11.993   7.950
 4464POPC   C4B17662   3.786  11.993   7.650
 4465POPC   NC317663  30.727   8.994   9.450
 4465POPC   PO417664  30.694   9.002   9.150
 4465POPC   GL117665  30.666   9.002   8.850
 4465POPC   GL217666  30.577   8.927   8.850
 4465POPC   C1A17667  30.692   8.941   8.550
 4465POPC   D2A17668  30.716   8.940   8.250
 4465POPC   C3A17669  30.675   8.933   7.950
 4465POPC   C4A17670  30.743   8.940   7.650
 4465POPC   C1B17671  30.479   8.890   8.550
 4465POPC   C2B17672  30.408   8.959   8.250
 4465POPC   C3B17673  30.474   8.880   7.950
 4465POPC   C4B17674  30.446   8.972   7.650
 4466POPC   NC317675   1.194  36.177   9.450
 4466POPC   PO417676   1.229  36.097   9.150
 4466POPC   GL117677   1.168  36.085   8.850
 4466POPC   GL217678   1.056  36.089   8.850
 4466POPC   C1A17679   1.255  36.091   8.550
 4466POPC   D2A17680   1.195  36.158   8.250
 4466POPC   C3A17681   1.239  36.145   7.950
 4466POPC   C4A17682   1.263  36.120   7.650
 4466POPC   C1B17683   0.987  36.060   8.550
 4466POPC   C2B17684   1.022  36.067   8.250
 4466POPC   C3B17685   0.988  35.990   7.950
 4466POPC   C4B17686   1.026  35.982   7.650
 4467POPC   NC317687  29.958  22.118   9.450
 4467POPC   PO417688  29.935  22.178   9.150
 4467POPC   GL117689  29.968  22.141   8.850
 4467POPC   GL217690  29.902  22.022   8.850
 4467POPC   C1A17691  29.916  22.211   8.550
 4467POPC   D2A17692  29.923  22.133   8.250
 4467POPC   C3A17693  29.881  22.143   7.950
 4467POPC   C4A17694  29.880  22.181   7.650
 4467POPC   C1B17695  29.801  21.888   8.550
 4467POPC   C2B17696  29.876  21.893   8.250
 4467POPC   C3B17697  29.831  21.955   7.950
 4467POPC   C4B17698  29.815  21.920   7.650
 4468POPC   NC317699  17.541   4.351   9.450
 4468POPC   PO417700  17.459   4.336   9.150
 4468POPC   GL117701  17.494   4.358   8.850
 4468POPC   GL217702  17.619   4.319   8.850
 4468POPC   C1A17703  17.505   4.280   8.550
 4468POPC   D2A17704  17.515   4.342   8.250
 4468POPC   C3A17705  17.536   4.345   7.950
 4468POPC   C4A17706  17.482   4.324   7.650
 4468POPC   C1B17707  17.772   4.443   8.550
 4468POPC   C2B17708  17.769   4.429   8.250
 4468POPC   C3B17709  17.749   4.366   7.950
 4468POPC   C4B17710  17.719   4.434   7.650
 4469POPC   NC317711  16.771  19.798   9.450
 4469POPC   PO417712  16.723  19.870   9.150
 4469POPC   GL117713  16.734  19.881   8.850
 4469POPC   GL217714  16.858  19.792   8.850
 4469POPC   C1A17715  16.698  19.802   8.550
 4469POPC   D2A17716  16.691  19.881   8.250
 4469POPC   C3A17717  16.729  19.861   7.950
 4469POPC   C4A17718  16.754  19.834   7.650
 4469POPC   C1B17719  16.978  19.823   8.550
 4469POPC   C2B17720  16.991  19.838   8.250
 4469POPC   C3B17721  16.979  19.803   7.950
 4469POPC   C4B17722  16.991  19.823   7.650
 4470POPC   NC317723   9.710  13.622   9.450
 4470POPC   PO417724   9.782  13.669   9.150
 4470POPC   GL117725   9.758  13.622   8.850
 4470POPC   GL217726   9.678  13.570   8.850
 4470POPC   C1A17727   9.765  13.665   8.550
 4470POPC   D2A17728   9.734  13.596   8.250
 4470POPC   C3A17729   9.741  13.580   7.950
 4470POPC   C4A17730   9.772  13.628   7.650
 4470POPC   C1B17731   9.533  13.565   8.550
 4470POPC   C2B17732   9.541  13.580   8.250
 4470POPC   C3B17733   9.539  13.569   7.950
 4470POPC   C4B17734   9.500  13.573   7.650
 4471POPC   NC317735  35.336  13.614   9.450
 4471POPC   PO417736  35.364  13.644   9.150
 4471POPC   GL117737  35.399  13.611   8.850
 4471POPC   GL217738  35.327  13.562   8.850
 4471POPC   C1A17739  35.397  13.595   8.550
 4471POPC   D2A17740  35.382  13.624   8.250
 4471POPC   C3A17741  35.351  13.653   7.950
 4471POPC   C4A17742  35.395  13.605   7.650
 4471POPC   C1B17743  35.179  13.412   8.550
 4471POPC   C2B17744  35.207  13.372   8.250
 4471POPC   C3B17745  35.214  13.417   7.950
 4471POPC   C4B17746  35.236  13.382   7.650
 4472POPC   NC317747   0.456  23.735   9.450
 4472POPC   PO417748   0.448  23.664   9.150
 4472POPC   GL117749   0.438  23.696   8.850
 4472POPC   GL217750   0.361  23.774   8.850
 4472POPC   C1A17751   0.450  23.744   8.550
 4472POPC   D2A17752   0.442  23.720   8.250
 4472POPC   C3A17753   0.406  23.686   7.950
 4472POPC   C4A17754   0.428  23.763   7.650
 4472POPC   C1B17755   0.328  23.957   8.550
 4472POPC   C2B17756   0.331  23.915   8.250
 4472POPC   C3B17757   0.320  23.887   7.950
 4472POPC   C4B17758   0.297  23.962   7.650
 4473POPC   NC317759  14.428  44.677   9.450
 4473POPC   PO417760  14.443  44.633   9.150
 4473POPC   GL117761  14.376  44.620   8.850
 4473POPC   GL217762  14.435  44.591   8.850
 4473POPC   C1A17763  14.411  44.691   8.550
 4473POPC   D2A17764  14.386  44.650   8.250
 4473POPC   C3A17765  14.418  44.648   7.950
 4473POPC   C4A17766  14.362  44.621   7.650
 4473POPC   C1B17767  14.599  44.422   8.550
 4473POPC   C2B17768  14.571  44.414   8.250
 4473POPC   C3B17769  14.523  44.486   7.950
 4473POPC   C4B17770  14.574  44.445   7.650
 4474POPC   NC317771   7.372  33.799   9.450
 4474POPC   PO417772   7.455  33.756   9.150
 4474POPC   GL117773   7.400  33.770   8.850
 4474POPC   GL217774   7.457  33.654   8.850
 4474POPC   C1A17775   7.436  33.767   8.550
 4474POPC   D2A17776   7.463  33.823   8.250
 4474POPC   C3A17777   7.375  33.757   7.950
 4474POPC   C4A17778   7.428  33.807   7.650
 4474POPC   C1B17779   7.538  33.523   8.550
 4474POPC   C2B17780   7.546  33.599   8.250
 4474POPC   C3B17781   7.488  33.529   7.950
 4474POPC   C4B17782   7.513  33.579   7.650
 4475POPC   NC317783   5.886  19.012   9.450
 4475POPC   PO417784   5.845  19.090   9.150
 4475POPC   GL117785   5.889  19.052   8.850
 4475POPC   GL217786   5.951  18.961   8.850
 4475POPC   C1A17787   5.908  19.040   8.550
 4475POPC   D2A17788   5.851  19.089   8.250
 4475POPC   C3A17789   5.846  19.068   7.950
 4475POPC   C4A17790   5.850  19.077   7.650
 4475POPC   C1B17791   5.953  18.809   8.550
 4475POPC   C2B17792   5.948  18.792   8.250
 4475POPC   C3B17793   6.027  18.805   7.950
 4475POPC   C4B17794   6.023  18.858   7.650
 4476POPC   NC317795  38.456   4.316   9.450
 4476POPC   PO417796  38.409   4.342   9.150
 4476POPC   GL117797  38.447   4.292   8.850
 4476POPC   GL217798  38.455   4.220   8.850
 4476POPC   C1A17799  38.406   4.270   8.550
 4476POPC   D2A17800  38.456   4.268   8.250
 4476POPC   C3A17801  38.481   4.268   7.950
 4476POPC   C4A17802  38.480   4.342   7.650
 4476POPC   C1B17803  38.345   4.073   8.550
 4476POPC   C2B17804  38.349   4.036   8.250
 4476POPC   C3B17805  38.386   4.123   7.950
 4476POPC   C4B17806  38.386   4.120   7.650
 4477POPC   NC317807  43.889   4.297   9.450
 4477POPC   PO417808  43.907   4.304   9.150
 4477POPC   GL117809  43.861   4.275   8.850
 4477POPC   GL217810  43.796   4.269   8.850
 4477POPC   C1A17811  43.905   4.318   8.550
 4477POPC   D2A17812  43.932   4.285   8.250
 4477POPC   C3A17813  43.913   4.306   7.950
 4477POPC   C4A17814  43.886   4.345   7.650
 4477POPC   C1B17815  43.692   4.141   8.550
 4477POPC   C2B17816  43.680   4.189   8.250
 4477POPC   C3B17817  43.686   4.167   7.950
 4477POPC   C4B17818  43.739   4.209   7.650
 4478POPC   NC317819  41.592  24.451   9.450
 4478POPC   PO417820  41.568  24.475   9.150
 4478POPC   GL117821  41.563  24.538   8.850
 4478POPC   GL217822  41.594  24.393   8.850
 4478POPC   C1A17823  41.582  24.480   8.550
 4478POPC   D2A17824  41.592  24.464   8.250
 4478POPC   C3A17825  41.550  24.469   7.950
 4478POPC   C4A17826  41.541  24.441   7.650
 4478POPC   C1B17827  41.620  24.284   8.550
 4478POPC   C2B17828  41.648  24.259   8.250
 4478POPC   C3B17829  41.627  24.219   7.950
 4478POPC   C4B17830  41.634  24.302   7.650
 4479POPC   NC317831  38.487  29.139   9.450
 4479POPC   PO417832  38.475  29.170   9.150
 4479POPC   GL117833  38.454  29.120   8.850
 4479POPC   GL217834  38.354  29.091   8.850
 4479POPC   C1A17835  38.420  29.179   8.550
 4479POPC   D2A17836  38.453  29.104   8.250
 4479POPC   C3A17837  38.466  29.191   7.950
 4479POPC   C4A17838  38.478  29.138   7.650
 4479POPC   C1B17839  38.228  28.987   8.550
 4479POPC   C2B17840  38.276  29.005   8.250
 4479POPC   C3B17841  38.256  29.055   7.950
 4479POPC   C4B17842  38.245  29.013   7.650
 4480POPC   NC317843   8.939  43.087   9.450
 4480POPC   PO417844   9.016  43.084   9.150
 4480POPC   GL117845   8.997  43.069   8.850
 4480POPC   GL217846   9.122  43.062   8.850
 4480POPC   C1A17847   8.938  43.142   8.550
 4480POPC   D2A17848   9.009  43.140   8.250
 4480POPC   C3A17849   8.991  43.095   7.950
 4480POPC   C4A17850   8.954  43.107   7.650
 4480POPC   C1B17851   9.171  43.065   8.550
 4480POPC   C2B17852   9.236  43.062   8.250
 4480POPC   C3B17853   9.196  43.058   7.950
 4480POPC   C4B17854   9.206  43.019   7.650
 4481POPC   NC317855  33.834  15.910   9.450
 4481POPC   PO417856  33.820  15.995   9.150
 4481POPC   GL117857  33.754  15.980   8.850
 4481POPC   GL217858  33.720  16.010   8.850
 4481POPC   C1A17859  33.785  15.928   8.550
 4481POPC   D2A17860  33.835  15.993   8.250
 4481POPC   C3A17861  33.828  15.966   7.950
 4481POPC   C4A17862  33.826  15.946   7.650
 4481POPC   C1B17863  33.572  16.083   8.550
 4481POPC   C2B17864  33.632  16.102   8.250
 4481POPC   C3B17865  33.581  16.134   7.950
 4481POPC   C4B17866  33.545  16.103   7.650
 4482POPC   NC317867  23.714  34.574   9.450
 4482POPC   PO417868  23.693  34.622   9.150
 4482POPC   GL117869  23.676  34.582   8.850
 4482POPC   GL217870  23.832  34.535   8.850
 4482POPC   C1A17871  23.728  34.549   8.550
 4482POPC   D2A17872  23.677  34.540   8.250
 4482POPC   C3A17873  23.740  34.589   7.950
 4482POPC   C4A17874  23.671  34.569   7.650
 4482POPC   C1B17875  23.928  34.607   8.550
 4482POPC   C2B17876  24.012  34.632   8.250
 4482POPC   C3B17877  23.916  34.598   7.950
 4482POPC   C4B17878  23.933  34.602   7.650
 4483POPC   NC317879   8.175  15.145   9.450
 4483POPC   PO417880   8.214  15.160   9.150
 4483POPC   GL117881   8.193  15.227   8.850
 4483POPC   GL217882   8.243  15.036   8.850
 4483POPC   C1A17883   8.241  15.153   8.550
 4483POPC   D2A17884   8.153  15.155   8.250
 4483POPC   C3A17885   8.169  15.189   7.950
 4483POPC   C4A17886   8.176  15.132   7.650
 4483POPC   C1B17887   8.405  14.952   8.550
 4483POPC   C2B17888   8.353  14.992   8.250
 4483POPC   C3B17889   8.373  15.031   7.950
 4483POPC   C4B17890   8.331  14.961   7.650
 4484POPC   NC317891  13.665  41.535   9.450
 4484POPC   PO417892  13.624  41.607   9.150
 4484POPC   GL117893  13.645  41.574   8.850
 4484POPC   GL217894  13.565  41.696   8.850
 4484POPC   C1A17895  13.670  41.552   8.550
 4484POPC   D2A17896  13.675  41.538   8.250
 4484POPC   C3A17897  13.601  41.597   7.950
 4484POPC   C4A17898  13.663  41.523   7.650
 4484POPC   C1B17899  13.592  41.811   8.550
 4484POPC   C2B17900  13.512  41.764   8.250
 4484POPC   C3B17901  13.498  41.759   7.950
 4484POPC   C4B17902  13.564  41.786   7.650
 4485POPC   NC317903  44.705  43.909   9.450
 4485POPC   PO417904  44.613  43.879   9.150
 4485POPC   GL117905  44.655  43.856   8.850
 4485POPC   GL217906  44.746  43.951   8.850
 4485POPC   C1A17907  44.635  43.868   8.550
 4485POPC   D2A17908  44.665  43.854   8.250
 4485POPC   C3A17909  44.670  43.841   7.950
 4485POPC   C4A17910  44.700  43.880   7.650
 4485POPC   C1B17911  44.853  43.927   8.550
 4485POPC   C2B17912  44.917  43.964   8.250
 4485POPC   C3B17913  44.941  43.955   7.950
 4485POPC   C4B17914  44.881  43.922   7.650
 4486POPC   NC317915  19.791   8.203   9.450
 4486POPC   PO417916  19.798   8.209   9.150
 4486POPC   GL117917  19.879   8.209   8.850
 4486POPC   GL217918  19.924   8.244   8.850
 4486POPC   C1A17919  19.852   8.220   8.550
 4486POPC   D2A17920  19.803   8.236   8.250
 4486POPC   C3A17921  19.795   8.183   7.950
 4486POPC   C4A17922  19.877   8.208   7.650
 4486POPC   C1B17923  20.031   8.339   8.550
 4486POPC   C2B17924  20.024   8.350   8.250
 4486POPC   C3B17925  20.019   8.362   7.950
 4486POPC   C4B17926  20.036   8.338   7.650
 4487POPC   NC317927   6.623   2.729   9.450
 4487POPC   PO417928   6.671   2.720   9.150
 4487POPC   GL117929   6.661   2.805   8.850
 4487POPC   GL217930   6.645   2.612   8.850
 4487POPC   C1A17931   6.661   2.751   8.550
 4487POPC   D2A17932   6.658   2.732   8.250
 4487POPC   C3A17933   6.621   2.777   7.950
 4487POPC   C4A17934   6.661   2.733   7.650
 4487POPC   C1B17935   6.551   2.561   8.550
 4487POPC   C2B17936   6.566   2.545   8.250
 4487POPC   C3B17937   6.543   2.576   7.950
 4487POPC   C4B17938   6.598   2.521   7.650
 4488POPC   NC317939  33.763  19.083   9.450
 4488POPC   PO417940  33.758  19.097   9.150
 4488POPC   GL117941  33.805  19.084   8.850
 4488POPC   GL217942  33.847  18.908   8.850
 4488POPC   C1A17943  33.782  19.101   8.550
 4488POPC   D2A17944  33.818  19.012   8.250
 4488POPC   C3A17945  33.843  19.064   7.950
 4488POPC   C4A17946  33.772  19.022   7.650
 4488POPC   C1B17947  33.910  18.894   8.550
 4488POPC   C2B17948  33.931  18.889   8.250
 4488POPC   C3B17949  33.901  18.826   7.950
 4488POPC   C4B17950  33.979  18.891   7.650
 4489POPC   NC317951   8.992   0.462   9.450
 4489POPC   PO417952   8.931   0.452   9.150
 4489POPC   GL117953   9.021   0.474   8.850
 4489POPC   GL217954   9.113   0.352   8.850
 4489POPC   C1A17955   9.014   0.393   8.550
 4489POPC   D2A17956   8.948   0.430   8.250
 4489POPC   C3A17957   9.001   0.449   7.950
 4489POPC   C4A17958   8.937   0.482   7.650
 4489POPC   C1B17959   9.147   0.358   8.550
 4489POPC   C2B17960   9.200   0.283   8.250
 4489POPC   C3B17961   9.212   0.288   7.950
 4489POPC   C4B17962   9.172   0.311   7.650
 4490POPC   NC317963   1.219  43.923   9.450
 4490POPC   PO417964   1.239  43.919   9.150
 4490POPC   GL117965   1.198  43.855   8.850
 4490POPC   GL217966   1.138  43.842   8.850
 4490POPC   C1A17967   1.230  43.904   8.550
 4490POPC   D2A17968   1.192  43.902   8.250
 4490POPC   C3A17969   1.181  43.922   7.950
 4490POPC   C4A17970   1.211  43.895   7.650
 4490POPC   C1B17971   0.935  43.887   8.550
 4490POPC   C2B17972   0.995  43.821   8.250
 4490POPC   C3B17973   0.991  43.839   7.950
 4490POPC   C4B17974   0.959  43.860   7.650
 4491POPC   NC317975  22.153   4.291   9.450
 4491POPC   PO417976  22.128   4.311   9.150
 4491POPC   GL117977  22.117   4.293   8.850
 4491POPC   GL217978  22.107   4.240   8.850
 4491POPC   C1A17979  22.145   4.288   8.550
 4491POPC   D2A17980  22.124   4.355   8.250
 4491POPC   C3A17981  22.114   4.274   7.950
 4491POPC   C4A17982  22.169   4.325   7.650
 4491POPC   C1B17983  22.136   4.028   8.550
 4491POPC   C2B17984  22.086   4.056   8.250
 4491POPC   C3B17985  22.159   4.110   7.950
 4491POPC   C4B17986  22.095   4.079   7.650
 4492POPC   NC317987  34.532   2.758   9.450
 4492POPC   PO417988  34.554   2.739   9.150
 4492POPC   GL117989  34.589   2.728   8.850
 4492POPC   GL217990  34.421   2.807   8.850
 4492POPC   C1A17991  34.596   2.794   8.550
 4492POPC   D2A17992  34.623   2.725   8.250
 4492POPC   C3A17993  34.541   2.724   7.950
 4492POPC   C4A17994  34.534   2.776   7.650
 4492POPC   C1B17995  34.289   2.852   8.550
 4492POPC   C2B17996  34.342   2.835   8.250
 4492POPC   C3B17997  34.361   2.860   7.950
 4492POPC   C4B17998  34.313   2.830   7.650
 4493POPC   NC317999  44.668  34.573   9.450
 4493POPC   PO418000  44.629  34.586   9.150
 4493POPC   GL118001  44.699  34.560   8.850
 4493POPC   GL218002  44.798  34.584   8.850
 4493POPC   C1A18003  44.677  34.590   8.550
 4493POPC   D2A18004  44.709  34.612   8.250
 4493POPC   C3A18005  44.695  34.575   7.950
 4493POPC   C4A18006  44.621  34.539   7.650
 4493POPC   C1B18007  44.872  34.699   8.550
 4493POPC   C2B18008  44.909  34.713   8.250
 4493POPC   C3B18009  44.909  34.647   7.950
 4493POPC   C4B18010  44.857  34.648   7.650
 4494POPC   NC318011  35.390  29.946   9.450
 4494POPC   PO418012  35.384  29.894   9.150
 4494POPC   GL118013  35.320  29.876   8.850
 4494POPC   GL218014  35.483  29.899   8.850
 4494POPC   C1A18015  35.329  29.890   8.550
 4494POPC   D2A18016  35.324  29.946   8.250
 4494POPC   C3A18017  35.324  29.923   7.950
 4494POPC   C4A18018  35.310  29.926   7.650
 4494POPC   C1B18019  35.625  29.846   8.550
 4494POPC   C2B18020  35.605  29.915   8.250
 4494POPC   C3B18021  35.629  29.871   7.950
 4494POPC   C4B18022  35.577  29.908   7.650
 4495POPC   NC318023   2.790  25.999   9.450
 4495POPC   PO418024   2.790  26.003   9.150
 4495POPC   GL118025   2.796  26.084   8.850
 4495POPC   GL218026   2.713  26.139   8.850
 4495POPC   C1A18027   2.719  26.032   8.550
 4495POPC   D2A18028   2.797  26.054   8.250
 4495POPC   C3A18029   2.810  26.023   7.950
 4495POPC   C4A18030   2.793  26.057   7.650
 4495POPC   C1B18031   2.637  26.263   8.550
 4495POPC   C2B18032   2.590  26.187   8.250
 4495POPC   C3B18033   2.612  26.271   7.950
 4495POPC   C4B18034   2.602  26.260   7.650
 4496POPC   NC318035   8.952  36.094   9.450
 4496POPC   PO418036   8.964  36.090   9.150
 4496POPC   GL118037   8.994  36.095   8.850
 4496POPC   GL218038   9.015  35.999   8.850
 4496POPC   C1A18039   8.989  36.086   8.550
 4496POPC   D2A18040   8.988  36.165   8.250
 4496POPC   C3A18041   8.939  36.162   7.950
 4496POPC   C4A18042   9.012  36.158   7.650
 4496POPC   C1B18043   9.138  35.918   8.550
 4496POPC   C2B18044   9.126  35.917   8.250
 4496POPC   C3B18045   9.110  35.918   7.950
 4496POPC   C4B18046   9.094  35.878   7.650
 4497POPC   NC318047  22.134   7.418   9.450
 4497POPC   PO418048  22.158   7.371   9.150
 4497POPC   GL118049  22.207   7.392   8.850
 4497POPC   GL218050  22.017   7.366   8.850
 4497POPC   C1A18051  22.197   7.440   8.550
 4497POPC   D2A18052  22.187   7.387   8.250
 4497POPC   C3A18053  22.200   7.373   7.950
 4497POPC   C4A18054  22.204   7.420   7.650
 4497POPC   C1B18055  21.925   7.242   8.550
 4497POPC   C2B18056  21.945   7.303   8.250
 4497POPC   C3B18057  21.940   7.240   7.950
 4497POPC   C4B18058  21.991   7.259   7.650
 4498POPC   NC318059  22.931  23.676   9.450
 4498POPC   PO418060  22.916  23.675   9.150
 4498POPC   GL118061  22.975  23.715   8.850
 4498POPC   GL218062  22.894  23.829   8.850
 4498POPC   C1A18063  22.950  23.665   8.550
 4498POPC   D2A18064  22.898  23.737   8.250
 4498POPC   C3A18065  22.967  23.691   7.950
 4498POPC   C4A18066  22.906  23.748   7.650
 4498POPC   C1B18067  22.725  23.873   8.550
 4498POPC   C2B18068  22.749  23.865   8.250
 4498POPC   C3B18069  22.797  23.873   7.950
 4498POPC   C4B18070  22.724  23.836   7.650
 4499POPC   NC318071  42.315  22.967   9.450
 4499POPC   PO418072  42.318  22.959   9.150
 4499POPC   GL118073  42.312  22.910   8.850
 4499POPC   GL218074  42.312  23.088   8.850
 4499POPC   C1A18075  42.315  22.904   8.550
 4499POPC   D2A18076  42.366  22.979   8.250
 4499POPC   C3A18077  42.343  22.972   7.950
 4499POPC   C4A18078  42.366  22.965   7.650
 4499POPC   C1B18079  42.238  23.162   8.550
 4499POPC   C2B18080  42.210  23.170   8.250
 4499POPC   C3B18081  42.200  23.145   7.950
 4499POPC   C4B18082  42.190  23.165   7.650
 4500POPC   NC318083   5.130  29.096   9.450
 4500POPC   PO418084   5.125  29.124   9.150
 4500POPC   GL118085   5.054  29.142   8.850
 4500POPC   GL218086   5.002  29.293   8.850
 4500POPC   C1A18087   5.118  29.170   8.550
 4500POPC   D2A18088   5.052  29.194   8.250
 4500POPC   C3A18089   5.137  29.162   7.950
 4500POPC   C4A18090   5.067  29.128   7.650
 4500POPC   C1B18091   4.984  29.315   8.550
 4500POPC   C2B18092   4.905  29.325   8.250
 4500POPC   C3B18093   4.984  29.388   7.950
 4500POPC   C4B18094   5.000  29.371   7.650
 4501POPC   NC318095   0.396  10.494   9.450
 4501POPC   PO418096   0.413  10.520   9.150
 4501POPC   GL118097   0.424  10.526   8.850
 4501POPC   GL218098   0.424  10.694   8.850
 4501POPC   C1A18099   0.409  10.539   8.550
 4501POPC   D2A18100   0.457  10.486   8.250
 4501POPC   C3A18101   0.394  10.505   7.950
 4501POPC   C4A18102   0.396  10.552   7.650
 4501POPC   C1B18103   0.361  10.765   8.550
 4501POPC   C2B18104   0.411  10.758   8.250
 4501POPC   C3B18105   0.348  10.749   7.950
 4501POPC   C4B18106   0.362  10.786   7.650
 4502POPC   NC318107  12.107   5.847   9.450
 4502POPC   PO418108  12.107   5.861   9.150
 4502POPC   GL118109  12.101   5.856   8.850
 4502POPC   GL218110  11.977   5.927   8.850
 4502POPC   C1A18111  12.044   5.841   8.550
 4502POPC   D2A18112  12.116   5.860   8.250
 4502POPC   C3A18113  12.111   5.883   7.950
 4502POPC   C4A18114  12.085   5.841   7.650
 4502POPC   C1B18115  11.869   5.909   8.550
 4502POPC   C2B18116  11.837   5.982   8.250
 4502POPC   C3B18117  11.858   5.970   7.950
 4502POPC   C4B18118  11.872   5.924   7.650
 4503POPC   NC318119  36.140   2.747   9.450
 4503POPC   PO418120  36.166   2.738   9.150
 4503POPC   GL118121  36.142   2.726   8.850
 4503POPC   GL218122  36.209   2.725   8.850
 4503POPC   C1A18123  36.159   2.761   8.550
 4503POPC   D2A18124  36.104   2.798   8.250
 4503POPC   C3A18125  36.152   2.800   7.950
 4503POPC   C4A18126  36.089   2.735   7.650
 4503POPC   C1B18127  36.383   2.819   8.550
 4503POPC   C2B18128  36.412   2.725   8.250
 4503POPC   C3B18129  36.374   2.809   7.950
 4503POPC   C4B18130  36.358   2.745   7.650
 4504POPC   NC318131   5.879  18.305   9.450
 4504POPC   PO418132   5.878  18.255   9.150
 4504POPC   GL118133   5.900  18.241   8.850
 4504POPC   GL218134   5.737  18.363   8.850
 4504POPC   C1A18135   5.884  18.321   8.550
 4504POPC   D2A18136   5.852  18.290   8.250
 4504POPC   C3A18137   5.897  18.266   7.950
 4504POPC   C4A18138   5.912  18.300   7.650
 4504POPC   C1B18139   5.600  18.436   8.550
 4504POPC   C2B18140   5.666  18.423   8.250
 4504POPC   C3B18141   5.681  18.368   7.950
 4504POPC   C4B18142   5.602  18.444   7.650
 4505POPC   NC318143  22.909  43.151   9.450
 4505POPC   PO418144  22.898  43.081   9.150
 4505POPC   GL118145  22.952  43.123   8.850
 4505POPC   GL218146  22.985  42.999   8.850
 4505POPC   C1A18147  22.960  43.124   8.550
 4505POPC   D2A18148  22.915  43.143   8.250
 4505POPC   C3A18149  22.923  43.068   7.950
 4505POPC   C4A18150  22.933  43.087   7.650
 4505POPC   C1B18151  23.128  42.915   8.550
 4505POPC   C2B18152  23.098  42.905   8.250
 4505POPC   C3B18153  23.072  42.915   7.950
 4505POPC   C4B18154  23.128  42.971   7.650
 4506POPC   NC318155  27.629  12.834   9.450
 4506POPC   PO418156  27.599  12.863   9.150
 4506POPC   GL118157  27.605  12.861   8.850
 4506POPC   GL218158  27.672  12.778   8.850
 4506POPC   C1A18159  27.560  12.834   8.550
 4506POPC   D2A18160  27.634  12.869   8.250
 4506POPC   C3A18161  27.547  12.825   7.950
 4506POPC   C4A18162  27.605  12.873   7.650
 4506POPC   C1B18163  27.784  12.667   8.550
 4506POPC   C2B18164  27.815  12.697   8.250
 4506POPC   C3B18165  27.750  12.682   7.950
 4506POPC   C4B18166  27.806  12.693   7.650
 4507POPC   NC318167  27.560  31.450   9.450
 4507POPC   PO418168  27.617  31.459   9.150
 4507POPC   GL118169  27.549  31.522   8.850
 4507POPC   GL218170  27.764  31.521   8.850
 4507POPC   C1A18171  27.574  31.455   8.550
 4507POPC   D2A18172  27.594  31.449   8.250
 4507POPC   C3A18173  27.622  31.479   7.950
 4507POPC   C4A18174  27.550  31.452   7.650
 4507POPC   C1B18175  27.882  31.515   8.550
 4507POPC   C2B18176  27.829  31.456   8.250
 4507POPC   C3B18177  27.834  31.447   7.950
 4507POPC   C4B18178  27.860  31.468   7.650
 4508POPC   NC318179   8.179   8.234   9.450
 4508POPC   PO418180   8.219   8.229   9.150
 4508POPC   GL118181   8.216   8.221   8.850
 4508POPC   GL218182   8.147   8.059   8.850
 4508POPC   C1A18183   8.216   8.181   8.550
 4508POPC   D2A18184   8.162   8.245   8.250
 4508POPC   C3A18185   8.159   8.214   7.950
 4508POPC   C4A18186   8.199   8.175   7.650
 4508POPC   C1B18187   8.055   7.982   8.550
 4508POPC   C2B18188   7.998   7.966   8.250
 4508POPC   C3B18189   8.025   8.019   7.950
 4508POPC   C4B18190   7.999   8.000   7.650
 4509POPC   NC318191  14.416   5.857   9.450
 4509POPC   PO418192  14.451   5.882   9.150
 4509POPC   GL118193  14.392   5.829   8.850
 4509POPC   GL218194  14.299   5.888   8.850
 4509POPC   C1A18195  14.417   5.896   8.550
 4509POPC   D2A18196  14.414   5.891   8.250
 4509POPC   C3A18197  14.449   5.897   7.950
 4509POPC   C4A18198  14.398   5.849   7.650
 4509POPC   C1B18199  14.168   5.958   8.550
 4509POPC   C2B18200  14.178   5.999   8.250
 4509POPC   C3B18201  14.197   5.952   7.950
 4509POPC   C4B18202  14.157   5.975   7.650
 4510POPC   NC318203  19.796  38.495   9.450
 4510POPC   PO418204  19.833  38.440   9.150
 4510POPC   GL118205  19.808  38.434   8.850
 4510POPC   GL218206  19.895  38.538   8.850
 4510POPC   C1A18207  19.805  38.505   8.550
 4510POPC   D2A18208  19.867  38.409   8.250
 4510POPC   C3A18209  19.827  38.431   7.950
 4510POPC   C4A18210  19.805  38.426   7.650
 4510POPC   C1B18211  19.958  38.718   8.550
 4510POPC   C2B18212  19.935  38.651   8.250
 4510POPC   C3B18213  19.968  38.633   7.950
 4510POPC   C4B18214  20.000  38.708   7.650
 4511POPC   NC318215  18.307   8.174   9.450
 4511POPC   PO418216  18.288   8.208   9.150
 4511POPC   GL118217  18.236   8.201   8.850
 4511POPC   GL218218  18.210   8.144   8.850
 4511POPC   C1A18219  18.258   8.234   8.550
 4511POPC   D2A18220  18.290   8.237   8.250
 4511POPC   C3A18221  18.322   8.205   7.950
 4511POPC   C4A18222  18.294   8.212   7.650
 4511POPC   C1B18223  18.035   8.085   8.550
 4511POPC   C2B18224  18.085   8.050   8.250
 4511POPC   C3B18225  18.032   8.095   7.950
 4511POPC   C4B18226  18.027   8.088   7.650
 4512POPC   NC318227   1.192  38.469   9.450
 4512POPC   PO418228   1.243  38.451   9.150
 4512POPC   GL118229   1.262  38.460   8.850
 4512POPC   GL218230   1.126  38.433   8.850
 4512POPC   C1A18231   1.207  38.466   8.550
 4512POPC   D2A18232   1.208  38.478   8.250
 4512POPC   C3A18233   1.246  38.410   7.950
 4512POPC   C4A18234   1.196  38.504   7.650
 4512POPC   C1B18235   1.015  38.307   8.550
 4512POPC   C2B18236   0.960  38.336   8.250
 4512POPC   C3B18237   1.019  38.312   7.950
 4512POPC   C4B18238   0.959  38.367   7.650
 4513POPC   NC318239  36.929   8.947   9.450
 4513POPC   PO418240  36.864   8.996   9.150
 4513POPC   GL118241  36.893   9.017   8.850
 4513POPC   GL218242  36.753   9.032   8.850
 4513POPC   C1A18243  36.899   8.947   8.550
 4513POPC   D2A18244  36.870   8.993   8.250
 4513POPC   C3A18245  36.907   8.964   7.950
 4513POPC   C4A18246  36.868   8.982   7.650
 4513POPC   C1B18247  36.676   9.096   8.550
 4513POPC   C2B18248  36.712   9.051   8.250
 4513POPC   C3B18249  36.661   9.076   7.950
 4513POPC   C4B18250  36.651   9.103   7.650
 4514POPC   NC318251   3.529  43.061   9.450
 4514POPC   PO418252   3.494  43.100   9.150
 4514POPC   GL118253   3.571  43.101   8.850
 4514POPC   GL218254   3.635  42.995   8.850
 4514POPC   C1A18255   3.556  43.096   8.550
 4514POPC   D2A18256   3.500  43.096   8.250
 4514POPC   C3A18257   3.554  43.064   7.950
 4514POPC   C4A18258   3.583  43.062   7.650
 4514POPC   C1B18259   3.714  42.942   8.550
 4514POPC   C2B18260   3.684  42.893   8.250
 4514POPC   C3B18261   3.658  42.878   7.950
 4514POPC   C4B18262   3.646  42.940   7.650
 4515POPC   NC318263   6.596   1.249   9.450
 4515POPC   PO418264   6.624   1.192   9.150
 4515POPC   GL118265   6.666   1.206   8.850
 4515POPC   GL218266   6.551   1.061   8.850
 4515POPC   C1A18267   6.683   1.211   8.550
 4515POPC   D2A18268   6.676   1.246   8.250
 4515POPC   C3A18269   6.628   1.182   7.950
 4515POPC   C4A18270   6.691   1.235   7.650
 4515POPC   C1B18271   6.526   0.958   8.550
 4515POPC   C2B18272   6.498   0.958   8.250
 4515POPC   C3B18273   6.533   1.012   7.950
 4515POPC   C4B18274   6.502   0.943   7.650
 4516POPC   NC318275  38.500   5.876   9.450
 4516POPC   PO418276  38.458   5.891   9.150
 4516POPC   GL118277  38.487   5.871   8.850
 4516POPC   GL218278  38.522   5.846   8.850
 4516POPC   C1A18279  38.496   5.891   8.550
 4516POPC   D2A18280  38.430   5.905   8.250
 4516POPC   C3A18281  38.465   5.856   7.950
 4516POPC   C4A18282  38.452   5.877   7.650
 4516POPC   C1B18283  38.655   5.770   8.550
 4516POPC   C2B18284  38.677   5.746   8.250
 4516POPC   C3B18285  38.649   5.779   7.950
 4516POPC   C4B18286  38.682   5.691   7.650
 4517POPC   NC318287   8.936   7.433   9.450
 4517POPC   PO418288   9.011   7.428   9.150
 4517POPC   GL118289   8.991   7.374   8.850
 4517POPC   GL218290   9.060   7.405   8.850
 4517POPC   C1A18291   8.924   7.428   8.550
 4517POPC   D2A18292   8.963   7.402   8.250
 4517POPC   C3A18293   9.018   7.423   7.950
 4517POPC   C4A18294   9.012   7.462   7.650
 4517POPC   C1B18295   9.174   7.429   8.550
 4517POPC   C2B18296   9.243   7.452   8.250
 4517POPC   C3B18297   9.179   7.448   7.950
 4517POPC   C4B18298   9.189   7.371   7.650
 4518POPC   NC318299   9.712  28.397   9.450
 4518POPC   PO418300   9.711  28.416   9.150
 4518POPC   GL118301   9.717  28.379   8.850
 4518POPC   GL218302   9.757  28.261   8.850
 4518POPC   C1A18303   9.719  28.405   8.550
 4518POPC   D2A18304   9.727  28.402   8.250
 4518POPC   C3A18305   9.730  28.330   7.950
 4518POPC   C4A18306   9.715  28.368   7.650
 4518POPC   C1B18307   9.732  28.109   8.550
 4518POPC   C2B18308   9.758  28.101   8.250
 4518POPC   C3B18309   9.755  28.110   7.950
 4518POPC   C4B18310   9.695  28.096   7.650
 4519POPC   NC318311  43.135  19.033   9.450
 4519POPC   PO418312  43.133  19.052   9.150
 4519POPC   GL118313  43.109  19.050   8.850
 4519POPC   GL218314  42.945  19.152   8.850
 4519POPC   C1A18315  43.097  19.072   8.550
 4519POPC   D2A18316  43.147  19.049   8.250
 4519POPC   C3A18317  43.134  19.011   7.950
 4519POPC   C4A18318  43.156  19.096   7.650
 4519POPC   C1B18319  42.887  19.186   8.550
 4519POPC   C2B18320  42.918  19.107   8.250
 4519POPC   C3B18321  42.859  19.192   7.950
 4519POPC   C4B18322  42.830  19.159   7.650
 4520POPC   NC318323  43.843  17.505   9.450
 4520POPC   PO418324  43.934  17.459   9.150
 4520POPC   GL118325  43.873  17.481   8.850
 4520POPC   GL218326  43.766  17.490   8.850
 4520POPC   C1A18327  43.856  17.473   8.550
 4520POPC   D2A18328  43.886  17.481   8.250
 4520POPC   C3A18329  43.936  17.463   7.950
 4520POPC   C4A18330  43.905  17.505   7.650
 4520POPC   C1B18331  43.608  17.479   8.550
 4520POPC   C2B18332  43.690  17.462   8.250
 4520POPC   C3B18333  43.636  17.427   7.950
 4520POPC   C4B18334  43.617  17.426   7.650
 4521POPC   NC318335   8.150  37.729   9.450
 4521POPC   PO418336   8.243  37.692   9.150
 4521POPC   GL118337   8.197  37.710   8.850
 4521POPC   GL218338   8.259  37.785   8.850
 4521POPC   C1A18339   8.218  37.676   8.550
 4521POPC   D2A18340   8.152  37.729   8.250
 4521POPC   C3A18341   8.234  37.630   7.950
 4521POPC   C4A18342   8.156  37.711   7.650
 4521POPC   C1B18343   8.443  37.852   8.550
 4521POPC   C2B18344   8.431  37.837   8.250
 4521POPC   C3B18345   8.363  37.809   7.950
 4521POPC   C4B18346   8.374  37.839   7.650
 4522POPC   NC318347  17.508   1.251   9.450
 4522POPC   PO418348  17.485   1.225   9.150
 4522POPC   GL118349  17.534   1.224   8.850
 4522POPC   GL218350  17.573   1.309   8.850
 4522POPC   C1A18351  17.466   1.214   8.550
 4522POPC   D2A18352  17.548   1.213   8.250
 4522POPC   C3A18353  17.484   1.248   7.950
 4522POPC   C4A18354  17.490   1.212   7.650
 4522POPC   C1B18355  17.628   1.434   8.550
 4522POPC   C2B18356  17.661   1.416   8.250
 4522POPC   C3B18357  17.650   1.426   7.950
 4522POPC   C4B18358  17.593   1.428   7.650
 4523POPC   NC318359  13.635  29.132   9.450
 4523POPC   PO418360  13.611  29.167   9.150
 4523POPC   GL118361  13.667  29.098   8.850
 4523POPC   GL218362  13.755  29.087   8.850
 4523POPC   C1A18363  13.610  29.192   8.550
 4523POPC   D2A18364  13.671  29.152   8.250
 4523POPC   C3A18365  13.663  29.166   7.950
 4523POPC   C4A18366  13.616  29.096   7.650
 4523POPC   C1B18367  13.846  28.971   8.550
 4523POPC   C2B18368  13.859  28.985   8.250
 4523POPC   C3B18369  13.811  29.033   7.950
 4523POPC   C4B18370  13.841  29.010   7.650
 4524POPC   NC318371  20.609  14.420   9.450
 4524POPC   PO418372  20.615  14.363   9.150
 4524POPC   GL118373  20.610  14.367   8.850
 4524POPC   GL218374  20.720  14.380   8.850
 4524POPC   C1A18375  20.660  14.376   8.550
 4524POPC   D2A18376  20.631  14.415   8.250
 4524POPC   C3A18377  20.613  14.380   7.950
 4524POPC   C4A18378  20.596  14.425   7.650
 4524POPC   C1B18379  20.858  14.364   8.550
 4524POPC   C2B18380  20.849  14.357   8.250
 4524POPC   C3B18381  20.901  14.380   7.950
 4524POPC   C4B18382  20.836  14.316   7.650
 4525POPC   NC318383   7.396  32.243   9.450
 4525POPC   PO418384   7.457  32.281   9.150
 4525POPC   GL118385   7.412  32.235   8.850
 4525POPC   GL218386   7.511  32.355   8.850
 4525POPC   C1A18387   7.468  32.219   8.550
 4525POPC   D2A18388   7.426  32.251   8.250
 4525POPC   C3A18389   7.439  32.218   7.950
 4525POPC   C4A18390   7.434  32.267   7.650
 4525POPC   C1B18391   7.480  32.451   8.550
 4525POPC   C2B18392   7.563  32.519   8.250
 4525POPC   C3B18393   7.558  32.468   7.950
 4525POPC   C4B18394   7.481  32.514   7.650
 4526POPC   NC318395   5.877  32.213   9.450
 4526POPC   PO418396   5.832  32.245   9.150
 4526POPC   GL118397   5.824  32.224   8.850
 4526POPC   GL218398   5.922  32.120   8.850
 4526POPC   C1A18399   5.878  32.292   8.550
 4526POPC   D2A18400   5.855  32.222   8.250
 4526POPC   C3A18401   5.827  32.268   7.950
 4526POPC   C4A18402   5.886  32.287   7.650
 4526POPC   C1B18403   6.013  32.007   8.550
 4526POPC   C2B18404   6.007  32.076   8.250
 4526POPC   C3B18405   5.997  32.001   7.950
 4526POPC   C4B18406   6.024  32.002   7.650
 4527POPC   NC318407  31.435  33.846   9.450
 4527POPC   PO418408  31.520  33.841   9.150
 4527POPC   GL118409  31.454  33.813   8.850
 4527POPC   GL218410  31.509  33.657   8.850
 4527POPC   C1A18411  31.470  33.843   8.550
 4527POPC   D2A18412  31.495  33.772   8.250
 4527POPC   C3A18413  31.521  33.820   7.950
 4527POPC   C4A18414  31.500  33.804   7.650
 4527POPC   C1B18415  31.470  33.512   8.550
 4527POPC   C2B18416  31.516  33.580   8.250
 4527POPC   C3B18417  31.498  33.574   7.950
 4527POPC   C4B18418  31.516  33.596   7.650
 4528POPC   NC318419  43.837   7.451   9.450
 4528POPC   PO418420  43.840   7.461   9.150
 4528POPC   GL118421  43.858   7.412   8.850
 4528POPC   GL218422  43.760   7.375   8.850
 4528POPC   C1A18423  43.877   7.411   8.550
 4528POPC   D2A18424  43.935   7.460   8.250
 4528POPC   C3A18425  43.868   7.450   7.950
 4528POPC   C4A18426  43.843   7.394   7.650
 4528POPC   C1B18427  43.661   7.287   8.550
 4528POPC   C2B18428  43.674   7.307   8.250
 4528POPC   C3B18429  43.717   7.212   7.950
 4528POPC   C4B18430  43.696   7.305   7.650
 4529POPC   NC318431   0.461  39.265   9.450
 4529POPC   PO418432   0.407  39.259   9.150
 4529POPC   GL118433   0.447  39.220   8.850
 4529POPC   GL218434   0.554  39.244   8.850
 4529POPC   C1A18435   0.422  39.249   8.550
 4529POPC   D2A18436   0.481  39.246   8.250
 4529POPC   C3A18437   0.456  39.275   7.950
 4529POPC   C4A18438   0.482  39.214   7.650
 4529POPC   C1B18439   0.695  39.178   8.550
 4529POPC   C2B18440   0.671  39.169   8.250
 4529POPC   C3B18441   0.695  39.166   7.950
 4529POPC   C4B18442   0.673  39.189   7.650
 4530POPC   NC318443  16.697   7.448   9.450
 4530POPC   PO418444  16.734   7.417   9.150
 4530POPC   GL118445  16.778   7.441   8.850
 4530POPC   GL218446  16.626   7.385   8.850
 4530POPC   C1A18447  16.696   7.435   8.550
 4530POPC   D2A18448  16.732   7.387   8.250
 4530POPC   C3A18449  16.731   7.410   7.950
 4530POPC   C4A18450  16.704   7.422   7.650
 4530POPC   C1B18451  16.495   7.356   8.550
 4530POPC   C2B18452  16.463   7.409   8.250
 4530POPC   C3B18453  16.465   7.440   7.950
 4530POPC   C4B18454  16.515   7.400   7.650
 4531POPC   NC318455  24.516  21.431   9.450
 4531POPC   PO418456  24.462  21.423   9.150
 4531POPC   GL118457  24.520  21.421   8.850
 4531POPC   GL218458  24.585  21.263   8.850
 4531POPC   C1A18459  24.480  21.362   8.550
 4531POPC   D2A18460  24.510  21.360   8.250
 4531POPC   C3A18461  24.478  21.397   7.950
 4531POPC   C4A18462  24.478  21.346   7.650
 4531POPC   C1B18463  24.602  21.204   8.550
 4531POPC   C2B18464  24.664  21.184   8.250
 4531POPC   C3B18465  24.660  21.180   7.950
 4531POPC   C4B18466  24.687  21.144   7.650
 4532POPC   NC318467  11.336  32.266   9.450
 4532POPC   PO418468  11.334  32.273   9.150
 4532POPC   GL118469  11.347  32.249   8.850
 4532POPC   GL218470  11.239  32.135   8.850
 4532POPC   C1A18471  11.347  32.221   8.550
 4532POPC   D2A18472  11.340  32.258   8.250
 4532POPC   C3A18473  11.283  32.228   7.950
 4532POPC   C4A18474  11.251  32.264   7.650
 4532POPC   C1B18475  11.071  32.073   8.550
 4532POPC   C2B18476  11.135  32.078   8.250
 4532POPC   C3B18477  11.156  32.049   7.950
 4532POPC   C4B18478  11.067  32.033   7.650
 4533POPC   NC318479  19.814  13.651   9.450
 4533POPC   PO418480  19.858  13.610   9.150
 4533POPC   GL118481  19.872  13.638   8.850
 4533POPC   GL218482  19.803  13.724   8.850
 4533POPC   C1A18483  19.794  13.637   8.550
 4533POPC   D2A18484  19.831  13.672   8.250
 4533POPC   C3A18485  19.838  13.668   7.950
 4533POPC   C4A18486  19.800  13.632   7.650
 4533POPC   C1B18487  19.805  13.884   8.550
 4533POPC   C2B18488  19.819  13.856   8.250
 4533POPC   C3B18489  19.787  13.831   7.950
 4533POPC   C4B18490  19.822  13.920   7.650
 4534POPC   NC318491  42.381  37.679   9.450
 4534POPC   PO418492  42.313  37.667   9.150
 4534POPC   GL118493  42.300  37.716   8.850
 4534POPC   GL218494  42.361  37.566   8.850
 4534POPC   C1A18495  42.350  37.654   8.550
 4534POPC   D2A18496  42.331  37.675   8.250
 4534POPC   C3A18497  42.296  37.693   7.950
 4534POPC   C4A18498  42.286  37.728   7.650
 4534POPC   C1B18499  42.437  37.481   8.550
 4534POPC   C2B18500  42.407  37.430   8.250
 4534POPC   C3B18501  42.489  37.413   7.950
 4534POPC   C4B18502  42.465  37.414   7.650
 4535POPC   NC318503  27.579   6.609   9.450
 4535POPC   PO418504  27.636   6.619   9.150
 4535POPC   GL118505  27.552   6.657   8.850
 4535POPC   GL218506  27.442   6.651   8.850
 4535POPC   C1A18507  27.590   6.639   8.550
 4535POPC   D2A18508  27.554   6.682   8.250
 4535POPC   C3A18509  27.570   6.682   7.950
 4535POPC   C4A18510  27.572   6.664   7.650
 4535POPC   C1B18511  27.388   6.544   8.550
 4535POPC   C2B18512  27.326   6.585   8.250
 4535POPC   C3B18513  27.367   6.583   7.950
 4535POPC   C4B18514  27.349   6.527   7.650
 4536POPC   NC318515   8.928   9.000   9.450
 4536POPC   PO418516   8.929   8.971   9.150
 4536POPC   GL118517   8.936   8.942   8.850
 4536POPC   GL218518   9.067   8.818   8.850
 4536POPC   C1A18519   8.980   8.979   8.550
 4536POPC   D2A18520   8.951   9.020   8.250
 4536POPC   C3A18521   8.950   8.932   7.950
 4536POPC   C4A18522   8.951   8.945   7.650
 4536POPC   C1B18523   9.115   8.734   8.550
 4536POPC   C2B18524   9.066   8.773   8.250
 4536POPC   C3B18525   9.134   8.791   7.950
 4536POPC   C4B18526   9.071   8.774   7.650
 4537POPC   NC318527  28.369  10.550   9.450
 4537POPC   PO418528  28.319  10.506   9.150
 4537POPC   GL118529  28.356  10.547   8.850
 4537POPC   GL218530  28.495  10.637   8.850
 4537POPC   C1A18531  28.401  10.543   8.550
 4537POPC   D2A18532  28.328  10.566   8.250
 4537POPC   C3A18533  28.344  10.521   7.950
 4537POPC   C4A18534  28.358  10.481   7.650
 4537POPC   C1B18535  28.529  10.669   8.550
 4537POPC   C2B18536  28.483  10.744   8.250
 4537POPC   C3B18537  28.512  10.693   7.950
 4537POPC   C4B18538  28.482  10.734   7.650
 4538POPC   NC318539  11.335   9.014   9.450
 4538POPC   PO418540  11.267   9.019   9.150
 4538POPC   GL118541  11.290   8.943   8.850
 4538POPC   GL218542  11.453   8.918   8.850
 4538POPC   C1A18543  11.321   8.991   8.550
 4538POPC   D2A18544  11.333   8.941   8.250
 4538POPC   C3A18545  11.280   8.968   7.950
 4538POPC   C4A18546  11.264   9.008   7.650
 4538POPC   C1B18547  11.580   8.840   8.550
 4538POPC   C2B18548  11.493   8.929   8.250
 4538POPC   C3B18549  11.548   8.872   7.950
 4538POPC   C4B18550  11.544   8.878   7.650
 4539POPC   NC318551  14.399   0.465   9.450
 4539POPC   PO418552  14.407   0.447   9.150
 4539POPC   GL118553  14.387   0.407   8.850
 4539POPC   GL218554  14.352   0.586   8.850
 4539POPC   C1A18555  14.406   0.483   8.550
 4539POPC   D2A18556  14.385   0.400   8.250
 4539POPC   C3A18557  14.393   0.439   7.950
 4539POPC   C4A18558  14.432   0.478   7.650
 4539POPC   C1B18559  14.360   0.688   8.550
 4539POPC   C2B18560  14.419   0.671   8.250
 4539POPC   C3B18561  14.393   0.658   7.950
 4539POPC   C4B18562  14.389   0.658   7.650
 4540POPC   NC318563  22.201   1.165   9.450
 4540POPC   PO418564  22.167   1.181   9.150
 4540POPC   GL118565  22.208   1.191   8.850
 4540POPC   GL218566  22.129   1.356   8.850
 4540POPC   C1A18567  22.180   1.215   8.550
 4540POPC   D2A18568  22.166   1.260   8.250
 4540POPC   C3A18569  22.113   1.199   7.950
 4540POPC   C4A18570  22.177   1.257   7.650
 4540POPC   C1B18571  22.087   1.427   8.550
 4540POPC   C2B18572  21.999   1.409   8.250
 4540POPC   C3B18573  22.030   1.432   7.950
 4540POPC   C4B18574  22.000   1.422   7.650
 4541POPC   NC318575   1.234  29.914   9.450
 4541POPC   PO418576   1.165  29.956   9.150
 4541POPC   GL118577   1.233  29.903   8.850
 4541POPC   GL218578   1.351  29.929   8.850
 4541POPC   C1A18579   1.195  29.891   8.550
 4541POPC   D2A18580   1.175  29.893   8.250
 4541POPC   C3A18581   1.187  29.908   7.950
 4541POPC   C4A18582   1.180  29.902   7.650
 4541POPC   C1B18583   1.471  29.808   8.550
 4541POPC   C2B18584   1.408  29.831   8.250
 4541POPC   C3B18585   1.484  29.794   7.950
 4541POPC   C4B18586   1.418  29.891   7.650
 4542POPC   NC318587  29.109   2.788   9.450
 4542POPC   PO418588  29.113   2.795   9.150
 4542POPC   GL118589  29.171   2.780   8.850
 4542POPC   GL218590  29.089   2.680   8.850
 4542POPC   C1A18591  29.164   2.759   8.550
 4542POPC   D2A18592  29.111   2.786   8.250
 4542POPC   C3A18593  29.152   2.802   7.950
 4542POPC   C4A18594  29.121   2.802   7.650
 4542POPC   C1B18595  28.919   2.657   8.550
 4542POPC   C2B18596  28.986   2.643   8.250
 4542POPC   C3B18597  28.946   2.635   7.950
 4542POPC   C4B18598  28.970   2.642   7.650
 4543POPC   NC318599  38.410  33.039   9.450
 4543POPC   PO418600  38.488  33.057   9.150
 4543POPC   GL118601  38.467  32.996   8.850
 4543POPC   GL218602  38.440  33.122   8.850
 4543POPC   C1A18603  38.482  33.019   8.550
 4543POPC   D2A18604  38.482  32.978   8.250
 4543POPC   C3A18605  38.415  33.056   7.950
 4543POPC   C4A18606  38.425  33.033   7.650
 4543POPC   C1B18607  38.546  33.226   8.550
 4543POPC   C2B18608  38.550  33.282   8.250
 4543POPC   C3B18609  38.512  33.232   7.950
 4543POPC   C4B18610  38.517  33.251   7.650
 4544POPC   NC318611   7.433  12.807   9.450
 4544POPC   PO418612   7.403  12.874   9.150
 4544POPC   GL118613   7.465  12.839   8.850
 4544POPC   GL218614   7.345  12.933   8.850
 4544POPC   C1A18615   7.420  12.807   8.550
 4544POPC   D2A18616   7.466  12.808   8.250
 4544POPC   C3A18617   7.464  12.881   7.950
 4544POPC   C4A18618   7.377  12.835   7.650
 4544POPC   C1B18619   7.219  13.016   8.550
 4544POPC   C2B18620   7.173  13.053   8.250
 4544POPC   C3B18621   7.236  12.971   7.950
 4544POPC   C4B18622   7.215  13.003   7.650
 4545POPC   NC318623  27.586   1.221   9.450
 4545POPC   PO418624  27.560   1.217   9.150
 4545POPC   GL118625  27.635   1.261   8.850
 4545POPC   GL218626  27.649   1.093   8.850
 4545POPC   C1A18627  27.559   1.180   8.550
 4545POPC   D2A18628  27.620   1.251   8.250
 4545POPC   C3A18629  27.587   1.226   7.950
 4545POPC   C4A18630  27.601   1.219   7.650
 4545POPC   C1B18631  27.764   1.046   8.550
 4545POPC   C2B18632  27.742   1.036   8.250
 4545POPC   C3B18633  27.737   1.048   7.950
 4545POPC   C4B18634  27.805   1.016   7.650
 4546POPC   NC318635   6.606  23.694   9.450
 4546POPC   PO418636   6.606  23.723   9.150
 4546POPC   GL118637   6.671  23.710   8.850
 4546POPC   GL218638   6.736  23.798   8.850
 4546POPC   C1A18639   6.610  23.717   8.550
 4546POPC   D2A18640   6.615  23.724   8.250
 4546POPC   C3A18641   6.644  23.732   7.950
 4546POPC   C4A18642   6.694  23.678   7.650
 4546POPC   C1B18643   6.722  23.925   8.550
 4546POPC   C2B18644   6.718  23.952   8.250
 4546POPC   C3B18645   6.759  23.961   7.950
 4546POPC   C4B18646   6.805  23.962   7.650
 4547POPC   NC318647   1.208  16.693   9.450
 4547POPC   PO418648   1.264  16.770   9.150
 4547POPC   GL118649   1.194  16.710   8.850
 4547POPC   GL218650   1.165  16.660   8.850
 4547POPC   C1A18651   1.179  16.761   8.550
 4547POPC   D2A18652   1.174  16.773   8.250
 4547POPC   C3A18653   1.202  16.764   7.950
 4547POPC   C4A18654   1.229  16.687   7.650
 4547POPC   C1B18655   1.154  16.479   8.550
 4547POPC   C2B18656   1.182  16.512   8.250
 4547POPC   C3B18657   1.153  16.461   7.950
 4547POPC   C4B18658   1.115  16.513   7.650
 4548POPC   NC318659  10.521  37.707   9.450
 4548POPC   PO418660  10.522  37.664   9.150
 4548POPC   GL118661  10.559  37.687   8.850
 4548POPC   GL218662  10.467  37.545   8.850
 4548POPC   C1A18663  10.514  37.652   8.550
 4548POPC   D2A18664  10.554  37.676   8.250
 4548POPC   C3A18665  10.478  37.704   7.950
 4548POPC   C4A18666  10.509  37.659   7.650
 4548POPC   C1B18667  10.400  37.511   8.550
 4548POPC   C2B18668  10.336  37.457   8.250
 4548POPC   C3B18669  10.361  37.514   7.950
 4548POPC   C4B18670  10.356  37.512   7.650
 4549POPC   NC318671   4.292  12.876   9.450
 4549POPC   PO418672   4.296  12.879   9.150
 4549POPC   GL118673   4.277  12.840   8.850
 4549POPC   GL218674   4.394  12.923   8.850
 4549POPC   C1A18675   4.307  12.884   8.550
 4549POPC   D2A18676   4.296  12.825   8.250
 4549POPC   C3A18677   4.271  12.803   7.950
 4549POPC   C4A18678   4.337  12.825   7.650
 4549POPC   C1B18679   4.435  13.073   8.550
 4549POPC   C2B18680   4.501  13.015   8.250
 4549POPC   C3B18681   4.502  13.018   7.950
 4549POPC   C4B18682   4.485  13.053   7.650
 4550POPC   NC318683  21.424  36.177   9.450
 4550POPC   PO418684  21.357  36.145   9.150
 4550POPC   GL118685  21.402  36.085   8.850
 4550POPC   GL218686  21.359  36.198   8.850
 4550POPC   C1A18687  21.339  36.148   8.550
 4550POPC   D2A18688  21.362  36.128   8.250
 4550POPC   C3A18689  21.346  36.153   7.950
 4550POPC   C4A18690  21.344  36.089   7.650
 4550POPC   C1B18691  21.225  36.371   8.550
 4550POPC   C2B18692  21.261  36.303   8.250
 4550POPC   C3B18693  21.268  36.349   7.950
 4550POPC   C4B18694  21.253  36.294   7.650
 4551POPC   NC318695  19.030  38.432   9.450
 4551POPC   PO418696  19.067  38.483   9.150
 4551POPC   GL118697  19.045  38.502   8.850
 4551POPC   GL218698  19.074  38.292   8.850
 4551POPC   C1A18699  19.071  38.468   8.550
 4551POPC   D2A18700  19.051  38.461   8.250
 4551POPC   C3A18701  19.027  38.416   7.950
 4551POPC   C4A18702  19.056  38.468   7.650
 4551POPC   C1B18703  18.986  38.188   8.550
 4551POPC   C2B18704  18.981  38.231   8.250
 4551POPC   C3B18705  19.077  38.208   7.950
 4551POPC   C4B18706  18.991  38.231   7.650
 4552POPC   NC318707  12.125  12.868   9.450
 4552POPC   PO418708  12.036  12.817   9.150
 4552POPC   GL118709  12.088  12.802   8.850
 4552POPC   GL218710  11.933  12.789   8.850
 4552POPC   C1A18711  12.063  12.894   8.550
 4552POPC   D2A18712  12.035  12.812   8.250
 4552POPC   C3A18713  12.037  12.830   7.950
 4552POPC   C4A18714  12.033  12.845   7.650
 4552POPC   C1B18715  11.817  12.767   8.550
 4552POPC   C2B18716  11.859  12.847   8.250
 4552POPC   C3B18717  11.836  12.764   7.950
 4552POPC   C4B18718  11.828  12.809   7.650
 4553POPC   NC318719   8.168  38.432   9.450
 4553POPC   PO418720   8.216  38.464   9.150
 4553POPC   GL118721   8.238  38.468   8.850
 4553POPC   GL218722   8.255  38.592   8.850
 4553POPC   C1A18723   8.173  38.443   8.550
 4553POPC   D2A18724   8.183  38.443   8.250
 4553POPC   C3A18725   8.200  38.459   7.950
 4553POPC   C4A18726   8.214  38.466   7.650
 4553POPC   C1B18727   8.368  38.653   8.550
 4553POPC   C2B18728   8.393  38.680   8.250
 4553POPC   C3B18729   8.364  38.656   7.950
 4553POPC   C4B18730   8.339  38.649   7.650
 4554POPC   NC318731  36.136  16.779   9.450
 4554POPC   PO418732  36.170  16.755   9.150
 4554POPC   GL118733  36.111  16.709   8.850
 4554POPC   GL218734  36.058  16.588   8.850
 4554POPC   C1A18735  36.109  16.689   8.550
 4554POPC   D2A18736  36.173  16.777   8.250
 4554POPC   C3A18737  36.176  16.724   7.950
 4554POPC   C4A18738  36.098  16.695   7.650
 4554POPC   C1B18739  35.953  16.581   8.550
 4554POPC   C2B18740  35.994  16.518   8.250
 4554POPC   C3B18741  35.948  16.565   7.950
 4554POPC   C4B18742  35.941  16.557   7.650
 4555POPC   NC318743  43.070  31.424   9.450
 4555POPC   PO418744  43.066  31.491   9.150
 4555POPC   GL118745  43.151  31.442   8.850
 4555POPC   GL218746  43.175  31.351   8.850
 4555POPC   C1A18747  43.069  31.466   8.550
 4555POPC   D2A18748  43.100  31.490   8.250
 4555POPC   C3A18749  43.143  31.509   7.950
 4555POPC   C4A18750  43.140  31.511   7.650
 4555POPC   C1B18751  43.336  31.343   8.550
 4555POPC   C2B18752  43.305  31.290   8.250
 4555POPC   C3B18753  43.312  31.314   7.950
 4555POPC   C4B18754  43.310  31.267   7.650
 4556POPC   NC318755  13.668  39.957   9.450
 4556POPC   PO418756  13.632  40.051   9.150
 4556POPC   GL118757  13.582  40.007   8.850
 4556POPC   GL218758  13.685  40.161   8.850
 4556POPC   C1A18759  13.579  39.964   8.550
 4556POPC   D2A18760  13.621  39.971   8.250
 4556POPC   C3A18761  13.659  39.982   7.950
 4556POPC   C4A18762  13.640  40.008   7.650
 4556POPC   C1B18763  13.734  40.266   8.550
 4556POPC   C2B18764  13.681  40.281   8.250
 4556POPC   C3B18765  13.683  40.236   7.950
 4556POPC   C4B18766  13.696  40.291   7.650
 4557POPC   NC318767  36.106  15.951   9.450
 4557POPC   PO418768  36.083  15.962   9.150
 4557POPC   GL118769  36.170  15.959   8.850
 4557POPC   GL218770  36.261  16.056   8.850
 4557POPC   C1A18771  36.119  15.952   8.550
 4557POPC   D2A18772  36.172  15.917   8.250
 4557POPC   C3A18773  36.176  16.002   7.950
 4557POPC   C4A18774  36.083  15.930   7.650
 4557POPC   C1B18775  36.333  16.073   8.550
 4557POPC   C2B18776  36.360  16.056   8.250
 4557POPC   C3B18777  36.330  16.037   7.950
 4557POPC   C4B18778  36.361  16.072   7.650
 4558POPC   NC318779  36.094  19.083   9.450
 4558POPC   PO418780  36.142  19.092   9.150
 4558POPC   GL118781  36.137  19.101   8.850
 4558POPC   GL218782  36.067  18.895   8.850
 4558POPC   C1A18783  36.164  19.077   8.550
 4558POPC   D2A18784  36.151  19.023   8.250
 4558POPC   C3A18785  36.085  19.029   7.950
 4558POPC   C4A18786  36.078  19.105   7.650
 4558POPC   C1B18787  36.064  18.856   8.550
 4558POPC   C2B18788  35.999  18.862   8.250
 4558POPC   C3B18789  35.994  18.831   7.950
 4558POPC   C4B18790  35.987  18.847   7.650
 4559POPC   NC318791  22.195  19.807   9.450
 4559POPC   PO418792  22.145  19.822   9.150
 4559POPC   GL118793  22.169  19.786   8.850
 4559POPC   GL218794  22.119  19.980   8.850
 4559POPC   C1A18795  22.136  19.801   8.550
 4559POPC   D2A18796  22.155  19.845   8.250
 4559POPC   C3A18797  22.136  19.789   7.950
 4559POPC   C4A18798  22.127  19.786   7.650
 4559POPC   C1B18799  22.203  20.132   8.550
 4559POPC   C2B18800  22.170  20.053   8.250
 4559POPC   C3B18801  22.176  20.062   7.950
 4559POPC   C4B18802  22.209  20.036   7.650
 4560POPC   NC318803  33.013   5.898   9.450
 4560POPC   PO418804  32.976   5.917   9.150
 4560POPC   GL118805  33.067   5.880   8.850
 4560POPC   GL218806  32.876   5.770   8.850
 4560POPC   C1A18807  33.045   5.821   8.550
 4560POPC   D2A18808  33.006   5.841   8.250
 4560POPC   C3A18809  32.993   5.878   7.950
 4560POPC   C4A18810  32.977   5.867   7.650
 4560POPC   C1B18811  32.824   5.750   8.550
 4560POPC   C2B18812  32.850   5.725   8.250
 4560POPC   C3B18813  32.773   5.693   7.950
 4560POPC   C4B18814  32.766   5.734   7.650
 4561POPC   NC318815  23.673   7.451   9.450
 4561POPC   PO418816  23.734   7.408   9.150
 4561POPC   GL118817  23.716   7.377   8.850
 4561POPC   GL218818  23.784   7.257   8.850
 4561POPC   C1A18819  23.736   7.390   8.550
 4561POPC   D2A18820  23.682   7.444   8.250
 4561POPC   C3A18821  23.742   7.461   7.950
 4561POPC   C4A18822  23.671   7.407   7.650
 4561POPC   C1B18823  23.788   7.209   8.550
 4561POPC   C2B18824  23.835   7.177   8.250
 4561POPC   C3B18825  23.751   7.144   7.950
 4561POPC   C4B18826  23.825   7.225   7.650
 4562POPC   NC318827  29.879  26.025   9.450
 4562POPC   PO418828  29.933  26.069   9.150
 4562POPC   GL118829  29.890  25.999   8.850
 4562POPC   GL218830  30.012  26.098   8.850
 4562POPC   C1A18831  29.898  26.023   8.550
 4562POPC   D2A18832  29.942  26.056   8.250
 4562POPC   C3A18833  29.962  26.052   7.950
 4562POPC   C4A18834  29.901  26.056   7.650
 4562POPC   C1B18835  30.045  26.260   8.550
 4562POPC   C2B18836  30.064  26.274   8.250
 4562POPC   C3B18837  30.039  26.225   7.950
 4562POPC   C4B18838  30.061  26.219   7.650
 4563POPC   NC318839  44.651  16.731   9.450
 4563POPC   PO418840  44.668  16.776   9.150
 4563POPC   GL118841  44.632  16.727   8.850
 4563POPC   GL218842  44.601  16.596   8.850
 4563POPC   C1A18843  44.700  16.778   8.550
 4563POPC   D2A18844  44.628  16.700   8.250
 4563POPC   C3A18845  44.668  16.726   7.950
 4563POPC   C4A18846  44.677  16.744   7.650
 4563POPC   C1B18847  44.513  16.554   8.550
 4563POPC   C2B18848  44.484  16.565   8.250
 4563POPC   C3B18849  44.534  16.541   7.950
 4563POPC   C4B18850  44.461  16.601   7.650
 4564POPC   NC318851  43.890   2.799   9.450
 4564POPC   PO418852  43.909   2.734   9.150
 4564POPC   GL118853  43.895   2.721   8.850
 4564POPC   GL218854  44.023   2.855   8.850
 4564POPC   C1A18855  43.915   2.717   8.550
 4564POPC   D2A18856  43.873   2.789   8.250
 4564POPC   C3A18857  43.887   2.721   7.950
 4564POPC   C4A18858  43.886   2.767   7.650
 4564POPC   C1B18859  44.092   2.822   8.550
 4564POPC   C2B18860  44.149   2.819   8.250
 4564POPC   C3B18861  44.133   2.834   7.950
 4564POPC   C4B18862  44.099   2.857   7.650
 4565POPC   NC318863  32.995   1.180   9.450
 4565POPC   PO418864  33.057   1.260   9.150
 4565POPC   GL118865  33.068   1.226   8.850
 4565POPC   GL218866  33.146   1.194   8.850
 4565POPC   C1A18867  33.054   1.227   8.550
 4565POPC   D2A18868  32.989   1.199   8.250
 4565POPC   C3A18869  33.001   1.217   7.950
 4565POPC   C4A18870  32.997   1.188   7.650
 4565POPC   C1B18871  33.279   1.161   8.550
 4565POPC   C2B18872  33.287   1.165   8.250
 4565POPC   C3B18873  33.249   1.146   7.950
 4565POPC   C4B18874  33.236   1.100   7.650
 4566POPC   NC318875   0.436  40.023   9.450
 4566POPC   PO418876   0.452  40.055   9.150
 4566POPC   GL118877   0.432  39.997   8.850
 4566POPC   GL218878   0.324  39.895   8.850
 4566POPC   C1A18879   0.475  40.004   8.550
 4566POPC   D2A18880   0.453  39.960   8.250
 4566POPC   C3A18881   0.396  39.963   7.950
 4566POPC   C4A18882   0.409  40.041   7.650
 4566POPC   C1B18883   0.233  39.796   8.550
 4566POPC   C2B18884   0.300  39.876   8.250
 4566POPC   C3B18885   0.226  39.797   7.950
 4566POPC   C4B18886   0.210  39.825   7.650
 4567POPC   NC318887  19.023  26.784   9.450
 4567POPC   PO418888  19.032  26.861   9.150
 4567POPC   GL118889  19.018  26.820   8.850
 4567POPC   GL218890  19.209  26.731   8.850
 4567POPC   C1A18891  19.083  26.848   8.550
 4567POPC   D2A18892  19.017  26.791   8.250
 4567POPC   C3A18893  19.056  26.818   7.950
 4567POPC   C4A18894  19.059  26.797   7.650
 4567POPC   C1B18895  19.311  26.699   8.550
 4567POPC   C2B18896  19.312  26.695   8.250
 4567POPC   C3B18897  19.250  26.709   7.950
 4567POPC   C4B18898  19.342  26.758   7.650
 4568POPC   NC318899  32.248  42.289   9.450
 4568POPC   PO418900  32.247  42.367   9.150
 4568POPC   GL118901  32.238  42.361   8.850
 4568POPC   GL218902  32.314  42.194   8.850
 4568POPC   C1A18903  32.217  42.307   8.550
 4568POPC   D2A18904  32.218  42.335   8.250
 4568POPC   C3A18905  32.240  42.376   7.950
 4568POPC   C4A18906  32.211  42.299   7.650
 4568POPC   C1B18907  32.428  42.120   8.550
 4568POPC   C2B18908  32.429  42.156   8.250
 4568POPC   C3B18909  32.445  42.160   7.950
 4568POPC   C4B18910  32.427  42.123   7.650
 4569POPC   NC318911  36.090  21.377   9.450
 4569POPC   PO418912  36.134  21.351   9.150
 4569POPC   GL118913  36.172  21.355   8.850
 4569POPC   GL218914  36.262  21.367   8.850
 4569POPC   C1A18915  36.108  21.373   8.550
 4569POPC   D2A18916  36.158  21.399   8.250
 4569POPC   C3A18917  36.156  21.380   7.950
 4569POPC   C4A18918  36.146  21.372   7.650
 4569POPC   C1B18919  36.343  21.358   8.550
 4569POPC   C2B18920  36.361  21.374   8.250
 4569POPC   C3B18921  36.400  21.366   7.950
 4569POPC   C4B18922  36.417  21.328   7.650
 4570POPC   NC318923   8.184  26.011   9.450
 4570POPC   PO418924   8.175  26.067   9.150
 4570POPC   GL118925   8.162  26.012   8.850
 4570POPC   GL218926   8.102  26.027   8.850
 4570POPC   C1A18927   8.164  26.022   8.550
 4570POPC   D2A18928   8.215  26.040   8.250
 4570POPC   C3A18929   8.162  26.071   7.950
 4570POPC   C4A18930   8.238  26.063   7.650
 4570POPC   C1B18931   7.910  26.009   8.550
 4570POPC   C2B18932   7.903  26.075   8.250
 4570POPC   C3B18933   7.933  26.015   7.950
 4570POPC   C4B18934   7.903  26.013   7.650
 4571POPC   NC318935  38.489  15.200   9.450
 4571POPC   PO418936  38.505  15.174   9.150
 4571POPC   GL118937  38.488  15.207   8.850
 4571POPC   GL218938  38.549  15.306   8.850
 4571POPC   C1A18939  38.479  15.190   8.550
 4571POPC   D2A18940  38.485  15.190   8.250
 4571POPC   C3A18941  38.499  15.184   7.950
 4571POPC   C4A18942  38.417  15.166   7.650
 4571POPC   C1B18943  38.558  15.431   8.550
 4571POPC   C2B18944  38.535  15.420   8.250
 4571POPC   C3B18945  38.502  15.415   7.950
 4571POPC   C4B18946  38.594  15.430   7.650
 4572POPC   NC318947  26.850  40.795   9.450
 4572POPC   PO418948  26.859  40.783   9.150
 4572POPC   GL118949  26.860  40.758   8.850
 4572POPC   GL218950  26.795  40.657   8.850
 4572POPC   C1A18951  26.844  40.828   8.550
 4572POPC   D2A18952  26.797  40.817   8.250
 4572POPC   C3A18953  26.825  40.802   7.950
 4572POPC   C4A18954  26.854  40.751   7.650
 4572POPC   C1B18955  26.809  40.526   8.550
 4572POPC   C2B18956  26.766  40.586   8.250
 4572POPC   C3B18957  26.749  40.589   7.950
 4572POPC   C4B18958  26.709  40.558   7.650
 4573POPC   NC318959  44.618  37.633   9.450
 4573POPC   PO418960  44.707  37.728   9.150
 4573POPC   GL118961  44.674  37.682   8.850
 4573POPC   GL218962  44.622  37.764   8.850
 4573POPC   C1A18963  44.614  37.663   8.550
 4573POPC   D2A18964  44.627  37.642   8.250
 4573POPC   C3A18965  44.642  37.685   7.950
 4573POPC   C4A18966  44.638  37.635   7.650
 4573POPC   C1B18967  44.562  37.956   8.550
 4573POPC   C2B18968  44.529  37.877   8.250
 4573POPC   C3B18969  44.585  37.897   7.950
 4573POPC   C4B18970  44.529  37.935   7.650
 4574POPC   NC318971  33.043  34.527   9.450
 4574POPC   PO418972  33.022  34.588   9.150
 4574POPC   GL118973  33.071  34.559   8.850
 4574POPC   GL218974  33.031  34.430   8.850
 4574POPC   C1A18975  32.982  34.560   8.550
 4574POPC   D2A18976  32.975  34.582   8.250
 4574POPC   C3A18977  32.997  34.622   7.950
 4574POPC   C4A18978  33.062  34.561   7.650
 4574POPC   C1B18979  32.978  34.339   8.550
 4574POPC   C2B18980  33.013  34.283   8.250
 4574POPC   C3B18981  32.999  34.347   7.950
 4574POPC   C4B18982  32.973  34.316   7.650
 4575POPC   NC318983  22.919  30.661   9.450
 4575POPC   PO418984  22.950  30.667   9.150
 4575POPC   GL118985  22.957  30.661   8.850
 4575POPC   GL218986  22.789  30.609   8.850
 4575POPC   C1A18987  22.943  30.742   8.550
 4575POPC   D2A18988  22.919  30.740   8.250
 4575POPC   C3A18989  22.962  30.713   7.950
 4575POPC   C4A18990  22.888  30.682   7.650
 4575POPC   C1B18991  22.716  30.596   8.550
 4575POPC   C2B18992  22.757  30.563   8.250
 4575POPC   C3B18993  22.749  30.549   7.950
 4575POPC   C4B18994  22.738  30.626   7.650
 4576POPC   NC318995  36.870  22.120   9.450
 4576POPC   PO418996  36.941  22.169   9.150
 4576POPC   GL118997  36.947  22.164   8.850
 4576POPC   GL218998  36.959  22.030   8.850
 4576POPC   C1A18999  36.870  22.186   8.550
 4576POPC   D2A19000  36.888  22.169   8.250
 4576POPC   C3A19001  36.924  22.202   7.950
 4576POPC   C4A19002  36.900  22.194   7.650
 4576POPC   C1B19003  37.031  21.986   8.550
 4576POPC   C2B19004  37.052  21.937   8.250
 4576POPC   C3B19005  37.074  21.976   7.950
 4576POPC   C4B19006  37.073  22.014   7.650
 4577POPC   NC319007  19.098  15.938   9.450
 4577POPC   PO419008  19.096  15.988   9.150
 4577POPC   GL119009  19.073  15.974   8.850
 4577POPC   GL219010  19.059  15.792   8.850
 4577POPC   C1A19011  19.059  15.956   8.550
 4577POPC   D2A19012  19.063  15.933   8.250
 4577POPC   C3A19013  19.105  15.993   7.950
 4577POPC   C4A19014  19.075  16.000   7.650
 4577POPC   C1B19015  19.116  15.696   8.550
 4577POPC   C2B19016  19.077  15.750   8.250
 4577POPC   C3B19017  19.048  15.679   7.950
 4577POPC   C4B19018  19.067  15.733   7.650
 4578POPC   NC319019  13.633   1.209   9.450
 4578POPC   PO419020  13.587   1.190   9.150
 4578POPC   GL119021  13.642   1.166   8.850
 4578POPC   GL219022  13.722   1.264   8.850
 4578POPC   C1A19023  13.651   1.235   8.550
 4578POPC   D2A19024  13.649   1.182   8.250
 4578POPC   C3A19025  13.585   1.250   7.950
 4578POPC   C4A19026  13.624   1.173   7.650
 4578POPC   C1B19027  13.900   1.351   8.550
 4578POPC   C2B19028  13.887   1.362   8.250
 4578POPC   C3B19029  13.865   1.344   7.950
 4578POPC   C4B19030  13.806   1.283   7.650
 4579POPC   NC319031  40.740  27.612   9.450
 4579POPC   PO419032  40.805  27.565   9.150
 4579POPC   GL119033  40.805  27.608   8.850
 4579POPC   GL219034  40.898  27.627   8.850
 4579POPC   C1A19035  40.807  27.629   8.550
 4579POPC   D2A19036  40.786  27.569   8.250
 4579POPC   C3A19037  40.779  27.601   7.950
 4579POPC   C4A19038  40.735  27.633   7.650
 4579POPC   C1B19039  41.021  27.786   8.550
 4579POPC   C2B19040  40.953  27.742   8.250
 4579POPC   C3B19041  41.011  27.719   7.950
 4579POPC   C4B19042  40.934  27.772   7.650
 4580POPC   NC319043  23.713  41.592   9.450
 4580POPC   PO419044  23.697  41.562   9.150
 4580POPC   GL119045  23.714  41.516   8.850
 4580POPC   GL219046  23.602  41.442   8.850
 4580POPC   C1A19047  23.744  41.543   8.550
 4580POPC   D2A19048  23.671  41.510   8.250
 4580POPC   C3A19049  23.721  41.538   7.950
 4580POPC   C4A19050  23.719  41.549   7.650
 4580POPC   C1B19051  23.505  41.362   8.550
 4580POPC   C2B19052  23.581  41.330   8.250
 4580POPC   C3B19053  23.530  41.349   7.950
 4580POPC   C4B19054  23.564  41.350   7.650
 4581POPC   NC319055  21.342  29.128   9.450
 4581POPC   PO419056  21.384  29.104   9.150
 4581POPC   GL119057  21.413  29.111   8.850
 4581POPC   GL219058  21.534  29.216   8.850
 4581POPC   C1A19059  21.406  29.148   8.550
 4581POPC   D2A19060  21.394  29.114   8.250
 4581POPC   C3A19061  21.395  29.178   7.950
 4581POPC   C4A19062  21.350  29.107   7.650
 4581POPC   C1B19063  21.553  29.237   8.550
 4581POPC   C2B19064  21.586  29.249   8.250
 4581POPC   C3B19065  21.636  29.295   7.950
 4581POPC   C4B19066  21.563  29.276   7.650
 4582POPC   NC319067   2.013  43.145   9.450
 4582POPC   PO419068   1.944  43.112   9.150
 4582POPC   GL119069   2.010  43.108   8.850
 4582POPC   GL219070   1.988  43.277   8.850
 4582POPC   C1A19071   1.987  43.146   8.550
 4582POPC   D2A19072   1.972  43.136   8.250
 4582POPC   C3A19073   1.992  43.119   7.950
 4582POPC   C4A19074   1.999  43.128   7.650
 4582POPC   C1B19075   1.895  43.322   8.550
 4582POPC   C2B19076   1.969  43.355   8.250
 4582POPC   C3B19077   1.930  43.315   7.950
 4582POPC   C4B19078   1.921  43.335   7.650
 4583POPC   NC319079   2.029   8.225   9.450
 4583POPC   PO419080   2.022   8.166   9.150
 4583POPC   GL119081   1.942   8.197   8.850
 4583POPC   GL219082   1.863   8.190   8.850
 4583POPC   C1A19083   2.033   8.178   8.550
 4583POPC   D2A19084   2.023   8.148   8.250
 4583POPC   C3A19085   2.039   8.243   7.950
 4583POPC   C4A19086   1.982   8.163   7.650
 4583POPC   C1B19087   1.792   8.272   8.550
 4583POPC   C2B19088   1.721   8.291   8.250
 4583POPC   C3B19089   1.783   8.272   7.950
 4583POPC   C4B19090   1.759   8.296   7.650
 4584POPC   NC319091  16.002  20.605   9.450
 4584POPC   PO419092  15.931  20.633   9.150
 4584POPC   GL119093  16.001  20.634   8.850
 4584POPC   GL219094  16.047  20.566   8.850
 4584POPC   C1A19095  15.965  20.646   8.550
 4584POPC   D2A19096  15.933  20.619   8.250
 4584POPC   C3A19097  15.987  20.610   7.950
 4584POPC   C4A19098  15.918  20.579   7.650
 4584POPC   C1B19099  16.166  20.542   8.550
 4584POPC   C2B19100  16.166  20.534   8.250
 4584POPC   C3B19101  16.217  20.556   7.950
 4584POPC   C4B19102  16.166  20.531   7.650
 4585POPC   NC319103  18.301  22.184   9.450
 4585POPC   PO419104  18.235  22.184   9.150
 4585POPC   GL119105  18.244  22.155   8.850
 4585POPC   GL219106  18.339  22.037   8.850
 4585POPC   C1A19107  18.247  22.166   8.550
 4585POPC   D2A19108  18.263  22.186   8.250
 4585POPC   C3A19109  18.305  22.169   7.950
 4585POPC   C4A19110  18.327  22.183   7.650
 4585POPC   C1B19111  18.484  22.013   8.550
 4585POPC   C2B19112  18.487  21.987   8.250
 4585POPC   C3B19113  18.454  21.956   7.950
 4585POPC   C4B19114  18.430  21.994   7.650
 4586POPC   NC319115  34.612   5.901   9.450
 4586POPC   PO419116  34.610   5.885   9.150
 4586POPC   GL119117  34.555   5.899   8.850
 4586POPC   GL219118  34.606   5.758   8.850
 4586POPC   C1A19119  34.552   5.822   8.550
 4586POPC   D2A19120  34.603   5.915   8.250
 4586POPC   C3A19121  34.616   5.883   7.950
 4586POPC   C4A19122  34.613   5.822   7.650
 4586POPC   C1B19123  34.685   5.662   8.550
 4586POPC   C2B19124  34.668   5.681   8.250
 4586POPC   C3B19125  34.646   5.582   7.950
 4586POPC   C4B19126  34.656   5.669   7.650
 4587POPC   NC319127  23.712  25.999   9.450
 4587POPC   PO419128  23.711  25.992   9.150
 4587POPC   GL119129  23.683  26.073   8.850
 4587POPC   GL219130  23.589  26.129   8.850
 4587POPC   C1A19131  23.695  26.012   8.550
 4587POPC   D2A19132  23.692  26.008   8.250
 4587POPC   C3A19133  23.699  26.063   7.950
 4587POPC   C4A19134  23.737  26.052   7.650
 4587POPC   C1B19135  23.459  26.220   8.550
 4587POPC   C2B19136  23.538  26.144   8.250
 4587POPC   C3B19137  23.487  26.190   7.950
 4587POPC   C4B19138  23.510  26.200   7.650
 4588POPC   NC319139  12.895  43.114   9.450
 4588POPC   PO419140  12.864  43.065   9.150
 4588POPC   GL119141  12.831  43.107   8.850
 4588POPC   GL219142  12.825  43.244   8.850
 4588POPC   C1A19143  12.808  43.112   8.550
 4588POPC   D2A19144  12.876  43.104   8.250
 4588POPC   C3A19145  12.849  43.121   7.950
 4588POPC   C4A19146  12.893  43.082   7.650
 4588POPC   C1B19147  12.886  43.379   8.550
 4588POPC   C2B19148  12.842  43.363   8.250
 4588POPC   C3B19149  12.884  43.384   7.950
 4588POPC   C4B19150  12.838  43.397   7.650
 4589POPC   NC319151  13.625  43.065   9.450
 4589POPC   PO419152  13.629  43.111   9.150
 4589POPC   GL119153  13.644  43.147   8.850
 4589POPC   GL219154  13.455  43.137   8.850
 4589POPC   C1A19155  13.658  43.070   8.550
 4589POPC   D2A19156  13.640  43.156   8.250
 4589POPC   C3A19157  13.662  43.106   7.950
 4589POPC   C4A19158  13.672  43.109   7.650
 4589POPC   C1B19159  13.387  43.132   8.550
 4589POPC   C2B19160  13.363  43.077   8.250
 4589POPC   C3B19161  13.338  43.136   7.950
 4589POPC   C4B19162  13.406  43.099   7.650
 4590POPC   NC319163   5.868  26.011   9.450
 4590POPC   PO419164   5.835  26.037   9.150
 4590POPC   GL119165   5.884  26.002   8.850
 4590POPC   GL219166   5.942  25.993   8.850
 4590POPC   C1A19167   5.918  26.090   8.550
 4590POPC   D2A19168   5.869  26.090   8.250
 4590POPC   C3A19169   5.901  26.049   7.950
 4590POPC   C4A19170   5.897  26.007   7.650
 4590POPC   C1B19171   6.092  25.887   8.550
 4590POPC   C2B19172   6.057  25.899   8.250
 4590POPC   C3B19173   6.087  25.932   7.950
 4590POPC   C4B19174   6.104  25.871   7.650
 4591POPC   NC319175  19.064  12.857   9.450
 4591POPC   PO419176  19.015  12.857   9.150
 4591POPC   GL119177  19.067  12.893   8.850
 4591POPC   GL219178  19.024  12.680   8.850
 4591POPC   C1A19179  19.022  12.880   8.550
 4591POPC   D2A19180  19.027  12.824   8.250
 4591POPC   C3A19181  19.095  12.877   7.950
 4591POPC   C4A19182  19.044  12.858   7.650
 4591POPC   C1B19183  19.119  12.563   8.550
 4591POPC   C2B19184  19.036  12.614   8.250
 4591POPC   C3B19185  19.119  12.566   7.950
 4591POPC   C4B19186  19.076  12.600   7.650
 4592POPC   NC319187  37.709   4.355   9.450
 4592POPC   PO419188  37.639   4.332   9.150
 4592POPC   GL119189  37.632   4.276   8.850
 4592POPC   GL219190  37.628   4.186   8.850
 4592POPC   C1A19191  37.654   4.364   8.550
 4592POPC   D2A19192  37.683   4.301   8.250
 4592POPC   C3A19193  37.722   4.282   7.950
 4592POPC   C4A19194  37.701   4.342   7.650
 4592POPC   C1B19195  37.547   4.062   8.550
 4592POPC   C2B19196  37.531   4.060   8.250
 4592POPC   C3B19197  37.531   4.128   7.950
 4592POPC   C4B19198  37.507   4.085   7.650
 4593POPC   NC319199  35.328  22.149   9.450
 4593POPC   PO419200  35.342  22.121   9.150
 4593POPC   GL119201  35.330  22.200   8.850
 4593POPC   GL219202  35.273  22.094   8.850
 4593POPC   C1A19203  35.366  22.173   8.550
 4593POPC   D2A19204  35.323  22.204   8.250
 4593POPC   C3A19205  35.345  22.149   7.950
 4593POPC   C4A19206  35.351  22.152   7.650
 4593POPC   C1B19207  35.196  21.943   8.550
 4593POPC   C2B19208  35.209  21.985   8.250
 4593POPC   C3B19209  35.183  21.933   7.950
 4593POPC   C4B19210  35.257  21.909   7.650
 4594POPC   NC319211   7.461  16.001   9.450
 4594POPC   PO419212   7.420  15.957   9.150
 4594POPC   GL119213   7.413  15.951   8.850
 4594POPC   GL219214   7.308  16.062   8.850
 4594POPC   C1A19215   7.444  15.915   8.550
 4594POPC   D2A19216   7.447  15.968   8.250
 4594POPC   C3A19217   7.383  16.001   7.950
 4594POPC   C4A19218   7.468  15.967   7.650
 4594POPC   C1B19219   7.233  16.074   8.550
 4594POPC   C2B19220   7.171  16.099   8.250
 4594POPC   C3B19221   7.238  16.132   7.950
 4594POPC   C4B19222   7.225  16.098   7.650
 4595POPC   NC319223  19.802  21.423   9.450
 4595POPC   PO419224  19.824  21.415   9.150
 4595POPC   GL119225  19.815  21.358   8.850
 4595POPC   GL219226  19.860  21.306   8.850
 4595POPC   C1A19227  19.845  21.418   8.550
 4595POPC   D2A19228  19.829  21.400   8.250
 4595POPC   C3A19229  19.797  21.346   7.950
 4595POPC   C4A19230  19.800  21.378   7.650
 4595POPC   C1B19231  19.893  21.198   8.550
 4595POPC   C2B19232  19.906  21.163   8.250
 4595POPC   C3B19233  19.897  21.155   7.950
 4595POPC   C4B19234  19.919  21.114   7.650
 4596POPC   NC319235  33.803   9.707   9.450
 4596POPC   PO419236  33.771   9.709   9.150
 4596POPC   GL119237  33.843   9.745   8.850
 4596POPC   GL219238  33.921   9.631   8.850
 4596POPC   C1A19239  33.849   9.747   8.550
 4596POPC   D2A19240  33.827   9.785   8.250
 4596POPC   C3A19241  33.811   9.749   7.950
 4596POPC   C4A19242  33.817   9.710   7.650
 4596POPC   C1B19243  33.988   9.611   8.550
 4596POPC   C2B19244  33.945   9.566   8.250
 4596POPC   C3B19245  33.985   9.581   7.950
 4596POPC   C4B19246  33.951   9.592   7.650
 4597POPC   NC319247  43.113   0.430   9.450
 4597POPC   PO419248  43.139   0.487   9.150
 4597POPC   GL119249  43.098   0.485   8.850
 4597POPC   GL219250  43.192   0.314   8.850
 4597POPC   C1A19251  43.103   0.421   8.550
 4597POPC   D2A19252  43.125   0.488   8.250
 4597POPC   C3A19253  43.128   0.481   7.950
 4597POPC   C4A19254  43.084   0.432   7.650
 4597POPC   C1B19255  43.300   0.293   8.550
 4597POPC   C2B19256  43.273   0.224   8.250
 4597POPC   C3B19257  43.254   0.226   7.950
 4597POPC   C4B19258  43.316   0.206   7.650
 4598POPC   NC319259   3.493  40.036   9.450
 4598POPC   PO419260   3.535  39.971   9.150
 4598POPC   GL119261   3.557  40.055   8.850
 4598POPC   GL219262   3.690  40.019   8.850
 4598POPC   C1A19263   3.585  39.974   8.550
 4598POPC   D2A19264   3.529  39.964   8.250
 4598POPC   C3A19265   3.569  40.047   7.950
 4598POPC   C4A19266   3.551  40.014   7.650
 4598POPC   C1B19267   3.782  40.004   8.550
 4598POPC   C2B19268   3.785  39.983   8.250
 4598POPC   C3B19269   3.800  39.934   7.950
 4598POPC   C4B19270   3.831  39.996   7.650
 4599POPC   NC319271  43.847   8.166   9.450
 4599POPC   PO419272  43.850   8.214   9.150
 4599POPC   GL119273  43.900   8.189   8.850
 4599POPC   GL219274  43.802   8.305   8.850
 4599POPC   C1A19275  43.888   8.219   8.550
 4599POPC   D2A19276  43.846   8.158   8.250
 4599POPC   C3A19277  43.879   8.246   7.950
 4599POPC   C4A19278  43.879   8.170   7.650
 4599POPC   C1B19279  43.719   8.361   8.550
 4599POPC   C2B19280  43.786   8.377   8.250
 4599POPC   C3B19281  43.713   8.434   7.950
 4599POPC   C4B19282  43.765   8.440   7.650
 4600POPC   NC319283  24.480  38.415   9.450
 4600POPC   PO419284  24.474  38.482   9.150
 4600POPC   GL119285  24.497  38.409   8.850
 4600POPC   GL219286  24.420  38.571   8.850
 4600POPC   C1A19287  24.455  38.501   8.550
 4600POPC   D2A19288  24.442  38.489   8.250
 4600POPC   C3A19289  24.507  38.467   7.950
 4600POPC   C4A19290  24.468  38.407   7.650
 4600POPC   C1B19291  24.240  38.588   8.550
 4600POPC   C2B19292  24.313  38.577   8.250
 4600POPC   C3B19293  24.285  38.542   7.950
 4600POPC   C4B19294  24.288  38.551   7.650
 4601POPC   NC319295   5.055   6.682   9.450
 4601POPC   PO419296   5.108   6.683   9.150
 4601POPC   GL119297   5.096   6.631   8.850
 4601POPC   GL219298   5.143   6.548   8.850
 4601POPC   C1A19299   5.068   6.648   8.550
 4601POPC   D2A19300   5.060   6.635   8.250
 4601POPC   C3A19301   5.078   6.685   7.950
 4601POPC   C4A19302   5.076   6.686   7.650
 4601POPC   C1B19303   5.065   6.444   8.550
 4601POPC   C2B19304   5.127   6.430   8.250
 4601POPC   C3B19305   5.081   6.399   7.950
 4601POPC   C4B19306   5.087   6.355   7.650
 4602POPC   NC319307  16.700  12.122   9.450
 4602POPC   PO419308  16.750  12.119   9.150
 4602POPC   GL119309  16.752  12.030   8.850
 4602POPC   GL219310  16.695  12.212   8.850
 4602POPC   C1A19311  16.692  12.043   8.550
 4602POPC   D2A19312  16.736  12.079   8.250
 4602POPC   C3A19313  16.719  12.102   7.950
 4602POPC   C4A19314  16.767  12.080   7.650
 4602POPC   C1B19315  16.750  12.288   8.550
 4602POPC   C2B19316  16.733  12.332   8.250
 4602POPC   C3B19317  16.674  12.312   7.950
 4602POPC   C4B19318  16.696  12.347   7.650
 4603POPC   NC319319   7.372  19.066   9.450
 4603POPC   PO419320   7.374  19.052   9.150
 4603POPC   GL119321   7.400  19.036   8.850
 4603POPC   GL219322   7.554  19.015   8.850
 4603POPC   C1A19323   7.432  19.084   8.550
 4603POPC   D2A19324   7.460  19.058   8.250
 4603POPC   C3A19325   7.439  19.090   7.950
 4603POPC   C4A19326   7.456  19.103   7.650
 4603POPC   C1B19327   7.664  18.953   8.550
 4603POPC   C2B19328   7.631  18.977   8.250
 4603POPC   C3B19329   7.678  18.947   7.950
 4603POPC   C4B19330   7.699  18.985   7.650
 4604POPC   NC319331  43.080  29.948   9.450
 4604POPC   PO419332  43.146  29.889   9.150
 4604POPC   GL119333  43.093  29.948   8.850
 4604POPC   GL219334  42.974  29.910   8.850
 4604POPC   C1A19335  43.064  29.954   8.550
 4604POPC   D2A19336  43.094  29.920   8.250
 4604POPC   C3A19337  43.071  29.968   7.950
 4604POPC   C4A19338  43.160  29.926   7.650
 4604POPC   C1B19339  42.885  29.859   8.550
 4604POPC   C2B19340  42.836  29.855   8.250
 4604POPC   C3B19341  42.922  29.830   7.950
 4604POPC   C4B19342  42.851  29.813   7.650
 4605POPC   NC319343  25.291  18.307   9.450
 4605POPC   PO419344  25.228  18.280   9.150
 4605POPC   GL119345  25.271  18.255   8.850
 4605POPC   GL219346  25.281  18.163   8.850
 4605POPC   C1A19347  25.262  18.281   8.550
 4605POPC   D2A19348  25.275  18.290   8.250
 4605POPC   C3A19349  25.268  18.236   7.950
 4605POPC   C4A19350  25.249  18.328   7.650
 4605POPC   C1B19351  25.340  18.013   8.550
 4605POPC   C2B19352  25.337  18.089   8.250
 4605POPC   C3B19353  25.392  18.023   7.950
 4605POPC   C4B19354  25.376  18.047   7.650
 4606POPC   NC319355  26.084  39.190   9.450
 4606POPC   PO419356  26.075  39.215   9.150
 4606POPC   GL119357  26.008  39.193   8.850
 4606POPC   GL219358  26.165  39.245   8.850
 4606POPC   C1A19359  26.020  39.223   8.550
 4606POPC   D2A19360  26.007  39.209   8.250
 4606POPC   C3A19361  26.022  39.265   7.950
 4606POPC   C4A19362  26.079  39.275   7.650
 4606POPC   C1B19363  26.291  39.289   8.550
 4606POPC   C2B19364  26.289  39.256   8.250
 4606POPC   C3B19365  26.311  39.253   7.950
 4606POPC   C4B19366  26.303  39.260   7.650
 4607POPC   NC319367  36.137  26.812   9.450
 4607POPC   PO419368  36.141  26.811   9.150
 4607POPC   GL119369  36.160  26.782   8.850
 4607POPC   GL219370  36.257  26.741   8.850
 4607POPC   C1A19371  36.140  26.826   8.550
 4607POPC   D2A19372  36.080  26.810   8.250
 4607POPC   C3A19373  36.109  26.816   7.950
 4607POPC   C4A19374  36.118  26.844   7.650
 4607POPC   C1B19375  36.315  26.668   8.550
 4607POPC   C2B19376  36.274  26.616   8.250
 4607POPC   C3B19377  36.245  26.579   7.950
 4607POPC   C4B19378  36.275  26.653   7.650
 4608POPC   NC319379   2.809  20.584   9.450
 4608POPC   PO419380   2.758  20.600   9.150
 4608POPC   GL119381   2.718  20.620   8.850
 4608POPC   GL219382   2.740  20.738   8.850
 4608POPC   C1A19383   2.751  20.653   8.550
 4608POPC   D2A19384   2.720  20.597   8.250
 4608POPC   C3A19385   2.728  20.619   7.950
 4608POPC   C4A19386   2.727  20.643   7.650
 4608POPC   C1B19387   2.839  20.860   8.550
 4608POPC   C2B19388   2.759  20.859   8.250
 4608POPC   C3B19389   2.759  20.824   7.950
 4608POPC   C4B19390   2.835  20.870   7.650
 4609POPC   NC319391  30.702  21.404   9.450
 4609POPC   PO419392  30.659  21.384   9.150
 4609POPC   GL119393  30.706  21.423   8.850
 4609POPC   GL219394  30.794  21.401   8.850
 4609POPC   C1A19395  30.691  21.350   8.550
 4609POPC   D2A19396  30.649  21.347   8.250
 4609POPC   C3A19397  30.739  21.432   7.950
 4609POPC   C4A19398  30.724  21.371   7.650
 4609POPC   C1B19399  30.981  21.319   8.550
 4609POPC   C2B19400  30.981  21.349   8.250
 4609POPC   C3B19401  30.931  21.353   7.950
 4609POPC   C4B19402  30.957  21.293   7.650
 4610POPC   NC319403   0.453   7.445   9.450
 4610POPC   PO419404   0.397   7.386   9.150
 4610POPC   GL119405   0.426   7.388   8.850
 4610POPC   GL219406   0.312   7.370   8.850
 4610POPC   C1A19407   0.391   7.463   8.550
 4610POPC   D2A19408   0.462   7.383   8.250
 4610POPC   C3A19409   0.396   7.438   7.950
 4610POPC   C4A19410   0.453   7.423   7.650
 4610POPC   C1B19411   0.183   7.446   8.550
 4610POPC   C2B19412   0.222   7.438   8.250
 4610POPC   C3B19413   0.230   7.418   7.950
 4610POPC   C4B19414   0.159   7.404   7.650
 4611POPC   NC319415  22.905  41.528   9.450
 4611POPC   PO419416  22.967  41.580   9.150
 4611POPC   GL119417  22.948  41.554   8.850
 4611POPC   GL219418  22.781  41.555   8.850
 4611POPC   C1A19419  22.942  41.542   8.550
 4611POPC   D2A19420  22.913  41.520   8.250
 4611POPC   C3A19421  22.903  41.524   7.950
 4611POPC   C4A19422  22.935  41.528   7.650
 4611POPC   C1B19423  22.658  41.582   8.550
 4611POPC   C2B19424  22.688  41.500   8.250
 4611POPC   C3B19425  22.649  41.491   7.950
 4611POPC   C4B19426  22.693  41.543   7.650
 4612POPC   NC319427  12.083   8.989   9.450
 4612POPC   PO419428  12.097   8.959   9.150
 4612POPC   GL119429  12.117   8.951   8.850
 4612POPC   GL219430  11.912   9.007   8.850
 4612POPC   C1A19431  12.117   9.016   8.550
 4612POPC   D2A19432  12.065   8.975   8.250
 4612POPC   C3A19433  12.065   8.927   7.950
 4612POPC   C4A19434  12.068   8.947   7.650
 4612POPC   C1B19435  11.840   9.010   8.550
 4612POPC   C2B19436  11.793   9.019   8.250
 4612POPC   C3B19437  11.853   8.993   7.950
 4612POPC   C4B19438  11.789   8.965   7.650
 4613POPC   NC319439  18.270  39.213   9.450
 4613POPC   PO419440  18.284  39.263   9.150
 4613POPC   GL119441  18.245  39.189   8.850
 4613POPC   GL219442  18.397  39.210   8.850
 4613POPC   C1A19443  18.303  39.213   8.550
 4613POPC   D2A19444  18.325  39.236   8.250
 4613POPC   C3A19445  18.252  39.258   7.950
 4613POPC   C4A19446  18.283  39.272   7.650
 4613POPC   C1B19447  18.509  39.304   8.550
 4613POPC   C2B19448  18.480  39.289   8.250
 4613POPC   C3B19449  18.560  39.237   7.950
 4613POPC   C4B19450  18.500  39.334   7.650
 4614POPC   NC319451  33.008  31.471   9.450
 4614POPC   PO419452  32.975  31.519   9.150
 4614POPC   GL119453  33.046  31.486   8.850
 4614POPC   GL219454  33.048  31.579   8.850
 4614POPC   C1A19455  32.998  31.518   8.550
 4614POPC   D2A19456  33.046  31.460   8.250
 4614POPC   C3A19457  33.037  31.510   7.950
 4614POPC   C4A19458  33.030  31.436   7.650
 4614POPC   C1B19459  33.098  31.756   8.550
 4614POPC   C2B19460  33.039  31.687   8.250
 4614POPC   C3B19461  33.124  31.681   7.950
 4614POPC   C4B19462  33.058  31.755   7.650
 4615POPC   NC319463  19.039  18.241   9.450
 4615POPC   PO419464  19.056  18.240   9.150
 4615POPC   GL119465  19.102  18.286   8.850
 4615POPC   GL219466  19.064  18.130   8.850
 4615POPC   C1A19467  19.017  18.254   8.550
 4615POPC   D2A19468  19.025  18.260   8.250
 4615POPC   C3A19469  19.094  18.259   7.950
 4615POPC   C4A19470  19.032  18.328   7.650
 4615POPC   C1B19471  19.154  18.082   8.550
 4615POPC   C2B19472  19.105  18.072   8.250
 4615POPC   C3B19473  19.127  18.057   7.950
 4615POPC   C4B19474  19.103  18.024   7.650
 4616POPC   NC319475  32.259  33.826   9.450
 4616POPC   PO419476  32.226  33.765   9.150
 4616POPC   GL119477  32.218  33.758   8.850
 4616POPC   GL219478  32.235  33.906   8.850
 4616POPC   C1A19479  32.231  33.820   8.550
 4616POPC   D2A19480  32.225  33.761   8.250
 4616POPC   C3A19481  32.287  33.824   7.950
 4616POPC   C4A19482  32.218  33.834   7.650
 4616POPC   C1B19483  32.198  34.025   8.550
 4616POPC   C2B19484  32.165  34.000   8.250
 4616POPC   C3B19485  32.148  34.038   7.950
 4616POPC   C4B19486  32.185  34.006   7.650
 4617POPC   NC319487  16.725  15.219   9.450
 4617POPC   PO419488  16.741  15.163   9.150
 4617POPC   GL119489  16.744  15.167   8.850
 4617POPC   GL219490  16.816  15.252   8.850
 4617POPC   C1A19491  16.729  15.130   8.550
 4617POPC   D2A19492  16.766  15.130   8.250
 4617POPC   C3A19493  16.683  15.215   7.950
 4617POPC   C4A19494  16.705  15.137   7.650
 4617POPC   C1B19495  16.956  15.320   8.550
 4617POPC   C2B19496  16.961  15.350   8.250
 4617POPC   C3B19497  16.902  15.354   7.950
 4617POPC   C4B19498  16.966  15.317   7.650
 4618POPC   NC319499  43.113  23.688   9.450
 4618POPC   PO419500  43.120  23.746   9.150
 4618POPC   GL119501  43.149  23.707   8.850
 4618POPC   GL219502  43.036  23.678   8.850
 4618POPC   C1A19503  43.128  23.745   8.550
 4618POPC   D2A19504  43.123  23.674   8.250
 4618POPC   C3A19505  43.097  23.756   7.950
 4618POPC   C4A19506  43.124  23.723   7.650
 4618POPC   C1B19507  42.924  23.652   8.550
 4618POPC   C2B19508  42.867  23.579   8.250
 4618POPC   C3B19509  42.916  23.573   7.950
 4618POPC   C4B19510  42.932  23.594   7.650
 4619POPC   NC319511   1.218   3.516   9.450
 4619POPC   PO419512   1.207   3.552   9.150
 4619POPC   GL119513   1.224   3.554   8.850
 4619POPC   GL219514   1.290   3.527   8.850
 4619POPC   C1A19515   1.214   3.589   8.550
 4619POPC   D2A19516   1.230   3.511   8.250
 4619POPC   C3A19517   1.258   3.560   7.950
 4619POPC   C4A19518   1.243   3.563   7.650
 4619POPC   C1B19519   1.446   3.527   8.550
 4619POPC   C2B19520   1.425   3.489   8.250
 4619POPC   C3B19521   1.420   3.462   7.950
 4619POPC   C4B19522   1.467   3.475   7.650
 4620POPC   NC319523   8.234   6.654   9.450
 4620POPC   PO419524   8.206   6.675   9.150
 4620POPC   GL119525   8.214   6.630   8.850
 4620POPC   GL219526   8.229   6.506   8.850
 4620POPC   C1A19527   8.235   6.661   8.550
 4620POPC   D2A19528   8.237   6.599   8.250
 4620POPC   C3A19529   8.179   6.606   7.950
 4620POPC   C4A19530   8.246   6.609   7.650
 4620POPC   C1B19531   8.337   6.458   8.550
 4620POPC   C2B19532   8.336   6.482   8.250
 4620POPC   C3B19533   8.351   6.403   7.950
 4620POPC   C4B19534   8.377   6.428   7.650
 4621POPC   NC319535   5.050  29.891   9.450
 4621POPC   PO419536   5.111  29.944   9.150
 4621POPC   GL119537   5.060  29.924   8.850
 4621POPC   GL219538   5.002  29.965   8.850
 4621POPC   C1A19539   5.083  29.914   8.550
 4621POPC   D2A19540   5.097  29.913   8.250
 4621POPC   C3A19541   5.124  29.935   7.950
 4621POPC   C4A19542   5.116  29.944   7.650
 4621POPC   C1B19543   4.825  29.947   8.550
 4621POPC   C2B19544   4.847  30.006   8.250
 4621POPC   C3B19545   4.801  29.921   7.950
 4621POPC   C4B19546   4.891  29.991   7.650
 4622POPC   NC319547  11.289   1.255   9.450
 4622POPC   PO419548  11.324   1.253   9.150
 4622POPC   GL119549  11.300   1.188   8.850
 4622POPC   GL219550  11.271   1.114   8.850
 4622POPC   C1A19551  11.303   1.238   8.550
 4622POPC   D2A19552  11.259   1.221   8.250
 4622POPC   C3A19553  11.275   1.196   7.950
 4622POPC   C4A19554  11.325   1.247   7.650
 4622POPC   C1B19555  11.388   0.970   8.550
 4622POPC   C2B19556  11.308   0.922   8.250
 4622POPC   C3B19557  11.290   0.996   7.950
 4622POPC   C4B19558  11.312   0.923   7.650
 4623POPC   NC319559   9.744  12.849   9.450
 4623POPC   PO419560   9.739  12.881   9.150
 4623POPC   GL119561   9.718  12.805   8.850
 4623POPC   GL219562   9.878  12.816   8.850
 4623POPC   C1A19563   9.727  12.830   8.550
 4623POPC   D2A19564   9.740  12.809   8.250
 4623POPC   C3A19565   9.784  12.806   7.950
 4623POPC   C4A19566   9.781  12.816   7.650
 4623POPC   C1B19567   9.998  12.745   8.550
 4623POPC   C2B19568   9.997  12.675   8.250
 4623POPC   C3B19569   9.944  12.741   7.950
 4623POPC   C4B19570   9.920  12.736   7.650
 4624POPC   NC319571  22.918  43.898   9.450
 4624POPC   PO419572  22.941  43.914   9.150
 4624POPC   GL119573  22.977  43.872   8.850
 4624POPC   GL219574  23.062  43.886   8.850
 4624POPC   C1A19575  22.890  43.857   8.550
 4624POPC   D2A19576  22.986  43.921   8.250
 4624POPC   C3A19577  22.919  43.918   7.950
 4624POPC   C4A19578  22.969  43.891   7.650
 4624POPC   C1B19579  23.215  43.964   8.550
 4624POPC   C2B19580  23.187  43.928   8.250
 4624POPC   C3B19581  23.202  43.952   7.950
 4624POPC   C4B19582  23.201  43.950   7.650
 4625POPC   NC319583  11.330   0.446   9.450
 4625POPC   PO419584  11.320   0.446   9.150
 4625POPC   GL119585  11.331   0.412   8.850
 4625POPC   GL219586  11.233   0.587   8.850
 4625POPC   C1A19587  11.294   0.416   8.550
 4625POPC   D2A19588  11.299   0.424   8.250
 4625POPC   C3A19589  11.306   0.392   7.950
 4625POPC   C4A19590  11.333   0.395   7.650
 4625POPC   C1B19591  11.221   0.656   8.550
 4625POPC   C2B19592  11.174   0.642   8.250
 4625POPC   C3B19593  11.209   0.699   7.950
 4625POPC   C4B19594  11.161   0.671   7.650
 4626POPC   NC319595  40.740  19.038   9.450
 4626POPC   PO419596  40.814  19.061   9.150
 4626POPC   GL119597  40.788  19.050   8.850
 4626POPC   GL219598  40.806  18.908   8.850
 4626POPC   C1A19599  40.827  19.101   8.550
 4626POPC   D2A19600  40.811  19.098   8.250
 4626POPC   C3A19601  40.733  19.069   7.950
 4626POPC   C4A19602  40.795  19.073   7.650
 4626POPC   C1B19603  40.811  18.845   8.550
 4626POPC   C2B19604  40.818  18.808   8.250
 4626POPC   C3B19605  40.867  18.797   7.950
 4626POPC   C4B19606  40.848  18.803   7.650
 4627POPC   NC319607   8.984  28.362   9.450
 4627POPC   PO419608   8.923  28.355   9.150
 4627POPC   GL119609   8.954  28.397   8.850
 4627POPC   GL219610   8.980  28.502   8.850
 4627POPC   C1A19611   9.002  28.406   8.550
 4627POPC   D2A19612   8.994  28.398   8.250
 4627POPC   C3A19613   8.995  28.409   7.950
 4627POPC   C4A19614   8.933  28.405   7.650
 4627POPC   C1B19615   8.996  28.636   8.550
 4627POPC   C2B19616   9.063  28.657   8.250
 4627POPC   C3B19617   9.020  28.594   7.950
 4627POPC   C4B19618   9.001  28.651   7.650
 4628POPC   NC319619  31.446  44.711   9.450
 4628POPC   PO419620  31.492  44.648   9.150
 4628POPC   GL119621  31.522  44.706   8.850
 4628POPC   GL219622  31.408  44.637   8.850
 4628POPC   C1A19623  31.445  44.686   8.550
 4628POPC   D2A19624  31.423  44.633   8.250
 4628POPC   C3A19625  31.508  44.647   7.950
 4628POPC   C4A19626  31.508  44.621   7.650
 4628POPC   C1B19627  31.302  44.511   8.550
 4628POPC   C2B19628  31.226  44.485   8.250
 4628POPC   C3B19629  31.234  44.556   7.950
 4628POPC   C4B19630  31.238  44.525   7.650
 4629POPC   NC319631   7.440  25.255   9.450
 4629POPC   PO419632   7.456  25.225   9.150
 4629POPC   GL119633   7.425  25.244   8.850
 4629POPC   GL219634   7.359  25.309   8.850
 4629POPC   C1A19635   7.436  25.263   8.550
 4629POPC   D2A19636   7.380  25.296   8.250
 4629POPC   C3A19637   7.409  25.237   7.950
 4629POPC   C4A19638   7.438  25.222   7.650
 4629POPC   C1B19639   7.243  25.415   8.550
 4629POPC   C2B19640   7.272  25.444   8.250
 4629POPC   C3B19641   7.253  25.423   7.950
 4629POPC   C4B19642   7.283  25.464   7.650
 4630POPC   NC319643  13.642  21.346   9.450
 4630POPC   PO419644  13.661  21.342   9.150
 4630POPC   GL119645  13.621  21.369   8.850
 4630POPC   GL219646  13.586  21.513   8.850
 4630POPC   C1A19647  13.634  21.347   8.550
 4630POPC   D2A19648  13.614  21.359   8.250
 4630POPC   C3A19649  13.662  21.358   7.950
 4630POPC   C4A19650  13.631  21.392   7.650
 4630POPC   C1B19651  13.490  21.624   8.550
 4630POPC   C2B19652  13.483  21.590   8.250
 4630POPC   C3B19653  13.489  21.578   7.950
 4630POPC   C4B19654  13.520  21.607   7.650
 4631POPC   NC319655  31.506  39.980   9.450
 4631POPC   PO419656  31.429  40.022   9.150
 4631POPC   GL119657  31.460  39.964   8.850
 4631POPC   GL219658  31.605  40.016   8.850
 4631POPC   C1A19659  31.520  39.965   8.550
 4631POPC   D2A19660  31.429  39.957   8.250
 4631POPC   C3A19661  31.478  39.983   7.950
 4631POPC   C4A19662  31.443  40.005   7.650
 4631POPC   C1B19663  31.764  39.913   8.550
 4631POPC   C2B19664  31.744  39.994   8.250
 4631POPC   C3B19665  31.704  39.920   7.950
 4631POPC   C4B19666  31.721  39.964   7.650
 4632POPC   NC319667  28.350  29.901   9.450
 4632POPC   PO419668  28.387  29.883   9.150
 4632POPC   GL119669  28.320  29.949   8.850
 4632POPC   GL219670  28.294  29.801   8.850
 4632POPC   C1A19671  28.342  29.878   8.550
 4632POPC   D2A19672  28.393  29.874   8.250
 4632POPC   C3A19673  28.371  29.910   7.950
 4632POPC   C4A19674  28.321  29.942   7.650
 4632POPC   C1B19675  28.167  29.764   8.550
 4632POPC   C2B19676  28.214  29.780   8.250
 4632POPC   C3B19677  28.159  29.750   7.950
 4632POPC   C4B19678  28.199  29.782   7.650
 4633POPC   NC319679  22.125  15.182   9.450
 4633POPC   PO419680  22.173  15.207   9.150
 4633POPC   GL119681  22.169  15.206   8.850
 4633POPC   GL219682  22.104  15.117   8.850
 4633POPC   C1A19683  22.149  15.142   8.550
 4633POPC   D2A19684  22.172  15.162   8.250
 4633POPC   C3A19685  22.191  15.190   7.950
 4633POPC   C4A19686  22.159  15.135   7.650
 4633POPC   C1B19687  22.003  14.953   8.550
 4633POPC   C2B19688  21.986  14.977   8.250
 4633POPC   C3B19689  21.991  14.977   7.950
 4633POPC   C4B19690  22.009  14.935   7.650
 4634POPC   NC319691  12.118  12.069   9.450
 4634POPC   PO419692  12.121  12.119   9.150
 4634POPC   GL119693  12.061  12.027   8.850
 4634POPC   GL219694  12.013  12.014   8.850
 4634POPC   C1A19695  12.076  12.041   8.550
 4634POPC   D2A19696  12.089  12.120   8.250
 4634POPC   C3A19697  12.106  12.100   7.950
 4634POPC   C4A19698  12.065  12.112   7.650
 4634POPC   C1B19699  11.806  11.941   8.550
 4634POPC   C2B19700  11.846  12.006   8.250
 4634POPC   C3B19701  11.853  11.931   7.950
 4634POPC   C4B19702  11.848  11.950   7.650
 4635POPC   NC319703  44.631  23.688   9.450
 4635POPC   PO419704  44.676  23.665   9.150
 4635POPC   GL119705  44.670  23.718   8.850
 4635POPC   GL219706  44.521  23.669   8.850
 4635POPC   C1A19707  44.654  23.725   8.550
 4635POPC   D2A19708  44.704  23.762   8.250
 4635POPC   C3A19709  44.699  23.751   7.950
 4635POPC   C4A19710  44.647  23.754   7.650
 4635POPC   C1B19711  44.441  23.673   8.550
 4635POPC   C2B19712  44.440  23.657   8.250
 4635POPC   C3B19713  44.397  23.598   7.950
 4635POPC   C4B19714  44.377  23.668   7.650
 4636POPC   NC319715  40.043  26.839   9.450
 4636POPC   PO419716  40.010  26.860   9.150
 4636POPC   GL119717  39.965  26.772   8.850
 4636POPC   GL219718  40.035  26.932   8.850
 4636POPC   C1A19719  39.982  26.811   8.550
 4636POPC   D2A19720  39.961  26.788   8.250
 4636POPC   C3A19721  39.983  26.796   7.950
 4636POPC   C4A19722  40.004  26.818   7.650
 4636POPC   C1B19723  39.986  27.035   8.550
 4636POPC   C2B19724  40.014  27.076   8.250
 4636POPC   C3B19725  39.949  27.113   7.950
 4636POPC   C4B19726  39.932  27.112   7.650
 4637POPC   NC319727  25.288  30.672   9.450
 4637POPC   PO419728  25.307  30.699   9.150
 4637POPC   GL119729  25.216  30.736   8.850
 4637POPC   GL219730  25.249  30.588   8.850
 4637POPC   C1A19731  25.248  30.682   8.550
 4637POPC   D2A19732  25.232  30.665   8.250
 4637POPC   C3A19733  25.234  30.698   7.950
 4637POPC   C4A19734  25.260  30.685   7.650
 4637POPC   C1B19735  25.152  30.432   8.550
 4637POPC   C2B19736  25.151  30.444   8.250
 4637POPC   C3B19737  25.220  30.469   7.950
 4637POPC   C4B19738  25.128  30.451   7.650
 4638POPC   NC319739  33.021  12.881   9.450
 4638POPC   PO419740  33.014  12.879   9.150
 4638POPC   GL119741  33.055  12.877   8.850
 4638POPC   GL219742  32.953  12.919   8.850
 4638POPC   C1A19743  32.983  12.845   8.550
 4638POPC   D2A19744  33.038  12.887   8.250
 4638POPC   C3A19745  33.042  12.845   7.950
 4638POPC   C4A19746  32.989  12.814   7.650
 4638POPC   C1B19747  32.853  13.025   8.550
 4638POPC   C2B19748  32.887  13.027   8.250
 4638POPC   C3B19749  32.907  13.020   7.950
 4638POPC   C4B19750  32.841  13.077   7.650
 4639POPC   NC319751  33.801   8.225   9.450
 4639POPC   PO419752  33.842   8.155   9.150
 4639POPC   GL119753  33.795   8.156   8.850
 4639POPC   GL219754  33.675   8.290   8.850
 4639POPC   C1A19755  33.817   8.233   8.550
 4639POPC   D2A19756  33.774   8.235   8.250
 4639POPC   C3A19757  33.811   8.239   7.950
 4639POPC   C4A19758  33.773   8.181   7.650
 4639POPC   C1B19759  33.636   8.315   8.550
 4639POPC   C2B19760  33.636   8.321   8.250
 4639POPC   C3B19761  33.608   8.371   7.950
 4639POPC   C4B19762  33.591   8.322   7.650
 4640POPC   NC319763   6.626  22.933   9.450
 4640POPC   PO419764   6.601  22.976   9.150
 4640POPC   GL119765   6.689  22.965   8.850
 4640POPC   GL219766   6.527  22.921   8.850
 4640POPC   C1A19767   6.598  22.932   8.550
 4640POPC   D2A19768   6.673  22.968   8.250
 4640POPC   C3A19769   6.619  22.933   7.950
 4640POPC   C4A19770   6.624  22.897   7.650
 4640POPC   C1B19771   6.464  22.847   8.550
 4640POPC   C2B19772   6.461  22.867   8.250
 4640POPC   C3B19773   6.465  22.780   7.950
 4640POPC   C4B19774   6.398  22.860   7.650
 4641POPC   NC319775  43.116  26.090   9.450
 4641POPC   PO419776  43.139  25.996   9.150
 4641POPC   GL119777  43.118  26.050   8.850
 4641POPC   GL219778  42.957  26.072   8.850
 4641POPC   C1A19779  43.159  26.040   8.550
 4641POPC   D2A19780  43.067  26.041   8.250
 4641POPC   C3A19781  43.071  25.999   7.950
 4641POPC   C4A19782  43.090  26.008   7.650
 4641POPC   C1B19783  42.844  26.107   8.550
 4641POPC   C2B19784  42.916  26.070   8.250
 4641POPC   C3B19785  42.839  26.120   7.950
 4641POPC   C4B19786  42.875  26.087   7.650
 4642POPC   NC319787   2.010  23.715   9.450
 4642POPC   PO419788   1.972  23.703   9.150
 4642POPC   GL119789   1.963  23.757   8.850
 4642POPC   GL219790   1.825  23.683   8.850
 4642POPC   C1A19791   2.003  23.748   8.550
 4642POPC   D2A19792   1.948  23.707   8.250
 4642POPC   C3A19793   2.007  23.713   7.950
 4642POPC   C4A19794   1.959  23.717   7.650
 4642POPC   C1B19795   1.754  23.700   8.550
 4642POPC   C2B19796   1.739  23.659   8.250
 4642POPC   C3B19797   1.747  23.646   7.950
 4642POPC   C4B19798   1.706  23.630   7.650
 4643POPC   NC319799  19.815  40.804   9.450
 4643POPC   PO419800  19.873  40.768   9.150
 4643POPC   GL119801  19.856  40.754   8.850
 4643POPC   GL219802  19.683  40.754   8.850
 4643POPC   C1A19803  19.817  40.750   8.550
 4643POPC   D2A19804  19.791  40.764   8.250
 4643POPC   C3A19805  19.788  40.812   7.950
 4643POPC   C4A19806  19.883  40.766   7.650
 4643POPC   C1B19807  19.556  40.768   8.550
 4643POPC   C2B19808  19.614  40.711   8.250
 4643POPC   C3B19809  19.586  40.695   7.950
 4643POPC   C4B19810  19.543  40.734   7.650
 4644POPC   NC319811   2.021  36.947   9.450
 4644POPC   PO419812   2.026  36.858   9.150
 4644POPC   GL119813   1.974  36.869   8.850
 4644POPC   GL219814   1.890  36.938   8.850
 4644POPC   C1A19815   2.038  36.905   8.550
 4644POPC   D2A19816   1.945  36.887   8.250
 4644POPC   C3A19817   2.017  36.876   7.950
 4644POPC   C4A19818   2.007  36.951   7.650
 4644POPC   C1B19819   1.763  37.019   8.550
 4644POPC   C2B19820   1.801  37.008   8.250
 4644POPC   C3B19821   1.808  37.023   7.950
 4644POPC   C4B19822   1.793  37.026   7.650
 4645POPC   NC319823  21.434  32.235   9.450
 4645POPC   PO419824  21.353  32.210   9.150
 4645POPC   GL119825  21.394  32.201   8.850
 4645POPC   GL219826  21.473  32.372   8.850
 4645POPC   C1A19827  21.435  32.237   8.550
 4645POPC   D2A19828  21.429  32.238   8.250
 4645POPC   C3A19829  21.377  32.221   7.950
 4645POPC   C4A19830  21.396  32.277   7.650
 4645POPC   C1B19831  21.488  32.424   8.550
 4645POPC   C2B19832  21.490  32.404   8.250
 4645POPC   C3B19833  21.537  32.486   7.950
 4645POPC   C4B19834  21.511  32.447   7.650
 4646POPC   NC319835   1.194  39.987   9.450
 4646POPC   PO419836   1.250  39.999   9.150
 4646POPC   GL119837   1.172  39.999   8.850
 4646POPC   GL219838   1.220  39.850   8.850
 4646POPC   C1A19839   1.184  39.981   8.550
 4646POPC   D2A19840   1.217  40.053   8.250
 4646POPC   C3A19841   1.261  39.965   7.950
 4646POPC   C4A19842   1.204  39.999   7.650
 4646POPC   C1B19843   1.166  39.726   8.550
 4646POPC   C2B19844   1.139  39.820   8.250
 4646POPC   C3B19845   1.160  39.757   7.950
 4646POPC   C4B19846   1.087  39.788   7.650
 4647POPC   NC319847   8.185  12.887   9.450
 4647POPC   PO419848   8.242  12.807   9.150
 4647POPC   GL119849   8.184  12.850   8.850
 4647POPC   GL219850   8.150  12.767   8.850
 4647POPC   C1A19851   8.218  12.885   8.550
 4647POPC   D2A19852   8.186  12.855   8.250
 4647POPC   C3A19853   8.206  12.808   7.950
 4647POPC   C4A19854   8.230  12.870   7.650
 4647POPC   C1B19855   8.073  12.568   8.550
 4647POPC   C2B19856   8.102  12.605   8.250
 4647POPC   C3B19857   8.130  12.617   7.950
 4647POPC   C4B19858   8.154  12.656   7.650
 4648POPC   NC319859  37.652  29.913   9.450
 4648POPC   PO419860  37.710  29.935   9.150
 4648POPC   GL119861  37.700  29.908   8.850
 4648POPC   GL219862  37.596  30.047   8.850
 4648POPC   C1A19863  37.675  29.894   8.550
 4648POPC   D2A19864  37.675  29.910   8.250
 4648POPC   C3A19865  37.658  29.876   7.950
 4648POPC   C4A19866  37.641  29.893   7.650
 4648POPC   C1B19867  37.617  30.113   8.550
 4648POPC   C2B19868  37.614  30.177   8.250
 4648POPC   C3B19869  37.526  30.126   7.950
 4648POPC   C4B19870  37.548  30.194   7.650
 4649POPC   NC319871  17.548  19.857   9.450
 4649POPC   PO419872  17.541  19.859   9.150
 4649POPC   GL119873  17.476  19.802   8.850
 4649POPC   GL219874  17.578  19.934   8.850
 4649POPC   C1A19875  17.472  19.865   8.550
 4649POPC   D2A19876  17.474  19.789   8.250
 4649POPC   C3A19877  17.504  19.842   7.950
 4649POPC   C4A19878  17.499  19.806   7.650
 4649POPC   C1B19879  17.671  20.061   8.550
 4649POPC   C2B19880  17.649  20.093   8.250
 4649POPC   C3B19881  17.607  20.079   7.950
 4649POPC   C4B19882  17.594  20.021   7.650
 4650POPC   NC319883  25.250  34.619   9.450
 4650POPC   PO419884  25.306  34.615   9.150
 4650POPC   GL119885  25.308  34.553   8.850
 4650POPC   GL219886  25.257  34.484   8.850
 4650POPC   C1A19887  25.260  34.563   8.550
 4650POPC   D2A19888  25.247  34.539   8.250
 4650POPC   C3A19889  25.232  34.593   7.950
 4650POPC   C4A19890  25.222  34.612   7.650
 4650POPC   C1B19891  25.334  34.350   8.550
 4650POPC   C2B19892  25.321  34.338   8.250
 4650POPC   C3B19893  25.357  34.384   7.950
 4650POPC   C4B19894  25.333  34.361   7.650
 4651POPC   NC319895  24.466  39.272   9.450
 4651POPC   PO419896  24.535  39.181   9.150
 4651POPC   GL119897  24.500  39.240   8.850
 4651POPC   GL219898  24.586  39.163   8.850
 4651POPC   C1A19899  24.492  39.248   8.550
 4651POPC   D2A19900  24.466  39.263   8.250
 4651POPC   C3A19901  24.479  39.234   7.950
 4651POPC   C4A19902  24.458  39.216   7.650
 4651POPC   C1B19903  24.771  39.205   8.550
 4651POPC   C2B19904  24.767  39.197   8.250
 4651POPC   C3B19905  24.687  39.114   7.950
 4651POPC   C4B19906  24.778  39.165   7.650
 4652POPC   NC319907   0.427  21.367   9.450
 4652POPC   PO419908   0.419  21.340   9.150
 4652POPC   GL119909   0.457  21.342   8.850
 4652POPC   GL219910   0.340  21.431   8.850
 4652POPC   C1A19911   0.408  21.427   8.550
 4652POPC   D2A19912   0.435  21.337   8.250
 4652POPC   C3A19913   0.409  21.434   7.950
 4652POPC   C4A19914   0.450  21.404   7.650
 4652POPC   C1B19915   0.197  21.407   8.550
 4652POPC   C2B19916   0.196  21.388   8.250
 4652POPC   C3B19917   0.161  21.375   7.950
 4652POPC   C4B19918   0.179  21.379   7.650
 4653POPC   NC319919  10.478   4.269   9.450
 4653POPC   PO419920  10.476   4.364   9.150
 4653POPC   GL119921  10.524   4.272   8.850
 4653POPC   GL219922  10.562   4.174   8.850
 4653POPC   C1A19923  10.503   4.367   8.550
 4653POPC   D2A19924  10.508   4.330   8.250
 4653POPC   C3A19925  10.478   4.269   7.950
 4653POPC   C4A19926  10.488   4.293   7.650
 4653POPC   C1B19927  10.526   4.047   8.550
 4653POPC   C2B19928  10.541   4.121   8.250
 4653POPC   C3B19929  10.562   4.117   7.950
 4653POPC   C4B19930  10.530   4.050   7.650
 4654POPC   NC319931  41.581  13.609   9.450
 4654POPC   PO419932  41.601  13.626   9.150
 4654POPC   GL119933  41.536  13.676   8.850
 4654POPC   GL219934  41.726  13.604   8.850
 4654POPC   C1A19935  41.552  13.675   8.550
 4654POPC   D2A19936  41.531  13.635   8.250
 4654POPC   C3A19937  41.565  13.648   7.950
 4654POPC   C4A19938  41.608  13.666   7.650
 4654POPC   C1B19939  41.840  13.650   8.550
 4654POPC   C2B19940  41.759  13.637   8.250
 4654POPC   C3B19941  41.816  13.716   7.950
 4654POPC   C4B19942  41.829  13.636   7.650
 4655POPC   NC319943  39.966  12.845   9.450
 4655POPC   PO419944  39.984  12.863   9.150
 4655POPC   GL119945  39.976  12.838   8.850
 4655POPC   GL219946  40.012  12.709   8.850
 4655POPC   C1A19947  40.009  12.836   8.550
 4655POPC   D2A19948  40.047  12.901   8.250
 4655POPC   C3A19949  40.054  12.859   7.950
 4655POPC   C4A19950  40.041  12.826   7.650
 4655POPC   C1B19951  40.109  12.576   8.550
 4655POPC   C2B19952  40.074  12.585   8.250
 4655POPC   C3B19953  40.137  12.596   7.950
 4655POPC   C4B19954  40.077  12.619   7.650
 4656POPC   NC319955  23.680  24.530   9.450
 4656POPC   PO419956  23.704  24.527   9.150
 4656POPC   GL119957  23.751  24.473   8.850
 4656POPC   GL219958  23.828  24.553   8.850
 4656POPC   C1A19959  23.749  24.484   8.550
 4656POPC   D2A19960  23.707  24.499   8.250
 4656POPC   C3A19961  23.672  24.500   7.950
 4656POPC   C4A19962  23.757  24.526   7.650
 4656POPC   C1B19963  23.863  24.598   8.550
 4656POPC   C2B19964  23.908  24.687   8.250
 4656POPC   C3B19965  23.871  24.679   7.950
 4656POPC   C4B19966  23.874  24.607   7.650
 4657POPC   NC319967  36.086  26.009   9.450
 4657POPC   PO419968  36.124  26.015   9.150
 4657POPC   GL119969  36.091  26.044   8.850
 4657POPC   GL219970  36.249  26.119   8.850
 4657POPC   C1A19971  36.120  26.035   8.550
 4657POPC   D2A19972  36.136  26.070   8.250
 4657POPC   C3A19973  36.148  26.032   7.950
 4657POPC   C4A19974  36.087  26.050   7.650
 4657POPC   C1B19975  36.270  26.261   8.550
 4657POPC   C2B19976  36.283  26.280   8.250
 4657POPC   C3B19977  36.249  26.221   7.950
 4657POPC   C4B19978  36.282  26.191   7.650
 4658POPC   NC319979  18.323  23.700   9.450
 4658POPC   PO419980  18.278  23.674   9.150
 4658POPC   GL119981  18.319  23.759   8.850
 4658POPC   GL219982  18.131  23.667   8.850
 4658POPC   C1A19983  18.247  23.728   8.550
 4658POPC   D2A19984  18.273  23.665   8.250
 4658POPC   C3A19985  18.297  23.750   7.950
 4658POPC   C4A19986  18.331  23.737   7.650
 4658POPC   C1B19987  18.011  23.656   8.550
 4658POPC   C2B19988  18.003  23.672   8.250
 4658POPC   C3B19989  18.029  23.674   7.950
 4658POPC   C4B19990  18.022  23.663   7.650
 4659POPC   NC319991  13.615  18.298   9.450
 4659POPC   PO419992  13.663  18.233   9.150
 4659POPC   GL119993  13.585  18.319   8.850
 4659POPC   GL219994  13.675  18.360   8.850
 4659POPC   C1A19995  13.604  18.242   8.550
 4659POPC   D2A19996  13.614  18.252   8.250
 4659POPC   C3A19997  13.675  18.265   7.950
 4659POPC   C4A19998  13.664  18.318   7.650
 4659POPC   C1B19999  13.699  18.493   8.550
 4659POPC   C2B20000  13.654  18.551   8.250
 4659POPC   C3B20001  13.625  18.538   7.950
 4659POPC   C4B20002  13.618  18.564   7.650
 4660POPC   NC320003  30.683  12.091   9.450
 4660POPC   PO420004  30.665  12.121   9.150
 4660POPC   GL120005  30.741  12.040   8.850
 4660POPC   GL220006  30.825  12.171   8.850
 4660POPC   C1A20007  30.664  12.051   8.550
 4660POPC   D2A20008  30.744  12.061   8.250
 4660POPC   C3A20009  30.703  12.041   7.950
 4660POPC   C4A20010  30.705  12.042   7.650
 4660POPC   C1B20011  30.890  12.216   8.550
 4660POPC   C2B20012  30.929  12.151   8.250
 4660POPC   C3B20013  30.870  12.147   7.950
 4660POPC   C4B20014  30.915  12.222   7.650
 4661POPC   NC320015  37.631  15.185   9.450
 4661POPC   PO420016  37.643  15.204   9.150
 4661POPC   GL120017  37.680  15.219   8.850
 4661POPC   GL220018  37.803  15.073   8.850
 4661POPC   C1A20019  37.685  15.140   8.550
 4661POPC   D2A20020  37.698  15.200   8.250
 4661POPC   C3A20021  37.698  15.185   7.950
 4661POPC   C4A20022  37.645  15.177   7.650
 4661POPC   C1B20023  37.908  15.035   8.550
 4661POPC   C2B20024  37.865  15.050   8.250
 4661POPC   C3B20025  37.852  15.052   7.950
 4661POPC   C4B20026  37.877  15.049   7.650
 4662POPC   NC320027  17.526  29.948   9.450
 4662POPC   PO420028  17.492  29.898   9.150
 4662POPC   GL120029  17.505  29.940   8.850
 4662POPC   GL220030  17.461  30.021   8.850
 4662POPC   C1A20031  17.478  29.942   8.550
 4662POPC   D2A20032  17.472  29.959   8.250
 4662POPC   C3A20033  17.511  29.889   7.950
 4662POPC   C4A20034  17.502  29.952   7.650
 4662POPC   C1B20035  17.404  30.103   8.550
 4662POPC   C2B20036  17.367  30.170   8.250
 4662POPC   C3B20037  17.372  30.142   7.950
 4662POPC   C4B20038  17.359  30.094   7.650
 4663POPC   NC320039   4.273  25.292   9.450
 4663POPC   PO420040   4.326  25.265   9.150
 4663POPC   GL120041   4.311  25.234   8.850
 4663POPC   GL220042   4.466  25.270   8.850
 4663POPC   C1A20043   4.285  25.230   8.550
 4663POPC   D2A20044   4.283  25.308   8.250
 4663POPC   C3A20045   4.303  25.257   7.950
 4663POPC   C4A20046   4.308  25.302   7.650
 4663POPC   C1B20047   4.608  25.302   8.550
 4663POPC   C2B20048   4.610  25.266   8.250
 4663POPC   C3B20049   4.595  25.274   7.950
 4663POPC   C4B20050   4.569  25.273   7.650
 4664POPC   NC320051  33.789  19.809   9.450
 4664POPC   PO420052  33.751  19.851   9.150
 4664POPC   GL120053  33.832  19.882   8.850
 4664POPC   GL220054  33.911  19.878   8.850
 4664POPC   C1A20055  33.820  19.863   8.550
 4664POPC   D2A20056  33.839  19.860   8.250
 4664POPC   C3A20057  33.808  19.789   7.950
 4664POPC   C4A20058  33.788  19.879   7.650
 4664POPC   C1B20059  34.080  19.870   8.550
 4664POPC   C2B20060  34.049  19.887   8.250
 4664POPC   C3B20061  34.004  19.857   7.950
 4664POPC   C4B20062  34.038  19.878   7.650
 4665POPC   NC320063  12.088  38.416   9.450
 4665POPC   PO420064  12.028  38.444   9.150
 4665POPC   GL120065  12.027  38.469   8.850
 4665POPC   GL220066  12.027  38.333   8.850
 4665POPC   C1A20067  12.120  38.450   8.550
 4665POPC   D2A20068  12.115  38.412   8.250
 4665POPC   C3A20069  12.111  38.423   7.950
 4665POPC   C4A20070  12.075  38.422   7.650
 4665POPC   C1B20071  11.992  38.206   8.550
 4665POPC   C2B20072  11.963  38.229   8.250
 4665POPC   C3B20073  12.010  38.177   7.950
 4665POPC   C4B20074  12.024  38.266   7.650
 4666POPC   NC320075  42.349  43.065   9.450
 4666POPC   PO420076  42.285  43.120   9.150
 4666POPC   GL120077  42.315  43.097   8.850
 4666POPC   GL220078  42.171  43.087   8.850
 4666POPC   C1A20079  42.362  43.108   8.550
 4666POPC   D2A20080  42.301  43.126   8.250
 4666POPC   C3A20081  42.296  43.137   7.950
 4666POPC   C4A20082  42.310  43.102   7.650
 4666POPC   C1B20083  42.126  43.042   8.550
 4666POPC   C2B20084  42.109  43.019   8.250
 4666POPC   C3B20085  42.083  43.044   7.950
 4666POPC   C4B20086  42.120  43.032   7.650
 4667POPC   NC320087  42.295  42.332   9.450
 4667POPC   PO420088  42.296  42.287   9.150
 4667POPC   GL120089  42.313  42.359   8.850
 4667POPC   GL220090  42.341  42.212   8.850
 4667POPC   C1A20091  42.304  42.295   8.550
 4667POPC   D2A20092  42.307  42.381   8.250
 4667POPC   C3A20093  42.318  42.377   7.950
 4667POPC   C4A20094  42.344  42.360   7.650
 4667POPC   C1B20095  42.228  42.121   8.550
 4667POPC   C2B20096  42.245  42.062   8.250
 4667POPC   C3B20097  42.242  42.058   7.950
 4667POPC   C4B20098  42.247  42.147   7.650
 4668POPC   NC320099   8.241   3.550   9.450
 4668POPC   PO420100   8.163   3.583   9.150
 4668POPC   GL120101   8.206   3.508   8.850
 4668POPC   GL220102   8.054   3.574   8.850
 4668POPC   C1A20103   8.153   3.513   8.550
 4668POPC   D2A20104   8.203   3.565   8.250
 4668POPC   C3A20105   8.161   3.551   7.950
 4668POPC   C4A20106   8.199   3.573   7.650
 4668POPC   C1B20107   7.968   3.711   8.550
 4668POPC   C2B20108   8.023   3.692   8.250
 4668POPC   C3B20109   8.008   3.711   7.950
 4668POPC   C4B20110   7.988   3.662   7.650
 4669POPC   NC320111  23.720   5.918   9.450
 4669POPC   PO420112  23.753   5.836   9.150
 4669POPC   GL120113  23.737   5.915   8.850
 4669POPC   GL220114  23.760   6.014   8.850
 4669POPC   C1A20115  23.750   5.848   8.550
 4669POPC   D2A20116  23.706   5.832   8.250
 4669POPC   C3A20117  23.706   5.892   7.950
 4669POPC   C4A20118  23.666   5.875   7.650
 4669POPC   C1B20119  23.849   6.063   8.550
 4669POPC   C2B20120  23.838   6.091   8.250
 4669POPC   C3B20121  23.813   6.120   7.950
 4669POPC   C4B20122  23.861   6.059   7.650
 4670POPC   NC320123  41.594  28.355   9.450
 4670POPC   PO420124  41.543  28.327   9.150
 4670POPC   GL120125  41.596  28.323   8.850
 4670POPC   GL220126  41.581  28.268   8.850
 4670POPC   C1A20127  41.572  28.361   8.550
 4670POPC   D2A20128  41.531  28.346   8.250
 4670POPC   C3A20129  41.524  28.371   7.950
 4670POPC   C4A20130  41.543  28.374   7.650
 4670POPC   C1B20131  41.542  28.079   8.550
 4670POPC   C2B20132  41.601  28.071   8.250
 4670POPC   C3B20133  41.614  28.145   7.950
 4670POPC   C4B20134  41.617  28.130   7.650
 4671POPC   NC320135  31.428  23.747   9.450
 4671POPC   PO420136  31.511  23.754   9.150
 4671POPC   GL120137  31.469  23.732   8.850
 4671POPC   GL220138  31.476  23.606   8.850
 4671POPC   C1A20139  31.428  23.679   8.550
 4671POPC   D2A20140  31.496  23.675   8.250
 4671POPC   C3A20141  31.521  23.713   7.950
 4671POPC   C4A20142  31.510  23.665   7.650
 4671POPC   C1B20143  31.445  23.507   8.550
 4671POPC   C2B20144  31.467  23.515   8.250
 4671POPC   C3B20145  31.459  23.508   7.950
 4671POPC   C4B20146  31.450  23.492   7.650
 4672POPC   NC320147   0.470   0.462   9.450
 4672POPC   PO420148   0.451   0.488   9.150
 4672POPC   GL120149   0.397   0.427   8.850
 4672POPC   GL220150   0.424   0.294   8.850
 4672POPC   C1A20151   0.394   0.427   8.550
 4672POPC   D2A20152   0.435   0.469   8.250
 4672POPC   C3A20153   0.465   0.412   7.950
 4672POPC   C4A20154   0.409   0.390   7.650
 4672POPC   C1B20155   0.532   0.157   8.550
 4672POPC   C2B20156   0.484   0.163   8.250
 4672POPC   C3B20157   0.512   0.175   7.950
 4672POPC   C4B20158   0.538   0.149   7.650
 4673POPC   NC320159  29.111   1.233   9.450
 4673POPC   PO420160  29.100   1.203   9.150
 4673POPC   GL120161  29.109   1.228   8.850
 4673POPC   GL220162  29.217   1.086   8.850
 4673POPC   C1A20163  29.171   1.243   8.550
 4673POPC   D2A20164  29.137   1.257   8.250
 4673POPC   C3A20165  29.169   1.178   7.950
 4673POPC   C4A20166  29.182   1.254   7.650
 4673POPC   C1B20167  29.286   0.974   8.550
 4673POPC   C2B20168  29.210   1.015   8.250
 4673POPC   C3B20169  29.298   1.011   7.950
 4673POPC   C4B20170  29.296   1.031   7.650
 4674POPC   NC320171  17.513  38.420   9.450
 4674POPC   PO420172  17.514  38.457   9.150
 4674POPC   GL120173  17.518  38.412   8.850
 4674POPC   GL220174  17.507  38.303   8.850
 4674POPC   C1A20175  17.483  38.449   8.550
 4674POPC   D2A20176  17.547  38.493   8.250
 4674POPC   C3A20177  17.538  38.425   7.950
 4674POPC   C4A20178  17.537  38.481   7.650
 4674POPC   C1B20179  17.573  38.249   8.550
 4674POPC   C2B20180  17.538  38.223   8.250
 4674POPC   C3B20181  17.563  38.210   7.950
 4674POPC   C4B20182  17.523  38.233   7.650
 4675POPC   NC320183   1.259   5.843   9.450
 4675POPC   PO420184   1.258   5.836   9.150
 4675POPC   GL120185   1.225   5.846   8.850
 4675POPC   GL220186   1.247   5.771   8.850
 4675POPC   C1A20187   1.167   5.880   8.550
 4675POPC   D2A20188   1.260   5.912   8.250
 4675POPC   C3A20189   1.211   5.915   7.950
 4675POPC   C4A20190   1.257   5.827   7.650
 4675POPC   C1B20191   1.302   5.645   8.550
 4675POPC   C2B20192   1.348   5.640   8.250
 4675POPC   C3B20193   1.335   5.675   7.950
 4675POPC   C4B20194   1.326   5.662   7.650
 4676POPC   NC320195   2.751  15.959   9.450
 4676POPC   PO420196   2.751  15.951   9.150
 4676POPC   GL120197   2.759  15.988   8.850
 4676POPC   GL220198   2.752  15.807   8.850
 4676POPC   C1A20199   2.797  15.986   8.550
 4676POPC   D2A20200   2.765  16.002   8.250
 4676POPC   C3A20201   2.809  15.965   7.950
 4676POPC   C4A20202   2.757  15.915   7.650
 4676POPC   C1B20203   2.613  15.754   8.550
 4676POPC   C2B20204   2.633  15.743   8.250
 4676POPC   C3B20205   2.690  15.717   7.950
 4676POPC   C4B20206   2.623  15.764   7.650
 4677POPC   NC320207  40.740  39.202   9.450
 4677POPC   PO420208  40.755  39.236   9.150
 4677POPC   GL120209  40.796  39.233   8.850
 4677POPC   GL220210  40.633  39.125   8.850
 4677POPC   C1A20211  40.829  39.190   8.550
 4677POPC   D2A20212  40.801  39.226   8.250
 4677POPC   C3A20213  40.821  39.183   7.950
 4677POPC   C4A20214  40.771  39.212   7.650
 4677POPC   C1B20215  40.596  39.123   8.550
 4677POPC   C2B20216  40.535  39.115   8.250
 4677POPC   C3B20217  40.584  39.084   7.950
 4677POPC   C4B20218  40.519  39.084   7.650
 4678POPC   NC320219   8.985  42.345   9.450
 4678POPC   PO420220   8.960  42.331   9.150
 4678POPC   GL120221   9.022  42.312   8.850
 4678POPC   GL220222   8.952  42.419   8.850
 4678POPC   C1A20223   9.016  42.370   8.550
 4678POPC   D2A20224   9.017  42.349   8.250
 4678POPC   C3A20225   9.001  42.333   7.950
 4678POPC   C4A20226   8.924  42.290   7.650
 4678POPC   C1B20227   9.023  42.614   8.550
 4678POPC   C2B20228   9.000  42.559   8.250
 4678POPC   C3B20229   8.999  42.588   7.950
 4678POPC   C4B20230   9.058  42.544   7.650
 4679POPC   NC320231  11.336  37.651   9.450
 4679POPC   PO420232  11.257  37.711   9.150
 4679POPC   GL120233  11.347  37.711   8.850
 4679POPC   GL220234  11.350  37.604   8.850
 4679POPC   C1A20235  11.343  37.664   8.550
 4679POPC   D2A20236  11.315  37.666   8.250
 4679POPC   C3A20237  11.276  37.647   7.950
 4679POPC   C4A20238  11.326  37.666   7.650
 4679POPC   C1B20239  11.515  37.559   8.550
 4679POPC   C2B20240  11.449  37.471   8.250
 4679POPC   C3B20241  11.438  37.478   7.950
 4679POPC   C4B20242  11.517  37.509   7.650
 4680POPC   NC320243  25.312   9.783   9.450
 4680POPC   PO420244  25.232   9.720   9.150
 4680POPC   GL120245  25.265   9.789   8.850
 4680POPC   GL220246  25.221   9.659   8.850
 4680POPC   C1A20247  25.224   9.703   8.550
 4680POPC   D2A20248  25.274   9.706   8.250
 4680POPC   C3A20249  25.295   9.757   7.950
 4680POPC   C4A20250  25.233   9.786   7.650
 4680POPC   C1B20251  25.317   9.461   8.550
 4680POPC   C2B20252  25.270   9.449   8.250
 4680POPC   C3B20253  25.305   9.486   7.950
 4680POPC   C4B20254  25.283   9.454   7.650
 4681POPC   NC320255  12.831   4.290   9.450
 4681POPC   PO420256  12.868   4.361   9.150
 4681POPC   GL120257  12.829   4.321   8.850
 4681POPC   GL220258  12.898   4.268   8.850
 4681POPC   C1A20259  12.859   4.367   8.550
 4681POPC   D2A20260  12.829   4.308   8.250
 4681POPC   C3A20261  12.819   4.351   7.950
 4681POPC   C4A20262  12.872   4.329   7.650
 4681POPC   C1B20263  13.076   4.142   8.550
 4681POPC   C2B20264  13.009   4.179   8.250
 4681POPC   C3B20265  13.044   4.124   7.950
 4681POPC   C4B20266  13.080   4.150   7.650
 4682POPC   NC320267  42.347  26.816   9.450
 4682POPC   PO420268  42.338  26.831   9.150
 4682POPC   GL120269  42.379  26.866   8.850
 4682POPC   GL220270  42.284  26.939   8.850
 4682POPC   C1A20271  42.344  26.810   8.550
 4682POPC   D2A20272  42.296  26.860   8.250
 4682POPC   C3A20273  42.355  26.826   7.950
 4682POPC   C4A20274  42.365  26.830   7.650
 4682POPC   C1B20275  42.355  27.082   8.550
 4682POPC   C2B20276  42.341  27.091   8.250
 4682POPC   C3B20277  42.301  27.092   7.950
 4682POPC   C4B20278  42.371  27.034   7.650
 4683POPC   NC320279  21.434  19.807   9.450
 4683POPC   PO420280  21.418  19.813   9.150
 4683POPC   GL120281  21.342  19.800   8.850
 4683POPC   GL220282  21.514  19.840   8.850
 4683POPC   C1A20283  21.393  19.825   8.550
 4683POPC   D2A20284  21.386  19.831   8.250
 4683POPC   C3A20285  21.361  19.883   7.950
 4683POPC   C4A20286  21.414  19.833   7.650
 4683POPC   C1B20287  21.589  19.715   8.550
 4683POPC   C2B20288  21.664  19.765   8.250
 4683POPC   C3B20289  21.581  19.767   7.950
 4683POPC   C4B20290  21.668  19.801   7.650
 4684POPC   NC320291   2.020  39.237   9.450
 4684POPC   PO420292   1.941  39.241   9.150
 4684POPC   GL120293   1.971  39.264   8.850
 4684POPC   GL220294   1.964  39.062   8.850
 4684POPC   C1A20295   1.969  39.197   8.550
 4684POPC   D2A20296   1.947  39.249   8.250
 4684POPC   C3A20297   2.018  39.185   7.950
 4684POPC   C4A20298   2.028  39.256   7.650
 4684POPC   C1B20299   2.013  38.973   8.550
 4684POPC   C2B20300   2.015  38.982   8.250
 4684POPC   C3B20301   1.957  38.998   7.950
 4684POPC   C4B20302   2.009  39.011   7.650
 4685POPC   NC320303  15.164   1.208   9.450
 4685POPC   PO420304  15.222   1.173   9.150
 4685POPC   GL120305  15.217   1.222   8.850
 4685POPC   GL220306  15.313   1.096   8.850
 4685POPC   C1A20307  15.216   1.169   8.550
 4685POPC   D2A20308  15.181   1.224   8.250
 4685POPC   C3A20309  15.172   1.179   7.950
 4685POPC   C4A20310  15.190   1.209   7.650
 4685POPC   C1B20311  15.423   1.104   8.550
 4685POPC   C2B20312  15.354   1.030   8.250
 4685POPC   C3B20313  15.390   1.041   7.950
 4685POPC   C4B20314  15.386   1.027   7.650
 4686POPC   NC320315   2.008  27.619   9.450
 4686POPC   PO420316   1.986  27.551   9.150
 4686POPC   GL120317   2.002  27.587   8.850
 4686POPC   GL220318   1.840  27.600   8.850
 4686POPC   C1A20319   1.971  27.624   8.550
 4686POPC   D2A20320   1.954  27.566   8.250
 4686POPC   C3A20321   1.996  27.572   7.950
 4686POPC   C4A20322   2.013  27.597   7.650
 4686POPC   C1B20323   1.771  27.579   8.550
 4686POPC   C2B20324   1.732  27.608   8.250
 4686POPC   C3B20325   1.784  27.613   7.950
 4686POPC   C4B20326   1.768  27.555   7.650
 4687POPC   NC320327  38.491  15.906   9.450
 4687POPC   PO420328  38.499  15.966   9.150
 4687POPC   GL120329  38.472  15.940   8.850
 4687POPC   GL220330  38.454  15.829   8.850
 4687POPC   C1A20331  38.465  15.968   8.550
 4687POPC   D2A20332  38.499  15.914   8.250
 4687POPC   C3A20333  38.462  15.980   7.950
 4687POPC   C4A20334  38.472  15.970   7.650
 4687POPC   C1B20335  38.524  15.761   8.550
 4687POPC   C2B20336  38.513  15.719   8.250
 4687POPC   C3B20337  38.531  15.673   7.950
 4687POPC   C4B20338  38.517  15.673   7.650
 4688POPC   NC320339  39.978  43.902   9.450
 4688POPC   PO420340  39.966  43.890   9.150
 4688POPC   GL120341  40.010  43.917   8.850
 4688POPC   GL220342  39.950  43.748   8.850
 4688POPC   C1A20343  39.964  43.923   8.550
 4688POPC   D2A20344  39.983  43.854   8.250
 4688POPC   C3A20345  39.983  43.862   7.950
 4688POPC   C4A20346  39.987  43.905   7.650
 4688POPC   C1B20347  39.975  43.671   8.550
 4688POPC   C2B20348  39.974  43.639   8.250
 4688POPC   C3B20349  39.992  43.629   7.950
 4688POPC   C4B20350  39.936  43.650   7.650
 4689POPC   NC320351   2.726  36.903   9.450
 4689POPC   PO420352   2.776  36.880   9.150
 4689POPC   GL120353   2.774  36.874   8.850
 4689POPC   GL220354   2.698  36.969   8.850
 4689POPC   C1A20355   2.789  36.875   8.550
 4689POPC   D2A20356   2.758  36.859   8.250
 4689POPC   C3A20357   2.774  36.890   7.950
 4689POPC   C4A20358   2.789  36.893   7.650
 4689POPC   C1B20359   2.555  37.067   8.550
 4689POPC   C2B20360   2.609  37.109   8.250
 4689POPC   C3B20361   2.555  37.033   7.950
 4689POPC   C4B20362   2.555  37.092   7.650
 4690POPC   NC320363   1.970  22.194   9.450
 4690POPC   PO420364   2.019  22.135   9.150
 4690POPC   GL120365   1.994  22.160   8.850
 4690POPC   GL220366   2.075  22.091   8.850
 4690POPC   C1A20367   1.950  22.121   8.550
 4690POPC   D2A20368   2.036  22.202   8.250
 4690POPC   C3A20369   1.986  22.163   7.950
 4690POPC   C4A20370   1.963  22.148   7.650
 4690POPC   C1B20371   2.211  21.946   8.550
 4690POPC   C2B20372   2.130  21.975   8.250
 4690POPC   C3B20373   2.146  21.984   7.950
 4690POPC   C4B20374   2.129  21.936   7.650
 4691POPC   NC320375  21.340  21.370   9.450
 4691POPC   PO420376  21.376  21.388   9.150
 4691POPC   GL120377  21.353  21.404   8.850
 4691POPC   GL220378  21.467  21.315   8.850
 4691POPC   C1A20379  21.396  21.428   8.550
 4691POPC   D2A20380  21.367  21.347   8.250
 4691POPC   C3A20381  21.361  21.347   7.950
 4691POPC   C4A20382  21.360  21.387   7.650
 4691POPC   C1B20383  21.610  21.190   8.550
 4691POPC   C2B20384  21.547  21.182   8.250
 4691POPC   C3B20385  21.590  21.199   7.950
 4691POPC   C4B20386  21.605  21.203   7.650
 4692POPC   NC320387   4.298   3.564   9.450
 4692POPC   PO420388   4.322   3.578   9.150
 4692POPC   GL120389   4.295   3.574   8.850
 4692POPC   GL220390   4.291   3.444   8.850
 4692POPC   C1A20391   4.274   3.556   8.550
 4692POPC   D2A20392   4.302   3.529   8.250
 4692POPC   C3A20393   4.302   3.581   7.950
 4692POPC   C4A20394   4.275   3.567   7.650
 4692POPC   C1B20395   4.194   3.335   8.550
 4692POPC   C2B20396   4.169   3.333   8.250
 4692POPC   C3B20397   4.148   3.329   7.950
 4692POPC   C4B20398   4.173   3.281   7.650
 4693POPC   NC320399  43.856  21.384   9.450
 4693POPC   PO420400  43.847  21.365   9.150
 4693POPC   GL120401  43.875  21.343   8.850
 4693POPC   GL220402  43.842  21.511   8.850
 4693POPC   C1A20403  43.882  21.342   8.550
 4693POPC   D2A20404  43.931  21.414   8.250
 4693POPC   C3A20405  43.916  21.391   7.950
 4693POPC   C4A20406  43.935  21.427   7.650
 4693POPC   C1B20407  43.722  21.603   8.550
 4693POPC   C2B20408  43.767  21.625   8.250
 4693POPC   C3B20409  43.788  21.568   7.950
 4693POPC   C4B20410  43.713  21.554   7.650
 4694POPC   NC320411  12.104  20.587   9.450
 4694POPC   PO420412  12.029  20.609   9.150
 4694POPC   GL120413  12.121  20.602   8.850
 4694POPC   GL220414  12.051  20.690   8.850
 4694POPC   C1A20415  12.077  20.646   8.550
 4694POPC   D2A20416  12.088  20.642   8.250
 4694POPC   C3A20417  12.069  20.655   7.950
 4694POPC   C4A20418  12.070  20.571   7.650
 4694POPC   C1B20419  12.052  20.897   8.550
 4694POPC   C2B20420  12.043  20.832   8.250
 4694POPC   C3B20421  12.007  20.897   7.950
 4694POPC   C4B20422  12.077  20.823   7.650
 4695POPC   NC320423  25.267  11.291   9.450
 4695POPC   PO420424  25.240  11.272   9.150
 4695POPC   GL120425  25.229  11.342   8.850
 4695POPC   GL220426  25.255  11.178   8.850
 4695POPC   C1A20427  25.247  11.286   8.550
 4695POPC   D2A20428  25.284  11.308   8.250
 4695POPC   C3A20429  25.279  11.325   7.950
 4695POPC   C4A20430  25.275  11.277   7.650
 4695POPC   C1B20431  25.309  11.084   8.550
 4695POPC   C2B20432  25.269  11.026   8.250
 4695POPC   C3B20433  25.298  11.092   7.950
 4695POPC   C4B20434  25.315  11.019   7.650
 4696POPC   NC320435  35.367  34.536   9.450
 4696POPC   PO420436  35.326  34.604   9.150
 4696POPC   GL120437  35.359  34.588   8.850
 4696POPC   GL220438  35.403  34.436   8.850
 4696POPC   C1A20439  35.313  34.548   8.550
 4696POPC   D2A20440  35.307  34.589   8.250
 4696POPC   C3A20441  35.334  34.531   7.950
 4696POPC   C4A20442  35.380  34.583   7.650
 4696POPC   C1B20443  35.442  34.328   8.550
 4696POPC   C2B20444  35.510  34.385   8.250
 4696POPC   C3B20445  35.438  34.397   7.950
 4696POPC   C4B20446  35.443  34.393   7.650
 4697POPC   NC320447   6.621  15.141   9.450
 4697POPC   PO420448   6.659  15.176   9.150
 4697POPC   GL120449   6.615  15.161   8.850
 4697POPC   GL220450   6.703  15.075   8.850
 4697POPC   C1A20451   6.672  15.143   8.550
 4697POPC   D2A20452   6.686  15.199   8.250
 4697POPC   C3A20453   6.643  15.221   7.950
 4697POPC   C4A20454   6.616  15.160   7.650
 4697POPC   C1B20455   6.808  14.994   8.550
 4697POPC   C2B20456   6.806  14.946   8.250
 4697POPC   C3B20457   6.752  14.954   7.950
 4697POPC   C4B20458   6.794  15.003   7.650
 4698POPC   NC320459  28.388   5.128   9.450
 4698POPC   PO420460  28.412   5.089   9.150
 4698POPC   GL120461  28.347   5.095   8.850
 4698POPC   GL220462  28.345   5.252   8.850
 4698POPC   C1A20463  28.385   5.052   8.550
 4698POPC   D2A20464  28.348   5.081   8.250
 4698POPC   C3A20465  28.327   5.047   7.950
 4698POPC   C4A20466  28.362   5.112   7.650
 4698POPC   C1B20467  28.262   5.371   8.550
 4698POPC   C2B20468  28.255   5.289   8.250
 4698POPC   C3B20469  28.259   5.317   7.950
 4698POPC   C4B20470  28.302   5.334   7.650
 4699POPC   NC320471  36.873   7.439   9.450
 4699POPC   PO420472  36.926   7.390   9.150
 4699POPC   GL120473  36.944   7.398   8.850
 4699POPC   GL220474  36.823   7.501   8.850
 4699POPC   C1A20475  36.898   7.453   8.550
 4699POPC   D2A20476  36.877   7.406   8.250
 4699POPC   C3A20477  36.920   7.445   7.950
 4699POPC   C4A20478  36.918   7.401   7.650
 4699POPC   C1B20479  36.702   7.584   8.550
 4699POPC   C2B20480  36.743   7.584   8.250
 4699POPC   C3B20481  36.696   7.569   7.950
 4699POPC   C4B20482  36.680   7.571   7.650
 4700POPC   NC320483  44.680  10.484   9.450
 4700POPC   PO420484  44.681  10.557   9.150
 4700POPC   GL120485  44.675  10.485   8.850
 4700POPC   GL220486  44.627  10.574   8.850
 4700POPC   C1A20487  44.681  10.539   8.550
 4700POPC   D2A20488  44.690  10.525   8.250
 4700POPC   C3A20489  44.709  10.502   7.950
 4700POPC   C4A20490  44.640  10.537   7.650
 4700POPC   C1B20491  44.451  10.676   8.550
 4700POPC   C2B20492  44.501  10.678   8.250
 4700POPC   C3B20493  44.456  10.723   7.950
 4700POPC   C4B20494  44.532  10.666   7.650
 4701POPC   NC320495   9.759  22.161   9.450
 4701POPC   PO420496   9.733  22.183   9.150
 4701POPC   GL120497   9.747  22.121   8.850
 4701POPC   GL220498   9.819  22.045   8.850
 4701POPC   C1A20499   9.771  22.189   8.550
 4701POPC   D2A20500   9.782  22.150   8.250
 4701POPC   C3A20501   9.753  22.128   7.950
 4701POPC   C4A20502   9.758  22.117   7.650
 4701POPC   C1B20503   9.891  21.936   8.550
 4701POPC   C2B20504   9.868  21.897   8.250
 4701POPC   C3B20505   9.891  21.917   7.950
 4701POPC   C4B20506   9.842  21.902   7.650
 4702POPC   NC320507   8.227  30.737   9.450
 4702POPC   PO420508   8.150  30.727   9.150
 4702POPC   GL120509   8.245  30.660   8.850
 4702POPC   GL220510   8.163  30.625   8.850
 4702POPC   C1A20511   8.159  30.679   8.550
 4702POPC   D2A20512   8.165  30.658   8.250
 4702POPC   C3A20513   8.218  30.732   7.950
 4702POPC   C4A20514   8.200  30.668   7.650
 4702POPC   C1B20515   8.138  30.493   8.550
 4702POPC   C2B20516   8.153  30.416   8.250
 4702POPC   C3B20517   8.072  30.436   7.950
 4702POPC   C4B20518   8.154  30.446   7.650
 4703POPC   NC320519  43.106  36.879   9.450
 4703POPC   PO420520  43.115  36.951   9.150
 4703POPC   GL120521  43.115  36.895   8.850
 4703POPC   GL220522  43.104  36.811   8.850
 4703POPC   C1A20523  43.110  36.917   8.550
 4703POPC   D2A20524  43.130  36.911   8.250
 4703POPC   C3A20525  43.110  36.898   7.950
 4703POPC   C4A20526  43.068  36.946   7.650
 4703POPC   C1B20527  43.048  36.691   8.550
 4703POPC   C2B20528  43.054  36.622   8.250
 4703POPC   C3B20529  43.046  36.694   7.950
 4703POPC   C4B20530  43.057  36.659   7.650
 4704POPC   NC320531  33.039  39.204   9.450
 4704POPC   PO420532  33.038  39.271   9.150
 4704POPC   GL120533  33.036  39.253   8.850
 4704POPC   GL220534  33.134  39.129   8.850
 4704POPC   C1A20535  33.000  39.260   8.550
 4704POPC   D2A20536  33.063  39.268   8.250
 4704POPC   C3A20537  33.039  39.230   7.950
 4704POPC   C4A20538  33.059  39.211   7.650
 4704POPC   C1B20539  33.150  39.034   8.550
 4704POPC   C2B20540  33.165  39.013   8.250
 4704POPC   C3B20541  33.144  38.996   7.950
 4704POPC   C4B20542  33.184  39.065   7.650
 4705POPC   NC320543  15.964  18.322   9.450
 4705POPC   PO420544  15.956  18.246   9.150
 4705POPC   GL120545  15.979  18.287   8.850
 4705POPC   GL220546  15.848  18.407   8.850
 4705POPC   C1A20547  15.991  18.275   8.550
 4705POPC   D2A20548  15.950  18.252   8.250
 4705POPC   C3A20549  15.999  18.285   7.950
 4705POPC   C4A20550  15.961  18.311   7.650
 4705POPC   C1B20551  15.839  18.449   8.550
 4705POPC   C2B20552  15.758  18.488   8.250
 4705POPC   C3B20553  15.809  18.501   7.950
 4705POPC   C4B20554  15.754  18.453   7.650
 4706POPC   NC320555  36.936   8.220   9.450
 4706POPC   PO420556  36.922   8.238   9.150
 4706POPC   GL120557  36.881   8.209   8.850
 4706POPC   GL220558  36.974   8.155   8.850
 4706POPC   C1A20559  36.901   8.201   8.550
 4706POPC   D2A20560  36.875   8.205   8.250
 4706POPC   C3A20561  36.950   8.195   7.950
 4706POPC   C4A20562  36.901   8.154   7.650
 4706POPC   C1B20563  37.133   8.051   8.550
 4706POPC   C2B20564  37.091   8.086   8.250
 4706POPC   C3B20565  37.099   8.074   7.950
 4706POPC   C4B20566  37.107   8.092   7.650
 4707POPC   NC320567  19.084  26.068   9.450
 4707POPC   PO420568  19.107  26.034   9.150
 4707POPC   GL120569  19.076  26.001   8.850
 4707POPC   GL220570  19.164  26.065   8.850
 4707POPC   C1A20571  19.018  26.062   8.550
 4707POPC   D2A20572  19.099  26.053   8.250
 4707POPC   C3A20573  19.093  26.000   7.950
 4707POPC   C4A20574  19.035  26.011   7.650
 4707POPC   C1B20575  19.285  26.149   8.550
 4707POPC   C2B20576  19.272  26.176   8.250
 4707POPC   C3B20577  19.252  26.167   7.950
 4707POPC   C4B20578  19.253  26.141   7.650
 4708POPC   NC320579  29.944  37.668   9.450
 4708POPC   PO420580  29.901  37.684   9.150
 4708POPC   GL120581  29.894  37.641   8.850
 4708POPC   GL220582  30.007  37.678   8.850
 4708POPC   C1A20583  29.951  37.719   8.550
 4708POPC   D2A20584  29.932  37.661   8.250
 4708POPC   C3A20585  29.929  37.677   7.950
 4708POPC   C4A20586  29.883  37.666   7.650
 4708POPC   C1B20587  30.130  37.594   8.550
 4708POPC   C2B20588  30.146  37.649   8.250
 4708POPC   C3B20589  30.193  37.598   7.950
 4708POPC   C4B20590  30.210  37.644   7.650
 4709POPC   NC320591  21.365  34.548   9.450
 4709POPC   PO420592  21.375  34.578   9.150
 4709POPC   GL120593  21.376  34.535   8.850
 4709POPC   GL220594  21.352  34.505   8.850
 4709POPC   C1A20595  21.385  34.563   8.550
 4709POPC   D2A20596  21.363  34.563   8.250
 4709POPC   C3A20597  21.414  34.528   7.950
 4709POPC   C4A20598  21.380  34.605   7.650
 4709POPC   C1B20599  21.302  34.360   8.550
 4709POPC   C2B20600  21.240  34.321   8.250
 4709POPC   C3B20601  21.290  34.338   7.950
 4709POPC   C4B20602  21.307  34.312   7.650
 4710POPC   NC320603  20.590   3.547   9.450
 4710POPC   PO420604  20.648   3.590   9.150
 4710POPC   GL120605  20.613   3.493   8.850
 4710POPC   GL220606  20.562   3.412   8.850
 4710POPC   C1A20607  20.652   3.579   8.550
 4710POPC   D2A20608  20.636   3.508   8.250
 4710POPC   C3A20609  20.600   3.586   7.950
 4710POPC   C4A20610  20.598   3.566   7.650
 4710POPC   C1B20611  20.396   3.348   8.550
 4710POPC   C2B20612  20.393   3.330   8.250
 4710POPC   C3B20613  20.446   3.331   7.950
 4710POPC   C4B20614  20.455   3.346   7.650
 4711POPC   NC320615  30.656  25.280   9.450
 4711POPC   PO420616  30.664  25.307   9.150
 4711POPC   GL120617  30.674  25.307   8.850
 4711POPC   GL220618  30.632  25.221   8.850
 4711POPC   C1A20619  30.676  25.236   8.550
 4711POPC   D2A20620  30.653  25.307   8.250
 4711POPC   C3A20621  30.695  25.217   7.950
 4711POPC   C4A20622  30.693  25.309   7.650
 4711POPC   C1B20623  30.488  25.112   8.550
 4711POPC   C2B20624  30.522  25.049   8.250
 4711POPC   C3B20625  30.545  25.066   7.950
 4711POPC   C4B20626  30.569  25.099   7.650
 4712POPC   NC320627  19.046  32.988   9.450
 4712POPC   PO420628  19.107  33.006   9.150
 4712POPC   GL120629  19.056  33.045   8.850
 4712POPC   GL220630  19.036  32.922   8.850
 4712POPC   C1A20631  19.082  33.031   8.550
 4712POPC   D2A20632  19.106  33.062   8.250
 4712POPC   C3A20633  19.090  32.981   7.950
 4712POPC   C4A20634  19.073  33.022   7.650
 4712POPC   C1B20635  19.081  32.786   8.550
 4712POPC   C2B20636  19.106  32.808   8.250
 4712POPC   C3B20637  19.095  32.795   7.950
 4712POPC   C4B20638  19.081  32.825   7.650
 4713POPC   NC320639   8.937  32.260   9.450
 4713POPC   PO420640   9.019  32.293   9.150
 4713POPC   GL120641   8.938  32.228   8.850
 4713POPC   GL220642   8.858  32.221   8.850
 4713POPC   C1A20643   8.985  32.265   8.550
 4713POPC   D2A20644   8.959  32.277   8.250
 4713POPC   C3A20645   9.022  32.254   7.950
 4713POPC   C4A20646   8.986  32.291   7.650
 4713POPC   C1B20647   8.763  32.109   8.550
 4713POPC   C2B20648   8.717  32.070   8.250
 4713POPC   C3B20649   8.743  32.159   7.950
 4713POPC   C4B20650   8.809  32.138   7.650
 4714POPC   NC320651  27.600  16.758   9.450
 4714POPC   PO420652  27.620  16.749   9.150
 4714POPC   GL120653  27.599  16.748   8.850
 4714POPC   GL220654  27.566  16.622   8.850
 4714POPC   C1A20655  27.631  16.717   8.550
 4714POPC   D2A20656  27.602  16.744   8.250
 4714POPC   C3A20657  27.562  16.729   7.950
 4714POPC   C4A20658  27.603  16.754   7.650
 4714POPC   C1B20659  27.584  16.460   8.550
 4714POPC   C2B20660  27.597  16.506   8.250
 4714POPC   C3B20661  27.583  16.472   7.950
 4714POPC   C4B20662  27.669  16.513   7.650
 4715POPC   NC320663  16.762   8.958   9.450
 4715POPC   PO420664  16.771   8.961   9.150
 4715POPC   GL120665  16.768   8.932   8.850
 4715POPC   GL220666  16.821   9.062   8.850
 4715POPC   C1A20667  16.718   8.961   8.550
 4715POPC   D2A20668  16.726   8.923   8.250
 4715POPC   C3A20669  16.777   8.998   7.950
 4715POPC   C4A20670  16.685   9.001   7.650
 4715POPC   C1B20671  16.836   9.196   8.550
 4715POPC   C2B20672  16.896   9.212   8.250
 4715POPC   C3B20673  16.836   9.134   7.950
 4715POPC   C4B20674  16.843   9.169   7.650
 4716POPC   NC320675  41.572  19.049   9.450
 4716POPC   PO420676  41.530  19.012   9.150
 4716POPC   GL120677  41.542  19.043   8.850
 4716POPC   GL220678  41.536  19.192   8.850
 4716POPC   C1A20679  41.544  19.034   8.550
 4716POPC   D2A20680  41.516  19.060   8.250
 4716POPC   C3A20681  41.559  19.086   7.950
 4716POPC   C4A20682  41.558  19.053   7.650
 4716POPC   C1B20683  41.564  19.293   8.550
 4716POPC   C2B20684  41.550  19.319   8.250
 4716POPC   C3B20685  41.596  19.290   7.950
 4716POPC   C4B20686  41.530  19.280   7.650
 4717POPC   NC320687  25.309  27.550   9.450
 4717POPC   PO420688  25.255  27.625   9.150
 4717POPC   GL120689  25.287  27.598   8.850
 4717POPC   GL220690  25.333  27.564   8.850
 4717POPC   C1A20691  25.232  27.544   8.550
 4717POPC   D2A20692  25.298  27.580   8.250
 4717POPC   C3A20693  25.258  27.557   7.950
 4717POPC   C4A20694  25.220  27.572   7.650
 4717POPC   C1B20695  25.455  27.478   8.550
 4717POPC   C2B20696  25.477  27.505   8.250
 4717POPC   C3B20697  25.461  27.500   7.950
 4717POPC   C4B20698  25.489  27.479   7.650
 4718POPC   NC320699  19.070  11.298   9.450
 4718POPC   PO420700  19.083  11.335   9.150
 4718POPC   GL120701  19.100  11.313   8.850
 4718POPC   GL220702  18.908  11.351   8.850
 4718POPC   C1A20703  19.094  11.294   8.550
 4718POPC   D2A20704  19.091  11.316   8.250
 4718POPC   C3A20705  19.074  11.315   7.950
 4718POPC   C4A20706  19.092  11.286   7.650
 4718POPC   C1B20707  18.794  11.412   8.550
 4718POPC   C2B20708  18.826  11.361   8.250
 4718POPC   C3B20709  18.861  11.347   7.950
 4718POPC   C4B20710  18.845  11.408   7.650
 4719POPC   NC320711  43.929  14.413   9.450
 4719POPC   PO420712  43.905  14.407   9.150
 4719POPC   GL120713  43.910  14.419   8.850
 4719POPC   GL220714  43.898  14.268   8.850
 4719POPC   C1A20715  43.881  14.440   8.550
 4719POPC   D2A20716  43.857  14.406   8.250
 4719POPC   C3A20717  43.867  14.387   7.950
 4719POPC   C4A20718  43.880  14.435   7.650
 4719POPC   C1B20719  43.810  14.198   8.550
 4719POPC   C2B20720  43.822  14.179   8.250
 4719POPC   C3B20721  43.865  14.148   7.950
 4719POPC   C4B20722  43.842  14.143   7.650
 4720POPC   NC320723  37.706  27.554   9.450
 4720POPC   PO420724  37.704  27.601   9.150
 4720POPC   GL120725  37.630  27.599   8.850
 4720POPC   GL220726  37.635  27.731   8.850
 4720POPC   C1A20727  37.661  27.582   8.550
 4720POPC   D2A20728  37.660  27.609   8.250
 4720POPC   C3A20729  37.694  27.581   7.950
 4720POPC   C4A20730  37.712  27.621   7.650
 4720POPC   C1B20731  37.542  27.772   8.550
 4720POPC   C2B20732  37.545  27.757   8.250
 4720POPC   C3B20733  37.551  27.813   7.950
 4720POPC   C4B20734  37.540  27.738   7.650
 4721POPC   NC320735  40.010   4.303   9.450
 4721POPC   PO420736  40.055   4.277   9.150
 4721POPC   GL120737  40.010   4.321   8.850
 4721POPC   GL220738  39.950   4.409   8.850
 4721POPC   C1A20739  39.969   4.271   8.550
 4721POPC   D2A20740  40.009   4.297   8.250
 4721POPC   C3A20741  40.013   4.352   7.950
 4721POPC   C4A20742  40.037   4.332   7.650
 4721POPC   C1B20743  39.928   4.528   8.550
 4721POPC   C2B20744  39.922   4.526   8.250
 4721POPC   C3B20745  39.912   4.589   7.950
 4721POPC   C4B20746  39.900   4.574   7.650
 4722POPC   NC320747  31.467  29.963   9.450
 4722POPC   PO420748  31.493  29.957   9.150
 4722POPC   GL120749  31.449  29.937   8.850
 4722POPC   GL220750  31.317  29.932   8.850
 4722POPC   C1A20751  31.490  29.893   8.550
 4722POPC   D2A20752  31.459  29.960   8.250
 4722POPC   C3A20753  31.425  29.952   7.950
 4722POPC   C4A20754  31.442  29.941   7.650
 4722POPC   C1B20755  31.230  29.974   8.550
 4722POPC   C2B20756  31.243  29.981   8.250
 4722POPC   C3B20757  31.247  29.979   7.950
 4722POPC   C4B20758  31.239  30.000   7.650
 4723POPC   NC320759  43.079  26.790   9.450
 4723POPC   PO420760  43.114  26.831   9.150
 4723POPC   GL120761  43.075  26.864   8.850
 4723POPC   GL220762  42.987  26.772   8.850
 4723POPC   C1A20763  43.095  26.811   8.550
 4723POPC   D2A20764  43.152  26.799   8.250
 4723POPC   C3A20765  43.061  26.811   7.950
 4723POPC   C4A20766  43.100  26.848   7.650
 4723POPC   C1B20767  42.885  26.725   8.550
 4723POPC   C2B20768  42.876  26.721   8.250
 4723POPC   C3B20769  42.923  26.724   7.950
 4723POPC   C4B20770  42.845  26.703   7.650
 4724POPC   NC320771  43.854  12.094   9.450
 4724POPC   PO420772  43.866  12.118   9.150
 4724POPC   GL120773  43.839  12.109   8.850
 4724POPC   GL220774  43.897  11.983   8.850
 4724POPC   C1A20775  43.899  12.048   8.550
 4724POPC   D2A20776  43.869  12.041   8.250
 4724POPC   C3A20777  43.893  12.117   7.950
 4724POPC   C4A20778  43.867  12.063   7.650
 4724POPC   C1B20779  43.857  11.843   8.550
 4724POPC   C2B20780  43.806  11.794   8.250
 4724POPC   C3B20781  43.851  11.790   7.950
 4724POPC   C4B20782  43.824  11.877   7.650
 4725POPC   NC320783   9.749   7.410   9.450
 4725POPC   PO420784   9.788   7.422   9.150
 4725POPC   GL120785   9.790   7.416   8.850
 4725POPC   GL220786   9.724   7.311   8.850
 4725POPC   C1A20787   9.716   7.458   8.550
 4725POPC   D2A20788   9.719   7.417   8.250
 4725POPC   C3A20789   9.773   7.470   7.950
 4725POPC   C4A20790   9.716   7.435   7.650
 4725POPC   C1B20791   9.703   7.191   8.550
 4725POPC   C2B20792   9.734   7.167   8.250
 4725POPC   C3B20793   9.722   7.142   7.950
 4725POPC   C4B20794   9.677   7.185   7.650
 4726POPC   NC320795  22.185  36.857   9.450
 4726POPC   PO420796  22.131  36.896   9.150
 4726POPC   GL120797  22.159  36.898   8.850
 4726POPC   GL220798  22.113  36.815   8.850
 4726POPC   C1A20799  22.174  36.923   8.550
 4726POPC   D2A20800  22.204  36.905   8.250
 4726POPC   C3A20801  22.196  36.914   7.950
 4726POPC   C4A20802  22.129  36.907   7.650
 4726POPC   C1B20803  22.115  36.702   8.550
 4726POPC   C2B20804  22.100  36.676   8.250
 4726POPC   C3B20805  22.131  36.621   7.950
 4726POPC   C4B20806  22.079  36.619   7.650
 4727POPC   NC320807  14.372   3.582   9.450
 4727POPC   PO420808  14.442   3.552   9.150
 4727POPC   GL120809  14.450   3.515   8.850
 4727POPC   GL220810  14.482   3.543   8.850
 4727POPC   C1A20811  14.430   3.576   8.550
 4727POPC   D2A20812  14.441   3.545   8.250
 4727POPC   C3A20813  14.359   3.546   7.950
 4727POPC   C4A20814  14.377   3.539   7.650
 4727POPC   C1B20815  14.648   3.503   8.550
 4727POPC   C2B20816  14.684   3.436   8.250
 4727POPC   C3B20817  14.651   3.430   7.950
 4727POPC   C4B20818  14.592   3.463   7.650
 4728POPC   NC320819  31.464  19.834   9.450
 4728POPC   PO420820  31.484  19.788   9.150
 4728POPC   GL120821  31.510  19.875   8.850
 4728POPC   GL220822  31.431  19.716   8.850
 4728POPC   C1A20823  31.441  19.869   8.550
 4728POPC   D2A20824  31.518  19.816   8.250
 4728POPC   C3A20825  31.441  19.800   7.950
 4728POPC   C4A20826  31.477  19.842   7.650
 4728POPC   C1B20827  31.304  19.578   8.550
 4728POPC   C2B20828  31.352  19.672   8.250
 4728POPC   C3B20829  31.335  19.666   7.950
 4728POPC   C4B20830  31.363  19.616   7.650
 4729POPC   NC320831  39.252  14.385   9.450
 4729POPC   PO420832  39.183  14.393   9.150
 4729POPC   GL120833  39.256  14.385   8.850
 4729POPC   GL220834  39.138  14.289   8.850
 4729POPC   C1A20835  39.191  14.411   8.550
 4729POPC   D2A20836  39.243  14.384   8.250
 4729POPC   C3A20837  39.273  14.402   7.950
 4729POPC   C4A20838  39.195  14.438   7.650
 4729POPC   C1B20839  39.072  14.184   8.550
 4729POPC   C2B20840  39.053  14.236   8.250
 4729POPC   C3B20841  39.096  14.240   7.950
 4729POPC   C4B20842  39.114  14.239   7.650
 4730POPC   NC320843  13.661  13.584   9.450
 4730POPC   PO420844  13.631  13.615   9.150
 4730POPC   GL120845  13.665  13.632   8.850
 4730POPC   GL220846  13.671  13.729   8.850
 4730POPC   C1A20847  13.658  13.629   8.550
 4730POPC   D2A20848  13.652  13.579   8.250
 4730POPC   C3A20849  13.620  13.630   7.950
 4730POPC   C4A20850  13.645  13.627   7.650
 4730POPC   C1B20851  13.662  13.851   8.550
 4730POPC   C2B20852  13.645  13.925   8.250
 4730POPC   C3B20853  13.625  13.859   7.950
 4730POPC   C4B20854  13.624  13.886   7.650
 4731POPC   NC320855   2.789   8.999   9.450
 4731POPC   PO420856   2.812   8.986   9.150
 4731POPC   GL120857   2.767   9.003   8.850
 4731POPC   GL220858   2.662   9.061   8.850
 4731POPC   C1A20859   2.788   8.968   8.550
 4731POPC   D2A20860   2.768   8.976   8.250
 4731POPC   C3A20861   2.753   8.938   7.950
 4731POPC   C4A20862   2.766   9.010   7.650
 4731POPC   C1B20863   2.595   9.187   8.550
 4731POPC   C2B20864   2.647   9.167   8.250
 4731POPC   C3B20865   2.610   9.133   7.950
 4731POPC   C4B20866   2.653   9.217   7.650
 4732POPC   NC320867  21.376  20.620   9.450
 4732POPC   PO420868  21.354  20.609   9.150
 4732POPC   GL120869  21.391  20.627   8.850
 4732POPC   GL220870  21.308  20.492   8.850
 4732POPC   C1A20871  21.362  20.659   8.550
 4732POPC   D2A20872  21.367  20.571   8.250
 4732POPC   C3A20873  21.355  20.620   7.950
 4732POPC   C4A20874  21.344  20.562   7.650
 4732POPC   C1B20875  21.218  20.464   8.550
 4732POPC   C2B20876  21.232  20.450   8.250
 4732POPC   C3B20877  21.265  20.442   7.950
 4732POPC   C4B20878  21.252  20.449   7.650
 4733POPC   NC320879   7.443  20.635   9.450
 4733POPC   PO420880   7.438  20.582   9.150
 4733POPC   GL120881   7.435  20.643   8.850
 4733POPC   GL220882   7.575  20.641   8.850
 4733POPC   C1A20883   7.397  20.652   8.550
 4733POPC   D2A20884   7.399  20.593   8.250
 4733POPC   C3A20885   7.431  20.623   7.950
 4733POPC   C4A20886   7.445  20.653   7.650
 4733POPC   C1B20887   7.636  20.582   8.550
 4733POPC   C2B20888   7.642  20.639   8.250
 4733POPC   C3B20889   7.680  20.578   7.950
 4733POPC   C4B20890   7.663  20.591   7.650
 4734POPC   NC320891  29.902   1.220   9.450
 4734POPC   PO420892  29.935   1.227   9.150
 4734POPC   GL120893  29.881   1.228   8.850
 4734POPC   GL220894  29.783   1.224   8.850
 4734POPC   C1A20895  29.950   1.228   8.550
 4734POPC   D2A20896  29.888   1.174   8.250
 4734POPC   C3A20897  29.936   1.168   7.950
 4734POPC   C4A20898  29.913   1.185   7.650
 4734POPC   C1B20899  29.640   1.201   8.550
 4734POPC   C2B20900  29.669   1.271   8.250
 4734POPC   C3B20901  29.717   1.199   7.950
 4734POPC   C4B20902  29.653   1.283   7.650
 4735POPC   NC320903  16.702  22.162   9.450
 4735POPC   PO420904  16.707  22.131   9.150
 4735POPC   GL120905  16.692  22.130   8.850
 4735POPC   GL220906  16.649  22.114   8.850
 4735POPC   C1A20907  16.737  22.182   8.550
 4735POPC   D2A20908  16.745  22.157   8.250
 4735POPC   C3A20909  16.762  22.117   7.950
 4735POPC   C4A20910  16.753  22.172   7.650
 4735POPC   C1B20911  16.485  22.162   8.550
 4735POPC   C2B20912  16.455  22.073   8.250
 4735POPC   C3B20913  16.494  22.071   7.950
 4735POPC   C4B20914  16.444  22.122   7.650
 4736POPC   NC320915   9.737   3.559   9.450
 4736POPC   PO420916   9.720   3.548   9.150
 4736POPC   GL120917   9.797   3.553   8.850
 4736POPC   GL220918   9.604   3.513   8.850
 4736POPC   C1A20919   9.765   3.558   8.550
 4736POPC   D2A20920   9.744   3.586   8.250
 4736POPC   C3A20921   9.738   3.580   7.950
 4736POPC   C4A20922   9.700   3.578   7.650
 4736POPC   C1B20923   9.481   3.404   8.550
 4736POPC   C2B20924   9.503   3.452   8.250
 4736POPC   C3B20925   9.539   3.441   7.950
 4736POPC   C4B20926   9.550   3.482   7.650
 4737POPC   NC320927  26.793  22.172   9.450
 4737POPC   PO420928  26.825  22.151   9.150
 4737POPC   GL120929  26.834  22.133   8.850
 4737POPC   GL220930  26.902  22.055   8.850
 4737POPC   C1A20931  26.852  22.132   8.550
 4737POPC   D2A20932  26.844  22.132   8.250
 4737POPC   C3A20933  26.853  22.187   7.950
 4737POPC   C4A20934  26.838  22.167   7.650
 4737POPC   C1B20935  26.873  21.947   8.550
 4737POPC   C2B20936  26.902  21.924   8.250
 4737POPC   C3B20937  26.908  21.896   7.950
 4737POPC   C4B20938  26.951  21.892   7.650
 4738POPC   NC320939  33.036   1.950   9.450
 4738POPC   PO420940  33.004   1.946   9.150
 4738POPC   GL120941  33.044   1.966   8.850
 4738POPC   GL220942  32.912   2.117   8.850
 4738POPC   C1A20943  33.048   1.962   8.550
 4738POPC   D2A20944  33.001   1.946   8.250
 4738POPC   C3A20945  33.048   1.962   7.950
 4738POPC   C4A20946  32.979   1.958   7.650
 4738POPC   C1B20947  32.858   2.166   8.550
 4738POPC   C2B20948  32.922   2.187   8.250
 4738POPC   C3B20949  32.870   2.219   7.950
 4738POPC   C4B20950  32.838   2.195   7.650
 4739POPC   NC320951  41.584  29.097   9.450
 4739POPC   PO420952  41.510  29.109   9.150
 4739POPC   GL120953  41.557  29.193   8.850
 4739POPC   GL220954  41.388  29.111   8.850
 4739POPC   C1A20955  41.523  29.173   8.550
 4739POPC   D2A20956  41.526  29.153   8.250
 4739POPC   C3A20957  41.509  29.140   7.950
 4739POPC   C4A20958  41.558  29.186   7.650
 4739POPC   C1B20959  41.355  29.104   8.550
 4739POPC   C2B20960  41.355  29.133   8.250
 4739POPC   C3B20961  41.338  29.095   7.950
 4739POPC   C4B20962  41.285  29.123   7.650
 4740POPC   NC320963  30.675  41.572   9.450
 4740POPC   PO420964  30.647  41.568   9.150
 4740POPC   GL120965  30.740  41.575   8.850
 4740POPC   GL220966  30.786  41.533   8.850
 4740POPC   C1A20967  30.668  41.511   8.550
 4740POPC   D2A20968  30.744  41.553   8.250
 4740POPC   C3A20969  30.676  41.575   7.950
 4740POPC   C4A20970  30.729  41.603   7.650
 4740POPC   C1B20971  30.877  41.386   8.550
 4740POPC   C2B20972  30.947  41.370   8.250
 4740POPC   C3B20973  30.926  41.404   7.950
 4740POPC   C4B20974  30.886  41.421   7.650
 4741POPC   NC320975  29.178  26.815   9.450
 4741POPC   PO420976  29.116  26.850   9.150
 4741POPC   GL120977  29.176  26.786   8.850
 4741POPC   GL220978  29.068  26.737   8.850
 4741POPC   C1A20979  29.114  26.824   8.550
 4741POPC   D2A20980  29.169  26.831   8.250
 4741POPC   C3A20981  29.101  26.794   7.950
 4741POPC   C4A20982  29.184  26.861   7.650
 4741POPC   C1B20983  29.058  26.555   8.550
 4741POPC   C2B20984  29.023  26.636   8.250
 4741POPC   C3B20985  29.011  26.556   7.950
 4741POPC   C4B20986  29.025  26.571   7.650
 4742POPC   NC320987  25.995  20.642   9.450
 4742POPC   PO420988  26.058  20.621   9.150
 4742POPC   GL120989  26.014  20.611   8.850
 4742POPC   GL220990  26.095  20.768   8.850
 4742POPC   C1A20991  26.024  20.573   8.550
 4742POPC   D2A20992  26.063  20.603   8.250
 4742POPC   C3A20993  25.998  20.651   7.950
 4742POPC   C4A20994  26.063  20.567   7.650
 4742POPC   C1B20995  26.103  20.892   8.550
 4742POPC   C2B20996  26.085  20.883   8.250
 4742POPC   C3B20997  26.114  20.852   7.950
 4742POPC   C4B20998  26.083  20.822   7.650
 4743POPC   NC320999  22.955  15.150   9.450
 4743POPC   PO421000  22.932  15.175   9.150
 4743POPC   GL121001  22.959  15.130   8.850
 4743POPC   GL221002  22.861  15.015   8.850
 4743POPC   C1A21003  22.986  15.216   8.550
 4743POPC   D2A21004  22.915  15.209   8.250
 4743POPC   C3A21005  22.972  15.170   7.950
 4743POPC   C4A21006  22.913  15.143   7.650
 4743POPC   C1B21007  22.896  14.967   8.550
 4743POPC   C2B21008  22.864  14.914   8.250
 4743POPC   C3B21009  22.904  14.939   7.950
 4743POPC   C4B21010  22.899  14.907   7.650
 4744POPC   NC321011  28.406   1.176   9.450
 4744POPC   PO421012  28.370   1.183   9.150
 4744POPC   GL121013  28.355   1.167   8.850
 4744POPC   GL221014  28.347   1.300   8.850
 4744POPC   C1A21015  28.378   1.260   8.550
 4744POPC   D2A21016  28.373   1.246   8.250
 4744POPC   C3A21017  28.405   1.246   7.950
 4744POPC   C4A21018  28.350   1.239   7.650
 4744POPC   C1B21019  28.414   1.468   8.550
 4744POPC   C2B21020  28.322   1.510   8.250
 4744POPC   C3B21021  28.390   1.491   7.950
 4744POPC   C4B21022  28.391   1.492   7.650
 4745POPC   NC321023  14.398  41.522   9.450
 4745POPC   PO421024  14.396  41.509   9.150
 4745POPC   GL121025  14.432  41.542   8.850
 4745POPC   GL221026  14.278  41.640   8.850
 4745POPC   C1A21027  14.359  41.515   8.550
 4745POPC   D2A21028  14.406  41.556   8.250
 4745POPC   C3A21029  14.377  41.552   7.950
 4745POPC   C4A21030  14.424  41.514   7.650
 4745POPC   C1B21031  14.202  41.641   8.550
 4745POPC   C2B21032  14.193  41.702   8.250
 4745POPC   C3B21033  14.191  41.666   7.950
 4745POPC   C4B21034  14.176  41.716   7.650
 4746POPC   NC321035   0.402  19.792   9.450
 4746POPC   PO421036   0.452  19.842   9.150
 4746POPC   GL121037   0.425  19.800   8.850
 4746POPC   GL221038   0.368  19.880   8.850
 4746POPC   C1A21039   0.455  19.878   8.550
 4746POPC   D2A21040   0.415  19.821   8.250
 4746POPC   C3A21041   0.436  19.789   7.950
 4746POPC   C4A21042   0.440  19.846   7.650
 4746POPC   C1B21043   0.219  19.997   8.550
 4746POPC   C2B21044   0.181  20.022   8.250
 4746POPC   C3B21045   0.274  19.952   7.950
 4746POPC   C4B21046   0.248  19.989   7.650
 4747POPC   NC321047  26.008  19.858   9.450
 4747POPC   PO421048  26.087  19.794   9.150
 4747POPC   GL121049  26.079  19.854   8.850
 4747POPC   GL221050  25.943  19.800   8.850
 4747POPC   C1A21051  26.074  19.792   8.550
 4747POPC   D2A21052  26.050  19.797   8.250
 4747POPC   C3A21053  26.062  19.826   7.950
 4747POPC   C4A21054  25.998  19.830   7.650
 4747POPC   C1B21055  25.862  19.739   8.550
 4747POPC   C2B21056  25.826  19.712   8.250
 4747POPC   C3B21057  25.797  19.678   7.950
 4747POPC   C4B21058  25.837  19.748   7.650
 4748POPC   NC321059  15.157  34.590   9.450
 4748POPC   PO421060  15.205  34.581   9.150
 4748POPC   GL121061  15.200  34.625   8.850
 4748POPC   GL221062  15.050  34.554   8.850
 4748POPC   C1A21063  15.226  34.590   8.550
 4748POPC   D2A21064  15.177  34.579   8.250
 4748POPC   C3A21065  15.164  34.601   7.950
 4748POPC   C4A21066  15.211  34.577   7.650
 4748POPC   C1B21067  14.926  34.445   8.550
 4748POPC   C2B21068  15.002  34.473   8.250
 4748POPC   C3B21069  14.997  34.451   7.950
 4748POPC   C4B21070  14.942  34.502   7.650
 4749POPC   NC321071  28.407  28.379   9.450
 4749POPC   PO421072  28.355  28.360   9.150
 4749POPC   GL121073  28.403  28.378   8.850
 4749POPC   GL221074  28.268  28.321   8.850
 4749POPC   C1A21075  28.339  28.395   8.550
 4749POPC   D2A21076  28.367  28.408   8.250
 4749POPC   C3A21077  28.335  28.361   7.950
 4749POPC   C4A21078  28.328  28.337   7.650
 4749POPC   C1B21079  28.113  28.226   8.550
 4749POPC   C2B21080  28.126  28.264   8.250
 4749POPC   C3B21081  28.156  28.251   7.950
 4749POPC   C4B21082  28.170  28.253   7.650
 4750POPC   NC321083  32.232  39.280   9.450
 4750POPC   PO421084  32.245  39.271   9.150
 4750POPC   GL121085  32.234  39.269   8.850
 4750POPC   GL221086  32.374  39.196   8.850
 4750POPC   C1A21087  32.225  39.258   8.550
 4750POPC   D2A21088  32.281  39.215   8.250
 4750POPC   C3A21089  32.293  39.204   7.950
 4750POPC   C4A21090  32.287  39.196   7.650
 4750POPC   C1B21091  32.481  39.128   8.550
 4750POPC   C2B21092  32.464  39.081   8.250
 4750POPC   C3B21093  32.457  39.143   7.950
 4750POPC   C4B21094  32.494  39.099   7.650
 4751POPC   NC321095  10.488  12.821   9.450
 4751POPC   PO421096  10.492  12.877   9.150
 4751POPC   GL121097  10.529  12.861   8.850
 4751POPC   GL221098  10.427  12.759   8.850
 4751POPC   C1A21099  10.574  12.869   8.550
 4751POPC   D2A21100  10.557  12.809   8.250
 4751POPC   C3A21101  10.571  12.843   7.950
 4751POPC   C4A21102  10.498  12.811   7.650
 4751POPC   C1B21103  10.261  12.736   8.550
 4751POPC   C2B21104  10.288  12.702   8.250
 4751POPC   C3B21105  10.326  12.776   7.950
 4751POPC   C4B21106  10.281  12.778   7.650
 4752POPC   NC321107  14.408  22.933   9.450
 4752POPC   PO421108  14.389  22.890   9.150
 4752POPC   GL121109  14.453  22.950   8.850
 4752POPC   GL221110  14.358  22.792   8.850
 4752POPC   C1A21111  14.443  22.959   8.550
 4752POPC   D2A21112  14.422  22.969   8.250
 4752POPC   C3A21113  14.379  22.902   7.950
 4752POPC   C4A21114  14.452  22.931   7.650
 4752POPC   C1B21115  14.300  22.694   8.550
 4752POPC   C2B21116  14.358  22.657   8.250
 4752POPC   C3B21117  14.294  22.670   7.950
 4752POPC   C4B21118  14.305  22.741   7.650
 4753POPC   NC321119  40.783  33.004   9.450
 4753POPC   PO421120  40.753  33.003   9.150
 4753POPC   GL121121  40.776  33.004   8.850
 4753POPC   GL221122  40.871  32.956   8.850
 4753POPC   C1A21123  40.779  33.072   8.550
 4753POPC   D2A21124  40.787  33.001   8.250
 4753POPC   C3A21125  40.826  33.019   7.950
 4753POPC   C4A21126  40.825  32.989   7.650
 4753POPC   C1B21127  40.974  32.974   8.550
 4753POPC   C2B21128  40.993  32.955   8.250
 4753POPC   C3B21129  40.969  32.931   7.950
 4753POPC   C4B21130  40.987  32.946   7.650
 4754POPC   NC321131  36.873   9.706   9.450
 4754POPC   PO421132  36.891   9.797   9.150
 4754POPC   GL121133  36.855   9.795   8.850
 4754POPC   GL221134  36.954   9.626   8.850
 4754POPC   C1A21135  36.865   9.701   8.550
 4754POPC   D2A21136  36.935   9.716   8.250
 4754POPC   C3A21137  36.899   9.728   7.950
 4754POPC   C4A21138  36.895   9.795   7.650
 4754POPC   C1B21139  36.969   9.474   8.550
 4754POPC   C2B21140  36.952   9.484   8.250
 4754POPC   C3B21141  36.966   9.538   7.950
 4754POPC   C4B21142  36.943   9.492   7.650
 4755POPC   NC321143  42.383  34.532   9.450
 4755POPC   PO421144  42.361  34.536   9.150
 4755POPC   GL121145  42.322  34.532   8.850
 4755POPC   GL221146  42.247  34.662   8.850
 4755POPC   C1A21147  42.348  34.543   8.550
 4755POPC   D2A21148  42.376  34.526   8.250
 4755POPC   C3A21149  42.351  34.534   7.950
 4755POPC   C4A21150  42.308  34.614   7.650
 4755POPC   C1B21151  42.164  34.823   8.550
 4755POPC   C2B21152  42.221  34.806   8.250
 4755POPC   C3B21153  42.233  34.740   7.950
 4755POPC   C4B21154  42.178  34.820   7.650
 4756POPC   NC321155   6.620   5.138   9.450
 4756POPC   PO421156   6.653   5.127   9.150
 4756POPC   GL121157   6.694   5.071   8.850
 4756POPC   GL221158   6.684   5.225   8.850
 4756POPC   C1A21159   6.623   5.105   8.550
 4756POPC   D2A21160   6.644   5.102   8.250
 4756POPC   C3A21161   6.610   5.134   7.950
 4756POPC   C4A21162   6.611   5.060   7.650
 4756POPC   C1B21163   6.656   5.339   8.550
 4756POPC   C2B21164   6.664   5.326   8.250
 4756POPC   C3B21165   6.674   5.296   7.950
 4756POPC   C4B21166   6.669   5.298   7.650
 4757POPC   NC321167   2.003   9.763   9.450
 4757POPC   PO421168   2.006   9.730   9.150
 4757POPC   GL121169   2.036   9.701   8.850
 4757POPC   GL221170   1.991   9.656   8.850
 4757POPC   C1A21171   1.985   9.738   8.550
 4757POPC   D2A21172   1.996   9.748   8.250
 4757POPC   C3A21173   1.996   9.761   7.950
 4757POPC   C4A21174   2.022   9.781   7.650
 4757POPC   C1B21175   2.056   9.499   8.550
 4757POPC   C2B21176   2.045   9.519   8.250
 4757POPC   C3B21177   2.024   9.540   7.950
 4757POPC   C4B21178   2.056   9.472   7.650
 4758POPC   NC321179  22.967  42.337   9.450
 4758POPC   PO421180  22.905  42.346   9.150
 4758POPC   GL121181  22.892  42.337   8.850
 4758POPC   GL221182  22.797  42.359   8.850
 4758POPC   C1A21183  22.973  42.365   8.550
 4758POPC   D2A21184  22.922  42.321   8.250
 4758POPC   C3A21185  22.946  42.375   7.950
 4758POPC   C4A21186  22.954  42.330   7.650
 4758POPC   C1B21187  22.679  42.426   8.550
 4758POPC   C2B21188  22.741  42.431   8.250
 4758POPC   C3B21189  22.732  42.501   7.950
 4758POPC   C4B21190  22.680  42.485   7.650
 4759POPC   NC321191   3.546  37.646   9.450
 4759POPC   PO421192   3.562  37.722   9.150
 4759POPC   GL121193   3.583  37.683   8.850
 4759POPC   GL221194   3.526  37.545   8.850
 4759POPC   C1A21195   3.512  37.648   8.550
 4759POPC   D2A21196   3.585  37.693   8.250
 4759POPC   C3A21197   3.578  37.709   7.950
 4759POPC   C4A21198   3.577  37.644   7.650
 4759POPC   C1B21199   3.657  37.484   8.550
 4759POPC   C2B21200   3.630  37.452   8.250
 4759POPC   C3B21201   3.561  37.435   7.950
 4759POPC   C4B21202   3.586  37.419   7.650
 4760POPC   NC321203  42.376  25.295   9.450
 4760POPC   PO421204  42.299  25.271   9.150
 4760POPC   GL121205  42.326  25.220   8.850
 4760POPC   GL221206  42.243  25.326   8.850
 4760POPC   C1A21207  42.330  25.239   8.550
 4760POPC   D2A21208  42.364  25.277   8.250
 4760POPC   C3A21209  42.350  25.243   7.950
 4760POPC   C4A21210  42.295  25.275   7.650
 4760POPC   C1B21211  42.127  25.325   8.550
 4760POPC   C2B21212  42.058  25.288   8.250
 4760POPC   C3B21213  42.081  25.290   7.950
 4760POPC   C4B21214  42.099  25.296   7.650
 4761POPC   NC321215  30.705  12.884   9.450
 4761POPC   PO421216  30.682  12.875   9.150
 4761POPC   GL121217  30.687  12.899   8.850
 4761POPC   GL221218  30.840  12.848   8.850
 4761POPC   C1A21219  30.699  12.900   8.550
 4761POPC   D2A21220  30.670  12.814   8.250
 4761POPC   C3A21221  30.735  12.812   7.950
 4761POPC   C4A21222  30.691  12.847   7.650
 4761POPC   C1B21223  30.918  12.875   8.550
 4761POPC   C2B21224  30.905  12.906   8.250
 4761POPC   C3B21225  30.925  12.898   7.950
 4761POPC   C4B21226  30.972  12.903   7.650
 4762POPC   NC321227  15.968  33.033   9.450
 4762POPC   PO421228  15.960  33.039   9.150
 4762POPC   GL121229  15.929  33.050   8.850
 4762POPC   GL221230  16.025  32.899   8.850
 4762POPC   C1A21231  15.948  32.988   8.550
 4762POPC   D2A21232  15.933  33.065   8.250
 4762POPC   C3A21233  15.910  33.061   7.950
 4762POPC   C4A21234  15.957  33.071   7.650
 4762POPC   C1B21235  16.167  32.886   8.550
 4762POPC   C2B21236  16.158  32.901   8.250
 4762POPC   C3B21237  16.167  32.866   7.950
 4762POPC   C4B21238  16.191  32.860   7.650
 4763POPC   NC321239  17.536  14.416   9.450
 4763POPC   PO421240  17.527  14.434   9.150
 4763POPC   GL121241  17.460  14.376   8.850
 4763POPC   GL221242  17.664  14.456   8.850
 4763POPC   C1A21243  17.522  14.432   8.550
 4763POPC   D2A21244  17.529  14.413   8.250
 4763POPC   C3A21245  17.504  14.451   7.950
 4763POPC   C4A21246  17.519  14.383   7.650
 4763POPC   C1B21247  17.677  14.543   8.550
 4763POPC   C2B21248  17.721  14.520   8.250
 4763POPC   C3B21249  17.715  14.524   7.950
 4763POPC   C4B21250  17.759  14.532   7.650
 4764POPC   NC321251  40.736  43.839   9.450
 4764POPC   PO421252  40.733  43.905   9.150
 4764POPC   GL121253  40.736  43.903   8.850
 4764POPC   GL221254  40.770  43.760   8.850
 4764POPC   C1A21255  40.818  43.914   8.550
 4764POPC   D2A21256  40.768  43.907   8.250
 4764POPC   C3A21257  40.822  43.859   7.950
 4764POPC   C4A21258  40.746  43.872   7.650
 4764POPC   C1B21259  40.826  43.694   8.550
 4764POPC   C2B21260  40.875  43.626   8.250
 4764POPC   C3B21261  40.867  43.628   7.950
 4764POPC   C4B21262  40.828  43.622   7.650
 4765POPC   NC321263  29.962   1.996   9.450
 4765POPC   PO421264  29.871   2.008   9.150
 4765POPC   GL121265  29.909   1.950   8.850
 4765POPC   GL221266  29.937   2.083   8.850
 4765POPC   C1A21267  29.911   2.034   8.550
 4765POPC   D2A21268  29.968   1.991   8.250
 4765POPC   C3A21269  29.928   1.955   7.950
 4765POPC   C4A21270  29.958   1.982   7.650
 4765POPC   C1B21271  29.884   2.210   8.550
 4765POPC   C2B21272  29.936   2.236   8.250
 4765POPC   C3B21273  29.974   2.222   7.950
 4765POPC   C4B21274  29.918   2.279   7.650
 4766POPC   NC321275  26.777   3.558   9.450
 4766POPC   PO421276  26.841   3.515   9.150
 4766POPC   GL121277  26.831   3.589   8.850
 4766POPC   GL221278  26.714   3.544   8.850
 4766POPC   C1A21279  26.842   3.552   8.550
 4766POPC   D2A21280  26.852   3.522   8.250
 4766POPC   C3A21281  26.786   3.514   7.950
 4766POPC   C4A21282  26.809   3.495   7.650
 4766POPC   C1B21283  26.568   3.437   8.550
 4766POPC   C2B21284  26.574   3.515   8.250
 4766POPC   C3B21285  26.532   3.436   7.950
 4766POPC   C4B21286  26.606   3.497   7.650
 4767POPC   NC321287  20.636  18.323   9.450
 4767POPC   PO421288  20.632  18.324   9.150
 4767POPC   GL121289  20.610  18.244   8.850
 4767POPC   GL221290  20.611  18.366   8.850
 4767POPC   C1A21291  20.601  18.265   8.550
 4767POPC   D2A21292  20.642  18.293   8.250
 4767POPC   C3A21293  20.623  18.275   7.950
 4767POPC   C4A21294  20.636  18.242   7.650
 4767POPC   C1B21295  20.642  18.573   8.550
 4767POPC   C2B21296  20.616  18.534   8.250
 4767POPC   C3B21297  20.625  18.566   7.950
 4767POPC   C4B21298  20.626  18.514   7.650
 4768POPC   NC321299  22.163  22.911   9.450
 4768POPC   PO421300  22.142  22.921   9.150
 4768POPC   GL121301  22.124  22.969   8.850
 4768POPC   GL221302  22.321  22.971   8.850
 4768POPC   C1A21303  22.140  22.979   8.550
 4768POPC   D2A21304  22.198  22.961   8.250
 4768POPC   C3A21305  22.176  22.954   7.950
 4768POPC   C4A21306  22.182  22.951   7.650
 4768POPC   C1B21307  22.422  22.879   8.550
 4768POPC   C2B21308  22.459  22.956   8.250
 4768POPC   C3B21309  22.417  22.969   7.950
 4768POPC   C4B21310  22.425  22.936   7.650
 4769POPC   NC321311  28.331  15.172   9.450
 4769POPC   PO421312  28.364  15.140   9.150
 4769POPC   GL121313  28.350  15.199   8.850
 4769POPC   GL221314  28.272  15.148   8.850
 4769POPC   C1A21315  28.322  15.177   8.550
 4769POPC   D2A21316  28.369  15.227   8.250
 4769POPC   C3A21317  28.340  15.207   7.950
 4769POPC   C4A21318  28.361  15.134   7.650
 4769POPC   C1B21319  28.137  15.217   8.550
 4769POPC   C2B21320  28.073  15.209   8.250
 4769POPC   C3B21321  28.113  15.216   7.950
 4769POPC   C4B21322  28.129  15.249   7.650
 4770POPC   NC321323  24.481  10.546   9.450
 4770POPC   PO421324  24.512  10.515   9.150
 4770POPC   GL121325  24.454  10.528   8.850
 4770POPC   GL221326  24.565  10.420   8.850
 4770POPC   C1A21327  24.491  10.567   8.550
 4770POPC   D2A21328  24.533  10.495   8.250
 4770POPC   C3A21329  24.524  10.484   7.950
 4770POPC   C4A21330  24.530  10.523   7.650
 4770POPC   C1B21331  24.699  10.420   8.550
 4770POPC   C2B21332  24.684  10.404   8.250
 4770POPC   C3B21333  24.654  10.350   7.950
 4770POPC   C4B21334  24.690  10.401   7.650
 4771POPC   NC321335  36.936  18.315   9.450
 4771POPC   PO421336  36.944  18.254   9.150
 4771POPC   GL121337  36.864  18.291   8.850
 4771POPC   GL221338  36.827  18.236   8.850
 4771POPC   C1A21339  36.935  18.327   8.550
 4771POPC   D2A21340  36.871  18.287   8.250
 4771POPC   C3A21341  36.929  18.274   7.950
 4771POPC   C4A21342  36.896  18.262   7.650
 4771POPC   C1B21343  36.676  18.219   8.550
 4771POPC   C2B21344  36.613  18.312   8.250
 4771POPC   C3B21345  36.677  18.268   7.950
 4771POPC   C4B21346  36.664  18.308   7.650
 4772POPC   NC321347  19.100  25.221   9.450
 4772POPC   PO421348  19.064  25.232   9.150
 4772POPC   GL121349  19.090  25.268   8.850
 4772POPC   GL221350  19.132  25.133   8.850
 4772POPC   C1A21351  19.078  25.307   8.550
 4772POPC   D2A21352  19.095  25.290   8.250
 4772POPC   C3A21353  19.078  25.249   7.950
 4772POPC   C4A21354  19.103  25.276   7.650
 4772POPC   C1B21355  19.132  25.050   8.550
 4772POPC   C2B21356  19.142  25.004   8.250
 4772POPC   C3B21357  19.195  25.007   7.950
 4772POPC   C4B21358  19.118  25.033   7.650
 4773POPC   NC321359  13.673  43.881   9.450
 4773POPC   PO421360  13.631  43.855   9.150
 4773POPC   GL121361  13.646  43.861   8.850
 4773POPC   GL221362  13.505  43.853   8.850
 4773POPC   C1A21363  13.609  43.909   8.550
 4773POPC   D2A21364  13.581  43.849   8.250
 4773POPC   C3A21365  13.639  43.845   7.950
 4773POPC   C4A21366  13.580  43.871   7.650
 4773POPC   C1B21367  13.403  43.916   8.550
 4773POPC   C2B21368  13.395  43.869   8.250
 4773POPC   C3B21369  13.328  43.858   7.950
 4773POPC   C4B21370  13.341  43.880   7.650
 4774POPC   NC321371  12.043   8.229   9.450
 4774POPC   PO421372  12.112   8.209   9.150
 4774POPC   GL121373  12.087   8.236   8.850
 4774POPC   GL221374  12.179   8.235   8.850
 4774POPC   C1A21375  12.043   8.198   8.550
 4774POPC   D2A21376  12.027   8.215   8.250
 4774POPC   C3A21377  12.053   8.172   7.950
 4774POPC   C4A21378  12.041   8.192   7.650
 4774POPC   C1B21379  12.349   8.218   8.550
 4774POPC   C2B21380  12.360   8.182   8.250
 4774POPC   C3B21381  12.315   8.164   7.950
 4774POPC   C4B21382  12.375   8.185   7.650
 4775POPC   NC321383  25.283   6.646   9.450
 4775POPC   PO421384  25.303   6.612   9.150
 4775POPC   GL121385  25.272   6.635   8.850
 4775POPC   GL221386  25.186   6.811   8.850
 4775POPC   C1A21387  25.252   6.629   8.550
 4775POPC   D2A21388  25.233   6.658   8.250
 4775POPC   C3A21389  25.239   6.664   7.950
 4775POPC   C4A21390  25.224   6.654   7.650
 4775POPC   C1B21391  25.149   6.838   8.550
 4775POPC   C2B21392  25.215   6.925   8.250
 4775POPC   C3B21393  25.163   6.832   7.950
 4775POPC   C4B21394  25.175   6.889   7.650
 4776POPC   NC321395  15.936  31.465   9.450
 4776POPC   PO421396  15.941  31.478   9.150
 4776POPC   GL121397  15.960  31.458   8.850
 4776POPC   GL221398  15.884  31.320   8.850
 4776POPC   C1A21399  15.967  31.459   8.550
 4776POPC   D2A21400  16.002  31.427   8.250
 4776POPC   C3A21401  15.968  31.460   7.950
 4776POPC   C4A21402  15.943  31.461   7.650
 4776POPC   C1B21403  15.900  31.195   8.550
 4776POPC   C2B21404  15.895  31.247   8.250
 4776POPC   C3B21405  15.918  31.252   7.950
 4776POPC   C4B21406  15.857  31.207   7.650
 4777POPC   NC321407  30.723  40.015   9.450
 4777POPC   PO421408  30.650  39.958   9.150
 4777POPC   GL121409  30.679  40.006   8.850
 4777POPC   GL221410  30.805  40.048   8.850
 4777POPC   C1A21411  30.664  40.056   8.550
 4777POPC   D2A21412  30.668  40.035   8.250
 4777POPC   C3A21413  30.722  40.021   7.950
 4777POPC   C4A21414  30.707  40.010   7.650
 4777POPC   C1B21415  30.960  40.068   8.550
 4777POPC   C2B21416  30.923  40.102   8.250
 4777POPC   C3B21417  30.909  40.112   7.950
 4777POPC   C4B21418  30.975  40.049   7.650
 4778POPC   NC321419   0.427  12.863   9.450
 4778POPC   PO421420   0.433  12.844   9.150
 4778POPC   GL121421   0.447  12.842   8.850
 4778POPC   GL221422   0.339  12.738   8.850
 4778POPC   C1A21423   0.409  12.828   8.550
 4778POPC   D2A21424   0.452  12.804   8.250
 4778POPC   C3A21425   0.428  12.840   7.950
 4778POPC   C4A21426   0.478  12.844   7.650
 4778POPC   C1B21427   0.340  12.643   8.550
 4778POPC   C2B21428   0.261  12.654   8.250
 4778POPC   C3B21429   0.304  12.693   7.950
 4778POPC   C4B21430   0.281  12.693   7.650
 4779POPC   NC321431   5.859   4.332   9.450
 4779POPC   PO421432   5.901   4.321   9.150
 4779POPC   GL121433   5.830   4.361   8.850
 4779POPC   GL221434   5.887   4.468   8.850
 4779POPC   C1A21435   5.913   4.341   8.550
 4779POPC   D2A21436   5.859   4.305   8.250
 4779POPC   C3A21437   5.918   4.273   7.950
 4779POPC   C4A21438   5.906   4.322   7.650
 4779POPC   C1B21439   5.870   4.604   8.550
 4779POPC   C2B21440   5.889   4.530   8.250
 4779POPC   C3B21441   5.864   4.551   7.950
 4779POPC   C4B21442   5.940   4.523   7.650
 4780POPC   NC321443  31.496  29.113   9.450
 4780POPC   PO421444  31.505  29.149   9.150
 4780POPC   GL121445  31.433  29.099   8.850
 4780POPC   GL221446  31.332  29.051   8.850
 4780POPC   C1A21447  31.510  29.160   8.550
 4780POPC   D2A21448  31.482  29.186   8.250
 4780POPC   C3A21449  31.474  29.160   7.950
 4780POPC   C4A21450  31.425  29.141   7.650
 4780POPC   C1B21451  31.288  29.032   8.550
 4780POPC   C2B21452  31.290  29.012   8.250
 4780POPC   C3B21453  31.285  29.007   7.950
 4780POPC   C4B21454  31.256  29.015   7.650
 4781POPC   NC321455   5.909   1.217   9.450
 4781POPC   PO421456   5.908   1.206   9.150
 4781POPC   GL121457   5.900   1.218   8.850
 4781POPC   GL221458   5.867   1.343   8.850
 4781POPC   C1A21459   5.826   1.231   8.550
 4781POPC   D2A21460   5.882   1.194   8.250
 4781POPC   C3A21461   5.844   1.191   7.950
 4781POPC   C4A21462   5.879   1.219   7.650
 4781POPC   C1B21463   5.804   1.411   8.550
 4781POPC   C2B21464   5.793   1.486   8.250
 4781POPC   C3B21465   5.839   1.485   7.950
 4781POPC   C4B21466   5.786   1.507   7.650
 4782POPC   NC321467  29.180  40.831   9.450
 4782POPC   PO421468  29.166  40.761   9.150
 4782POPC   GL121469  29.194  40.784   8.850
 4782POPC   GL221470  29.145  40.911   8.850
 4782POPC   C1A21471  29.160  40.820   8.550
 4782POPC   D2A21472  29.121  40.775   8.250
 4782POPC   C3A21473  29.173  40.810   7.950
 4782POPC   C4A21474  29.109  40.773   7.650
 4782POPC   C1B21475  29.254  41.015   8.550
 4782POPC   C2B21476  29.212  40.994   8.250
 4782POPC   C3B21477  29.208  41.006   7.950
 4782POPC   C4B21478  29.198  40.968   7.650
 4783POPC   NC321479  17.495   9.784   9.450
 4783POPC   PO421480  17.513   9.777   9.150
 4783POPC   GL121481  17.460   9.752   8.850
 4783POPC   GL221482  17.419   9.900   8.850
 4783POPC   C1A21483  17.545   9.768   8.550
 4783POPC   D2A21484  17.554   9.763   8.250
 4783POPC   C3A21485  17.498   9.717   7.950
 4783POPC   C4A21486  17.544   9.765   7.650
 4783POPC   C1B21487  17.338   9.970   8.550
 4783POPC   C2B21488  17.347   9.926   8.250
 4783POPC   C3B21489  17.365   9.962   7.950
 4783POPC   C4B21490  17.324   9.995   7.650
 4784POPC   NC321491  39.241  42.302   9.450
 4784POPC   PO421492  39.242  42.301   9.150
 4784POPC   GL121493  39.206  42.293   8.850
 4784POPC   GL221494  39.120  42.360   8.850
 4784POPC   C1A21495  39.250  42.337   8.550
 4784POPC   D2A21496  39.271  42.359   8.250
 4784POPC   C3A21497  39.191  42.377   7.950
 4784POPC   C4A21498  39.227  42.300   7.650
 4784POPC   C1B21499  39.009  42.468   8.550
 4784POPC   C2B21500  39.002  42.428   8.250
 4784POPC   C3B21501  39.028  42.469   7.950
 4784POPC   C4B21502  39.018  42.448   7.650
 4785POPC   NC321503  41.550  43.135   9.450
 4785POPC   PO421504  41.600  43.123   9.150
 4785POPC   GL121505  41.548  43.150   8.850
 4785POPC   GL221506  41.660  42.977   8.850
 4785POPC   C1A21507  41.599  43.136   8.550
 4785POPC   D2A21508  41.522  43.157   8.250
 4785POPC   C3A21509  41.530  43.128   7.950
 4785POPC   C4A21510  41.569  43.101   7.650
 4785POPC   C1B21511  41.730  42.933   8.550
 4785POPC   C2B21512  41.761  42.899   8.250
 4785POPC   C3B21513  41.711  42.990   7.950
 4785POPC   C4B21514  41.779  42.973   7.650
 4786POPC   NC321515  43.151  15.948   9.450
 4786POPC   PO421516  43.122  15.935   9.150
 4786POPC   GL121517  43.122  15.955   8.850
 4786POPC   GL221518  43.157  16.085   8.850
 4786POPC   C1A21519  43.121  15.958   8.550
 4786POPC   D2A21520  43.138  15.941   8.250
 4786POPC   C3A21521  43.132  15.996   7.950
 4786POPC   C4A21522  43.159  15.907   7.650
 4786POPC   C1B21523  43.247  16.208   8.550
 4786POPC   C2B21524  43.232  16.159   8.250
 4786POPC   C3B21525  43.249  16.137   7.950
 4786POPC   C4B21526  43.239  16.138   7.650
 4787POPC   NC321527  27.545  32.278   9.450
 4787POPC   PO421528  27.595  32.210   9.150
 4787POPC   GL121529  27.570  32.295   8.850
 4787POPC   GL221530  27.685  32.322   8.850
 4787POPC   C1A21531  27.576  32.289   8.550
 4787POPC   D2A21532  27.554  32.240   8.250
 4787POPC   C3A21533  27.552  32.238   7.950
 4787POPC   C4A21534  27.582  32.256   7.650
 4787POPC   C1B21535  27.821  32.308   8.550
 4787POPC   C2B21536  27.861  32.314   8.250
 4787POPC   C3B21537  27.871  32.385   7.950
 4787POPC   C4B21538  27.844  32.336   7.650
 4788POPC   NC321539  43.084  12.046   9.450
 4788POPC   PO421540  43.148  12.113   9.150
 4788POPC   GL121541  43.069  12.099   8.850
 4788POPC   GL221542  43.206  12.125   8.850
 4788POPC   C1A21543  43.060  12.071   8.550
 4788POPC   D2A21544  43.127  12.082   8.250
 4788POPC   C3A21545  43.142  12.026   7.950
 4788POPC   C4A21546  43.118  12.111   7.650
 4788POPC   C1B21547  43.344  12.074   8.550
 4788POPC   C2B21548  43.363  12.128   8.250
 4788POPC   C3B21549  43.403  12.126   7.950
 4788POPC   C4B21550  43.358  12.137   7.650
 4789POPC   NC321551  35.332  26.819   9.450
 4789POPC   PO421552  35.355  26.769   9.150
 4789POPC   GL121553  35.341  26.817   8.850
 4789POPC   GL221554  35.487  26.761   8.850
 4789POPC   C1A21555  35.330  26.840   8.550
 4789POPC   D2A21556  35.315  26.806   8.250
 4789POPC   C3A21557  35.330  26.835   7.950
 4789POPC   C4A21558  35.357  26.835   7.650
 4789POPC   C1B21559  35.540  26.728   8.550
 4789POPC   C2B21560  35.546  26.725   8.250
 4789POPC   C3B21561  35.513  26.698   7.950
 4789POPC   C4B21562  35.587  26.722   7.650
 4790POPC   NC321563  13.595  24.501   9.450
 4790POPC   PO421564  13.630  24.539   9.150
 4790POPC   GL121565  13.610  24.533   8.850
 4790POPC   GL221566  13.672  24.397   8.850
 4790POPC   C1A21567  13.604  24.510   8.550
 4790POPC   D2A21568  13.619  24.489   8.250
 4790POPC   C3A21569  13.598  24.490   7.950
 4790POPC   C4A21570  13.639  24.535   7.650
 4790POPC   C1B21571  13.744  24.269   8.550
 4790POPC   C2B21572  13.803  24.343   8.250
 4790POPC   C3B21573  13.760  24.247   7.950
 4790POPC   C4B21574  13.824  24.321   7.650
 4791POPC   NC321575  22.938  29.135   9.450
 4791POPC   PO421576  22.919  29.192   9.150
 4791POPC   GL121577  22.944  29.099   8.850
 4791POPC   GL221578  23.046  29.082   8.850
 4791POPC   C1A21579  22.981  29.179   8.550
 4791POPC   D2A21580  22.911  29.121   8.250
 4791POPC   C3A21581  22.983  29.158   7.950
 4791POPC   C4A21582  22.931  29.122   7.650
 4791POPC   C1B21583  23.081  28.913   8.550
 4791POPC   C2B21584  23.095  28.943   8.250
 4791POPC   C3B21585  23.067  28.924   7.950
 4791POPC   C4B21586  23.035  28.961   7.650
 4792POPC   NC321587  22.944  44.684   9.450
 4792POPC   PO421588  22.893  44.681   9.150
 4792POPC   GL121589  22.942  44.620   8.850
 4792POPC   GL221590  23.016  44.765   8.850
 4792POPC   C1A21591  22.977  44.677   8.550
 4792POPC   D2A21592  22.962  44.651   8.250
 4792POPC   C3A21593  22.903  44.640   7.950
 4792POPC   C4A21594  22.889  44.655   7.650
 4792POPC   C1B21595  23.103  44.796   8.550
 4792POPC   C2B21596  23.157  44.812   8.250
 4792POPC   C3B21597  23.143  44.858   7.950
 4792POPC   C4B21598  23.156  44.875   7.650
 4793POPC   NC321599  22.944   8.231   9.450
 4793POPC   PO421600  22.972   8.149   9.150
 4793POPC   GL121601  22.899   8.151   8.850
 4793POPC   GL221602  22.978   8.045   8.850
 4793POPC   C1A21603  22.971   8.236   8.550
 4793POPC   D2A21604  22.984   8.177   8.250
 4793POPC   C3A21605  22.965   8.213   7.950
 4793POPC   C4A21606  22.909   8.147   7.650
 4793POPC   C1B21607  23.034   7.925   8.550
 4793POPC   C2B21608  23.013   7.951   8.250
 4793POPC   C3B21609  22.999   7.971   7.950
 4793POPC   C4B21610  23.045   8.001   7.650
 4794POPC   NC321611  43.874  29.896   9.450
 4794POPC   PO421612  43.880  29.966   9.150
 4794POPC   GL121613  43.915  29.966   8.850
 4794POPC   GL221614  44.028  30.005   8.850
 4794POPC   C1A21615  43.907  29.886   8.550
 4794POPC   D2A21616  43.935  29.889   8.250
 4794POPC   C3A21617  43.879  29.907   7.950
 4794POPC   C4A21618  43.868  29.931   7.650
 4794POPC   C1B21619  44.051  30.032   8.550
 4794POPC   C2B21620  44.071  30.061   8.250
 4794POPC   C3B21621  44.067  30.039   7.950
 4794POPC   C4B21622  44.066  30.042   7.650
 4795POPC   NC321623  31.438  25.307   9.450
 4795POPC   PO421624  31.482  25.290   9.150
 4795POPC   GL121625  31.447  25.249   8.850
 4795POPC   GL221626  31.552  25.149   8.850
 4795POPC   C1A21627  31.449  25.262   8.550
 4795POPC   D2A21628  31.470  25.261   8.250
 4795POPC   C3A21629  31.431  25.230   7.950
 4795POPC   C4A21630  31.477  25.223   7.650
 4795POPC   C1B21631  31.602  25.075   8.550
 4795POPC   C2B21632  31.602  24.998   8.250
 4795POPC   C3B21633  31.594  25.029   7.950
 4795POPC   C4B21634  31.514  24.981   7.650
 4796POPC   NC321635  22.960  10.517   9.450
 4796POPC   PO421636  22.943  10.539   9.150
 4796POPC   GL121637  22.922  10.548   8.850
 4796POPC   GL221638  22.961  10.377   8.850
 4796POPC   C1A21639  22.978  10.571   8.550
 4796POPC   D2A21640  22.955  10.534   8.250
 4796POPC   C3A21641  22.957  10.532   7.950
 4796POPC   C4A21642  22.979  10.551   7.650
 4796POPC   C1B21643  23.034  10.259   8.550
 4796POPC   C2B21644  23.013  10.292   8.250
 4796POPC   C3B21645  23.020  10.292   7.950
 4796POPC   C4B21646  23.018  10.327   7.650
 4797POPC   NC321647  40.001  36.122   9.450
 4797POPC   PO421648  40.007  36.089   9.150
 4797POPC   GL121649  40.027  36.081   8.850
 4797POPC   GL221650  39.846  36.151   8.850
 4797POPC   C1A21651  39.974  36.144   8.550
 4797POPC   D2A21652  40.000  36.162   8.250
 4797POPC   C3A21653  40.042  36.125   7.950
 4797POPC   C4A21654  40.042  36.144   7.650
 4797POPC   C1B21655  39.736  36.180   8.550
 4797POPC   C2B21656  39.804  36.138   8.250
 4797POPC   C3B21657  39.722  36.168   7.950
 4797POPC   C4B21658  39.734  36.138   7.650
 4798POPC   NC321659   7.438   4.319   9.450
 4798POPC   PO421660   7.416   4.364   9.150
 4798POPC   GL121661   7.415   4.365   8.850
 4798POPC   GL221662   7.467   4.456   8.850
 4798POPC   C1A21663   7.398   4.275   8.550
 4798POPC   D2A21664   7.442   4.325   8.250
 4798POPC   C3A21665   7.458   4.293   7.950
 4798POPC   C4A21666   7.450   4.292   7.650
 4798POPC   C1B21667   7.544   4.591   8.550
 4798POPC   C2B21668   7.575   4.561   8.250
 4798POPC   C3B21669   7.510   4.539   7.950
 4798POPC   C4B21670   7.567   4.583   7.650
 4799POPC   NC321671  34.527  41.571   9.450
 4799POPC   PO421672  34.614  41.593   9.150
 4799POPC   GL121673  34.594  41.527   8.850
 4799POPC   GL221674  34.464  41.537   8.850
 4799POPC   C1A21675  34.537  41.565   8.550
 4799POPC   D2A21676  34.556  41.542   8.250
 4799POPC   C3A21677  34.606  41.589   7.950
 4799POPC   C4A21678  34.534  41.545   7.650
 4799POPC   C1B21679  34.335  41.436   8.550
 4799POPC   C2B21680  34.321  41.441   8.250
 4799POPC   C3B21681  34.373  41.455   7.950
 4799POPC   C4B21682  34.305  41.455   7.650
 4800POPC   NC321683  31.436   1.940   9.450
 4800POPC   PO421684  31.466   1.959   9.150
 4800POPC   GL121685  31.474   2.034   8.850
 4800POPC   GL221686  31.641   1.997   8.850
 4800POPC   C1A21687  31.439   1.958   8.550
 4800POPC   D2A21688  31.446   1.982   8.250
 4800POPC   C3A21689  31.443   1.954   7.950
 4800POPC   C4A21690  31.497   1.993   7.650
 4800POPC   C1B21691  31.714   2.030   8.550
 4800POPC   C2B21692  31.697   1.979   8.250
 4800POPC   C3B21693  31.678   2.002   7.950
 4800POPC   C4B21694  31.747   2.039   7.650
 4801POPC   NC321695  17.506  24.442   9.450
 4801POPC   PO421696  17.486  24.473   9.150
 4801POPC   GL121697  17.555  24.527   8.850
 4801POPC   GL221698  17.472  24.576   8.850
 4801POPC   C1A21699  17.516  24.519   8.550
 4801POPC   D2A21700  17.472  24.531   8.250
 4801POPC   C3A21701  17.522  24.512   7.950
 4801POPC   C4A21702  17.500  24.515   7.650
 4801POPC   C1B21703  17.473  24.779   8.550
 4801POPC   C2B21704  17.499  24.717   8.250
 4801POPC   C3B21705  17.550  24.742   7.950
 4801POPC   C4B21706  17.463  24.728   7.650
 4802POPC   NC321707  34.570  26.830   9.450
 4802POPC   PO421708  34.546  26.788   9.150
 4802POPC   GL121709  34.563  26.865   8.850
 4802POPC   GL221710  34.421  26.766   8.850
 4802POPC   C1A21711  34.601  26.815   8.550
 4802POPC   D2A21712  34.542  26.791   8.250
 4802POPC   C3A21713  34.574  26.777   7.950
 4802POPC   C4A21714  34.596  26.864   7.650
 4802POPC   C1B21715  34.281  26.725   8.550
 4802POPC   C2B21716  34.340  26.735   8.250
 4802POPC   C3B21717  34.341  26.817   7.950
 4802POPC   C4B21718  34.379  26.797   7.650
 4803POPC   NC321719   5.115  18.317   9.450
 4803POPC   PO421720   5.056  18.236   9.150
 4803POPC   GL121721   5.108  18.244   8.850
 4803POPC   GL221722   5.208  18.285   8.850
 4803POPC   C1A21723   5.090  18.242   8.550
 4803POPC   D2A21724   5.137  18.251   8.250
 4803POPC   C3A21725   5.069  18.308   7.950
 4803POPC   C4A21726   5.086  18.261   7.650
 4803POPC   C1B21727   5.327  18.357   8.550
 4803POPC   C2B21728   5.361  18.301   8.250
 4803POPC   C3B21729   5.296  18.344   7.950
 4803POPC   C4B21730   5.378  18.346   7.650
 4804POPC   NC321731  39.203  22.177   9.450
 4804POPC   PO421732  39.229  22.112   9.150
 4804POPC   GL121733  39.210  22.149   8.850
 4804POPC   GL221734  39.083  22.201   8.850
 4804POPC   C1A21735  39.269  22.155   8.550
 4804POPC   D2A21736  39.262  22.142   8.250
 4804POPC   C3A21737  39.273  22.206   7.950
 4804POPC   C4A21738  39.218  22.158   7.650
 4804POPC   C1B21739  38.951  22.247   8.550
 4804POPC   C2B21740  39.009  22.255   8.250
 4804POPC   C3B21741  38.989  22.210   7.950
 4804POPC   C4B21742  38.953  22.198   7.650
 4805POPC   NC321743  41.511  19.838   9.450
 4805POPC   PO421744  41.519  19.822   9.150
 4805POPC   GL121745  41.565  19.829   8.850
 4805POPC   GL221746  41.499  19.972   8.850
 4805POPC   C1A21747  41.552  19.843   8.550
 4805POPC   D2A21748  41.536  19.855   8.250
 4805POPC   C3A21749  41.590  19.794   7.950
 4805POPC   C4A21750  41.564  19.881   7.650
 4805POPC   C1B21751  41.381  20.019   8.550
 4805POPC   C2B21752  41.428  20.030   8.250
 4805POPC   C3B21753  41.422  20.058   7.950
 4805POPC   C4B21754  41.361  20.025   7.650
 4806POPC   NC321755  27.547   7.392   9.450
 4806POPC   PO421756  27.617   7.391   9.150
 4806POPC   GL121757  27.581   7.403   8.850
 4806POPC   GL221758  27.551   7.504   8.850
 4806POPC   C1A21759  27.581   7.447   8.550
 4806POPC   D2A21760  27.594   7.413   8.250
 4806POPC   C3A21761  27.618   7.467   7.950
 4806POPC   C4A21762  27.590   7.378   7.650
 4806POPC   C1B21763  27.451   7.670   8.550
 4806POPC   C2B21764  27.431   7.639   8.250
 4806POPC   C3B21765  27.462   7.656   7.950
 4806POPC   C4B21766  27.484   7.638   7.650
 4807POPC   NC321767   1.192  35.338   9.450
 4807POPC   PO421768   1.247  35.344   9.150
 4807POPC   GL121769   1.253  35.340   8.850
 4807POPC   GL221770   1.282  35.428   8.850
 4807POPC   C1A21771   1.180  35.367   8.550
 4807POPC   D2A21772   1.222  35.370   8.250
 4807POPC   C3A21773   1.235  35.356   7.950
 4807POPC   C4A21774   1.166  35.398   7.650
 4807POPC   C1B21775   1.337  35.562   8.550
 4807POPC   C2B21776   1.352  35.569   8.250
 4807POPC   C3B21777   1.318  35.533   7.950
 4807POPC   C4B21778   1.311  35.535   7.650
 4808POPC   NC321779  16.754  27.585   9.450
 4808POPC   PO421780  16.743  27.558   9.150
 4808POPC   GL121781  16.743  27.624   8.850
 4808POPC   GL221782  16.627  27.614   8.850
 4808POPC   C1A21783  16.743  27.595   8.550
 4808POPC   D2A21784  16.733  27.595   8.250
 4808POPC   C3A21785  16.734  27.552   7.950
 4808POPC   C4A21786  16.768  27.627   7.650
 4808POPC   C1B21787  16.457  27.702   8.550
 4808POPC   C2B21788  16.449  27.689   8.250
 4808POPC   C3B21789  16.537  27.685   7.950
 4808POPC   C4B21790  16.519  27.623   7.650
 4809POPC   NC321791  28.333  12.802   9.450
 4809POPC   PO421792  28.380  12.878   9.150
 4809POPC   GL121793  28.321  12.866   8.850
 4809POPC   GL221794  28.412  12.984   8.850
 4809POPC   C1A21795  28.399  12.885   8.550
 4809POPC   D2A21796  28.362  12.891   8.250
 4809POPC   C3A21797  28.358  12.835   7.950
 4809POPC   C4A21798  28.381  12.830   7.650
 4809POPC   C1B21799  28.389  13.149   8.550
 4809POPC   C2B21800  28.381  13.086   8.250
 4809POPC   C3B21801  28.334  13.103   7.950
 4809POPC   C4B21802  28.409  13.094   7.650
 4810POPC   NC321803  16.735  40.769   9.450
 4810POPC   PO421804  16.684  40.735   9.150
 4810POPC   GL121805  16.778  40.792   8.850
 4810POPC   GL221806  16.792  40.935   8.850
 4810POPC   C1A21807  16.716  40.799   8.550
 4810POPC   D2A21808  16.738  40.815   8.250
 4810POPC   C3A21809  16.697  40.771   7.950
 4810POPC   C4A21810  16.687  40.774   7.650
 4810POPC   C1B21811  16.840  40.973   8.550
 4810POPC   C2B21812  16.882  40.968   8.250
 4810POPC   C3B21813  16.809  41.025   7.950
 4810POPC   C4B21814  16.853  41.023   7.650
 4811POPC   NC321815  19.836  34.537   9.450
 4811POPC   PO421816  19.805  34.611   9.150
 4811POPC   GL121817  19.842  34.597   8.850
 4811POPC   GL221818  19.855  34.409   8.850
 4811POPC   C1A21819  19.787  34.559   8.550
 4811POPC   D2A21820  19.819  34.529   8.250
 4811POPC   C3A21821  19.853  34.538   7.950
 4811POPC   C4A21822  19.819  34.610   7.650
 4811POPC   C1B21823  19.919  34.298   8.550
 4811POPC   C2B21824  19.867  34.304   8.250
 4811POPC   C3B21825  19.901  34.329   7.950
 4811POPC   C4B21826  19.868  34.286   7.650
 4812POPC   NC321827   6.647  33.032   9.450
 4812POPC   PO421828   6.694  32.985   9.150
 4812POPC   GL121829   6.598  33.016   8.850
 4812POPC   GL221830   6.721  33.037   8.850
 4812POPC   C1A21831   6.650  33.053   8.550
 4812POPC   D2A21832   6.693  32.974   8.250
 4812POPC   C3A21833   6.673  32.990   7.950
 4812POPC   C4A21834   6.635  33.015   7.650
 4812POPC   C1B21835   6.910  33.009   8.550
 4812POPC   C2B21836   6.868  33.073   8.250
 4812POPC   C3B21837   6.931  32.980   7.950
 4812POPC   C4B21838   6.935  33.051   7.650
 4813POPC   NC321839   1.238  36.907   9.450
 4813POPC   PO421840   1.258  36.854   9.150
 4813POPC   GL121841   1.263  36.899   8.850
 4813POPC   GL221842   1.063  36.830   8.850
 4813POPC   C1A21843   1.235  36.854   8.550
 4813POPC   D2A21844   1.204  36.873   8.250
 4813POPC   C3A21845   1.228  36.902   7.950
 4813POPC   C4A21846   1.250  36.952   7.650
 4813POPC   C1B21847   0.957  36.839   8.550
 4813POPC   C2B21848   0.964  36.799   8.250
 4813POPC   C3B21849   1.004  36.769   7.950
 4813POPC   C4B21850   0.984  36.860   7.650
 4814POPC   NC321851  39.230  38.466   9.450
 4814POPC   PO421852  39.270  38.439   9.150
 4814POPC   GL121853  39.203  38.414   8.850
 4814POPC   GL221854  39.143  38.575   8.850
 4814POPC   C1A21855  39.229  38.459   8.550
 4814POPC   D2A21856  39.229  38.433   8.250
 4814POPC   C3A21857  39.242  38.473   7.950
 4814POPC   C4A21858  39.221  38.482   7.650
 4814POPC   C1B21859  39.058  38.604   8.550
 4814POPC   C2B21860  39.016  38.615   8.250
 4814POPC   C3B21861  39.021  38.662   7.950
 4814POPC   C4B21862  39.082  38.589   7.650
 4815POPC   NC321863   6.596  31.466   9.450
 4815POPC   PO421864   6.634  31.462   9.150
 4815POPC   GL121865   6.646  31.468   8.850
 4815POPC   GL221866   6.762  31.395   8.850
 4815POPC   C1A21867   6.662  31.446   8.550
 4815POPC   D2A21868   6.667  31.521   8.250
 4815POPC   C3A21869   6.636  31.479   7.950
 4815POPC   C4A21870   6.663  31.480   7.650
 4815POPC   C1B21871   6.767  31.250   8.550
 4815POPC   C2B21872   6.784  31.230   8.250
 4815POPC   C3B21873   6.751  31.280   7.950
 4815POPC   C4B21874   6.749  31.230   7.650
 4816POPC   NC321875   2.760  25.221   9.450
 4816POPC   PO421876   2.751  25.235   9.150
 4816POPC   GL121877   2.756  25.268   8.850
 4816POPC   GL221878   2.739  25.393   8.850
 4816POPC   C1A21879   2.716  25.255   8.550
 4816POPC   D2A21880   2.807  25.221   8.250
 4816POPC   C3A21881   2.732  25.266   7.950
 4816POPC   C4A21882   2.775  25.301   7.650
 4816POPC   C1B21883   2.598  25.517   8.550
 4816POPC   C2B21884   2.669  25.429   8.250
 4816POPC   C3B21885   2.658  25.460   7.950
 4816POPC   C4B21886   2.629  25.463   7.650
 4817POPC   NC321887  35.326  40.024   9.450
 4817POPC   PO421888  35.318  40.053   9.150
 4817POPC   GL121889  35.312  39.972   8.850
 4817POPC   GL221890  35.333  40.093   8.850
 4817POPC   C1A21891  35.326  40.021   8.550
 4817POPC   D2A21892  35.311  39.971   8.250
 4817POPC   C3A21893  35.338  39.959   7.950
 4817POPC   C4A21894  35.360  39.971   7.650
 4817POPC   C1B21895  35.239  40.267   8.550
 4817POPC   C2B21896  35.233  40.222   8.250
 4817POPC   C3B21897  35.278  40.208   7.950
 4817POPC   C4B21898  35.280  40.274   7.650
 4818POPC   NC321899   8.214  36.143   9.450
 4818POPC   PO421900   8.152  36.129   9.150
 4818POPC   GL121901   8.151  36.140   8.850
 4818POPC   GL221902   8.179  36.236   8.850
 4818POPC   C1A21903   8.211  36.131   8.550
 4818POPC   D2A21904   8.216  36.156   8.250
 4818POPC   C3A21905   8.188  36.124   7.950
 4818POPC   C4A21906   8.235  36.124   7.650
 4818POPC   C1B21907   8.200  36.340   8.550
 4818POPC   C2B21908   8.183  36.339   8.250
 4818POPC   C3B21909   8.218  36.379   7.950
 4818POPC   C4B21910   8.219  36.425   7.650
 4819POPC   NC321911   5.067  42.329   9.450
 4819POPC   PO421912   5.063  42.355   9.150
 4819POPC   GL121913   5.125  42.331   8.850
 4819POPC   GL221914   5.211  42.333   8.850
 4819POPC   C1A21915   5.054  42.298   8.550
 4819POPC   D2A21916   5.116  42.287   8.250
 4819POPC   C3A21917   5.106  42.297   7.950
 4819POPC   C4A21918   5.070  42.331   7.650
 4819POPC   C1B21919   5.364  42.372   8.550
 4819POPC   C2B21920   5.385  42.319   8.250
 4819POPC   C3B21921   5.320  42.277   7.950
 4819POPC   C4B21922   5.312  42.329   7.650
 4820POPC   NC321923  12.114  26.032   9.450
 4820POPC   PO421924  12.058  26.039   9.150
 4820POPC   GL121925  12.050  26.020   8.850
 4820POPC   GL221926  12.226  26.136   8.850
 4820POPC   C1A21927  12.105  26.066   8.550
 4820POPC   D2A21928  12.072  26.021   8.250
 4820POPC   C3A21929  12.065  26.029   7.950
 4820POPC   C4A21930  12.082  26.031   7.650
 4820POPC   C1B21931  12.344  26.177   8.550
 4820POPC   C2B21932  12.324  26.099   8.250
 4820POPC   C3B21933  12.263  26.101   7.950
 4820POPC   C4B21934  12.306  26.190   7.650
 4821POPC   NC321935  13.670  42.327   9.450
 4821POPC   PO421936  13.598  42.345   9.150
 4821POPC   GL121937  13.643  42.322   8.850
 4821POPC   GL221938  13.710  42.259   8.850
 4821POPC   C1A21939  13.612  42.315   8.550
 4821POPC   D2A21940  13.589  42.336   8.250
 4821POPC   C3A21941  13.659  42.369   7.950
 4821POPC   C4A21942  13.621  42.287   7.650
 4821POPC   C1B21943  13.724  42.103   8.550
 4821POPC   C2B21944  13.765  42.085   8.250
 4821POPC   C3B21945  13.695  42.071   7.950
 4821POPC   C4B21946  13.741  42.117   7.650
 4822POPC   NC321947  27.600  40.052   9.450
 4822POPC   PO421948  27.630  39.973   9.150
 4822POPC   GL121949  27.571  39.967   8.850
 4822POPC   GL221950  27.579  39.862   8.850
 4822POPC   C1A21951  27.553  39.977   8.550
 4822POPC   D2A21952  27.564  40.005   8.250
 4822POPC   C3A21953  27.624  40.045   7.950
 4822POPC   C4A21954  27.590  39.984   7.650
 4822POPC   C1B21955  27.675  39.761   8.550
 4822POPC   C2B21956  27.620  39.732   8.250
 4822POPC   C3B21957  27.603  39.729   7.950
 4822POPC   C4B21958  27.685  39.789   7.650
 4823POPC   NC321959   2.736  43.093   9.450
 4823POPC   PO421960   2.781  43.087   9.150
 4823POPC   GL121961   2.773  43.097   8.850
 4823POPC   GL221962   2.896  43.239   8.850
 4823POPC   C1A21963   2.753  43.095   8.550
 4823POPC   D2A21964   2.806  43.149   8.250
 4823POPC   C3A21965   2.776  43.152   7.950
 4823POPC   C4A21966   2.720  43.062   7.650
 4823POPC   C1B21967   2.965  43.322   8.550
 4823POPC   C2B21968   2.913  43.244   8.250
 4823POPC   C3B21969   2.898  43.255   7.950
 4823POPC   C4B21970   2.921  43.236   7.650
 4824POPC   NC321971  35.342  37.683   9.450
 4824POPC   PO421972  35.354  37.652   9.150
 4824POPC   GL121973  35.338  37.724   8.850
 4824POPC   GL221974  35.435  37.778   8.850
 4824POPC   C1A21975  35.389  37.725   8.550
 4824POPC   D2A21976  35.396  37.724   8.250
 4824POPC   C3A21977  35.304  37.661   7.950
 4824POPC   C4A21978  35.311  37.713   7.650
 4824POPC   C1B21979  35.454  37.942   8.550
 4824POPC   C2B21980  35.455  37.945   8.250
 4824POPC   C3B21981  35.417  37.877   7.950
 4824POPC   C4B21982  35.401  37.892   7.650
 4825POPC   NC321983  29.119  32.246   9.450
 4825POPC   PO421984  29.188  32.223   9.150
 4825POPC   GL121985  29.161  32.268   8.850
 4825POPC   GL221986  29.269  32.174   8.850
 4825POPC   C1A21987  29.190  32.211   8.550
 4825POPC   D2A21988  29.161  32.289   8.250
 4825POPC   C3A21989  29.159  32.223   7.950
 4825POPC   C4A21990  29.148  32.211   7.650
 4825POPC   C1B21991  29.329  32.111   8.550
 4825POPC   C2B21992  29.350  32.141   8.250
 4825POPC   C3B21993  29.397  32.085   7.950
 4825POPC   C4B21994  29.357  32.146   7.650
 4826POPC   NC321995  43.104  30.658   9.450
 4826POPC   PO421996  43.123  30.671   9.150
 4826POPC   GL121997  43.138  30.654   8.850
 4826POPC   GL221998  43.022  30.713   8.850
 4826POPC   C1A21999  43.079  30.701   8.550
 4826POPC   D2A22000  43.077  30.698   8.250
 4826POPC   C3A22001  43.092  30.655   7.950
 4826POPC   C4A22002  43.157  30.665   7.650
 4826POPC   C1B22003  42.826  30.684   8.550
 4826POPC   C2B22004  42.831  30.675   8.250
 4826POPC   C3B22005  42.874  30.617   7.950
 4826POPC   C4B22006  42.894  30.625   7.650
 4827POPC   NC322007  36.864  12.842   9.450
 4827POPC   PO422008  36.872  12.811   9.150
 4827POPC   GL122009  36.907  12.901   8.850
 4827POPC   GL222010  36.893  12.988   8.850
 4827POPC   C1A22011  36.911  12.822   8.550
 4827POPC   D2A22012  36.938  12.808   8.250
 4827POPC   C3A22013  36.938  12.826   7.950
 4827POPC   C4A22014  36.863  12.814   7.650
 4827POPC   C1B22015  36.874  13.147   8.550
 4827POPC   C2B22016  36.859  13.080   8.250
 4827POPC   C3B22017  36.894  13.076   7.950
 4827POPC   C4B22018  36.858  13.099   7.650
 4828POPC   NC322019   2.034  16.004   9.450
 4828POPC   PO422020   2.015  15.944   9.150
 4828POPC   GL122021   1.958  15.907   8.850
 4828POPC   GL222022   2.090  15.953   8.850
 4828POPC   C1A22023   2.034  15.946   8.550
 4828POPC   D2A22024   2.001  15.920   8.250
 4828POPC   C3A22025   2.007  15.906   7.950
 4828POPC   C4A22026   2.003  15.937   7.650
 4828POPC   C1B22027   2.257  15.852   8.550
 4828POPC   C2B22028   2.215  15.886   8.250
 4828POPC   C3B22029   2.272  15.838   7.950
 4828POPC   C4B22030   2.205  15.903   7.650
 4829POPC   NC322031  26.013   2.033   9.450
 4829POPC   PO422032  26.084   1.961   9.150
 4829POPC   GL122033  26.057   1.978   8.850
 4829POPC   GL222034  25.941   2.104   8.850
 4829POPC   C1A22035  26.011   1.965   8.550
 4829POPC   D2A22036  26.048   2.002   8.250
 4829POPC   C3A22037  26.017   1.999   7.950
 4829POPC   C4A22038  26.068   1.983   7.650
 4829POPC   C1B22039  25.884   2.181   8.550
 4829POPC   C2B22040  25.848   2.195   8.250
 4829POPC   C3B22041  25.849   2.184   7.950
 4829POPC   C4B22042  25.914   2.226   7.650
 4830POPC   NC322043  39.974  15.175   9.450
 4830POPC   PO422044  39.966  15.140   9.150
 4830POPC   GL122045  40.007  15.185   8.850
 4830POPC   GL222046  40.018  15.337   8.850
 4830POPC   C1A22047  40.026  15.165   8.550
 4830POPC   D2A22048  39.969  15.151   8.250
 4830POPC   C3A22049  39.992  15.216   7.950
 4830POPC   C4A22050  40.051  15.220   7.650
 4830POPC   C1B22051  40.045  15.393   8.550
 4830POPC   C2B22052  40.024  15.407   8.250
 4830POPC   C3B22053  40.004  15.380   7.950
 4830POPC   C4B22054  40.068  15.381   7.650
 4831POPC   NC322055  39.979   7.373   9.450
 4831POPC   PO422056  39.965   7.443   9.150
 4831POPC   GL122057  40.047   7.390   8.850
 4831POPC   GL222058  40.118   7.308   8.850
 4831POPC   C1A22059  40.025   7.456   8.550
 4831POPC   D2A22060  40.037   7.382   8.250
 4831POPC   C3A22061  40.039   7.457   7.950
 4831POPC   C4A22062  40.036   7.426   7.650
 4831POPC   C1B22063  40.220   7.206   8.550
 4831POPC   C2B22064  40.143   7.294   8.250
 4831POPC   C3B22065  40.217   7.198   7.950
 4831POPC   C4B22066  40.154   7.261   7.650
 4832POPC   NC322067  11.279  26.860   9.450
 4832POPC   PO422068  11.292  26.840   9.150
 4832POPC   GL122069  11.347  26.827   8.850
 4832POPC   GL222070  11.242  26.981   8.850
 4832POPC   C1A22071  11.280  26.803   8.550
 4832POPC   D2A22072  11.300  26.824   8.250
 4832POPC   C3A22073  11.310  26.830   7.950
 4832POPC   C4A22074  11.291  26.864   7.650
 4832POPC   C1B22075  11.241  27.000   8.550
 4832POPC   C2B22076  11.243  27.007   8.250
 4832POPC   C3B22077  11.200  27.059   7.950
 4832POPC   C4B22078  11.203  27.050   7.650
 4833POPC   NC322079  24.486   3.582   9.450
 4833POPC   PO422080  24.508   3.547   9.150
 4833POPC   GL122081  24.443   3.554   8.850
 4833POPC   GL222082  24.410   3.589   8.850
 4833POPC   C1A22083  24.530   3.588   8.550
 4833POPC   D2A22084  24.500   3.501   8.250
 4833POPC   C3A22085  24.473   3.513   7.950
 4833POPC   C4A22086  24.485   3.546   7.650
 4833POPC   C1B22087  24.287   3.692   8.550
 4833POPC   C2B22088  24.231   3.600   8.250
 4833POPC   C3B22089  24.215   3.637   7.950
 4833POPC   C4B22090  24.277   3.655   7.650
 4834POPC   NC322091  35.376  44.694   9.450
 4834POPC   PO422092  35.353  44.650   9.150
 4834POPC   GL122093  35.341  44.643   8.850
 4834POPC   GL222094  35.271  44.699   8.850
 4834POPC   C1A22095  35.357  44.668   8.550
 4834POPC   D2A22096  35.312  44.676   8.250
 4834POPC   C3A22097  35.399  44.700   7.950
 4834POPC   C4A22098  35.309  44.638   7.650
 4834POPC   C1B22099  35.138  44.725   8.550
 4834POPC   C2B22100  35.140  44.725   8.250
 4834POPC   C3B22101  35.071  44.641   7.950
 4834POPC   C4B22102  35.081  44.650   7.650
 4835POPC   NC322103  18.242  26.787   9.450
 4835POPC   PO422104  18.332  26.857   9.150
 4835POPC   GL122105  18.273  26.838   8.850
 4835POPC   GL222106  18.200  26.705   8.850
 4835POPC   C1A22107  18.280  26.816   8.550
 4835POPC   D2A22108  18.260  26.819   8.250
 4835POPC   C3A22109  18.257  26.844   7.950
 4835POPC   C4A22110  18.241  26.795   7.650
 4835POPC   C1B22111  18.054  26.722   8.550
 4835POPC   C2B22112  18.024  26.706   8.250
 4835POPC   C3B22113  18.030  26.712   7.950
 4835POPC   C4B22114  18.077  26.715   7.650
 4836POPC   NC322115   9.712  38.435   9.450
 4836POPC   PO422116   9.757  38.420   9.150
 4836POPC   GL122117   9.744  38.501   8.850
 4836POPC   GL222118   9.596  38.518   8.850
 4836POPC   C1A22119   9.747  38.451   8.550
 4836POPC   D2A22120   9.716  38.429   8.250
 4836POPC   C3A22121   9.780  38.431   7.950
 4836POPC   C4A22122   9.706  38.487   7.650
 4836POPC   C1B22123   9.472  38.504   8.550
 4836POPC   C2B22124   9.511  38.485   8.250
 4836POPC   C3B22125   9.473  38.491   7.950
 4836POPC   C4B22126   9.472  38.465   7.650
 4837POPC   NC322127  11.313  13.598   9.450
 4837POPC   PO422128  11.300  13.582   9.150
 4837POPC   GL122129  11.332  13.608   8.850
 4837POPC   GL222130  11.227  13.726   8.850
 4837POPC   C1A22131  11.310  13.584   8.550
 4837POPC   D2A22132  11.321  13.673   8.250
 4837POPC   C3A22133  11.334  13.660   7.950
 4837POPC   C4A22134  11.302  13.596   7.650
 4837POPC   C1B22135  11.109  13.845   8.550
 4837POPC   C2B22136  11.167  13.775   8.250
 4837POPC   C3B22137  11.115  13.835   7.950
 4837POPC   C4B22138  11.098  13.811   7.650
 4838POPC   NC322139  14.366  12.102   9.450
 4838POPC   PO422140  14.403  12.059   9.150
 4838POPC   GL122141  14.408  12.074   8.850
 4838POPC   GL222142  14.390  12.209   8.850
 4838POPC   C1A22143  14.356  12.115   8.550
 4838POPC   D2A22144  14.365  12.065   8.250
 4838POPC   C3A22145  14.438  12.106   7.950
 4838POPC   C4A22146  14.407  12.067   7.650
 4838POPC   C1B22147  14.501  12.344   8.550
 4838POPC   C2B22148  14.424  12.304   8.250
 4838POPC   C3B22149  14.435  12.336   7.950
 4838POPC   C4B22150  14.458  12.282   7.650
 4839POPC   NC322151   7.371  19.797   9.450
 4839POPC   PO422152   7.425  19.824   9.150
 4839POPC   GL122153   7.457  19.882   8.850
 4839POPC   GL222154   7.406  19.942   8.850
 4839POPC   C1A22155   7.402  19.842   8.550
 4839POPC   D2A22156   7.441  19.853   8.250
 4839POPC   C3A22157   7.387  19.797   7.950
 4839POPC   C4A22158   7.455  19.789   7.650
 4839POPC   C1B22159   7.420  20.120   8.550
 4839POPC   C2B22160   7.423  20.045   8.250
 4839POPC   C3B22161   7.444  20.108   7.950
 4839POPC   C4B22162   7.353  20.104   7.650
 4840POPC   NC322163  18.302   0.428   9.450
 4840POPC   PO422164  18.286   0.430   9.150
 4840POPC   GL122165  18.298   0.445   8.850
 4840POPC   GL222166  18.383   0.426   8.850
 4840POPC   C1A22167  18.331   0.441   8.550
 4840POPC   D2A22168  18.251   0.399   8.250
 4840POPC   C3A22169  18.307   0.425   7.950
 4840POPC   C4A22170  18.260   0.399   7.650
 4840POPC   C1B22171  18.525   0.541   8.550
 4840POPC   C2B22172  18.497   0.546   8.250
 4840POPC   C3B22173  18.491   0.539   7.950
 4840POPC   C4B22174  18.485   0.475   7.650
 4841POPC   NC322175   9.022   2.720   9.450
 4841POPC   PO422176   9.010   2.760   9.150
 4841POPC   GL122177   9.020   2.746   8.850
 4841POPC   GL222178   8.948   2.593   8.850
 4841POPC   C1A22179   8.937   2.805   8.550
 4841POPC   D2A22180   8.994   2.759   8.250
 4841POPC   C3A22181   8.986   2.787   7.950
 4841POPC   C4A22182   8.947   2.807   7.650
 4841POPC   C1B22183   8.952   2.507   8.550
 4841POPC   C2B22184   9.021   2.525   8.250
 4841POPC   C3B22185   9.045   2.503   7.950
 4841POPC   C4B22186   8.959   2.494   7.650
 4842POPC   NC322187  42.291  40.024   9.450
 4842POPC   PO422188  42.345  39.961   9.150
 4842POPC   GL122189  42.367  40.001   8.850
 4842POPC   GL222190  42.421  40.049   8.850
 4842POPC   C1A22191  42.369  40.006   8.550
 4842POPC   D2A22192  42.285  39.990   8.250
 4842POPC   C3A22193  42.378  39.980   7.950
 4842POPC   C4A22194  42.329  40.009   7.650
 4842POPC   C1B22195  42.597  40.125   8.550
 4842POPC   C2B22196  42.525  40.075   8.250
 4842POPC   C3B22197  42.511  40.164   7.950
 4842POPC   C4B22198  42.512  40.112   7.650
 4843POPC   NC322199  13.677  33.768   9.450
 4843POPC   PO422200  13.598  33.822   9.150
 4843POPC   GL122201  13.596  33.761   8.850
 4843POPC   GL222202  13.495  33.764   8.850
 4843POPC   C1A22203  13.608  33.800   8.550
 4843POPC   D2A22204  13.596  33.832   8.250
 4843POPC   C3A22205  13.598  33.766   7.950
 4843POPC   C4A22206  13.627  33.762   7.650
 4843POPC   C1B22207  13.468  33.619   8.550
 4843POPC   C2B22208  13.408  33.648   8.250
 4843POPC   C3B22209  13.390  33.660   7.950
 4843POPC   C4B22210  13.410  33.597   7.650
 4844POPC   NC322211  24.472  29.934   9.450
 4844POPC   PO422212  24.506  29.947   9.150
 4844POPC   GL122213  24.443  29.918   8.850
 4844POPC   GL222214  24.423  30.087   8.850
 4844POPC   C1A22215  24.521  29.947   8.550
 4844POPC   D2A22216  24.526  29.900   8.250
 4844POPC   C3A22217  24.523  29.893   7.950
 4844POPC   C4A22218  24.509  29.885   7.650
 4844POPC   C1B22219  24.465  30.139   8.550
 4844POPC   C2B22220  24.459  30.195   8.250
 4844POPC   C3B22221  24.488  30.136   7.950
 4844POPC   C4B22222  24.413  30.122   7.650
 4845POPC   NC322223  33.839  30.647   9.450
 4845POPC   PO422224  33.768  30.649   9.150
 4845POPC   GL122225  33.755  30.648   8.850
 4845POPC   GL222226  33.861  30.764   8.850
 4845POPC   C1A22227  33.842  30.743   8.550
 4845POPC   D2A22228  33.788  30.670   8.250
 4845POPC   C3A22229  33.788  30.650   7.950
 4845POPC   C4A22230  33.802  30.745   7.650
 4845POPC   C1B22231  33.929  30.874   8.550
 4845POPC   C2B22232  33.954  30.850   8.250
 4845POPC   C3B22233  33.921  30.861   7.950
 4845POPC   C4B22234  34.012  30.864   7.650
 4846POPC   NC322235  12.882  26.859   9.450
 4846POPC   PO422236  12.821  26.783   9.150
 4846POPC   GL122237  12.896  26.797   8.850
 4846POPC   GL222238  12.833  26.940   8.850
 4846POPC   C1A22239  12.899  26.859   8.550
 4846POPC   D2A22240  12.810  26.848   8.250
 4846POPC   C3A22241  12.802  26.846   7.950
 4846POPC   C4A22242  12.876  26.847   7.650
 4846POPC   C1B22243  12.882  27.037   8.550
 4846POPC   C2B22244  12.920  27.077   8.250
 4846POPC   C3B22245  12.922  27.079   7.950
 4846POPC   C4B22246  12.842  27.098   7.650
 4847POPC   NC322247  42.335  31.463   9.450
 4847POPC   PO422248  42.307  31.465   9.150
 4847POPC   GL122249  42.298  31.495   8.850
 4847POPC   GL222250  42.281  31.359   8.850
 4847POPC   C1A22251  42.326  31.481   8.550
 4847POPC   D2A22252  42.297  31.478   8.250
 4847POPC   C3A22253  42.292  31.460   7.950
 4847POPC   C4A22254  42.285  31.512   7.650
 4847POPC   C1B22255  42.316  31.274   8.550
 4847POPC   C2B22256  42.228  31.221   8.250
 4847POPC   C3B22257  42.292  31.230   7.950
 4847POPC   C4B22258  42.268  31.221   7.650
 4848POPC   NC322259  43.100  10.491   9.450
 4848POPC   PO422260  43.095  10.552   9.150
 4848POPC   GL122261  43.108  10.502   8.850
 4848POPC   GL222262  43.175  10.368   8.850
 4848POPC   C1A22263  43.143  10.517   8.550
 4848POPC   D2A22264  43.084  10.475   8.250
 4848POPC   C3A22265  43.129  10.481   7.950
 4848POPC   C4A22266  43.095  10.475   7.650
 4848POPC   C1B22267  43.257  10.279   8.550
 4848POPC   C2B22268  43.258  10.285   8.250
 4848POPC   C3B22269  43.174  10.348   7.950
 4848POPC   C4B22270  43.251  10.282   7.650
 4849POPC   NC322271  22.931   4.335   9.450
 4849POPC   PO422272  22.902   4.330   9.150
 4849POPC   GL122273  22.940   4.342   8.850
 4849POPC   GL222274  22.851   4.382   8.850
 4849POPC   C1A22275  22.970   4.286   8.550
 4849POPC   D2A22276  22.973   4.282   8.250
 4849POPC   C3A22277  22.942   4.302   7.950
 4849POPC   C4A22278  22.928   4.355   7.650
 4849POPC   C1B22279  22.653   4.431   8.550
 4849POPC   C2B22280  22.666   4.397   8.250
 4849POPC   C3B22281  22.660   4.419   7.950
 4849POPC   C4B22282  22.674   4.384   7.650
 4850POPC   NC322283   1.953   3.496   9.450
 4850POPC   PO422284   1.951   3.511   9.150
 4850POPC   GL122285   1.965   3.566   8.850
 4850POPC   GL222286   2.127   3.474   8.850
 4850POPC   C1A22287   1.980   3.549   8.550
 4850POPC   D2A22288   1.961   3.496   8.250
 4850POPC   C3A22289   2.027   3.584   7.950
 4850POPC   C4A22290   1.969   3.552   7.650
 4850POPC   C1B22291   2.226   3.482   8.550
 4850POPC   C2B22292   2.177   3.479   8.250
 4850POPC   C3B22293   2.230   3.397   7.950
 4850POPC   C4B22294   2.266   3.465   7.650
 4851POPC   NC322295   0.450   8.943   9.450
 4851POPC   PO422296   0.432   9.001   9.150
 4851POPC   GL122297   0.481   8.933   8.850
 4851POPC   GL222298   0.449   8.893   8.850
 4851POPC   C1A22299   0.450   8.972   8.550
 4851POPC   D2A22300   0.481   9.003   8.250
 4851POPC   C3A22301   0.469   8.955   7.950
 4851POPC   C4A22302   0.453   8.948   7.650
 4851POPC   C1B22303   0.557   8.742   8.550
 4851POPC   C2B22304   0.503   8.772   8.250
 4851POPC   C3B22305   0.527   8.728   7.950
 4851POPC   C4B22306   0.581   8.711   7.650
 4852POPC   NC322307  22.142  36.108   9.450
 4852POPC   PO422308  22.146  36.151   9.150
 4852POPC   GL122309  22.185  36.093   8.850
 4852POPC   GL222310  22.198  36.250   8.850
 4852POPC   C1A22311  22.140  36.170   8.550
 4852POPC   D2A22312  22.203  36.085   8.250
 4852POPC   C3A22313  22.145  36.128   7.950
 4852POPC   C4A22314  22.196  36.139   7.650
 4852POPC   C1B22315  22.256  36.332   8.550
 4852POPC   C2B22316  22.308  36.354   8.250
 4852POPC   C3B22317  22.308  36.400   7.950
 4852POPC   C4B22318  22.215  36.314   7.650
 4853POPC   NC322319  22.163  31.481   9.450
 4853POPC   PO422320  22.209  31.503   9.150
 4853POPC   GL122321  22.212  31.504   8.850
 4853POPC   GL222322  22.199  31.626   8.850
 4853POPC   C1A22323  22.185  31.452   8.550
 4853POPC   D2A22324  22.136  31.467   8.250
 4853POPC   C3A22325  22.135  31.522   7.950
 4853POPC   C4A22326  22.120  31.481   7.650
 4853POPC   C1B22327  22.204  31.705   8.550
 4853POPC   C2B22328  22.260  31.670   8.250
 4853POPC   C3B22329  22.252  31.694   7.950
 4853POPC   C4B22330  22.238  31.759   7.650
 4854POPC   NC322331  32.982   8.942   9.450
 4854POPC   PO422332  33.036   8.969   9.150
 4854POPC   GL122333  33.014   8.986   8.850
 4854POPC   GL222334  32.935   8.879   8.850
 4854POPC   C1A22335  33.005   8.931   8.550
 4854POPC   D2A22336  32.979   8.999   8.250
 4854POPC   C3A22337  33.002   9.017   7.950
 4854POPC   C4A22338  33.001   8.977   7.650
 4854POPC   C1B22339  32.778   8.863   8.550
 4854POPC   C2B22340  32.829   8.907   8.250
 4854POPC   C3B22341  32.833   8.827   7.950
 4854POPC   C4B22342  32.814   8.885   7.650
 4855POPC   NC322343  21.390  14.412   9.450
 4855POPC   PO422344  21.423  14.397   9.150
 4855POPC   GL122345  21.377  14.419   8.850
 4855POPC   GL222346  21.418  14.564   8.850
 4855POPC   C1A22347  21.412  14.453   8.550
 4855POPC   D2A22348  21.389  14.421   8.250
 4855POPC   C3A22349  21.420  14.384   7.950
 4855POPC   C4A22350  21.379  14.401   7.650
 4855POPC   C1B22351  21.398  14.631   8.550
 4855POPC   C2B22352  21.460  14.604   8.250
 4855POPC   C3B22353  21.395  14.649   7.950
 4855POPC   C4B22354  21.373  14.671   7.650
 4856POPC   NC322355   8.187  10.533   9.450
 4856POPC   PO422356   8.216  10.523   9.150
 4856POPC   GL122357   8.212  10.535   8.850
 4856POPC   GL222358   8.196  10.625   8.850
 4856POPC   C1A22359   8.208  10.475   8.550
 4856POPC   D2A22360   8.179  10.543   8.250
 4856POPC   C3A22361   8.242  10.573   7.950
 4856POPC   C4A22362   8.176  10.515   7.650
 4856POPC   C1B22363   8.287  10.789   8.550
 4856POPC   C2B22364   8.245  10.729   8.250
 4856POPC   C3B22365   8.281  10.796   7.950
 4856POPC   C4B22366   8.306  10.724   7.650
 4857POPC   NC322367  40.829  32.254   9.450
 4857POPC   PO422368  40.751  32.233   9.150
 4857POPC   GL122369  40.811  32.203   8.850
 4857POPC   GL222370  40.681  32.345   8.850
 4857POPC   C1A22371  40.772  32.236   8.550
 4857POPC   D2A22372  40.812  32.227   8.250
 4857POPC   C3A22373  40.760  32.234   7.950
 4857POPC   C4A22374  40.792  32.259   7.650
 4857POPC   C1B22375  40.621  32.444   8.550
 4857POPC   C2B22376  40.664  32.416   8.250
 4857POPC   C3B22377  40.673  32.460   7.950
 4857POPC   C4B22378  40.594  32.498   7.650
 4858POPC   NC322379  38.424  24.519   9.450
 4858POPC   PO422380  38.461  24.477   9.150
 4858POPC   GL122381  38.471  24.481   8.850
 4858POPC   GL222382  38.377  24.590   8.850
 4858POPC   C1A22383  38.503  24.511   8.550
 4858POPC   D2A22384  38.455  24.493   8.250
 4858POPC   C3A22385  38.430  24.538   7.950
 4858POPC   C4A22386  38.434  24.452   7.650
 4858POPC   C1B22387  38.251  24.696   8.550
 4858POPC   C2B22388  38.283  24.614   8.250
 4858POPC   C3B22389  38.293  24.651   7.950
 4858POPC   C4B22390  38.257  24.654   7.650
 4859POPC   NC322391   5.909  39.246   9.450
 4859POPC   PO422392   5.871  39.211   9.150
 4859POPC   GL122393   5.824  39.248   8.850
 4859POPC   GL222394   5.913  39.311   8.850
 4859POPC   C1A22395   5.870  39.272   8.550
 4859POPC   D2A22396   5.859  39.279   8.250
 4859POPC   C3A22397   5.877  39.202   7.950
 4859POPC   C4A22398   5.916  39.271   7.650
 4859POPC   C1B22399   6.053  39.383   8.550
 4859POPC   C2B22400   6.045  39.377   8.250
 4859POPC   C3B22401   6.047  39.411   7.950
 4859POPC   C4B22402   5.989  39.389   7.650
 4860POPC   NC322403  29.913  44.627   9.450
 4860POPC   PO422404  29.917  44.669   9.150
 4860POPC   GL122405  29.906  44.660   8.850
 4860POPC   GL222406  29.810  44.698   8.850
 4860POPC   C1A22407  29.938  44.622   8.550
 4860POPC   D2A22408  29.953  44.705   8.250
 4860POPC   C3A22409  29.906  44.632   7.950
 4860POPC   C4A22410  29.929  44.677   7.650
 4860POPC   C1B22411  29.753  44.852   8.550
 4860POPC   C2B22412  29.748  44.823   8.250
 4860POPC   C3B22413  29.734  44.805   7.950
 4860POPC   C4B22414  29.743  44.867   7.650
 4861POPC   NC322415  38.408  39.207   9.450
 4861POPC   PO422416  38.453  39.250   9.150
 4861POPC   GL122417  38.477  39.186   8.850
 4861POPC   GL222418  38.419  39.075   8.850
 4861POPC   C1A22419  38.443  39.261   8.550
 4861POPC   D2A22420  38.410  39.263   8.250
 4861POPC   C3A22421  38.414  39.227   7.950
 4861POPC   C4A22422  38.417  39.205   7.650
 4861POPC   C1B22423  38.431  38.933   8.550
 4861POPC   C2B22424  38.436  38.973   8.250
 4861POPC   C3B22425  38.474  38.965   7.950
 4861POPC   C4B22426  38.468  38.974   7.650
 4862POPC   NC322427  43.855  22.138   9.450
 4862POPC   PO422428  43.867  22.153   9.150
 4862POPC   GL122429  43.881  22.132   8.850
 4862POPC   GL222430  43.790  22.205   8.850
 4862POPC   C1A22431  43.932  22.182   8.550
 4862POPC   D2A22432  43.870  22.142   8.250
 4862POPC   C3A22433  43.874  22.196   7.950
 4862POPC   C4A22434  43.854  22.135   7.650
 4862POPC   C1B22435  43.643  22.128   8.550
 4862POPC   C2B22436  43.685  22.123   8.250
 4862POPC   C3B22437  43.606  22.148   7.950
 4862POPC   C4B22438  43.599  22.176   7.650
 4863POPC   NC322439  15.178  28.379   9.450
 4863POPC   PO422440  15.156  28.388   9.150
 4863POPC   GL122441  15.134  28.398   8.850
 4863POPC   GL222442  15.215  28.217   8.850
 4863POPC   C1A22443  15.131  28.321   8.550
 4863POPC   D2A22444  15.150  28.398   8.250
 4863POPC   C3A22445  15.219  28.355   7.950
 4863POPC   C4A22446  15.178  28.402   7.650
 4863POPC   C1B22447  15.241  28.171   8.550
 4863POPC   C2B22448  15.295  28.185   8.250
 4863POPC   C3B22449  15.306  28.120   7.950
 4863POPC   C4B22450  15.325  28.107   7.650
 4864POPC   NC322451   2.726  39.233   9.450
 4864POPC   PO422452   2.761  39.205   9.150
 4864POPC   GL122453   2.718  39.246   8.850
 4864POPC   GL222454   2.738  39.131   8.850
 4864POPC   C1A22455   2.801  39.218   8.550
 4864POPC   D2A22456   2.731  39.273   8.250
 4864POPC   C3A22457   2.778  39.208   7.950
 4864POPC   C4A22458   2.805  39.252   7.650
 4864POPC   C1B22459   2.698  39.032   8.550
 4864POPC   C2B22460   2.740  39.010   8.250
 4864POPC   C3B22461   2.742  38.975   7.950
 4864POPC   C4B22462   2.768  38.998   7.650
 4865POPC   NC322463  38.439  19.811   9.450
 4865POPC   PO422464  38.416  19.856   9.150
 4865POPC   GL122465  38.479  19.803   8.850
 4865POPC   GL222466  38.549  19.882   8.850
 4865POPC   C1A22467  38.485  19.884   8.550
 4865POPC   D2A22468  38.502  19.869   8.250
 4865POPC   C3A22469  38.461  19.843   7.950
 4865POPC   C4A22470  38.504  19.825   7.650
 4865POPC   C1B22471  38.712  19.932   8.550
 4865POPC   C2B22472  38.643  19.931   8.250
 4865POPC   C3B22473  38.737  19.910   7.950
 4865POPC   C4B22474  38.731  19.976   7.650
 4866POPC   NC322475  37.651  12.078   9.450
 4866POPC   PO422476  37.699  12.045   9.150
 4866POPC   GL122477  37.691  12.091   8.850
 4866POPC   GL222478  37.548  11.995   8.850
 4866POPC   C1A22479  37.632  12.057   8.550
 4866POPC   D2A22480  37.669  12.107   8.250
 4866POPC   C3A22481  37.682  12.120   7.950
 4866POPC   C4A22482  37.676  12.071   7.650
 4866POPC   C1B22483  37.455  12.035   8.550
 4866POPC   C2B22484  37.404  12.006   8.250
 4866POPC   C3B22485  37.487  12.040   7.950
 4866POPC   C4B22486  37.429  12.005   7.650
 4867POPC   NC322487   1.951  26.063   9.450
 4867POPC   PO422488   1.982  26.041   9.150
 4867POPC   GL122489   1.956  25.996   8.850
 4867POPC   GL222490   1.968  26.184   8.850
 4867POPC   C1A22491   1.951  26.024   8.550
 4867POPC   D2A22492   2.032  26.043   8.250
 4867POPC   C3A22493   1.975  26.068   7.950
 4867POPC   C4A22494   1.958  26.014   7.650
 4867POPC   C1B22495   1.843  26.219   8.550
 4867POPC   C2B22496   1.908  26.265   8.250
 4867POPC   C3B22497   1.867  26.262   7.950
 4867POPC   C4B22498   1.823  26.306   7.650
 4868POPC   NC322499  37.690  36.124   9.450
 4868POPC   PO422500  37.662  36.153   9.150
 4868POPC   GL122501  37.643  36.117   8.850
 4868POPC   GL222502  37.555  36.050   8.850
 4868POPC   C1A22503  37.708  36.176   8.550
 4868POPC   D2A22504  37.633  36.176   8.250
 4868POPC   C3A22505  37.712  36.101   7.950
 4868POPC   C4A22506  37.711  36.162   7.650
 4868POPC   C1B22507  37.413  36.025   8.550
 4868POPC   C2B22508  37.412  36.112   8.250
 4868POPC   C3B22509  37.417  36.051   7.950
 4868POPC   C4B22510  37.465  36.077   7.650
 4869POPC   NC322511  15.907   9.706   9.450
 4869POPC   PO422512  15.984   9.792   9.150
 4869POPC   GL122513  15.950   9.753   8.850
 4869POPC   GL222514  15.897   9.829   8.850
 4869POPC   C1A22515  15.968   9.707   8.550
 4869POPC   D2A22516  15.985   9.768   8.250
 4869POPC   C3A22517  15.986   9.724   7.950
 4869POPC   C4A22518  15.982   9.773   7.650
 4869POPC   C1B22519  15.916   9.976   8.550
 4869POPC   C2B22520  15.841   9.984   8.250
 4869POPC   C3B22521  15.819  10.011   7.950
 4869POPC   C4B22522  15.888   9.945   7.650
 4870POPC   NC322523  43.151  22.934   9.450
 4870POPC   PO422524  43.098  22.967   9.150
 4870POPC   GL122525  43.149  22.915   8.850
 4870POPC   GL222526  43.083  23.063   8.850
 4870POPC   C1A22527  43.103  22.901   8.550
 4870POPC   D2A22528  43.112  22.981   8.250
 4870POPC   C3A22529  43.125  22.910   7.950
 4870POPC   C4A22530  43.134  22.982   7.650
 4870POPC   C1B22531  43.033  23.145   8.550
 4870POPC   C2B22532  43.034  23.199   8.250
 4870POPC   C3B22533  42.976  23.135   7.950
 4870POPC   C4B22534  43.020  23.192   7.650
 4871POPC   NC322535   8.219  42.328   9.450
 4871POPC   PO422536   8.205  42.374   9.150
 4871POPC   GL122537   8.245  42.321   8.850
 4871POPC   GL222538   8.038  42.332   8.850
 4871POPC   C1A22539   8.216  42.349   8.550
 4871POPC   D2A22540   8.176  42.298   8.250
 4871POPC   C3A22541   8.160  42.373   7.950
 4871POPC   C4A22542   8.239  42.352   7.650
 4871POPC   C1B22543   8.002  42.208   8.550
 4871POPC   C2B22544   7.950  42.286   8.250
 4871POPC   C3B22545   7.952  42.269   7.950
 4871POPC   C4B22546   7.942  42.218   7.650
 4872POPC   NC322547  33.058  23.734   9.450
 4872POPC   PO422548  33.027  23.715   9.150
 4872POPC   GL122549  33.069  23.668   8.850
 4872POPC   GL222550  33.151  23.692   8.850
 4872POPC   C1A22551  32.975  23.702   8.550
 4872POPC   D2A22552  32.988  23.753   8.250
 4872POPC   C3A22553  33.033  23.743   7.950
 4872POPC   C4A22554  33.010  23.761   7.650
 4872POPC   C1B22555  33.235  23.645   8.550
 4872POPC   C2B22556  33.257  23.602   8.250
 4872POPC   C3B22557  33.265  23.636   7.950
 4872POPC   C4B22558  33.270  23.601   7.650
 4873POPC   NC322559  21.395  23.762   9.450
 4873POPC   PO422560  21.388  23.760   9.150
 4873POPC   GL122561  21.413  23.748   8.850
 4873POPC   GL222562  21.343  23.837   8.850
 4873POPC   C1A22563  21.412  23.665   8.550
 4873POPC   D2A22564  21.407  23.725   8.250
 4873POPC   C3A22565  21.436  23.679   7.950
 4873POPC   C4A22566  21.366  23.669   7.650
 4873POPC   C1B22567  21.345  23.934   8.550
 4873POPC   C2B22568  21.299  23.940   8.250
 4873POPC   C3B22569  21.285  23.925   7.950
 4873POPC   C4B22570  21.291  23.971   7.650
 4874POPC   NC322571  16.762  34.579   9.450
 4874POPC   PO422572  16.765  34.592   9.150
 4874POPC   GL122573  16.731  34.601   8.850
 4874POPC   GL222574  16.695  34.476   8.850
 4874POPC   C1A22575  16.691  34.583   8.550
 4874POPC   D2A22576  16.747  34.575   8.250
 4874POPC   C3A22577  16.763  34.603   7.950
 4874POPC   C4A22578  16.746  34.527   7.650
 4874POPC   C1B22579  16.663  34.341   8.550
 4874POPC   C2B22580  16.645  34.329   8.250
 4874POPC   C3B22581  16.623  34.290   7.950
 4874POPC   C4B22582  16.662  34.293   7.650
 4875POPC   NC322583  11.340  33.845   9.450
 4875POPC   PO422584  11.266  33.775   9.150
 4875POPC   GL122585  11.308  33.810   8.850
 4875POPC   GL222586  11.391  33.892   8.850
 4875POPC   C1A22587  11.293  33.842   8.550
 4875POPC   D2A22588  11.301  33.808   8.250
 4875POPC   C3A22589  11.341  33.823   7.950
 4875POPC   C4A22590  11.289  33.828   7.650
 4875POPC   C1B22591  11.412  34.015   8.550
 4875POPC   C2B22592  11.484  34.020   8.250
 4875POPC   C3B22593  11.488  34.025   7.950
 4875POPC   C4B22594  11.484  33.975   7.650
 4876POPC   NC322595  37.665   8.241   9.450
 4876POPC   PO422596  37.665   8.196   9.150
 4876POPC   GL122597  37.682   8.153   8.850
 4876POPC   GL222598  37.526   8.182   8.850
 4876POPC   C1A22599  37.729   8.194   8.550
 4876POPC   D2A22600  37.725   8.153   8.250
 4876POPC   C3A22601  37.690   8.165   7.950
 4876POPC   C4A22602  37.678   8.211   7.650
 4876POPC   C1B22603  37.457   8.127   8.550
 4876POPC   C2B22604  37.477   8.129   8.250
 4876POPC   C3B22605  37.429   8.097   7.950
 4876POPC   C4B22606  37.442   8.114   7.650
 4877POPC   NC322607   8.158  34.554   9.450
 4877POPC   PO422608   8.207  34.528   9.150
 4877POPC   GL122609   8.230  34.540   8.850
 4877POPC   GL222610   8.348  34.530   8.850
 4877POPC   C1A22611   8.178  34.622   8.550
 4877POPC   D2A22612   8.180  34.585   8.250
 4877POPC   C3A22613   8.224  34.623   7.950
 4877POPC   C4A22614   8.177  34.622   7.650
 4877POPC   C1B22615   8.384  34.498   8.550
 4877POPC   C2B22616   8.399  34.470   8.250
 4877POPC   C3B22617   8.478  34.490   7.950
 4877POPC   C4B22618   8.466  34.443   7.650
 4878POPC   NC322619  25.315  39.200   9.450
 4878POPC   PO422620  25.259  39.270   9.150
 4878POPC   GL122621  25.272  39.266   8.850
 4878POPC   GL222622  25.133  39.251   8.850
 4878POPC   C1A22623  25.285  39.255   8.550
 4878POPC   D2A22624  25.239  39.210   8.250
 4878POPC   C3A22625  25.255  39.238   7.950
 4878POPC   C4A22626  25.308  39.192   7.650
 4878POPC   C1B22627  24.989  39.185   8.550
 4878POPC   C2B22628  25.007  39.232   8.250
 4878POPC   C3B22629  24.978  39.141   7.950
 4878POPC   C4B22630  24.974  39.195   7.650
 4879POPC   NC322631   1.956  10.540   9.450
 4879POPC   PO422632   2.008  10.547   9.150
 4879POPC   GL122633   1.969  10.525   8.850
 4879POPC   GL222634   2.122  10.488   8.850
 4879POPC   C1A22635   1.959  10.487   8.550
 4879POPC   D2A22636   1.956  10.517   8.250
 4879POPC   C3A22637   2.012  10.569   7.950
 4879POPC   C4A22638   1.981  10.516   7.650
 4879POPC   C1B22639   2.184  10.343   8.550
 4879POPC   C2B22640   2.179  10.398   8.250
 4879POPC   C3B22641   2.190  10.362   7.950
 4879POPC   C4B22642   2.237  10.352   7.650
 4880POPC   NC322643  43.917  38.450   9.450
 4880POPC   PO422644  43.929  38.415   9.150
 4880POPC   GL122645  43.875  38.411   8.850
 4880POPC   GL222646  43.872  38.324   8.850
 4880POPC   C1A22647  43.911  38.418   8.550
 4880POPC   D2A22648  43.922  38.418   8.250
 4880POPC   C3A22649  43.895  38.492   7.950
 4880POPC   C4A22650  43.931  38.474   7.650
 4880POPC   C1B22651  43.772  38.194   8.550
 4880POPC   C2B22652  43.788  38.254   8.250
 4880POPC   C3B22653  43.746  38.217   7.950
 4880POPC   C4B22654  43.757  38.232   7.650
 4881POPC   NC322655  10.477  21.371   9.450
 4881POPC   PO422656  10.499  21.360   9.150
 4881POPC   GL122657  10.526  21.340   8.850
 4881POPC   GL222658  10.688  21.401   8.850
 4881POPC   C1A22659  10.571  21.435   8.550
 4881POPC   D2A22660  10.548  21.424   8.250
 4881POPC   C3A22661  10.544  21.371   7.950
 4881POPC   C4A22662  10.555  21.363   7.650
 4881POPC   C1B22663  10.788  21.434   8.550
 4881POPC   C2B22664  10.735  21.490   8.250
 4881POPC   C3B22665  10.742  21.507   7.950
 4881POPC   C4B22666  10.743  21.429   7.650
 4882POPC   NC322667  31.464  12.099   9.450
 4882POPC   PO422668  31.460  12.052   9.150
 4882POPC   GL122669  31.488  12.121   8.850
 4882POPC   GL222670  31.423  12.174   8.850
 4882POPC   C1A22671  31.444  12.029   8.550
 4882POPC   D2A22672  31.425  12.082   8.250
 4882POPC   C3A22673  31.446  12.110   7.950
 4882POPC   C4A22674  31.495  12.096   7.650
 4882POPC   C1B22675  31.389  12.274   8.550
 4882POPC   C2B22676  31.380  12.334   8.250
 4882POPC   C3B22677  31.366  12.260   7.950
 4882POPC   C4B22678  31.349  12.318   7.650
 4883POPC   NC322679   7.372  36.898   9.450
 4883POPC   PO422680   7.445  36.893   9.150
 4883POPC   GL122681   7.388  36.871   8.850
 4883POPC   GL222682   7.522  36.852   8.850
 4883POPC   C1A22683   7.424  36.882   8.550
 4883POPC   D2A22684   7.389  36.921   8.250
 4883POPC   C3A22685   7.434  36.862   7.950
 4883POPC   C4A22686   7.446  36.951   7.650
 4883POPC   C1B22687   7.593  36.800   8.550
 4883POPC   C2B22688   7.600  36.792   8.250
 4883POPC   C3B22689   7.660  36.737   7.950
 4883POPC   C4B22690   7.628  36.749   7.650
 4884POPC   NC322691   2.020   2.800   9.450
 4884POPC   PO422692   2.027   2.781   9.150
 4884POPC   GL122693   1.945   2.723   8.850
 4884POPC   GL222694   1.985   2.856   8.850
 4884POPC   C1A22695   1.963   2.716   8.550
 4884POPC   D2A22696   1.950   2.717   8.250
 4884POPC   C3A22697   1.970   2.741   7.950
 4884POPC   C4A22698   1.942   2.769   7.650
 4884POPC   C1B22699   1.986   2.998   8.550
 4884POPC   C2B22700   2.033   3.034   8.250
 4884POPC   C3B22701   2.020   3.005   7.950
 4884POPC   C4B22702   2.007   2.988   7.650
 4885POPC   NC322703  16.746   0.409   9.450
 4885POPC   PO422704  16.687   0.471   9.150
 4885POPC   GL122705  16.694   0.455   8.850
 4885POPC   GL222706  16.829   0.400   8.850
 4885POPC   C1A22707  16.690   0.458   8.550
 4885POPC   D2A22708  16.698   0.411   8.250
 4885POPC   C3A22709  16.685   0.403   7.950
 4885POPC   C4A22710  16.760   0.408   7.650
 4885POPC   C1B22711  16.923   0.330   8.550
 4885POPC   C2B22712  16.968   0.293   8.250
 4885POPC   C3B22713  16.940   0.285   7.950
 4885POPC   C4B22714  16.917   0.263   7.650
 4886POPC   NC322715  14.372  35.382   9.450
 4886POPC   PO422716  14.383  35.342   9.150
 4886POPC   GL122717  14.430  35.400   8.850
 4886POPC   GL222718  14.550  35.434   8.850
 4886POPC   C1A22719  14.441  35.375   8.550
 4886POPC   D2A22720  14.400  35.401   8.250
 4886POPC   C3A22721  14.399  35.331   7.950
 4886POPC   C4A22722  14.391  35.352   7.650
 4886POPC   C1B22723  14.657  35.403   8.550
 4886POPC   C2B22724  14.650  35.425   8.250
 4886POPC   C3B22725  14.593  35.385   7.950
 4886POPC   C4B22726  14.660  35.408   7.650
 4887POPC   NC322727  36.108  24.488   9.450
 4887POPC   PO422728  36.120  24.518   9.150
 4887POPC   GL122729  36.103  24.505   8.850
 4887POPC   GL222730  36.069  24.362   8.850
 4887POPC   C1A22731  36.133  24.476   8.550
 4887POPC   D2A22732  36.117  24.535   8.250
 4887POPC   C3A22733  36.087  24.523   7.950
 4887POPC   C4A22734  36.104  24.510   7.650
 4887POPC   C1B22735  35.919  24.318   8.550
 4887POPC   C2B22736  35.984  24.343   8.250
 4887POPC   C3B22737  35.961  24.329   7.950
 4887POPC   C4B22738  35.986  24.321   7.650
 4888POPC   NC322739  22.907   7.383   9.450
 4888POPC   PO422740  22.906   7.398   9.150
 4888POPC   GL122741  22.892   7.444   8.850
 4888POPC   GL222742  22.969   7.557   8.850
 4888POPC   C1A22743  22.970   7.390   8.550
 4888POPC   D2A22744  22.959   7.433   8.250
 4888POPC   C3A22745  22.913   7.406   7.950
 4888POPC   C4A22746  22.930   7.384   7.650
 4888POPC   C1B22747  22.959   7.719   8.550
 4888POPC   C2B22748  22.935   7.699   8.250
 4888POPC   C3B22749  22.878   7.687   7.950
 4888POPC   C4B22750  22.892   7.641   7.650
 4889POPC   NC322751   0.419  29.884   9.450
 4889POPC   PO422752   0.460  29.943   9.150
 4889POPC   GL122753   0.440  29.936   8.850
 4889POPC   GL222754   0.355  29.963   8.850
 4889POPC   C1A22755   0.391  29.911   8.550
 4889POPC   D2A22756   0.428  29.872   8.250
 4889POPC   C3A22757   0.417  29.953   7.950
 4889POPC   C4A22758   0.391  29.873   7.650
 4889POPC   C1B22759   0.280  30.069   8.550
 4889POPC   C2B22760   0.271  30.109   8.250
 4889POPC   C3B22761   0.227  30.112   7.950
 4889POPC   C4B22762   0.309  30.075   7.650
 4890POPC   NC322763   8.185  26.854   9.450
 4890POPC   PO422764   8.188  26.814   9.150
 4890POPC   GL122765   8.208  26.801   8.850
 4890POPC   GL222766   8.306  26.762   8.850
 4890POPC   C1A22767   8.233  26.847   8.550
 4890POPC   D2A22768   8.181  26.778   8.250
 4890POPC   C3A22769   8.160  26.821   7.950
 4890POPC   C4A22770   8.153  26.836   7.650
 4890POPC   C1B22771   8.301  26.589   8.550
 4890POPC   C2B22772   8.328  26.642   8.250
 4890POPC   C3B22773   8.375  26.642   7.950
 4890POPC   C4B22774   8.369  26.586   7.650
 4891POPC   NC322775   4.298   9.785   9.450
 4891POPC   PO422776   4.356   9.777   9.150
 4891POPC   GL122777   4.348   9.792   8.850
 4891POPC   GL222778   4.418   9.828   8.850
 4891POPC   C1A22779   4.301   9.793   8.550
 4891POPC   D2A22780   4.272   9.791   8.250
 4891POPC   C3A22781   4.276   9.787   7.950
 4891POPC   C4A22782   4.293   9.793   7.650
 4891POPC   C1B22783   4.534   9.861   8.550
 4891POPC   C2B22784   4.520   9.905   8.250
 4891POPC   C3B22785   4.579   9.901   7.950
 4891POPC   C4B22786   4.589   9.890   7.650
 4892POPC   NC322787  40.783  21.388   9.450
 4892POPC   PO422788  40.755  21.424   9.150
 4892POPC   GL122789  40.758  21.435   8.850
 4892POPC   GL222790  40.705  21.450   8.850
 4892POPC   C1A22791  40.787  21.370   8.550
 4892POPC   D2A22792  40.803  21.383   8.250
 4892POPC   C3A22793  40.748  21.408   7.950
 4892POPC   C4A22794  40.770  21.363   7.650
 4892POPC   C1B22795  40.533  21.436   8.550
 4892POPC   C2B22796  40.517  21.469   8.250
 4892POPC   C3B22797  40.526  21.461   7.950
 4892POPC   C4B22798  40.512  21.465   7.650
 4893POPC   NC322799   4.283  35.316   9.450
 4893POPC   PO422800   4.345  35.338   9.150
 4893POPC   GL122801   4.296  35.338   8.850
 4893POPC   GL222802   4.387  35.424   8.850
 4893POPC   C1A22803   4.358  35.341   8.550
 4893POPC   D2A22804   4.367  35.335   8.250
 4893POPC   C3A22805   4.307  35.372   7.950
 4893POPC   C4A22806   4.318  35.351   7.650
 4893POPC   C1B22807   4.365  35.560   8.550
 4893POPC   C2B22808   4.381  35.580   8.250
 4893POPC   C3B22809   4.347  35.560   7.950
 4893POPC   C4B22810   4.330  35.627   7.650
 4894POPC   NC322811  20.602  26.819   9.450
 4894POPC   PO422812  20.614  26.806   9.150
 4894POPC   GL122813  20.582  26.803   8.850
 4894POPC   GL222814  20.696  26.676   8.850
 4894POPC   C1A22815  20.568  26.791   8.550
 4894POPC   D2A22816  20.562  26.845   8.250
 4894POPC   C3A22817  20.587  26.856   7.950
 4894POPC   C4A22818  20.572  26.859   7.650
 4894POPC   C1B22819  20.722  26.582   8.550
 4894POPC   C2B22820  20.772  26.609   8.250
 4894POPC   C3B22821  20.723  26.611   7.950
 4894POPC   C4B22822  20.754  26.584   7.650
 4895POPC   NC322823   9.788  12.084   9.450
 4895POPC   PO422824   9.762  12.087   9.150
 4895POPC   GL122825   9.788  12.093   8.850
 4895POPC   GL222826   9.779  12.010   8.850
 4895POPC   C1A22827   9.727  12.098   8.550
 4895POPC   D2A22828   9.786  12.111   8.250
 4895POPC   C3A22829   9.788  12.045   7.950
 4895POPC   C4A22830   9.772  12.110   7.650
 4895POPC   C1B22831   9.843  11.800   8.550
 4895POPC   C2B22832   9.816  11.890   8.250
 4895POPC   C3B22833   9.880  11.805   7.950
 4895POPC   C4B22834   9.861  11.870   7.650
 4896POPC   NC322835  15.209  42.372   9.450
 4896POPC   PO422836  15.169  42.331   9.150
 4896POPC   GL122837  15.206  42.362   8.850
 4896POPC   GL222838  15.304  42.332   8.850
 4896POPC   C1A22839  15.164  42.317   8.550
 4896POPC   D2A22840  15.197  42.378   8.250
 4896POPC   C3A22841  15.223  42.375   7.950
 4896POPC   C4A22842  15.139  42.375   7.650
 4896POPC   C1B22843  15.466  42.398   8.550
 4896POPC   C2B22844  15.434  42.323   8.250
 4896POPC   C3B22845  15.386  42.375   7.950
 4896POPC   C4B22846  15.401  42.393   7.650
 4897POPC   NC322847  12.884  40.797   9.450
 4897POPC   PO422848  12.877  40.830   9.150
 4897POPC   GL122849  12.810  40.815   8.850
 4897POPC   GL222850  12.903  40.912   8.850
 4897POPC   C1A22851  12.891  40.734   8.550
 4897POPC   D2A22852  12.839  40.773   8.250
 4897POPC   C3A22853  12.861  40.774   7.950
 4897POPC   C4A22854  12.803  40.802   7.650
 4897POPC   C1B22855  12.834  41.001   8.550
 4897POPC   C2B22856  12.869  41.040   8.250
 4897POPC   C3B22857  12.898  41.046   7.950
 4897POPC   C4B22858  12.881  41.066   7.650
 4898POPC   NC322859  23.679  19.789   9.450
 4898POPC   PO422860  23.727  19.865   9.150
 4898POPC   GL122861  23.727  19.853   8.850
 4898POPC   GL222862  23.713  19.936   8.850
 4898POPC   C1A22863  23.749  19.855   8.550
 4898POPC   D2A22864  23.707  19.811   8.250
 4898POPC   C3A22865  23.700  19.857   7.950
 4898POPC   C4A22866  23.756  19.812   7.650
 4898POPC   C1B22867  23.710  20.085   8.550
 4898POPC   C2B22868  23.692  20.100   8.250
 4898POPC   C3B22869  23.698  20.046   7.950
 4898POPC   C4B22870  23.721  20.054   7.650
 4899POPC   NC322871   8.963  37.649   9.450
 4899POPC   PO422872   8.971  37.657   9.150
 4899POPC   GL122873   8.991  37.648   8.850
 4899POPC   GL222874   9.014  37.510   8.850
 4899POPC   C1A22875   8.966  37.674   8.550
 4899POPC   D2A22876   8.937  37.641   8.250
 4899POPC   C3A22877   8.925  37.692   7.950
 4899POPC   C4A22878   9.018  37.719   7.650
 4899POPC   C1B22879   9.014  37.398   8.550
 4899POPC   C2B22880   9.006  37.445   8.250
 4899POPC   C3B22881   9.075  37.489   7.950
 4899POPC   C4B22882   9.041  37.428   7.650
 4900POPC   NC322883  35.324   3.575   9.450
 4900POPC   PO422884  35.347   3.513   9.150
 4900POPC   GL122885  35.315   3.564   8.850
 4900POPC   GL222886  35.452   3.584   8.850
 4900POPC   C1A22887  35.319   3.588   8.550
 4900POPC   D2A22888  35.384   3.583   8.250
 4900POPC   C3A22889  35.386   3.556   7.950
 4900POPC   C4A22890  35.310   3.588   7.650
 4900POPC   C1B22891  35.579   3.713   8.550
 4900POPC   C2B22892  35.597   3.701   8.250
 4900POPC   C3B22893  35.525   3.674   7.950
 4900POPC   C4B22894  35.605   3.630   7.650
 4901POPC   NC322895  11.277   4.332   9.450
 4901POPC   PO422896  11.309   4.366   9.150
 4901POPC   GL122897  11.290   4.333   8.850
 4901POPC   GL222898  11.366   4.281   8.850
 4901POPC   C1A22899  11.253   4.336   8.550
 4901POPC   D2A22900  11.271   4.288   8.250
 4901POPC   C3A22901  11.314   4.306   7.950
 4901POPC   C4A22902  11.345   4.315   7.650
 4901POPC   C1B22903  11.559   4.250   8.550
 4901POPC   C2B22904  11.494   4.244   8.250
 4901POPC   C3B22905  11.539   4.176   7.950
 4901POPC   C4B22906  11.542   4.167   7.650
 4902POPC   NC322907  11.321  36.946   9.450
 4902POPC   PO422908  11.334  36.910   9.150
 4902POPC   GL122909  11.308  36.904   8.850
 4902POPC   GL222910  11.375  36.906   8.850
 4902POPC   C1A22911  11.344  36.945   8.550
 4902POPC   D2A22912  11.324  36.874   8.250
 4902POPC   C3A22913  11.277  36.919   7.950
 4902POPC   C4A22914  11.253  36.873   7.650
 4902POPC   C1B22915  11.559  36.990   8.550
 4902POPC   C2B22916  11.559  36.985   8.250
 4902POPC   C3B22917  11.509  36.977   7.950
 4902POPC   C4B22918  11.555  36.968   7.650
 4903POPC   NC322919  38.497   8.942   9.450
 4903POPC   PO422920  38.466   8.969   9.150
 4903POPC   GL122921  38.408   8.992   8.850
 4903POPC   GL222922  38.423   8.921   8.850
 4903POPC   C1A22923  38.456   9.014   8.550
 4903POPC   D2A22924  38.494   8.986   8.250
 4903POPC   C3A22925  38.442   8.997   7.950
 4903POPC   C4A22926  38.460   8.967   7.650
 4903POPC   C1B22927  38.317   8.809   8.550
 4903POPC   C2B22928  38.319   8.803   8.250
 4903POPC   C3B22929  38.264   8.779   7.950
 4903POPC   C4B22930  38.337   8.759   7.650
 4904POPC   NC322931  17.469  42.379   9.450
 4904POPC   PO422932  17.531  42.370   9.150
 4904POPC   GL122933  17.511  42.322   8.850
 4904POPC   GL222934  17.419  42.345   8.850
 4904POPC   C1A22935  17.490  42.316   8.550
 4904POPC   D2A22936  17.538  42.354   8.250
 4904POPC   C3A22937  17.504  42.319   7.950
 4904POPC   C4A22938  17.499  42.373   7.650
 4904POPC   C1B22939  17.292  42.307   8.550
 4904POPC   C2B22940  17.283  42.370   8.250
 4904POPC   C3B22941  17.210  42.341   7.950
 4904POPC   C4B22942  17.219  42.368   7.650
 4905POPC   NC322943   2.766  22.186   9.450
 4905POPC   PO422944   2.729  22.203   9.150
 4905POPC   GL122945   2.773  22.135   8.850
 4905POPC   GL222946   2.686  22.223   8.850
 4905POPC   C1A22947   2.771  22.200   8.550
 4905POPC   D2A22948   2.745  22.127   8.250
 4905POPC   C3A22949   2.810  22.207   7.950
 4905POPC   C4A22950   2.765  22.173   7.650
 4905POPC   C1B22951   2.639  22.388   8.550
 4905POPC   C2B22952   2.600  22.414   8.250
 4905POPC   C3B22953   2.665  22.355   7.950
 4905POPC   C4B22954   2.669  22.348   7.650
 4906POPC   NC322955  21.365  18.287   9.450
 4906POPC   PO422956  21.380  18.312   9.150
 4906POPC   GL122957  21.399  18.314   8.850
 4906POPC   GL222958  21.449  18.163   8.850
 4906POPC   C1A22959  21.393  18.317   8.550
 4906POPC   D2A22960  21.393  18.259   8.250
 4906POPC   C3A22961  21.393  18.257   7.950
 4906POPC   C4A22962  21.407  18.318   7.650
 4906POPC   C1B22963  21.511  18.038   8.550
 4906POPC   C2B22964  21.538  18.049   8.250
 4906POPC   C3B22965  21.544  18.063   7.950
 4906POPC   C4B22966  21.515  18.089   7.650
 4907POPC   NC322967  13.665  12.056   9.450
 4907POPC   PO422968  13.635  12.109   9.150
 4907POPC   GL122969  13.587  12.097   8.850
 4907POPC   GL222970  13.751  12.183   8.850
 4907POPC   C1A22971  13.666  12.043   8.550
 4907POPC   D2A22972  13.663  12.050   8.250
 4907POPC   C3A22973  13.609  12.114   7.950
 4907POPC   C4A22974  13.642  12.054   7.650
 4907POPC   C1B22975  13.806  12.282   8.550
 4907POPC   C2B22976  13.866  12.206   8.250
 4907POPC   C3B22977  13.796  12.263   7.950
 4907POPC   C4B22978  13.848  12.192   7.650
 4908POPC   NC322979  18.243  44.621   9.450
 4908POPC   PO422980  18.267  44.674   9.150
 4908POPC   GL122981  18.277  44.626   8.850
 4908POPC   GL222982  18.243  44.782   8.850
 4908POPC   C1A22983  18.284  44.647   8.550
 4908POPC   D2A22984  18.318  44.700   8.250
 4908POPC   C3A22985  18.329  44.632   7.950
 4908POPC   C4A22986  18.280  44.707   7.650
 4908POPC   C1B22987  18.114  44.885   8.550
 4908POPC   C2B22988  18.150  44.813   8.250
 4908POPC   C3B22989  18.153  44.806   7.950
 4908POPC   C4B22990  18.165  44.825   7.650
 4909POPC   NC322991  42.338  13.634   9.450
 4909POPC   PO422992  42.355  13.670   9.150
 4909POPC   GL122993  42.335  13.662   8.850
 4909POPC   GL222994  42.265  13.685   8.850
 4909POPC   C1A22995  42.358  13.578   8.550
 4909POPC   D2A22996  42.343  13.653   8.250
 4909POPC   C3A22997  42.346  13.598   7.950
 4909POPC   C4A22998  42.354  13.648   7.650
 4909POPC   C1B22999  42.164  13.862   8.550
 4909POPC   C2B23000  42.221  13.875   8.250
 4909POPC   C3B23001  42.163  13.801   7.950
 4909POPC   C4B23002  42.167  13.816   7.650
 4910POPC   NC323003  18.277  43.870   9.450
 4910POPC   PO423004  18.269  43.847   9.150
 4910POPC   GL123005  18.239  43.891   8.850
 4910POPC   GL223006  18.434  43.841   8.850
 4910POPC   C1A23007  18.314  43.860   8.550
 4910POPC   D2A23008  18.290  43.925   8.250
 4910POPC   C3A23009  18.294  43.925   7.950
 4910POPC   C4A23010  18.323  43.901   7.650
 4910POPC   C1B23011  18.526  43.736   8.550
 4910POPC   C2B23012  18.456  43.720   8.250
 4910POPC   C3B23013  18.496  43.751   7.950
 4910POPC   C4B23014  18.454  43.713   7.650
 4911POPC   NC323015   2.787  10.478   9.450
 4911POPC   PO423016   2.804  10.561   9.150
 4911POPC   GL123017   2.723  10.498   8.850
 4911POPC   GL223018   2.871  10.560   8.850
 4911POPC   C1A23019   2.717  10.563   8.550
 4911POPC   D2A23020   2.744  10.481   8.250
 4911POPC   C3A23021   2.787  10.567   7.950
 4911POPC   C4A23022   2.766  10.572   7.650
 4911POPC   C1B23023   2.958  10.591   8.550
 4911POPC   C2B23024   3.033  10.619   8.250
 4911POPC   C3B23025   2.968  10.661   7.950
 4911POPC   C4B23026   2.963  10.594   7.650
 4912POPC   NC323027  33.839  43.140   9.450
 4912POPC   PO423028  33.814  43.114   9.150
 4912POPC   GL123029  33.788  43.126   8.850
 4912POPC   GL223030  33.662  42.987   8.850
 4912POPC   C1A23031  33.825  43.079   8.550
 4912POPC   D2A23032  33.780  43.089   8.250
 4912POPC   C3A23033  33.775  43.125   7.950
 4912POPC   C4A23034  33.832  43.097   7.650
 4912POPC   C1B23035  33.578  42.914   8.550
 4912POPC   C2B23036  33.615  42.973   8.250
 4912POPC   C3B23037  33.597  42.978   7.950
 4912POPC   C4B23038  33.564  42.948   7.650
 4913POPC   NC323039  41.595  15.170   9.450
 4913POPC   PO423040  41.511  15.130   9.150
 4913POPC   GL123041  41.537  15.152   8.850
 4913POPC   GL223042  41.606  15.042   8.850
 4913POPC   C1A23043  41.598  15.217   8.550
 4913POPC   D2A23044  41.556  15.223   8.250
 4913POPC   C3A23045  41.595  15.187   7.950
 4913POPC   C4A23046  41.573  15.173   7.650
 4913POPC   C1B23047  41.558  14.953   8.550
 4913POPC   C2B23048  41.562  14.887   8.250
 4913POPC   C3B23049  41.550  14.973   7.950
 4913POPC   C4B23050  41.530  14.899   7.650
 4914POPC   NC323051  35.392  32.209   9.450
 4914POPC   PO423052  35.394  32.297   9.150
 4914POPC   GL123053  35.378  32.204   8.850
 4914POPC   GL223054  35.272  32.142   8.850
 4914POPC   C1A23055  35.392  32.227   8.550
 4914POPC   D2A23056  35.374  32.213   8.250
 4914POPC   C3A23057  35.391  32.200   7.950
 4914POPC   C4A23058  35.396  32.274   7.650
 4914POPC   C1B23059  35.323  32.017   8.550
 4914POPC   C2B23060  35.311  31.983   8.250
 4914POPC   C3B23061  35.312  32.047   7.950
 4914POPC   C4B23062  35.248  32.024   7.650
 4915POPC   NC323063  18.265  38.444   9.450
 4915POPC   PO423064  18.265  38.472   9.150
 4915POPC   GL123065  18.332  38.418   8.850
 4915POPC   GL223066  18.370  38.486   8.850
 4915POPC   C1A23067  18.278  38.448   8.550
 4915POPC   D2A23068  18.236  38.411   8.250
 4915POPC   C3A23069  18.269  38.490   7.950
 4915POPC   C4A23070  18.285  38.429   7.650
 4915POPC   C1B23071  18.528  38.659   8.550
 4915POPC   C2B23072  18.501  38.635   8.250
 4915POPC   C3B23073  18.443  38.649   7.950
 4915POPC   C4B23074  18.481  38.649   7.650
 4916POPC   NC323075   5.853  28.344   9.450
 4916POPC   PO423076   5.849  28.355   9.150
 4916POPC   GL123077   5.902  28.335   8.850
 4916POPC   GL223078   5.719  28.385   8.850
 4916POPC   C1A23079   5.916  28.375   8.550
 4916POPC   D2A23080   5.915  28.352   8.250
 4916POPC   C3A23081   5.857  28.368   7.950
 4916POPC   C4A23082   5.855  28.344   7.650
 4916POPC   C1B23083   5.669  28.487   8.550
 4916POPC   C2B23084   5.679  28.521   8.250
 4916POPC   C3B23085   5.626  28.465   7.950
 4916POPC   C4B23086   5.641  28.502   7.650
 4917POPC   NC323087   4.346  28.399   9.450
 4917POPC   PO423088   4.268  28.345   9.150
 4917POPC   GL123089   4.280  28.356   8.850
 4917POPC   GL223090   4.226  28.308   8.850
 4917POPC   C1A23091   4.319  28.399   8.550
 4917POPC   D2A23092   4.305  28.322   8.250
 4917POPC   C3A23093   4.334  28.331   7.950
 4917POPC   C4A23094   4.307  28.353   7.650
 4917POPC   C1B23095   4.155  28.137   8.550
 4917POPC   C2B23096   4.103  28.230   8.250
 4917POPC   C3B23097   4.116  28.193   7.950
 4917POPC   C4B23098   4.111  28.164   7.650
 4918POPC   NC323099  15.136  29.169   9.450
 4918POPC   PO423100  15.163  29.149   9.150
 4918POPC   GL123101  15.139  29.155   8.850
 4918POPC   GL223102  15.105  29.242   8.850
 4918POPC   C1A23103  15.218  29.171   8.550
 4918POPC   D2A23104  15.151  29.175   8.250
 4918POPC   C3A23105  15.156  29.151   7.950
 4918POPC   C4A23106  15.218  29.176   7.650
 4918POPC   C1B23107  14.947  29.297   8.550
 4918POPC   C2B23108  15.005  29.237   8.250
 4918POPC   C3B23109  14.954  29.268   7.950
 4918POPC   C4B23110  14.916  29.269   7.650
 4919POPC   NC323111  39.249   7.448   9.450
 4919POPC   PO423112  39.193   7.458   9.150
 4919POPC   GL123113  39.254   7.465   8.850
 4919POPC   GL223114  39.224   7.333   8.850
 4919POPC   C1A23115  39.184   7.426   8.550
 4919POPC   D2A23116  39.255   7.407   8.250
 4919POPC   C3A23117  39.231   7.416   7.950
 4919POPC   C4A23118  39.210   7.424   7.650
 4919POPC   C1B23119  39.176   7.200   8.550
 4919POPC   C2B23120  39.174   7.151   8.250
 4919POPC   C3B23121  39.178   7.223   7.950
 4919POPC   C4B23122  39.170   7.158   7.650
 4920POPC   NC323123  36.122  43.122   9.450
 4920POPC   PO423124  36.174  43.160   9.150
 4920POPC   GL123125  36.169  43.073   8.850
 4920POPC   GL223126  35.996  43.072   8.850
 4920POPC   C1A23127  36.111  43.155   8.550
 4920POPC   D2A23128  36.096  43.110   8.250
 4920POPC   C3A23129  36.112  43.131   7.950
 4920POPC   C4A23130  36.094  43.160   7.650
 4920POPC   C1B23131  35.925  42.985   8.550
 4920POPC   C2B23132  35.898  43.057   8.250
 4920POPC   C3B23133  35.920  43.052   7.950
 4920POPC   C4B23134  35.886  43.022   7.650
 4921POPC   NC323135   5.869  41.603   9.450
 4921POPC   PO423136   5.864  41.577   9.150
 4921POPC   GL123137   5.905  41.556   8.850
 4921POPC   GL223138   5.965  41.538   8.850
 4921POPC   C1A23139   5.880  41.539   8.550
 4921POPC   D2A23140   5.853  41.512   8.250
 4921POPC   C3A23141   5.903  41.527   7.950
 4921POPC   C4A23142   5.836  41.541   7.650
 4921POPC   C1B23143   6.071  41.531   8.550
 4921POPC   C2B23144   6.117  41.584   8.250
 4921POPC   C3B23145   6.115  41.584   7.950
 4921POPC   C4B23146   6.137  41.535   7.650
 4922POPC   NC323147   8.165  35.302   9.450
 4922POPC   PO423148   8.208  35.401   9.150
 4922POPC   GL123149   8.213  35.319   8.850
 4922POPC   GL223150   8.204  35.504   8.850
 4922POPC   C1A23151   8.238  35.351   8.550
 4922POPC   D2A23152   8.233  35.337   8.250
 4922POPC   C3A23153   8.197  35.335   7.950
 4922POPC   C4A23154   8.160  35.396   7.650
 4922POPC   C1B23155   8.099  35.579   8.550
 4922POPC   C2B23156   8.165  35.550   8.250
 4922POPC   C3B23157   8.144  35.614   7.950
 4922POPC   C4B23158   8.114  35.567   7.650
 4923POPC   NC323159  43.855  32.974   9.450
 4923POPC   PO423160  43.844  33.074   9.150
 4923POPC   GL123161  43.856  32.990   8.850
 4923POPC   GL223162  43.959  33.083   8.850
 4923POPC   C1A23163  43.886  32.986   8.550
 4923POPC   D2A23164  43.906  33.049   8.250
 4923POPC   C3A23165  43.916  33.067   7.950
 4923POPC   C4A23166  43.864  32.978   7.650
 4923POPC   C1B23167  44.054  33.233   8.550
 4923POPC   C2B23168  44.004  33.204   8.250
 4923POPC   C3B23169  44.026  33.270   7.950
 4923POPC   C4B23170  44.023  33.226   7.650
 4924POPC   NC323171  12.059  40.814   9.450
 4924POPC   PO423172  12.117  40.759   9.150
 4924POPC   GL123173  12.058  40.762   8.850
 4924POPC   GL223174  12.181  40.837   8.850
 4924POPC   C1A23175  12.059  40.822   8.550
 4924POPC   D2A23176  12.112  40.810   8.250
 4924POPC   C3A23177  12.112  40.800   7.950
 4924POPC   C4A23178  12.045  40.829   7.650
 4924POPC   C1B23179  12.345  40.827   8.550
 4924POPC   C2B23180  12.277  40.904   8.250
 4924POPC   C3B23181  12.336  40.903   7.950
 4924POPC   C4B23182  12.303  40.823   7.650
 4925POPC   NC323183  17.494  31.486   9.450
 4925POPC   PO423184  17.543  31.437   9.150
 4925POPC   GL123185  17.527  31.510   8.850
 4925POPC   GL223186  17.532  31.593   8.850
 4925POPC   C1A23187  17.477  31.474   8.550
 4925POPC   D2A23188  17.482  31.466   8.250
 4925POPC   C3A23189  17.488  31.506   7.950
 4925POPC   C4A23190  17.506  31.487   7.650
 4925POPC   C1B23191  17.568  31.738   8.550
 4925POPC   C2B23192  17.533  31.729   8.250
 4925POPC   C3B23193  17.612  31.741   7.950
 4925POPC   C4B23194  17.536  31.752   7.650
 4926POPC   NC323195  26.077  12.832   9.450
 4926POPC   PO423196  26.037  12.849   9.150
 4926POPC   GL123197  26.070  12.806   8.850
 4926POPC   GL223198  25.983  12.749   8.850
 4926POPC   C1A23199  26.000  12.901   8.550
 4926POPC   D2A23200  26.022  12.854   8.250
 4926POPC   C3A23201  26.011  12.821   7.950
 4926POPC   C4A23202  26.047  12.882   7.650
 4926POPC   C1B23203  25.802  12.673   8.550
 4926POPC   C2B23204  25.792  12.690   8.250
 4926POPC   C3B23205  25.836  12.689   7.950
 4926POPC   C4B23206  25.870  12.684   7.650
 4927POPC   NC323207  33.829  24.533   9.450
 4927POPC   PO423208  33.786  24.466   9.150
 4927POPC   GL123209  33.797  24.485   8.850
 4927POPC   GL223210  33.822  24.367   8.850
 4927POPC   C1A23211  33.805  24.532   8.550
 4927POPC   D2A23212  33.842  24.487   8.250
 4927POPC   C3A23213  33.769  24.522   7.950
 4927POPC   C4A23214  33.811  24.539   7.650
 4927POPC   C1B23215  33.720  24.263   8.550
 4927POPC   C2B23216  33.744  24.207   8.250
 4927POPC   C3B23217  33.763  24.255   7.950
 4927POPC   C4B23218  33.730  24.260   7.650
 4928POPC   NC323219  14.378   7.384   9.450
 4928POPC   PO423220  14.362   7.457   9.150
 4928POPC   GL123221  14.367   7.419   8.850
 4928POPC   GL223222  14.388   7.323   8.850
 4928POPC   C1A23223  14.423   7.419   8.550
 4928POPC   D2A23224  14.439   7.430   8.250
 4928POPC   C3A23225  14.443   7.457   7.950
 4928POPC   C4A23226  14.416   7.405   7.650
 4928POPC   C1B23227  14.370   7.196   8.550
 4928POPC   C2B23228  14.354   7.220   8.250
 4928POPC   C3B23229  14.358   7.184   7.950
 4928POPC   C4B23230  14.319   7.165   7.650
 4929POPC   NC323231  14.389  24.525   9.450
 4929POPC   PO423232  14.381  24.460   9.150
 4929POPC   GL123233  14.375  24.495   8.850
 4929POPC   GL223234  14.269  24.448   8.850
 4929POPC   C1A23235  14.440  24.481   8.550
 4929POPC   D2A23236  14.363  24.537   8.250
 4929POPC   C3A23237  14.393  24.521   7.950
 4929POPC   C4A23238  14.380  24.524   7.650
 4929POPC   C1B23239  14.199  24.304   8.550
 4929POPC   C2B23240  14.219  24.330   8.250
 4929POPC   C3B23241  14.258  24.365   7.950
 4929POPC   C4B23242  14.215  24.286   7.650
 4930POPC   NC323243  36.896  12.095   9.450
 4930POPC   PO423244  36.889  12.101   9.150
 4930POPC   GL123245  36.863  12.052   8.850
 4930POPC   GL223246  36.783  12.203   8.850
 4930POPC   C1A23247  36.872  12.082   8.550
 4930POPC   D2A23248  36.914  12.036   8.250
 4930POPC   C3A23249  36.862  12.082   7.950
 4930POPC   C4A23250  36.950  12.117   7.650
 4930POPC   C1B23251  36.741  12.257   8.550
 4930POPC   C2B23252  36.719  12.305   8.250
 4930POPC   C3B23253  36.753  12.308   7.950
 4930POPC   C4B23254  36.760  12.303   7.650
 4931POPC   NC323255  37.636  41.543   9.450
 4931POPC   PO423256  37.684  41.572   9.150
 4931POPC   GL123257  37.659  41.566   8.850
 4931POPC   GL223258  37.754  41.599   8.850
 4931POPC   C1A23259  37.720  41.549   8.550
 4931POPC   D2A23260  37.660  41.575   8.250
 4931POPC   C3A23261  37.651  41.554   7.950
 4931POPC   C4A23262  37.686  41.571   7.650
 4931POPC   C1B23263  37.876  41.717   8.550
 4931POPC   C2B23264  37.899  41.681   8.250
 4931POPC   C3B23265  37.912  41.708   7.950
 4931POPC   C4B23266  37.891  41.746   7.650
 4932POPC   NC323267  25.251  28.412   9.450
 4932POPC   PO423268  25.258  28.348   9.150
 4932POPC   GL123269  25.251  28.324   8.850
 4932POPC   GL223270  25.187  28.390   8.850
 4932POPC   C1A23271  25.243  28.362   8.550
 4932POPC   D2A23272  25.227  28.395   8.250
 4932POPC   C3A23273  25.284  28.338   7.950
 4932POPC   C4A23274  25.245  28.350   7.650
 4932POPC   C1B23275  25.057  28.380   8.550
 4932POPC   C2B23276  25.049  28.376   8.250
 4932POPC   C3B23277  25.009  28.433   7.950
 4932POPC   C4B23278  25.030  28.371   7.650
 4933POPC   NC323279  29.183   0.458   9.450
 4933POPC   PO423280  29.167   0.469   9.150
 4933POPC   GL123281  29.163   0.464   8.850
 4933POPC   GL223282  29.030   0.528   8.850
 4933POPC   C1A23283  29.117   0.481   8.550
 4933POPC   D2A23284  29.111   0.422   8.250
 4933POPC   C3A23285  29.160   0.406   7.950
 4933POPC   C4A23286  29.098   0.404   7.650
 4933POPC   C1B23287  28.941   0.654   8.550
 4933POPC   C2B23288  29.010   0.612   8.250
 4933POPC   C3B23289  28.969   0.630   7.950
 4933POPC   C4B23290  29.006   0.576   7.650
 4934POPC   NC323291  27.585  41.519   9.450
 4934POPC   PO423292  27.586  41.521   9.150
 4934POPC   GL123293  27.556  41.527   8.850
 4934POPC   GL223294  27.486  41.698   8.850
 4934POPC   C1A23295  27.627  41.529   8.550
 4934POPC   D2A23296  27.622  41.577   8.250
 4934POPC   C3A23297  27.598  41.537   7.950
 4934POPC   C4A23298  27.546  41.585   7.650
 4934POPC   C1B23299  27.478  41.745   8.550
 4934POPC   C2B23300  27.440  41.777   8.250
 4934POPC   C3B23301  27.397  41.770   7.950
 4934POPC   C4B23302  27.437  41.727   7.650
 4935POPC   NC323303  43.930  37.691   9.450
 4935POPC   PO423304  43.858  37.654   9.150
 4935POPC   GL123305  43.848  37.664   8.850
 4935POPC   GL223306  43.780  37.782   8.850
 4935POPC   C1A23307  43.885  37.706   8.550
 4935POPC   D2A23308  43.863  37.644   8.250
 4935POPC   C3A23309  43.873  37.688   7.950
 4935POPC   C4A23310  43.923  37.661   7.650
 4935POPC   C1B23311  43.657  37.814   8.550
 4935POPC   C2B23312  43.680  37.882   8.250
 4935POPC   C3B23313  43.680  37.798   7.950
 4935POPC   C4B23314  43.707  37.843   7.650
 4936POPC   NC323315  44.659   8.927   9.450
 4936POPC   PO423316  44.702   8.944   9.150
 4936POPC   GL123317  44.692   8.987   8.850
 4936POPC   GL223318  44.557   9.116   8.850
 4936POPC   C1A23319  44.639   8.958   8.550
 4936POPC   D2A23320  44.629   8.943   8.250
 4936POPC   C3A23321  44.639   9.014   7.950
 4936POPC   C4A23322  44.685   8.936   7.650
 4936POPC   C1B23323  44.507   9.213   8.550
 4936POPC   C2B23324  44.529   9.188   8.250
 4936POPC   C3B23325  44.495   9.134   7.950
 4936POPC   C4B23326  44.506   9.193   7.650
 4937POPC   NC323327   9.011  13.668   9.450
 4937POPC   PO423328   8.952  13.612   9.150
 4937POPC   GL123329   8.965  13.588   8.850
 4937POPC   GL223330   8.898  13.731   8.850
 4937POPC   C1A23331   9.007  13.622   8.550
 4937POPC   D2A23332   8.970  13.671   8.250
 4937POPC   C3A23333   8.995  13.612   7.950
 4937POPC   C4A23334   9.000  13.621   7.650
 4937POPC   C1B23335   8.870  13.890   8.550
 4937POPC   C2B23336   8.859  13.913   8.250
 4937POPC   C3B23337   8.916  13.853   7.950
 4937POPC   C4B23338   8.921  13.875   7.650
 4938POPC   NC323339  36.129  36.124   9.450
 4938POPC   PO423340  36.177  36.098   9.150
 4938POPC   GL123341  36.083  36.093   8.850
 4938POPC   GL223342  36.135  36.236   8.850
 4938POPC   C1A23343  36.116  36.153   8.550
 4938POPC   D2A23344  36.100  36.128   8.250
 4938POPC   C3A23345  36.161  36.125   7.950
 4938POPC   C4A23346  36.084  36.094   7.650
 4938POPC   C1B23347  36.209  36.378   8.550
 4938POPC   C2B23348  36.222  36.352   8.250
 4938POPC   C3B23349  36.152  36.331   7.950
 4938POPC   C4B23350  36.218  36.405   7.650
 4939POPC   NC323351  28.367  37.656   9.450
 4939POPC   PO423352  28.406  37.680   9.150
 4939POPC   GL123353  28.361  37.652   8.850
 4939POPC   GL223354  28.326  37.588   8.850
 4939POPC   C1A23355  28.395  37.665   8.550
 4939POPC   D2A23356  28.349  37.680   8.250
 4939POPC   C3A23357  28.399  37.643   7.950
 4939POPC   C4A23358  28.382  37.636   7.650
 4939POPC   C1B23359  28.287  37.465   8.550
 4939POPC   C2B23360  28.324  37.437   8.250
 4939POPC   C3B23361  28.256  37.419   7.950
 4939POPC   C4B23362  28.270  37.413   7.650
 4940POPC   NC323363  43.127  42.367   9.450
 4940POPC   PO423364  43.083  42.350   9.150
 4940POPC   GL123365  43.090  42.380   8.850
 4940POPC   GL223366  42.969  42.411   8.850
 4940POPC   C1A23367  43.114  42.304   8.550
 4940POPC   D2A23368  43.088  42.301   8.250
 4940POPC   C3A23369  43.104  42.359   7.950
 4940POPC   C4A23370  43.100  42.310   7.650
 4940POPC   C1B23371  42.844  42.432   8.550
 4940POPC   C2B23372  42.843  42.426   8.250
 4940POPC   C3B23373  42.853  42.481   7.950
 4940POPC   C4B23374  42.882  42.477   7.650
 4941POPC   NC323375  22.896  34.599   9.450
 4941POPC   PO423376  22.925  34.620   9.150
 4941POPC   GL123377  22.911  34.535   8.850
 4941POPC   GL223378  22.928  34.432   8.850
 4941POPC   C1A23379  22.968  34.618   8.550
 4941POPC   D2A23380  22.936  34.616   8.250
 4941POPC   C3A23381  22.968  34.541   7.950
 4941POPC   C4A23382  22.968  34.585   7.650
 4941POPC   C1B23383  22.918  34.297   8.550
 4941POPC   C2B23384  22.888  34.370   8.250
 4941POPC   C3B23385  22.876  34.313   7.950
 4941POPC   C4B23386  22.912  34.342   7.650
 4942POPC   NC323387  12.883  16.716   9.450
 4942POPC   PO423388  12.859  16.755   9.150
 4942POPC   GL123389  12.833  16.757   8.850
 4942POPC   GL223390  12.754  16.710   8.850
 4942POPC   C1A23391  12.849  16.694   8.550
 4942POPC   D2A23392  12.818  16.709   8.250
 4942POPC   C3A23393  12.872  16.742   7.950
 4942POPC   C4A23394  12.821  16.703   7.650
 4942POPC   C1B23395  12.640  16.675   8.550
 4942POPC   C2B23396  12.578  16.705   8.250
 4942POPC   C3B23397  12.630  16.733   7.950
 4942POPC   C4B23398  12.641  16.711   7.650
 4943POPC   NC323399  16.709  43.107   9.450
 4943POPC   PO423400  16.699  43.108   9.150
 4943POPC   GL123401  16.719  43.079   8.850
 4943POPC   GL223402  16.757  42.999   8.850
 4943POPC   C1A23403  16.742  43.106   8.550
 4943POPC   D2A23404  16.720  43.137   8.250
 4943POPC   C3A23405  16.714  43.148   7.950
 4943POPC   C4A23406  16.749  43.156   7.650
 4943POPC   C1B23407  16.901  42.940   8.550
 4943POPC   C2B23408  16.874  42.851   8.250
 4943POPC   C3B23409  16.896  42.874   7.950
 4943POPC   C4B23410  16.917  42.934   7.650
 4944POPC   NC323411   4.323  18.287   9.450
 4944POPC   PO423412   4.367  18.237   9.150
 4944POPC   GL123413   4.285  18.277   8.850
 4944POPC   GL223414   4.362  18.436   8.850
 4944POPC   C1A23415   4.275  18.298   8.550
 4944POPC   D2A23416   4.349  18.289   8.250
 4944POPC   C3A23417   4.275  18.237   7.950
 4944POPC   C4A23418   4.328  18.268   7.650
 4944POPC   C1B23419   4.427  18.547   8.550
 4944POPC   C2B23420   4.428  18.533   8.250
 4944POPC   C3B23421   4.364  18.565   7.950
 4944POPC   C4B23422   4.416  18.539   7.650
 4945POPC   NC323423   0.460  15.912   9.450
 4945POPC   PO423424   0.488  15.930   9.150
 4945POPC   GL123425   0.396  15.916   8.850
 4945POPC   GL223426   0.516  15.893   8.850
 4945POPC   C1A23427   0.417  15.915   8.550
 4945POPC   D2A23428   0.412  15.909   8.250
 4945POPC   C3A23429   0.480  15.917   7.950
 4945POPC   C4A23430   0.414  15.989   7.650
 4945POPC   C1B23431   0.650  15.794   8.550
 4945POPC   C2B23432   0.660  15.831   8.250
 4945POPC   C3B23433   0.615  15.768   7.950
 4945POPC   C4B23434   0.608  15.769   7.650
 4946POPC   NC323435   4.366  33.774   9.450
 4946POPC   PO423436   4.323  33.819   9.150
 4946POPC   GL123437   4.312  33.787   8.850
 4946POPC   GL223438   4.262  33.635   8.850
 4946POPC   C1A23439   4.313  33.797   8.550
 4946POPC   D2A23440   4.354  33.767   8.250
 4946POPC   C3A23441   4.318  33.834   7.950
 4946POPC   C4A23442   4.367  33.773   7.650
 4946POPC   C1B23443   4.193  33.581   8.550
 4946POPC   C2B23444   4.209  33.521   8.250
 4946POPC   C3B23445   4.209  33.604   7.950
 4946POPC   C4B23446   4.217  33.568   7.650
 4947POPC   NC323447   8.216   5.829   9.450
 4947POPC   PO423448   8.215   5.851   9.150
 4947POPC   GL123449   8.234   5.903   8.850
 4947POPC   GL223450   8.091   5.894   8.850
 4947POPC   C1A23451   8.184   5.852   8.550
 4947POPC   D2A23452   8.151   5.865   8.250
 4947POPC   C3A23453   8.220   5.847   7.950
 4947POPC   C4A23454   8.156   5.884   7.650
 4947POPC   C1B23455   8.022   5.951   8.550
 4947POPC   C2B23456   7.966   5.987   8.250
 4947POPC   C3B23457   7.972   5.981   7.950
 4947POPC   C4B23458   7.938   5.984   7.650
 4948POPC   NC323459  33.010  28.320   9.450
 4948POPC   PO423460  32.983  28.391   9.150
 4948POPC   GL123461  33.024  28.352   8.850
 4948POPC   GL223462  32.862  28.371   8.850
 4948POPC   C1A23463  33.064  28.384   8.550
 4948POPC   D2A23464  33.028  28.417   8.250
 4948POPC   C3A23465  33.065  28.359   7.950
 4948POPC   C4A23466  33.066  28.417   7.650
 4948POPC   C1B23467  32.834  28.284   8.550
 4948POPC   C2B23468  32.760  28.303   8.250
 4948POPC   C3B23469  32.780  28.277   7.950
 4948POPC   C4B23470  32.836  28.296   7.650
 4949POPC   NC323471  42.337   9.702   9.450
 4949POPC   PO423472  42.333   9.744   9.150
 4949POPC   GL123473  42.349   9.758   8.850
 4949POPC   GL223474  42.257   9.615   8.850
 4949POPC   C1A23475  42.363   9.700   8.550
 4949POPC   D2A23476  42.331   9.795   8.250
 4949POPC   C3A23477  42.336   9.777   7.950
 4949POPC   C4A23478  42.327   9.739   7.650
 4949POPC   C1B23479  42.149   9.594   8.550
 4949POPC   C2B23480  42.167   9.562   8.250
 4949POPC   C3B23481  42.164   9.610   7.950
 4949POPC   C4B23482  42.207   9.547   7.650
 4950POPC   NC323483   4.362  43.142   9.450
 4950POPC   PO423484   4.310  43.152   9.150
 4950POPC   GL123485   4.288  43.141   8.850
 4950POPC   GL223486   4.466  43.108   8.850
 4950POPC   C1A23487   4.268  43.126   8.550
 4950POPC   D2A23488   4.349  43.126   8.250
 4950POPC   C3A23489   4.359  43.128   7.950
 4950POPC   C4A23490   4.309  43.078   7.650
 4950POPC   C1B23491   4.613  43.041   8.550
 4950POPC   C2B23492   4.607  43.122   8.250
 4950POPC   C3B23493   4.580  43.070   7.950
 4950POPC   C4B23494   4.602  43.119   7.650
 4951POPC   NC323495  43.072  41.583   9.450
 4951POPC   PO423496  43.143  41.529   9.150
 4951POPC   GL123497  43.115  41.528   8.850
 4951POPC   GL223498  43.030  41.669   8.850
 4951POPC   C1A23499  43.147  41.519   8.550
 4951POPC   D2A23500  43.063  41.515   8.250
 4951POPC   C3A23501  43.100  41.607   7.950
 4951POPC   C4A23502  43.145  41.542   7.650
 4951POPC   C1B23503  42.969  41.757   8.550
 4951POPC   C2B23504  42.940  41.775   8.250
 4951POPC   C3B23505  42.952  41.772   7.950
 4951POPC   C4B23506  43.001  41.810   7.650
 4952POPC   NC323507  43.076  21.432   9.450
 4952POPC   PO423508  43.107  21.352   9.150
 4952POPC   GL123509  43.080  21.341   8.850
 4952POPC   GL223510  43.029  21.467   8.850
 4952POPC   C1A23511  43.116  21.351   8.550
 4952POPC   D2A23512  43.098  21.361   8.250
 4952POPC   C3A23513  43.106  21.355   7.950
 4952POPC   C4A23514  43.064  21.379   7.650
 4952POPC   C1B23515  42.989  21.560   8.550
 4952POPC   C2B23516  42.941  21.520   8.250
 4952POPC   C3B23517  42.981  21.547   7.950
 4952POPC   C4B23518  42.897  21.520   7.650
 4953POPC   NC323519   2.027  32.242   9.450
 4953POPC   PO423520   2.032  32.236   9.150
 4953POPC   GL123521   2.001  32.242   8.850
 4953POPC   GL223522   2.110  32.196   8.850
 4953POPC   C1A23523   2.027  32.279   8.550
 4953POPC   D2A23524   1.947  32.265   8.250
 4953POPC   C3A23525   2.015  32.238   7.950
 4953POPC   C4A23526   2.011  32.260   7.650
 4953POPC   C1B23527   2.211  32.084   8.550
 4953POPC   C2B23528   2.172  32.116   8.250
 4953POPC   C3B23529   2.228  32.053   7.950
 4953POPC   C4B23530   2.170  32.081   7.650
 4954POPC   NC323531  16.744  43.928   9.450
 4954POPC   PO423532  16.687  43.880   9.150
 4954POPC   GL123533  16.707  43.908   8.850
 4954POPC   GL223534  16.886  43.821   8.850
 4954POPC   C1A23535  16.719  43.920   8.550
 4954POPC   D2A23536  16.763  43.936   8.250
 4954POPC   C3A23537  16.729  43.903   7.950
 4954POPC   C4A23538  16.708  43.840   7.650
 4954POPC   C1B23539  16.898  43.755   8.550
 4954POPC   C2B23540  16.946  43.788   8.250
 4954POPC   C3B23541  16.900  43.764   7.950
 4954POPC   C4B23542  16.977  43.744   7.650
 4955POPC   NC323543   8.201   8.947   9.450
 4955POPC   PO423544   8.173   9.012   9.150
 4955POPC   GL123545   8.187   8.976   8.850
 4955POPC   GL223546   8.102   8.908   8.850
 4955POPC   C1A23547   8.219   9.018   8.550
 4955POPC   D2A23548   8.236   8.980   8.250
 4955POPC   C3A23549   8.193   9.020   7.950
 4955POPC   C4A23550   8.228   8.952   7.650
 4955POPC   C1B23551   8.010   8.785   8.550
 4955POPC   C2B23552   8.019   8.768   8.250
 4955POPC   C3B23553   8.054   8.783   7.950
 4955POPC   C4B23554   8.075   8.769   7.650
 4956POPC   NC323555  12.095  42.335   9.450
 4956POPC   PO423556  12.031  42.368   9.150
 4956POPC   GL123557  12.105  42.291   8.850
 4956POPC   GL223558  12.169  42.367   8.850
 4956POPC   C1A23559  12.061  42.382   8.550
 4956POPC   D2A23560  12.084  42.372   8.250
 4956POPC   C3A23561  12.090  42.338   7.950
 4956POPC   C4A23562  12.051  42.292   7.650
 4956POPC   C1B23563  12.299  42.389   8.550
 4956POPC   C2B23564  12.348  42.297   8.250
 4956POPC   C3B23565  12.330  42.386   7.950
 4956POPC   C4B23566  12.350  42.379   7.650
 4957POPC   NC323567  33.815  33.844   9.450
 4957POPC   PO423568  33.787  33.806   9.150
 4957POPC   GL123569  33.772  33.807   8.850
 4957POPC   GL223570  33.637  33.846   8.850
 4957POPC   C1A23571  33.849  33.753   8.550
 4957POPC   D2A23572  33.840  33.762   8.250
 4957POPC   C3A23573  33.759  33.834   7.950
 4957POPC   C4A23574  33.787  33.777   7.650
 4957POPC   C1B23575  33.540  33.823   8.550
 4957POPC   C2B23576  33.595  33.847   8.250
 4957POPC   C3B23577  33.572  33.828   7.950
 4957POPC   C4B23578  33.566  33.794   7.650
 4958POPC   NC323579  19.818  12.825   9.450
 4958POPC   PO423580  19.845  12.899   9.150
 4958POPC   GL123581  19.801  12.844   8.850
 4958POPC   GL223582  19.905  12.746   8.850
 4958POPC   C1A23583  19.809  12.821   8.550
 4958POPC   D2A23584  19.876  12.831   8.250
 4958POPC   C3A23585  19.821  12.893   7.950
 4958POPC   C4A23586  19.867  12.874   7.650
 4958POPC   C1B23587  19.947  12.586   8.550
 4958POPC   C2B23588  19.967  12.590   8.250
 4958POPC   C3B23589  19.971  12.589   7.950
 4958POPC   C4B23590  19.920  12.608   7.650
 4959POPC   NC323591  27.642  15.918   9.450
 4959POPC   PO423592  27.614  15.929   9.150
 4959POPC   GL123593  27.566  15.970   8.850
 4959POPC   GL223594  27.621  16.029   8.850
 4959POPC   C1A23595  27.592  15.919   8.550
 4959POPC   D2A23596  27.636  15.968   8.250
 4959POPC   C3A23597  27.637  15.906   7.950
 4959POPC   C4A23598  27.556  15.936   7.650
 4959POPC   C1B23599  27.655  16.168   8.550
 4959POPC   C2B23600  27.701  16.228   8.250
 4959POPC   C3B23601  27.631  16.219   7.950
 4959POPC   C4B23602  27.671  16.231   7.650
 4960POPC   NC323603  10.490  10.549   9.450
 4960POPC   PO423604  10.494  10.491   9.150
 4960POPC   GL123605  10.499  10.515   8.850
 4960POPC   GL223606  10.521  10.368   8.850
 4960POPC   C1A23607  10.541  10.546   8.550
 4960POPC   D2A23608  10.525  10.531   8.250
 4960POPC   C3A23609  10.526  10.544   7.950
 4960POPC   C4A23610  10.566  10.481   7.650
 4960POPC   C1B23611  10.516  10.275   8.550
 4960POPC   C2B23612  10.449  10.325   8.250
 4960POPC   C3B23613  10.446  10.326   7.950
 4960POPC   C4B23614  10.447  10.282   7.650
 4961POPC   NC323615  38.442  26.781   9.450
 4961POPC   PO423616  38.426  26.803   9.150
 4961POPC   GL123617  38.484  26.814   8.850
 4961POPC   GL223618  38.490  26.965   8.850
 4961POPC   C1A23619  38.460  26.824   8.550
 4961POPC   D2A23620  38.505  26.820   8.250
 4961POPC   C3A23621  38.494  26.809   7.950
 4961POPC   C4A23622  38.502  26.846   7.650
 4961POPC   C1B23623  38.399  27.080   8.550
 4961POPC   C2B23624  38.477  27.046   8.250
 4961POPC   C3B23625  38.408  27.027   7.950
 4961POPC   C4B23626  38.480  27.103   7.650
 4962POPC   NC323627   1.946  17.537   9.450
 4962POPC   PO423628   1.957  17.549   9.150
 4962POPC   GL123629   1.971  17.524   8.850
 4962POPC   GL223630   1.880  17.480   8.850
 4962POPC   C1A23631   1.982  17.550   8.550
 4962POPC   D2A23632   2.013  17.544   8.250
 4962POPC   C3A23633   1.983  17.548   7.950
 4962POPC   C4A23634   1.965  17.462   7.650
 4962POPC   C1B23635   1.725  17.423   8.550
 4962POPC   C2B23636   1.766  17.498   8.250
 4962POPC   C3B23637   1.758  17.437   7.950
 4962POPC   C4B23638   1.748  17.457   7.650
 4963POPC   NC323639  36.150  37.637   9.450
 4963POPC   PO423640  36.106  37.682   9.150
 4963POPC   GL123641  36.172  37.708   8.850
 4963POPC   GL223642  36.245  37.739   8.850
 4963POPC   C1A23643  36.127  37.664   8.550
 4963POPC   D2A23644  36.085  37.719   8.250
 4963POPC   C3A23645  36.093  37.633   7.950
 4963POPC   C4A23646  36.176  37.692   7.650
 4963POPC   C1B23647  36.342  37.711   8.550
 4963POPC   C2B23648  36.361  37.781   8.250
 4963POPC   C3B23649  36.391  37.753   7.950
 4963POPC   C4B23650  36.402  37.705   7.650
 4964POPC   NC323651   6.692  12.880   9.450
 4964POPC   PO423652   6.610  12.828   9.150
 4964POPC   GL123653   6.691  12.900   8.850
 4964POPC   GL223654   6.570  12.921   8.850
 4964POPC   C1A23655   6.613  12.896   8.550
 4964POPC   D2A23656   6.622  12.876   8.250
 4964POPC   C3A23657   6.627  12.837   7.950
 4964POPC   C4A23658   6.674  12.847   7.650
 4964POPC   C1B23659   6.433  12.981   8.550
 4964POPC   C2B23660   6.439  12.933   8.250
 4964POPC   C3B23661   6.455  12.916   7.950
 4964POPC   C4B23662   6.450  12.935   7.650
 4965POPC   NC323663   5.072  17.546   9.450
 4965POPC   PO423664   5.063  17.495   9.150
 4965POPC   GL123665   5.104  17.468   8.850
 4965POPC   GL223666   5.178  17.508   8.850
 4965POPC   C1A23667   5.109  17.538   8.550
 4965POPC   D2A23668   5.082  17.521   8.250
 4965POPC   C3A23669   5.107  17.466   7.950
 4965POPC   C4A23670   5.133  17.485   7.650
 4965POPC   C1B23671   5.347  17.544   8.550
 4965POPC   C2B23672   5.352  17.489   8.250
 4965POPC   C3B23673   5.295  17.541   7.950
 4965POPC   C4B23674   5.298  17.464   7.650
 4966POPC   NC323675  28.323  30.660   9.450
 4966POPC   PO423676  28.322  30.703   9.150
 4966POPC   GL123677  28.366  30.733   8.850
 4966POPC   GL223678  28.218  30.759   8.850
 4966POPC   C1A23679  28.319  30.742   8.550
 4966POPC   D2A23680  28.322  30.710   8.250
 4966POPC   C3A23681  28.389  30.687   7.950
 4966POPC   C4A23682  28.347  30.684   7.650
 4966POPC   C1B23683  28.118  30.783   8.550
 4966POPC   C2B23684  28.110  30.758   8.250
 4966POPC   C3B23685  28.115  30.769   7.950
 4966POPC   C4B23686  28.138  30.722   7.650
 4967POPC   NC323687   5.918  25.295   9.450
 4967POPC   PO423688   5.837  25.261   9.150
 4967POPC   GL123689   5.858  25.286   8.850
 4967POPC   GL223690   5.751  25.240   8.850
 4967POPC   C1A23691   5.895  25.229   8.550
 4967POPC   D2A23692   5.904  25.281   8.250
 4967POPC   C3A23693   5.914  25.247   7.950
 4967POPC   C4A23694   5.894  25.279   7.650
 4967POPC   C1B23695   5.635  25.158   8.550
 4967POPC   C2B23696   5.691  25.148   8.250
 4967POPC   C3B23697   5.689  25.078   7.950
 4967POPC   C4B23698   5.655  25.162   7.650
 4968POPC   NC323699  42.304  12.039   9.450
 4968POPC   PO423700  42.291  12.077   9.150
 4968POPC   GL123701  42.314  12.114   8.850
 4968POPC   GL223702  42.298  12.206   8.850
 4968POPC   C1A23703  42.383  12.053   8.550
 4968POPC   D2A23704  42.360  12.104   8.250
 4968POPC   C3A23705  42.376  12.036   7.950
 4968POPC   C4A23706  42.375  12.068   7.650
 4968POPC   C1B23707  42.295  12.353   8.550
 4968POPC   C2B23708  42.309  12.314   8.250
 4968POPC   C3B23709  42.345  12.340   7.950
 4968POPC   C4B23710  42.356  12.308   7.650
 4969POPC   NC323711   0.446  33.832   9.450
 4969POPC   PO423712   0.462  33.756   9.150
 4969POPC   GL123713   0.469  33.833   8.850
 4969POPC   GL223714   0.351  33.764   8.850
 4969POPC   C1A23715   0.469  33.802   8.550
 4969POPC   D2A23716   0.460  33.832   8.250
 4969POPC   C3A23717   0.429  33.763   7.950
 4969POPC   C4A23718   0.477  33.838   7.650
 4969POPC   C1B23719   0.169  33.735   8.550
 4969POPC   C2B23720   0.212  33.705   8.250
 4969POPC   C3B23721   0.227  33.748   7.950
 4969POPC   C4B23722   0.181  33.694   7.650
 4970POPC   NC323723  30.690  35.388   9.450
 4970POPC   PO423724  30.734  35.396   9.150
 4970POPC   GL123725  30.678  35.339   8.850
 4970POPC   GL223726  30.641  35.259   8.850
 4970POPC   C1A23727  30.705  35.328   8.550
 4970POPC   D2A23728  30.711  35.397   8.250
 4970POPC   C3A23729  30.662  35.364   7.950
 4970POPC   C4A23730  30.711  35.343   7.650
 4970POPC   C1B23731  30.649  35.088   8.550
 4970POPC   C2B23732  30.678  35.122   8.250
 4970POPC   C3B23733  30.673  35.126   7.950
 4970POPC   C4B23734  30.625  35.084   7.650
 4971POPC   NC323735  19.865  41.602   9.450
 4971POPC   PO423736  19.874  41.530   9.150
 4971POPC   GL123737  19.850  41.551   8.850
 4971POPC   GL223738  19.839  41.698   8.850
 4971POPC   C1A23739  19.879  41.547   8.550
 4971POPC   D2A23740  19.823  41.527   8.250
 4971POPC   C3A23741  19.880  41.511   7.950
 4971POPC   C4A23742  19.825  41.511   7.650
 4971POPC   C1B23743  19.835  41.768   8.550
 4971POPC   C2B23744  19.837  41.822   8.250
 4971POPC   C3B23745  19.902  41.857   7.950
 4971POPC   C4B23746  19.859  41.790   7.650
 4972POPC   NC323747  34.536   4.276   9.450
 4972POPC   PO423748  34.607   4.301   9.150
 4972POPC   GL123749  34.605   4.272   8.850
 4972POPC   GL223750  34.658   4.367   8.850
 4972POPC   C1A23751  34.571   4.270   8.550
 4972POPC   D2A23752  34.550   4.312   8.250
 4972POPC   C3A23753  34.593   4.293   7.950
 4972POPC   C4A23754  34.556   4.360   7.650
 4972POPC   C1B23755  34.808   4.360   8.550
 4972POPC   C2B23756  34.780   4.303   8.250
 4972POPC   C3B23757  34.796   4.290   7.950
 4972POPC   C4B23758  34.850   4.347   7.650
 4973POPC   NC323759  10.508  22.964   9.450
 4973POPC   PO423760  10.487  22.956   9.150
 4973POPC   GL123761  10.566  22.984   8.850
 4973POPC   GL223762  10.586  23.023   8.850
 4973POPC   C1A23763  10.503  22.985   8.550
 4973POPC   D2A23764  10.557  22.935   8.250
 4973POPC   C3A23765  10.546  22.900   7.950
 4973POPC   C4A23766  10.511  22.958   7.650
 4973POPC   C1B23767  10.673  23.093   8.550
 4973POPC   C2B23768  10.725  23.084   8.250
 4973POPC   C3B23769  10.729  23.110   7.950
 4973POPC   C4B23770  10.669  23.153   7.650
 4974POPC   NC323771   0.445  26.790   9.450
 4974POPC   PO423772   0.418  26.858   9.150
 4974POPC   GL123773   0.401  26.857   8.850
 4974POPC   GL223774   0.328  26.813   8.850
 4974POPC   C1A23775   0.450  26.829   8.550
 4974POPC   D2A23776   0.422  26.814   8.250
 4974POPC   C3A23777   0.486  26.770   7.950
 4974POPC   C4A23778   0.426  26.862   7.650
 4974POPC   C1B23779   0.182  26.877   8.550
 4974POPC   C2B23780   0.184  26.875   8.250
 4974POPC   C3B23781   0.242  26.867   7.950
 4974POPC   C4B23782   0.224  26.865   7.650
 4975POPC   NC323783  17.469  27.573   9.450
 4975POPC   PO423784  17.519  27.573   9.150
 4975POPC   GL123785  17.533  27.628   8.850
 4975POPC   GL223786  17.367  27.587   8.850
 4975POPC   C1A23787  17.522  27.564   8.550
 4975POPC   D2A23788  17.508  27.586   8.250
 4975POPC   C3A23789  17.536  27.552   7.950
 4975POPC   C4A23790  17.500  27.560   7.650
 4975POPC   C1B23791  17.247  27.570   8.550
 4975POPC   C2B23792  17.310  27.560   8.250
 4975POPC   C3B23793  17.239  27.595   7.950
 4975POPC   C4B23794  17.248  27.514   7.650
 4976POPC   NC323795  27.575   9.706   9.450
 4976POPC   PO423796  27.547   9.787   9.150
 4976POPC   GL123797  27.635   9.796   8.850
 4976POPC   GL223798  27.619   9.583   8.850
 4976POPC   C1A23799  27.624   9.742   8.550
 4976POPC   D2A23800  27.545   9.778   8.250
 4976POPC   C3A23801  27.614   9.752   7.950
 4976POPC   C4A23802  27.612   9.711   7.650
 4976POPC   C1B23803  27.654   9.523   8.550
 4976POPC   C2B23804  27.663   9.486   8.250
 4976POPC   C3B23805  27.720   9.522   7.950
 4976POPC   C4B23806  27.642   9.556   7.650
 4977POPC   NC323807   1.991  15.131   9.450
 4977POPC   PO423808   1.991  15.183   9.150
 4977POPC   GL123809   1.989  15.210   8.850
 4977POPC   GL223810   2.131  15.284   8.850
 4977POPC   C1A23811   1.941  15.199   8.550
 4977POPC   D2A23812   1.964  15.154   8.250
 4977POPC   C3A23813   1.945  15.170   7.950
 4977POPC   C4A23814   1.997  15.183   7.650
 4977POPC   C1B23815   2.198  15.316   8.550
 4977POPC   C2B23816   2.154  15.350   8.250
 4977POPC   C3B23817   2.161  15.325   7.950
 4977POPC   C4B23818   2.249  15.287   7.650
 4978POPC   NC323819  13.606  10.547   9.450
 4978POPC   PO423820  13.597  10.560   9.150
 4978POPC   GL123821  13.620  10.485   8.850
 4978POPC   GL223822  13.694  10.667   8.850
 4978POPC   C1A23823  13.614  10.542   8.550
 4978POPC   D2A23824  13.650  10.559   8.250
 4978POPC   C3A23825  13.592  10.556   7.950
 4978POPC   C4A23826  13.643  10.504   7.650
 4978POPC   C1B23827  13.717  10.801   8.550
 4978POPC   C2B23828  13.772  10.728   8.250
 4978POPC   C3B23829  13.758  10.743   7.950
 4978POPC   C4B23830  13.749  10.783   7.650
 4979POPC   NC323831  40.023  24.480   9.450
 4979POPC   PO423832  40.023  24.467   9.150
 4979POPC   GL123833  39.988  24.481   8.850
 4979POPC   GL223834  40.157  24.527   8.850
 4979POPC   C1A23835  40.035  24.444   8.550
 4979POPC   D2A23836  40.007  24.458   8.250
 4979POPC   C3A23837  39.993  24.451   7.950
 4979POPC   C4A23838  39.981  24.442   7.650
 4979POPC   C1B23839  40.211  24.576   8.550
 4979POPC   C2B23840  40.235  24.537   8.250
 4979POPC   C3B23841  40.196  24.525   7.950
 4979POPC   C4B23842  40.194  24.579   7.650
 4980POPC   NC323843  29.188  22.912   9.450
 4980POPC   PO423844  29.113  22.966   9.150
 4980POPC   GL123845  29.143  22.979   8.850
 4980POPC   GL223846  29.279  22.984   8.850
 4980POPC   C1A23847  29.171  22.902   8.550
 4980POPC   D2A23848  29.142  22.925   8.250
 4980POPC   C3A23849  29.181  22.987   7.950
 4980POPC   C4A23850  29.146  22.986   7.650
 4980POPC   C1B23851  29.360  23.025   8.550
 4980POPC   C2B23852  29.373  22.986   8.250
 4980POPC   C3B23853  29.422  22.974   7.950
 4980POPC   C4B23854  29.383  23.020   7.650
 4981POPC   NC323855  22.146  32.212   9.450
 4981POPC   PO423856  22.200  32.207   9.150
 4981POPC   GL123857  22.211  32.212   8.850
 4981POPC   GL223858  22.215  32.325   8.850
 4981POPC   C1A23859  22.166  32.277   8.550
 4981POPC   D2A23860  22.210  32.290   8.250
 4981POPC   C3A23861  22.208  32.240   7.950
 4981POPC   C4A23862  22.200  32.261   7.650
 4981POPC   C1B23863  22.379  32.463   8.550
 4981POPC   C2B23864  22.338  32.419   8.250
 4981POPC   C3B23865  22.338  32.437   7.950
 4981POPC   C4B23866  22.342  32.454   7.650
 4982POPC   NC323867   2.799  43.905   9.450
 4982POPC   PO423868   2.768  43.841   9.150
 4982POPC   GL123869   2.783  43.906   8.850
 4982POPC   GL223870   2.615  43.829   8.850
 4982POPC   C1A23871   2.733  43.915   8.550
 4982POPC   D2A23872   2.728  43.854   8.250
 4982POPC   C3A23873   2.731  43.894   7.950
 4982POPC   C4A23874   2.755  43.888   7.650
 4982POPC   C1B23875   2.499  43.872   8.550
 4982POPC   C2B23876   2.481  43.821   8.250
 4982POPC   C3B23877   2.500  43.851   7.950
 4982POPC   C4B23878   2.569  43.852   7.650
 4983POPC   NC323879  26.801  22.916   9.450
 4983POPC   PO423880  26.852  22.983   9.150
 4983POPC   GL123881  26.852  22.928   8.850
 4983POPC   GL223882  26.760  23.062   8.850
 4983POPC   C1A23883  26.843  22.987   8.550
 4983POPC   D2A23884  26.814  22.946   8.250
 4983POPC   C3A23885  26.825  22.907   7.950
 4983POPC   C4A23886  26.781  22.929   7.650
 4983POPC   C1B23887  26.760  23.137   8.550
 4983POPC   C2B23888  26.772  23.195   8.250
 4983POPC   C3B23889  26.739  23.198   7.950
 4983POPC   C4B23890  26.722  23.133   7.650
 4984POPC   NC323891  26.861  16.725   9.450
 4984POPC   PO423892  26.778  16.754   9.150
 4984POPC   GL123893  26.819  16.771   8.850
 4984POPC   GL223894  26.733  16.730   8.850
 4984POPC   C1A23895  26.816  16.685   8.550
 4984POPC   D2A23896  26.827  16.690   8.250
 4984POPC   C3A23897  26.840  16.753   7.950
 4984POPC   C4A23898  26.770  16.685   7.650
 4984POPC   C1B23899  26.557  16.788   8.550
 4984POPC   C2B23900  26.585  16.862   8.250
 4984POPC   C3B23901  26.548  16.795   7.950
 4984POPC   C4B23902  26.543  16.770   7.650
 4985POPC   NC323903  34.583  37.658   9.450
 4985POPC   PO423904  34.588  37.681   9.150
 4985POPC   GL123905  34.615  37.683   8.850
 4985POPC   GL223906  34.578  37.777   8.850
 4985POPC   C1A23907  34.558  37.689   8.550
 4985POPC   D2A23908  34.567  37.702   8.250
 4985POPC   C3A23909  34.558  37.704   7.950
 4985POPC   C4A23910  34.619  37.697   7.650
 4985POPC   C1B23911  34.465  37.949   8.550
 4985POPC   C2B23912  34.482  37.884   8.250
 4985POPC   C3B23913  34.458  37.954   7.950
 4985POPC   C4B23914  34.511  37.904   7.650
 4986POPC   NC323915   1.248  27.620   9.450
 4986POPC   PO423916   1.241  27.628   9.150
 4986POPC   GL123917   1.227  27.562   8.850
 4986POPC   GL223918   1.134  27.689   8.850
 4986POPC   C1A23919   1.227  27.603   8.550
 4986POPC   D2A23920   1.200  27.581   8.250
 4986POPC   C3A23921   1.256  27.580   7.950
 4986POPC   C4A23922   1.205  27.565   7.650
 4986POPC   C1B23923   1.052  27.836   8.550
 4986POPC   C2B23924   1.125  27.806   8.250
 4986POPC   C3B23925   1.052  27.831   7.950
 4986POPC   C4B23926   1.070  27.781   7.650
 4987POPC   NC323927  44.612  39.281   9.450
 4987POPC   PO423928  44.674  39.270   9.150
 4987POPC   GL123929  44.677  39.237   8.850
 4987POPC   GL223930  44.761  39.148   8.850
 4987POPC   C1A23931  44.635  39.268   8.550
 4987POPC   D2A23932  44.619  39.279   8.250
 4987POPC   C3A23933  44.619  39.228   7.950
 4987POPC   C4A23934  44.641  39.250   7.650
 4987POPC   C1B23935  44.936  39.161   8.550
 4987POPC   C2B23936  44.883  39.150   8.250
 4987POPC   C3B23937  44.878  39.094   7.950
 4987POPC   C4B23938  44.897  39.088   7.650
 4988POPC   NC323939  37.647  19.062   9.450
 4988POPC   PO423940  37.636  19.092   9.150
 4988POPC   GL123941  37.681  19.060   8.850
 4988POPC   GL223942  37.629  18.991   8.850
 4988POPC   C1A23943  37.676  19.012   8.550
 4988POPC   D2A23944  37.704  19.073   8.250
 4988POPC   C3A23945  37.650  19.099   7.950
 4988POPC   C4A23946  37.659  19.033   7.650
 4988POPC   C1B23947  37.577  18.861   8.550
 4988POPC   C2B23948  37.544  18.865   8.250
 4988POPC   C3B23949  37.552  18.857   7.950
 4988POPC   C4B23950  37.508  18.896   7.650
 4989POPC   NC323951  19.799  16.748   9.450
 4989POPC   PO423952  19.837  16.701   9.150
 4989POPC   GL123953  19.822  16.751   8.850
 4989POPC   GL223954  19.698  16.763   8.850
 4989POPC   C1A23955  19.798  16.772   8.550
 4989POPC   D2A23956  19.807  16.688   8.250
 4989POPC   C3A23957  19.799  16.754   7.950
 4989POPC   C4A23958  19.819  16.749   7.650
 4989POPC   C1B23959  19.571  16.739   8.550
 4989POPC   C2B23960  19.535  16.718   8.250
 4989POPC   C3B23961  19.631  16.773   7.950
 4989POPC   C4B23962  19.634  16.752   7.650
 4990POPC   NC323963  33.822  16.763   9.450
 4990POPC   PO423964  33.791  16.764   9.150
 4990POPC   GL123965  33.761  16.749   8.850
 4990POPC   GL223966  33.917  16.748   8.850
 4990POPC   C1A23967  33.850  16.737   8.550
 4990POPC   D2A23968  33.763  16.723   8.250
 4990POPC   C3A23969  33.849  16.736   7.950
 4990POPC   C4A23970  33.792  16.765   7.650
 4990POPC   C1B23971  34.040  16.813   8.550
 4990POPC   C2B23972  34.061  16.804   8.250
 4990POPC   C3B23973  34.015  16.811   7.950
 4990POPC   C4B23974  33.996  16.890   7.650
 4991POPC   NC323975   6.676  29.937   9.450
 4991POPC   PO423976   6.688  29.878   9.150
 4991POPC   GL123977   6.633  29.966   8.850
 4991POPC   GL223978   6.811  29.953   8.850
 4991POPC   C1A23979   6.607  29.938   8.550
 4991POPC   D2A23980   6.616  29.948   8.250
 4991POPC   C3A23981   6.687  29.946   7.950
 4991POPC   C4A23982   6.647  29.958   7.650
 4991POPC   C1B23983   6.907  30.022   8.550
 4991POPC   C2B23984   6.865  29.970   8.250
 4991POPC   C3B23985   6.880  29.968   7.950
 4991POPC   C4B23986   6.885  30.022   7.650
 4992POPC   NC323987  27.609  15.163   9.450
 4992POPC   PO423988  27.624  15.197   9.150
 4992POPC   GL123989  27.625  15.217   8.850
 4992POPC   GL223990  27.695  15.266   8.850
 4992POPC   C1A23991  27.600  15.214   8.550
 4992POPC   D2A23992  27.575  15.217   8.250
 4992POPC   C3A23993  27.571  15.160   7.950
 4992POPC   C4A23994  27.619  15.164   7.650
 4992POPC   C1B23995  27.853  15.335   8.550
 4992POPC   C2B23996  27.807  15.325   8.250
 4992POPC   C3B23997  27.844  15.258   7.950
 4992POPC   C4B23998  27.798  15.338   7.650
 4993POPC   NC323999   8.208  29.953   9.450
 4993POPC   PO424000   8.228  29.946   9.150
 4993POPC   GL124001   8.192  29.892   8.850
 4993POPC   GL224002   8.311  29.961   8.850
 4993POPC   C1A24003   8.147  29.918   8.550
 4993POPC   D2A24004   8.201  29.879   8.250
 4993POPC   C3A24005   8.243  29.898   7.950
 4993POPC   C4A24006   8.229  29.871   7.650
 4993POPC   C1B24007   8.403  29.927   8.550
 4993POPC   C2B24008   8.403  29.901   8.250
 4993POPC   C3B24009   8.441  29.946   7.950
 4993POPC   C4B24010   8.465  29.876   7.650
 4994POPC   NC324011  12.900   9.721   9.450
 4994POPC   PO424012  12.857   9.785   9.150
 4994POPC   GL124013  12.806   9.725   8.850
 4994POPC   GL224014  12.703   9.721   8.850
 4994POPC   C1A24015  12.854   9.762   8.550
 4994POPC   D2A24016  12.854   9.718   8.250
 4994POPC   C3A24017  12.856   9.774   7.950
 4994POPC   C4A24018  12.899   9.787   7.650
 4994POPC   C1B24019  12.665   9.618   8.550
 4994POPC   C2B24020  12.679   9.653   8.250
 4994POPC   C3B24021  12.662   9.636   7.950
 4994POPC   C4B24022  12.622   9.661   7.650
 4995POPC   NC324023  26.003  33.015   9.450
 4995POPC   PO424024  26.018  33.018   9.150
 4995POPC   GL124025  26.085  33.069   8.850
 4995POPC   GL224026  26.095  33.078   8.850
 4995POPC   C1A24027  25.995  33.013   8.550
 4995POPC   D2A24028  26.004  32.998   8.250
 4995POPC   C3A24029  26.017  33.002   7.950
 4995POPC   C4A24030  26.048  33.001   7.650
 4995POPC   C1B24031  26.220  33.227   8.550
 4995POPC   C2B24032  26.236  33.176   8.250
 4995POPC   C3B24033  26.215  33.171   7.950
 4995POPC   C4B24034  26.176  33.182   7.650
 4996POPC   NC324035   5.137  27.553   9.450
 4996POPC   PO424036   5.080  27.631   9.150
 4996POPC   GL124037   5.073  27.553   8.850
 4996POPC   GL224038   5.042  27.698   8.850
 4996POPC   C1A24039   5.125  27.573   8.550
 4996POPC   D2A24040   5.086  27.566   8.250
 4996POPC   C3A24041   5.054  27.619   7.950
 4996POPC   C4A24042   5.056  27.551   7.650
 4996POPC   C1B24043   4.996  27.831   8.550
 4996POPC   C2B24044   4.984  27.857   8.250
 4996POPC   C3B24045   5.020  27.851   7.950
 4996POPC   C4B24046   4.923  27.845   7.650
 4997POPC   NC324047  22.950  26.026   9.450
 4997POPC   PO424048  22.944  26.059   9.150
 4997POPC   GL124049  22.975  26.058   8.850
 4997POPC   GL224050  23.019  25.994   8.850
 4997POPC   C1A24051  22.951  26.020   8.550
 4997POPC   D2A24052  22.938  26.024   8.250
 4997POPC   C3A24053  22.973  26.036   7.950
 4997POPC   C4A24054  22.901  26.033   7.650
 4997POPC   C1B24055  23.176  25.936   8.550
 4997POPC   C2B24056  23.188  25.861   8.250
 4997POPC   C3B24057  23.184  25.878   7.950
 4997POPC   C4B24058  23.129  25.904   7.650
 4998POPC   NC324059  15.968  43.131   9.450
 4998POPC   PO424060  15.924  43.099   9.150
 4998POPC   GL124061  15.953  43.061   8.850
 4998POPC   GL224062  15.892  42.997   8.850
 4998POPC   C1A24063  15.957  43.061   8.550
 4998POPC   D2A24064  15.908  43.160   8.250
 4998POPC   C3A24065  15.987  43.092   7.950
 4998POPC   C4A24066  15.993  43.105   7.650
 4998POPC   C1B24067  15.758  42.954   8.550
 4998POPC   C2B24068  15.816  42.893   8.250
 4998POPC   C3B24069  15.800  42.863   7.950
 4998POPC   C4B24070  15.827  42.944   7.650
 4999POPC   NC324071  41.525   5.078   9.450
 4999POPC   PO424072  41.510   5.062   9.150
 4999POPC   GL124073  41.572   5.106   8.850
 4999POPC   GL224074  41.657   5.111   8.850
 4999POPC   C1A24075  41.523   5.126   8.550
 4999POPC   D2A24076  41.580   5.058   8.250
 4999POPC   C3A24077  41.510   5.123   7.950
 4999POPC   C4A24078  41.534   5.060   7.650
 4999POPC   C1B24079  41.796   5.040   8.550
 4999POPC   C2B24080  41.852   5.028   8.250
 4999POPC   C3B24081  41.819   5.029   7.950
 4999POPC   C4B24082  41.783   5.091   7.650
 5000POPC   NC324083  20.570  37.641   9.450
 5000POPC   PO424084  20.601  37.686   9.150
 5000POPC   GL124085  20.628  37.681   8.850
 5000POPC   GL224086  20.503  37.590   8.850
 5000POPC   C1A24087  20.567  37.727   8.550
 5000POPC   D2A24088  20.565  37.693   8.250
 5000POPC   C3A24089  20.615  37.647   7.950
 5000POPC   C4A24090  20.565  37.706   7.650
 5000POPC   C1B24091  20.375  37.557   8.550
 5000POPC   C2B24092  20.380  37.547   8.250
 5000POPC   C3B24093  20.363  37.586   7.950
 5000POPC   C4B24094  20.363  37.551   7.650
 5001POPC   NC324095  14.410   8.221   9.450
 5001POPC   PO424096  14.434   8.246   9.150
 5001POPC   GL124097  14.380   8.192   8.850
 5001POPC   GL224098  14.347   8.334   8.850
 5001POPC   C1A24099  14.407   8.198   8.550
 5001POPC   D2A24100  14.408   8.204   8.250
 5001POPC   C3A24101  14.432   8.245   7.950
 5001POPC   C4A24102  14.380   8.234   7.650
 5001POPC   C1B24103  14.347   8.428   8.550
 5001POPC   C2B24104  14.348   8.448   8.250
 5001POPC   C3B24105  14.285   8.399   7.950
 5001POPC   C4B24106  14.344   8.430   7.650
 5002POPC   NC324107   5.916  14.359   9.450
 5002POPC   PO424108   5.865  14.404   9.150
 5002POPC   GL124109   5.831  14.426   8.850
 5002POPC   GL224110   5.796  14.256   8.850
 5002POPC   C1A24111   5.829  14.375   8.550
 5002POPC   D2A24112   5.855  14.384   8.250
 5002POPC   C3A24113   5.863  14.380   7.950
 5002POPC   C4A24114   5.839  14.402   7.650
 5002POPC   C1B24115   5.766  14.194   8.550
 5002POPC   C2B24116   5.750  14.176   8.250
 5002POPC   C3B24117   5.747  14.162   7.950
 5002POPC   C4B24118   5.756  14.157   7.650
 5003POPC   NC324119  14.424  19.880   9.450
 5003POPC   PO424120  14.433  19.827   9.150
 5003POPC   GL124121  14.382  19.790   8.850
 5003POPC   GL224122  14.296  19.738   8.850
 5003POPC   C1A24123  14.378  19.810   8.550
 5003POPC   D2A24124  14.394  19.878   8.250
 5003POPC   C3A24125  14.396  19.829   7.950
 5003POPC   C4A24126  14.447  19.820   7.650
 5003POPC   C1B24127  14.203  19.654   8.550
 5003POPC   C2B24128  14.206  19.611   8.250
 5003POPC   C3B24129  14.193  19.619   7.950
 5003POPC   C4B24130  14.198  19.617   7.650
 5004POPC   NC324131  13.597   5.133   9.450
 5004POPC   PO424132  13.676   5.117   9.150
 5004POPC   GL124133  13.649   5.044   8.850
 5004POPC   GL224134  13.509   5.217   8.850
 5004POPC   C1A24135  13.666   5.079   8.550
 5004POPC   D2A24136  13.614   5.114   8.250
 5004POPC   C3A24137  13.619   5.064   7.950
 5004POPC   C4A24138  13.636   5.092   7.650
 5004POPC   C1B24139  13.525   5.286   8.550
 5004POPC   C2B24140  13.532   5.307   8.250
 5004POPC   C3B24141  13.467   5.311   7.950
 5004POPC   C4B24142  13.497   5.323   7.650
 5005POPC   NC324143  23.693  15.152   9.450
 5005POPC   PO424144  23.672  15.198   9.150
 5005POPC   GL124145  23.700  15.172   8.850
 5005POPC   GL224146  23.798  15.132   8.850
 5005POPC   C1A24147  23.706  15.196   8.550
 5005POPC   D2A24148  23.680  15.195   8.250
 5005POPC   C3A24149  23.743  15.181   7.950
 5005POPC   C4A24150  23.683  15.203   7.650
 5005POPC   C1B24151  23.900  14.993   8.550
 5005POPC   C2B24152  23.922  14.992   8.250
 5005POPC   C3B24153  23.867  15.011   7.950
 5005POPC   C4B24154  23.880  15.019   7.650
 5006POPC   NC324155  18.269  33.817   9.450
 5006POPC   PO424156  18.300  33.846   9.150
 5006POPC   GL124157  18.252  33.808   8.850
 5006POPC   GL224158  18.415  33.803   8.850
 5006POPC   C1A24159  18.293  33.847   8.550
 5006POPC   D2A24160  18.241  33.840   8.250
 5006POPC   C3A24161  18.278  33.753   7.950
 5006POPC   C4A24162  18.250  33.801   7.650
 5006POPC   C1B24163  18.572  33.758   8.550
 5006POPC   C2B24164  18.526  33.809   8.250
 5006POPC   C3B24165  18.494  33.734   7.950
 5006POPC   C4B24166  18.561  33.744   7.650
 5007POPC   NC324167   5.858  12.080   9.450
 5007POPC   PO424168   5.885  12.071   9.150
 5007POPC   GL124169   5.870  12.043   8.850
 5007POPC   GL224170   5.773  12.129   8.850
 5007POPC   C1A24171   5.862  12.034   8.550
 5007POPC   D2A24172   5.827  12.081   8.250
 5007POPC   C3A24173   5.833  12.040   7.950
 5007POPC   C4A24174   5.823  12.084   7.650
 5007POPC   C1B24175   5.616  12.171   8.550
 5007POPC   C2B24176   5.683  12.198   8.250
 5007POPC   C3B24177   5.625  12.251   7.950
 5007POPC   C4B24178   5.665  12.245   7.650
 5008POPC   NC324179  44.693   5.083   9.450
 5008POPC   PO424180  44.657   5.090   9.150
 5008POPC   GL124181  44.663   5.102   8.850
 5008POPC   GL224182  44.828   5.093   8.850
 5008POPC   C1A24183  44.692   5.043   8.550
 5008POPC   D2A24184  44.695   5.112   8.250
 5008POPC   C3A24185  44.677   5.083   7.950
 5008POPC   C4A24186  44.700   5.059   7.650
 5008POPC   C1B24187  44.954   5.094   8.550
 5008POPC   C2B24188  44.873   5.061   8.250
 5008POPC   C3B24189  44.934   5.064   7.950
 5008POPC   C4B24190  44.897   5.135   7.650
 5009POPC   NC324191   6.677   5.916   9.450
 5009POPC   PO424192   6.675   5.867   9.150
 5009POPC   GL124193   6.638   5.839   8.850
 5009POPC   GL224194   6.547   5.998   8.850
 5009POPC   C1A24195   6.638   5.888   8.550
 5009POPC   D2A24196   6.628   5.859   8.250
 5009POPC   C3A24197   6.625   5.903   7.950
 5009POPC   C4A24198   6.614   5.896   7.650
 5009POPC   C1B24199   6.562   6.101   8.550
 5009POPC   C2B24200   6.506   6.114   8.250
 5009POPC   C3B24201   6.472   6.083   7.950
 5009POPC   C4B24202   6.545   6.052   7.650
 5010POPC   NC324203  40.793  36.144   9.450
 5010POPC   PO424204  40.771  36.152   9.150
 5010POPC   GL124205  40.779  36.123   8.850
 5010POPC   GL224206  40.721  35.970   8.850
 5010POPC   C1A24207  40.788  36.099   8.550
 5010POPC   D2A24208  40.828  36.092   8.250
 5010POPC   C3A24209  40.780  36.090   7.950
 5010POPC   C4A24210  40.752  36.117   7.650
 5010POPC   C1B24211  40.630  35.881   8.550
 5010POPC   C2B24212  40.689  35.881   8.250
 5010POPC   C3B24213  40.627  35.858   7.950
 5010POPC   C4B24214  40.711  35.884   7.650
 5011POPC   NC324215  17.509  34.601   9.450
 5011POPC   PO424216  17.496  34.593   9.150
 5011POPC   GL124217  17.516  34.603   8.850
 5011POPC   GL224218  17.606  34.449   8.850
 5011POPC   C1A24219  17.545  34.534   8.550
 5011POPC   D2A24220  17.498  34.590   8.250
 5011POPC   C3A24221  17.496  34.551   7.950
 5011POPC   C4A24222  17.500  34.607   7.650
 5011POPC   C1B24223  17.705  34.368   8.550
 5011POPC   C2B24224  17.685  34.438   8.250
 5011POPC   C3B24225  17.647  34.394   7.950
 5011POPC   C4B24226  17.716  34.419   7.650
 5012POPC   NC324227  19.843  35.313   9.450
 5012POPC   PO424228  19.866  35.346   9.150
 5012POPC   GL124229  19.854  35.314   8.850
 5012POPC   GL224230  19.947  35.245   8.850
 5012POPC   C1A24231  19.810  35.337   8.550
 5012POPC   D2A24232  19.823  35.383   8.250
 5012POPC   C3A24233  19.790  35.359   7.950
 5012POPC   C4A24234  19.862  35.402   7.650
 5012POPC   C1B24235  20.040  35.236   8.550
 5012POPC   C2B24236  20.055  35.233   8.250
 5012POPC   C3B24237  20.006  35.248   7.950
 5012POPC   C4B24238  20.043  35.242   7.650
 5013POPC   NC324239  40.022  10.542   9.450
 5013POPC   PO424240  39.963  10.554   9.150
 5013POPC   GL124241  40.001  10.529   8.850
 5013POPC   GL224242  39.858  10.448   8.850
 5013POPC   C1A24243  40.038  10.550   8.550
 5013POPC   D2A24244  40.033  10.516   8.250
 5013POPC   C3A24245  40.057  10.503   7.950
 5013POPC   C4A24246  40.004  10.565   7.650
 5013POPC   C1B24247  39.832  10.336   8.550
 5013POPC   C2B24248  39.821  10.347   8.250
 5013POPC   C3B24249  39.821  10.424   7.950
 5013POPC   C4B24250  39.813  10.415   7.650
 5014POPC   NC324251  40.039  26.090   9.450
 5014POPC   PO424252  40.014  26.048   9.150
 5014POPC   GL124253  40.027  26.021   8.850
 5014POPC   GL224254  40.121  26.122   8.850
 5014POPC   C1A24255  39.974  26.038   8.550
 5014POPC   D2A24256  40.001  26.030   8.250
 5014POPC   C3A24257  40.037  26.005   7.950
 5014POPC   C4A24258  40.043  26.073   7.650
 5014POPC   C1B24259  40.250  26.225   8.550
 5014POPC   C2B24260  40.260  26.136   8.250
 5014POPC   C3B24261  40.186  26.172   7.950
 5014POPC   C4B24262  40.258  26.145   7.650
 5015POPC   NC324263  43.107  20.636   9.450
 5015POPC   PO424264  43.109  20.588   9.150
 5015POPC   GL124265  43.158  20.614   8.850
 5015POPC   GL224266  43.068  20.541   8.850
 5015POPC   C1A24267  43.136  20.647   8.550
 5015POPC   D2A24268  43.154  20.625   8.250
 5015POPC   C3A24269  43.119  20.621   7.950
 5015POPC   C4A24270  43.100  20.629   7.650
 5015POPC   C1B24271  43.036  20.342   8.550
 5015POPC   C2B24272  43.045  20.344   8.250
 5015POPC   C3B24273  42.975  20.406   7.950
 5015POPC   C4B24274  42.990  20.381   7.650
 5016POPC   NC324275  44.675   1.254   9.450
 5016POPC   PO424276  44.662   1.171   9.150
 5016POPC   GL124277  44.678   1.203   8.850
 5016POPC   GL224278  44.790   1.219   8.850
 5016POPC   C1A24279  44.656   1.174   8.550
 5016POPC   D2A24280  44.622   1.229   8.250
 5016POPC   C3A24281  44.623   1.192   7.950
 5016POPC   C4A24282  44.677   1.179   7.650
 5016POPC   C1B24283  44.870   1.182   8.550
 5016POPC   C2B24284  44.879   1.213   8.250
 5016POPC   C3B24285  44.935   1.214   7.950
 5016POPC   C4B24286  44.871   1.256   7.650
 5017POPC   NC324287  18.256   4.339   9.450
 5017POPC   PO424288  18.299   4.308   9.150
 5017POPC   GL124289  18.277   4.280   8.850
 5017POPC   GL224290  18.364   4.396   8.850
 5017POPC   C1A24291  18.301   4.348   8.550
 5017POPC   D2A24292  18.240   4.350   8.250
 5017POPC   C3A24293  18.259   4.301   7.950
 5017POPC   C4A24294  18.265   4.290   7.650
 5017POPC   C1B24295  18.507   4.367   8.550
 5017POPC   C2B24296  18.485   4.392   8.250
 5017POPC   C3B24297  18.547   4.456   7.950
 5017POPC   C4B24298  18.482   4.388   7.650
 5018POPC   NC324299  28.348  27.543   9.450
 5018POPC   PO424300  28.379  27.607   9.150
 5018POPC   GL124301  28.326  27.599   8.850
 5018POPC   GL224302  28.515  27.601   8.850
 5018POPC   C1A24303  28.408  27.631   8.550
 5018POPC   D2A24304  28.366  27.578   8.250
 5018POPC   C3A24305  28.389  27.545   7.950
 5018POPC   C4A24306  28.340  27.578   7.650
 5018POPC   C1B24307  28.648  27.671   8.550
 5018POPC   C2B24308  28.564  27.667   8.250
 5018POPC   C3B24309  28.558  27.693   7.950
 5018POPC   C4B24310  28.600  27.709   7.650
 5019POPC   NC324311  32.247  36.875   9.450
 5019POPC   PO424312  32.264  36.882   9.150
 5019POPC   GL124313  32.282  36.860   8.850
 5019POPC   GL224314  32.106  36.990   8.850
 5019POPC   C1A24315  32.218  36.924   8.550
 5019POPC   D2A24316  32.243  36.880   8.250
 5019POPC   C3A24317  32.224  36.909   7.950
 5019POPC   C4A24318  32.215  36.916   7.650
 5019POPC   C1B24319  32.005  37.014   8.550
 5019POPC   C2B24320  32.006  37.055   8.250
 5019POPC   C3B24321  32.070  36.987   7.950
 5019POPC   C4B24322  31.982  36.990   7.650
 5020POPC   NC324323  38.502  36.876   9.450
 5020POPC   PO424324  38.429  36.863   9.150
 5020POPC   GL124325  38.464  36.927   8.850
 5020POPC   GL224326  38.345  36.898   8.850
 5020POPC   C1A24327  38.460  36.857   8.550
 5020POPC   D2A24328  38.477  36.938   8.250
 5020POPC   C3A24329  38.466  36.906   7.950
 5020POPC   C4A24330  38.465  36.859   7.650
 5020POPC   C1B24331  38.222  37.007   8.550
 5020POPC   C2B24332  38.247  37.039   8.250
 5020POPC   C3B24333  38.244  36.967   7.950
 5020POPC   C4B24334  38.205  37.035   7.650
 5021POPC   NC324335  43.063   1.965   9.450
 5021POPC   PO424336  43.066   1.966   9.150
 5021POPC   GL124337  43.092   1.990   8.850
 5021POPC   GL224338  43.229   1.961   8.850
 5021POPC   C1A24339  43.103   2.016   8.550
 5021POPC   D2A24340  43.101   1.998   8.250
 5021POPC   C3A24341  43.157   2.012   7.950
 5021POPC   C4A24342  43.065   2.034   7.650
 5021POPC   C1B24343  43.334   1.893   8.550
 5021POPC   C2B24344  43.387   1.937   8.250
 5021POPC   C3B24345  43.290   1.844   7.950
 5021POPC   C4B24346  43.383   1.891   7.650
 5022POPC   NC324347  24.528  11.344   9.450
 5022POPC   PO424348  24.479  11.283   9.150
 5022POPC   GL124349  24.446  11.340   8.850
 5022POPC   GL224350  24.603  11.302   8.850
 5022POPC   C1A24351  24.515  11.292   8.550
 5022POPC   D2A24352  24.464  11.255   8.250
 5022POPC   C3A24353  24.474  11.264   7.950
 5022POPC   C4A24354  24.515  11.317   7.650
 5022POPC   C1B24355  24.757  11.272   8.550
 5022POPC   C2B24356  24.732  11.246   8.250
 5022POPC   C3B24357  24.697  11.264   7.950
 5022POPC   C4B24358  24.718  11.189   7.650
 5023POPC   NC324359  15.981  42.343   9.450
 5023POPC   PO424360  15.908  42.376   9.150
 5023POPC   GL124361  15.977  42.297   8.850
 5023POPC   GL224362  16.062  42.209   8.850
 5023POPC   C1A24363  15.979  42.315   8.550
 5023POPC   D2A24364  15.976  42.351   8.250
 5023POPC   C3A24365  15.908  42.371   7.950
 5023POPC   C4A24366  15.992  42.318   7.650
 5023POPC   C1B24367  16.070  42.121   8.550
 5023POPC   C2B24368  16.084  42.106   8.250
 5023POPC   C3B24369  16.041  42.145   7.950
 5023POPC   C4B24370  16.117  42.164   7.650
 5024POPC   NC324371  43.876  15.228   9.450
 5024POPC   PO424372  43.859  15.186   9.150
 5024POPC   GL124373  43.924  15.153   8.850
 5024POPC   GL224374  43.835  15.266   8.850
 5024POPC   C1A24375  43.896  15.224   8.550
 5024POPC   D2A24376  43.848  15.193   8.250
 5024POPC   C3A24377  43.841  15.147   7.950
 5024POPC   C4A24378  43.861  15.180   7.650
 5024POPC   C1B24379  43.765  15.380   8.550
 5024POPC   C2B24380  43.833  15.418   8.250
 5024POPC   C3B24381  43.808  15.438   7.950
 5024POPC   C4B24382  43.804  15.431   7.650
 5025POPC   NC324383  19.823  15.176   9.450
 5025POPC   PO424384  19.816  15.157   9.150
 5025POPC   GL124385  19.868  15.147   8.850
 5025POPC   GL224386  19.779  15.286   8.850
 5025POPC   C1A24387  19.872  15.161   8.550
 5025POPC   D2A24388  19.822  15.193   8.250
 5025POPC   C3A24389  19.862  15.150   7.950
 5025POPC   C4A24390  19.798  15.178   7.650
 5025POPC   C1B24391  19.783  15.431   8.550
 5025POPC   C2B24392  19.812  15.425   8.250
 5025POPC   C3B24393  19.761  15.387   7.950
 5025POPC   C4B24394  19.790  15.407   7.650
 5026POPC   NC324395   6.670  25.262   9.450
 5026POPC   PO424396   6.650  25.306   9.150
 5026POPC   GL124397   6.607  25.222   8.850
 5026POPC   GL224398   6.504  25.246   8.850
 5026POPC   C1A24399   6.655  25.263   8.550
 5026POPC   D2A24400   6.640  25.252   8.250
 5026POPC   C3A24401   6.600  25.250   7.950
 5026POPC   C4A24402   6.636  25.247   7.650
 5026POPC   C1B24403   6.362  25.204   8.550
 5026POPC   C2B24404   6.384  25.167   8.250
 5026POPC   C3B24405   6.370  25.160   7.950
 5026POPC   C4B24406   6.450  25.179   7.650
 5027POPC   NC324407  22.205   2.765   9.450
 5027POPC   PO424408  22.179   2.737   9.150
 5027POPC   GL124409  22.202   2.813   8.850
 5027POPC   GL224410  22.203   2.640   8.850
 5027POPC   C1A24411  22.202   2.758   8.550
 5027POPC   D2A24412  22.190   2.775   8.250
 5027POPC   C3A24413  22.186   2.720   7.950
 5027POPC   C4A24414  22.147   2.793   7.650
 5027POPC   C1B24415  22.180   2.483   8.550
 5027POPC   C2B24416  22.193   2.546   8.250
 5027POPC   C3B24417  22.139   2.479   7.950
 5027POPC   C4B24418  22.181   2.542   7.650
 5028POPC   NC324419  26.016   0.476   9.450
 5028POPC   PO424420  26.057   0.418   9.150
 5028POPC   GL124421  26.039   0.444   8.850
 5028POPC   GL224422  25.922   0.374   8.850
 5028POPC   C1A24423  26.020   0.419   8.550
 5028POPC   D2A24424  26.051   0.480   8.250
 5028POPC   C3A24425  26.043   0.407   7.950
 5028POPC   C4A24426  26.088   0.436   7.650
 5028POPC   C1B24427  25.795   0.342   8.550
 5028POPC   C2B24428  25.776   0.264   8.250
 5028POPC   C3B24429  25.863   0.332   7.950
 5028POPC   C4B24430  25.805   0.360   7.650
 5029POPC   NC324431  13.599  32.244   9.450
 5029POPC   PO424432  13.604  32.252   9.150
 5029POPC   GL124433  13.642  32.216   8.850
 5029POPC   GL224434  13.564  32.309   8.850
 5029POPC   C1A24435  13.631  32.257   8.550
 5029POPC   D2A24436  13.671  32.274   8.250
 5029POPC   C3A24437  13.670  32.277   7.950
 5029POPC   C4A24438  13.663  32.288   7.650
 5029POPC   C1B24439  13.405  32.363   8.550
 5029POPC   C2B24440  13.451  32.345   8.250
 5029POPC   C3B24441  13.427  32.337   7.950
 5029POPC   C4B24442  13.419  32.412   7.650
 5030POPC   NC324443  26.089  13.606   9.450
 5030POPC   PO424444  26.090  13.620   9.150
 5030POPC   GL124445  26.007  13.648   8.850
 5030POPC   GL224446  26.083  13.553   8.850
 5030POPC   C1A24447  26.072  13.603   8.550
 5030POPC   D2A24448  26.034  13.600   8.250
 5030POPC   C3A24449  26.038  13.629   7.950
 5030POPC   C4A24450  26.023  13.599   7.650
 5030POPC   C1B24451  26.191  13.407   8.550
 5030POPC   C2B24452  26.250  13.493   8.250
 5030POPC   C3B24453  26.198  13.427   7.950
 5030POPC   C4B24454  26.224  13.428   7.650
 5031POPC   NC324455  36.152  11.316   9.450
 5031POPC   PO424456  36.156  11.255   9.150
 5031POPC   GL124457  36.115  11.298   8.850
 5031POPC   GL224458  36.212  11.334   8.850
 5031POPC   C1A24459  36.099  11.333   8.550
 5031POPC   D2A24460  36.111  11.308   8.250
 5031POPC   C3A24461  36.110  11.259   7.950
 5031POPC   C4A24462  36.085  11.250   7.650
 5031POPC   C1B24463  36.380  11.303   8.550
 5031POPC   C2B24464  36.364  11.289   8.250
 5031POPC   C3B24465  36.405  11.373   7.950
 5031POPC   C4B24466  36.331  11.360   7.650
 5032POPC   NC324467  29.967  36.862   9.450
 5032POPC   PO424468  29.946  36.905   9.150
 5032POPC   GL124469  29.896  36.868   8.850
 5032POPC   GL224470  29.858  36.837   8.850
 5032POPC   C1A24471  29.971  36.872   8.550
 5032POPC   D2A24472  29.910  36.886   8.250
 5032POPC   C3A24473  29.872  36.925   7.950
 5032POPC   C4A24474  29.931  36.905   7.650
 5032POPC   C1B24475  29.732  36.711   8.550
 5032POPC   C2B24476  29.813  36.706   8.250
 5032POPC   C3B24477  29.740  36.657   7.950
 5032POPC   C4B24478  29.736  36.702   7.650
 5033POPC   NC324479  18.329  32.202   9.450
 5033POPC   PO424480  18.253  32.285   9.150
 5033POPC   GL124481  18.323  32.253   8.850
 5033POPC   GL224482  18.228  32.334   8.850
 5033POPC   C1A24483  18.286  32.233   8.550
 5033POPC   D2A24484  18.310  32.233   8.250
 5033POPC   C3A24485  18.327  32.297   7.950
 5033POPC   C4A24486  18.255  32.281   7.650
 5033POPC   C1B24487  18.223  32.457   8.550
 5033POPC   C2B24488  18.235  32.467   8.250
 5033POPC   C3B24489  18.239  32.496   7.950
 5033POPC   C4B24490  18.302  32.536   7.650
 5034POPC   NC324491  42.317  32.251   9.450
 5034POPC   PO424492  42.372  32.228   9.150
 5034POPC   GL124493  42.329  32.218   8.850
 5034POPC   GL224494  42.407  32.373   8.850
 5034POPC   C1A24495  42.331  32.250   8.550
 5034POPC   D2A24496  42.330  32.248   8.250
 5034POPC   C3A24497  42.320  32.199   7.950
 5034POPC   C4A24498  42.340  32.227   7.650
 5034POPC   C1B24499  42.407  32.513   8.550
 5034POPC   C2B24500  42.397  32.515   8.250
 5034POPC   C3B24501  42.468  32.522   7.950
 5034POPC   C4B24502  42.415  32.497   7.650
 5035POPC   NC324503   8.932  33.004   9.450
 5035POPC   PO424504   8.969  33.049   9.150
 5035POPC   GL124505   8.949  33.012   8.850
 5035POPC   GL224506   8.909  33.101   8.850
 5035POPC   C1A24507   8.988  32.992   8.550
 5035POPC   D2A24508   8.976  33.054   8.250
 5035POPC   C3A24509   8.974  33.057   7.950
 5035POPC   C4A24510   9.021  32.985   7.650
 5035POPC   C1B24511   8.793  33.157   8.550
 5035POPC   C2B24512   8.815  33.138   8.250
 5035POPC   C3B24513   8.743  33.223   7.950
 5035POPC   C4B24514   8.787  33.208   7.650
 5036POPC   NC324515  40.003  23.688   9.450
 5036POPC   PO424516  40.030  23.752   9.150
 5036POPC   GL124517  39.968  23.762   8.850
 5036POPC   GL224518  39.877  23.614   8.850
 5036POPC   C1A24519  39.998  23.754   8.550
 5036POPC   D2A24520  39.961  23.691   8.250
 5036POPC   C3A24521  40.003  23.702   7.950
 5036POPC   C4A24522  40.048  23.672   7.650
 5036POPC   C1B24523  39.848  23.569   8.550
 5036POPC   C2B24524  39.862  23.592   8.250
 5036POPC   C3B24525  39.838  23.506   7.950
 5036POPC   C4B24526  39.827  23.530   7.650
 5037POPC   NC324527  40.040  22.934   9.450
 5037POPC   PO424528  40.035  22.897   9.150
 5037POPC   GL124529  40.012  22.897   8.850
 5037POPC   GL224530  39.937  22.981   8.850
 5037POPC   C1A24531  40.006  22.889   8.550
 5037POPC   D2A24532  40.030  22.951   8.250
 5037POPC   C3A24533  39.997  22.912   7.950
 5037POPC   C4A24534  39.979  22.951   7.650
 5037POPC   C1B24535  39.742  23.068   8.550
 5037POPC   C2B24536  39.812  23.011   8.250
 5037POPC   C3B24537  39.824  23.057   7.950
 5037POPC   C4B24538  39.735  23.046   7.650
 5038POPC   NC324539  26.843   5.126   9.450
 5038POPC   PO424540  26.834   5.069   9.150
 5038POPC   GL124541  26.839   5.113   8.850
 5038POPC   GL224542  26.735   5.096   8.850
 5038POPC   C1A24543  26.770   5.080   8.550
 5038POPC   D2A24544  26.797   5.044   8.250
 5038POPC   C3A24545  26.789   5.125   7.950
 5038POPC   C4A24546  26.804   5.134   7.650
 5038POPC   C1B24547  26.623   5.018   8.550
 5038POPC   C2B24548  26.565   4.991   8.250
 5038POPC   C3B24549  26.565   4.994   7.950
 5038POPC   C4B24550  26.616   5.016   7.650
 5039POPC   NC324551  19.052  24.487   9.450
 5039POPC   PO424552  19.064  24.475   9.150
 5039POPC   GL124553  19.033  24.518   8.850
 5039POPC   GL224554  18.943  24.578   8.850
 5039POPC   C1A24555  19.062  24.446   8.550
 5039POPC   D2A24556  19.040  24.501   8.250
 5039POPC   C3A24557  19.064  24.491   7.950
 5039POPC   C4A24558  19.082  24.505   7.650
 5039POPC   C1B24559  18.922  24.642   8.550
 5039POPC   C2B24560  18.909  24.624   8.250
 5039POPC   C3B24561  18.904  24.643   7.950
 5039POPC   C4B24562  18.860  24.682   7.650
 5040POPC   NC324563  40.026  33.795   9.450
 5040POPC   PO424564  40.025  33.783   9.150
 5040POPC   GL124565  39.958  33.815   8.850
 5040POPC   GL224566  40.082  33.731   8.850
 5040POPC   C1A24567  40.020  33.787   8.550
 5040POPC   D2A24568  40.029  33.808   8.250
 5040POPC   C3A24569  40.039  33.830   7.950
 5040POPC   C4A24570  40.036  33.828   7.650
 5040POPC   C1B24571  40.241  33.681   8.550
 5040POPC   C2B24572  40.219  33.709   8.250
 5040POPC   C3B24573  40.262  33.693   7.950
 5040POPC   C4B24574  40.260  33.658   7.650
 5041POPC   NC324575  11.271  21.385   9.450
 5041POPC   PO424576  11.326  21.361   9.150
 5041POPC   GL124577  11.279  21.402   8.850
 5041POPC   GL224578  11.380  21.528   8.850
 5041POPC   C1A24579  11.318  21.343   8.550
 5041POPC   D2A24580  11.265  21.388   8.250
 5041POPC   C3A24581  11.319  21.367   7.950
 5041POPC   C4A24582  11.335  21.397   7.650
 5041POPC   C1B24583  11.391  21.593   8.550
 5041POPC   C2B24584  11.451  21.594   8.250
 5041POPC   C3B24585  11.394  21.586   7.950
 5041POPC   C4B24586  11.453  21.569   7.650
 5042POPC   NC324587  26.816   1.181   9.450
 5042POPC   PO424588  26.820   1.263   9.150
 5042POPC   GL124589  26.829   1.172   8.850
 5042POPC   GL224590  26.756   1.077   8.850
 5042POPC   C1A24591  26.804   1.201   8.550
 5042POPC   D2A24592  26.805   1.256   8.250
 5042POPC   C3A24593  26.807   1.238   7.950
 5042POPC   C4A24594  26.775   1.176   7.650
 5042POPC   C1B24595  26.733   0.959   8.550
 5042POPC   C2B24596  26.658   0.983   8.250
 5042POPC   C3B24597  26.697   0.971   7.950
 5042POPC   C4B24598  26.672   1.035   7.650
 5043POPC   NC324599  13.621  11.281   9.450
 5043POPC   PO424600  13.596  11.253   9.150
 5043POPC   GL124601  13.637  11.269   8.850
 5043POPC   GL224602  13.713  11.223   8.850
 5043POPC   C1A24603  13.593  11.272   8.550
 5043POPC   D2A24604  13.596  11.251   8.250
 5043POPC   C3A24605  13.591  11.340   7.950
 5043POPC   C4A24606  13.616  11.341   7.650
 5043POPC   C1B24607  13.884  11.165   8.550
 5043POPC   C2B24608  13.901  11.143   8.250
 5043POPC   C3B24609  13.849  11.238   7.950
 5043POPC   C4B24610  13.842  11.171   7.650
 5044POPC   NC324611  10.567  14.395   9.450
 5044POPC   PO424612  10.490  14.409   9.150
 5044POPC   GL124613  10.532  14.435   8.850
 5044POPC   GL224614  10.604  14.476   8.850
 5044POPC   C1A24615  10.502  14.401   8.550
 5044POPC   D2A24616  10.515  14.438   8.250
 5044POPC   C3A24617  10.515  14.379   7.950
 5044POPC   C4A24618  10.506  14.355   7.650
 5044POPC   C1B24619  10.781  14.479   8.550
 5044POPC   C2B24620  10.739  14.477   8.250
 5044POPC   C3B24621  10.741  14.424   7.950
 5044POPC   C4B24622  10.804  14.483   7.650
 5045POPC   NC324623  18.306  24.536   9.450
 5045POPC   PO424624  18.249  24.498   9.150
 5045POPC   GL124625  18.290  24.505   8.850
 5045POPC   GL224626  18.152  24.510   8.850
 5045POPC   C1A24627  18.244  24.502   8.550
 5045POPC   D2A24628  18.240  24.523   8.250
 5045POPC   C3A24629  18.321  24.446   7.950
 5045POPC   C4A24630  18.257  24.492   7.650
 5045POPC   C1B24631  18.009  24.551   8.550
 5045POPC   C2B24632  18.030  24.505   8.250
 5045POPC   C3B24633  18.034  24.579   7.950
 5045POPC   C4B24634  18.025  24.520   7.650
 5046POPC   NC324635  36.868  37.684   9.450
 5046POPC   PO424636  36.895  37.641   9.150
 5046POPC   GL124637  36.900  37.713   8.850
 5046POPC   GL224638  36.927  37.511   8.850
 5046POPC   C1A24639  36.868  37.692   8.550
 5046POPC   D2A24640  36.868  37.653   8.250
 5046POPC   C3A24641  36.921  37.688   7.950
 5046POPC   C4A24642  36.893  37.677   7.650
 5046POPC   C1B24643  36.886  37.456   8.550
 5046POPC   C2B24644  36.849  37.457   8.250
 5046POPC   C3B24645  36.853  37.421   7.950
 5046POPC   C4B24646  36.850  37.389   7.650
 5047POPC   NC324647  15.160   2.808   9.450
 5047POPC   PO424648  15.206   2.792   9.150
 5047POPC   GL124649  15.176   2.750   8.850
 5047POPC   GL224650  15.158   2.835   8.850
 5047POPC   C1A24651  15.224   2.813   8.550
 5047POPC   D2A24652  15.174   2.742   8.250
 5047POPC   C3A24653  15.217   2.759   7.950
 5047POPC   C4A24654  15.138   2.734   7.650
 5047POPC   C1B24655  15.104   2.989   8.550
 5047POPC   C2B24656  15.105   2.963   8.250
 5047POPC   C3B24657  15.096   2.960   7.950
 5047POPC   C4B24658  15.128   3.021   7.650
 5048POPC   NC324659   0.481  19.038   9.450
 5048POPC   PO424660   0.421  19.102   9.150
 5048POPC   GL124661   0.421  19.076   8.850
 5048POPC   GL224662   0.537  19.011   8.850
 5048POPC   C1A24663   0.422  19.014   8.550
 5048POPC   D2A24664   0.487  19.083   8.250
 5048POPC   C3A24665   0.394  19.009   7.950
 5048POPC   C4A24666   0.465  19.072   7.650
 5048POPC   C1B24667   0.681  18.964   8.550
 5048POPC   C2B24668   0.687  18.983   8.250
 5048POPC   C3B24669   0.650  18.964   7.950
 5048POPC   C4B24670   0.654  18.951   7.650
 5049POPC   NC324671   1.218  29.183   9.450
 5049POPC   PO424672   1.244  29.167   9.150
 5049POPC   GL124673   1.232  29.109   8.850
 5049POPC   GL224674   1.188  29.223   8.850
 5049POPC   C1A24675   1.237  29.155   8.550
 5049POPC   D2A24676   1.210  29.173   8.250
 5049POPC   C3A24677   1.227  29.175   7.950
 5049POPC   C4A24678   1.203  29.097   7.650
 5049POPC   C1B24679   1.179  29.414   8.550
 5049POPC   C2B24680   1.204  29.368   8.250
 5049POPC   C3B24681   1.253  29.360   7.950
 5049POPC   C4B24682   1.257  29.410   7.650
 5050POPC   NC324683   5.045  36.128   9.450
 5050POPC   PO424684   5.125  36.088   9.150
 5050POPC   GL124685   5.069  36.122   8.850
 5050POPC   GL224686   5.161  36.030   8.850
 5050POPC   C1A24687   5.138  36.150   8.550
 5050POPC   D2A24688   5.066  36.114   8.250
 5050POPC   C3A24689   5.121  36.173   7.950
 5050POPC   C4A24690   5.141  36.101   7.650
 5050POPC   C1B24691   5.239  35.961   8.550
 5050POPC   C2B24692   5.235  35.995   8.250
 5050POPC   C3B24693   5.276  35.922   7.950
 5050POPC   C4B24694   5.313  35.912   7.650
 5051POPC   NC324695   5.052  14.418   9.450
 5051POPC   PO424696   5.068  14.403   9.150
 5051POPC   GL124697   5.097  14.395   8.850
 5051POPC   GL224698   5.105  14.275   8.850
 5051POPC   C1A24699   5.108  14.397   8.550
 5051POPC   D2A24700   5.086  14.353   8.250
 5051POPC   C3A24701   5.096  14.405   7.950
 5051POPC   C4A24702   5.049  14.445   7.650
 5051POPC   C1B24703   5.065  14.113   8.550
 5051POPC   C2B24704   5.081  14.149   8.250
 5051POPC   C3B24705   5.080  14.187   7.950
 5051POPC   C4B24706   5.086  14.127   7.650
 5052POPC   NC324707   7.419  35.366   9.450
 5052POPC   PO424708   7.462  35.386   9.150
 5052POPC   GL124709   7.466  35.396   8.850
 5052POPC   GL224710   7.308  35.412   8.850
 5052POPC   C1A24711   7.431  35.394   8.550
 5052POPC   D2A24712   7.434  35.335   8.250
 5052POPC   C3A24713   7.398  35.394   7.950
 5052POPC   C4A24714   7.429  35.348   7.650
 5052POPC   C1B24715   7.174  35.390   8.550
 5052POPC   C2B24716   7.157  35.432   8.250
 5052POPC   C3B24717   7.213  35.420   7.950
 5052POPC   C4B24718   7.143  35.448   7.650
 5053POPC   NC324719   6.656  36.158   9.450
 5053POPC   PO424720   6.653  36.090   9.150
 5053POPC   GL124721   6.617  36.171   8.850
 5053POPC   GL224722   6.790  36.108   8.850
 5053POPC   C1A24723   6.635  36.172   8.550
 5053POPC   D2A24724   6.665  36.096   8.250
 5053POPC   C3A24725   6.662  36.137   7.950
 5053POPC   C4A24726   6.686  36.115   7.650
 5053POPC   C1B24727   6.873  35.970   8.550
 5053POPC   C2B24728   6.878  36.052   8.250
 5053POPC   C3B24729   6.855  36.013   7.950
 5053POPC   C4B24730   6.893  36.020   7.650
 5054POPC   NC324731   9.005  38.406   9.450
 5054POPC   PO424732   8.944  38.445   9.150
 5054POPC   GL124733   8.924  38.474   8.850
 5054POPC   GL224734   9.115  38.556   8.850
 5054POPC   C1A24735   8.977  38.459   8.550
 5054POPC   D2A24736   8.938  38.499   8.250
 5054POPC   C3A24737   8.984  38.491   7.950
 5054POPC   C4A24738   9.004  38.439   7.650
 5054POPC   C1B24739   9.205  38.598   8.550
 5054POPC   C2B24740   9.155  38.625   8.250
 5054POPC   C3B24741   9.184  38.602   7.950
 5054POPC   C4B24742   9.214  38.605   7.650
 5055POPC   NC324743   5.104  25.236   9.450
 5055POPC   PO424744   5.061  25.277   9.150
 5055POPC   GL124745   5.129  25.240   8.850
 5055POPC   GL224746   5.015  25.333   8.850
 5055POPC   C1A24747   5.094  25.254   8.550
 5055POPC   D2A24748   5.132  25.255   8.250
 5055POPC   C3A24749   5.126  25.217   7.950
 5055POPC   C4A24750   5.127  25.227   7.650
 5055POPC   C1B24751   4.984  25.507   8.550
 5055POPC   C2B24752   4.941  25.514   8.250
 5055POPC   C3B24753   5.013  25.503   7.950
 5055POPC   C4B24754   5.019  25.489   7.650
 5056POPC   NC324755  12.038   2.763   9.450
 5056POPC   PO424756  12.104   2.800   9.150
 5056POPC   GL124757  12.082   2.796   8.850
 5056POPC   GL224758  12.137   2.854   8.850
 5056POPC   C1A24759  12.103   2.734   8.550
 5056POPC   D2A24760  12.115   2.718   8.250
 5056POPC   C3A24761  12.063   2.764   7.950
 5056POPC   C4A24762  12.056   2.778   7.650
 5056POPC   C1B24763  12.275   2.917   8.550
 5056POPC   C2B24764  12.268   2.913   8.250
 5056POPC   C3B24765  12.316   2.896   7.950
 5056POPC   C4B24766  12.242   2.969   7.650
 5057POPC   NC324767  33.753  33.032   9.450
 5057POPC   PO424768  33.815  33.023   9.150
 5057POPC   GL124769  33.793  33.017   8.850
 5057POPC   GL224770  33.912  33.085   8.850
 5057POPC   C1A24771  33.813  33.071   8.550
 5057POPC   D2A24772  33.817  32.984   8.250
 5057POPC   C3A24773  33.757  33.071   7.950
 5057POPC   C4A24774  33.795  33.045   7.650
 5057POPC   C1B24775  33.996  33.104   8.550
 5057POPC   C2B24776  34.017  33.111   8.250
 5057POPC   C3B24777  33.998  33.143   7.950
 5057POPC   C4B24778  34.032  33.074   7.650
 5058POPC   NC324779  30.701  34.576   9.450
 5058POPC   PO424780  30.650  34.582   9.150
 5058POPC   GL124781  30.723  34.530   8.850
 5058POPC   GL224782  30.784  34.617   8.850
 5058POPC   C1A24783  30.717  34.553   8.550
 5058POPC   D2A24784  30.647  34.567   8.250
 5058POPC   C3A24785  30.679  34.596   7.950
 5058POPC   C4A24786  30.729  34.560   7.650
 5058POPC   C1B24787  30.923  34.670   8.550
 5058POPC   C2B24788  30.955  34.651   8.250
 5058POPC   C3B24789  30.904  34.702   7.950
 5058POPC   C4B24790  30.908  34.729   7.650
 5059POPC   NC324791  27.602  22.114   9.450
 5059POPC   PO424792  27.614  22.191   9.150
 5059POPC   GL124793  27.549  22.198   8.850
 5059POPC   GL224794  27.711  22.157   8.850
 5059POPC   C1A24795  27.589  22.140   8.550
 5059POPC   D2A24796  27.564  22.144   8.250
 5059POPC   C3A24797  27.617  22.154   7.950
 5059POPC   C4A24798  27.555  22.195   7.650
 5059POPC   C1B24799  27.812  22.230   8.550
 5059POPC   C2B24800  27.873  22.164   8.250
 5059POPC   C3B24801  27.815  22.173   7.950
 5059POPC   C4B24802  27.812  22.242   7.650
 5060POPC   NC324803  44.709  40.759   9.450
 5060POPC   PO424804  44.697  40.751   9.150
 5060POPC   GL124805  44.659  40.740   8.850
 5060POPC   GL224806  44.729  40.675   8.850
 5060POPC   C1A24807  44.694  40.770   8.550
 5060POPC   D2A24808  44.675  40.772   8.250
 5060POPC   C3A24809  44.629  40.818   7.950
 5060POPC   C4A24810  44.641  40.795   7.650
 5060POPC   C1B24811  44.828  40.607   8.550
 5060POPC   C2B24812  44.821  40.598   8.250
 5060POPC   C3B24813  44.815  40.540   7.950
 5060POPC   C4B24814  44.795  40.610   7.650
 5061POPC   NC324815  39.996  44.647   9.450
 5061POPC   PO424816  40.020  44.645   9.150
 5061POPC   GL124817  39.996  44.683   8.850
 5061POPC   GL224818  40.096  44.670   8.850
 5061POPC   C1A24819  40.030  44.667   8.550
 5061POPC   D2A24820  40.002  44.618   8.250
 5061POPC   C3A24821  39.984  44.656   7.950
 5061POPC   C4A24822  40.029  44.695   7.650
 5061POPC   C1B24823  40.209  44.652   8.550
 5061POPC   C2B24824  40.301  44.731   8.250
 5061POPC   C3B24825  40.243  44.698   7.950
 5061POPC   C4B24826  40.225  44.658   7.650
 5062POPC   NC324827  26.797  14.367   9.450
 5062POPC   PO424828  26.794  14.428   9.150
 5062POPC   GL124829  26.782  14.399   8.850
 5062POPC   GL224830  26.935  14.537   8.850
 5062POPC   C1A24831  26.841  14.394   8.550
 5062POPC   D2A24832  26.859  14.411   8.250
 5062POPC   C3A24833  26.833  14.435   7.950
 5062POPC   C4A24834  26.772  14.430   7.650
 5062POPC   C1B24835  26.986  14.593   8.550
 5062POPC   C2B24836  26.973  14.590   8.250
 5062POPC   C3B24837  27.008  14.540   7.950
 5062POPC   C4B24838  26.991  14.625   7.650
 5063POPC   NC324839  14.404   1.969   9.450
 5063POPC   PO424840  14.435   2.006   9.150
 5063POPC   GL124841  14.375   1.989   8.850
 5063POPC   GL224842  14.236   1.947   8.850
 5063POPC   C1A24843  14.373   1.950   8.550
 5063POPC   D2A24844  14.436   2.001   8.250
 5063POPC   C3A24845  14.400   1.975   7.950
 5063POPC   C4A24846  14.450   2.005   7.650
 5063POPC   C1B24847  14.135   1.936   8.550
 5063POPC   C2B24848  14.154   1.963   8.250
 5063POPC   C3B24849  14.145   2.004   7.950
 5063POPC   C4B24850  14.138   1.955   7.650
 5064POPC   NC324851  37.646  38.491   9.450
 5064POPC   PO424852  37.646  38.423   9.150
 5064POPC   GL124853  37.728  38.437   8.850
 5064POPC   GL224854  37.728  38.587   8.850
 5064POPC   C1A24855  37.700  38.434   8.550
 5064POPC   D2A24856  37.687  38.423   8.250
 5064POPC   C3A24857  37.713  38.487   7.950
 5064POPC   C4A24858  37.684  38.408   7.650
 5064POPC   C1B24859  37.720  38.710   8.550
 5064POPC   C2B24860  37.742  38.703   8.250
 5064POPC   C3B24861  37.707  38.701   7.950
 5064POPC   C4B24862  37.668  38.665   7.650
 5065POPC   NC324863   3.503  41.538   9.450
 5065POPC   PO424864   3.570  41.525   9.150
 5065POPC   GL124865   3.573  41.543   8.850
 5065POPC   GL224866   3.590  41.416   8.850
 5065POPC   C1A24867   3.542  41.589   8.550
 5065POPC   D2A24868   3.591  41.590   8.250
 5065POPC   C3A24869   3.549  41.559   7.950
 5065POPC   C4A24870   3.504  41.534   7.650
 5065POPC   C1B24871   3.587  41.321   8.550
 5065POPC   C2B24872   3.592  41.267   8.250
 5065POPC   C3B24873   3.602  41.268   7.950
 5065POPC   C4B24874   3.595  41.300   7.650
 5066POPC   NC324875  22.193  34.582   9.450
 5066POPC   PO424876  22.142  34.600   9.150
 5066POPC   GL124877  22.201  34.593   8.850
 5066POPC   GL224878  22.228  34.465   8.850
 5066POPC   C1A24879  22.118  34.613   8.550
 5066POPC   D2A24880  22.203  34.552   8.250
 5066POPC   C3A24881  22.117  34.620   7.950
 5066POPC   C4A24882  22.196  34.540   7.650
 5066POPC   C1B24883  22.337  34.407   8.550
 5066POPC   C2B24884  22.288  34.383   8.250
 5066POPC   C3B24885  22.300  34.397   7.950
 5066POPC   C4B24886  22.327  34.349   7.650
 5067POPC   NC324887  22.176  28.341   9.450
 5067POPC   PO424888  22.126  28.323   9.150
 5067POPC   GL124889  22.129  28.357   8.850
 5067POPC   GL224890  22.227  28.476   8.850
 5067POPC   C1A24891  22.171  28.379   8.550
 5067POPC   D2A24892  22.189  28.395   8.250
 5067POPC   C3A24893  22.187  28.384   7.950
 5067POPC   C4A24894  22.200  28.383   7.650
 5067POPC   C1B24895  22.313  28.541   8.550
 5067POPC   C2B24896  22.321  28.531   8.250
 5067POPC   C3B24897  22.361  28.561   7.950
 5067POPC   C4B24898  22.313  28.547   7.650
 5068POPC   NC324899   9.772  31.495   9.450
 5068POPC   PO424900   9.699  31.507   9.150
 5068POPC   GL124901   9.775  31.449   8.850
 5068POPC   GL224902   9.829  31.319   8.850
 5068POPC   C1A24903   9.794  31.484   8.550
 5068POPC   D2A24904   9.723  31.499   8.250
 5068POPC   C3A24905   9.736  31.443   7.950
 5068POPC   C4A24906   9.716  31.519   7.650
 5068POPC   C1B24907   9.787  31.203   8.550
 5068POPC   C2B24908   9.857  31.199   8.250
 5068POPC   C3B24909   9.818  31.227   7.950
 5068POPC   C4B24910   9.818  31.207   7.650
 5069POPC   NC324911  15.914  36.854   9.450
 5069POPC   PO424912  16.002  36.866   9.150
 5069POPC   GL124913  15.968  36.904   8.850
 5069POPC   GL224914  16.109  36.862   8.850
 5069POPC   C1A24915  15.999  36.925   8.550
 5069POPC   D2A24916  15.914  36.931   8.250
 5069POPC   C3A24917  15.911  36.923   7.950
 5069POPC   C4A24918  15.927  36.942   7.650
 5069POPC   C1B24919  16.238  36.785   8.550
 5069POPC   C2B24920  16.232  36.808   8.250
 5069POPC   C3B24921  16.221  36.796   7.950
 5069POPC   C4B24922  16.191  36.825   7.650
 5070POPC   NC324923  20.561   5.822   9.450
 5070POPC   PO424924  20.618   5.882   9.150
 5070POPC   GL124925  20.644   5.886   8.850
 5070POPC   GL224926  20.611   5.749   8.850
 5070POPC   C1A24927  20.641   5.888   8.550
 5070POPC   D2A24928  20.586   5.833   8.250
 5070POPC   C3A24929  20.637   5.883   7.950
 5070POPC   C4A24930  20.618   5.860   7.650
 5070POPC   C1B24931  20.626   5.655   8.550
 5070POPC   C2B24932  20.570   5.604   8.250
 5070POPC   C3B24933  20.546   5.670   7.950
 5070POPC   C4B24934  20.628   5.605   7.650
 5071POPC   NC324935  42.293  36.864   9.450
 5071POPC   PO424936  42.357  36.891   9.150
 5071POPC   GL124937  42.338  36.936   8.850
 5071POPC   GL224938  42.381  36.978   8.850
 5071POPC   C1A24939  42.310  36.887   8.550
 5071POPC   D2A24940  42.286  36.901   8.250
 5071POPC   C3A24941  42.356  36.894   7.950
 5071POPC   C4A24942  42.372  36.944   7.650
 5071POPC   C1B24943  42.414  37.127   8.550
 5071POPC   C2B24944  42.376  37.093   8.250
 5071POPC   C3B24945  42.397  37.108   7.950
 5071POPC   C4B24946  42.391  37.118   7.650
 5072POPC   NC324947  13.624  22.900   9.450
 5072POPC   PO424948  13.622  22.925   9.150
 5072POPC   GL124949  13.615  22.984   8.850
 5072POPC   GL224950  13.693  22.782   8.850
 5072POPC   C1A24951  13.641  22.933   8.550
 5072POPC   D2A24952  13.635  22.953   8.250
 5072POPC   C3A24953  13.639  22.915   7.950
 5072POPC   C4A24954  13.669  22.966   7.650
 5072POPC   C1B24955  13.649  22.696   8.550
 5072POPC   C2B24956  13.687  22.660   8.250
 5072POPC   C3B24957  13.656  22.723   7.950
 5072POPC   C4B24958  13.647  22.690   7.650
 5073POPC   NC324959  10.520   8.170   9.450
 5073POPC   PO424960  10.542   8.187   9.150
 5073POPC   GL124961  10.530   8.195   8.850
 5073POPC   GL224962  10.437   8.209   8.850
 5073POPC   C1A24963  10.542   8.151   8.550
 5073POPC   D2A24964  10.540   8.164   8.250
 5073POPC   C3A24965  10.529   8.226   7.950
 5073POPC   C4A24966  10.542   8.184   7.650
 5073POPC   C1B24967  10.286   8.211   8.550
 5073POPC   C2B24968  10.250   8.227   8.250
 5073POPC   C3B24969  10.280   8.234   7.950
 5073POPC   C4B24970  10.325   8.233   7.650
 5074POPC   NC324971  43.085  32.254   9.450
 5074POPC   PO424972  43.075  32.207   9.150
 5074POPC   GL124973  43.125  32.253   8.850
 5074POPC   GL224974  43.263  32.267   8.850
 5074POPC   C1A24975  43.111  32.262   8.550
 5074POPC   D2A24976  43.099  32.295   8.250
 5074POPC   C3A24977  43.126  32.233   7.950
 5074POPC   C4A24978  43.139  32.266   7.650
 5074POPC   C1B24979  43.331  32.235   8.550
 5074POPC   C2B24980  43.330  32.223   8.250
 5074POPC   C3B24981  43.356  32.145   7.950
 5074POPC   C4B24982  43.340  32.198   7.650
 5075POPC   NC324983  38.477  18.254   9.450
 5075POPC   PO424984  38.456  18.272   9.150
 5075POPC   GL124985  38.433  18.312   8.850
 5075POPC   GL224986  38.400  18.373   8.850
 5075POPC   C1A24987  38.447  18.249   8.550
 5075POPC   D2A24988  38.442  18.332   8.250
 5075POPC   C3A24989  38.471  18.287   7.950
 5075POPC   C4A24990  38.458  18.286   7.650
 5075POPC   C1B24991  38.305  18.503   8.550
 5075POPC   C2B24992  38.321  18.548   8.250
 5075POPC   C3B24993  38.386  18.461   7.950
 5075POPC   C4B24994  38.341  18.525   7.650
 5076POPC   NC324995   6.682  40.014   9.450
 5076POPC   PO424996   6.674  39.970   9.150
 5076POPC   GL124997   6.689  40.010   8.850
 5076POPC   GL224998   6.499  39.964   8.850
 5076POPC   C1A24999   6.639  40.053   8.550
 5076POPC   D2A25000   6.628  40.006   8.250
 5076POPC   C3A25001   6.639  40.016   7.950
 5076POPC   C4A25002   6.675  39.998   7.650
 5076POPC   C1B25003   6.384  39.998   8.550
 5076POPC   C2B25004   6.346  40.011   8.250
 5076POPC   C3B25005   6.383  40.020   7.950
 5076POPC   C4B25006   6.438  39.933   7.650
 5077POPC   NC325007  41.545  14.453   9.450
 5077POPC   PO425008  41.537  14.417   9.150
 5077POPC   GL125009  41.547  14.381   8.850
 5077POPC   GL225010  41.547  14.244   8.850
 5077POPC   C1A25011  41.544  14.448   8.550
 5077POPC   D2A25012  41.533  14.410   8.250
 5077POPC   C3A25013  41.588  14.386   7.950
 5077POPC   C4A25014  41.569  14.396   7.650
 5077POPC   C1B25015  41.532  14.107   8.550
 5077POPC   C2B25016  41.520  14.141   8.250
 5077POPC   C3B25017  41.536  14.150   7.950
 5077POPC   C4B25018  41.543  14.171   7.650
 5078POPC   NC325019  31.469   1.206   9.450
 5078POPC   PO425020  31.517   1.198   9.150
 5078POPC   GL125021  31.450   1.208   8.850
 5078POPC   GL225022  31.337   1.159   8.850
 5078POPC   C1A25023  31.454   1.228   8.550
 5078POPC   D2A25024  31.466   1.165   8.250
 5078POPC   C3A25025  31.452   1.215   7.950
 5078POPC   C4A25026  31.512   1.191   7.650
 5078POPC   C1B25027  31.259   1.212   8.550
 5078POPC   C2B25028  31.248   1.135   8.250
 5078POPC   C3B25029  31.193   1.225   7.950
 5078POPC   C4B25030  31.258   1.129   7.650
 5079POPC   NC325031  30.665  29.949   9.450
 5079POPC   PO425032  30.655  29.888   9.150
 5079POPC   GL125033  30.672  29.908   8.850
 5079POPC   GL225034  30.574  29.932   8.850
 5079POPC   C1A25035  30.704  29.892   8.550
 5079POPC   D2A25036  30.685  29.934   8.250
 5079POPC   C3A25037  30.686  29.878   7.950
 5079POPC   C4A25038  30.674  29.905   7.650
 5079POPC   C1B25039  30.479  30.084   8.550
 5079POPC   C2B25040  30.428  30.047   8.250
 5079POPC   C3B25041  30.448  30.059   7.950
 5079POPC   C4B25042  30.515  30.031   7.650
 5080POPC   NC325043  14.378   2.803   9.450
 5080POPC   PO425044  14.425   2.772   9.150
 5080POPC   GL125045  14.371   2.747   8.850
 5080POPC   GL225046  14.569   2.724   8.850
 5080POPC   C1A25047  14.432   2.761   8.550
 5080POPC   D2A25048  14.449   2.740   8.250
 5080POPC   C3A25049  14.448   2.717   7.950
 5080POPC   C4A25050  14.449   2.798   7.650
 5080POPC   C1B25051  14.628   2.764   8.550
 5080POPC   C2B25052  14.674   2.732   8.250
 5080POPC   C3B25053  14.668   2.724   7.950
 5080POPC   C4B25054  14.608   2.715   7.650
 5081POPC   NC325055  19.806  32.215   9.450
 5081POPC   PO425056  19.877  32.247   9.150
 5081POPC   GL125057  19.877  32.231   8.850
 5081POPC   GL225058  19.988  32.338   8.850
 5081POPC   C1A25059  19.856  32.288   8.550
 5081POPC   D2A25060  19.846  32.216   8.250
 5081POPC   C3A25061  19.884  32.201   7.950
 5081POPC   C4A25062  19.873  32.215   7.650
 5081POPC   C1B25063  20.079  32.372   8.550
 5081POPC   C2B25064  20.073  32.375   8.250
 5081POPC   C3B25065  20.007  32.334   7.950
 5081POPC   C4B25066  20.014  32.344   7.650
 5082POPC   NC325067  17.522  30.715   9.450
 5082POPC   PO425068  17.485  30.738   9.150
 5082POPC   GL125069  17.542  30.698   8.850
 5082POPC   GL225070  17.498  30.855   8.850
 5082POPC   C1A25071  17.476  30.704   8.550
 5082POPC   D2A25072  17.476  30.738   8.250
 5082POPC   C3A25073  17.466  30.702   7.950
 5082POPC   C4A25074  17.467  30.727   7.650
 5082POPC   C1B25075  17.439  30.954   8.550
 5082POPC   C2B25076  17.455  30.940   8.250
 5082POPC   C3B25077  17.411  30.882   7.950
 5082POPC   C4B25078  17.459  30.923   7.650
 5083POPC   NC325079  26.799  12.121   9.450
 5083POPC   PO425080  26.779  12.094   9.150
 5083POPC   GL125081  26.843  12.094   8.850
 5083POPC   GL225082  26.855  12.177   8.850
 5083POPC   C1A25083  26.831  12.071   8.550
 5083POPC   D2A25084  26.843  12.030   8.250
 5083POPC   C3A25085  26.770  12.125   7.950
 5083POPC   C4A25086  26.821  12.093   7.650
 5083POPC   C1B25087  26.849  12.337   8.550
 5083POPC   C2B25088  26.864  12.281   8.250
 5083POPC   C3B25089  26.812  12.332   7.950
 5083POPC   C4B25090  26.866  12.373   7.650
 5084POPC   NC325091  42.299  18.239   9.450
 5084POPC   PO425092  42.298  18.272   9.150
 5084POPC   GL125093  42.353  18.324   8.850
 5084POPC   GL225094  42.168  18.278   8.850
 5084POPC   C1A25095  42.354  18.241   8.550
 5084POPC   D2A25096  42.348  18.272   8.250
 5084POPC   C3A25097  42.378  18.326   7.950
 5084POPC   C4A25098  42.358  18.268   7.650
 5084POPC   C1B25099  42.112  18.228   8.550
 5084POPC   C2B25100  42.079  18.265   8.250
 5084POPC   C3B25101  42.070  18.244   7.950
 5084POPC   C4B25102  42.045  18.243   7.650
 5085POPC   NC325103  12.097   3.574   9.450
 5085POPC   PO425104  12.098   3.554   9.150
 5085POPC   GL125105  12.099   3.530   8.850
 5085POPC   GL225106  12.204   3.547   8.850
 5085POPC   C1A25107  12.102   3.589   8.550
 5085POPC   D2A25108  12.122   3.590   8.250
 5085POPC   C3A25109  12.070   3.493   7.950
 5085POPC   C4A25110  12.027   3.544   7.650
 5085POPC   C1B25111  12.293   3.524   8.550
 5085POPC   C2B25112  12.294   3.532   8.250
 5085POPC   C3B25113  12.277   3.508   7.950
 5085POPC   C4B25114  12.309   3.516   7.650
 5086POPC   NC325115  11.269   9.781   9.450
 5086POPC   PO425116  11.267   9.761   9.150
 5086POPC   GL125117  11.265   9.757   8.850
 5086POPC   GL225118  11.224   9.831   8.850
 5086POPC   C1A25119  11.288   9.750   8.550
 5086POPC   D2A25120  11.327   9.738   8.250
 5086POPC   C3A25121  11.252   9.709   7.950
 5086POPC   C4A25122  11.308   9.699   7.650
 5086POPC   C1B25123  11.075   9.886   8.550
 5086POPC   C2B25124  11.069   9.842   8.250
 5086POPC   C3B25125  11.065   9.825   7.950
 5086POPC   C4B25126  11.082   9.831   7.650
 5087POPC   NC325127   9.021  15.191   9.450
 5087POPC   PO425128   8.951  15.138   9.150
 5087POPC   GL125129   8.946  15.183   8.850
 5087POPC   GL225130   8.867  15.161   8.850
 5087POPC   C1A25131   8.971  15.163   8.550
 5087POPC   D2A25132   8.970  15.226   8.250
 5087POPC   C3A25133   8.982  15.148   7.950
 5087POPC   C4A25134   8.968  15.226   7.650
 5087POPC   C1B25135   8.731  15.038   8.550
 5087POPC   C2B25136   8.771  15.130   8.250
 5087POPC   C3B25137   8.787  15.038   7.950
 5087POPC   C4B25138   8.735  15.116   7.650
 5088POPC   NC325139   5.827  42.307   9.450
 5088POPC   PO425140   5.855  42.346   9.150
 5088POPC   GL125141   5.904  42.354   8.850
 5088POPC   GL225142   5.976  42.347   8.850
 5088POPC   C1A25143   5.830  42.333   8.550
 5088POPC   D2A25144   5.868  42.307   8.250
 5088POPC   C3A25145   5.919  42.301   7.950
 5088POPC   C4A25146   5.840  42.377   7.650
 5088POPC   C1B25147   6.125  42.321   8.550
 5088POPC   C2B25148   6.102  42.301   8.250
 5088POPC   C3B25149   6.070  42.297   7.950
 5088POPC   C4B25150   6.129  42.258   7.650
 5089POPC   NC325151  43.093   6.670   9.450
 5089POPC   PO425152  43.072   6.680   9.150
 5089POPC   GL125153  43.115   6.601   8.850
 5089POPC   GL225154  43.028   6.565   8.850
 5089POPC   C1A25155  43.081   6.613   8.550
 5089POPC   D2A25156  43.124   6.657   8.250
 5089POPC   C3A25157  43.153   6.616   7.950
 5089POPC   C4A25158  43.140   6.612   7.650
 5089POPC   C1B25159  42.923   6.511   8.550
 5089POPC   C2B25160  42.958   6.456   8.250
 5089POPC   C3B25161  42.934   6.459   7.950
 5089POPC   C4B25162  42.934   6.475   7.650
 5090POPC   NC325163  42.369   0.462   9.450
 5090POPC   PO425164  42.382   0.458   9.150
 5090POPC   GL125165  42.350   0.412   8.850
 5090POPC   GL225166  42.328   0.324   8.850
 5090POPC   C1A25167  42.362   0.481   8.550
 5090POPC   D2A25168  42.365   0.395   8.250
 5090POPC   C3A25169  42.356   0.432   7.950
 5090POPC   C4A25170  42.285   0.416   7.650
 5090POPC   C1B25171  42.343   0.165   8.550
 5090POPC   C2B25172  42.275   0.181   8.250
 5090POPC   C3B25173  42.320   0.235   7.950
 5090POPC   C4B25174  42.302   0.176   7.650
 5091POPC   NC325175  19.085  10.565   9.450
 5091POPC   PO425176  19.095  10.546   9.150
 5091POPC   GL125177  19.091  10.505   8.850
 5091POPC   GL225178  19.054  10.424   8.850
 5091POPC   C1A25179  19.053  10.527   8.550
 5091POPC   D2A25180  19.034  10.498   8.250
 5091POPC   C3A25181  19.027  10.478   7.950
 5091POPC   C4A25182  19.076  10.483   7.650
 5091POPC   C1B25183  19.104  10.288   8.550
 5091POPC   C2B25184  19.161  10.301   8.250
 5091POPC   C3B25185  19.093  10.309   7.950
 5091POPC   C4B25186  19.142  10.286   7.650
 5092POPC   NC325187   1.234  18.258   9.450
 5092POPC   PO425188   1.237  18.262   9.150
 5092POPC   GL125189   1.258  18.311   8.850
 5092POPC   GL225190   1.150  18.239   8.850
 5092POPC   C1A25191   1.262  18.237   8.550
 5092POPC   D2A25192   1.232  18.313   8.250
 5092POPC   C3A25193   1.180  18.271   7.950
 5092POPC   C4A25194   1.218  18.322   7.650
 5092POPC   C1B25195   0.964  18.184   8.550
 5092POPC   C2B25196   1.024  18.107   8.250
 5092POPC   C3B25197   1.001  18.095   7.950
 5092POPC   C4B25198   0.982  18.176   7.650
 5093POPC   NC325199  15.188   3.590   9.450
 5093POPC   PO425200  15.170   3.540   9.150
 5093POPC   GL125201  15.203   3.579   8.850
 5093POPC   GL225202  15.301   3.552   8.850
 5093POPC   C1A25203  15.133   3.533   8.550
 5093POPC   D2A25204  15.184   3.551   8.250
 5093POPC   C3A25205  15.176   3.516   7.950
 5093POPC   C4A25206  15.130   3.579   7.650
 5093POPC   C1B25207  15.452   3.601   8.550
 5093POPC   C2B25208  15.457   3.578   8.250
 5093POPC   C3B25209  15.412   3.609   7.950
 5093POPC   C4B25210  15.400   3.649   7.650
 5094POPC   NC325211  22.897  40.023   9.450
 5094POPC   PO425212  22.918  39.985   9.150
 5094POPC   GL125213  22.963  39.988   8.850
 5094POPC   GL225214  22.864  40.104   8.850
 5094POPC   C1A25215  22.924  39.988   8.550
 5094POPC   D2A25216  22.924  40.051   8.250
 5094POPC   C3A25217  22.920  39.997   7.950
 5094POPC   C4A25218  22.952  40.046   7.650
 5094POPC   C1B25219  22.727  40.189   8.550
 5094POPC   C2B25220  22.739  40.185   8.250
 5094POPC   C3B25221  22.733  40.182   7.950
 5094POPC   C4B25222  22.773  40.179   7.650
 5095POPC   NC325223   7.444  42.297   9.450
 5095POPC   PO425224   7.454  42.288   9.150
 5095POPC   GL125225   7.372  42.333   8.850
 5095POPC   GL225226   7.474  42.198   8.850
 5095POPC   C1A25227   7.403  42.317   8.550
 5095POPC   D2A25228   7.440  42.287   8.250
 5095POPC   C3A25229   7.409  42.290   7.950
 5095POPC   C4A25230   7.420  42.335   7.650
 5095POPC   C1B25231   7.541  42.089   8.550
 5095POPC   C2B25232   7.589  42.172   8.250
 5095POPC   C3B25233   7.558  42.162   7.950
 5095POPC   C4B25234   7.542  42.104   7.650
 5096POPC   NC325235  26.861  19.809   9.450
 5096POPC   PO425236  26.781  19.864   9.150
 5096POPC   GL125237  26.864  19.810   8.850
 5096POPC   GL225238  26.782  19.718   8.850
 5096POPC   C1A25239  26.796  19.850   8.550
 5096POPC   D2A25240  26.827  19.799   8.250
 5096POPC   C3A25241  26.769  19.865   7.950
 5096POPC   C4A25242  26.800  19.813   7.650
 5096POPC   C1B25243  26.734  19.624   8.550
 5096POPC   C2B25244  26.741  19.572   8.250
 5096POPC   C3B25245  26.691  19.625   7.950
 5096POPC   C4B25246  26.706  19.572   7.650
 5097POPC   NC325247   2.775   4.361   9.450
 5097POPC   PO425248   2.804   4.360   9.150
 5097POPC   GL125249   2.794   4.300   8.850
 5097POPC   GL225250   2.603   4.291   8.850
 5097POPC   C1A25251   2.770   4.319   8.550
 5097POPC   D2A25252   2.794   4.331   8.250
 5097POPC   C3A25253   2.815   4.358   7.950
 5097POPC   C4A25254   2.716   4.360   7.650
 5097POPC   C1B25255   2.496   4.314   8.550
 5097POPC   C2B25256   2.519   4.288   8.250
 5097POPC   C3B25257   2.517   4.360   7.950
 5097POPC   C4B25258   2.504   4.368   7.650
 5098POPC   NC325259  35.396  19.020   9.450
 5098POPC   PO425260  35.307  19.053   9.150
 5098POPC   GL125261  35.307  19.077   8.850
 5098POPC   GL225262  35.436  19.058   8.850
 5098POPC   C1A25263  35.326  19.033   8.550
 5098POPC   D2A25264  35.368  19.019   8.250
 5098POPC   C3A25265  35.351  19.061   7.950
 5098POPC   C4A25266  35.395  19.091   7.650
 5098POPC   C1B25267  35.628  19.008   8.550
 5098POPC   C2B25268  35.593  19.077   8.250
 5098POPC   C3B25269  35.559  19.015   7.950
 5098POPC   C4B25270  35.597  19.069   7.650
 5099POPC   NC325271  37.656  26.024   9.450
 5099POPC   PO425272  37.714  26.008   9.150
 5099POPC   GL125273  37.698  26.072   8.850
 5099POPC   GL225274  37.619  25.918   8.850
 5099POPC   C1A25275  37.668  26.020   8.550
 5099POPC   D2A25276  37.633  26.052   8.250
 5099POPC   C3A25277  37.697  26.025   7.950
 5099POPC   C4A25278  37.666  26.081   7.650
 5099POPC   C1B25279  37.570  25.813   8.550
 5099POPC   C2B25280  37.590  25.856   8.250
 5099POPC   C3B25281  37.552  25.774   7.950
 5099POPC   C4B25282  37.638  25.829   7.650
 5100POPC   NC325283  19.880  19.058   9.450
 5100POPC   PO425284  19.787  19.009   9.150
 5100POPC   GL125285  19.800  19.030   8.850
 5100POPC   GL225286  19.878  19.165   8.850
 5100POPC   C1A25287  19.839  19.047   8.550
 5100POPC   D2A25288  19.830  19.009   8.250
 5100POPC   C3A25289  19.793  19.033   7.950
 5100POPC   C4A25290  19.796  19.107   7.650
 5100POPC   C1B25291  20.064  19.257   8.550
 5100POPC   C2B25292  20.016  19.207   8.250
 5100POPC   C3B25293  20.020  19.262   7.950
 5100POPC   C4B25294  19.982  19.209   7.650
 5101POPC   NC325295   7.456  22.189   9.450
 5101POPC   PO425296   7.375  22.201   9.150
 5101POPC   GL125297   7.443  22.204   8.850
 5101POPC   GL225298   7.259  22.068   8.850
 5101POPC   C1A25299   7.468  22.123   8.550
 5101POPC   D2A25300   7.468  22.132   8.250
 5101POPC   C3A25301   7.448  22.130   7.950
 5101POPC   C4A25302   7.373  22.158   7.650
 5101POPC   C1B25303   7.235  22.083   8.550
 5101POPC   C2B25304   7.161  22.023   8.250
 5101POPC   C3B25305   7.216  22.046   7.950
 5101POPC   C4B25306   7.185  22.054   7.650
 5102POPC   NC325307   7.417   0.464   9.450
 5102POPC   PO425308   7.385   0.430   9.150
 5102POPC   GL125309   7.386   0.445   8.850
 5102POPC   GL225310   7.300   0.478   8.850
 5102POPC   C1A25311   7.446   0.455   8.550
 5102POPC   D2A25312   7.373   0.478   8.250
 5102POPC   C3A25313   7.432   0.389   7.950
 5102POPC   C4A25314   7.372   0.426   7.650
 5102POPC   C1B25315   7.159   0.517   8.550
 5102POPC   C2B25316   7.171   0.505   8.250
 5102POPC   C3B25317   7.220   0.450   7.950
 5102POPC   C4B25318   7.150   0.474   7.650
 5103POPC   NC325319  26.019   1.209   9.450
 5103POPC   PO425320  26.009   1.164   9.150
 5103POPC   GL125321  26.084   1.236   8.850
 5103POPC   GL225322  26.069   1.098   8.850
 5103POPC   C1A25323  26.074   1.171   8.550
 5103POPC   D2A25324  26.049   1.256   8.250
 5103POPC   C3A25325  26.064   1.238   7.950
 5103POPC   C4A25326  26.041   1.185   7.650
 5103POPC   C1B25327  26.124   0.945   8.550
 5103POPC   C2B25328  26.136   1.006   8.250
 5103POPC   C3B25329  26.177   0.988   7.950
 5103POPC   C4B25330  26.188   0.988   7.650
 5104POPC   NC325331  22.944  26.805   9.450
 5104POPC   PO425332  22.974  26.866   9.150
 5104POPC   GL125333  22.909  26.815   8.850
 5104POPC   GL225334  22.879  26.699   8.850
 5104POPC   C1A25335  22.945  26.859   8.550
 5104POPC   D2A25336  22.930  26.863   8.250
 5104POPC   C3A25337  22.935  26.852   7.950
 5104POPC   C4A25338  22.919  26.781   7.650
 5104POPC   C1B25339  22.870  26.586   8.550
 5104POPC   C2B25340  22.944  26.616   8.250
 5104POPC   C3B25341  22.921  26.618   7.950
 5104POPC   C4B25342  22.931  26.534   7.650
 5105POPC   NC325343  30.707  30.686   9.450
 5105POPC   PO425344  30.701  30.669   9.150
 5105POPC   GL125345  30.742  30.742   8.850
 5105POPC   GL225346  30.590  30.678   8.850
 5105POPC   C1A25347  30.687  30.742   8.550
 5105POPC   D2A25348  30.654  30.664   8.250
 5105POPC   C3A25349  30.679  30.699   7.950
 5105POPC   C4A25350  30.724  30.677   7.650
 5105POPC   C1B25351  30.482  30.647   8.550
 5105POPC   C2B25352  30.413  30.590   8.250
 5105POPC   C3B25353  30.486  30.588   7.950
 5105POPC   C4B25354  30.458  30.656   7.650
 5106POPC   NC325355   1.976  42.318   9.450
 5106POPC   PO425356   2.026  42.300   9.150
 5106POPC   GL125357   1.952  42.299   8.850
 5106POPC   GL225358   1.923  42.289   8.850
 5106POPC   C1A25359   1.973  42.336   8.550
 5106POPC   D2A25360   1.975  42.331   8.250
 5106POPC   C3A25361   2.004  42.384   7.950
 5106POPC   C4A25362   1.967  42.337   7.650
 5106POPC   C1B25363   1.832  42.191   8.550
 5106POPC   C2B25364   1.841  42.191   8.250
 5106POPC   C3B25365   1.856  42.117   7.950
 5106POPC   C4B25366   1.803  42.107   7.650
 5107POPC   NC325367  41.563  44.680   9.450
 5107POPC   PO425368  41.525  44.615   9.150
 5107POPC   GL125369  41.510  44.623   8.850
 5107POPC   GL225370  41.620  44.787   8.850
 5107POPC   C1A25371  41.533  44.625   8.550
 5107POPC   D2A25372  41.565  44.643   8.250
 5107POPC   C3A25373  41.510  44.620   7.950
 5107POPC   C4A25374  41.590  44.619   7.650
 5107POPC   C1B25375  41.699  44.843   8.550
 5107POPC   C2B25376  41.712  44.792   8.250
 5107POPC   C3B25377  41.726  44.789   7.950
 5107POPC   C4B25378  41.733  44.800   7.650
 5108POPC   NC325379  15.940  33.756   9.450
 5108POPC   PO425380  15.995  33.827   9.150
 5108POPC   GL125381  15.995  33.838   8.850
 5108POPC   GL225382  15.855  33.759   8.850
 5108POPC   C1A25383  15.987  33.808   8.550
 5108POPC   D2A25384  15.984  33.831   8.250
 5108POPC   C3A25385  15.954  33.799   7.950
 5108POPC   C4A25386  15.965  33.764   7.650
 5108POPC   C1B25387  15.712  33.732   8.550
 5108POPC   C2B25388  15.771  33.701   8.250
 5108POPC   C3B25389  15.717  33.689   7.950
 5108POPC   C4B25390  15.698  33.746   7.650
 5109POPC   NC325391  44.708  14.362   9.450
 5109POPC   PO425392  44.655  14.449   9.150
 5109POPC   GL125393  44.623  14.411   8.850
 5109POPC   GL225394  44.499  14.343   8.850
 5109POPC   C1A25395  44.690  14.416   8.550
 5109POPC   D2A25396  44.650  14.397   8.250
 5109POPC   C3A25397  44.669  14.384   7.950
 5109POPC   C4A25398  44.639  14.434   7.650
 5109POPC   C1B25399  44.457  14.349   8.550
 5109POPC   C2B25400  44.427  14.334   8.250
 5109POPC   C3B25401  44.442  14.408   7.950
 5109POPC   C4B25402  44.388  14.337   7.650
 5110POPC   NC325403   4.343   0.461   9.450
 5110POPC   PO425404   4.322   0.464   9.150
 5110POPC   GL125405   4.280   0.407   8.850
 5110POPC   GL225406   4.458   0.461   8.850
 5110POPC   C1A25407   4.294   0.414   8.550
 5110POPC   D2A25408   4.323   0.478   8.250
 5110POPC   C3A25409   4.294   0.410   7.950
 5110POPC   C4A25410   4.322   0.408   7.650
 5110POPC   C1B25411   4.563   0.549   8.550
 5110POPC   C2B25412   4.528   0.511   8.250
 5110POPC   C3B25413   4.587   0.501   7.950
 5110POPC   C4B25414   4.564   0.539   7.650
 5111POPC   NC325415   8.194  16.753   9.450
 5111POPC   PO425416   8.191  16.777   9.150
 5111POPC   GL125417   8.174  16.774   8.850
 5111POPC   GL225418   8.210  16.609   8.850
 5111POPC   C1A25419   8.192  16.737   8.550
 5111POPC   D2A25420   8.218  16.750   8.250
 5111POPC   C3A25421   8.238  16.736   7.950
 5111POPC   C4A25422   8.160  16.760   7.650
 5111POPC   C1B25423   8.277  16.497   8.550
 5111POPC   C2B25424   8.328  16.453   8.250
 5111POPC   C3B25425   8.298  16.528   7.950
 5111POPC   C4B25426   8.320  16.463   7.650
 5112POPC   NC325427   8.967  17.538   9.450
 5112POPC   PO425428   8.955  17.551   9.150
 5112POPC   GL125429   8.986  17.470   8.850
 5112POPC   GL225430   9.084  17.630   8.850
 5112POPC   C1A25431   9.006  17.510   8.550
 5112POPC   D2A25432   8.923  17.532   8.250
 5112POPC   C3A25433   8.956  17.487   7.950
 5112POPC   C4A25434   8.983  17.525   7.650
 5112POPC   C1B25435   9.167  17.683   8.550
 5112POPC   C2B25436   9.144  17.654   8.250
 5112POPC   C3B25437   9.111  17.728   7.950
 5112POPC   C4B25438   9.130  17.692   7.650
 5113POPC   NC325439  29.960  32.221   9.450
 5113POPC   PO425440  29.898  32.210   9.150
 5113POPC   GL125441  29.955  32.218   8.850
 5113POPC   GL225442  29.807  32.329   8.850
 5113POPC   C1A25443  29.894  32.232   8.550
 5113POPC   D2A25444  29.883  32.228   8.250
 5113POPC   C3A25445  29.962  32.203   7.950
 5113POPC   C4A25446  29.910  32.291   7.650
 5113POPC   C1B25447  29.718  32.406   8.550
 5113POPC   C2B25448  29.754  32.410   8.250
 5113POPC   C3B25449  29.736  32.403   7.950
 5113POPC   C4B25450  29.697  32.420   7.650
 5114POPC   NC325451  15.921   1.187   9.450
 5114POPC   PO425452  15.972   1.232   9.150
 5114POPC   GL125453  15.915   1.219   8.850
 5114POPC   GL225454  15.892   1.069   8.850
 5114POPC   C1A25455  15.906   1.165   8.550
 5114POPC   D2A25456  16.004   1.179   8.250
 5114POPC   C3A25457  15.933   1.231   7.950
 5114POPC   C4A25458  15.951   1.167   7.650
 5114POPC   C1B25459  15.780   1.047   8.550
 5114POPC   C2B25460  15.834   0.988   8.250
 5114POPC   C3B25461  15.834   0.998   7.950
 5114POPC   C4B25462  15.806   1.007   7.650
 5115POPC   NC325463  20.639   9.703   9.450
 5115POPC   PO425464  20.608   9.765   9.150
 5115POPC   GL125465  20.645   9.783   8.850
 5115POPC   GL225466  20.583   9.649   8.850
 5115POPC   C1A25467  20.560   9.753   8.550
 5115POPC   D2A25468  20.642   9.790   8.250
 5115POPC   C3A25469  20.595   9.750   7.950
 5115POPC   C4A25470  20.579   9.708   7.650
 5115POPC   C1B25471  20.525   9.570   8.550
 5115POPC   C2B25472  20.524   9.562   8.250
 5115POPC   C3B25473  20.537   9.543   7.950
 5115POPC   C4B25474  20.454   9.561   7.650
 5116POPC   NC325475  17.523  43.102   9.450
 5116POPC   PO425476  17.460  43.125   9.150
 5116POPC   GL125477  17.471  43.083   8.850
 5116POPC   GL225478  17.579  43.031   8.850
 5116POPC   C1A25479  17.527  43.108   8.550
 5116POPC   D2A25480  17.478  43.075   8.250
 5116POPC   C3A25481  17.497  43.121   7.950
 5116POPC   C4A25482  17.479  43.076   7.650
 5116POPC   C1B25483  17.662  42.875   8.550
 5116POPC   C2B25484  17.632  42.875   8.250
 5116POPC   C3B25485  17.704  42.881   7.950
 5116POPC   C4B25486  17.711  42.871   7.650
 5117POPC   NC325487  40.748  24.537   9.450
 5117POPC   PO425488  40.739  24.535   9.150
 5117POPC   GL125489  40.743  24.515   8.850
 5117POPC   GL225490  40.725  24.566   8.850
 5117POPC   C1A25491  40.812  24.532   8.550
 5117POPC   D2A25492  40.818  24.479   8.250
 5117POPC   C3A25493  40.832  24.525   7.950
 5117POPC   C4A25494  40.818  24.535   7.650
 5117POPC   C1B25495  40.582  24.617   8.550
 5117POPC   C2B25496  40.652  24.693   8.250
 5117POPC   C3B25497  40.590  24.661   7.950
 5117POPC   C4B25498  40.628  24.710   7.650
 5118POPC   NC325499  28.331  33.807   9.450
 5118POPC   PO425500  28.382  33.818   9.150
 5118POPC   GL125501  28.320  33.847   8.850
 5118POPC   GL225502  28.468  33.792   8.850
 5118POPC   C1A25503  28.407  33.804   8.550
 5118POPC   D2A25504  28.328  33.753   8.250
 5118POPC   C3A25505  28.395  33.831   7.950
 5118POPC   C4A25506  28.409  33.829   7.650
 5118POPC   C1B25507  28.592  33.748   8.550
 5118POPC   C2B25508  28.638  33.796   8.250
 5118POPC   C3B25509  28.624  33.751   7.950
 5118POPC   C4B25510  28.664  33.744   7.650
 5119POPC   NC325511  14.426  29.182   9.450
 5119POPC   PO425512  14.403  29.123   9.150
 5119POPC   GL125513  14.429  29.156   8.850
 5119POPC   GL225514  14.537  29.129   8.850
 5119POPC   C1A25515  14.436  29.097   8.550
 5119POPC   D2A25516  14.379  29.101   8.250
 5119POPC   C3A25517  14.433  29.126   7.950
 5119POPC   C4A25518  14.398  29.175   7.650
 5119POPC   C1B25519  14.624  29.032   8.550
 5119POPC   C2B25520  14.593  28.987   8.250
 5119POPC   C3B25521  14.573  28.992   7.950
 5119POPC   C4B25522  14.637  28.992   7.650
 5120POPC   NC325523  24.450  39.960   9.450
 5120POPC   PO425524  24.457  40.054   9.150
 5120POPC   GL125525  24.445  39.973   8.850
 5120POPC   GL225526  24.537  39.929   8.850
 5120POPC   C1A25527  24.510  40.010   8.550
 5120POPC   D2A25528  24.506  40.026   8.250
 5120POPC   C3A25529  24.524  39.995   7.950
 5120POPC   C4A25530  24.472  39.974   7.650
 5120POPC   C1B25531  24.637  39.840   8.550
 5120POPC   C2B25532  24.671  39.785   8.250
 5120POPC   C3B25533  24.603  39.773   7.950
 5120POPC   C4B25534  24.645  39.825   7.650
 5121POPC   NC325535  44.659  29.096   9.450
 5121POPC   PO425536  44.708  29.169   9.150
 5121POPC   GL125537  44.708  29.165   8.850
 5121POPC   GL225538  44.516  29.099   8.850
 5121POPC   C1A25539  44.642  29.121   8.550
 5121POPC   D2A25540  44.643  29.164   8.250
 5121POPC   C3A25541  44.675  29.186   7.950
 5121POPC   C4A25542  44.636  29.161   7.650
 5121POPC   C1B25543  44.433  29.021   8.550
 5121POPC   C2B25544  44.434  28.981   8.250
 5121POPC   C3B25545  44.425  28.948   7.950
 5121POPC   C4B25546  44.444  28.997   7.650
 5122POPC   NC325547  44.626  26.777   9.450
 5122POPC   PO425548  44.651  26.807   9.150
 5122POPC   GL125549  44.638  26.857   8.850
 5122POPC   GL225550  44.719  26.929   8.850
 5122POPC   C1A25551  44.708  26.789   8.550
 5122POPC   D2A25552  44.697  26.856   8.250
 5122POPC   C3A25553  44.672  26.809   7.950
 5122POPC   C4A25554  44.622  26.786   7.650
 5122POPC   C1B25555  44.726  27.044   8.550
 5122POPC   C2B25556  44.687  27.041   8.250
 5122POPC   C3B25557  44.724  27.028   7.950
 5122POPC   C4B25558  44.689  27.056   7.650
 5123POPC   NC325559  27.577   2.019   9.450
 5123POPC   PO425560  27.587   2.038   9.150
 5123POPC   GL125561  27.555   2.001   8.850
 5123POPC   GL225562  27.697   1.899   8.850
 5123POPC   C1A25563  27.623   1.994   8.550
 5123POPC   D2A25564  27.623   2.007   8.250
 5123POPC   C3A25565  27.588   2.010   7.950
 5123POPC   C4A25566  27.564   1.997   7.650
 5123POPC   C1B25567  27.775   1.779   8.550
 5123POPC   C2B25568  27.722   1.821   8.250
 5123POPC   C3B25569  27.729   1.762   7.950
 5123POPC   C4B25570  27.760   1.796   7.650
 5124POPC   NC325571  10.560  32.249   9.450
 5124POPC   PO425572  10.556  32.252   9.150
 5124POPC   GL125573  10.505  32.287   8.850
 5124POPC   GL225574  10.394  32.249   8.850
 5124POPC   C1A25575  10.529  32.218   8.550
 5124POPC   D2A25576  10.523  32.242   8.250
 5124POPC   C3A25577  10.516  32.248   7.950
 5124POPC   C4A25578  10.501  32.213   7.650
 5124POPC   C1B25579  10.294  32.287   8.550
 5124POPC   C2B25580  10.273  32.285   8.250
 5124POPC   C3B25581  10.256  32.326   7.950
 5124POPC   C4B25582  10.303  32.260   7.650
 5125POPC   NC325583  29.096   3.529   9.450
 5125POPC   PO425584  29.114   3.516   9.150
 5125POPC   GL125585  29.178   3.504   8.850
 5125POPC   GL225586  29.129   3.407   8.850
 5125POPC   C1A25587  29.180   3.537   8.550
 5125POPC   D2A25588  29.125   3.544   8.250
 5125POPC   C3A25589  29.187   3.561   7.950
 5125POPC   C4A25590  29.100   3.536   7.650
 5125POPC   C1B25591  29.229   3.341   8.550
 5125POPC   C2B25592  29.241   3.329   8.250
 5125POPC   C3B25593  29.233   3.290   7.950
 5125POPC   C4B25594  29.163   3.302   7.650
 5126POPC   NC325595   0.440  36.118   9.450
 5126POPC   PO425596   0.457  36.096   9.150
 5126POPC   GL125597   0.438  36.114   8.850
 5126POPC   GL225598   0.503  36.236   8.850
 5126POPC   C1A25599   0.477  36.092   8.550
 5126POPC   D2A25600   0.399  36.153   8.250
 5126POPC   C3A25601   0.446  36.161   7.950
 5126POPC   C4A25602   0.394  36.114   7.650
 5126POPC   C1B25603   0.593  36.247   8.550
 5126POPC   C2B25604   0.678  36.251   8.250
 5126POPC   C3B25605   0.636  36.249   7.950
 5126POPC   C4B25606   0.603  36.252   7.650
 5127POPC   NC325607  26.799  33.755   9.450
 5127POPC   PO425608  26.780  33.789   9.150
 5127POPC   GL125609  26.842  33.826   8.850
 5127POPC   GL225610  26.798  33.873   8.850
 5127POPC   C1A25611  26.865  33.798   8.550
 5127POPC   D2A25612  26.804  33.787   8.250
 5127POPC   C3A25613  26.835  33.776   7.950
 5127POPC   C4A25614  26.842  33.768   7.650
 5127POPC   C1B25615  26.763  34.025   8.550
 5127POPC   C2B25616  26.726  34.063   8.250
 5127POPC   C3B25617  26.763  33.991   7.950
 5127POPC   C4B25618  26.754  33.996   7.650
 5128POPC   NC325619  29.131  21.395   9.450
 5128POPC   PO425620  29.103  21.398   9.150
 5128POPC   GL125621  29.122  21.432   8.850
 5128POPC   GL225622  29.201  21.522   8.850
 5128POPC   C1A25623  29.176  21.411   8.550
 5128POPC   D2A25624  29.109  21.337   8.250
 5128POPC   C3A25625  29.148  21.413   7.950
 5128POPC   C4A25626  29.157  21.353   7.650
 5128POPC   C1B25627  29.228  21.675   8.550
 5128POPC   C2B25628  29.260  21.595   8.250
 5128POPC   C3B25629  29.239  21.640   7.950
 5128POPC   C4B25630  29.221  21.595   7.650
 5129POPC   NC325631  18.292  17.537   9.450
 5129POPC   PO425632  18.241  17.468   9.150
 5129POPC   GL125633  18.311  17.552   8.850
 5129POPC   GL225634  18.148  17.435   8.850
 5129POPC   C1A25635  18.240  17.477   8.550
 5129POPC   D2A25636  18.259  17.508   8.250
 5129POPC   C3A25637  18.314  17.505   7.950
 5129POPC   C4A25638  18.322  17.543   7.650
 5129POPC   C1B25639  18.058  17.471   8.550
 5129POPC   C2B25640  18.000  17.424   8.250
 5129POPC   C3B25641  18.085  17.395   7.950
 5129POPC   C4B25642  18.071  17.480   7.650
 5130POPC   NC325643   8.970  33.833   9.450
 5130POPC   PO425644   8.955  33.849   9.150
 5130POPC   GL125645   8.951  33.791   8.850
 5130POPC   GL225646   9.050  33.768   8.850
 5130POPC   C1A25647   8.982  33.771   8.550
 5130POPC   D2A25648   8.927  33.778   8.250
 5130POPC   C3A25649   8.978  33.830   7.950
 5130POPC   C4A25650   8.944  33.787   7.650
 5130POPC   C1B25651   9.203  33.666   8.550
 5130POPC   C2B25652   9.158  33.733   8.250
 5130POPC   C3B25653   9.167  33.711   7.950
 5130POPC   C4B25654   9.233  33.721   7.650
 5131POPC   NC325655  33.787  21.382   9.450
 5131POPC   PO425656  33.762  21.391   9.150
 5131POPC   GL125657  33.847  21.379   8.850
 5131POPC   GL225658  33.861  21.510   8.850
 5131POPC   C1A25659  33.823  21.416   8.550
 5131POPC   D2A25660  33.777  21.401   8.250
 5131POPC   C3A25661  33.847  21.414   7.950
 5131POPC   C4A25662  33.759  21.433   7.650
 5131POPC   C1B25663  33.941  21.568   8.550
 5131POPC   C2B25664  33.940  21.660   8.250
 5131POPC   C3B25665  33.903  21.607   7.950
 5131POPC   C4B25666  33.938  21.618   7.650
 5132POPC   NC325667  43.082  14.367   9.450
 5132POPC   PO425668  43.153  14.421   9.150
 5132POPC   GL125669  43.154  14.429   8.850
 5132POPC   GL225670  43.184  14.315   8.850
 5132POPC   C1A25671  43.121  14.395   8.550
 5132POPC   D2A25672  43.076  14.384   8.250
 5132POPC   C3A25673  43.066  14.416   7.950
 5132POPC   C4A25674  43.113  14.363   7.650
 5132POPC   C1B25675  43.297  14.255   8.550
 5132POPC   C2B25676  43.251  14.179   8.250
 5132POPC   C3B25677  43.289  14.232   7.950
 5132POPC   C4B25678  43.233  14.260   7.650
 5133POPC   NC325679  19.794  18.277   9.450
 5133POPC   PO425680  19.875  18.278   9.150
 5133POPC   GL125681  19.882  18.289   8.850
 5133POPC   GL225682  19.776  18.374   8.850
 5133POPC   C1A25683  19.866  18.295   8.550
 5133POPC   D2A25684  19.869  18.243   8.250
 5133POPC   C3A25685  19.883  18.282   7.950
 5133POPC   C4A25686  19.855  18.328   7.650
 5133POPC   C1B25687  19.605  18.388   8.550
 5133POPC   C2B25688  19.627  18.395   8.250
 5133POPC   C3B25689  19.666  18.450   7.950
 5133POPC   C4B25690  19.631  18.393   7.650
 5134POPC   NC325691  15.959  43.847   9.450
 5134POPC   PO425692  15.936  43.856   9.150
 5134POPC   GL125693  15.917  43.927   8.850
 5134POPC   GL225694  15.905  44.021   8.850
 5134POPC   C1A25695  15.912  43.882   8.550
 5134POPC   D2A25696  15.986  43.881   8.250
 5134POPC   C3A25697  15.931  43.848   7.950
 5134POPC   C4A25698  15.906  43.913   7.650
 5134POPC   C1B25699  15.835  44.056   8.550
 5134POPC   C2B25700  15.814  44.065   8.250
 5134POPC   C3B25701  15.762  44.105   7.950
 5134POPC   C4B25702  15.749  44.088   7.650
 5135POPC   NC325703  43.159   2.724   9.450
 5135POPC   PO425704  43.096   2.741   9.150
 5135POPC   GL125705  43.080   2.795   8.850
 5135POPC   GL225706  43.174   2.723   8.850
 5135POPC   C1A25707  43.145   2.769   8.550
 5135POPC   D2A25708  43.143   2.804   8.250
 5135POPC   C3A25709  43.095   2.794   7.950
 5135POPC   C4A25710  43.118   2.765   7.650
 5135POPC   C1B25711  43.241   2.625   8.550
 5135POPC   C2B25712  43.327   2.632   8.250
 5135POPC   C3B25713  43.329   2.611   7.950
 5135POPC   C4B25714  43.291   2.543   7.650
 5136POPC   NC325715  34.601  24.501   9.450
 5136POPC   PO425716  34.562  24.536   9.150
 5136POPC   GL125717  34.585  24.460   8.850
 5136POPC   GL225718  34.516  24.408   8.850
 5136POPC   C1A25719  34.560  24.459   8.550
 5136POPC   D2A25720  34.616  24.514   8.250
 5136POPC   C3A25721  34.617  24.478   7.950
 5136POPC   C4A25722  34.602  24.527   7.650
 5136POPC   C1B25723  34.518  24.278   8.550
 5136POPC   C2B25724  34.474  24.267   8.250
 5136POPC   C3B25725  34.485  24.304   7.950
 5136POPC   C4B25726  34.433  24.211   7.650
 5137POPC   NC325727   2.796  31.505   9.450
 5137POPC   PO425728   2.765  31.499   9.150
 5137POPC   GL125729   2.779  31.473   8.850
 5137POPC   GL225730   2.629  31.573   8.850
 5137POPC   C1A25731   2.756  31.501   8.550
 5137POPC   D2A25732   2.814  31.518   8.250
 5137POPC   C3A25733   2.730  31.500   7.950
 5137POPC   C4A25734   2.737  31.472   7.650
 5137POPC   C1B25735   2.556  31.667   8.550
 5137POPC   C2B25736   2.640  31.644   8.250
 5137POPC   C3B25737   2.571  31.674   7.950
 5137POPC   C4B25738   2.574  31.614   7.650
 5138POPC   NC325739  28.354  41.549   9.450
 5138POPC   PO425740  28.352  41.551   9.150
 5138POPC   GL125741  28.320  41.554   8.850
 5138POPC   GL225742  28.419  41.634   8.850
 5138POPC   C1A25743  28.357  41.607   8.550
 5138POPC   D2A25744  28.381  41.530   8.250
 5138POPC   C3A25745  28.340  41.551   7.950
 5138POPC   C4A25746  28.384  41.545   7.650
 5138POPC   C1B25747  28.355  41.791   8.550
 5138POPC   C2B25748  28.372  41.834   8.250
 5138POPC   C3B25749  28.388  41.827   7.950
 5138POPC   C4B25750  28.414  41.790   7.650
 5139POPC   NC325751  16.004  38.483   9.450
 5139POPC   PO425752  15.954  38.465   9.150
 5139POPC   GL125753  15.996  38.472   8.850
 5139POPC   GL225754  15.876  38.452   8.850
 5139POPC   C1A25755  16.003  38.409   8.550
 5139POPC   D2A25756  15.963  38.478   8.250
 5139POPC   C3A25757  15.933  38.443   7.950
 5139POPC   C4A25758  15.927  38.420   7.650
 5139POPC   C1B25759  15.658  38.485   8.550
 5139POPC   C2B25760  15.693  38.507   8.250
 5139POPC   C3B25761  15.658  38.461   7.950
 5139POPC   C4B25762  15.701  38.427   7.650
 5140POPC   NC325763  16.730  44.671   9.450
 5140POPC   PO425764  16.715  44.673   9.150
 5140POPC   GL125765  16.770  44.676   8.850
 5140POPC   GL225766  16.633  44.684   8.850
 5140POPC   C1A25767  16.723  44.636   8.550
 5140POPC   D2A25768  16.711  44.627   8.250
 5140POPC   C3A25769  16.715  44.635   7.950
 5140POPC   C4A25770  16.685  44.614   7.650
 5140POPC   C1B25771  16.473  44.701   8.550
 5140POPC   C2B25772  16.539  44.757   8.250
 5140POPC   C3B25773  16.467  44.737   7.950
 5140POPC   C4B25774  16.455  44.717   7.650
 5141POPC   NC325775  43.150  19.843   9.450
 5141POPC   PO425776  43.160  19.845   9.150
 5141POPC   GL125777  43.136  19.868   8.850
 5141POPC   GL225778  43.186  19.909   8.850
 5141POPC   C1A25779  43.063  19.848   8.550
 5141POPC   D2A25780  43.131  19.849   8.250
 5141POPC   C3A25781  43.072  19.870   7.950
 5141POPC   C4A25782  43.069  19.847   7.650
 5141POPC   C1B25783  43.350  19.966   8.550
 5141POPC   C2B25784  43.315  19.902   8.250
 5141POPC   C3B25785  43.364  19.888   7.950
 5141POPC   C4B25786  43.340  19.967   7.650
 5142POPC   NC325787   5.128  43.914   9.450
 5142POPC   PO425788   5.046  43.839   9.150
 5142POPC   GL125789   5.125  43.850   8.850
 5142POPC   GL225790   5.213  43.775   8.850
 5142POPC   C1A25791   5.059  43.871   8.550
 5142POPC   D2A25792   5.073  43.930   8.250
 5142POPC   C3A25793   5.071  43.872   7.950
 5142POPC   C4A25794   5.119  43.864   7.650
 5142POPC   C1B25795   5.237  43.710   8.550
 5142POPC   C2B25796   5.225  43.673   8.250
 5142POPC   C3B25797   5.205  43.698   7.950
 5142POPC   C4B25798   5.267  43.664   7.650
 5143POPC   NC325799  19.054   0.414   9.450
 5143POPC   PO425800  19.105   0.397   9.150
 5143POPC   GL125801  19.050   0.442   8.850
 5143POPC   GL225802  19.111   0.511   8.850
 5143POPC   C1A25803  19.073   0.405   8.550
 5143POPC   D2A25804  19.054   0.481   8.250
 5143POPC   C3A25805  19.089   0.407   7.950
 5143POPC   C4A25806  19.019   0.391   7.650
 5143POPC   C1B25807  19.249   0.640   8.550
 5143POPC   C2B25808  19.176   0.643   8.250
 5143POPC   C3B25809  19.160   0.678   7.950
 5143POPC   C4B25810  19.208   0.613   7.650
 5144POPC   NC325811   1.956  40.025   9.450
 5144POPC   PO425812   2.030  39.980   9.150
 5144POPC   GL125813   1.987  39.965   8.850
 5144POPC   GL225814   1.828  40.063   8.850
 5144POPC   C1A25815   1.967  39.990   8.550
 5144POPC   D2A25816   1.997  39.992   8.250
 5144POPC   C3A25817   2.018  39.985   7.950
 5144POPC   C4A25818   1.959  40.048   7.650
 5144POPC   C1B25819   1.776  40.015   8.550
 5144POPC   C2B25820   1.692  40.082   8.250
 5144POPC   C3B25821   1.739  40.019   7.950
 5144POPC   C4B25822   1.737  40.006   7.650
 5145POPC   NC325823   7.440   3.504   9.450
 5145POPC   PO425824   7.437   3.562   9.150
 5145POPC   GL125825   7.447   3.502   8.850
 5145POPC   GL225826   7.559   3.533   8.850
 5145POPC   C1A25827   7.380   3.536   8.550
 5145POPC   D2A25828   7.373   3.577   8.250
 5145POPC   C3A25829   7.445   3.546   7.950
 5145POPC   C4A25830   7.396   3.514   7.650
 5145POPC   C1B25831   7.614   3.490   8.550
 5145POPC   C2B25832   7.685   3.456   8.250
 5145POPC   C3B25833   7.688   3.465   7.950
 5145POPC   C4B25834   7.700   3.475   7.650
 5146POPC   NC325835  35.303   1.990   9.450
 5146POPC   PO425836  35.385   1.980   9.150
 5146POPC   GL125837  35.398   1.965   8.850
 5146POPC   GL225838  35.290   1.884   8.850
 5146POPC   C1A25839  35.384   1.956   8.550
 5146POPC   D2A25840  35.350   1.960   8.250
 5146POPC   C3A25841  35.394   1.974   7.950
 5146POPC   C4A25842  35.320   2.002   7.650
 5146POPC   C1B25843  35.219   1.792   8.550
 5146POPC   C2B25844  35.244   1.832   8.250
 5146POPC   C3B25845  35.256   1.788   7.950
 5146POPC   C4B25846  35.173   1.818   7.650
 5147POPC   NC325847  26.792  40.044   9.450
 5147POPC   PO425848  26.810  39.996   9.150
 5147POPC   GL125849  26.854  40.004   8.850
 5147POPC   GL225850  26.896  39.890   8.850
 5147POPC   C1A25851  26.865  40.015   8.550
 5147POPC   D2A25852  26.782  40.030   8.250
 5147POPC   C3A25853  26.829  40.056   7.950
 5147POPC   C4A25854  26.816  39.997   7.650
 5147POPC   C1B25855  27.034  39.824   8.550
 5147POPC   C2B25856  27.038  39.855   8.250
 5147POPC   C3B25857  26.970  39.805   7.950
 5147POPC   C4B25858  26.985  39.821   7.650
 5148POPC   NC325859   5.052  35.400   9.450
 5148POPC   PO425860   5.141  35.309   9.150
 5148POPC   GL125861   5.123  35.320   8.850
 5148POPC   GL225862   5.186  35.225   8.850
 5148POPC   C1A25863   5.063  35.356   8.550
 5148POPC   D2A25864   5.078  35.365   8.250
 5148POPC   C3A25865   5.116  35.322   7.950
 5148POPC   C4A25866   5.045  35.324   7.650
 5148POPC   C1B25867   5.233  35.125   8.550
 5148POPC   C2B25868   5.172  35.123   8.250
 5148POPC   C3B25869   5.177  35.146   7.950
 5148POPC   C4B25870   5.169  35.142   7.650
 5149POPC   NC325871  19.045   7.436   9.450
 5149POPC   PO425872  19.086   7.447   9.150
 5149POPC   GL125873  19.028   7.421   8.850
 5149POPC   GL225874  19.194   7.423   8.850
 5149POPC   C1A25875  19.053   7.394   8.550
 5149POPC   D2A25876  19.098   7.448   8.250
 5149POPC   C3A25877  19.028   7.430   7.950
 5149POPC   C4A25878  19.011   7.387   7.650
 5149POPC   C1B25879  19.283   7.524   8.550
 5149POPC   C2B25880  19.331   7.501   8.250
 5149POPC   C3B25881  19.335   7.531   7.950
 5149POPC   C4B25882  19.301   7.531   7.650
 5150POPC   NC325883   3.546  19.025   9.450
 5150POPC   PO425884   3.566  19.081   9.150
 5150POPC   GL125885   3.567  19.032   8.850
 5150POPC   GL225886   3.638  19.050   8.850
 5150POPC   C1A25887   3.564  19.022   8.550
 5150POPC   D2A25888   3.495  19.078   8.250
 5150POPC   C3A25889   3.540  19.084   7.950
 5150POPC   C4A25890   3.557  19.100   7.650
 5150POPC   C1B25891   3.838  19.084   8.550
 5150POPC   C2B25892   3.824  19.073   8.250
 5150POPC   C3B25893   3.837  19.129   7.950
 5150POPC   C4B25894   3.762  19.119   7.650
 5151POPC   NC325895   5.895   5.074   9.450
 5151POPC   PO425896   5.869   5.132   9.150
 5151POPC   GL125897   5.878   5.113   8.850
 5151POPC   GL225898   5.796   5.173   8.850
 5151POPC   C1A25899   5.860   5.051   8.550
 5151POPC   D2A25900   5.869   5.122   8.250
 5151POPC   C3A25901   5.827   5.110   7.950
 5151POPC   C4A25902   5.819   5.114   7.650
 5151POPC   C1B25903   5.777   5.332   8.550
 5151POPC   C2B25904   5.740   5.341   8.250
 5151POPC   C3B25905   5.721   5.288   7.950
 5151POPC   C4B25906   5.788   5.288   7.650
 5152POPC   NC325907   5.127  24.534   9.450
 5152POPC   PO425908   5.110  24.522   9.150
 5152POPC   GL125909   5.055  24.454   8.850
 5152POPC   GL225910   5.019  24.642   8.850
 5152POPC   C1A25911   5.050  24.455   8.550
 5152POPC   D2A25912   5.096  24.505   8.250
 5152POPC   C3A25913   5.052  24.521   7.950
 5152POPC   C4A25914   5.078  24.533   7.650
 5152POPC   C1B25915   5.064  24.737   8.550
 5152POPC   C2B25916   5.013  24.690   8.250
 5152POPC   C3B25917   5.071  24.692   7.950
 5152POPC   C4B25918   5.008  24.714   7.650
 5153POPC   NC325919   3.586  43.889   9.450
 5153POPC   PO425920   3.521  43.870   9.150
 5153POPC   GL125921   3.514  43.903   8.850
 5153POPC   GL225922   3.458  43.786   8.850
 5153POPC   C1A25923   3.512  43.881   8.550
 5153POPC   D2A25924   3.564  43.921   8.250
 5153POPC   C3A25925   3.568  43.935   7.950
 5153POPC   C4A25926   3.563  43.841   7.650
 5153POPC   C1B25927   3.377  43.659   8.550
 5153POPC   C2B25928   3.430  43.670   8.250
 5153POPC   C3B25929   3.374  43.728   7.950
 5153POPC   C4B25930   3.377  43.701   7.650
 5154POPC   NC325931  20.572  35.360   9.450
 5154POPC   PO425932  20.608  35.394   9.150
 5154POPC   GL125933  20.634  35.360   8.850
 5154POPC   GL225934  20.712  35.250   8.850
 5154POPC   C1A25935  20.598  35.330   8.550
 5154POPC   D2A25936  20.623  35.382   8.250
 5154POPC   C3A25937  20.619  35.303   7.950
 5154POPC   C4A25938  20.611  35.389   7.650
 5154POPC   C1B25939  20.795  35.174   8.550
 5154POPC   C2B25940  20.784  35.196   8.250
 5154POPC   C3B25941  20.821  35.173   7.950
 5154POPC   C4B25942  20.835  35.251   7.650
 5155POPC   NC325943   4.350   2.749   9.450
 5155POPC   PO425944   4.271   2.735   9.150
 5155POPC   GL125945   4.300   2.815   8.850
 5155POPC   GL225946   4.172   2.772   8.850
 5155POPC   C1A25947   4.312   2.805   8.550
 5155POPC   D2A25948   4.358   2.720   8.250
 5155POPC   C3A25949   4.294   2.751   7.950
 5155POPC   C4A25950   4.268   2.814   7.650
 5155POPC   C1B25951   4.036   2.794   8.550
 5155POPC   C2B25952   4.115   2.762   8.250
 5155POPC   C3B25953   4.068   2.731   7.950
 5155POPC   C4B25954   4.024   2.729   7.650
 5156POPC   NC325955  39.964   5.097   9.450
 5156POPC   PO425956  39.960   5.069   9.150
 5156POPC   GL125957  40.016   5.081   8.850
 5156POPC   GL225958  40.016   4.998   8.850
 5156POPC   C1A25959  40.025   5.051   8.550
 5156POPC   D2A25960  40.040   5.096   8.250
 5156POPC   C3A25961  40.005   5.087   7.950
 5156POPC   C4A25962  40.035   5.112   7.650
 5156POPC   C1B25963  39.968   4.891   8.550
 5156POPC   C2B25964  40.012   4.833   8.250
 5156POPC   C3B25965  39.992   4.867   7.950
 5156POPC   C4B25966  39.979   4.880   7.650
 5157POPC   NC325967   3.581   5.883   9.450
 5157POPC   PO425968   3.505   5.846   9.150
 5157POPC   GL125969   3.495   5.861   8.850
 5157POPC   GL225970   3.470   5.784   8.850
 5157POPC   C1A25971   3.522   5.854   8.550
 5157POPC   D2A25972   3.591   5.870   8.250
 5157POPC   C3A25973   3.580   5.889   7.950
 5157POPC   C4A25974   3.506   5.827   7.650
 5157POPC   C1B25975   3.379   5.668   8.550
 5157POPC   C2B25976   3.414   5.711   8.250
 5157POPC   C3B25977   3.369   5.647   7.950
 5157POPC   C4B25978   3.419   5.699   7.650
 5158POPC   NC325979   8.925  39.208   9.450
 5158POPC   PO425980   9.011  39.182   9.150
 5158POPC   GL125981   9.006  39.183   8.850
 5158POPC   GL225982   9.014  39.109   8.850
 5158POPC   C1A25983   8.954  39.248   8.550
 5158POPC   D2A25984   8.968  39.270   8.250
 5158POPC   C3A25985   8.943  39.255   7.950
 5158POPC   C4A25986   8.958  39.270   7.650
 5158POPC   C1B25987   9.052  39.015   8.550
 5158POPC   C2B25988   9.064  39.051   8.250
 5158POPC   C3B25989   9.061  39.042   7.950
 5158POPC   C4B25990   9.111  38.984   7.650
 5159POPC   NC325991   5.915  33.837   9.450
 5159POPC   PO425992   5.902  33.807   9.150
 5159POPC   GL125993   5.820  33.781   8.850
 5159POPC   GL225994   6.006  33.825   8.850
 5159POPC   C1A25995   5.889  33.784   8.550
 5159POPC   D2A25996   5.873  33.773   8.250
 5159POPC   C3A25997   5.909  33.763   7.950
 5159POPC   C4A25998   5.880  33.786   7.650
 5159POPC   C1B25999   6.149  33.804   8.550
 5159POPC   C2B26000   6.116  33.822   8.250
 5159POPC   C3B26001   6.130  33.854   7.950
 5159POPC   C4B26002   6.068  33.786   7.650
 5160POPC   NC326003  12.819  31.438   9.450
 5160POPC   PO426004  12.900  31.497   9.150
 5160POPC   GL126005  12.848  31.452   8.850
 5160POPC   GL226006  12.833  31.358   8.850
 5160POPC   C1A26007  12.866  31.514   8.550
 5160POPC   D2A26008  12.847  31.429   8.250
 5160POPC   C3A26009  12.825  31.449   7.950
 5160POPC   C4A26010  12.856  31.458   7.650
 5160POPC   C1B26011  12.720  31.196   8.550
 5160POPC   C2B26012  12.738  31.255   8.250
 5160POPC   C3B26013  12.796  31.241   7.950
 5160POPC   C4B26014  12.737  31.232   7.650
 5161POPC   NC326015  25.233   5.127   9.450
 5161POPC   PO426016  25.287   5.119   9.150
 5161POPC   GL126017  25.235   5.065   8.850
 5161POPC   GL226018  25.167   5.130   8.850
 5161POPC   C1A26019  25.220   5.065   8.550
 5161POPC   D2A26020  25.287   5.119   8.250
 5161POPC   C3A26021  25.272   5.109   7.950
 5161POPC   C4A26022  25.254   5.105   7.650
 5161POPC   C1B26023  25.022   5.229   8.550
 5161POPC   C2B26024  25.103   5.276   8.250
 5161POPC   C3B26025  25.021   5.191   7.950
 5161POPC   C4B26026  25.094   5.257   7.650
 5162POPC   NC326027  40.038   9.738   9.450
 5162POPC   PO426028  40.027   9.788   9.150
 5162POPC   GL126029  40.007   9.797   8.850
 5162POPC   GL226030  39.921   9.883   8.850
 5162POPC   C1A26031  39.969   9.753   8.550
 5162POPC   D2A26032  39.987   9.768   8.250
 5162POPC   C3A26033  39.993   9.710   7.950
 5162POPC   C4A26034  39.975   9.720   7.650
 5162POPC   C1B26035  39.855   9.954   8.550
 5162POPC   C2B26036  39.885   9.910   8.250
 5162POPC   C3B26037  39.814   9.969   7.950
 5162POPC   C4B26038  39.860   9.957   7.650
 5163POPC   NC326039  41.592  12.080   9.450
 5163POPC   PO426040  41.560  12.118   9.150
 5163POPC   GL126041  41.520  12.081   8.850
 5163POPC   GL226042  41.728  12.024   8.850
 5163POPC   C1A26043  41.539  12.116   8.550
 5163POPC   D2A26044  41.542  12.099   8.250
 5163POPC   C3A26045  41.605  12.095   7.950
 5163POPC   C4A26046  41.514  12.092   7.650
 5163POPC   C1B26047  41.776  11.977   8.550
 5163POPC   C2B26048  41.777  12.062   8.250
 5163POPC   C3B26049  41.770  12.048   7.950
 5163POPC   C4B26050  41.753  12.053   7.650
 5164POPC   NC326051  29.118  15.223   9.450
 5164POPC   PO426052  29.105  15.161   9.150
 5164POPC   GL126053  29.108  15.167   8.850
 5164POPC   GL226054  29.192  15.044   8.850
 5164POPC   C1A26055  29.176  15.155   8.550
 5164POPC   D2A26056  29.104  15.140   8.250
 5164POPC   C3A26057  29.134  15.152   7.950
 5164POPC   C4A26058  29.157  15.142   7.650
 5164POPC   C1B26059  29.289  14.945   8.550
 5164POPC   C2B26060  29.260  14.970   8.250
 5164POPC   C3B26061  29.307  14.929   7.950
 5164POPC   C4B26062  29.342  14.948   7.650
 5165POPC   NC326063  27.625  10.511   9.450
 5165POPC   PO426064  27.643  10.543   9.150
 5165POPC   GL126065  27.620  10.538   8.850
 5165POPC   GL226066  27.652  10.649   8.850
 5165POPC   C1A26067  27.616  10.541   8.550
 5165POPC   D2A26068  27.572  10.534   8.250
 5165POPC   C3A26069  27.562  10.509   7.950
 5165POPC   C4A26070  27.552  10.541   7.650
 5165POPC   C1B26071  27.596  10.750   8.550
 5165POPC   C2B26072  27.601  10.765   8.250
 5165POPC   C3B26073  27.676  10.729   7.950
 5165POPC   C4B26074  27.656  10.817   7.650
 5166POPC   NC326075  19.062   8.161   9.450
 5166POPC   PO426076  19.090   8.245   9.150
 5166POPC   GL126077  19.050   8.231   8.850
 5166POPC   GL226078  19.097   8.264   8.850
 5166POPC   C1A26079  19.021   8.208   8.550
 5166POPC   D2A26080  19.045   8.235   8.250
 5166POPC   C3A26081  19.073   8.238   7.950
 5166POPC   C4A26082  19.037   8.238   7.650
 5166POPC   C1B26083  19.247   8.427   8.550
 5166POPC   C2B26084  19.267   8.374   8.250
 5166POPC   C3B26085  19.226   8.365   7.950
 5166POPC   C4B26086  19.238   8.332   7.650
 5167POPC   NC326087  20.631  33.047   9.450
 5167POPC   PO426088  20.606  33.018   9.150
 5167POPC   GL126089  20.650  33.010   8.850
 5167POPC   GL226090  20.533  33.127   8.850
 5167POPC   C1A26091  20.642  33.057   8.550
 5167POPC   D2A26092  20.565  32.976   8.250
 5167POPC   C3A26093  20.626  32.979   7.950
 5167POPC   C4A26094  20.625  32.992   7.650
 5167POPC   C1B26095  20.448  33.283   8.550
 5167POPC   C2B26096  20.527  33.262   8.250
 5167POPC   C3B26097  20.531  33.220   7.950
 5167POPC   C4B26098  20.457  33.251   7.650
 5168POPC   NC326099  32.298  36.139   9.450
 5168POPC   PO426100  32.234  36.081   9.150
 5168POPC   GL126101  32.249  36.084   8.850
 5168POPC   GL226102  32.192  36.266   8.850
 5168POPC   C1A26103  32.204  36.097   8.550
 5168POPC   D2A26104  32.199  36.128   8.250
 5168POPC   C3A26105  32.289  36.083   7.950
 5168POPC   C4A26106  32.232  36.129   7.650
 5168POPC   C1B26107  32.082  36.390   8.550
 5168POPC   C2B26108  32.082  36.316   8.250
 5168POPC   C3B26109  32.088  36.376   7.950
 5168POPC   C4B26110  32.129  36.391   7.650
 5169POPC   NC326111  27.619  21.369   9.450
 5169POPC   PO426112  27.624  21.380   9.150
 5169POPC   GL126113  27.625  21.422   8.850
 5169POPC   GL226114  27.512  21.455   8.850
 5169POPC   C1A26115  27.614  21.416   8.550
 5169POPC   D2A26116  27.620  21.426   8.250
 5169POPC   C3A26117  27.624  21.345   7.950
 5169POPC   C4A26118  27.623  21.402   7.650
 5169POPC   C1B26119  27.378  21.613   8.550
 5169POPC   C2B26120  27.468  21.536   8.250
 5169POPC   C3B26121  27.438  21.558   7.950
 5169POPC   C4B26122  27.439  21.528   7.650
 5170POPC   NC326123  21.351  30.672   9.450
 5170POPC   PO426124  21.409  30.707   9.150
 5170POPC   GL126125  21.422  30.691   8.850
 5170POPC   GL226126  21.254  30.672   8.850
 5170POPC   C1A26127  21.362  30.668   8.550
 5170POPC   D2A26128  21.431  30.683   8.250
 5170POPC   C3A26129  21.387  30.686   7.950
 5170POPC   C4A26130  21.346  30.653   7.650
 5170POPC   C1B26131  21.119  30.624   8.550
 5170POPC   C2B26132  21.118  30.583   8.250
 5170POPC   C3B26133  21.131  30.599   7.950
 5170POPC   C4B26134  21.137  30.653   7.650
 5171POPC   NC326135   9.789  10.540   9.450
 5171POPC   PO426136   9.722  10.478   9.150
 5171POPC   GL126137   9.763  10.513   8.850
 5171POPC   GL226138   9.733  10.651   8.850
 5171POPC   C1A26139   9.731  10.566   8.550
 5171POPC   D2A26140   9.701  10.508   8.250
 5171POPC   C3A26141   9.773  10.558   7.950
 5171POPC   C4A26142   9.798  10.489   7.650
 5171POPC   C1B26143   9.721  10.739   8.550
 5171POPC   C2B26144   9.695  10.803   8.250
 5171POPC   C3B26145   9.673  10.771   7.950
 5171POPC   C4B26146   9.650  10.774   7.650
 5172POPC   NC326147   5.858  35.348   9.450
 5172POPC   PO426148   5.912  35.391   9.150
 5172POPC   GL126149   5.916  35.331   8.850
 5172POPC   GL226150   5.834  35.486   8.850
 5172POPC   C1A26151   5.905  35.323   8.550
 5172POPC   D2A26152   5.893  35.390   8.250
 5172POPC   C3A26153   5.918  35.373   7.950
 5172POPC   C4A26154   5.835  35.338   7.650
 5172POPC   C1B26155   5.656  35.540   8.550
 5172POPC   C2B26156   5.723  35.529   8.250
 5172POPC   C3B26157   5.677  35.577   7.950
 5172POPC   C4B26158   5.703  35.515   7.650
 5173POPC   NC326159  38.494  16.723   9.450
 5173POPC   PO426160  38.438  16.724   9.150
 5173POPC   GL126161  38.424  16.697   8.850
 5173POPC   GL226162  38.374  16.779   8.850
 5173POPC   C1A26163  38.490  16.682   8.550
 5173POPC   D2A26164  38.496  16.692   8.250
 5173POPC   C3A26165  38.472  16.761   7.950
 5173POPC   C4A26166  38.443  16.728   7.650
 5173POPC   C1B26167  38.338  16.961   8.550
 5173POPC   C2B26168  38.270  16.871   8.250
 5173POPC   C3B26169  38.315  16.938   7.950
 5173POPC   C4B26170  38.322  16.930   7.650
 5174POPC   NC326171   6.663  26.057   9.450
 5174POPC   PO426172   6.666  26.026   9.150
 5174POPC   GL126173   6.641  26.047   8.850
 5174POPC   GL226174   6.703  26.094   8.850
 5174POPC   C1A26175   6.689  26.028   8.550
 5174POPC   D2A26176   6.626  26.080   8.250
 5174POPC   C3A26177   6.690  26.090   7.950
 5174POPC   C4A26178   6.641  26.061   7.650
 5174POPC   C1B26179   6.749  26.280   8.550
 5174POPC   C2B26180   6.748  26.231   8.250
 5174POPC   C3B26181   6.794  26.267   7.950
 5174POPC   C4B26182   6.756  26.199   7.650
 5175POPC   NC326183  29.189  12.052   9.450
 5175POPC   PO426184  29.125  12.042   9.150
 5175POPC   GL126185  29.120  12.075   8.850
 5175POPC   GL226186  29.252  12.121   8.850
 5175POPC   C1A26187  29.119  12.103   8.550
 5175POPC   D2A26188  29.172  12.052   8.250
 5175POPC   C3A26189  29.097  12.033   7.950
 5175POPC   C4A26190  29.115  12.087   7.650
 5175POPC   C1B26191  29.268  12.253   8.550
 5175POPC   C2B26192  29.334  12.223   8.250
 5175POPC   C3B26193  29.324  12.211   7.950
 5175POPC   C4B26194  29.323  12.290   7.650
 5176POPC   NC326195  30.648  39.224   9.450
 5176POPC   PO426196  30.699  39.211   9.150
 5176POPC   GL126197  30.672  39.210   8.850
 5176POPC   GL226198  30.593  39.261   8.850
 5176POPC   C1A26199  30.661  39.221   8.550
 5176POPC   D2A26200  30.710  39.245   8.250
 5176POPC   C3A26201  30.720  39.270   7.950
 5176POPC   C4A26202  30.699  39.199   7.650
 5176POPC   C1B26203  30.445  39.350   8.550
 5176POPC   C2B26204  30.445  39.284   8.250
 5176POPC   C3B26205  30.454  39.350   7.950
 5176POPC   C4B26206  30.427  39.354   7.650
 5177POPC   NC326207   4.286  27.639   9.450
 5177POPC   PO426208   4.365  27.635   9.150
 5177POPC   GL126209   4.269  27.572   8.850
 5177POPC   GL226210   4.209  27.742   8.850
 5177POPC   C1A26211   4.312  27.584   8.550
 5177POPC   D2A26212   4.345  27.642   8.250
 5177POPC   C3A26213   4.350  27.566   7.950
 5177POPC   C4A26214   4.327  27.584   7.650
 5177POPC   C1B26215   4.177  27.784   8.550
 5177POPC   C2B26216   4.213  27.803   8.250
 5177POPC   C3B26217   4.217  27.783   7.950
 5177POPC   C4B26218   4.208  27.820   7.650
 5178POPC   NC326219  25.283  19.882   9.450
 5178POPC   PO426220  25.315  19.820   9.150
 5178POPC   GL126221  25.298  19.810   8.850
 5178POPC   GL226222  25.095  19.863   8.850
 5178POPC   C1A26223  25.292  19.881   8.550
 5178POPC   D2A26224  25.305  19.858   8.250
 5178POPC   C3A26225  25.268  19.787   7.950
 5178POPC   C4A26226  25.254  19.826   7.650
 5178POPC   C1B26227  24.983  19.871   8.550
 5178POPC   C2B26228  24.968  19.829   8.250
 5178POPC   C3B26229  25.046  19.860   7.950
 5178POPC   C4B26230  24.993  19.853   7.650
 5179POPC   NC326231  19.825  25.293   9.450
 5179POPC   PO426232  19.811  25.308   9.150
 5179POPC   GL126233  19.824  25.251   8.850
 5179POPC   GL226234  19.786  25.369   8.850
 5179POPC   C1A26235  19.830  25.239   8.550
 5179POPC   D2A26236  19.798  25.255   8.250
 5179POPC   C3A26237  19.817  25.280   7.950
 5179POPC   C4A26238  19.848  25.223   7.650
 5179POPC   C1B26239  19.653  25.494   8.550
 5179POPC   C2B26240  19.635  25.436   8.250
 5179POPC   C3B26241  19.671  25.427   7.950
 5179POPC   C4B26242  19.639  25.409   7.650
 5180POPC   NC326243  33.829   5.835   9.450
 5180POPC   PO426244  33.842   5.913   9.150
 5180POPC   GL126245  33.810   5.833   8.850
 5180POPC   GL226246  33.786   5.774   8.850
 5180POPC   C1A26247  33.815   5.879   8.550
 5180POPC   D2A26248  33.766   5.893   8.250
 5180POPC   C3A26249  33.770   5.835   7.950
 5180POPC   C4A26250  33.804   5.827   7.650
 5180POPC   C1B26251  33.828   5.600   8.550
 5180POPC   C2B26252  33.877   5.631   8.250
 5180POPC   C3B26253  33.873   5.630   7.950
 5180POPC   C4B26254  33.861   5.640   7.650
 5181POPC   NC326255  12.858  44.696   9.450
 5181POPC   PO426256  12.887  44.682   9.150
 5181POPC   GL126257  12.876  44.618   8.850
 5181POPC   GL226258  12.893  44.508   8.850
 5181POPC   C1A26259  12.827  44.672   8.550
 5181POPC   D2A26260  12.854  44.680   8.250
 5181POPC   C3A26261  12.836  44.632   7.950
 5181POPC   C4A26262  12.805  44.662   7.650
 5181POPC   C1B26263  12.897  44.445   8.550
 5181POPC   C2B26264  12.864  44.446   8.250
 5181POPC   C3B26265  12.909  44.466   7.950
 5181POPC   C4B26266  12.935  44.370   7.650
 5182POPC   NC326267  42.289  12.890   9.450
 5182POPC   PO426268  42.306  12.836   9.150
 5182POPC   GL126269  42.368  12.887   8.850
 5182POPC   GL226270  42.175  12.862   8.850
 5182POPC   C1A26271  42.296  12.898   8.550
 5182POPC   D2A26272  42.338  12.852   8.250
 5182POPC   C3A26273  42.299  12.860   7.950
 5182POPC   C4A26274  42.338  12.863   7.650
 5182POPC   C1B26275  42.048  12.830   8.550
 5182POPC   C2B26276  42.083  12.838   8.250
 5182POPC   C3B26277  42.052  12.809   7.950
 5182POPC   C4B26278  42.098  12.751   7.650
 5183POPC   NC326279   8.937  20.596   9.450
 5183POPC   PO426280   8.995  20.638   9.150
 5183POPC   GL126281   8.952  20.584   8.850
 5183POPC   GL226282   8.815  20.631   8.850
 5183POPC   C1A26283   8.955  20.656   8.550
 5183POPC   D2A26284   8.982  20.580   8.250
 5183POPC   C3A26285   8.973  20.640   7.950
 5183POPC   C4A26286   8.972  20.614   7.650
 5183POPC   C1B26287   8.680  20.566   8.550
 5183POPC   C2B26288   8.764  20.577   8.250
 5183POPC   C3B26289   8.676  20.606   7.950
 5183POPC   C4B26290   8.761  20.617   7.650
 5184POPC   NC326291  23.684  12.854   9.450
 5184POPC   PO426292  23.686  12.817   9.150
 5184POPC   GL126293  23.664  12.881   8.850
 5184POPC   GL226294  23.666  13.012   8.850
 5184POPC   C1A26295  23.746  12.806   8.550
 5184POPC   D2A26296  23.678  12.825   8.250
 5184POPC   C3A26297  23.755  12.871   7.950
 5184POPC   C4A26298  23.725  12.811   7.650
 5184POPC   C1B26299  23.733  13.104   8.550
 5184POPC   C2B26300  23.715  13.059   8.250
 5184POPC   C3B26301  23.671  13.052   7.950
 5184POPC   C4B26302  23.675  13.150   7.650
 5185POPC   NC326303  30.650  27.557   9.450
 5185POPC   PO426304  30.696  27.642   9.150
 5185POPC   GL126305  30.742  27.599   8.850
 5185POPC   GL226306  30.595  27.465   8.850
 5185POPC   C1A26307  30.659  27.578   8.550
 5185POPC   D2A26308  30.733  27.577   8.250
 5185POPC   C3A26309  30.674  27.600   7.950
 5185POPC   C4A26310  30.697  27.626   7.650
 5185POPC   C1B26311  30.512  27.471   8.550
 5185POPC   C2B26312  30.462  27.436   8.250
 5185POPC   C3B26313  30.526  27.415   7.950
 5185POPC   C4B26314  30.492  27.403   7.650
 5186POPC   NC326315  39.969  36.885   9.450
 5186POPC   PO426316  39.990  36.883   9.150
 5186POPC   GL126317  39.978  36.908   8.850
 5186POPC   GL226318  40.068  36.834   8.850
 5186POPC   C1A26319  39.991  36.917   8.550
 5186POPC   D2A26320  39.973  36.883   8.250
 5186POPC   C3A26321  40.054  36.925   7.950
 5186POPC   C4A26322  40.025  36.884   7.650
 5186POPC   C1B26323  40.172  36.766   8.550
 5186POPC   C2B26324  40.220  36.717   8.250
 5186POPC   C3B26325  40.175  36.771   7.950
 5186POPC   C4B26326  40.198  36.765   7.650
 5187POPC   NC326327  11.274  42.326   9.450
 5187POPC   PO426328  11.327  42.292   9.150
 5187POPC   GL126329  11.307  42.362   8.850
 5187POPC   GL226330  11.249  42.482   8.850
 5187POPC   C1A26331  11.339  42.341   8.550
 5187POPC   D2A26332  11.279  42.341   8.250
 5187POPC   C3A26333  11.275  42.329   7.950
 5187POPC   C4A26334  11.302  42.366   7.650
 5187POPC   C1B26335  11.190  42.559   8.550
 5187POPC   C2B26336  11.227  42.619   8.250
 5187POPC   C3B26337  11.278  42.575   7.950
 5187POPC   C4B26338  11.228  42.544   7.650
 5188POPC   NC326339  40.800   2.731   9.450
 5188POPC   PO426340  40.733   2.762   9.150
 5188POPC   GL126341  40.794   2.803   8.850
 5188POPC   GL226342  40.660   2.794   8.850
 5188POPC   C1A26343  40.797   2.729   8.550
 5188POPC   D2A26344  40.796   2.740   8.250
 5188POPC   C3A26345  40.816   2.804   7.950
 5188POPC   C4A26346  40.832   2.743   7.650
 5188POPC   C1B26347  40.555   2.790   8.550
 5188POPC   C2B26348  40.492   2.786   8.250
 5188POPC   C3B26349  40.549   2.810   7.950
 5188POPC   C4B26350  40.528   2.836   7.650
 5189POPC   NC326351   2.718  21.382   9.450
 5189POPC   PO426352   2.731  21.382   9.150
 5189POPC   GL126353   2.775  21.354   8.850
 5189POPC   GL226354   2.718  21.226   8.850
 5189POPC   C1A26355   2.786  21.345   8.550
 5189POPC   D2A26356   2.768  21.342   8.250
 5189POPC   C3A26357   2.750  21.426   7.950
 5189POPC   C4A26358   2.787  21.380   7.650
 5189POPC   C1B26359   2.761  21.105   8.550
 5189POPC   C2B26360   2.712  21.094   8.250
 5189POPC   C3B26361   2.717  21.127   7.950
 5189POPC   C4B26362   2.678  21.093   7.650
 5190POPC   NC326363  29.192  26.039   9.450
 5190POPC   PO426364  29.123  26.023   9.150
 5190POPC   GL126365  29.149  26.028   8.850
 5190POPC   GL226366  29.283  26.056   8.850
 5190POPC   C1A26367  29.180  26.018   8.550
 5190POPC   D2A26368  29.129  26.071   8.250
 5190POPC   C3A26369  29.176  26.091   7.950
 5190POPC   C4A26370  29.166  25.996   7.650
 5190POPC   C1B26371  29.407  26.206   8.550
 5190POPC   C2B26372  29.413  26.209   8.250
 5190POPC   C3B26373  29.414  26.161   7.950
 5190POPC   C4B26374  29.393  26.116   7.650
 5191POPC   NC326375   3.573  42.369   9.450
 5191POPC   PO426376   3.548  42.377   9.150
 5191POPC   GL126377   3.532  42.378   8.850
 5191POPC   GL226378   3.568  42.484   8.850
 5191POPC   C1A26379   3.537  42.367   8.550
 5191POPC   D2A26380   3.547  42.311   8.250
 5191POPC   C3A26381   3.535  42.357   7.950
 5191POPC   C4A26382   3.517  42.299   7.650
 5191POPC   C1B26383   3.602  42.524   8.550
 5191POPC   C2B26384   3.637  42.583   8.250
 5191POPC   C3B26385   3.657  42.585   7.950
 5191POPC   C4B26386   3.588  42.607   7.650
 5192POPC   NC326387   7.448  15.189   9.450
 5192POPC   PO426388   7.466  15.178   9.150
 5192POPC   GL126389   7.443  15.174   8.850
 5192POPC   GL226390   7.297  15.224   8.850
 5192POPC   C1A26391   7.381  15.177   8.550
 5192POPC   D2A26392   7.378  15.140   8.250
 5192POPC   C3A26393   7.467  15.186   7.950
 5192POPC   C4A26394   7.445  15.220   7.650
 5192POPC   C1B26395   7.158  15.214   8.550
 5192POPC   C2B26396   7.209  15.140   8.250
 5192POPC   C3B26397   7.179  15.163   7.950
 5192POPC   C4B26398   7.133  15.203   7.650
 5193POPC   NC326399  17.473  15.993   9.450
 5193POPC   PO426400  17.528  15.991   9.150
 5193POPC   GL126401  17.522  15.970   8.850
 5193POPC   GL226402  17.377  15.998   8.850
 5193POPC   C1A26403  17.460  15.950   8.550
 5193POPC   D2A26404  17.537  15.910   8.250
 5193POPC   C3A26405  17.487  15.996   7.950
 5193POPC   C4A26406  17.533  15.919   7.650
 5193POPC   C1B26407  17.355  16.090   8.550
 5193POPC   C2B26408  17.283  16.106   8.250
 5193POPC   C3B26409  17.360  16.139   7.950
 5193POPC   C4B26410  17.300  16.126   7.650
 5194POPC   NC326411  11.304  43.896   9.450
 5194POPC   PO426412  11.296  43.913   9.150
 5194POPC   GL126413  11.257  43.892   8.850
 5194POPC   GL226414  11.338  44.004   8.850
 5194POPC   C1A26415  11.263  43.883   8.550
 5194POPC   D2A26416  11.285  43.857   8.250
 5194POPC   C3A26417  11.342  43.864   7.950
 5194POPC   C4A26418  11.276  43.884   7.650
 5194POPC   C1B26419  11.281  44.120   8.550
 5194POPC   C2B26420  11.304  44.151   8.250
 5194POPC   C3B26421  11.332  44.120   7.950
 5194POPC   C4B26422  11.291  44.129   7.650
 5195POPC   NC326423  43.896  20.575   9.450
 5195POPC   PO426424  43.918  20.620   9.150
 5195POPC   GL126425  43.920  20.579   8.850
 5195POPC   GL226426  44.030  20.568   8.850
 5195POPC   C1A26427  43.898  20.656   8.550
 5195POPC   D2A26428  43.909  20.584   8.250
 5195POPC   C3A26429  43.924  20.619   7.950
 5195POPC   C4A26430  43.903  20.634   7.650
 5195POPC   C1B26431  44.106  20.657   8.550
 5195POPC   C2B26432  44.148  20.664   8.250
 5195POPC   C3B26433  44.149  20.581   7.950
 5195POPC   C4B26434  44.176  20.652   7.650
 5196POPC   NC326435  18.283  36.895   9.450
 5196POPC   PO426436  18.235  36.932   9.150
 5196POPC   GL126437  18.266  36.882   8.850
 5196POPC   GL226438  18.394  36.903   8.850
 5196POPC   C1A26439  18.236  36.876   8.550
 5196POPC   D2A26440  18.292  36.948   8.250
 5196POPC   C3A26441  18.234  36.872   7.950
 5196POPC   C4A26442  18.280  36.893   7.650
 5196POPC   C1B26443  18.506  36.812   8.550
 5196POPC   C2B26444  18.469  36.796   8.250
 5196POPC   C3B26445  18.557  36.844   7.950
 5196POPC   C4B26446  18.497  36.852   7.650
 5197POPC   NC326447  13.603   8.176   9.450
 5197POPC   PO426448  13.661   8.193   9.150
 5197POPC   GL126449  13.618   8.173   8.850
 5197POPC   GL226450  13.604   8.304   8.850
 5197POPC   C1A26451  13.636   8.175   8.550
 5197POPC   D2A26452  13.639   8.178   8.250
 5197POPC   C3A26453  13.603   8.186   7.950
 5197POPC   C4A26454  13.668   8.200   7.650
 5197POPC   C1B26455  13.667   8.400   8.550
 5197POPC   C2B26456  13.620   8.421   8.250
 5197POPC   C3B26457  13.598   8.457   7.950
 5197POPC   C4B26458  13.639   8.417   7.650
 5198POPC   NC326459  14.401   1.249   9.450
 5198POPC   PO426460  14.450   1.218   9.150
 5198POPC   GL126461  14.361   1.240   8.850
 5198POPC   GL226462  14.434   1.103   8.850
 5198POPC   C1A26463  14.395   1.234   8.550
 5198POPC   D2A26464  14.397   1.202   8.250
 5198POPC   C3A26465  14.428   1.235   7.950
 5198POPC   C4A26466  14.394   1.197   7.650
 5198POPC   C1B26467  14.568   1.020   8.550
 5198POPC   C2B26468  14.521   0.960   8.250
 5198POPC   C3B26469  14.512   0.996   7.950
 5198POPC   C4B26470  14.530   1.026   7.650
 5199POPC   NC326471  42.329  40.734   9.450
 5199POPC   PO426472  42.308  40.809   9.150
 5199POPC   GL126473  42.354  40.778   8.850
 5199POPC   GL226474  42.265  40.851   8.850
 5199POPC   C1A26475  42.342  40.737   8.550
 5199POPC   D2A26476  42.294  40.738   8.250
 5199POPC   C3A26477  42.301  40.793   7.950
 5199POPC   C4A26478  42.355  40.787   7.650
 5199POPC   C1B26479  42.242  40.992   8.550
 5199POPC   C2B26480  42.230  41.018   8.250
 5199POPC   C3B26481  42.177  40.988   7.950
 5199POPC   C4B26482  42.179  40.955   7.650
 5200POPC   NC326483  21.365  24.526   9.450
 5200POPC   PO426484  21.358  24.453   9.150
 5200POPC   GL126485  21.433  24.468   8.850
 5200POPC   GL226486  21.438  24.414   8.850
 5200POPC   C1A26487  21.399  24.464   8.550
 5200POPC   D2A26488  21.350  24.529   8.250
 5200POPC   C3A26489  21.431  24.529   7.950
 5200POPC   C4A26490  21.402  24.461   7.650
 5200POPC   C1B26491  21.516  24.299   8.550
 5200POPC   C2B26492  21.515  24.233   8.250
 5200POPC   C3B26493  21.471  24.278   7.950
 5200POPC   C4B26494  21.432  24.277   7.650
 5201POPC   NC326495  27.611  34.585   9.450
 5201POPC   PO426496  27.635  34.573   9.150
 5201POPC   GL126497  27.580  34.611   8.850
 5201POPC   GL226498  27.591  34.493   8.850
 5201POPC   C1A26499  27.549  34.539   8.550
 5201POPC   D2A26500  27.553  34.600   8.250
 5201POPC   C3A26501  27.625  34.608   7.950
 5201POPC   C4A26502  27.582  34.559   7.650
 5201POPC   C1B26503  27.675  34.335   8.550
 5201POPC   C2B26504  27.661  34.368   8.250
 5201POPC   C3B26505  27.642  34.379   7.950
 5201POPC   C4B26506  27.683  34.334   7.650
 5202POPC   NC326507   5.116  32.976   9.450
 5202POPC   PO426508   5.125  33.028   9.150
 5202POPC   GL126509   5.127  32.986   8.850
 5202POPC   GL226510   5.186  33.067   8.850
 5202POPC   C1A26511   5.047  33.010   8.550
 5202POPC   D2A26512   5.075  33.038   8.250
 5202POPC   C3A26513   5.137  33.015   7.950
 5202POPC   C4A26514   5.044  33.012   7.650
 5202POPC   C1B26515   5.302  33.130   8.550
 5202POPC   C2B26516   5.302  33.053   8.250
 5202POPC   C3B26517   5.317  33.052   7.950
 5202POPC   C4B26518   5.340  33.093   7.650
 5203POPC   NC326519  16.776   8.183   9.450
 5203POPC   PO426520  16.735   8.156   9.150
 5203POPC   GL126521  16.711   8.177   8.850
 5203POPC   GL226522  16.605   8.191   8.850
 5203POPC   C1A26523  16.766   8.193   8.550
 5203POPC   D2A26524  16.686   8.224   8.250
 5203POPC   C3A26525  16.713   8.206   7.950
 5203POPC   C4A26526  16.760   8.202   7.650
 5203POPC   C1B26527  16.454   8.099   8.550
 5203POPC   C2B26528  16.541   8.122   8.250
 5203POPC   C3B26529  16.451   8.071   7.950
 5203POPC   C4B26530  16.538   8.137   7.650
 5204POPC   NC326531   5.867  13.592   9.450
 5204POPC   PO426532   5.826  13.628   9.150
 5204POPC   GL126533   5.841  13.596   8.850
 5204POPC   GL226534   5.996  13.564   8.850
 5204POPC   C1A26535   5.832  13.650   8.550
 5204POPC   D2A26536   5.918  13.655   8.250
 5204POPC   C3A26537   5.842  13.667   7.950
 5204POPC   C4A26538   5.890  13.579   7.650
 5204POPC   C1B26539   6.052  13.494   8.550
 5204POPC   C2B26540   6.132  13.543   8.250
 5204POPC   C3B26541   6.143  13.516   7.950
 5204POPC   C4B26542   6.051  13.551   7.650
 5205POPC   NC326543  12.877   7.432   9.450
 5205POPC   PO426544  12.858   7.446   9.150
 5205POPC   GL126545  12.862   7.408   8.850
 5205POPC   GL226546  12.707   7.374   8.850
 5205POPC   C1A26547  12.893   7.435   8.550
 5205POPC   D2A26548  12.826   7.383   8.250
 5205POPC   C3A26549  12.877   7.412   7.950
 5205POPC   C4A26550  12.824   7.459   7.650
 5205POPC   C1B26551  12.620   7.347   8.550
 5205POPC   C2B26552  12.579   7.273   8.250
 5205POPC   C3B26553  12.611   7.350   7.950
 5205POPC   C4B26554  12.609   7.320   7.650
 5206POPC   NC326555   2.020  22.924   9.450
 5206POPC   PO426556   1.980  22.910   9.150
 5206POPC   GL126557   1.963  22.902   8.850
 5206POPC   GL226558   1.954  22.880   8.850
 5206POPC   C1A26559   2.001  22.921   8.550
 5206POPC   D2A26560   1.959  22.987   8.250
 5206POPC   C3A26561   1.942  22.968   7.950
 5206POPC   C4A26562   1.956  22.970   7.650
 5206POPC   C1B26563   1.834  22.755   8.550
 5206POPC   C2B26564   1.872  22.686   8.250
 5206POPC   C3B26565   1.824  22.720   7.950
 5206POPC   C4B26566   1.873  22.717   7.650
 5207POPC   NC326567  26.044   9.003   9.450
 5207POPC   PO426568  26.031   8.925   9.150
 5207POPC   GL126569  26.044   8.993   8.850
 5207POPC   GL226570  25.942   8.984   8.850
 5207POPC   C1A26571  25.996   9.001   8.550
 5207POPC   D2A26572  26.071   8.932   8.250
 5207POPC   C3A26573  26.037   9.017   7.950
 5207POPC   C4A26574  26.078   9.016   7.650
 5207POPC   C1B26575  25.753   9.003   8.550
 5207POPC   C2B26576  25.764   8.987   8.250
 5207POPC   C3B26577  25.794   8.907   7.950
 5207POPC   C4B26578  25.798   8.971   7.650
 5208POPC   NC326579  39.184  32.283   9.450
 5208POPC   PO426580  39.209  32.262   9.150
 5208POPC   GL126581  39.205  32.230   8.850
 5208POPC   GL226582  39.098  32.294   8.850
 5208POPC   C1A26583  39.273  32.217   8.550
 5208POPC   D2A26584  39.269  32.269   8.250
 5208POPC   C3A26585  39.268  32.219   7.950
 5208POPC   C4A26586  39.230  32.224   7.650
 5208POPC   C1B26587  39.068  32.415   8.550
 5208POPC   C2B26588  39.013  32.412   8.250
 5208POPC   C3B26589  39.100  32.462   7.950
 5208POPC   C4B26590  39.075  32.445   7.650
 5209POPC   NC326591  14.436  11.303   9.450
 5209POPC   PO426592  14.409  11.307   9.150
 5209POPC   GL126593  14.437  11.265   8.850
 5209POPC   GL226594  14.565  11.270   8.850
 5209POPC   C1A26595  14.368  11.304   8.550
 5209POPC   D2A26596  14.390  11.318   8.250
 5209POPC   C3A26597  14.376  11.261   7.950
 5209POPC   C4A26598  14.363  11.266   7.650
 5209POPC   C1B26599  14.688  11.245   8.550
 5209POPC   C2B26600  14.661  11.264   8.250
 5209POPC   C3B26601  14.629  11.236   7.950
 5209POPC   C4B26602  14.620  11.246   7.650
 5210POPC   NC326603  39.959  39.973   9.450
 5210POPC   PO426604  40.042  39.988   9.150
 5210POPC   GL126605  40.003  40.040   8.850
 5210POPC   GL226606  39.961  39.935   8.850
 5210POPC   C1A26607  40.001  40.034   8.550
 5210POPC   D2A26608  40.037  40.052   8.250
 5210POPC   C3A26609  39.972  39.964   7.950
 5210POPC   C4A26610  40.014  40.020   7.650
 5210POPC   C1B26611  39.906  39.748   8.550
 5210POPC   C2B26612  39.933  39.772   8.250
 5210POPC   C3B26613  39.882  39.751   7.950
 5210POPC   C4B26614  39.901  39.761   7.650
 5211POPC   NC326615  40.039   8.930   9.450
 5211POPC   PO426616  40.025   8.963   9.150
 5211POPC   GL126617  40.024   8.938   8.850
 5211POPC   GL226618  40.029   8.836   8.850
 5211POPC   C1A26619  39.959   8.954   8.550
 5211POPC   D2A26620  39.997   8.996   8.250
 5211POPC   C3A26621  39.959   8.937   7.950
 5211POPC   C4A26622  40.035   9.021   7.650
 5211POPC   C1B26623  39.976   8.688   8.550
 5211POPC   C2B26624  39.978   8.688   8.250
 5211POPC   C3B26625  39.981   8.731   7.950
 5211POPC   C4B26626  39.982   8.717   7.650
 5212POPC   NC326627  36.912  33.020   9.450
 5212POPC   PO426628  36.949  32.976   9.150
 5212POPC   GL126629  36.904  33.057   8.850
 5212POPC   GL226630  36.779  33.020   8.850
 5212POPC   C1A26631  36.859  33.055   8.550
 5212POPC   D2A26632  36.925  33.002   8.250
 5212POPC   C3A26633  36.935  32.999   7.950
 5212POPC   C4A26634  36.926  33.045   7.650
 5212POPC   C1B26635  36.617  32.910   8.550
 5212POPC   C2B26636  36.652  32.999   8.250
 5212POPC   C3B26637  36.690  32.914   7.950
 5212POPC   C4B26638  36.681  32.927   7.650
 5213POPC   NC326639  40.004  19.038   9.450
 5213POPC   PO426640  40.055  19.079   9.150
 5213POPC   GL126641  39.959  19.010   8.850
 5213POPC   GL226642  40.105  19.053   8.850
 5213POPC   C1A26643  40.010  19.052   8.550
 5213POPC   D2A26644  39.970  19.055   8.250
 5213POPC   C3A26645  40.032  19.060   7.950
 5213POPC   C4A26646  40.001  19.097   7.650
 5213POPC   C1B26647  40.208  19.138   8.550
 5213POPC   C2B26648  40.210  19.162   8.250
 5213POPC   C3B26649  40.202  19.138   7.950
 5213POPC   C4B26650  40.215  19.143   7.650
 5214POPC   NC326651  35.317  16.746   9.450
 5214POPC   PO426652  35.399  16.686   9.150
 5214POPC   GL126653  35.318  16.746   8.850
 5214POPC   GL226654  35.347  16.648   8.850
 5214POPC   C1A26655  35.316  16.695   8.550
 5214POPC   D2A26656  35.359  16.753   8.250
 5214POPC   C3A26657  35.351  16.693   7.950
 5214POPC   C4A26658  35.320  16.747   7.650
 5214POPC   C1B26659  35.270  16.483   8.550
 5214POPC   C2B26660  35.270  16.510   8.250
 5214POPC   C3B26661  35.300  16.533   7.950
 5214POPC   C4B26662  35.293  16.503   7.650
 5215POPC   NC326663  12.116  33.838   9.450
 5215POPC   PO426664  12.112  33.774   9.150
 5215POPC   GL126665  12.063  33.793   8.850
 5215POPC   GL226666  12.199  33.828   8.850
 5215POPC   C1A26667  12.034  33.800   8.550
 5215POPC   D2A26668  12.048  33.826   8.250
 5215POPC   C3A26669  12.029  33.784   7.950
 5215POPC   C4A26670  12.120  33.796   7.650
 5215POPC   C1B26671  12.355  33.825   8.550
 5215POPC   C2B26672  12.283  33.862   8.250
 5215POPC   C3B26673  12.296  33.777   7.950
 5215POPC   C4B26674  12.371  33.784   7.650
 5216POPC   NC326675  34.533   8.948   9.450
 5216POPC   PO426676  34.608   8.968   9.150
 5216POPC   GL126677  34.560   8.950   8.850
 5216POPC   GL226678  34.668   9.010   8.850
 5216POPC   C1A26679  34.545   8.923   8.550
 5216POPC   D2A26680  34.615   8.975   8.250
 5216POPC   C3A26681  34.624   8.965   7.950
 5216POPC   C4A26682  34.586   9.017   7.650
 5216POPC   C1B26683  34.788   9.029   8.550
 5216POPC   C2B26684  34.790   9.083   8.250
 5216POPC   C3B26685  34.783   9.066   7.950
 5216POPC   C4B26686  34.791   9.052   7.650
 5217POPC   NC326687  40.783  26.791   9.450
 5217POPC   PO426688  40.750  26.832   9.150
 5217POPC   GL126689  40.821  26.774   8.850
 5217POPC   GL226690  40.795  26.973   8.850
 5217POPC   C1A26691  40.831  26.805   8.550
 5217POPC   D2A26692  40.780  26.845   8.250
 5217POPC   C3A26693  40.740  26.838   7.950
 5217POPC   C4A26694  40.751  26.822   7.650
 5217POPC   C1B26695  40.904  27.054   8.550
 5217POPC   C2B26696  40.892  27.049   8.250
 5217POPC   C3B26697  40.902  27.037   7.950
 5217POPC   C4B26698  40.871  27.057   7.650
 5218POPC   NC326699  37.653  31.448   9.450
 5218POPC   PO426700  37.655  31.465   9.150
 5218POPC   GL126701  37.644  31.468   8.850
 5218POPC   GL226702  37.768  31.337   8.850
 5218POPC   C1A26703  37.649  31.514   8.550
 5218POPC   D2A26704  37.676  31.437   8.250
 5218POPC   C3A26705  37.677  31.521   7.950
 5218POPC   C4A26706  37.680  31.476   7.650
 5218POPC   C1B26707  37.779  31.272   8.550
 5218POPC   C2B26708  37.749  31.279   8.250
 5218POPC   C3B26709  37.750  31.276   7.950
 5218POPC   C4B26710  37.823  31.271   7.650
 5219POPC   NC326711   1.211  30.692   9.450
 5219POPC   PO426712   1.263  30.653   9.150
 5219POPC   GL126713   1.220  30.710   8.850
 5219POPC   GL226714   1.384  30.730   8.850
 5219POPC   C1A26715   1.222  30.704   8.550
 5219POPC   D2A26716   1.246  30.697   8.250
 5219POPC   C3A26717   1.260  30.678   7.950
 5219POPC   C4A26718   1.213  30.674   7.650
 5219POPC   C1B26719   1.458  30.731   8.550
 5219POPC   C2B26720   1.453  30.719   8.250
 5219POPC   C3B26721   1.458  30.728   7.950
 5219POPC   C4B26722   1.443  30.646   7.650
 5220POPC   NC326723  20.659   7.405   9.450
 5220POPC   PO426724  20.642   7.467   9.150
 5220POPC   GL126725  20.594   7.453   8.850
 5220POPC   GL226726  20.529   7.422   8.850
 5220POPC   C1A26727  20.614   7.392   8.550
 5220POPC   D2A26728  20.570   7.415   8.250
 5220POPC   C3A26729  20.648   7.384   7.950
 5220POPC   C4A26730  20.589   7.453   7.650
 5220POPC   C1B26731  20.402   7.526   8.550
 5220POPC   C2B26732  20.395   7.494   8.250
 5220POPC   C3B26733  20.364   7.468   7.950
 5220POPC   C4B26734  20.401   7.538   7.650
 5221POPC   NC326735   9.704  32.206   9.450
 5221POPC   PO426736   9.753  32.269   9.150
 5221POPC   GL126737   9.775  32.207   8.850
 5221POPC   GL226738   9.863  32.230   8.850
 5221POPC   C1A26739   9.739  32.256   8.550
 5221POPC   D2A26740   9.794  32.236   8.250
 5221POPC   C3A26741   9.731  32.246   7.950
 5221POPC   C4A26742   9.700  32.269   7.650
 5221POPC   C1B26743  10.042  32.297   8.550
 5221POPC   C2B26744   9.968  32.263   8.250
 5221POPC   C3B26745  10.007  32.284   7.950
 5221POPC   C4B26746  10.015  32.307   7.650
 5222POPC   NC326747  14.410  14.383   9.450
 5222POPC   PO426748  14.451  14.384   9.150
 5222POPC   GL126749  14.410  14.386   8.850
 5222POPC   GL226750  14.350  14.294   8.850
 5222POPC   C1A26751  14.424  14.428   8.550
 5222POPC   D2A26752  14.426  14.433   8.250
 5222POPC   C3A26753  14.401  14.450   7.950
 5222POPC   C4A26754  14.366  14.369   7.650
 5222POPC   C1B26755  14.267  14.184   8.550
 5222POPC   C2B26756  14.291  14.169   8.250
 5222POPC   C3B26757  14.304  14.163   7.950
 5222POPC   C4B26758  14.354  14.161   7.650
 5223POPC   NC326759   9.712   2.789   9.450
 5223POPC   PO426760   9.714   2.749   9.150
 5223POPC   GL126761   9.797   2.785   8.850
 5223POPC   GL226762   9.866   2.728   8.850
 5223POPC   C1A26763   9.769   2.800   8.550
 5223POPC   D2A26764   9.737   2.722   8.250
 5223POPC   C3A26765   9.751   2.801   7.950
 5223POPC   C4A26766   9.719   2.726   7.650
 5223POPC   C1B26767   9.979   2.706   8.550
 5223POPC   C2B26768  10.038   2.700   8.250
 5223POPC   C3B26769   9.986   2.766   7.950
 5223POPC   C4B26770  10.001   2.792   7.650
 5224POPC   NC326771  23.691  22.981   9.450
 5224POPC   PO426772  23.729  22.955   9.150
 5224POPC   GL126773  23.758  22.896   8.850
 5224POPC   GL226774  23.569  22.944   8.850
 5224POPC   C1A26775  23.762  22.908   8.550
 5224POPC   D2A26776  23.758  22.940   8.250
 5224POPC   C3A26777  23.706  22.901   7.950
 5224POPC   C4A26778  23.761  22.929   7.650
 5224POPC   C1B26779  23.517  23.033   8.550
 5224POPC   C2B26780  23.466  23.016   8.250
 5224POPC   C3B26781  23.482  23.077   7.950
 5224POPC   C4B26782  23.486  23.010   7.650
 5225POPC   NC326783  35.325  43.069   9.450
 5225POPC   PO426784  35.354  43.080   9.150
 5225POPC   GL126785  35.339  43.084   8.850
 5225POPC   GL226786  35.471  43.054   8.850
 5225POPC   C1A26787  35.379  43.126   8.550
 5225POPC   D2A26788  35.322  43.111   8.250
 5225POPC   C3A26789  35.311  43.131   7.950
 5225POPC   C4A26790  35.391  43.132   7.650
 5225POPC   C1B26791  35.554  43.110   8.550
 5225POPC   C2B26792  35.600  43.103   8.250
 5225POPC   C3B26793  35.601  43.077   7.950
 5225POPC   C4B26794  35.648  43.097   7.650
 5226POPC   NC326795  29.956  12.057   9.450
 5226POPC   PO426796  29.873  12.105   9.150
 5226POPC   GL126797  29.880  12.118   8.850
 5226POPC   GL226798  30.090  12.097   8.850
 5226POPC   C1A26799  29.897  12.083   8.550
 5226POPC   D2A26800  29.943  12.078   8.250
 5226POPC   C3A26801  29.899  12.108   7.950
 5226POPC   C4A26802  29.876  12.105   7.650
 5226POPC   C1B26803  30.158  12.045   8.550
 5226POPC   C2B26804  30.148  12.040   8.250
 5226POPC   C3B26805  30.124  12.033   7.950
 5226POPC   C4B26806  30.132  11.980   7.650
 5227POPC   NC326807   3.560   4.362   9.450
 5227POPC   PO426808   3.591   4.359   9.150
 5227POPC   GL126809   3.519   4.358   8.850
 5227POPC   GL226810   3.683   4.258   8.850
 5227POPC   C1A26811   3.543   4.279   8.550
 5227POPC   D2A26812   3.538   4.361   8.250
 5227POPC   C3A26813   3.511   4.333   7.950
 5227POPC   C4A26814   3.578   4.283   7.650
 5227POPC   C1B26815   3.799   4.199   8.550
 5227POPC   C2B26816   3.728   4.164   8.250
 5227POPC   C3B26817   3.724   4.156   7.950
 5227POPC   C4B26818   3.791   4.232   7.650
 5228POPC   NC326819   3.572  12.829   9.450
 5228POPC   PO426820   3.587  12.860   9.150
 5228POPC   GL126821   3.581  12.865   8.850
 5228POPC   GL226822   3.428  12.871   8.850
 5228POPC   C1A26823   3.531  12.853   8.550
 5228POPC   D2A26824   3.545  12.861   8.250
 5228POPC   C3A26825   3.505  12.825   7.950
 5228POPC   C4A26826   3.583  12.894   7.650
 5228POPC   C1B26827   3.316  12.908   8.550
 5228POPC   C2B26828   3.272  12.883   8.250
 5228POPC   C3B26829   3.283  12.941   7.950
 5228POPC   C4B26830   3.253  12.897   7.650
 5229POPC   NC326831  35.373  27.578   9.450
 5229POPC   PO426832  35.374  27.565   9.150
 5229POPC   GL126833  35.392  27.543   8.850
 5229POPC   GL226834  35.261  27.533   8.850
 5229POPC   C1A26835  35.307  27.543   8.550
 5229POPC   D2A26836  35.385  27.548   8.250
 5229POPC   C3A26837  35.310  27.611   7.950
 5229POPC   C4A26838  35.352  27.627   7.650
 5229POPC   C1B26839  35.148  27.502   8.550
 5229POPC   C2B26840  35.072  27.486   8.250
 5229POPC   C3B26841  35.152  27.479   7.950
 5229POPC   C4B26842  35.102  27.497   7.650
 5230POPC   NC326843  25.291  24.473   9.450
 5230POPC   PO426844  25.295  24.491   9.150
 5230POPC   GL126845  25.271  24.477   8.850
 5230POPC   GL226846  25.223  24.632   8.850
 5230POPC   C1A26847  25.285  24.464   8.550
 5230POPC   D2A26848  25.297  24.536   8.250
 5230POPC   C3A26849  25.216  24.476   7.950
 5230POPC   C4A26850  25.309  24.533   7.650
 5230POPC   C1B26851  25.240  24.708   8.550
 5230POPC   C2B26852  25.241  24.789   8.250
 5230POPC   C3B26853  25.257  24.743   7.950
 5230POPC   C4B26854  25.229  24.783   7.650
 5231POPC   NC326855   5.823  21.410   9.450
 5231POPC   PO426856   5.828  21.344   9.150
 5231POPC   GL126857   5.864  21.434   8.850
 5231POPC   GL226858   5.930  21.280   8.850
 5231POPC   C1A26859   5.906  21.431   8.550
 5231POPC   D2A26860   5.842  21.364   8.250
 5231POPC   C3A26861   5.834  21.372   7.950
 5231POPC   C4A26862   5.882  21.403   7.650
 5231POPC   C1B26863   6.073  21.271   8.550
 5231POPC   C2B26864   6.089  21.203   8.250
 5231POPC   C3B26865   6.063  21.215   7.950
 5231POPC   C4B26866   6.099  21.248   7.650
 5232POPC   NC326867   3.553  38.407   9.450
 5232POPC   PO426868   3.584  38.458   9.150
 5232POPC   GL126869   3.508  38.476   8.850
 5232POPC   GL226870   3.462  38.320   8.850
 5232POPC   C1A26871   3.492  38.489   8.550
 5232POPC   D2A26872   3.510  38.504   8.250
 5232POPC   C3A26873   3.554  38.447   7.950
 5232POPC   C4A26874   3.571  38.410   7.650
 5232POPC   C1B26875   3.380  38.252   8.550
 5232POPC   C2B26876   3.433  38.223   8.250
 5232POPC   C3B26877   3.410  38.208   7.950
 5232POPC   C4B26878   3.388  38.264   7.650
 5233POPC   NC326879   6.596   8.160   9.450
 5233POPC   PO426880   6.660   8.172   9.150
 5233POPC   GL126881   6.619   8.242   8.850
 5233POPC   GL226882   6.599   8.049   8.850
 5233POPC   C1A26883   6.631   8.163   8.550
 5233POPC   D2A26884   6.617   8.147   8.250
 5233POPC   C3A26885   6.617   8.154   7.950
 5233POPC   C4A26886   6.680   8.223   7.650
 5233POPC   C1B26887   6.552   7.912   8.550
 5233POPC   C2B26888   6.607   8.001   8.250
 5233POPC   C3B26889   6.539   7.985   7.950
 5233POPC   C4B26890   6.572   7.932   7.650
 5234POPC   NC326891   4.337   5.065   9.450
 5234POPC   PO426892   4.365   5.046   9.150
 5234POPC   GL126893   4.354   5.142   8.850
 5234POPC   GL226894   4.443   5.146   8.850
 5234POPC   C1A26895   4.351   5.098   8.550
 5234POPC   D2A26896   4.276   5.124   8.250
 5234POPC   C3A26897   4.310   5.066   7.950
 5234POPC   C4A26898   4.321   5.091   7.650
 5234POPC   C1B26899   4.540   5.189   8.550
 5234POPC   C2B26900   4.558   5.130   8.250
 5234POPC   C3B26901   4.544   5.124   7.950
 5234POPC   C4B26902   4.596   5.174   7.650
 5235POPC   NC326903  23.761  44.633   9.450
 5235POPC   PO426904  23.733  44.707   9.150
 5235POPC   GL126905  23.763  44.612   8.850
 5235POPC   GL226906  23.617  44.673   8.850
 5235POPC   C1A26907  23.760  44.634   8.550
 5235POPC   D2A26908  23.683  44.668   8.250
 5235POPC   C3A26909  23.702  44.673   7.950
 5235POPC   C4A26910  23.701  44.666   7.650
 5235POPC   C1B26911  23.530  44.826   8.550
 5235POPC   C2B26912  23.470  44.779   8.250
 5235POPC   C3B26913  23.442  44.811   7.950
 5235POPC   C4B26914  23.478  44.822   7.650
 5236POPC   NC326915  14.415  13.611   9.450
 5236POPC   PO426916  14.428  13.593   9.150
 5236POPC   GL126917  14.372  13.642   8.850
 5236POPC   GL226918  14.281  13.610   8.850
 5236POPC   C1A26919  14.389  13.622   8.550
 5236POPC   D2A26920  14.420  13.617   8.250
 5236POPC   C3A26921  14.425  13.595   7.950
 5236POPC   C4A26922  14.398  13.601   7.650
 5236POPC   C1B26923  14.197  13.663   8.550
 5236POPC   C2B26924  14.131  13.659   8.250
 5236POPC   C3B26925  14.194  13.617   7.950
 5236POPC   C4B26926  14.115  13.625   7.650
 5237POPC   NC326927   5.142  15.915   9.450
 5237POPC   PO426928   5.103  15.934   9.150
 5237POPC   GL126929   5.062  15.993   8.850
 5237POPC   GL226930   4.986  15.932   8.850
 5237POPC   C1A26931   5.100  15.991   8.550
 5237POPC   D2A26932   5.064  15.922   8.250
 5237POPC   C3A26933   5.137  15.946   7.950
 5237POPC   C4A26934   5.129  15.992   7.650
 5237POPC   C1B26935   4.880  15.986   8.550
 5237POPC   C2B26936   4.844  16.007   8.250
 5237POPC   C3B26937   4.859  16.027   7.950
 5237POPC   C4B26938   4.874  15.968   7.650
 5238POPC   NC326939  24.533  36.857   9.450
 5238POPC   PO426940  24.497  36.923   9.150
 5238POPC   GL126941  24.536  36.934   8.850
 5238POPC   GL226942  24.434  36.858   8.850
 5238POPC   C1A26943  24.496  36.918   8.550
 5238POPC   D2A26944  24.463  36.931   8.250
 5238POPC   C3A26945  24.506  36.889   7.950
 5238POPC   C4A26946  24.518  36.904   7.650
 5238POPC   C1B26947  24.263  36.722   8.550
 5238POPC   C2B26948  24.289  36.713   8.250
 5238POPC   C3B26949  24.328  36.760   7.950
 5238POPC   C4B26950  24.310  36.740   7.650
 5239POPC   NC326951  40.040  14.449   9.450
 5239POPC   PO426952  40.007  14.372   9.150
 5239POPC   GL126953  40.026  14.429   8.850
 5239POPC   GL226954  40.131  14.329   8.850
 5239POPC   C1A26955  39.987  14.358   8.550
 5239POPC   D2A26956  39.996  14.396   8.250
 5239POPC   C3A26957  40.000  14.413   7.950
 5239POPC   C4A26958  39.988  14.386   7.650
 5239POPC   C1B26959  40.192  14.271   8.550
 5239POPC   C2B26960  40.213  14.245   8.250
 5239POPC   C3B26961  40.194  14.234   7.950
 5239POPC   C4B26962  40.224  14.221   7.650
 5240POPC   NC326963  12.854  36.106   9.450
 5240POPC   PO426964  12.887  36.121   9.150
 5240POPC   GL126965  12.817  36.083   8.850
 5240POPC   GL226966  12.980  36.040   8.850
 5240POPC   C1A26967  12.888  36.091   8.550
 5240POPC   D2A26968  12.880  36.172   8.250
 5240POPC   C3A26969  12.882  36.175   7.950
 5240POPC   C4A26970  12.875  36.104   7.650
 5240POPC   C1B26971  13.019  35.924   8.550
 5240POPC   C2B26972  13.039  35.951   8.250
 5240POPC   C3B26973  13.030  35.942   7.950
 5240POPC   C4B26974  13.060  35.946   7.650
 5241POPC   NC326975  26.803  15.954   9.450
 5241POPC   PO426976  26.805  15.919   9.150
 5241POPC   GL126977  26.806  15.913   8.850
 5241POPC   GL226978  26.740  16.034   8.850
 5241POPC   C1A26979  26.831  15.951   8.550
 5241POPC   D2A26980  26.826  15.943   8.250
 5241POPC   C3A26981  26.777  15.938   7.950
 5241POPC   C4A26982  26.789  15.911   7.650
 5241POPC   C1B26983  26.655  16.141   8.550
 5241POPC   C2B26984  26.577  16.135   8.250
 5241POPC   C3B26985  26.656  16.088   7.950
 5241POPC   C4B26986  26.642  16.058   7.650
 5242POPC   NC326987  23.748   4.283   9.450
 5242POPC   PO426988  23.722   4.279   9.150
 5242POPC   GL126989  23.730   4.322   8.850
 5242POPC   GL226990  23.716   4.163   8.850
 5242POPC   C1A26991  23.707   4.326   8.550
 5242POPC   D2A26992  23.687   4.291   8.250
 5242POPC   C3A26993  23.667   4.292   7.950
 5242POPC   C4A26994  23.747   4.275   7.650
 5242POPC   C1B26995  23.779   4.094   8.550
 5242POPC   C2B26996  23.803   4.092   8.250
 5242POPC   C3B26997  23.825   4.085   7.950
 5242POPC   C4B26998  23.763   4.108   7.650
 5243POPC   NC326999  28.333  21.394   9.450
 5243POPC   PO427000  28.383  21.358   9.150
 5243POPC   GL127001  28.409  21.360   8.850
 5243POPC   GL227002  28.222  21.303   8.850
 5243POPC   C1A27003  28.358  21.398   8.550
 5243POPC   D2A27004  28.386  21.376   8.250
 5243POPC   C3A27005  28.411  21.368   7.950
 5243POPC   C4A27006  28.345  21.398   7.650
 5243POPC   C1B27007  28.129  21.284   8.550
 5243POPC   C2B27008  28.156  21.337   8.250
 5243POPC   C3B27009  28.131  21.297   7.950
 5243POPC   C4B27010  28.136  21.290   7.650
 5244POPC   NC327011  14.369  22.143   9.450
 5244POPC   PO427012  14.444  22.128   9.150
 5244POPC   GL127013  14.432  22.190   8.850
 5244POPC   GL227014  14.387  22.325   8.850
 5244POPC   C1A27015  14.427  22.205   8.550
 5244POPC   D2A27016  14.379  22.192   8.250
 5244POPC   C3A27017  14.359  22.142   7.950
 5244POPC   C4A27018  14.414  22.206   7.650
 5244POPC   C1B27019  14.484  22.440   8.550
 5244POPC   C2B27020  14.467  22.440   8.250
 5244POPC   C3B27021  14.503  22.446   7.950
 5244POPC   C4B27022  14.454  22.430   7.650
 5245POPC   NC327023  36.923  32.205   9.450
 5245POPC   PO427024  36.874  32.269   9.150
 5245POPC   GL127025  36.854  32.218   8.850
 5245POPC   GL227026  37.021  32.289   8.850
 5245POPC   C1A27027  36.920  32.290   8.550
 5245POPC   D2A27028  36.882  32.278   8.250
 5245POPC   C3A27029  36.863  32.235   7.950
 5245POPC   C4A27030  36.899  32.246   7.650
 5245POPC   C1B27031  37.178  32.387   8.550
 5245POPC   C2B27032  37.176  32.343   8.250
 5245POPC   C3B27033  37.153  32.375   7.950
 5245POPC   C4B27034  37.125  32.360   7.650
 5246POPC   NC327035  37.717  14.411   9.450
 5246POPC   PO427036  37.695  14.453   9.150
 5246POPC   GL127037  37.654  14.371   8.850
 5246POPC   GL227038  37.828  14.358   8.850
 5246POPC   C1A27039  37.722  14.448   8.550
 5246POPC   D2A27040  37.715  14.390   8.250
 5246POPC   C3A27041  37.633  14.381   7.950
 5246POPC   C4A27042  37.671  14.418   7.650
 5246POPC   C1B27043  37.919  14.243   8.550
 5246POPC   C2B27044  37.875  14.292   8.250
 5246POPC   C3B27045  37.934  14.241   7.950
 5246POPC   C4B27046  37.890  14.288   7.650
 5247POPC   NC327047  22.204  40.755   9.450
 5247POPC   PO427048  22.161  40.762   9.150
 5247POPC   GL127049  22.180  40.815   8.850
 5247POPC   GL227050  22.147  40.904   8.850
 5247POPC   C1A27051  22.188  40.807   8.550
 5247POPC   D2A27052  22.149  40.768   8.250
 5247POPC   C3A27053  22.161  40.766   7.950
 5247POPC   C4A27054  22.167  40.749   7.650
 5247POPC   C1B27055  22.043  41.024   8.550
 5247POPC   C2B27056  22.057  41.038   8.250
 5247POPC   C3B27057  22.025  41.052   7.950
 5247POPC   C4B27058  22.034  41.045   7.650
 5248POPC   NC327059  35.308   9.756   9.450
 5248POPC   PO427060  35.314   9.784   9.150
 5248POPC   GL127061  35.336   9.703   8.850
 5248POPC   GL227062  35.481   9.675   8.850
 5248POPC   C1A27063  35.385   9.777   8.550
 5248POPC   D2A27064  35.382   9.714   8.250
 5248POPC   C3A27065  35.339   9.706   7.950
 5248POPC   C4A27066  35.386   9.791   7.650
 5248POPC   C1B27067  35.554   9.555   8.550
 5248POPC   C2B27068  35.569   9.643   8.250
 5248POPC   C3B27069  35.555   9.597   7.950
 5248POPC   C4B27070  35.591   9.559   7.650
 5249POPC   NC327071  19.068  33.838   9.450
 5249POPC   PO427072  19.024  33.827   9.150
 5249POPC   GL127073  19.089  33.838   8.850
 5249POPC   GL227074  19.067  33.914   8.850
 5249POPC   C1A27075  19.066  33.767   8.550
 5249POPC   D2A27076  19.085  33.825   8.250
 5249POPC   C3A27077  19.032  33.823   7.950
 5249POPC   C4A27078  19.053  33.817   7.650
 5249POPC   C1B27079  19.180  34.030   8.550
 5249POPC   C2B27080  19.176  34.019   8.250
 5249POPC   C3B27081  19.213  34.052   7.950
 5249POPC   C4B27082  19.220  33.976   7.650
 5250POPC   NC327083  16.719  20.602   9.450
 5250POPC   PO427084  16.756  20.603   9.150
 5250POPC   GL127085  16.716  20.650   8.850
 5250POPC   GL227086  16.681  20.710   8.850
 5250POPC   C1A27087  16.732  20.623   8.550
 5250POPC   D2A27088  16.748  20.568   8.250
 5250POPC   C3A27089  16.729  20.613   7.950
 5250POPC   C4A27090  16.705  20.577   7.650
 5250POPC   C1B27091  16.551  20.850   8.550
 5250POPC   C2B27092  16.612  20.822   8.250
 5250POPC   C3B27093  16.579  20.811   7.950
 5250POPC   C4B27094  16.563  20.793   7.650
 5251POPC   NC327095  35.389  30.681   9.450
 5251POPC   PO427096  35.343  30.721   9.150
 5251POPC   GL127097  35.352  30.725   8.850
 5251POPC   GL227098  35.286  30.556   8.850
 5251POPC   C1A27099  35.330  30.686   8.550
 5251POPC   D2A27100  35.394  30.736   8.250
 5251POPC   C3A27101  35.386  30.655   7.950
 5251POPC   C4A27102  35.309  30.676   7.650
 5251POPC   C1B27103  35.277  30.430   8.550
 5251POPC   C2B27104  35.216  30.507   8.250
 5251POPC   C3B27105  35.287  30.426   7.950
 5251POPC   C4B27106  35.230  30.423   7.650
 5252POPC   NC327107  20.601  40.004   9.450
 5252POPC   PO427108  20.631  40.021   9.150
 5252POPC   GL127109  20.569  40.056   8.850
 5252POPC   GL227110  20.501  40.013   8.850
 5252POPC   C1A27111  20.589  39.984   8.550
 5252POPC   D2A27112  20.649  39.958   8.250
 5252POPC   C3A27113  20.604  39.985   7.950
 5252POPC   C4A27114  20.571  39.987   7.650
 5252POPC   C1B27115  20.377  39.916   8.550
 5252POPC   C2B27116  20.365  39.921   8.250
 5252POPC   C3B27117  20.414  39.948   7.950
 5252POPC   C4B27118  20.336  39.992   7.650
 5253POPC   NC327119  17.460  25.997   9.450
 5253POPC   PO427120  17.502  26.044   9.150
 5253POPC   GL127121  17.512  26.042   8.850
 5253POPC   GL227122  17.575  25.959   8.850
 5253POPC   C1A27123  17.487  26.081   8.550
 5253POPC   D2A27124  17.547  26.083   8.250
 5253POPC   C3A27125  17.509  25.996   7.950
 5253POPC   C4A27126  17.483  26.045   7.650
 5253POPC   C1B27127  17.635  25.812   8.550
 5253POPC   C2B27128  17.720  25.862   8.250
 5253POPC   C3B27129  17.629  25.854   7.950
 5253POPC   C4B27130  17.710  25.853   7.650
 5254POPC   NC327131  15.999  37.654   9.450
 5254POPC   PO427132  15.966  37.660   9.150
 5254POPC   GL127133  15.923  37.679   8.850
 5254POPC   GL227134  16.031  37.748   8.850
 5254POPC   C1A27135  15.908  37.663   8.550
 5254POPC   D2A27136  15.937  37.693   8.250
 5254POPC   C3A27137  15.994  37.699   7.950
 5254POPC   C4A27138  15.962  37.669   7.650
 5254POPC   C1B27139  16.160  37.807   8.550
 5254POPC   C2B27140  16.163  37.840   8.250
 5254POPC   C3B27141  16.175  37.870   7.950
 5254POPC   C4B27142  16.195  37.818   7.650
 5255POPC   NC327143  23.747  13.639   9.450
 5255POPC   PO427144  23.716  13.650   9.150
 5255POPC   GL127145  23.760  13.614   8.850
 5255POPC   GL227146  23.642  13.559   8.850
 5255POPC   C1A27147  23.673  13.590   8.550
 5255POPC   D2A27148  23.677  13.674   8.250
 5255POPC   C3A27149  23.723  13.614   7.950
 5255POPC   C4A27150  23.678  13.629   7.650
 5255POPC   C1B27151  23.520  13.488   8.550
 5255POPC   C2B27152  23.539  13.468   8.250
 5255POPC   C3B27153  23.524  13.501   7.950
 5255POPC   C4B27154  23.530  13.452   7.650
 5256POPC   NC327155  32.995  12.059   9.450
 5256POPC   PO427156  33.047  12.069   9.150
 5256POPC   GL127157  33.065  12.104   8.850
 5256POPC   GL227158  33.095  11.983   8.850
 5256POPC   C1A27159  32.989  12.102   8.550
 5256POPC   D2A27160  33.043  12.033   8.250
 5256POPC   C3A27161  33.035  12.100   7.950
 5256POPC   C4A27162  33.032  12.113   7.650
 5256POPC   C1B27163  33.214  11.966   8.550
 5256POPC   C2B27164  33.217  11.993   8.250
 5256POPC   C3B27165  33.302  12.019   7.950
 5256POPC   C4B27166  33.272  11.945   7.650
 5257POPC   NC327167  32.219  26.059   9.450
 5257POPC   PO427168  32.230  26.050   9.150
 5257POPC   GL127169  32.222  26.069   8.850
 5257POPC   GL227170  32.279  25.957   8.850
 5257POPC   C1A27171  32.243  26.071   8.550
 5257POPC   D2A27172  32.278  26.037   8.250
 5257POPC   C3A27173  32.220  26.068   7.950
 5257POPC   C4A27174  32.207  26.016   7.650
 5257POPC   C1B27175  32.312  25.803   8.550
 5257POPC   C2B27176  32.385  25.815   8.250
 5257POPC   C3B27177  32.377  25.833   7.950
 5257POPC   C4B27178  32.396  25.844   7.650
 5258POPC   NC327179  12.828  43.902   9.450
 5258POPC   PO427180  12.811  43.847   9.150
 5258POPC   GL127181  12.852  43.902   8.850
 5258POPC   GL227182  12.879  43.795   8.850
 5258POPC   C1A27183  12.842  43.837   8.550
 5258POPC   D2A27184  12.841  43.920   8.250
 5258POPC   C3A27185  12.820  43.916   7.950
 5258POPC   C4A27186  12.864  43.847   7.650
 5258POPC   C1B27187  12.997  43.693   8.550
 5258POPC   C2B27188  13.016  43.715   8.250
 5258POPC   C3B27189  12.975  43.690   7.950
 5258POPC   C4B27190  12.932  43.667   7.650
 5259POPC   NC327191  15.130  40.009   9.450
 5259POPC   PO427192  15.193  39.977   9.150
 5259POPC   GL127193  15.229  40.008   8.850
 5259POPC   GL227194  15.167  39.897   8.850
 5259POPC   C1A27195  15.177  40.052   8.550
 5259POPC   D2A27196  15.151  39.962   8.250
 5259POPC   C3A27197  15.211  39.993   7.950
 5259POPC   C4A27198  15.226  39.968   7.650
 5259POPC   C1B27199  15.222  39.709   8.550
 5259POPC   C2B27200  15.243  39.746   8.250
 5259POPC   C3B27201  15.219  39.727   7.950
 5259POPC   C4B27202  15.162  39.771   7.650
 5260POPC   NC327203   4.338  15.206   9.450
 5260POPC   PO427204   4.355  15.166   9.150
 5260POPC   GL127205   4.339  15.148   8.850
 5260POPC   GL227206   4.151  15.193   8.850
 5260POPC   C1A27207   4.269  15.226   8.550
 5260POPC   D2A27208   4.334  15.163   8.250
 5260POPC   C3A27209   4.277  15.147   7.950
 5260POPC   C4A27210   4.309  15.174   7.650
 5260POPC   C1B27211   4.054  15.192   8.550
 5260POPC   C2B27212   4.074  15.193   8.250
 5260POPC   C3B27213   4.030  15.183   7.950
 5260POPC   C4B27214   4.104  15.232   7.650
 5261POPC   NC327215  20.598  25.220   9.450
 5261POPC   PO427216  20.593  25.271   9.150
 5261POPC   GL127217  20.606  25.279   8.850
 5261POPC   GL227218  20.454  25.248   8.850
 5261POPC   C1A27219  20.599  25.273   8.550
 5261POPC   D2A27220  20.610  25.272   8.250
 5261POPC   C3A27221  20.607  25.256   7.950
 5261POPC   C4A27222  20.591  25.279   7.650
 5261POPC   C1B27223  20.311  25.246   8.550
 5261POPC   C2B27224  20.324  25.313   8.250
 5261POPC   C3B27225  20.364  25.224   7.950
 5261POPC   C4B27226  20.331  25.315   7.650
 5262POPC   NC327227   8.201  17.528   9.450
 5262POPC   PO427228   8.188  17.481   9.150
 5262POPC   GL127229   8.246  17.496   8.850
 5262POPC   GL227230   8.108  17.444   8.850
 5262POPC   C1A27231   8.168  17.546   8.550
 5262POPC   D2A27232   8.166  17.505   8.250
 5262POPC   C3A27233   8.186  17.499   7.950
 5262POPC   C4A27234   8.210  17.459   7.650
 5262POPC   C1B27235   8.116  17.299   8.550
 5262POPC   C2B27236   8.042  17.315   8.250
 5262POPC   C3B27237   8.101  17.326   7.950
 5262POPC   C4B27238   8.119  17.247   7.650
 5263POPC   NC327239  11.267  11.290   9.450
 5263POPC   PO427240  11.292  11.276   9.150
 5263POPC   GL127241  11.297  11.271   8.850
 5263POPC   GL227242  11.288  11.380   8.850
 5263POPC   C1A27243  11.314  11.273   8.550
 5263POPC   D2A27244  11.316  11.296   8.250
 5263POPC   C3A27245  11.309  11.340   7.950
 5263POPC   C4A27246  11.323  11.275   7.650
 5263POPC   C1B27247  11.260  11.521   8.550
 5263POPC   C2B27248  11.247  11.592   8.250
 5263POPC   C3B27249  11.243  11.507   7.950
 5263POPC   C4B27250  11.320  11.599   7.650
 5264POPC   NC327251  30.656  36.936   9.450
 5264POPC   PO427252  30.702  36.855   9.150
 5264POPC   GL127253  30.723  36.878   8.850
 5264POPC   GL227254  30.774  36.851   8.850
 5264POPC   C1A27255  30.686  36.885   8.550
 5264POPC   D2A27256  30.692  36.911   8.250
 5264POPC   C3A27257  30.727  36.935   7.950
 5264POPC   C4A27258  30.665  36.951   7.650
 5264POPC   C1B27259  30.885  36.719   8.550
 5264POPC   C2B27260  30.826  36.681   8.250
 5264POPC   C3B27261  30.863  36.694   7.950
 5264POPC   C4B27262  30.898  36.744   7.650
 5265POPC   NC327263   3.497  21.405   9.450
 5265POPC   PO427264   3.552  21.414   9.150
 5265POPC   GL127265   3.585  21.346   8.850
 5265POPC   GL227266   3.425  21.397   8.850
 5265POPC   C1A27267   3.504  21.358   8.550
 5265POPC   D2A27268   3.588  21.363   8.250
 5265POPC   C3A27269   3.551  21.369   7.950
 5265POPC   C4A27270   3.519  21.354   7.650
 5265POPC   C1B27271   3.278  21.439   8.550
 5265POPC   C2B27272   3.253  21.381   8.250
 5265POPC   C3B27273   3.260  21.354   7.950
 5265POPC   C4B27274   3.285  21.369   7.650
 5266POPC   NC327275  28.389   2.780   9.450
 5266POPC   PO427276  28.406   2.732   9.150
 5266POPC   GL127277  28.334   2.811   8.850
 5266POPC   GL227278  28.287   2.818   8.850
 5266POPC   C1A27279  28.360   2.741   8.550
 5266POPC   D2A27280  28.362   2.732   8.250
 5266POPC   C3A27281  28.331   2.763   7.950
 5266POPC   C4A27282  28.334   2.720   7.650
 5266POPC   C1B27283  28.165   3.003   8.550
 5266POPC   C2B27284  28.182   2.968   8.250
 5266POPC   C3B27285  28.203   2.982   7.950
 5266POPC   C4B27286  28.205   2.939   7.650
 5267POPC   NC327287  36.163  36.902   9.450
 5267POPC   PO427288  36.131  36.932   9.150
 5267POPC   GL127289  36.094  36.953   8.850
 5267POPC   GL227290  36.259  36.977   8.850
 5267POPC   C1A27291  36.166  36.924   8.550
 5267POPC   D2A27292  36.109  36.873   8.250
 5267POPC   C3A27293  36.148  36.872   7.950
 5267POPC   C4A27294  36.157  36.890   7.650
 5267POPC   C1B27295  36.325  37.101   8.550
 5267POPC   C2B27296  36.300  37.130   8.250
 5267POPC   C3B27297  36.302  37.125   7.950
 5267POPC   C4B27298  36.268  37.078   7.650
 5268POPC   NC327299  15.226  40.778   9.450
 5268POPC   PO427300  15.222  40.786   9.150
 5268POPC   GL127301  15.153  40.796   8.850
 5268POPC   GL227302  15.205  40.927   8.850
 5268POPC   C1A27303  15.186  40.783   8.550
 5268POPC   D2A27304  15.147  40.824   8.250
 5268POPC   C3A27305  15.196  40.772   7.950
 5268POPC   C4A27306  15.141  40.744   7.650
 5268POPC   C1B27307  15.159  41.002   8.550
 5268POPC   C2B27308  15.161  41.042   8.250
 5268POPC   C3B27309  15.240  41.040   7.950
 5268POPC   C4B27310  15.223  41.001   7.650
 5269POPC   NC327311  38.482  22.955   9.450
 5269POPC   PO427312  38.445  22.981   9.150
 5269POPC   GL127313  38.418  22.971   8.850
 5269POPC   GL227314  38.411  22.784   8.850
 5269POPC   C1A27315  38.405  22.909   8.550
 5269POPC   D2A27316  38.488  22.926   8.250
 5269POPC   C3A27317  38.444  22.917   7.950
 5269POPC   C4A27318  38.477  22.924   7.650
 5269POPC   C1B27319  38.300  22.712   8.550
 5269POPC   C2B27320  38.320  22.711   8.250
 5269POPC   C3B27321  38.354  22.704   7.950
 5269POPC   C4B27322  38.370  22.745   7.650
 5270POPC   NC327323  31.425  42.345   9.450
 5270POPC   PO427324  31.495  42.306   9.150
 5270POPC   GL127325  31.456  42.348   8.850
 5270POPC   GL227326  31.584  42.391   8.850
 5270POPC   C1A27327  31.430  42.378   8.550
 5270POPC   D2A27328  31.444  42.382   8.250
 5270POPC   C3A27329  31.505  42.295   7.950
 5270POPC   C4A27330  31.462  42.360   7.650
 5270POPC   C1B27331  31.715  42.345   8.550
 5270POPC   C2B27332  31.707  42.338   8.250
 5270POPC   C3B27333  31.731  42.359   7.950
 5270POPC   C4B27334  31.740  42.406   7.650
 5271POPC   NC327335  24.508  16.710   9.450
 5271POPC   PO427336  24.470  16.780   9.150
 5271POPC   GL127337  24.455  16.697   8.850
 5271POPC   GL227338  24.352  16.716   8.850
 5271POPC   C1A27339  24.534  16.705   8.550
 5271POPC   D2A27340  24.462  16.736   8.250
 5271POPC   C3A27341  24.466  16.776   7.950
 5271POPC   C4A27342  24.525  16.772   7.650
 5271POPC   C1B27343  24.235  16.696   8.550
 5271POPC   C2B27344  24.236  16.719   8.250
 5271POPC   C3B27345  24.228  16.633   7.950
 5271POPC   C4B27346  24.278  16.690   7.650
 5272POPC   NC327347  39.206  35.331   9.450
 5272POPC   PO427348  39.236  35.338   9.150
 5272POPC   GL127349  39.211  35.330   8.850
 5272POPC   GL227350  39.157  35.483   8.850
 5272POPC   C1A27351  39.223  35.367   8.550
 5272POPC   D2A27352  39.213  35.352   8.250
 5272POPC   C3A27353  39.223  35.359   7.950
 5272POPC   C4A27354  39.245  35.372   7.650
 5272POPC   C1B27355  39.080  35.534   8.550
 5272POPC   C2B27356  39.047  35.582   8.250
 5272POPC   C3B27357  39.106  35.545   7.950
 5272POPC   C4B27358  39.025  35.513   7.650
 5273POPC   NC327359  20.579  17.504   9.450
 5273POPC   PO427360  20.654  17.461   9.150
 5273POPC   GL127361  20.626  17.555   8.850
 5273POPC   GL227362  20.601  17.429   8.850
 5273POPC   C1A27363  20.583  17.527   8.550
 5273POPC   D2A27364  20.643  17.483   8.250
 5273POPC   C3A27365  20.603  17.515   7.950
 5273POPC   C4A27366  20.647  17.493   7.650
 5273POPC   C1B27367  20.527  17.310   8.550
 5273POPC   C2B27368  20.592  17.260   8.250
 5273POPC   C3B27369  20.499  17.298   7.950
 5273POPC   C4B27370  20.525  17.286   7.650
 5274POPC   NC327371  36.151   7.389   9.450
 5274POPC   PO427372  36.078   7.457   9.150
 5274POPC   GL127373  36.125   7.451   8.850
 5274POPC   GL227374  36.214   7.393   8.850
 5274POPC   C1A27375  36.148   7.453   8.550
 5274POPC   D2A27376  36.089   7.449   8.250
 5274POPC   C3A27377  36.142   7.408   7.950
 5274POPC   C4A27378  36.131   7.412   7.650
 5274POPC   C1B27379  36.312   7.285   8.550
 5274POPC   C2B27380  36.315   7.366   8.250
 5274POPC   C3B27381  36.314   7.351   7.950
 5274POPC   C4B27382  36.385   7.279   7.650
 5275POPC   NC327383  34.613  36.950   9.450
 5275POPC   PO427384  34.613  36.917   9.150
 5275POPC   GL127385  34.549  36.952   8.850
 5275POPC   GL227386  34.501  36.856   8.850
 5275POPC   C1A27387  34.621  36.867   8.550
 5275POPC   D2A27388  34.613  36.940   8.250
 5275POPC   C3A27389  34.532  36.869   7.950
 5275POPC   C4A27390  34.529  36.933   7.650
 5275POPC   C1B27391  34.394  36.778   8.550
 5275POPC   C2B27392  34.333  36.776   8.250
 5275POPC   C3B27393  34.386  36.742   7.950
 5275POPC   C4B27394  34.419  36.778   7.650
 5276POPC   NC327395  34.599   6.611   9.450
 5276POPC   PO427396  34.569   6.641   9.150
 5276POPC   GL127397  34.617   6.651   8.850
 5276POPC   GL227398  34.457   6.755   8.850
 5276POPC   C1A27399  34.587   6.649   8.550
 5276POPC   D2A27400  34.558   6.619   8.250
 5276POPC   C3A27401  34.575   6.641   7.950
 5276POPC   C4A27402  34.604   6.651   7.650
 5276POPC   C1B27403  34.431   6.869   8.550
 5276POPC   C2B27404  34.417   6.774   8.250
 5276POPC   C3B27405  34.443   6.830   7.950
 5276POPC   C4B27406  34.356   6.845   7.650
 5277POPC   NC327407  32.281   1.248   9.450
 5277POPC   PO427408  32.268   1.257   9.150
 5277POPC   GL127409  32.260   1.194   8.850
 5277POPC   GL227410  32.240   1.377   8.850
 5277POPC   C1A27411  32.275   1.257   8.550
 5277POPC   D2A27412  32.215   1.226   8.250
 5277POPC   C3A27413  32.242   1.235   7.950
 5277POPC   C4A27414  32.241   1.218   7.650
 5277POPC   C1B27415  32.131   1.469   8.550
 5277POPC   C2B27416  32.172   1.426   8.250
 5277POPC   C3B27417  32.207   1.495   7.950
 5277POPC   C4B27418  32.146   1.474   7.650
 5278POPC   NC327419  23.761   3.508   9.450
 5278POPC   PO427420  23.698   3.555   9.150
 5278POPC   GL127421  23.726   3.546   8.850
 5278POPC   GL227422  23.780   3.479   8.850
 5278POPC   C1A27423  23.726   3.544   8.550
 5278POPC   D2A27424  23.763   3.502   8.250
 5278POPC   C3A27425  23.751   3.519   7.950
 5278POPC   C4A27426  23.734   3.503   7.650
 5278POPC   C1B27427  23.887   3.465   8.550
 5278POPC   C2B27428  23.932   3.414   8.250
 5278POPC   C3B27429  23.975   3.447   7.950
 5278POPC   C4B27430  23.894   3.377   7.650
 5279POPC   NC327431   7.435  36.117   9.450
 5279POPC   PO427432   7.443  36.162   9.150
 5279POPC   GL127433   7.464  36.142   8.850
 5279POPC   GL227434   7.291  36.244   8.850
 5279POPC   C1A27435   7.388  36.167   8.550
 5279POPC   D2A27436   7.460  36.107   8.250
 5279POPC   C3A27437   7.465  36.105   7.950
 5279POPC   C4A27438   7.430  36.126   7.650
 5279POPC   C1B27439   7.221  36.334   8.550
 5279POPC   C2B27440   7.241  36.267   8.250
 5279POPC   C3B27441   7.197  36.292   7.950
 5279POPC   C4B27442   7.240  36.342   7.650
 5280POPC   NC327443  23.718  21.428   9.450
 5280POPC   PO427444  23.757  21.382   9.150
 5280POPC   GL127445  23.672  21.390   8.850
 5280POPC   GL227446  23.560  21.384   8.850
 5280POPC   C1A27447  23.667  21.342   8.550
 5280POPC   D2A27448  23.674  21.396   8.250
 5280POPC   C3A27449  23.670  21.388   7.950
 5280POPC   C4A27450  23.763  21.385   7.650
 5280POPC   C1B27451  23.481  21.329   8.550
 5280POPC   C2B27452  23.441  21.338   8.250
 5280POPC   C3B27453  23.481  21.310   7.950
 5280POPC   C4B27454  23.452  21.339   7.650
 5281POPC   NC327455  40.028  31.431   9.450
 5281POPC   PO427456  39.964  31.491   9.150
 5281POPC   GL127457  39.959  31.500   8.850
 5281POPC   GL227458  39.944  31.568   8.850
 5281POPC   C1A27459  39.991  31.452   8.550
 5281POPC   D2A27460  40.011  31.461   8.250
 5281POPC   C3A27461  40.042  31.453   7.950
 5281POPC   C4A27462  40.008  31.471   7.650
 5281POPC   C1B27463  39.901  31.717   8.550
 5281POPC   C2B27464  39.929  31.698   8.250
 5281POPC   C3B27465  39.938  31.661   7.950
 5281POPC   C4B27466  39.880  31.675   7.650
 5282POPC   NC327467  42.379  43.843   9.450
 5282POPC   PO427468  42.346  43.904   9.150
 5282POPC   GL127469  42.328  43.872   8.850
 5282POPC   GL227470  42.200  43.855   8.850
 5282POPC   C1A27471  42.384  43.855   8.550
 5282POPC   D2A27472  42.340  43.924   8.250
 5282POPC   C3A27473  42.348  43.931   7.950
 5282POPC   C4A27474  42.290  43.931   7.650
 5282POPC   C1B27475  42.130  43.761   8.550
 5282POPC   C2B27476  42.141  43.796   8.250
 5282POPC   C3B27477  42.086  43.818   7.950
 5282POPC   C4B27478  42.119  43.787   7.650
 5283POPC   NC327479   7.402   8.948   9.450
 5283POPC   PO427480   7.391   8.931   9.150
 5283POPC   GL127481   7.381   8.947   8.850
 5283POPC   GL227482   7.525   9.097   8.850
 5283POPC   C1A27483   7.434   8.980   8.550
 5283POPC   D2A27484   7.427   8.986   8.250
 5283POPC   C3A27485   7.437   8.973   7.950
 5283POPC   C4A27486   7.432   8.949   7.650
 5283POPC   C1B27487   7.548   9.146   8.550
 5283POPC   C2B27488   7.589   9.173   8.250
 5283POPC   C3B27489   7.576   9.150   7.950
 5283POPC   C4B27490   7.532   9.219   7.650
 5284POPC   NC327491   0.469   5.080   9.450
 5284POPC   PO427492   0.400   5.073   9.150
 5284POPC   GL127493   0.464   5.046   8.850
 5284POPC   GL227494   0.293   5.108   8.850
 5284POPC   C1A27495   0.476   5.075   8.550
 5284POPC   D2A27496   0.395   5.064   8.250
 5284POPC   C3A27497   0.464   5.066   7.950
 5284POPC   C4A27498   0.407   5.062   7.650
 5284POPC   C1B27499   0.234   5.080   8.550
 5284POPC   C2B27500   0.220   5.083   8.250
 5284POPC   C3B27501   0.142   5.059   7.950
 5284POPC   C4B27502   0.199   5.085   7.650
 5285POPC   NC327503  22.160   2.004   9.450
 5285POPC   PO427504  22.146   2.007   9.150
 5285POPC   GL127505  22.138   2.036   8.850
 5285POPC   GL227506  22.307   1.958   8.850
 5285POPC   C1A27507  22.184   2.033   8.550
 5285POPC   D2A27508  22.188   1.943   8.250
 5285POPC   C3A27509  22.172   1.989   7.950
 5285POPC   C4A27510  22.195   1.965   7.650
 5285POPC   C1B27511  22.396   2.047   8.550
 5285POPC   C2B27512  22.399   2.044   8.250
 5285POPC   C3B27513  22.407   2.033   7.950
 5285POPC   C4B27514  22.441   2.048   7.650
 5286POPC   NC327515  12.087  35.358   9.450
 5286POPC   PO427516  12.115  35.385   9.150
 5286POPC   GL127517  12.028  35.379   8.850
 5286POPC   GL227518  12.008  35.498   8.850
 5286POPC   C1A27519  12.037  35.317   8.550
 5286POPC   D2A27520  12.122  35.383   8.250
 5286POPC   C3A27521  12.078  35.381   7.950
 5286POPC   C4A27522  12.050  35.367   7.650
 5286POPC   C1B27523  12.030  35.566   8.550
 5286POPC   C2B27524  12.051  35.564   8.250
 5286POPC   C3B27525  12.053  35.560   7.950
 5286POPC   C4B27526  12.026  35.549   7.650
 5287POPC   NC327527   7.395  24.459   9.450
 5287POPC   PO427528   7.415  24.477   9.150
 5287POPC   GL127529   7.442  24.489   8.850
 5287POPC   GL227530   7.579  24.487   8.850
 5287POPC   C1A27531   7.458  24.489   8.550
 5287POPC   D2A27532   7.436  24.501   8.250
 5287POPC   C3A27533   7.385  24.525   7.950
 5287POPC   C4A27534   7.469  24.476   7.650
 5287POPC   C1B27535   7.640  24.455   8.550
 5287POPC   C2B27536   7.687  24.502   8.250
 5287POPC   C3B27537   7.664  24.439   7.950
 5287POPC   C4B27538   7.713  24.476   7.650
 5288POPC   NC327539  25.221  26.091   9.450
 5288POPC   PO427540  25.300  26.028   9.150
 5288POPC   GL127541  25.299  26.048   8.850
 5288POPC   GL227542  25.098  26.031   8.850
 5288POPC   C1A27543  25.309  26.003   8.550
 5288POPC   D2A27544  25.311  26.077   8.250
 5288POPC   C3A27545  25.282  26.014   7.950
 5288POPC   C4A27546  25.280  26.075   7.650
 5288POPC   C1B27547  25.011  26.037   8.550
 5288POPC   C2B27548  25.065  26.052   8.250
 5288POPC   C3B27549  25.019  26.030   7.950
 5288POPC   C4B27550  25.000  26.044   7.650
 5289POPC   NC327551  40.802   3.563   9.450
 5289POPC   PO427552  40.752   3.546   9.150
 5289POPC   GL127553  40.772   3.502   8.850
 5289POPC   GL227554  40.720   3.582   8.850
 5289POPC   C1A27555  40.812   3.537   8.550
 5289POPC   D2A27556  40.734   3.578   8.250
 5289POPC   C3A27557  40.755   3.579   7.950
 5289POPC   C4A27558  40.828   3.499   7.650
 5289POPC   C1B27559  40.542   3.717   8.550
 5289POPC   C2B27560  40.540   3.643   8.250
 5289POPC   C3B27561  40.606   3.706   7.950
 5289POPC   C4B27562  40.582   3.671   7.650
 5290POPC   NC327563  18.292  42.307   9.450
 5290POPC   PO427564  18.248  42.319   9.150
 5290POPC   GL127565  18.307  42.291   8.850
 5290POPC   GL227566  18.220  42.368   8.850
 5290POPC   C1A27567  18.293  42.360   8.550
 5290POPC   D2A27568  18.261  42.305   8.250
 5290POPC   C3A27569  18.268  42.296   7.950
 5290POPC   C4A27570  18.295  42.377   7.650
 5290POPC   C1B27571  18.096  42.415   8.550
 5290POPC   C2B27572  18.039  42.495   8.250
 5290POPC   C3B27573  18.082  42.410   7.950
 5290POPC   C4B27574  18.096  42.470   7.650
 5291POPC   NC327575   3.517  24.451   9.450
 5291POPC   PO427576   3.507  24.538   9.150
 5291POPC   GL127577   3.524  24.504   8.850
 5291POPC   GL227578   3.498  24.564   8.850
 5291POPC   C1A27579   3.541  24.456   8.550
 5291POPC   D2A27580   3.496  24.489   8.250
 5291POPC   C3A27581   3.516  24.470   7.950
 5291POPC   C4A27582   3.499  24.467   7.650
 5291POPC   C1B27583   3.354  24.655   8.550
 5291POPC   C2B27584   3.324  24.709   8.250
 5291POPC   C3B27585   3.355  24.629   7.950
 5291POPC   C4B27586   3.392  24.681   7.650
 5292POPC   NC327587   0.488  11.263   9.450
 5292POPC   PO427588   0.424  11.290   9.150
 5292POPC   GL127589   0.435  11.284   8.850
 5292POPC   GL227590   0.579  11.293   8.850
 5292POPC   C1A27591   0.462  11.332   8.550
 5292POPC   D2A27592   0.427  11.330   8.250
 5292POPC   C3A27593   0.442  11.323   7.950
 5292POPC   C4A27594   0.407  11.271   7.650
 5292POPC   C1B27595   0.649  11.303   8.550
 5292POPC   C2B27596   0.729  11.313   8.250
 5292POPC   C3B27597   0.693  11.373   7.950
 5292POPC   C4B27598   0.670  11.334   7.650
 5293POPC   NC327599  40.011  18.282   9.450
 5293POPC   PO427600  40.040  18.324   9.150
 5293POPC   GL127601  40.055  18.243   8.850
 5293POPC   GL227602  39.846  18.325   8.850
 5293POPC   C1A27603  40.005  18.250   8.550
 5293POPC   D2A27604  39.995  18.308   8.250
 5293POPC   C3A27605  40.040  18.263   7.950
 5293POPC   C4A27606  40.034  18.313   7.650
 5293POPC   C1B27607  39.777  18.426   8.550
 5293POPC   C2B27608  39.769  18.411   8.250
 5293POPC   C3B27609  39.810  18.428   7.950
 5293POPC   C4B27610  39.818  18.373   7.650
 5294POPC   NC327611   0.451  24.514   9.450
 5294POPC   PO427612   0.457  24.482   9.150
 5294POPC   GL127613   0.461  24.496   8.850
 5294POPC   GL227614   0.290  24.542   8.850
 5294POPC   C1A27615   0.473  24.532   8.550
 5294POPC   D2A27616   0.473  24.535   8.250
 5294POPC   C3A27617   0.411  24.461   7.950
 5294POPC   C4A27618   0.399  24.465   7.650
 5294POPC   C1B27619   0.212  24.621   8.550
 5294POPC   C2B27620   0.194  24.639   8.250
 5294POPC   C3B27621   0.240  24.589   7.950
 5294POPC   C4B27622   0.284  24.671   7.650
 5295POPC   NC327623  30.719  40.748   9.450
 5295POPC   PO427624  30.663  40.789   9.150
 5295POPC   GL127625  30.720  40.824   8.850
 5295POPC   GL227626  30.695  40.627   8.850
 5295POPC   C1A27627  30.711  40.783   8.550
 5295POPC   D2A27628  30.712  40.764   8.250
 5295POPC   C3A27629  30.700  40.807   7.950
 5295POPC   C4A27630  30.668  40.771   7.650
 5295POPC   C1B27631  30.718  40.549   8.550
 5295POPC   C2B27632  30.764  40.533   8.250
 5295POPC   C3B27633  30.754  40.551   7.950
 5295POPC   C4B27634  30.705  40.566   7.650
 5296POPC   NC327635  29.879  33.036   9.450
 5296POPC   PO427636  29.898  32.978   9.150
 5296POPC   GL127637  29.969  33.066   8.850
 5296POPC   GL227638  29.987  32.963   8.850
 5296POPC   C1A27639  29.913  33.032   8.550
 5296POPC   D2A27640  29.912  32.979   8.250
 5296POPC   C3A27641  29.961  32.985   7.950
 5296POPC   C4A27642  29.899  33.058   7.650
 5296POPC   C1B27643  30.115  32.788   8.550
 5296POPC   C2B27644  30.047  32.828   8.250
 5296POPC   C3B27645  30.094  32.860   7.950
 5296POPC   C4B27646  30.064  32.792   7.650
 5297POPC   NC327647   8.948  14.388   9.450
 5297POPC   PO427648   8.993  14.407   9.150
 5297POPC   GL127649   9.017  14.404   8.850
 5297POPC   GL227650   9.023  14.314   8.850
 5297POPC   C1A27651   8.969  14.393   8.550
 5297POPC   D2A27652   9.014  14.386   8.250
 5297POPC   C3A27653   8.937  14.408   7.950
 5297POPC   C4A27654   9.010  14.394   7.650
 5297POPC   C1B27655   9.091  14.130   8.550
 5297POPC   C2B27656   9.043  14.179   8.250
 5297POPC   C3B27657   9.043  14.177   7.950
 5297POPC   C4B27658   9.074  14.214   7.650
 5298POPC   NC327659  18.286   6.640   9.450
 5298POPC   PO427660  18.278   6.640   9.150
 5298POPC   GL127661  18.288   6.638   8.850
 5298POPC   GL227662  18.138   6.576   8.850
 5298POPC   C1A27663  18.266   6.640   8.550
 5298POPC   D2A27664  18.234   6.599   8.250
 5298POPC   C3A27665  18.322   6.617   7.950
 5298POPC   C4A27666  18.248   6.667   7.650
 5298POPC   C1B27667  18.012   6.612   8.550
 5298POPC   C2B27668  17.999   6.567   8.250
 5298POPC   C3B27669  18.027   6.537   7.950
 5298POPC   C4B27670  18.059   6.585   7.650
 5299POPC   NC327671   8.197  19.071   9.450
 5299POPC   PO427672   8.158  19.013   9.150
 5299POPC   GL127673   8.232  19.033   8.850
 5299POPC   GL227674   8.320  19.052   8.850
 5299POPC   C1A27675   8.157  19.083   8.550
 5299POPC   D2A27676   8.163  19.061   8.250
 5299POPC   C3A27677   8.215  19.028   7.950
 5299POPC   C4A27678   8.222  19.040   7.650
 5299POPC   C1B27679   8.464  19.054   8.550
 5299POPC   C2B27680   8.491  19.075   8.250
 5299POPC   C3B27681   8.429  19.098   7.950
 5299POPC   C4B27682   8.437  19.093   7.650
 5300POPC   NC327683  11.283  25.281   9.450
 5300POPC   PO427684  11.348  25.302   9.150
 5300POPC   GL127685  11.259  25.279   8.850
 5300POPC   GL227686  11.359  25.161   8.850
 5300POPC   C1A27687  11.332  25.272   8.550
 5300POPC   D2A27688  11.326  25.257   8.250
 5300POPC   C3A27689  11.345  25.304   7.950
 5300POPC   C4A27690  11.254  25.253   7.650
 5300POPC   C1B27691  11.514  25.096   8.550
 5300POPC   C2B27692  11.471  25.094   8.250
 5300POPC   C3B27693  11.476  25.144   7.950
 5300POPC   C4B27694  11.537  25.136   7.650
 5301POPC   NC327695  39.254  21.362   9.450
 5301POPC   PO427696  39.190  21.403   9.150
 5301POPC   GL127697  39.226  21.409   8.850
 5301POPC   GL227698  39.097  21.389   8.850
 5301POPC   C1A27699  39.182  21.348   8.550
 5301POPC   D2A27700  39.225  21.372   8.250
 5301POPC   C3A27701  39.190  21.417   7.950
 5301POPC   C4A27702  39.207  21.344   7.650
 5301POPC   C1B27703  38.984  21.299   8.550
 5301POPC   C2B27704  38.967  21.272   8.250
 5301POPC   C3B27705  38.962  21.315   7.950
 5301POPC   C4B27706  39.024  21.298   7.650
 5302POPC   NC327707  27.642   4.272   9.450
 5302POPC   PO427708  27.639   4.361   9.150
 5302POPC   GL127709  27.602   4.349   8.850
 5302POPC   GL227710  27.577   4.183   8.850
 5302POPC   C1A27711  27.640   4.318   8.550
 5302POPC   D2A27712  27.576   4.314   8.250
 5302POPC   C3A27713  27.579   4.334   7.950
 5302POPC   C4A27714  27.563   4.357   7.650
 5302POPC   C1B27715  27.492   4.092   8.550
 5302POPC   C2B27716  27.496   4.056   8.250
 5302POPC   C3B27717  27.541   4.065   7.950
 5302POPC   C4B27718  27.458   4.128   7.650
 5303POPC   NC327719   2.769   0.442   9.450
 5303POPC   PO427720   2.744   0.398   9.150
 5303POPC   GL127721   2.739   0.465   8.850
 5303POPC   GL227722   2.670   0.480   8.850
 5303POPC   C1A27723   2.774   0.409   8.550
 5303POPC   D2A27724   2.771   0.406   8.250
 5303POPC   C3A27725   2.795   0.465   7.950
 5303POPC   C4A27726   2.787   0.475   7.650
 5303POPC   C1B27727   2.525   0.480   8.550
 5303POPC   C2B27728   2.486   0.515   8.250
 5303POPC   C3B27729   2.482   0.438   7.950
 5303POPC   C4B27730   2.475   0.457   7.650
 5304POPC   NC327731  15.952  25.293   9.450
 5304POPC   PO427732  15.985  25.292   9.150
 5304POPC   GL127733  15.974  25.252   8.850
 5304POPC   GL227734  15.821  25.247   8.850
 5304POPC   C1A27735  15.924  25.273   8.550
 5304POPC   D2A27736  15.914  25.236   8.250
 5304POPC   C3A27737  15.975  25.233   7.950
 5304POPC   C4A27738  15.996  25.306   7.650
 5304POPC   C1B27739  15.659  25.251   8.550
 5304POPC   C2B27740  15.683  25.273   8.250
 5304POPC   C3B27741  15.685  25.243   7.950
 5304POPC   C4B27742  15.720  25.310   7.650
 5305POPC   NC327743   4.353  26.017   9.450
 5305POPC   PO427744   4.327  26.072   9.150
 5305POPC   GL127745   4.323  26.073   8.850
 5305POPC   GL227746   4.221  26.054   8.850
 5305POPC   C1A27747   4.312  26.001   8.550
 5305POPC   D2A27748   4.330  25.992   8.250
 5305POPC   C3A27749   4.315  26.046   7.950
 5305POPC   C4A27750   4.340  26.029   7.650
 5305POPC   C1B27751   4.050  26.121   8.550
 5305POPC   C2B27752   4.046  26.129   8.250
 5305POPC   C3B27753   4.078  26.171   7.950
 5305POPC   C4B27754   4.052  26.147   7.650
 5306POPC   NC327755   5.882  30.674   9.450
 5306POPC   PO427756   5.908  30.741   9.150
 5306POPC   GL127757   5.826  30.658   8.850
 5306POPC   GL227758   5.985  30.697   8.850
 5306POPC   C1A27759   5.847  30.682   8.550
 5306POPC   D2A27760   5.918  30.673   8.250
 5306POPC   C3A27761   5.865  30.727   7.950
 5306POPC   C4A27762   5.848  30.705   7.650
 5306POPC   C1B27763   6.072  30.625   8.550
 5306POPC   C2B27764   6.156  30.644   8.250
 5306POPC   C3B27765   6.071  30.637   7.950
 5306POPC   C4B27766   6.135  30.643   7.650
 5307POPC   NC327767  26.000   5.850   9.450
 5307POPC   PO427768  26.044   5.846   9.150
 5307POPC   GL127769  26.050   5.917   8.850
 5307POPC   GL227770  26.015   6.008   8.850
 5307POPC   C1A27771  25.993   5.856   8.550
 5307POPC   D2A27772  26.074   5.846   8.250
 5307POPC   C3A27773  26.060   5.907   7.950
 5307POPC   C4A27774  26.088   5.895   7.650
 5307POPC   C1B27775  25.884   6.118   8.550
 5307POPC   C2B27776  25.916   6.055   8.250
 5307POPC   C3B27777  25.871   6.074   7.950
 5307POPC   C4B27778  25.896   6.130   7.650
 5308POPC   NC327779  25.260   9.001   9.450
 5308POPC   PO427780  25.261   8.959   9.150
 5308POPC   GL127781  25.237   9.018   8.850
 5308POPC   GL227782  25.190   9.006   8.850
 5308POPC   C1A27783  25.264   9.004   8.550
 5308POPC   D2A27784  25.279   8.979   8.250
 5308POPC   C3A27785  25.269   9.019   7.950
 5308POPC   C4A27786  25.294   8.981   7.650
 5308POPC   C1B27787  24.982   8.970   8.550
 5308POPC   C2B27788  25.061   9.001   8.250
 5308POPC   C3B27789  24.993   8.915   7.950
 5308POPC   C4B27790  25.037   8.914   7.650
 5309POPC   NC327791  32.991  38.417   9.450
 5309POPC   PO427792  33.008  38.435   9.150
 5309POPC   GL127793  33.008  38.469   8.850
 5309POPC   GL227794  32.968  38.377   8.850
 5309POPC   C1A27795  32.977  38.476   8.550
 5309POPC   D2A27796  32.978  38.495   8.250
 5309POPC   C3A27797  33.004  38.420   7.950
 5309POPC   C4A27798  32.984  38.475   7.650
 5309POPC   C1B27799  32.794  38.250   8.550
 5309POPC   C2B27800  32.821  38.284   8.250
 5309POPC   C3B27801  32.839  38.309   7.950
 5309POPC   C4B27802  32.821  38.332   7.650
 5310POPC   NC327803  26.048  29.103   9.450
 5310POPC   PO427804  26.077  29.099   9.150
 5310POPC   GL127805  26.023  29.174   8.850
 5310POPC   GL227806  26.074  29.253   8.850
 5310POPC   C1A27807  26.044  29.115   8.550
 5310POPC   D2A27808  26.030  29.133   8.250
 5310POPC   C3A27809  26.015  29.183   7.950
 5310POPC   C4A27810  26.037  29.174   7.650
 5310POPC   C1B27811  26.157  29.335   8.550
 5310POPC   C2B27812  26.096  29.337   8.250
 5310POPC   C3B27813  26.121  29.363   7.950
 5310POPC   C4B27814  26.084  29.432   7.650
 5311POPC   NC327815  41.528  20.562   9.450
 5311POPC   PO427816  41.600  20.579   9.150
 5311POPC   GL127817  41.523  20.596   8.850
 5311POPC   GL227818  41.435  20.686   8.850
 5311POPC   C1A27819  41.526  20.616   8.550
 5311POPC   D2A27820  41.583  20.635   8.250
 5311POPC   C3A27821  41.591  20.599   7.950
 5311POPC   C4A27822  41.597  20.599   7.650
 5311POPC   C1B27823  41.374  20.720   8.550
 5311POPC   C2B27824  41.308  20.665   8.250
 5311POPC   C3B27825  41.336  20.684   7.950
 5311POPC   C4B27826  41.298  20.698   7.650
 5312POPC   NC327827   6.641  21.404   9.450
 5312POPC   PO427828   6.609  21.352   9.150
 5312POPC   GL127829   6.607  21.346   8.850
 5312POPC   GL227830   6.710  21.275   8.850
 5312POPC   C1A27831   6.640  21.429   8.550
 5312POPC   D2A27832   6.690  21.390   8.250
 5312POPC   C3A27833   6.678  21.402   7.950
 5312POPC   C4A27834   6.676  21.337   7.650
 5312POPC   C1B27835   6.736  21.138   8.550
 5312POPC   C2B27836   6.673  21.119   8.250
 5312POPC   C3B27837   6.748  21.097   7.950
 5312POPC   C4B27838   6.674  21.179   7.650
 5313POPC   NC327839  40.758  14.436   9.450
 5313POPC   PO427840  40.745  14.412   9.150
 5313POPC   GL127841  40.822  14.367   8.850
 5313POPC   GL227842  40.760  14.303   8.850
 5313POPC   C1A27843  40.745  14.420   8.550
 5313POPC   D2A27844  40.776  14.410   8.250
 5313POPC   C3A27845  40.743  14.425   7.950
 5313POPC   C4A27846  40.809  14.390   7.650
 5313POPC   C1B27847  40.628  14.196   8.550
 5313POPC   C2B27848  40.618  14.217   8.250
 5313POPC   C3B27849  40.656  14.152   7.950
 5313POPC   C4B27850  40.618  14.206   7.650
 5314POPC   NC327851  39.185  15.195   9.450
 5314POPC   PO427852  39.197  15.150   9.150
 5314POPC   GL127853  39.267  15.140   8.850
 5314POPC   GL227854  39.167  15.328   8.850
 5314POPC   C1A27855  39.239  15.147   8.550
 5314POPC   D2A27856  39.195  15.160   8.250
 5314POPC   C3A27857  39.276  15.196   7.950
 5314POPC   C4A27858  39.202  15.184   7.650
 5314POPC   C1B27859  39.107  15.429   8.550
 5314POPC   C2B27860  39.096  15.445   8.250
 5314POPC   C3B27861  39.139  15.397   7.950
 5314POPC   C4B27862  39.152  15.369   7.650
 5315POPC   NC327863  20.582  42.339   9.450
 5315POPC   PO427864  20.582  42.356   9.150
 5315POPC   GL127865  20.635  42.306   8.850
 5315POPC   GL227866  20.602  42.453   8.850
 5315POPC   C1A27867  20.623  42.365   8.550
 5315POPC   D2A27868  20.588  42.352   8.250
 5315POPC   C3A27869  20.578  42.287   7.950
 5315POPC   C4A27870  20.640  42.367   7.650
 5315POPC   C1B27871  20.645  42.614   8.550
 5315POPC   C2B27872  20.681  42.567   8.250
 5315POPC   C3B27873  20.618  42.621   7.950
 5315POPC   C4B27874  20.622  42.595   7.650
 5316POPC   NC327875  33.061   0.448   9.450
 5316POPC   PO427876  33.054   0.460   9.150
 5316POPC   GL127877  33.010   0.420   8.850
 5316POPC   GL227878  33.194   0.431   8.850
 5316POPC   C1A27879  32.996   0.458   8.550
 5316POPC   D2A27880  33.026   0.463   8.250
 5316POPC   C3A27881  33.037   0.468   7.950
 5316POPC   C4A27882  32.986   0.470   7.650
 5316POPC   C1B27883  33.310   0.406   8.550
 5316POPC   C2B27884  33.276   0.444   8.250
 5316POPC   C3B27885  33.292   0.403   7.950
 5316POPC   C4B27886  33.242   0.389   7.650
 5317POPC   NC327887   1.187   8.972   9.450
 5317POPC   PO427888   1.228   8.936   9.150
 5317POPC   GL127889   1.237   8.954   8.850
 5317POPC   GL227890   1.171   9.124   8.850
 5317POPC   C1A27891   1.168   9.010   8.550
 5317POPC   D2A27892   1.215   8.990   8.250
 5317POPC   C3A27893   1.212   8.943   7.950
 5317POPC   C4A27894   1.231   8.966   7.650
 5317POPC   C1B27895   1.061   9.221   8.550
 5317POPC   C2B27896   1.096   9.231   8.250
 5317POPC   C3B27897   1.140   9.203   7.950
 5317POPC   C4B27898   1.107   9.152   7.650
 5318POPC   NC327899  29.962  18.297   9.450
 5318POPC   PO427900  29.951  18.241   9.150
 5318POPC   GL127901  29.966  18.295   8.850
 5318POPC   GL227902  29.991  18.380   8.850
 5318POPC   C1A27903  29.872  18.269   8.550
 5318POPC   D2A27904  29.929  18.292   8.250
 5318POPC   C3A27905  29.881  18.307   7.950
 5318POPC   C4A27906  29.874  18.270   7.650
 5318POPC   C1B27907  30.185  18.431   8.550
 5318POPC   C2B27908  30.136  18.354   8.250
 5318POPC   C3B27909  30.142  18.357   7.950
 5318POPC   C4B27910  30.145  18.340   7.650
 5319POPC   NC327911  33.791   4.280   9.450
 5319POPC   PO427912  33.827   4.308   9.150
 5319POPC   GL127913  33.759   4.309   8.850
 5319POPC   GL227914  33.759   4.216   8.850
 5319POPC   C1A27915  33.810   4.350   8.550
 5319POPC   D2A27916  33.844   4.326   8.250
 5319POPC   C3A27917  33.780   4.335   7.950
 5319POPC   C4A27918  33.844   4.274   7.650
 5319POPC   C1B27919  33.607   4.148   8.550
 5319POPC   C2B27920  33.677   4.105   8.250
 5319POPC   C3B27921  33.649   4.178   7.950
 5319POPC   C4B27922  33.580   4.093   7.650
 5320POPC   NC327923  23.680   9.769   9.450
 5320POPC   PO427924  23.763   9.720   9.150
 5320POPC   GL127925  23.690   9.699   8.850
 5320POPC   GL227926  23.614   9.721   8.850
 5320POPC   C1A27927  23.673   9.774   8.550
 5320POPC   D2A27928  23.750   9.788   8.250
 5320POPC   C3A27929  23.761   9.746   7.950
 5320POPC   C4A27930  23.760   9.778   7.650
 5320POPC   C1B27931  23.442   9.731   8.550
 5320POPC   C2B27932  23.493   9.747   8.250
 5320POPC   C3B27933  23.505   9.764   7.950
 5320POPC   C4B27934  23.424   9.795   7.650
 5321POPC   NC327935   2.740  36.090   9.450
 5321POPC   PO427936   2.808  36.148   9.150
 5321POPC   GL127937   2.802  36.128   8.850
 5321POPC   GL227938   2.674  36.169   8.850
 5321POPC   C1A27939   2.787  36.113   8.550
 5321POPC   D2A27940   2.810  36.160   8.250
 5321POPC   C3A27941   2.784  36.143   7.950
 5321POPC   C4A27942   2.730  36.165   7.650
 5321POPC   C1B27943   2.517  36.073   8.550
 5321POPC   C2B27944   2.511  36.162   8.250
 5321POPC   C3B27945   2.469  36.163   7.950
 5321POPC   C4B27946   2.524  36.095   7.650
 5322POPC   NC327947  35.352  25.999   9.450
 5322POPC   PO427948  35.377  25.995   9.150
 5322POPC   GL127949  35.328  26.083   8.850
 5322POPC   GL227950  35.228  26.115   8.850
 5322POPC   C1A27951  35.344  26.030   8.550
 5322POPC   D2A27952  35.318  26.068   8.250
 5322POPC   C3A27953  35.370  26.029   7.950
 5322POPC   C4A27954  35.381  26.012   7.650
 5322POPC   C1B27955  35.231  26.249   8.550
 5322POPC   C2B27956  35.202  26.251   8.250
 5322POPC   C3B27957  35.155  26.269   7.950
 5322POPC   C4B27958  35.194  26.207   7.650
 5323POPC   NC327959  29.148  10.508   9.450
 5323POPC   PO427960  29.195  10.534   9.150
 5323POPC   GL127961  29.191  10.510   8.850
 5323POPC   GL227962  29.198  10.380   8.850
 5323POPC   C1A27963  29.181  10.514   8.550
 5323POPC   D2A27964  29.167  10.494   8.250
 5323POPC   C3A27965  29.110  10.538   7.950
 5323POPC   C4A27966  29.133  10.479   7.650
 5323POPC   C1B27967  29.279  10.278   8.550
 5323POPC   C2B27968  29.315  10.357   8.250
 5323POPC   C3B27969  29.286  10.275   7.950
 5323POPC   C4B27970  29.305  10.312   7.650
 5324POPC   NC327971  23.741  38.435   9.450
 5324POPC   PO427972  23.723  38.422   9.150
 5324POPC   GL127973  23.707  38.432   8.850
 5324POPC   GL227974  23.706  38.337   8.850
 5324POPC   C1A27975  23.717  38.490   8.550
 5324POPC   D2A27976  23.693  38.424   8.250
 5324POPC   C3A27977  23.702  38.416   7.950
 5324POPC   C4A27978  23.740  38.418   7.650
 5324POPC   C1B27979  23.763  38.217   8.550
 5324POPC   C2B27980  23.811  38.257   8.250
 5324POPC   C3B27981  23.832  38.188   7.950
 5324POPC   C4B27982  23.744  38.180   7.650
 5325POPC   NC327983  29.954  36.118   9.450
 5325POPC   PO427984  29.903  36.146   9.150
 5325POPC   GL127985  29.920  36.136   8.850
 5325POPC   GL227986  30.025  36.055   8.850
 5325POPC   C1A27987  29.956  36.159   8.550
 5325POPC   D2A27988  29.884  36.162   8.250
 5325POPC   C3A27989  29.905  36.121   7.950
 5325POPC   C4A27990  29.929  36.168   7.650
 5325POPC   C1B27991  30.119  36.045   8.550
 5325POPC   C2B27992  30.155  36.056   8.250
 5325POPC   C3B27993  30.176  36.068   7.950
 5325POPC   C4B27994  30.187  36.052   7.650
 5326POPC   NC327995  43.866   8.943   9.450
 5326POPC   PO427996  43.846   8.974   9.150
 5326POPC   GL127997  43.866   9.018   8.850
 5326POPC   GL227998  44.025   8.875   8.850
 5326POPC   C1A27999  43.881   8.948   8.550
 5326POPC   D2A28000  43.847   8.925   8.250
 5326POPC   C3A28001  43.926   8.957   7.950
 5326POPC   C4A28002  43.849   8.954   7.650
 5326POPC   C1B28003  44.153   8.868   8.550
 5326POPC   C2B28004  44.111   8.856   8.250
 5326POPC   C3B28005  44.145   8.885   7.950
 5326POPC   C4B28006  44.066   8.827   7.650
 5327POPC   NC328007  30.667  43.117   9.450
 5327POPC   PO428008  30.729  43.091   9.150
 5327POPC   GL128009  30.716  43.087   8.850
 5327POPC   GL228010  30.800  43.094   8.850
 5327POPC   C1A28011  30.656  43.155   8.550
 5327POPC   D2A28012  30.705  43.134   8.250
 5327POPC   C3A28013  30.651  43.125   7.950
 5327POPC   C4A28014  30.717  43.145   7.650
 5327POPC   C1B28015  30.944  43.138   8.550
 5327POPC   C2B28016  30.988  43.127   8.250
 5327POPC   C3B28017  30.972  43.098   7.950
 5327POPC   C4B28018  30.930  43.164   7.650
 5328POPC   NC328019  32.226   2.736   9.450
 5328POPC   PO428020  32.222   2.739   9.150
 5328POPC   GL128021  32.242   2.740   8.850
 5328POPC   GL228022  32.221   2.687   8.850
 5328POPC   C1A28023  32.207   2.797   8.550
 5328POPC   D2A28024  32.208   2.744   8.250
 5328POPC   C3A28025  32.284   2.768   7.950
 5328POPC   C4A28026  32.292   2.781   7.650
 5328POPC   C1B28027  32.123   2.586   8.550
 5328POPC   C2B28028  32.190   2.542   8.250
 5328POPC   C3B28029  32.136   2.553   7.950
 5328POPC   C4B28030  32.147   2.537   7.650
 5329POPC   NC328031  30.648   3.569   9.450
 5329POPC   PO428032  30.715   3.537   9.150
 5329POPC   GL128033  30.736   3.591   8.850
 5329POPC   GL228034  30.547   3.561   8.850
 5329POPC   C1A28035  30.681   3.540   8.550
 5329POPC   D2A28036  30.732   3.512   8.250
 5329POPC   C3A28037  30.677   3.564   7.950
 5329POPC   C4A28038  30.680   3.499   7.650
 5329POPC   C1B28039  30.479   3.616   8.550
 5329POPC   C2B28040  30.432   3.611   8.250
 5329POPC   C3B28041  30.469   3.654   7.950
 5329POPC   C4B28042  30.465   3.593   7.650
 5330POPC   NC328043  30.693  19.080   9.450
 5330POPC   PO428044  30.705  19.087   9.150
 5330POPC   GL128045  30.727  19.041   8.850
 5330POPC   GL228046  30.807  19.161   8.850
 5330POPC   C1A28047  30.696  19.079   8.550
 5330POPC   D2A28048  30.733  19.099   8.250
 5330POPC   C3A28049  30.718  19.030   7.950
 5330POPC   C4A28050  30.655  19.041   7.650
 5330POPC   C1B28051  30.912  19.212   8.550
 5330POPC   C2B28052  30.904  19.202   8.250
 5330POPC   C3B28053  30.871  19.255   7.950
 5330POPC   C4B28054  30.910  19.260   7.650
 5331POPC   NC328055  33.772  20.631   9.450
 5331POPC   PO428056  33.756  20.601   9.150
 5331POPC   GL128057  33.843  20.590   8.850
 5331POPC   GL228058  33.735  20.471   8.850
 5331POPC   C1A28059  33.825  20.628   8.550
 5331POPC   D2A28060  33.791  20.624   8.250
 5331POPC   C3A28061  33.809  20.648   7.950
 5331POPC   C4A28062  33.834  20.659   7.650
 5331POPC   C1B28063  33.719  20.403   8.550
 5331POPC   C2B28064  33.739  20.344   8.250
 5331POPC   C3B28065  33.705  20.387   7.950
 5331POPC   C4B28066  33.699  20.420   7.650
 5332POPC   NC328067  33.018  15.917   9.450
 5332POPC   PO428068  32.989  15.940   9.150
 5332POPC   GL128069  33.015  15.993   8.850
 5332POPC   GL228070  33.018  15.865   8.850
 5332POPC   C1A28071  33.009  15.993   8.550
 5332POPC   D2A28072  33.013  15.939   8.250
 5332POPC   C3A28073  33.013  15.947   7.950
 5332POPC   C4A28074  33.016  15.986   7.650
 5332POPC   C1B28075  32.947  15.747   8.550
 5332POPC   C2B28076  32.882  15.743   8.250
 5332POPC   C3B28077  32.889  15.681   7.950
 5332POPC   C4B28078  32.887  15.694   7.650
 5333POPC   NC328079  15.908  40.057   9.450
 5333POPC   PO428080  15.993  39.990   9.150
 5333POPC   GL128081  15.985  39.968   8.850
 5333POPC   GL228082  15.995  40.126   8.850
 5333POPC   C1A28083  15.929  40.001   8.550
 5333POPC   D2A28084  15.981  39.963   8.250
 5333POPC   C3A28085  16.002  39.978   7.950
 5333POPC   C4A28086  15.954  40.037   7.650
 5333POPC   C1B28087  16.048  40.182   8.550
 5333POPC   C2B28088  16.070  40.244   8.250
 5333POPC   C3B28089  16.054  40.191   7.950
 5333POPC   C4B28090  16.081  40.197   7.650
 5334POPC   NC328091  37.704   2.010   9.450
 5334POPC   PO428092  37.659   2.035   9.150
 5334POPC   GL128093  37.707   1.993   8.850
 5334POPC   GL228094  37.750   2.093   8.850
 5334POPC   C1A28095  37.634   1.947   8.550
 5334POPC   D2A28096  37.716   1.971   8.250
 5334POPC   C3A28097  37.728   1.957   7.950
 5334POPC   C4A28098  37.728   1.964   7.650
 5334POPC   C1B28099  37.767   2.193   8.550
 5334POPC   C2B28100  37.688   2.256   8.250
 5334POPC   C3B28101  37.688   2.186   7.950
 5334POPC   C4B28102  37.743   2.224   7.650
 5335POPC   NC328103  26.822   9.722   9.450
 5335POPC   PO428104  26.835   9.701   9.150
 5335POPC   GL128105  26.786   9.787   8.850
 5335POPC   GL228106  26.931   9.753   8.850
 5335POPC   C1A28107  26.859   9.756   8.550
 5335POPC   D2A28108  26.851   9.753   8.250
 5335POPC   C3A28109  26.780   9.710   7.950
 5335POPC   C4A28110  26.865   9.750   7.650
 5335POPC   C1B28111  27.109   9.753   8.550
 5335POPC   C2B28112  27.080   9.792   8.250
 5335POPC   C3B28113  27.044   9.756   7.950
 5335POPC   C4B28114  27.080   9.707   7.650
 5336POPC   NC328115  23.684  31.501   9.450
 5336POPC   PO428116  23.669  31.425   9.150
 5336POPC   GL128117  23.676  31.488   8.850
 5336POPC   GL228118  23.653  31.643   8.850
 5336POPC   C1A28119  23.762  31.452   8.550
 5336POPC   D2A28120  23.709  31.505   8.250
 5336POPC   C3A28121  23.705  31.496   7.950
 5336POPC   C4A28122  23.715  31.502   7.650
 5336POPC   C1B28123  23.656  31.686   8.550
 5336POPC   C2B28124  23.625  31.707   8.250
 5336POPC   C3B28125  23.634  31.680   7.950
 5336POPC   C4B28126  23.688  31.750   7.650
 5337POPC   NC328127  41.572  31.467   9.450
 5337POPC   PO428128  41.588  31.461   9.150
 5337POPC   GL128129  41.535  31.481   8.850
 5337POPC   GL228130  41.585  31.321   8.850
 5337POPC   C1A28131  41.559  31.471   8.550
 5337POPC   D2A28132  41.607  31.457   8.250
 5337POPC   C3A28133  41.577  31.474   7.950
 5337POPC   C4A28134  41.587  31.448   7.650
 5337POPC   C1B28135  41.646  31.213   8.550
 5337POPC   C2B28136  41.650  31.267   8.250
 5337POPC   C3B28137  41.704  31.257   7.950
 5337POPC   C4B28138  41.608  31.239   7.650
 5338POPC   NC328139  34.617  40.003   9.450
 5338POPC   PO428140  34.597  39.959   9.150
 5338POPC   GL128141  34.582  39.995   8.850
 5338POPC   GL228142  34.498  39.951   8.850
 5338POPC   C1A28143  34.536  40.001   8.550
 5338POPC   D2A28144  34.616  39.981   8.250
 5338POPC   C3A28145  34.581  40.041   7.950
 5338POPC   C4A28146  34.567  39.971   7.650
 5338POPC   C1B28147  34.320  39.937   8.550
 5338POPC   C2B28148  34.379  39.941   8.250
 5338POPC   C3B28149  34.311  39.941   7.950
 5338POPC   C4B28150  34.325  39.958   7.650
 5339POPC   NC328151  35.357   4.303   9.450
 5339POPC   PO428152  35.394   4.336   9.150
 5339POPC   GL128153  35.378   4.278   8.850
 5339POPC   GL228154  35.241   4.214   8.850
 5339POPC   C1A28155  35.376   4.268   8.550
 5339POPC   D2A28156  35.328   4.314   8.250
 5339POPC   C3A28157  35.372   4.349   7.950
 5339POPC   C4A28158  35.348   4.353   7.650
 5339POPC   C1B28159  35.117   4.183   8.550
 5339POPC   C2B28160  35.153   4.243   8.250
 5339POPC   C3B28161  35.113   4.174   7.950
 5339POPC   C4B28162  35.135   4.238   7.650
 5340POPC   NC328163   7.414   1.220   9.450
 5340POPC   PO428164   7.408   1.216   9.150
 5340POPC   GL128165   7.417   1.164   8.850
 5340POPC   GL228166   7.471   1.356   8.850
 5340POPC   C1A28167   7.458   1.200   8.550
 5340POPC   D2A28168   7.464   1.174   8.250
 5340POPC   C3A28169   7.403   1.202   7.950
 5340POPC   C4A28170   7.407   1.192   7.650
 5340POPC   C1B28171   7.450   1.471   8.550
 5340POPC   C2B28172   7.433   1.417   8.250
 5340POPC   C3B28173   7.452   1.436   7.950
 5340POPC   C4B28174   7.479   1.508   7.650
 5341POPC   NC328175   5.098  15.171   9.450
 5341POPC   PO428176   5.050  15.210   9.150
 5341POPC   GL128177   5.130  15.174   8.850
 5341POPC   GL228178   4.955  15.134   8.850
 5341POPC   C1A28179   5.094  15.198   8.550
 5341POPC   D2A28180   5.088  15.215   8.250
 5341POPC   C3A28181   5.059  15.140   7.950
 5341POPC   C4A28182   5.070  15.135   7.650
 5341POPC   C1B28183   4.885  15.145   8.550
 5341POPC   C2B28184   4.872  15.164   8.250
 5341POPC   C3B28185   4.819  15.102   7.950
 5341POPC   C4B28186   4.803  15.191   7.650
 5342POPC   NC328187  26.866  35.356   9.450
 5342POPC   PO428188  26.838  35.322   9.150
 5342POPC   GL128189  26.863  35.307   8.850
 5342POPC   GL228190  26.975  35.385   8.850
 5342POPC   C1A28191  26.835  35.396   8.550
 5342POPC   D2A28192  26.849  35.354   8.250
 5342POPC   C3A28193  26.845  35.324   7.950
 5342POPC   C4A28194  26.855  35.327   7.650
 5342POPC   C1B28195  27.026  35.462   8.550
 5342POPC   C2B28196  27.103  35.397   8.250
 5342POPC   C3B28197  27.040  35.379   7.950
 5342POPC   C4B28198  27.079  35.380   7.650
 5343POPC   NC328199  15.173  12.054   9.450
 5343POPC   PO428200  15.156  12.036   9.150
 5343POPC   GL128201  15.155  12.089   8.850
 5343POPC   GL228202  15.156  11.998   8.850
 5343POPC   C1A28203  15.176  12.066   8.550
 5343POPC   D2A28204  15.174  12.052   8.250
 5343POPC   C3A28205  15.177  12.082   7.950
 5343POPC   C4A28206  15.147  12.084   7.650
 5343POPC   C1B28207  15.080  11.833   8.550
 5343POPC   C2B28208  15.083  11.823   8.250
 5343POPC   C3B28209  15.110  11.857   7.950
 5343POPC   C4B28210  15.062  11.807   7.650
 5344POPC   NC328211  36.126  42.318   9.450
 5344POPC   PO428212  36.107  42.300   9.150
 5344POPC   GL128213  36.099  42.313   8.850
 5344POPC   GL228214  36.052  42.250   8.850
 5344POPC   C1A28215  36.174  42.357   8.550
 5344POPC   D2A28216  36.145  42.350   8.250
 5344POPC   C3A28217  36.088  42.287   7.950
 5344POPC   C4A28218  36.161  42.318   7.650
 5344POPC   C1B28219  35.889  42.216   8.550
 5344POPC   C2B28220  35.931  42.191   8.250
 5344POPC   C3B28221  35.934  42.169   7.950
 5344POPC   C4B28222  35.864  42.188   7.650
 5345POPC   NC328223   5.082  41.542   9.450
 5345POPC   PO428224   5.083  41.511   9.150
 5345POPC   GL128225   5.089  41.518   8.850
 5345POPC   GL228226   5.215  41.638   8.850
 5345POPC   C1A28227   5.132  41.535   8.550
 5345POPC   D2A28228   5.101  41.547   8.250
 5345POPC   C3A28229   5.130  41.510   7.950
 5345POPC   C4A28230   5.103  41.582   7.650
 5345POPC   C1B28231   5.238  41.679   8.550
 5345POPC   C2B28232   5.275  41.680   8.250
 5345POPC   C3B28233   5.326  41.765   7.950
 5345POPC   C4B28234   5.280  41.770   7.650
 5346POPC   NC328235  22.149  27.640   9.450
 5346POPC   PO428236  22.190  27.612   9.150
 5346POPC   GL128237  22.126  27.640   8.850
 5346POPC   GL228238  22.073  27.528   8.850
 5346POPC   C1A28239  22.154  27.619   8.550
 5346POPC   D2A28240  22.160  27.613   8.250
 5346POPC   C3A28241  22.139  27.571   7.950
 5346POPC   C4A28242  22.114  27.582   7.650
 5346POPC   C1B28243  21.898  27.511   8.550
 5346POPC   C2B28244  21.895  27.452   8.250
 5346POPC   C3B28245  21.970  27.503   7.950
 5346POPC   C4B28246  21.966  27.526   7.650
 5347POPC   NC328247  39.253  29.949   9.450
 5347POPC   PO428248  39.213  29.964   9.150
 5347POPC   GL128249  39.227  29.909   8.850
 5347POPC   GL228250  39.239  29.836   8.850
 5347POPC   C1A28251  39.264  29.946   8.550
 5347POPC   D2A28252  39.222  29.916   8.250
 5347POPC   C3A28253  39.259  29.934   7.950
 5347POPC   C4A28254  39.247  29.874   7.650
 5347POPC   C1B28255  39.349  29.694   8.550
 5347POPC   C2B28256  39.302  29.658   8.250
 5347POPC   C3B28257  39.336  29.740   7.950
 5347POPC   C4B28258  39.332  29.723   7.650
 5348POPC   NC328259  37.712  15.943   9.450
 5348POPC   PO428260  37.650  15.934   9.150
 5348POPC   GL128261  37.688  15.907   8.850
 5348POPC   GL228262  37.768  15.991   8.850
 5348POPC   C1A28263  37.647  15.994   8.550
 5348POPC   D2A28264  37.667  15.914   8.250
 5348POPC   C3A28265  37.663  15.968   7.950
 5348POPC   C4A28266  37.719  15.907   7.650
 5348POPC   C1B28267  37.863  16.082   8.550
 5348POPC   C2B28268  37.887  16.091   8.250
 5348POPC   C3B28269  37.899  16.100   7.950
 5348POPC   C4B28270  37.851  16.089   7.650
 5349POPC   NC328271  23.742  40.828   9.450
 5349POPC   PO428272  23.764  40.734   9.150
 5349POPC   GL128273  23.681  40.780   8.850
 5349POPC   GL228274  23.794  40.750   8.850
 5349POPC   C1A28275  23.698  40.794   8.550
 5349POPC   D2A28276  23.735  40.785   8.250
 5349POPC   C3A28277  23.742  40.763   7.950
 5349POPC   C4A28278  23.756  40.795   7.650
 5349POPC   C1B28279  23.969  40.834   8.550
 5349POPC   C2B28280  23.928  40.826   8.250
 5349POPC   C3B28281  23.978  40.833   7.950
 5349POPC   C4B28282  23.948  40.751   7.650
 5350POPC   NC328283  40.818  42.351   9.450
 5350POPC   PO428284  40.753  42.329   9.150
 5350POPC   GL128285  40.771  42.331   8.850
 5350POPC   GL228286  40.929  42.333   8.850
 5350POPC   C1A28287  40.810  42.361   8.550
 5350POPC   D2A28288  40.811  42.360   8.250
 5350POPC   C3A28289  40.776  42.333   7.950
 5350POPC   C4A28290  40.758  42.345   7.650
 5350POPC   C1B28291  41.045  42.286   8.550
 5350POPC   C2B28292  41.061  42.241   8.250
 5350POPC   C3B28293  41.042  42.300   7.950
 5350POPC   C4B28294  41.039  42.248   7.650
 5351POPC   NC328295  13.580  23.687   9.450
 5351POPC   PO428296  13.668  23.753   9.150
 5351POPC   GL128297  13.617  23.680   8.850
 5351POPC   GL228298  13.681  23.619   8.850
 5351POPC   C1A28299  13.636  23.705   8.550
 5351POPC   D2A28300  13.580  23.757   8.250
 5351POPC   C3A28301  13.607  23.703   7.950
 5351POPC   C4A28302  13.657  23.664   7.650
 5351POPC   C1B28303  13.821  23.608   8.550
 5351POPC   C2B28304  13.786  23.571   8.250
 5351POPC   C3B28305  13.880  23.604   7.950
 5351POPC   C4B28306  13.859  23.533   7.650
 5352POPC   NC328307   9.017  31.459   9.450
 5352POPC   PO428308   8.981  31.492   9.150
 5352POPC   GL128309   8.995  31.449   8.850
 5352POPC   GL228310   8.886  31.454   8.850
 5352POPC   C1A28311   9.003  31.437   8.550
 5352POPC   D2A28312   8.987  31.467   8.250
 5352POPC   C3A28313   9.011  31.471   7.950
 5352POPC   C4A28314   8.974  31.430   7.650
 5352POPC   C1B28315   8.722  31.414   8.550
 5352POPC   C2B28316   8.715  31.415   8.250
 5352POPC   C3B28317   8.699  31.415   7.950
 5352POPC   C4B28318   8.680  31.439   7.650
 5353POPC   NC328319  34.563  15.945   9.450
 5353POPC   PO428320  34.584  15.915   9.150
 5353POPC   GL128321  34.532  15.935   8.850
 5353POPC   GL228322  34.459  15.905   8.850
 5353POPC   C1A28323  34.607  15.928   8.550
 5353POPC   D2A28324  34.527  15.929   8.250
 5353POPC   C3A28325  34.624  15.932   7.950
 5353POPC   C4A28326  34.553  15.994   7.650
 5353POPC   C1B28327  34.410  15.853   8.550
 5353POPC   C2B28328  34.390  15.855   8.250
 5353POPC   C3B28329  34.368  15.853   7.950
 5353POPC   C4B28330  34.318  15.804   7.650
 5354POPC   NC328331   9.003  30.733   9.450
 5354POPC   PO428332   8.948  30.695   9.150
 5354POPC   GL128333   8.929  30.742   8.850
 5354POPC   GL228334   8.908  30.827   8.850
 5354POPC   C1A28335   9.007  30.676   8.550
 5354POPC   D2A28336   9.001  30.667   8.250
 5354POPC   C3A28337   8.955  30.725   7.950
 5354POPC   C4A28338   9.018  30.667   7.650
 5354POPC   C1B28339   8.886  30.903   8.550
 5354POPC   C2B28340   8.859  30.942   8.250
 5354POPC   C3B28341   8.896  30.967   7.950
 5354POPC   C4B28342   8.860  30.910   7.650
 5355POPC   NC328343  22.120  12.111   9.450
 5355POPC   PO428344  22.157  12.058   9.150
 5355POPC   GL128345  22.139  12.043   8.850
 5355POPC   GL228346  22.193  12.214   8.850
 5355POPC   C1A28347  22.117  12.035   8.550
 5355POPC   D2A28348  22.169  12.031   8.250
 5355POPC   C3A28349  22.202  12.061   7.950
 5355POPC   C4A28350  22.179  12.077   7.650
 5355POPC   C1B28351  22.282  12.315   8.550
 5355POPC   C2B28352  22.245  12.297   8.250
 5355POPC   C3B28353  22.268  12.315   7.950
 5355POPC   C4B28354  22.274  12.291   7.650
 5356POPC   NC328355  39.999  12.110   9.450
 5356POPC   PO428356  39.964  12.040   9.150
 5356POPC   GL128357  39.969  12.111   8.850
 5356POPC   GL228358  39.865  12.067   8.850
 5356POPC   C1A28359  39.998  12.035   8.550
 5356POPC   D2A28360  40.001  12.043   8.250
 5356POPC   C3A28361  40.008  12.123   7.950
 5356POPC   C4A28362  39.972  12.055   7.650
 5356POPC   C1B28363  39.755  12.025   8.550
 5356POPC   C2B28364  39.798  12.091   8.250
 5356POPC   C3B28365  39.784  12.104   7.950
 5356POPC   C4B28366  39.756  12.081   7.650
 5357POPC   NC328367   5.909   7.382   9.450
 5357POPC   PO428368   5.915   7.373   9.150
 5357POPC   GL128369   5.872   7.460   8.850
 5357POPC   GL228370   5.820   7.523   8.850
 5357POPC   C1A28371   5.875   7.415   8.550
 5357POPC   D2A28372   5.848   7.440   8.250
 5357POPC   C3A28373   5.825   7.434   7.950
 5357POPC   C4A28374   5.888   7.441   7.650
 5357POPC   C1B28375   5.811   7.664   8.550
 5357POPC   C2B28376   5.777   7.713   8.250
 5357POPC   C3B28377   5.822   7.683   7.950
 5357POPC   C4B28378   5.816   7.707   7.650
 5358POPC   NC328379  11.309   5.065   9.450
 5358POPC   PO428380  11.313   5.087   9.150
 5358POPC   GL128381  11.291   5.089   8.850
 5358POPC   GL228382  11.364   5.025   8.850
 5358POPC   C1A28383  11.268   5.119   8.550
 5358POPC   D2A28384  11.293   5.065   8.250
 5358POPC   C3A28385  11.276   5.103   7.950
 5358POPC   C4A28386  11.316   5.108   7.650
 5358POPC   C1B28387  11.375   4.913   8.550
 5358POPC   C2B28388  11.357   4.849   8.250
 5358POPC   C3B28389  11.352   4.873   7.950
 5358POPC   C4B28390  11.381   4.819   7.650
 5359POPC   NC328391  43.903  30.746   9.450
 5359POPC   PO428392  43.907  30.691   9.150
 5359POPC   GL128393  43.886  30.742   8.850
 5359POPC   GL228394  43.988  30.727   8.850
 5359POPC   C1A28395  43.935  30.672   8.550
 5359POPC   D2A28396  43.838  30.733   8.250
 5359POPC   C3A28397  43.920  30.680   7.950
 5359POPC   C4A28398  43.888  30.717   7.650
 5359POPC   C1B28399  44.077  30.819   8.550
 5359POPC   C2B28400  44.087  30.830   8.250
 5359POPC   C3B28401  44.137  30.775   7.950
 5359POPC   C4B28402  44.072  30.798   7.650
 5360POPC   NC328403  29.948  14.390   9.450
 5360POPC   PO428404  29.888  14.359   9.150
 5360POPC   GL128405  29.882  14.444   8.850
 5360POPC   GL228406  29.906  14.256   8.850
 5360POPC   C1A28407  29.899  14.416   8.550
 5360POPC   D2A28408  29.950  14.375   8.250
 5360POPC   C3A28409  29.930  14.432   7.950
 5360POPC   C4A28410  29.901  14.435   7.650
 5360POPC   C1B28411  29.791  14.196   8.550
 5360POPC   C2B28412  29.817  14.194   8.250
 5360POPC   C3B28413  29.819  14.176   7.950
 5360POPC   C4B28414  29.841  14.153   7.650
 5361POPC   NC328415  32.200  20.586   9.450
 5361POPC   PO428416  32.293  20.620   9.150
 5361POPC   GL128417  32.216  20.655   8.850
 5361POPC   GL228418  32.095  20.720   8.850
 5361POPC   C1A28419  32.248  20.630   8.550
 5361POPC   D2A28420  32.207  20.578   8.250
 5361POPC   C3A28421  32.224  20.613   7.950
 5361POPC   C4A28422  32.279  20.582   7.650
 5361POPC   C1B28423  32.000  20.767   8.550
 5361POPC   C2B28424  32.044  20.775   8.250
 5361POPC   C3B28425  32.081  20.740   7.950
 5361POPC   C4B28426  32.046  20.771   7.650
 5362POPC   NC328427  40.738  12.035   9.450
 5362POPC   PO428428  40.791  12.072   9.150
 5362POPC   GL128429  40.787  12.097   8.850
 5362POPC   GL228430  40.686  11.995   8.850
 5362POPC   C1A28431  40.769  12.112   8.550
 5362POPC   D2A28432  40.749  12.094   8.250
 5362POPC   C3A28433  40.831  12.102   7.950
 5362POPC   C4A28434  40.746  12.110   7.650
 5362POPC   C1B28435  40.576  11.942   8.550
 5362POPC   C2B28436  40.538  11.943   8.250
 5362POPC   C3B28437  40.528  11.939   7.950
 5362POPC   C4B28438  40.593  11.985   7.650
 5363POPC   NC328439  13.664   8.930   9.450
 5363POPC   PO428440  13.640   8.969   9.150
 5363POPC   GL128441  13.603   8.937   8.850
 5363POPC   GL228442  13.636   8.838   8.850
 5363POPC   C1A28443  13.638   8.990   8.550
 5363POPC   D2A28444  13.586   8.927   8.250
 5363POPC   C3A28445  13.585   8.941   7.950
 5363POPC   C4A28446  13.673   8.926   7.650
 5363POPC   C1B28447  13.584   8.748   8.550
 5363POPC   C2B28448  13.533   8.711   8.250
 5363POPC   C3B28449  13.535   8.704   7.950
 5363POPC   C4B28450  13.550   8.718   7.650
 5364POPC   NC328451  36.083  33.027   9.450
 5364POPC   PO428452  36.085  33.016   9.150
 5364POPC   GL128453  36.148  32.997   8.850
 5364POPC   GL228454  36.243  33.021   8.850
 5364POPC   C1A28455  36.103  33.042   8.550
 5364POPC   D2A28456  36.159  33.004   8.250
 5364POPC   C3A28457  36.127  32.995   7.950
 5364POPC   C4A28458  36.082  33.055   7.650
 5364POPC   C1B28459  36.357  33.096   8.550
 5364POPC   C2B28460  36.346  33.132   8.250
 5364POPC   C3B28461  36.384  33.043   7.950
 5364POPC   C4B28462  36.416  33.054   7.650
 5365POPC   NC328463  29.141  16.714   9.450
 5365POPC   PO428464  29.166  16.732   9.150
 5365POPC   GL128465  29.165  16.712   8.850
 5365POPC   GL228466  29.201  16.613   8.850
 5365POPC   C1A28467  29.129  16.774   8.550
 5365POPC   D2A28468  29.183  16.699   8.250
 5365POPC   C3A28469  29.137  16.711   7.950
 5365POPC   C4A28470  29.161  16.772   7.650
 5365POPC   C1B28471  29.313  16.517   8.550
 5365POPC   C2B28472  29.318  16.515   8.250
 5365POPC   C3B28473  29.282  16.488   7.950
 5365POPC   C4B28474  29.252  16.561   7.650
 5366POPC   NC328475  29.148  38.465   9.450
 5366POPC   PO428476  29.114  38.421   9.150
 5366POPC   GL128477  29.096  38.479   8.850
 5366POPC   GL228478  29.064  38.580   8.850
 5366POPC   C1A28479  29.125  38.458   8.550
 5366POPC   D2A28480  29.095  38.459   8.250
 5366POPC   C3A28481  29.154  38.486   7.950
 5366POPC   C4A28482  29.134  38.501   7.650
 5366POPC   C1B28483  29.088  38.659   8.550
 5366POPC   C2B28484  29.026  38.653   8.250
 5366POPC   C3B28485  29.057  38.724   7.950
 5366POPC   C4B28486  29.012  38.701   7.650
 5367POPC   NC328487  35.368  15.193   9.450
 5367POPC   PO428488  35.317  15.131   9.150
 5367POPC   GL128489  35.322  15.146   8.850
 5367POPC   GL228490  35.456  15.136   8.850
 5367POPC   C1A28491  35.344  15.154   8.550
 5367POPC   D2A28492  35.384  15.186   8.250
 5367POPC   C3A28493  35.356  15.219   7.950
 5367POPC   C4A28494  35.342  15.222   7.650
 5367POPC   C1B28495  35.634  15.125   8.550
 5367POPC   C2B28496  35.630  15.149   8.250
 5367POPC   C3B28497  35.615  15.119   7.950
 5367POPC   C4B28498  35.597  15.111   7.650
 5368POPC   NC328499  22.890  36.887   9.450
 5368POPC   PO428500  22.965  36.915   9.150
 5368POPC   GL128501  22.969  36.952   8.850
 5368POPC   GL228502  23.082  36.891   8.850
 5368POPC   C1A28503  22.913  36.892   8.550
 5368POPC   D2A28504  22.935  36.862   8.250
 5368POPC   C3A28505  22.927  36.924   7.950
 5368POPC   C4A28506  22.960  36.921   7.650
 5368POPC   C1B28507  23.179  36.915   8.550
 5368POPC   C2B28508  23.185  36.937   8.250
 5368POPC   C3B28509  23.237  36.912   7.950
 5368POPC   C4B28510  23.233  36.899   7.650
 5369POPC   NC328511  12.872  32.217   9.450
 5369POPC   PO428512  12.873  32.239   9.150
 5369POPC   GL128513  12.882  32.217   8.850
 5369POPC   GL228514  12.725  32.259   8.850
 5369POPC   C1A28515  12.839  32.272   8.550
 5369POPC   D2A28516  12.811  32.200   8.250
 5369POPC   C3A28517  12.901  32.281   7.950
 5369POPC   C4A28518  12.869  32.221   7.650
 5369POPC   C1B28519  12.594  32.298   8.550
 5369POPC   C2B28520  12.624  32.361   8.250
 5369POPC   C3B28521  12.640  32.339   7.950
 5369POPC   C4B28522  12.631  32.299   7.650
 5370POPC   NC328523   8.942   2.009   9.450
 5370POPC   PO428524   9.019   1.970   9.150
 5370POPC   GL128525   9.008   2.035   8.850
 5370POPC   GL228526   9.026   2.057   8.850
 5370POPC   C1A28527   8.989   1.940   8.550
 5370POPC   D2A28528   8.979   1.994   8.250
 5370POPC   C3A28529   8.960   2.037   7.950
 5370POPC   C4A28530   9.014   2.035   7.650
 5370POPC   C1B28531   9.047   2.211   8.550
 5370POPC   C2B28532   9.092   2.218   8.250
 5370POPC   C3B28533   9.069   2.225   7.950
 5370POPC   C4B28534   9.072   2.253   7.650
 5371POPC   NC328535   8.992  21.395   9.450
 5371POPC   PO428536   9.021  21.372   9.150
 5371POPC   GL128537   9.019  21.392   8.850
 5371POPC   GL228538   8.973  21.530   8.850
 5371POPC   C1A28539   9.012  21.436   8.550
 5371POPC   D2A28540   8.930  21.379   8.250
 5371POPC   C3A28541   8.947  21.360   7.950
 5371POPC   C4A28542   8.983  21.397   7.650
 5371POPC   C1B28543   8.966  21.602   8.550
 5371POPC   C2B28544   9.010  21.605   8.250
 5371POPC   C3B28545   8.995  21.679   7.950
 5371POPC   C4B28546   9.014  21.633   7.650
 5372POPC   NC328547  24.458  23.706   9.450
 5372POPC   PO428548  24.453  23.737   9.150
 5372POPC   GL128549  24.487  23.730   8.850
 5372POPC   GL228550  24.560  23.619   8.850
 5372POPC   C1A28551  24.527  23.729   8.550
 5372POPC   D2A28552  24.482  23.739   8.250
 5372POPC   C3A28553  24.451  23.699   7.950
 5372POPC   C4A28554  24.471  23.668   7.650
 5372POPC   C1B28555  24.573  23.507   8.550
 5372POPC   C2B28556  24.605  23.464   8.250
 5372POPC   C3B28557  24.576  23.477   7.950
 5372POPC   C4B28558  24.614  23.468   7.650
 5373POPC   NC328559  35.302  31.458   9.450
 5373POPC   PO428560  35.303  31.487   9.150
 5373POPC   GL128561  35.377  31.458   8.850
 5373POPC   GL228562  35.437  31.532   8.850
 5373POPC   C1A28563  35.381  31.483   8.550
 5373POPC   D2A28564  35.373  31.471   8.250
 5373POPC   C3A28565  35.393  31.456   7.950
 5373POPC   C4A28566  35.380  31.509   7.650
 5373POPC   C1B28567  35.614  31.563   8.550
 5373POPC   C2B28568  35.592  31.572   8.250
 5373POPC   C3B28569  35.624  31.552   7.950
 5373POPC   C4B28570  35.567  31.514   7.650
 5374POPC   NC328571  15.201  29.955   9.450
 5374POPC   PO428572  15.159  29.917   9.150
 5374POPC   GL128573  15.137  29.888   8.850
 5374POPC   GL228574  15.131  29.815   8.850
 5374POPC   C1A28575  15.178  29.962   8.550
 5374POPC   D2A28576  15.229  29.964   8.250
 5374POPC   C3A28577  15.173  29.874   7.950
 5374POPC   C4A28578  15.156  29.952   7.650
 5374POPC   C1B28579  15.061  29.707   8.550
 5374POPC   C2B28580  15.040  29.775   8.250
 5374POPC   C3B28581  15.053  29.775   7.950
 5374POPC   C4B28582  14.978  29.714   7.650
 5375POPC   NC328583  44.645  44.694   9.450
 5375POPC   PO428584  44.691  44.652   9.150
 5375POPC   GL128585  44.701  44.619   8.850
 5375POPC   GL228586  44.577  44.781   8.850
 5375POPC   C1A28587  44.651  44.702   8.550
 5375POPC   D2A28588  44.628  44.662   8.250
 5375POPC   C3A28589  44.627  44.667   7.950
 5375POPC   C4A28590  44.668  44.708   7.650
 5375POPC   C1B28591  44.457  44.850   8.550
 5375POPC   C2B28592  44.456  44.870   8.250
 5375POPC   C3B28593  44.493  44.890   7.950
 5375POPC   C4B28594  44.498  44.832   7.650
 5376POPC   NC328595  16.694  13.629   9.450
 5376POPC   PO428596  16.777  13.658   9.150
 5376POPC   GL128597  16.757  13.611   8.850
 5376POPC   GL228598  16.897  13.618   8.850
 5376POPC   C1A28599  16.776  13.626   8.550
 5376POPC   D2A28600  16.727  13.654   8.250
 5376POPC   C3A28601  16.767  13.616   7.950
 5376POPC   C4A28602  16.730  13.592   7.650
 5376POPC   C1B28603  16.996  13.606   8.550
 5376POPC   C2B28604  16.983  13.598   8.250
 5376POPC   C3B28605  16.960  13.627   7.950
 5376POPC   C4B28606  17.029  13.662   7.650
 5377POPC   NC328607  40.006  30.655   9.450
 5377POPC   PO428608  40.040  30.705   9.150
 5377POPC   GL128609  40.057  30.677   8.850
 5377POPC   GL228610  39.944  30.785   8.850
 5377POPC   C1A28611  39.967  30.687   8.550
 5377POPC   D2A28612  40.018  30.653   8.250
 5377POPC   C3A28613  40.020  30.732   7.950
 5377POPC   C4A28614  40.003  30.740   7.650
 5377POPC   C1B28615  39.946  30.909   8.550
 5377POPC   C2B28616  39.928  30.991   8.250
 5377POPC   C3B28617  39.942  30.958   7.950
 5377POPC   C4B28618  39.990  30.906   7.650
 5378POPC   NC328619  36.879   5.898   9.450
 5378POPC   PO428620  36.914   5.852   9.150
 5378POPC   GL128621  36.911   5.868   8.850
 5378POPC   GL228622  36.998   5.797   8.850
 5378POPC   C1A28623  36.864   5.820   8.550
 5378POPC   D2A28624  36.883   5.916   8.250
 5378POPC   C3A28625  36.868   5.894   7.950
 5378POPC   C4A28626  36.942   5.914   7.650
 5378POPC   C1B28627  37.065   5.685   8.550
 5378POPC   C2B28628  37.056   5.642   8.250
 5378POPC   C3B28629  37.073   5.668   7.950
 5378POPC   C4B28630  37.086   5.686   7.650
 5379POPC   NC328631  39.207   3.492   9.450
 5379POPC   PO428632  39.197   3.583   9.150
 5379POPC   GL128633  39.261   3.493   8.850
 5379POPC   GL228634  39.128   3.448   8.850
 5379POPC   C1A28635  39.212   3.509   8.550
 5379POPC   D2A28636  39.234   3.572   8.250
 5379POPC   C3A28637  39.193   3.532   7.950
 5379POPC   C4A28638  39.268   3.496   7.650
 5379POPC   C1B28639  39.024   3.375   8.550
 5379POPC   C2B28640  39.083   3.341   8.250
 5379POPC   C3B28641  39.092   3.393   7.950
 5379POPC   C4B28642  39.052   3.386   7.650
 5380POPC   NC328643  27.562  28.410   9.450
 5380POPC   PO428644  27.567  28.418   9.150
 5380POPC   GL128645  27.632  28.412   8.850
 5380POPC   GL228646  27.530  28.230   8.850
 5380POPC   C1A28647  27.628  28.326   8.550
 5380POPC   D2A28648  27.623  28.382   8.250
 5380POPC   C3A28649  27.544  28.416   7.950
 5380POPC   C4A28650  27.578  28.393   7.650
 5380POPC   C1B28651  27.599  28.153   8.550
 5380POPC   C2B28652  27.518  28.129   8.250
 5380POPC   C3B28653  27.520  28.105   7.950
 5380POPC   C4B28654  27.552  28.149   7.650
 5381POPC   NC328655  31.433   5.892   9.450
 5381POPC   PO428656  31.450   5.888   9.150
 5381POPC   GL128657  31.518   5.819   8.850
 5381POPC   GL228658  31.495   5.979   8.850
 5381POPC   C1A28659  31.457   5.853   8.550
 5381POPC   D2A28660  31.507   5.873   8.250
 5381POPC   C3A28661  31.451   5.851   7.950
 5381POPC   C4A28662  31.485   5.878   7.650
 5381POPC   C1B28663  31.548   6.135   8.550
 5381POPC   C2B28664  31.498   6.131   8.250
 5381POPC   C3B28665  31.520   6.120   7.950
 5381POPC   C4B28666  31.494   6.109   7.650
 5382POPC   NC328667  41.523  22.974   9.450
 5382POPC   PO428668  41.559  22.904   9.150
 5382POPC   GL128669  41.586  22.963   8.850
 5382POPC   GL228670  41.599  22.763   8.850
 5382POPC   C1A28671  41.531  22.918   8.550
 5382POPC   D2A28672  41.529  22.969   8.250
 5382POPC   C3A28673  41.584  22.916   7.950
 5382POPC   C4A28674  41.525  22.959   7.650
 5382POPC   C1B28675  41.524  22.661   8.550
 5382POPC   C2B28676  41.603  22.710   8.250
 5382POPC   C3B28677  41.584  22.662   7.950
 5382POPC   C4B28678  41.600  22.691   7.650
 5383POPC   NC328679  19.031   8.963   9.450
 5383POPC   PO428680  19.061   9.008   9.150
 5383POPC   GL128681  19.052   8.968   8.850
 5383POPC   GL228682  18.952   8.886   8.850
 5383POPC   C1A28683  19.012   9.004   8.550
 5383POPC   D2A28684  19.097   8.939   8.250
 5383POPC   C3A28685  19.014   8.998   7.950
 5383POPC   C4A28686  19.014   9.020   7.650
 5383POPC   C1B28687  18.915   8.761   8.550
 5383POPC   C2B28688  18.964   8.742   8.250
 5383POPC   C3B28689  18.920   8.786   7.950
 5383POPC   C4B28690  18.936   8.789   7.650
 5384POPC   NC328691  38.482  17.511   9.450
 5384POPC   PO428692  38.440  17.532   9.150
 5384POPC   GL128693  38.435  17.521   8.850
 5384POPC   GL228694  38.369  17.441   8.850
 5384POPC   C1A28695  38.451  17.492   8.550
 5384POPC   D2A28696  38.434  17.535   8.250
 5384POPC   C3A28697  38.499  17.473   7.950
 5384POPC   C4A28698  38.453  17.485   7.650
 5384POPC   C1B28699  38.213  17.362   8.550
 5384POPC   C2B28700  38.225  17.422   8.250
 5384POPC   C3B28701  38.187  17.427   7.950
 5384POPC   C4B28702  38.201  17.432   7.650
 5385POPC   NC328703  43.087   3.501   9.450
 5385POPC   PO428704  43.094   3.574   9.150
 5385POPC   GL128705  43.152   3.517   8.850
 5385POPC   GL228706  42.994   3.547   8.850
 5385POPC   C1A28707  43.148   3.495   8.550
 5385POPC   D2A28708  43.096   3.531   8.250
 5385POPC   C3A28709  43.090   3.559   7.950
 5385POPC   C4A28710  43.142   3.546   7.650
 5385POPC   C1B28711  42.864   3.553   8.550
 5385POPC   C2B28712  42.825   3.641   8.250
 5385POPC   C3B28713  42.825   3.595   7.950
 5385POPC   C4B28714  42.825   3.563   7.650
 5386POPC   NC328715  10.499  30.649   9.450
 5386POPC   PO428716  10.566  30.689   9.150
 5386POPC   GL128717  10.501  30.701   8.850
 5386POPC   GL228718  10.520  30.819   8.850
 5386POPC   C1A28719  10.555  30.677   8.550
 5386POPC   D2A28720  10.507  30.661   8.250
 5386POPC   C3A28721  10.558  30.742   7.950
 5386POPC   C4A28722  10.562  30.746   7.650
 5386POPC   C1B28723  10.567  30.909   8.550
 5386POPC   C2B28724  10.586  30.932   8.250
 5386POPC   C3B28725  10.553  30.984   7.950
 5386POPC   C4B28726  10.559  30.966   7.650
 5387POPC   NC328727  22.198   6.601   9.450
 5387POPC   PO428728  22.162   6.595   9.150
 5387POPC   GL128729  22.199   6.632   8.850
 5387POPC   GL228730  22.008   6.669   8.850
 5387POPC   C1A28731  22.202   6.682   8.550
 5387POPC   D2A28732  22.117   6.681   8.250
 5387POPC   C3A28733  22.188   6.690   7.950
 5387POPC   C4A28734  22.202   6.687   7.650
 5387POPC   C1B28735  21.945   6.715   8.550
 5387POPC   C2B28736  21.910   6.711   8.250
 5387POPC   C3B28737  21.940   6.772   7.950
 5387POPC   C4B28738  21.889   6.772   7.650
 5388POPC   NC328739  35.345   2.813   9.450
 5388POPC   PO428740  35.344   2.732   9.150
 5388POPC   GL128741  35.350   2.764   8.850
 5388POPC   GL228742  35.328   2.858   8.850
 5388POPC   C1A28743  35.382   2.749   8.550
 5388POPC   D2A28744  35.364   2.798   8.250
 5388POPC   C3A28745  35.315   2.750   7.950
 5388POPC   C4A28746  35.339   2.757   7.650
 5388POPC   C1B28747  35.417   3.025   8.550
 5388POPC   C2B28748  35.376   2.970   8.250
 5388POPC   C3B28749  35.438   2.971   7.950
 5388POPC   C4B28750  35.407   3.018   7.650
 5389POPC   NC328751  33.770  22.949   9.450
 5389POPC   PO428752  33.833  22.976   9.150
 5389POPC   GL128753  33.763  22.924   8.850
 5389POPC   GL228754  33.708  22.932   8.850
 5389POPC   C1A28755  33.788  22.942   8.550
 5389POPC   D2A28756  33.840  22.904   8.250
 5389POPC   C3A28757  33.826  22.914   7.950
 5389POPC   C4A28758  33.765  22.894   7.650
 5389POPC   C1B28759  33.504  22.924   8.550
 5389POPC   C2B28760  33.503  22.954   8.250
 5389POPC   C3B28761  33.585  22.902   7.950
 5389POPC   C4B28762  33.537  22.898   7.650
 5390POPC   NC328763  29.872  43.920   9.450
 5390POPC   PO428764  29.965  43.883   9.150
 5390POPC   GL128765  29.922  43.935   8.850
 5390POPC   GL228766  29.934  43.813   8.850
 5390POPC   C1A28767  29.948  43.930   8.550
 5390POPC   D2A28768  29.879  43.838   8.250
 5390POPC   C3A28769  29.965  43.898   7.950
 5390POPC   C4A28770  29.884  43.853   7.650
 5390POPC   C1B28771  30.040  43.652   8.550
 5390POPC   C2B28772  30.028  43.682   8.250
 5390POPC   C3B28773  29.953  43.629   7.950
 5390POPC   C4B28774  30.035  43.602   7.650
 5391POPC   NC328775  43.837   5.913   9.450
 5391POPC   PO428776  43.848   5.874   9.150
 5391POPC   GL128777  43.910   5.858   8.850
 5391POPC   GL228778  43.849   5.988   8.850
 5391POPC   C1A28779  43.895   5.879   8.550
 5391POPC   D2A28780  43.916   5.896   8.250
 5391POPC   C3A28781  43.925   5.903   7.950
 5391POPC   C4A28782  43.861   5.857   7.650
 5391POPC   C1B28783  43.764   6.078   8.550
 5391POPC   C2B28784  43.772   6.132   8.250
 5391POPC   C3B28785  43.846   6.079   7.950
 5391POPC   C4B28786  43.787   6.111   7.650
 5392POPC   NC328787  33.794  25.220   9.450
 5392POPC   PO428788  33.768  25.238   9.150
 5392POPC   GL128789  33.761  25.280   8.850
 5392POPC   GL228790  33.701  25.340   8.850
 5392POPC   C1A28791  33.763  25.313   8.550
 5392POPC   D2A28792  33.754  25.254   8.250
 5392POPC   C3A28793  33.778  25.299   7.950
 5392POPC   C4A28794  33.774  25.240   7.650
 5392POPC   C1B28795  33.578  25.471   8.550
 5392POPC   C2B28796  33.627  25.411   8.250
 5392POPC   C3B28797  33.610  25.459   7.950
 5392POPC   C4B28798  33.583  25.471   7.650
 5393POPC   NC328799  31.432   5.088   9.450
 5393POPC   PO428800  31.482   5.051   9.150
 5393POPC   GL128801  31.453   5.139   8.850
 5393POPC   GL228802  31.570   5.157   8.850
 5393POPC   C1A28803  31.517   5.045   8.550
 5393POPC   D2A28804  31.499   5.098   8.250
 5393POPC   C3A28805  31.426   5.094   7.950
 5393POPC   C4A28806  31.479   5.102   7.650
 5393POPC   C1B28807  31.721   5.257   8.550
 5393POPC   C2B28808  31.667   5.188   8.250
 5393POPC   C3B28809  31.635   5.260   7.950
 5393POPC   C4B28810  31.696   5.223   7.650
 5394POPC   NC328811  21.352  40.763   9.450
 5394POPC   PO428812  21.352  40.772   9.150
 5394POPC   GL128813  21.370  40.784   8.850
 5394POPC   GL228814  21.307  40.677   8.850
 5394POPC   C1A28815  21.353  40.818   8.550
 5394POPC   D2A28816  21.387  40.824   8.250
 5394POPC   C3A28817  21.396  40.770   7.950
 5394POPC   C4A28818  21.412  40.830   7.650
 5394POPC   C1B28819  21.140  40.667   8.550
 5394POPC   C2B28820  21.135  40.610   8.250
 5394POPC   C3B28821  21.224  40.691   7.950
 5394POPC   C4B28822  21.209  40.615   7.650
 5395POPC   NC328823   5.863  40.056   9.450
 5395POPC   PO428824   5.897  39.979   9.150
 5395POPC   GL128825   5.864  39.975   8.850
 5395POPC   GL228826   5.696  40.004   8.850
 5395POPC   C1A28827   5.899  39.982   8.550
 5395POPC   D2A28828   5.860  39.975   8.250
 5395POPC   C3A28829   5.862  39.984   7.950
 5395POPC   C4A28830   5.915  40.004   7.650
 5395POPC   C1B28831   5.585  40.018   8.550
 5395POPC   C2B28832   5.669  39.986   8.250
 5395POPC   C3B28833   5.627  40.047   7.950
 5395POPC   C4B28834   5.664  39.973   7.650
 5396POPC   NC328835  37.639  22.962   9.450
 5396POPC   PO428836  37.717  22.925   9.150
 5396POPC   GL128837  37.633  22.912   8.850
 5396POPC   GL228838  37.529  22.828   8.850
 5396POPC   C1A28839  37.708  22.936   8.550
 5396POPC   D2A28840  37.671  22.917   8.250
 5396POPC   C3A28841  37.727  22.917   7.950
 5396POPC   C4A28842  37.647  22.960   7.650
 5396POPC   C1B28843  37.430  22.798   8.550
 5396POPC   C2B28844  37.442  22.829   8.250
 5396POPC   C3B28845  37.490  22.751   7.950
 5396POPC   C4B28846  37.505  22.824   7.650
 5397POPC   NC328847   5.895   9.704   9.450
 5397POPC   PO428848   5.855   9.724   9.150
 5397POPC   GL128849   5.838   9.762   8.850
 5397POPC   GL228850   6.037   9.754   8.850
 5397POPC   C1A28851   5.857   9.779   8.550
 5397POPC   D2A28852   5.900   9.724   8.250
 5397POPC   C3A28853   5.896   9.711   7.950
 5397POPC   C4A28854   5.911   9.754   7.650
 5397POPC   C1B28855   6.092   9.798   8.550
 5397POPC   C2B28856   6.128   9.777   8.250
 5397POPC   C3B28857   6.099   9.832   7.950
 5397POPC   C4B28858   6.089   9.777   7.650
 5398POPC   NC328859  38.494  19.078   9.450
 5398POPC   PO428860  38.445  19.042   9.150
 5398POPC   GL128861  38.421  19.043   8.850
 5398POPC   GL228862  38.547  19.157   8.850
 5398POPC   C1A28863  38.485  19.107   8.550
 5398POPC   D2A28864  38.487  19.053   8.250
 5398POPC   C3A28865  38.438  19.095   7.950
 5398POPC   C4A28866  38.444  19.043   7.650
 5398POPC   C1B28867  38.614  19.259   8.550
 5398POPC   C2B28868  38.538  19.286   8.250
 5398POPC   C3B28869  38.589  19.244   7.950
 5398POPC   C4B28870  38.592  19.288   7.650
 5399POPC   NC328871  30.660  15.223   9.450
 5399POPC   PO428872  30.741  15.206   9.150
 5399POPC   GL128873  30.690  15.196   8.850
 5399POPC   GL228874  30.766  15.238   8.850
 5399POPC   C1A28875  30.716  15.222   8.550
 5399POPC   D2A28876  30.705  15.162   8.250
 5399POPC   C3A28877  30.732  15.197   7.950
 5399POPC   C4A28878  30.731  15.137   7.650
 5399POPC   C1B28879  30.814  15.372   8.550
 5399POPC   C2B28880  30.884  15.341   8.250
 5399POPC   C3B28881  30.800  15.368   7.950
 5399POPC   C4B28882  30.824  15.379   7.650
 5400POPC   NC328883  41.541  36.145   9.450
 5400POPC   PO428884  41.570  36.130   9.150
 5400POPC   GL128885  41.519  36.160   8.850
 5400POPC   GL228886  41.581  35.971   8.850
 5400POPC   C1A28887  41.608  36.091   8.550
 5400POPC   D2A28888  41.517  36.177   8.250
 5400POPC   C3A28889  41.557  36.124   7.950
 5400POPC   C4A28890  41.517  36.111   7.650
 5400POPC   C1B28891  41.671  35.866   8.550
 5400POPC   C2B28892  41.651  35.935   8.250
 5400POPC   C3B28893  41.682  35.912   7.950
 5400POPC   C4B28894  41.656  35.939   7.650
 5401POPC   NC328895   3.571  16.698   9.450
 5401POPC   PO428896   3.572  16.756   9.150
 5401POPC   GL128897   3.582  16.778   8.850
 5401POPC   GL228898   3.640  16.826   8.850
 5401POPC   C1A28899   3.501  16.762   8.550
 5401POPC   D2A28900   3.587  16.766   8.250
 5401POPC   C3A28901   3.530  16.708   7.950
 5401POPC   C4A28902   3.546  16.682   7.650
 5401POPC   C1B28903   3.773  16.884   8.550
 5401POPC   C2B28904   3.698  16.846   8.250
 5401POPC   C3B28905   3.729  16.886   7.950
 5401POPC   C4B28906   3.775  16.906   7.650
 5402POPC   NC328907   2.776  12.090   9.450
 5402POPC   PO428908   2.738  12.095   9.150
 5402POPC   GL128909   2.734  12.060   8.850
 5402POPC   GL228910   2.690  12.103   8.850
 5402POPC   C1A28911   2.788  12.044   8.550
 5402POPC   D2A28912   2.763  12.103   8.250
 5402POPC   C3A28913   2.780  12.035   7.950
 5402POPC   C4A28914   2.783  12.106   7.650
 5402POPC   C1B28915   2.558  12.164   8.550
 5402POPC   C2B28916   2.563  12.189   8.250
 5402POPC   C3B28917   2.537  12.162   7.950
 5402POPC   C4B28918   2.485  12.102   7.650
 5403POPC   NC328919  43.086  43.062   9.450
 5403POPC   PO428920  43.079  43.095   9.150
 5403POPC   GL128921  43.121  43.159   8.850
 5403POPC   GL228922  43.039  43.048   8.850
 5403POPC   C1A28923  43.147  43.101   8.550
 5403POPC   D2A28924  43.094  43.067   8.250
 5403POPC   C3A28925  43.086  43.097   7.950
 5403POPC   C4A28926  43.107  43.084   7.650
 5403POPC   C1B28927  42.932  42.914   8.550
 5403POPC   C2B28928  42.882  43.002   8.250
 5403POPC   C3B28929  42.869  42.949   7.950
 5403POPC   C4B28930  42.875  42.942   7.650
 5404POPC   NC328931   1.943   7.443   9.450
 5404POPC   PO428932   1.976   7.463   9.150
 5404POPC   GL128933   2.014   7.407   8.850
 5404POPC   GL228934   2.046   7.519   8.850
 5404POPC   C1A28935   1.994   7.371   8.550
 5404POPC   D2A28936   1.977   7.457   8.250
 5404POPC   C3A28937   2.033   7.444   7.950
 5404POPC   C4A28938   1.995   7.427   7.650
 5404POPC   C1B28939   2.007   7.625   8.550
 5404POPC   C2B28940   2.053   7.635   8.250
 5404POPC   C3B28941   2.088   7.651   7.950
 5404POPC   C4B28942   2.051   7.651   7.650
 5405POPC   NC328943  29.168  15.923   9.450
 5405POPC   PO428944  29.192  15.960   9.150
 5405POPC   GL128945  29.186  15.989   8.850
 5405POPC   GL228946  29.171  15.856   8.850
 5405POPC   C1A28947  29.155  15.965   8.550
 5405POPC   D2A28948  29.187  15.915   8.250
 5405POPC   C3A28949  29.144  15.956   7.950
 5405POPC   C4A28950  29.186  15.909   7.650
 5405POPC   C1B28951  29.063  15.672   8.550
 5405POPC   C2B28952  29.081  15.711   8.250
 5405POPC   C3B28953  29.097  15.687   7.950
 5405POPC   C4B28954  29.123  15.736   7.650
 5406POPC   NC328955  40.055  15.942   9.450
 5406POPC   PO428956  39.984  15.982   9.150
 5406POPC   GL128957  40.019  15.994   8.850
 5406POPC   GL228958  40.111  16.052   8.850
 5406POPC   C1A28959  39.963  15.956   8.550
 5406POPC   D2A28960  40.044  16.005   8.250
 5406POPC   C3A28961  40.003  15.971   7.950
 5406POPC   C4A28962  39.969  15.907   7.650
 5406POPC   C1B28963  40.211  16.116   8.550
 5406POPC   C2B28964  40.229  16.083   8.250
 5406POPC   C3B28965  40.191  16.064   7.950
 5406POPC   C4B28966  40.259  16.078   7.650
 5407POPC   NC328967  38.425  11.267   9.450
 5407POPC   PO428968  38.499  11.301   9.150
 5407POPC   GL128969  38.496  11.300   8.850
 5407POPC   GL228970  38.309  11.373   8.850
 5407POPC   C1A28971  38.503  11.349   8.550
 5407POPC   D2A28972  38.477  11.292   8.250
 5407POPC   C3A28973  38.443  11.263   7.950
 5407POPC   C4A28974  38.481  11.281   7.650
 5407POPC   C1B28975  38.277  11.390   8.550
 5407POPC   C2B28976  38.209  11.385   8.250
 5407POPC   C3B28977  38.215  11.372   7.950
 5407POPC   C4B28978  38.195  11.412   7.650
 5408POPC   NC328979   2.802   3.540   9.450
 5408POPC   PO428980   2.783   3.492   9.150
 5408POPC   GL128981   2.723   3.515   8.850
 5408POPC   GL228982   2.647   3.557   8.850
 5408POPC   C1A28983   2.781   3.531   8.550
 5408POPC   D2A28984   2.811   3.568   8.250
 5408POPC   C3A28985   2.740   3.518   7.950
 5408POPC   C4A28986   2.768   3.496   7.650
 5408POPC   C1B28987   2.561   3.563   8.550
 5408POPC   C2B28988   2.493   3.540   8.250
 5408POPC   C3B28989   2.483   3.484   7.950
 5408POPC   C4B28990   2.553   3.495   7.650
 5409POPC   NC328991  36.864  33.802   9.450
 5409POPC   PO428992  36.906  33.804   9.150
 5409POPC   GL128993  36.949  33.758   8.850
 5409POPC   GL228994  37.030  33.740   8.850
 5409POPC   C1A28995  36.882  33.836   8.550
 5409POPC   D2A28996  36.880  33.785   8.250
 5409POPC   C3A28997  36.914  33.781   7.950
 5409POPC   C4A28998  36.925  33.811   7.650
 5409POPC   C1B28999  37.172  33.784   8.550
 5409POPC   C2B29000  37.171  33.732   8.250
 5409POPC   C3B29001  37.133  33.794   7.950
 5409POPC   C4B29002  37.140  33.732   7.650
 5410POPC   NC329003  10.532  11.262   9.450
 5410POPC   PO429004  10.497  11.291   9.150
 5410POPC   GL129005  10.515  11.263   8.850
 5410POPC   GL229006  10.497  11.460   8.850
 5410POPC   C1A29007  10.558  11.311   8.550
 5410POPC   D2A29008  10.562  11.347   8.250
 5410POPC   C3A29009  10.489  11.270   7.950
 5410POPC   C4A29010  10.574  11.317   7.650
 5410POPC   C1B29011  10.504  11.503   8.550
 5410POPC   C2B29012  10.590  11.541   8.250
 5410POPC   C3B29013  10.536  11.509   7.950
 5410POPC   C4B29014  10.531  11.566   7.650
 5411POPC   NC329015  17.490  10.525   9.450
 5411POPC   PO429016  17.496  10.479   9.150
 5411POPC   GL129017  17.489  10.511   8.850
 5411POPC   GL229018  17.596  10.568   8.850
 5411POPC   C1A29019  17.484  10.501   8.550
 5411POPC   D2A29020  17.477  10.518   8.250
 5411POPC   C3A29021  17.531  10.488   7.950
 5411POPC   C4A29022  17.520  10.573   7.650
 5411POPC   C1B29023  17.672  10.641   8.550
 5411POPC   C2B29024  17.706  10.700   8.250
 5411POPC   C3B29025  17.708  10.633   7.950
 5411POPC   C4B29026  17.729  10.653   7.650
 5412POPC   NC329027   0.405  35.339   9.450
 5412POPC   PO429028   0.473  35.342   9.150
 5412POPC   GL129029   0.432  35.354   8.850
 5412POPC   GL229030   0.367  35.431   8.850
 5412POPC   C1A29031   0.475  35.377   8.550
 5412POPC   D2A29032   0.443  35.339   8.250
 5412POPC   C3A29033   0.469  35.384   7.950
 5412POPC   C4A29034   0.472  35.311   7.650
 5412POPC   C1B29035   0.179  35.425   8.550
 5412POPC   C2B29036   0.163  35.466   8.250
 5412POPC   C3B29037   0.193  35.448   7.950
 5412POPC   C4B29038   0.162  35.468   7.650
 5413POPC   NC329039  43.842  31.518   9.450
 5413POPC   PO429040  43.839  31.455   9.150
 5413POPC   GL129041  43.895  31.494   8.850
 5413POPC   GL229042  44.013  31.509   8.850
 5413POPC   C1A29043  43.901  31.451   8.550
 5413POPC   D2A29044  43.866  31.497   8.250
 5413POPC   C3A29045  43.844  31.511   7.950
 5413POPC   C4A29046  43.891  31.484   7.650
 5413POPC   C1B29047  44.180  31.484   8.550
 5413POPC   C2B29048  44.112  31.448   8.250
 5413POPC   C3B29049  44.089  31.539   7.950
 5413POPC   C4B29050  44.160  31.540   7.650
 5414POPC   NC329051  33.016  43.084   9.450
 5414POPC   PO429052  33.038  43.117   9.150
 5414POPC   GL129053  33.020  43.080   8.850
 5414POPC   GL229054  33.034  42.982   8.850
 5414POPC   C1A29055  33.003  43.094   8.550
 5414POPC   D2A29056  33.054  43.068   8.250
 5414POPC   C3A29057  32.984  43.152   7.950
 5414POPC   C4A29058  33.063  43.143   7.650
 5414POPC   C1B29059  32.971  42.848   8.550
 5414POPC   C2B29060  32.961  42.823   8.250
 5414POPC   C3B29061  33.049  42.840   7.950
 5414POPC   C4B29062  32.995  42.880   7.650
 5415POPC   NC329063  12.812  25.216   9.450
 5415POPC   PO429064  12.827  25.279   9.150
 5415POPC   GL129065  12.822  25.227   8.850
 5415POPC   GL229066  12.937  25.420   8.850
 5415POPC   C1A29067  12.864  25.277   8.550
 5415POPC   D2A29068  12.812  25.240   8.250
 5415POPC   C3A29069  12.814  25.298   7.950
 5415POPC   C4A29070  12.894  25.235   7.650
 5415POPC   C1B29071  12.927  25.513   8.550
 5415POPC   C2B29072  12.981  25.482   8.250
 5415POPC   C3B29073  12.932  25.443   7.950
 5415POPC   C4B29074  12.931  25.486   7.650
 5416POPC   NC329075  44.613  15.200   9.450
 5416POPC   PO429076  44.682  15.137   9.150
 5416POPC   GL129077  44.630  15.202   8.850
 5416POPC   GL229078  44.576  15.104   8.850
 5416POPC   C1A29079  44.613  15.161   8.550
 5416POPC   D2A29080  44.633  15.185   8.250
 5416POPC   C3A29081  44.706  15.178   7.950
 5416POPC   C4A29082  44.674  15.140   7.650
 5416POPC   C1B29083  44.543  14.961   8.550
 5416POPC   C2B29084  44.586  14.902   8.250
 5416POPC   C3B29085  44.545  14.961   7.950
 5416POPC   C4B29086  44.523  14.974   7.650
 5417POPC   NC329087  22.967   2.031   9.450
 5417POPC   PO429088  22.949   1.989   9.150
 5417POPC   GL129089  22.897   2.023   8.850
 5417POPC   GL229090  22.998   2.075   8.850
 5417POPC   C1A29091  22.928   2.035   8.550
 5417POPC   D2A29092  22.901   1.958   8.250
 5417POPC   C3A29093  22.915   1.947   7.950
 5417POPC   C4A29094  22.966   1.980   7.650
 5417POPC   C1B29095  23.119   2.150   8.550
 5417POPC   C2B29096  23.171   2.160   8.250
 5417POPC   C3B29097  23.109   2.091   7.950
 5417POPC   C4B29098  23.152   2.131   7.650
 5418POPC   NC329099  27.629  13.644   9.450
 5418POPC   PO429100  27.634  13.653   9.150
 5418POPC   GL129101  27.642  13.662   8.850
 5418POPC   GL229102  27.504  13.461   8.850
 5418POPC   C1A29103  27.607  13.611   8.550
 5418POPC   D2A29104  27.618  13.663   8.250
 5418POPC   C3A29105  27.592  13.672   7.950
 5418POPC   C4A29106  27.581  13.668   7.650
 5418POPC   C1B29107  27.518  13.434   8.550
 5418POPC   C2B29108  27.507  13.407   8.250
 5418POPC   C3B29109  27.485  13.428   7.950
 5418POPC   C4B29110  27.507  13.351   7.650
 5419POPC   NC329111   6.606  22.123   9.450
 5419POPC   PO429112   6.620  22.193   9.150
 5419POPC   GL129113   6.655  22.172   8.850
 5419POPC   GL229114   6.778  22.233   8.850
 5419POPC   C1A29115   6.642  22.164   8.550
 5419POPC   D2A29116   6.658  22.156   8.250
 5419POPC   C3A29117   6.674  22.194   7.950
 5419POPC   C4A29118   6.655  22.131   7.650
 5419POPC   C1B29119   6.862  22.266   8.550
 5419POPC   C2B29120   6.880  22.256   8.250
 5419POPC   C3B29121   6.843  22.307   7.950
 5419POPC   C4B29122   6.895  22.225   7.650
 5420POPC   NC329123  39.275  36.095   9.450
 5420POPC   PO429124  39.186  36.120   9.150
 5420POPC   GL129125  39.224  36.123   8.850
 5420POPC   GL229126  39.179  36.168   8.850
 5420POPC   C1A29127  39.208  36.167   8.550
 5420POPC   D2A29128  39.257  36.094   8.250
 5420POPC   C3A29129  39.266  36.113   7.950
 5420POPC   C4A29130  39.200  36.153   7.650
 5420POPC   C1B29131  38.982  36.292   8.550
 5420POPC   C2B29132  38.998  36.275   8.250
 5420POPC   C3B29133  38.998  36.246   7.950
 5420POPC   C4B29134  39.035  36.246   7.650
 5421POPC   NC329135  15.150   2.021   9.450
 5421POPC   PO429136  15.210   1.972   9.150
 5421POPC   GL129137  15.181   2.023   8.850
 5421POPC   GL229138  15.087   2.051   8.850
 5421POPC   C1A29139  15.181   1.947   8.550
 5421POPC   D2A29140  15.142   2.025   8.250
 5421POPC   C3A29141  15.132   2.018   7.950
 5421POPC   C4A29142  15.131   1.976   7.650
 5421POPC   C1B29143  14.942   1.994   8.550
 5421POPC   C2B29144  14.891   2.029   8.250
 5421POPC   C3B29145  14.924   1.986   7.950
 5421POPC   C4B29146  14.944   2.040   7.650
 5422POPC   NC329147  19.014  37.679   9.450
 5422POPC   PO429148  19.095  37.657   9.150
 5422POPC   GL129149  19.069  37.650   8.850
 5422POPC   GL229150  19.108  37.630   8.850
 5422POPC   C1A29151  19.103  37.688   8.550
 5422POPC   D2A29152  19.069  37.667   8.250
 5422POPC   C3A29153  19.060  37.729   7.950
 5422POPC   C4A29154  19.024  37.678   7.650
 5422POPC   C1B29155  19.202  37.434   8.550
 5422POPC   C2B29156  19.243  37.481   8.250
 5422POPC   C3B29157  19.216  37.496   7.950
 5422POPC   C4B29158  19.177  37.476   7.650
 5423POPC   NC329159   4.335  42.342   9.450
 5423POPC   PO429160   4.336  42.302   9.150
 5423POPC   GL129161   4.303  42.296   8.850
 5423POPC   GL229162   4.159  42.356   8.850
 5423POPC   C1A29163   4.329  42.350   8.550
 5423POPC   D2A29164   4.367  42.305   8.250
 5423POPC   C3A29165   4.294  42.312   7.950
 5423POPC   C4A29166   4.332  42.342   7.650
 5423POPC   C1B29167   4.114  42.360   8.550
 5423POPC   C2B29168   4.112  42.352   8.250
 5423POPC   C3B29169   4.095  42.382   7.950
 5423POPC   C4B29170   4.096  42.390   7.650
 5424POPC   NC329171  12.821  14.437   9.450
 5424POPC   PO429172  12.883  14.361   9.150
 5424POPC   GL129173  12.898  14.440   8.850
 5424POPC   GL229174  12.918  14.356   8.850
 5424POPC   C1A29175  12.822  14.397   8.550
 5424POPC   D2A29176  12.860  14.421   8.250
 5424POPC   C3A29177  12.879  14.444   7.950
 5424POPC   C4A29178  12.878  14.393   7.650
 5424POPC   C1B29179  13.033  14.273   8.550
 5424POPC   C2B29180  13.126  14.328   8.250
 5424POPC   C3B29181  13.044  14.305   7.950
 5424POPC   C4B29182  13.125  14.323   7.650
 5425POPC   NC329183  27.603   8.963   9.450
 5425POPC   PO429184  27.596   8.929   9.150
 5425POPC   GL129185  27.616   8.956   8.850
 5425POPC   GL229186  27.616   9.095   8.850
 5425POPC   C1A29187  27.588   8.970   8.550
 5425POPC   D2A29188  27.555   8.973   8.250
 5425POPC   C3A29189  27.548   8.939   7.950
 5425POPC   C4A29190  27.579   8.929   7.650
 5425POPC   C1B29191  27.645   9.223   8.550
 5425POPC   C2B29192  27.565   9.265   8.250
 5425POPC   C3B29193  27.584   9.193   7.950
 5425POPC   C4B29194  27.584   9.230   7.650
 5426POPC   NC329195  19.077  14.384   9.450
 5426POPC   PO429196  19.055  14.407   9.150
 5426POPC   GL129197  19.040  14.383   8.850
 5426POPC   GL229198  19.214  14.410   8.850
 5426POPC   C1A29199  19.030  14.407   8.550
 5426POPC   D2A29200  19.086  14.423   8.250
 5426POPC   C3A29201  19.035  14.353   7.950
 5426POPC   C4A29202  19.050  14.418   7.650
 5426POPC   C1B29203  19.283  14.481   8.550
 5426POPC   C2B29204  19.350  14.493   8.250
 5426POPC   C3B29205  19.328  14.480   7.950
 5426POPC   C4B29206  19.270  14.406   7.650
 5427POPC   NC329207  39.232  26.008   9.450
 5427POPC   PO429208  39.256  26.019   9.150
 5427POPC   GL129209  39.220  26.059   8.850
 5427POPC   GL229210  39.275  25.882   8.850
 5427POPC   C1A29211  39.254  26.049   8.550
 5427POPC   D2A29212  39.277  25.998   8.250
 5427POPC   C3A29213  39.250  26.022   7.950
 5427POPC   C4A29214  39.274  26.084   7.650
 5427POPC   C1B29215  39.347  25.805   8.550
 5427POPC   C2B29216  39.315  25.770   8.250
 5427POPC   C3B29217  39.290  25.846   7.950
 5427POPC   C4B29218  39.293  25.801   7.650
 5428POPC   NC329219  43.919   5.140   9.450
 5428POPC   PO429220  43.907   5.046   9.150
 5428POPC   GL129221  43.870   5.047   8.850
 5428POPC   GL229222  43.799   5.025   8.850
 5428POPC   C1A29223  43.912   5.100   8.550
 5428POPC   D2A29224  43.845   5.137   8.250
 5428POPC   C3A29225  43.935   5.099   7.950
 5428POPC   C4A29226  43.877   5.111   7.650
 5428POPC   C1B29227  43.794   4.911   8.550
 5428POPC   C2B29228  43.792   4.893   8.250
 5428POPC   C3B29229  43.732   4.896   7.950
 5428POPC   C4B29230  43.719   4.847   7.650
 5429POPC   NC329231  15.147  21.337   9.450
 5429POPC   PO429232  15.160  21.389   9.150
 5429POPC   GL129233  15.132  21.407   8.850
 5429POPC   GL229234  15.171  21.538   8.850
 5429POPC   C1A29235  15.139  21.380   8.550
 5429POPC   D2A29236  15.131  21.384   8.250
 5429POPC   C3A29237  15.204  21.390   7.950
 5429POPC   C4A29238  15.169  21.395   7.650
 5429POPC   C1B29239  15.147  21.666   8.550
 5429POPC   C2B29240  15.154  21.673   8.250
 5429POPC   C3B29241  15.231  21.683   7.950
 5429POPC   C4B29242  15.235  21.628   7.650
 5430POPC   NC329243   9.764  34.595   9.450
 5430POPC   PO429244   9.725  34.577   9.150
 5430POPC   GL129245   9.713  34.553   8.850
 5430POPC   GL229246   9.666  34.506   8.850
 5430POPC   C1A29247   9.773  34.585   8.550
 5430POPC   D2A29248   9.722  34.624   8.250
 5430POPC   C3A29249   9.699  34.617   7.950
 5430POPC   C4A29250   9.779  34.594   7.650
 5430POPC   C1B29251   9.617  34.389   8.550
 5430POPC   C2B29252   9.657  34.399   8.250
 5430POPC   C3B29253   9.629  34.342   7.950
 5430POPC   C4B29254   9.684  34.355   7.650
 5431POPC   NC329255  35.393  12.044   9.450
 5431POPC   PO429256  35.347  12.101   9.150
 5431POPC   GL129257  35.303  12.048   8.850
 5431POPC   GL229258  35.413  12.160   8.850
 5431POPC   C1A29259  35.347  12.115   8.550
 5431POPC   D2A29260  35.354  12.076   8.250
 5431POPC   C3A29261  35.355  12.045   7.950
 5431POPC   C4A29262  35.356  12.034   7.650
 5431POPC   C1B29263  35.414  12.346   8.550
 5431POPC   C2B29264  35.431  12.291   8.250
 5431POPC   C3B29265  35.436  12.263   7.950
 5431POPC   C4B29266  35.485  12.327   7.650
 5432POPC   NC329267   1.263  41.509   9.450
 5432POPC   PO429268   1.200  41.554   9.150
 5432POPC   GL129269   1.207  41.538   8.850
 5432POPC   GL229270   1.208  41.487   8.850
 5432POPC   C1A29271   1.205  41.567   8.550
 5432POPC   D2A29272   1.252  41.551   8.250
 5432POPC   C3A29273   1.194  41.538   7.950
 5432POPC   C4A29274   1.170  41.566   7.650
 5432POPC   C1B29275   1.307  41.311   8.550
 5432POPC   C2B29276   1.252  41.315   8.250
 5432POPC   C3B29277   1.269  41.348   7.950
 5432POPC   C4B29278   1.248  41.359   7.650
 5433POPC   NC329279  44.643   0.463   9.450
 5433POPC   PO429280  44.689   0.410   9.150
 5433POPC   GL129281  44.671   0.435   8.850
 5433POPC   GL229282  44.532   0.418   8.850
 5433POPC   C1A29283  44.674   0.388   8.550
 5433POPC   D2A29284  44.635   0.454   8.250
 5433POPC   C3A29285  44.688   0.460   7.950
 5433POPC   C4A29286  44.683   0.397   7.650
 5433POPC   C1B29287  44.435   0.439   8.550
 5433POPC   C2B29288  44.388   0.414   8.250
 5433POPC   C3B29289  44.415   0.360   7.950
 5433POPC   C4B29290  44.450   0.430   7.650
 5434POPC   NC329291  24.456   8.228   9.450
 5434POPC   PO429292  24.513   8.223   9.150
 5434POPC   GL129293  24.489   8.198   8.850
 5434POPC   GL229294  24.446   8.035   8.850
 5434POPC   C1A29295  24.528   8.230   8.550
 5434POPC   D2A29296  24.443   8.223   8.250
 5434POPC   C3A29297  24.441   8.244   7.950
 5434POPC   C4A29298  24.452   8.243   7.650
 5434POPC   C1B29299  24.540   7.966   8.550
 5434POPC   C2B29300  24.536   7.994   8.250
 5434POPC   C3B29301  24.489   7.924   7.950
 5434POPC   C4B29302  24.525   7.995   7.650
 5435POPC   NC329303  11.345   3.498   9.450
 5435POPC   PO429304  11.337   3.522   9.150
 5435POPC   GL129305  11.280   3.512   8.850
 5435POPC   GL229306  11.377   3.395   8.850
 5435POPC   C1A29307  11.332   3.511   8.550
 5435POPC   D2A29308  11.270   3.587   8.250
 5435POPC   C3A29309  11.313   3.543   7.950
 5435POPC   C4A29310  11.330   3.582   7.650
 5435POPC   C1B29311  11.348   3.260   8.550
 5435POPC   C2B29312  11.360   3.316   8.250
 5435POPC   C3B29313  11.425   3.289   7.950
 5435POPC   C4B29314  11.379   3.290   7.650
 5436POPC   NC329315  44.655  22.193   9.450
 5436POPC   PO429316  44.639  22.137   9.150
 5436POPC   GL129317  44.668  22.157   8.850
 5436POPC   GL229318  44.582  22.224   8.850
 5436POPC   C1A29319  44.671  22.147   8.550
 5436POPC   D2A29320  44.628  22.114   8.250
 5436POPC   C3A29321  44.677  22.126   7.950
 5436POPC   C4A29322  44.629  22.152   7.650
 5436POPC   C1B29323  44.523  22.387   8.550
 5436POPC   C2B29324  44.566  22.344   8.250
 5436POPC   C3B29325  44.543  22.378   7.950
 5436POPC   C4B29326  44.522  22.419   7.650
 5437POPC   NC329327  15.184   5.881   9.450
 5437POPC   PO429328  15.194   5.872   9.150
 5437POPC   GL129329  15.177   5.877   8.850
 5437POPC   GL229330  15.278   5.795   8.850
 5437POPC   C1A29331  15.144   5.911   8.550
 5437POPC   D2A29332  15.212   5.888   8.250
 5437POPC   C3A29333  15.147   5.854   7.950
 5437POPC   C4A29334  15.159   5.901   7.650
 5437POPC   C1B29335  15.355   5.662   8.550
 5437POPC   C2B29336  15.317   5.666   8.250
 5437POPC   C3B29337  15.325   5.692   7.950
 5437POPC   C4B29338  15.337   5.674   7.650
 5438POPC   NC329339  42.382   1.197   9.450
 5438POPC   PO429340  42.344   1.260   9.150
 5438POPC   GL129341  42.318   1.204   8.850
 5438POPC   GL229342  42.253   1.160   8.850
 5438POPC   C1A29343  42.305   1.175   8.550
 5438POPC   D2A29344  42.381   1.252   8.250
 5438POPC   C3A29345  42.331   1.221   7.950
 5438POPC   C4A29346  42.384   1.171   7.650
 5438POPC   C1B29347  42.228   1.061   8.550
 5438POPC   C2B29348  42.149   0.983   8.250
 5438POPC   C3B29349  42.143   0.993   7.950
 5438POPC   C4B29350  42.142   1.049   7.650
 5439POPC   NC329351  20.624  39.268   9.450
 5439POPC   PO429352  20.620  39.214   9.150
 5439POPC   GL129353  20.660  39.220   8.850
 5439POPC   GL229354  20.689  39.094   8.850
 5439POPC   C1A29355  20.603  39.198   8.550
 5439POPC   D2A29356  20.594  39.197   8.250
 5439POPC   C3A29357  20.588  39.273   7.950
 5439POPC   C4A29358  20.605  39.199   7.650
 5439POPC   C1B29359  20.751  39.021   8.550
 5439POPC   C2B29360  20.784  39.040   8.250
 5439POPC   C3B29361  20.731  39.045   7.950
 5439POPC   C4B29362  20.750  39.032   7.650
 5440POPC   NC329363  40.056  25.248   9.450
 5440POPC   PO429364  40.013  25.271   9.150
 5440POPC   GL129365  40.053  25.253   8.850
 5440POPC   GL229366  40.162  25.376   8.850
 5440POPC   C1A29367  39.958  25.293   8.550
 5440POPC   D2A29368  39.958  25.273   8.250
 5440POPC   C3A29369  40.018  25.259   7.950
 5440POPC   C4A29370  39.996  25.270   7.650
 5440POPC   C1B29371  40.213  25.356   8.550
 5440POPC   C2B29372  40.260  25.422   8.250
 5440POPC   C3B29373  40.232  25.393   7.950
 5440POPC   C4B29374  40.243  25.371   7.650
 5441POPC   NC329375  12.063  32.255   9.450
 5441POPC   PO429376  12.078  32.292   9.150
 5441POPC   GL129377  12.108  32.208   8.850
 5441POPC   GL229378  12.001  32.156   8.850
 5441POPC   C1A29379  12.037  32.225   8.550
 5441POPC   D2A29380  12.041  32.255   8.250
 5441POPC   C3A29381  12.122  32.289   7.950
 5441POPC   C4A29382  12.112  32.209   7.650
 5441POPC   C1B29383  11.824  32.100   8.550
 5441POPC   C2B29384  11.896  32.072   8.250
 5441POPC   C3B29385  11.881  32.107   7.950
 5441POPC   C4B29386  11.826  32.085   7.650
 5442POPC   NC329387  21.397  33.048   9.450
 5442POPC   PO429388  21.391  32.983   9.150
 5442POPC   GL129389  21.362  33.064   8.850
 5442POPC   GL229390  21.235  32.964   8.850
 5442POPC   C1A29391  21.349  33.054   8.550
 5442POPC   D2A29392  21.393  33.048   8.250
 5442POPC   C3A29393  21.411  33.036   7.950
 5442POPC   C4A29394  21.402  33.062   7.650
 5442POPC   C1B29395  21.145  32.896   8.550
 5442POPC   C2B29396  21.195  32.897   8.250
 5442POPC   C3B29397  21.193  32.869   7.950
 5442POPC   C4B29398  21.131  32.929   7.650
 5443POPC   NC329399   0.438  22.985   9.450
 5443POPC   PO429400   0.392  22.918   9.150
 5443POPC   GL129401   0.428  22.904   8.850
 5443POPC   GL229402   0.565  23.047   8.850
 5443POPC   C1A29403   0.487  22.960   8.550
 5443POPC   D2A29404   0.479  22.979   8.250
 5443POPC   C3A29405   0.398  22.951   7.950
 5443POPC   C4A29406   0.477  22.911   7.650
 5443POPC   C1B29407   0.655  23.150   8.550
 5443POPC   C2B29408   0.648  23.094   8.250
 5443POPC   C3B29409   0.656  23.116   7.950
 5443POPC   C4B29410   0.629  23.070   7.650
 5444POPC   NC329411  36.118  40.743   9.450
 5444POPC   PO429412  36.159  40.808   9.150
 5444POPC   GL129413  36.084  40.826   8.850
 5444POPC   GL229414  36.109  40.883   8.850
 5444POPC   C1A29415  36.141  40.808   8.550
 5444POPC   D2A29416  36.081  40.814   8.250
 5444POPC   C3A29417  36.136  40.787   7.950
 5444POPC   C4A29418  36.154  40.787   7.650
 5444POPC   C1B29419  36.073  40.995   8.550
 5444POPC   C2B29420  36.108  41.040   8.250
 5444POPC   C3B29421  36.084  41.052   7.950
 5444POPC   C4B29422  36.111  41.054   7.650
 5445POPC   NC329423  42.340  15.199   9.450
 5445POPC   PO429424  42.347  15.157   9.150
 5445POPC   GL129425  42.329  15.196   8.850
 5445POPC   GL229426  42.435  15.186   8.850
 5445POPC   C1A29427  42.336  15.190   8.550
 5445POPC   D2A29428  42.298  15.146   8.250
 5445POPC   C3A29429  42.358  15.150   7.950
 5445POPC   C4A29430  42.331  15.165   7.650
 5445POPC   C1B29431  42.545  15.176   8.550
 5445POPC   C2B29432  42.592  15.219   8.250
 5445POPC   C3B29433  42.609  15.145   7.950
 5445POPC   C4B29434  42.586  15.201   7.650
 5446POPC   NC329435  38.475  23.717   9.450
 5446POPC   PO429436  38.497  23.669   9.150
 5446POPC   GL129437  38.432  23.753   8.850
 5446POPC   GL229438  38.399  23.604   8.850
 5446POPC   C1A29439  38.456  23.699   8.550
 5446POPC   D2A29440  38.497  23.704   8.250
 5446POPC   C3A29441  38.441  23.680   7.950
 5446POPC   C4A29442  38.412  23.708   7.650
 5446POPC   C1B29443  38.372  23.453   8.550
 5446POPC   C2B29444  38.335  23.517   8.250
 5446POPC   C3B29445  38.364  23.506   7.950
 5446POPC   C4B29446  38.364  23.523   7.650
 5447POPC   NC329447  23.748  12.087   9.450
 5447POPC   PO429448  23.725  12.083   9.150
 5447POPC   GL129449  23.756  12.042   8.850
 5447POPC   GL229450  23.757  12.002   8.850
 5447POPC   C1A29451  23.760  12.044   8.550
 5447POPC   D2A29452  23.684  12.034   8.250
 5447POPC   C3A29453  23.690  12.062   7.950
 5447POPC   C4A29454  23.708  12.116   7.650
 5447POPC   C1B29455  23.894  11.882   8.550
 5447POPC   C2B29456  23.894  11.873   8.250
 5447POPC   C3B29457  23.886  11.935   7.950
 5447POPC   C4B29458  23.877  11.928   7.650
 5448POPC   NC329459  28.319   3.525   9.450
 5448POPC   PO429460  28.377   3.571   9.150
 5448POPC   GL129461  28.339   3.551   8.850
 5448POPC   GL229462  28.317   3.637   8.850
 5448POPC   C1A29463  28.326   3.539   8.550
 5448POPC   D2A29464  28.411   3.573   8.250
 5448POPC   C3A29465  28.344   3.575   7.950
 5448POPC   C4A29466  28.417   3.544   7.650
 5448POPC   C1B29467  28.323   3.765   8.550
 5448POPC   C2B29468  28.343   3.777   8.250
 5448POPC   C3B29469  28.336   3.792   7.950
 5448POPC   C4B29470  28.364   3.746   7.650
 5449POPC   NC329471  32.255  24.468   9.450
 5449POPC   PO429472  32.207  24.532   9.150
 5449POPC   GL129473  32.283  24.456   8.850
 5449POPC   GL229474  32.111  24.415   8.850
 5449POPC   C1A29475  32.298  24.464   8.550
 5449POPC   D2A29476  32.230  24.462   8.250
 5449POPC   C3A29477  32.236  24.534   7.950
 5449POPC   C4A29478  32.244  24.489   7.650
 5449POPC   C1B29479  31.987  24.450   8.550
 5449POPC   C2B29480  31.993  24.446   8.250
 5449POPC   C3B29481  32.044  24.397   7.950
 5449POPC   C4B29482  32.001  24.414   7.650
 5450POPC   NC329483  19.788  10.562   9.450
 5450POPC   PO429484  19.862  10.557   9.150
 5450POPC   GL129485  19.810  10.525   8.850
 5450POPC   GL229486  19.937  10.493   8.850
 5450POPC   C1A29487  19.850  10.556   8.550
 5450POPC   D2A29488  19.843  10.564   8.250
 5450POPC   C3A29489  19.836  10.503   7.950
 5450POPC   C4A29490  19.788  10.503   7.650
 5450POPC   C1B29491  20.077  10.373   8.550
 5450POPC   C2B29492  20.045  10.378   8.250
 5450POPC   C3B29493  20.025  10.424   7.950
 5450POPC   C4B29494  20.000  10.405   7.650
 5451POPC   NC329495  14.393  20.637   9.450
 5451POPC   PO429496  14.419  20.560   9.150
 5451POPC   GL129497  14.396  20.623   8.850
 5451POPC   GL229498  14.449  20.676   8.850
 5451POPC   C1A29499  14.422  20.575   8.550
 5451POPC   D2A29500  14.364  20.619   8.250
 5451POPC   C3A29501  14.368  20.625   7.950
 5451POPC   C4A29502  14.358  20.592   7.650
 5451POPC   C1B29503  14.514  20.782   8.550
 5451POPC   C2B29504  14.526  20.863   8.250
 5451POPC   C3B29505  14.544  20.792   7.950
 5451POPC   C4B29506  14.553  20.810   7.650
 5452POPC   NC329507   3.544   0.476   9.450
 5452POPC   PO429508   3.502   0.435   9.150
 5452POPC   GL129509   3.564   0.487   8.850
 5452POPC   GL229510   3.386   0.462   8.850
 5452POPC   C1A29511   3.540   0.466   8.550
 5452POPC   D2A29512   3.558   0.405   8.250
 5452POPC   C3A29513   3.568   0.476   7.950
 5452POPC   C4A29514   3.555   0.468   7.650
 5452POPC   C1B29515   3.338   0.502   8.550
 5452POPC   C2B29516   3.283   0.485   8.250
 5452POPC   C3B29517   3.269   0.501   7.950
 5452POPC   C4B29518   3.284   0.543   7.650
 5453POPC   NC329519  10.566  43.077   9.450
 5453POPC   PO429520  10.497  43.082   9.150
 5453POPC   GL129521  10.499  43.158   8.850
 5453POPC   GL229522  10.406  43.178   8.850
 5453POPC   C1A29523  10.527  43.099   8.550
 5453POPC   D2A29524  10.530  43.070   8.250
 5453POPC   C3A29525  10.507  43.107   7.950
 5453POPC   C4A29526  10.500  43.098   7.650
 5453POPC   C1B29527  10.356  43.293   8.550
 5453POPC   C2B29528  10.338  43.336   8.250
 5453POPC   C3B29529  10.366  43.355   7.950
 5453POPC   C4B29530  10.425  43.329   7.650
 5454POPC   NC329531  27.596  40.793   9.450
 5454POPC   PO429532  27.554  40.789   9.150
 5454POPC   GL129533  27.587  40.778   8.850
 5454POPC   GL229534  27.550  40.872   8.850
 5454POPC   C1A29535  27.556  40.804   8.550
 5454POPC   D2A29536  27.604  40.808   8.250
 5454POPC   C3A29537  27.605  40.733   7.950
 5454POPC   C4A29538  27.634  40.827   7.650
 5454POPC   C1B29539  27.394  41.012   8.550
 5454POPC   C2B29540  27.416  41.026   8.250
 5454POPC   C3B29541  27.386  41.008   7.950
 5454POPC   C4B29542  27.420  40.973   7.650
 5455POPC   NC329543  19.849  26.821   9.450
 5455POPC   PO429544  19.810  26.852   9.150
 5455POPC   GL129545  19.810  26.768   8.850
 5455POPC   GL229546  19.816  26.710   8.850
 5455POPC   C1A29547  19.830  26.828   8.550
 5455POPC   D2A29548  19.806  26.863   8.250
 5455POPC   C3A29549  19.876  26.827   7.950
 5455POPC   C4A29550  19.849  26.806   7.650
 5455POPC   C1B29551  19.772  26.594   8.550
 5455POPC   C2B29552  19.836  26.533   8.250
 5455POPC   C3B29553  19.864  26.616   7.950
 5455POPC   C4B29554  19.831  26.606   7.650
 5456POPC   NC329555  28.321  42.366   9.450
 5456POPC   PO429556  28.340  42.367   9.150
 5456POPC   GL129557  28.358  42.312   8.850
 5456POPC   GL229558  28.256  42.396   8.850
 5456POPC   C1A29559  28.407  42.332   8.550
 5456POPC   D2A29560  28.368  42.293   8.250
 5456POPC   C3A29561  28.326  42.289   7.950
 5456POPC   C4A29562  28.324  42.380   7.650
 5456POPC   C1B29563  28.092  42.420   8.550
 5456POPC   C2B29564  28.153  42.368   8.250
 5456POPC   C3B29565  28.173  42.372   7.950
 5456POPC   C4B29566  28.117  42.384   7.650
 5457POPC   NC329567  30.697  20.612   9.450
 5457POPC   PO429568  30.665  20.655   9.150
 5457POPC   GL129569  30.680  20.583   8.850
 5457POPC   GL229570  30.681  20.470   8.850
 5457POPC   C1A29571  30.699  20.611   8.550
 5457POPC   D2A29572  30.666  20.613   8.250
 5457POPC   C3A29573  30.714  20.569   7.950
 5457POPC   C4A29574  30.682  20.570   7.650
 5457POPC   C1B29575  30.631  20.339   8.550
 5457POPC   C2B29576  30.564  20.414   8.250
 5457POPC   C3B29577  30.608  20.343   7.950
 5457POPC   C4B29578  30.604  20.346   7.650
 5458POPC   NC329579  33.835  26.091   9.450
 5458POPC   PO429580  33.828  26.083   9.150
 5458POPC   GL129581  33.774  26.002   8.850
 5458POPC   GL229582  33.790  26.149   8.850
 5458POPC   C1A29583  33.761  26.028   8.550
 5458POPC   D2A29584  33.791  26.071   8.250
 5458POPC   C3A29585  33.773  26.013   7.950
 5458POPC   C4A29586  33.811  26.069   7.650
 5458POPC   C1B29587  33.734  26.304   8.550
 5458POPC   C2B29588  33.801  26.244   8.250
 5458POPC   C3B29589  33.712  26.289   7.950
 5458POPC   C4B29590  33.717  26.312   7.650
 5459POPC   NC329591  38.454  31.455   9.450
 5459POPC   PO429592  38.496  31.501   9.150
 5459POPC   GL129593  38.412  31.506   8.850
 5459POPC   GL229594  38.387  31.534   8.850
 5459POPC   C1A29595  38.496  31.469   8.550
 5459POPC   D2A29596  38.438  31.428   8.250
 5459POPC   C3A29597  38.478  31.459   7.950
 5459POPC   C4A29598  38.456  31.521   7.650
 5459POPC   C1B29599  38.272  31.653   8.550
 5459POPC   C2B29600  38.278  31.587   8.250
 5459POPC   C3B29601  38.259  31.682   7.950
 5459POPC   C4B29602  38.286  31.680   7.650
 5460POPC   NC329603  18.267  31.437   9.450
 5460POPC   PO429604  18.239  31.459   9.150
 5460POPC   GL129605  18.292  31.457   8.850
 5460POPC   GL229606  18.262  31.625   8.850
 5460POPC   C1A29607  18.305  31.506   8.550
 5460POPC   D2A29608  18.329  31.427   8.250
 5460POPC   C3A29609  18.237  31.495   7.950
 5460POPC   C4A29610  18.298  31.497   7.650
 5460POPC   C1B29611  18.327  31.691   8.550
 5460POPC   C2B29612  18.276  31.771   8.250
 5460POPC   C3B29613  18.272  31.735   7.950
 5460POPC   C4B29614  18.261  31.768   7.650
 5461POPC   NC329615  24.440  40.751   9.450
 5461POPC   PO429616  24.443  40.762   9.150
 5461POPC   GL129617  24.472  40.823   8.850
 5461POPC   GL229618  24.584  40.865   8.850
 5461POPC   C1A29619  24.455  40.773   8.550
 5461POPC   D2A29620  24.456  40.779   8.250
 5461POPC   C3A29621  24.525  40.761   7.950
 5461POPC   C4A29622  24.450  40.784   7.650
 5461POPC   C1B29623  24.679  41.024   8.550
 5461POPC   C2B29624  24.660  40.952   8.250
 5461POPC   C3B29625  24.608  40.982   7.950
 5461POPC   C4B29626  24.617  40.954   7.650
 5462POPC   NC329627  31.506   8.152   9.450
 5462POPC   PO429628  31.511   8.197   9.150
 5462POPC   GL129629  31.473   8.204   8.850
 5462POPC   GL229630  31.541   8.271   8.850
 5462POPC   C1A29631  31.509   8.218   8.550
 5462POPC   D2A29632  31.475   8.239   8.250
 5462POPC   C3A29633  31.507   8.164   7.950
 5462POPC   C4A29634  31.438   8.179   7.650
 5462POPC   C1B29635  31.581   8.461   8.550
 5462POPC   C2B29636  31.599   8.435   8.250
 5462POPC   C3B29637  31.567   8.390   7.950
 5462POPC   C4B29638  31.571   8.447   7.650
 5463POPC   NC329639  26.002   9.701   9.450
 5463POPC   PO429640  26.011   9.746   9.150
 5463POPC   GL129641  26.028   9.782   8.850
 5463POPC   GL229642  26.127   9.788   8.850
 5463POPC   C1A29643  26.047   9.710   8.550
 5463POPC   D2A29644  26.011   9.761   8.250
 5463POPC   C3A29645  26.083   9.742   7.950
 5463POPC   C4A29646  26.035   9.778   7.650
 5463POPC   C1B29647  26.273   9.960   8.550
 5463POPC   C2B29648  26.189   9.891   8.250
 5463POPC   C3B29649  26.231   9.958   7.950
 5463POPC   C4B29650  26.262   9.956   7.650
 5464POPC   NC329651  12.866   1.227   9.450
 5464POPC   PO429652  12.859   1.213   9.150
 5464POPC   GL129653  12.829   1.189   8.850
 5464POPC   GL229654  12.722   1.242   8.850
 5464POPC   C1A29655  12.893   1.242   8.550
 5464POPC   D2A29656  12.838   1.215   8.250
 5464POPC   C3A29657  12.811   1.174   7.950
 5464POPC   C4A29658  12.854   1.244   7.650
 5464POPC   C1B29659  12.626   1.303   8.550
 5464POPC   C2B29660  12.670   1.324   8.250
 5464POPC   C3B29661  12.579   1.359   7.950
 5464POPC   C4B29662  12.619   1.276   7.650
 5465POPC   NC329663  10.528  12.107   9.450
 5465POPC   PO429664  10.511  12.073   9.150
 5465POPC   GL129665  10.480  12.124   8.850
 5465POPC   GL229666  10.446  11.982   8.850
 5465POPC   C1A29667  10.507  12.052   8.550
 5465POPC   D2A29668  10.486  12.059   8.250
 5465POPC   C3A29669  10.526  12.051   7.950
 5465POPC   C4A29670  10.528  12.076   7.650
 5465POPC   C1B29671  10.344  11.889   8.550
 5465POPC   C2B29672  10.327  11.912   8.250
 5465POPC   C3B29673  10.348  11.956   7.950
 5465POPC   C4B29674  10.353  11.917   7.650
 5466POPC   NC329675  42.348   5.835   9.450
 5466POPC   PO429676  42.315   5.869   9.150
 5466POPC   GL129677  42.342   5.885   8.850
 5466POPC   GL229678  42.463   5.872   8.850
 5466POPC   C1A29679  42.294   5.853   8.550
 5466POPC   D2A29680  42.316   5.839   8.250
 5466POPC   C3A29681  42.336   5.867   7.950
 5466POPC   C4A29682  42.358   5.842   7.650
 5466POPC   C1B29683  42.564   6.002   8.550
 5466POPC   C2B29684  42.607   5.955   8.250
 5466POPC   C3B29685  42.533   5.977   7.950
 5466POPC   C4B29686  42.524   5.948   7.650
 5467POPC   NC329687  35.391  22.940   9.450
 5467POPC   PO429688  35.323  22.966   9.150
 5467POPC   GL129689  35.357  22.926   8.850
 5467POPC   GL229690  35.441  22.994   8.850
 5467POPC   C1A29691  35.368  22.953   8.550
 5467POPC   D2A29692  35.306  22.947   8.250
 5467POPC   C3A29693  35.349  22.962   7.950
 5467POPC   C4A29694  35.322  22.912   7.650
 5467POPC   C1B29695  35.564  23.069   8.550
 5467POPC   C2B29696  35.492  23.097   8.250
 5467POPC   C3B29697  35.539  23.087   7.950
 5467POPC   C4B29698  35.482  23.114   7.650
 5468POPC   NC329699  19.834  24.502   9.450
 5468POPC   PO429700  19.843  24.513   9.150
 5468POPC   GL129701  19.810  24.486   8.850
 5468POPC   GL229702  19.864  24.568   8.850
 5468POPC   C1A29703  19.875  24.506   8.550
 5468POPC   D2A29704  19.851  24.523   8.250
 5468POPC   C3A29705  19.794  24.449   7.950
 5468POPC   C4A29706  19.867  24.498   7.650
 5468POPC   C1B29707  19.851  24.726   8.550
 5468POPC   C2B29708  19.911  24.777   8.250
 5468POPC   C3B29709  19.877  24.728   7.950
 5468POPC   C4B29710  19.846  24.725   7.650
 5469POPC   NC329711   8.240  24.504   9.450
 5469POPC   PO429712   8.189  24.510   9.150
 5469POPC   GL129713   8.166  24.441   8.850
 5469POPC   GL229714   8.122  24.402   8.850
 5469POPC   C1A29715   8.228  24.442   8.550
 5469POPC   D2A29716   8.167  24.476   8.250
 5469POPC   C3A29717   8.234  24.456   7.950
 5469POPC   C4A29718   8.230  24.537   7.650
 5469POPC   C1B29719   7.957  24.385   8.550
 5469POPC   C2B29720   8.009  24.398   8.250
 5469POPC   C3B29721   7.940  24.312   7.950
 5469POPC   C4B29722   7.980  24.399   7.650
 5470POPC   NC329723  22.165  25.245   9.450
 5470POPC   PO429724  22.141  25.256   9.150
 5470POPC   GL129725  22.129  25.306   8.850
 5470POPC   GL229726  22.208  25.170   8.850
 5470POPC   C1A29727  22.127  25.242   8.550
 5470POPC   D2A29728  22.197  25.279   8.250
 5470POPC   C3A29729  22.188  25.268   7.950
 5470POPC   C4A29730  22.196  25.284   7.650
 5470POPC   C1B29731  22.240  25.018   8.550
 5470POPC   C2B29732  22.251  25.020   8.250
 5470POPC   C3B29733  22.267  25.073   7.950
 5470POPC   C4B29734  22.224  25.057   7.650
 5471POPC   NC329735   8.239  43.141   9.450
 5471POPC   PO429736   8.173  43.086   9.150
 5471POPC   GL129737   8.234  43.149   8.850
 5471POPC   GL229738   8.191  42.951   8.850
 5471POPC   C1A29739   8.212  43.107   8.550
 5471POPC   D2A29740   8.219  43.105   8.250
 5471POPC   C3A29741   8.159  43.125   7.950
 5471POPC   C4A29742   8.217  43.136   7.650
 5471POPC   C1B29743   8.232  42.831   8.550
 5471POPC   C2B29744   8.285  42.891   8.250
 5471POPC   C3B29745   8.292  42.868   7.950
 5471POPC   C4B29746   8.280  42.849   7.650
 5472POPC   NC329747  17.474   5.878   9.450
 5472POPC   PO429748  17.549   5.826   9.150
 5472POPC   GL129749  17.517   5.878   8.850
 5472POPC   GL229750  17.435   5.984   8.850
 5472POPC   C1A29751  17.470   5.917   8.550
 5472POPC   D2A29752  17.477   5.876   8.250
 5472POPC   C3A29753  17.548   5.822   7.950
 5472POPC   C4A29754  17.555   5.883   7.650
 5472POPC   C1B29755  17.308   6.043   8.550
 5472POPC   C2B29756  17.298   6.035   8.250
 5472POPC   C3B29757  17.285   6.056   7.950
 5472POPC   C4B29758  17.326   6.065   7.650
 5473POPC   NC329759  16.778   1.169   9.450
 5473POPC   PO429760  16.689   1.254   9.150
 5473POPC   GL129761  16.740   1.208   8.850
 5473POPC   GL229762  16.809   1.109   8.850
 5473POPC   C1A29763  16.775   1.243   8.550
 5473POPC   D2A29764  16.723   1.247   8.250
 5473POPC   C3A29765  16.686   1.234   7.950
 5473POPC   C4A29766  16.728   1.260   7.650
 5473POPC   C1B29767  16.817   0.937   8.550
 5473POPC   C2B29768  16.781   0.965   8.250
 5473POPC   C3B29769  16.790   1.008   7.950
 5473POPC   C4B29770  16.796   0.950   7.650
 5474POPC   NC329771  33.032  11.334   9.450
 5474POPC   PO429772  33.068  11.339   9.150
 5474POPC   GL129773  32.992  11.253   8.850
 5474POPC   GL229774  32.977  11.412   8.850
 5474POPC   C1A29775  33.064  11.334   8.550
 5474POPC   D2A29776  32.980  11.307   8.250
 5474POPC   C3A29777  33.032  11.348   7.950
 5474POPC   C4A29778  33.057  11.318   7.650
 5474POPC   C1B29779  32.844  11.513   8.550
 5474POPC   C2B29780  32.788  11.499   8.250
 5474POPC   C3B29781  32.878  11.501   7.950
 5474POPC   C4B29782  32.843  11.437   7.650
 5475POPC   NC329783   9.751   1.223   9.450
 5475POPC   PO429784   9.708   1.234   9.150
 5475POPC   GL129785   9.733   1.262   8.850
 5475POPC   GL229786   9.670   1.127   8.850
 5475POPC   C1A29787   9.730   1.205   8.550
 5475POPC   D2A29788   9.785   1.246   8.250
 5475POPC   C3A29789   9.768   1.172   7.950
 5475POPC   C4A29790   9.735   1.260   7.650
 5475POPC   C1B29791   9.611   1.009   8.550
 5475POPC   C2B29792   9.612   1.004   8.250
 5475POPC   C3B29793   9.697   0.978   7.950
 5475POPC   C4B29794   9.699   0.949   7.650
 5476POPC   NC329795  26.794  13.600   9.450
 5476POPC   PO429796  26.830  13.606   9.150
 5476POPC   GL129797  26.768  13.586   8.850
 5476POPC   GL229798  26.959  13.535   8.850
 5476POPC   C1A29799  26.848  13.618   8.550
 5476POPC   D2A29800  26.790  13.677   8.250
 5476POPC   C3A29801  26.836  13.673   7.950
 5476POPC   C4A29802  26.832  13.626   7.650
 5476POPC   C1B29803  26.986  13.467   8.550
 5476POPC   C2B29804  27.053  13.514   8.250
 5476POPC   C3B29805  27.019  13.450   7.950
 5476POPC   C4B29806  27.038  13.498   7.650
 5477POPC   NC329807   3.565  13.645   9.450
 5477POPC   PO429808   3.511  13.673   9.150
 5477POPC   GL129809   3.497  13.665   8.850
 5477POPC   GL229810   3.549  13.752   8.850
 5477POPC   C1A29811   3.544  13.651   8.550
 5477POPC   D2A29812   3.560  13.652   8.250
 5477POPC   C3A29813   3.522  13.633   7.950
 5477POPC   C4A29814   3.527  13.653   7.650
 5477POPC   C1B29815   3.582  13.856   8.550
 5477POPC   C2B29816   3.620  13.878   8.250
 5477POPC   C3B29817   3.601  13.888   7.950
 5477POPC   C4B29818   3.629  13.829   7.650
 5478POPC   NC329819  44.675   4.363   9.450
 5478POPC   PO429820  44.678   4.271   9.150
 5478POPC   GL129821  44.626   4.289   8.850
 5478POPC   GL229822  44.796   4.292   8.850
 5478POPC   C1A29823  44.694   4.325   8.550
 5478POPC   D2A29824  44.655   4.281   8.250
 5478POPC   C3A29825  44.623   4.334   7.950
 5478POPC   C4A29826  44.680   4.351   7.650
 5478POPC   C1B29827  44.892   4.197   8.550
 5478POPC   C2B29828  44.911   4.195   8.250
 5478POPC   C3B29829  44.923   4.210   7.950
 5478POPC   C4B29830  44.919   4.208   7.650
 5479POPC   NC329831  20.624  40.759   9.450
 5479POPC   PO429832  20.645  40.780   9.150
 5479POPC   GL129833  20.586  40.743   8.850
 5479POPC   GL229834  20.534  40.770   8.850
 5479POPC   C1A29835  20.585  40.789   8.550
 5479POPC   D2A29836  20.561  40.802   8.250
 5479POPC   C3A29837  20.596  40.808   7.950
 5479POPC   C4A29838  20.642  40.767   7.650
 5479POPC   C1B29839  20.399  40.723   8.550
 5479POPC   C2B29840  20.420  40.700   8.250
 5479POPC   C3B29841  20.376  40.723   7.950
 5479POPC   C4B29842  20.327  40.690   7.650
 5480POPC   NC329843   0.485  26.058   9.450
 5480POPC   PO429844   0.404  26.083   9.150
 5480POPC   GL129845   0.393  26.063   8.850
 5480POPC   GL229846   0.566  25.953   8.850
 5480POPC   C1A29847   0.428  26.001   8.550
 5480POPC   D2A29848   0.406  26.008   8.250
 5480POPC   C3A29849   0.443  26.053   7.950
 5480POPC   C4A29850   0.436  25.995   7.650
 5480POPC   C1B29851   0.697  25.965   8.550
 5480POPC   C2B29852   0.698  25.915   8.250
 5480POPC   C3B29853   0.632  25.955   7.950
 5480POPC   C4B29854   0.673  25.989   7.650
 5481POPC   NC329855  18.324  36.088   9.450
 5481POPC   PO429856  18.319  36.114   9.150
 5481POPC   GL129857  18.329  36.139   8.850
 5481POPC   GL229858  18.391  36.258   8.850
 5481POPC   C1A29859  18.256  36.108   8.550
 5481POPC   D2A29860  18.271  36.167   8.250
 5481POPC   C3A29861  18.261  36.175   7.950
 5481POPC   C4A29862  18.318  36.085   7.650
 5481POPC   C1B29863  18.416  36.358   8.550
 5481POPC   C2B29864  18.394  36.328   8.250
 5481POPC   C3B29865  18.420  36.368   7.950
 5481POPC   C4B29866  18.462  36.291   7.650
 5482POPC   NC329867  30.670  33.824   9.450
 5482POPC   PO429868  30.743  33.769   9.150
 5482POPC   GL129869  30.712  33.795   8.850
 5482POPC   GL229870  30.686  33.966   8.850
 5482POPC   C1A29871  30.695  33.810   8.550
 5482POPC   D2A29872  30.746  33.790   8.250
 5482POPC   C3A29873  30.728  33.841   7.950
 5482POPC   C4A29874  30.664  33.803   7.650
 5482POPC   C1B29875  30.662  34.055   8.550
 5482POPC   C2B29876  30.650  34.053   8.250
 5482POPC   C3B29877  30.659  34.026   7.950
 5482POPC   C4B29878  30.681  34.041   7.650
 5483POPC   NC329879   4.337   5.868   9.450
 5483POPC   PO429880   4.366   5.856   9.150
 5483POPC   GL129881   4.365   5.820   8.850
 5483POPC   GL229882   4.321   5.771   8.850
 5483POPC   C1A29883   4.267   5.888   8.550
 5483POPC   D2A29884   4.303   5.844   8.250
 5483POPC   C3A29885   4.359   5.840   7.950
 5483POPC   C4A29886   4.290   5.907   7.650
 5483POPC   C1B29887   4.411   5.589   8.550
 5483POPC   C2B29888   4.405   5.634   8.250
 5483POPC   C3B29889   4.391   5.663   7.950
 5483POPC   C4B29890   4.395   5.593   7.650
 5484POPC   NC329891  17.488   8.232   9.450
 5484POPC   PO429892  17.529   8.223   9.150
 5484POPC   GL129893  17.475   8.183   8.850
 5484POPC   GL229894  17.543   8.320   8.850
 5484POPC   C1A29895  17.550   8.224   8.550
 5484POPC   D2A29896  17.477   8.237   8.250
 5484POPC   C3A29897  17.508   8.242   7.950
 5484POPC   C4A29898  17.532   8.237   7.650
 5484POPC   C1B29899  17.444   8.490   8.550
 5484POPC   C2B29900  17.446   8.448   8.250
 5484POPC   C3B29901  17.506   8.467   7.950
 5484POPC   C4B29902  17.532   8.418   7.650
 5485POPC   NC329903  32.992  10.536   9.450
 5485POPC   PO429904  33.004  10.558   9.150
 5485POPC   GL129905  33.049  10.544   8.850
 5485POPC   GL229906  32.944  10.676   8.850
 5485POPC   C1A29907  32.976  10.559   8.550
 5485POPC   D2A29908  33.072  10.540   8.250
 5485POPC   C3A29909  33.069  10.508   7.950
 5485POPC   C4A29910  33.073  10.491   7.650
 5485POPC   C1B29911  32.883  10.730   8.550
 5485POPC   C2B29912  32.923  10.704   8.250
 5485POPC   C3B29913  32.919  10.763   7.950
 5485POPC   C4B29914  32.839  10.757   7.650
 5486POPC   NC329915  24.537  22.184   9.450
 5486POPC   PO429916  24.487  22.189   9.150
 5486POPC   GL129917  24.454  22.200   8.850
 5486POPC   GL229918  24.468  22.268   8.850
 5486POPC   C1A29919  24.507  22.138   8.550
 5486POPC   D2A29920  24.532  22.168   8.250
 5486POPC   C3A29921  24.539  22.148   7.950
 5486POPC   C4A29922  24.457  22.170   7.650
 5486POPC   C1B29923  24.541  22.374   8.550
 5486POPC   C2B29924  24.468  22.449   8.250
 5486POPC   C3B29925  24.499  22.400   7.950
 5486POPC   C4B29926  24.466  22.388   7.650
 5487POPC   NC329927  41.586   1.970   9.450
 5487POPC   PO429928  41.521   1.988   9.150
 5487POPC   GL129929  41.601   2.027   8.850
 5487POPC   GL229930  41.605   1.891   8.850
 5487POPC   C1A29931  41.514   1.960   8.550
 5487POPC   D2A29932  41.530   2.005   8.250
 5487POPC   C3A29933  41.521   1.968   7.950
 5487POPC   C4A29934  41.602   1.941   7.650
 5487POPC   C1B29935  41.664   1.797   8.550
 5487POPC   C2B29936  41.646   1.772   8.250
 5487POPC   C3B29937  41.624   1.716   7.950
 5487POPC   C4B29938  41.686   1.745   7.650
 5488POPC   NC329939   5.855   5.914   9.450
 5488POPC   PO429940   5.881   5.900   9.150
 5488POPC   GL129941   5.903   5.890   8.850
 5488POPC   GL229942   5.975   5.881   8.850
 5488POPC   C1A29943   5.913   5.904   8.550
 5488POPC   D2A29944   5.907   5.847   8.250
 5488POPC   C3A29945   5.856   5.905   7.950
 5488POPC   C4A29946   5.894   5.900   7.650
 5488POPC   C1B29947   6.125   5.970   8.550
 5488POPC   C2B29948   6.144   5.938   8.250
 5488POPC   C3B29949   6.079   5.975   7.950
 5488POPC   C4B29950   6.131   5.947   7.650
 5489POPC   NC329951  23.691  42.307   9.450
 5489POPC   PO429952  23.667  42.286   9.150
 5489POPC   GL129953  23.691  42.289   8.850
 5489POPC   GL229954  23.868  42.334   8.850
 5489POPC   C1A29955  23.720  42.299   8.550
 5489POPC   D2A29956  23.683  42.326   8.250
 5489POPC   C3A29957  23.725  42.373   7.950
 5489POPC   C4A29958  23.712  42.285   7.650
 5489POPC   C1B29959  23.956  42.423   8.550
 5489POPC   C2B29960  23.996  42.445   8.250
 5489POPC   C3B29961  23.919  42.371   7.950
 5489POPC   C4B29962  23.937  42.433   7.650
 5490POPC   NC329963  42.333  14.431   9.450
 5490POPC   PO429964  42.318  14.433   9.150
 5490POPC   GL129965  42.300  14.365   8.850
 5490POPC   GL229966  42.377  14.345   8.850
 5490POPC   C1A29967  42.359  14.396   8.550
 5490POPC   D2A29968  42.299  14.446   8.250
 5490POPC   C3A29969  42.349  14.427   7.950
 5490POPC   C4A29970  42.316  14.432   7.650
 5490POPC   C1B29971  42.468  14.229   8.550
 5490POPC   C2B29972  42.450  14.179   8.250
 5490POPC   C3B29973  42.474  14.146   7.950
 5490POPC   C4B29974  42.499  14.157   7.650
 5491POPC   NC329975  33.001  22.948   9.450
 5491POPC   PO429976  33.035  22.917   9.150
 5491POPC   GL129977  33.060  22.920   8.850
 5491POPC   GL229978  33.037  22.836   8.850
 5491POPC   C1A29979  33.009  22.957   8.550
 5491POPC   D2A29980  33.017  22.986   8.250
 5491POPC   C3A29981  33.030  22.911   7.950
 5491POPC   C4A29982  33.065  22.981   7.650
 5491POPC   C1B29983  32.951  22.663   8.550
 5491POPC   C2B29984  32.972  22.679   8.250
 5491POPC   C3B29985  32.976  22.706   7.950
 5491POPC   C4B29986  32.913  22.719   7.650
 5492POPC   NC329987  11.306   8.228   9.450
 5492POPC   PO429988  11.255   8.194   9.150
 5492POPC   GL129989  11.283   8.243   8.850
 5492POPC   GL229990  11.437   8.166   8.850
 5492POPC   C1A29991  11.325   8.149   8.550
 5492POPC   D2A29992  11.281   8.177   8.250
 5492POPC   C3A29993  11.305   8.160   7.950
 5492POPC   C4A29994  11.271   8.196   7.650
 5492POPC   C1B29995  11.585   8.219   8.550
 5492POPC   C2B29996  11.540   8.182   8.250
 5492POPC   C3B29997  11.523   8.212   7.950
 5492POPC   C4B29998  11.550   8.170   7.650
 5493POPC   NC329999  33.038  19.880   9.450
 5493POPC   PO430000  33.030  19.862   9.150
 5493POPC   GL130001  33.038  19.806   8.850
 5493POPC   GL230002  32.933  19.916   8.850
 5493POPC   C1A30003  33.025  19.824   8.550
 5493POPC   D2A30004  33.065  19.793   8.250
 5493POPC   C3A30005  33.047  19.811   7.950
 5493POPC   C4A30006  33.051  19.863   7.650
 5493POPC   C1B30007  32.782  19.923   8.550
 5493POPC   C2B30008  32.797  19.901   8.250
 5493POPC   C3B30009  32.819  19.865   7.950
 5493POPC   C4B30010  32.751  19.906   7.650
 5494POPC   NC330011  15.226  18.251   9.450
 5494POPC   PO430012  15.189  18.323   9.150
 5494POPC   GL130013  15.207  18.328   8.850
 5494POPC   GL230014  15.234  18.199   8.850
 5494POPC   C1A30015  15.179  18.279   8.550
 5494POPC   D2A30016  15.208  18.313   8.250
 5494POPC   C3A30017  15.145  18.286   7.950
 5494POPC   C4A30018  15.205  18.300   7.650
 5494POPC   C1B30019  15.410  18.130   8.550
 5494POPC   C2B30020  15.383  18.183   8.250
 5494POPC   C3B30021  15.364  18.186   7.950
 5494POPC   C4B30022  15.419  18.107   7.650
 5495POPC   NC330023  14.376  43.087   9.450
 5495POPC   PO430024  14.414  43.077   9.150
 5495POPC   GL130025  14.391  43.085   8.850
 5495POPC   GL230026  14.524  42.989   8.850
 5495POPC   C1A30027  14.437  43.112   8.550
 5495POPC   D2A30028  14.356  43.091   8.250
 5495POPC   C3A30029  14.409  43.103   7.950
 5495POPC   C4A30030  14.418  43.155   7.650
 5495POPC   C1B30031  14.658  42.985   8.550
 5495POPC   C2B30032  14.563  42.925   8.250
 5495POPC   C3B30033  14.644  42.953   7.950
 5495POPC   C4B30034  14.581  42.963   7.650
 5496POPC   NC330035  36.906   6.663   9.450
 5496POPC   PO430036  36.904   6.638   9.150
 5496POPC   GL130037  36.902   6.669   8.850
 5496POPC   GL230038  36.797   6.689   8.850
 5496POPC   C1A30039  36.855   6.654   8.550
 5496POPC   D2A30040  36.862   6.684   8.250
 5496POPC   C3A30041  36.921   6.671   7.950
 5496POPC   C4A30042  36.953   6.628   7.650
 5496POPC   C1B30043  36.732   6.817   8.550
 5496POPC   C2B30044  36.716   6.786   8.250
 5496POPC   C3B30045  36.691   6.845   7.950
 5496POPC   C4B30046  36.685   6.818   7.650
 5497POPC   NC330047  13.641  35.381   9.450
 5497POPC   PO430048  13.657  35.346   9.150
 5497POPC   GL130049  13.585  35.348   8.850
 5497POPC   GL230050  13.702  35.258   8.850
 5497POPC   C1A30051  13.632  35.343   8.550
 5497POPC   D2A30052  13.641  35.336   8.250
 5497POPC   C3A30053  13.595  35.335   7.950
 5497POPC   C4A30054  13.613  35.379   7.650
 5497POPC   C1B30055  13.840  35.148   8.550
 5497POPC   C2B30056  13.818  35.178   8.250
 5497POPC   C3B30057  13.790  35.179   7.950
 5497POPC   C4B30058  13.868  35.186   7.650
 5498POPC   NC330059   8.924   3.588   9.450
 5498POPC   PO430060   8.956   3.590   9.150
 5498POPC   GL130061   8.927   3.565   8.850
 5498POPC   GL230062   8.955   3.696   8.850
 5498POPC   C1A30063   9.017   3.492   8.550
 5498POPC   D2A30064   8.982   3.565   8.250
 5498POPC   C3A30065   8.995   3.549   7.950
 5498POPC   C4A30066   9.019   3.559   7.650
 5498POPC   C1B30067   9.039   3.820   8.550
 5498POPC   C2B30068   9.005   3.770   8.250
 5498POPC   C3B30069   9.014   3.762   7.950
 5498POPC   C4B30070   8.998   3.812   7.650
 5499POPC   NC330071   9.776  33.837   9.450
 5499POPC   PO430072   9.724  33.787   9.150
 5499POPC   GL130073   9.765  33.769   8.850
 5499POPC   GL230074   9.695  33.930   8.850
 5499POPC   C1A30075   9.787  33.769   8.550
 5499POPC   D2A30076   9.700  33.812   8.250
 5499POPC   C3A30077   9.719  33.782   7.950
 5499POPC   C4A30078   9.774  33.780   7.650
 5499POPC   C1B30079   9.632  34.035   8.550
 5499POPC   C2B30080   9.698  34.004   8.250
 5499POPC   C3B30081   9.699  34.034   7.950
 5499POPC   C4B30082   9.625  33.999   7.650
 5500POPC   NC330083  26.038  19.051   9.450
 5500POPC   PO430084  26.064  19.107   9.150
 5500POPC   GL130085  26.047  19.022   8.850
 5500POPC   GL230086  26.190  19.081   8.850
 5500POPC   C1A30087  26.004  19.009   8.550
 5500POPC   D2A30088  26.063  19.020   8.250
 5500POPC   C3A30089  26.091  19.081   7.950
 5500POPC   C4A30090  26.082  19.043   7.650
 5500POPC   C1B30091  26.333  18.981   8.550
 5500POPC   C2B30092  26.300  19.029   8.250
 5500POPC   C3B30093  26.268  19.048   7.950
 5500POPC   C4B30094  26.322  19.012   7.650
 5501POPC   NC330095   2.741  22.949   9.450
 5501POPC   PO430096   2.727  22.897   9.150
 5501POPC   GL130097   2.741  22.978   8.850
 5501POPC   GL230098   2.744  23.079   8.850
 5501POPC   C1A30099   2.808  22.966   8.550
 5501POPC   D2A30100   2.757  22.952   8.250
 5501POPC   C3A30101   2.754  22.908   7.950
 5501POPC   C4A30102   2.754  22.972   7.650
 5501POPC   C1B30103   2.814  23.134   8.550
 5501POPC   C2B30104   2.859  23.166   8.250
 5501POPC   C3B30105   2.845  23.138   7.950
 5501POPC   C4B30106   2.854  23.165   7.650
 5502POPC   NC330107  36.129  41.602   9.450
 5502POPC   PO430108  36.088  41.511   9.150
 5502POPC   GL130109  36.084  41.592   8.850
 5502POPC   GL230110  36.083  41.666   8.850
 5502POPC   C1A30111  36.109  41.558   8.550
 5502POPC   D2A30112  36.105  41.542   8.250
 5502POPC   C3A30113  36.100  41.533   7.950
 5502POPC   C4A30114  36.119  41.530   7.650
 5502POPC   C1B30115  36.029  41.818   8.550
 5502POPC   C2B30116  36.056  41.753   8.250
 5502POPC   C3B30117  36.037  41.826   7.950
 5502POPC   C4B30118  36.071  41.819   7.650
 5503POPC   NC330119   1.232   2.768   9.450
 5503POPC   PO430120   1.193   2.777   9.150
 5503POPC   GL130121   1.235   2.759   8.850
 5503POPC   GL230122   1.162   2.842   8.850
 5503POPC   C1A30123   1.229   2.777   8.550
 5503POPC   D2A30124   1.170   2.732   8.250
 5503POPC   C3A30125   1.215   2.755   7.950
 5503POPC   C4A30126   1.222   2.779   7.650
 5503POPC   C1B30127   1.182   2.998   8.550
 5503POPC   C2B30128   1.174   3.045   8.250
 5503POPC   C3B30129   1.134   3.034   7.950
 5503POPC   C4B30130   1.123   3.040   7.650
 5504POPC   NC330131  24.523  37.673   9.450
 5504POPC   PO430132  24.461  37.713   9.150
 5504POPC   GL130133  24.473  37.644   8.850
 5504POPC   GL230134  24.623  37.763   8.850
 5504POPC   C1A30135  24.496  37.723   8.550
 5504POPC   D2A30136  24.485  37.675   8.250
 5504POPC   C3A30137  24.483  37.688   7.950
 5504POPC   C4A30138  24.464  37.681   7.650
 5504POPC   C1B30139  24.745  37.787   8.550
 5504POPC   C2B30140  24.741  37.809   8.250
 5504POPC   C3B30141  24.688  37.802   7.950
 5504POPC   C4B30142  24.714  37.823   7.650
 5505POPC   NC330143   0.396  12.051   9.450
 5505POPC   PO430144   0.471  12.062   9.150
 5505POPC   GL130145   0.407  12.028   8.850
 5505POPC   GL230146   0.387  12.128   8.850
 5505POPC   C1A30147   0.401  12.063   8.550
 5505POPC   D2A30148   0.453  12.095   8.250
 5505POPC   C3A30149   0.429  12.083   7.950
 5505POPC   C4A30150   0.390  12.050   7.650
 5505POPC   C1B30151   0.288  12.243   8.550
 5505POPC   C2B30152   0.263  12.287   8.250
 5505POPC   C3B30153   0.272  12.281   7.950
 5505POPC   C4B30154   0.304  12.207   7.650
 5506POPC   NC330155  12.812  20.643   9.450
 5506POPC   PO430156  12.807  20.651   9.150
 5506POPC   GL130157  12.804  20.631   8.850
 5506POPC   GL230158  12.701  20.553   8.850
 5506POPC   C1A30159  12.871  20.576   8.550
 5506POPC   D2A30160  12.901  20.649   8.250
 5506POPC   C3A30161  12.844  20.605   7.950
 5506POPC   C4A30162  12.833  20.628   7.650
 5506POPC   C1B30163  12.691  20.502   8.550
 5506POPC   C2B30164  12.599  20.483   8.250
 5506POPC   C3B30165  12.679  20.500   7.950
 5506POPC   C4B30166  12.677  20.465   7.650
 5507POPC   NC330167  12.827   5.104   9.450
 5507POPC   PO430168  12.865   5.075   9.150
 5507POPC   GL130169  12.879   5.059   8.850
 5507POPC   GL230170  12.818   4.999   8.850
 5507POPC   C1A30171  12.832   5.111   8.550
 5507POPC   D2A30172  12.814   5.126   8.250
 5507POPC   C3A30173  12.859   5.105   7.950
 5507POPC   C4A30174  12.899   5.081   7.650
 5507POPC   C1B30175  12.806   4.858   8.550
 5507POPC   C2B30176  12.809   4.891   8.250
 5507POPC   C3B30177  12.802   4.830   7.950
 5507POPC   C4B30178  12.817   4.882   7.650
 5508POPC   NC330179   5.058   1.991   9.450
 5508POPC   PO430180   5.116   2.001   9.150
 5508POPC   GL130181   5.135   1.981   8.850
 5508POPC   GL230182   5.177   1.953   8.850
 5508POPC   C1A30183   5.135   1.965   8.550
 5508POPC   D2A30184   5.053   1.941   8.250
 5508POPC   C3A30185   5.107   1.950   7.950
 5508POPC   C4A30186   5.051   1.945   7.650
 5508POPC   C1B30187   5.307   1.813   8.550
 5508POPC   C2B30188   5.242   1.844   8.250
 5508POPC   C3B30189   5.239   1.831   7.950
 5508POPC   C4B30190   5.239   1.790   7.650
 5509POPC   NC330191  16.005  12.095   9.450
 5509POPC   PO430192  16.005  12.109   9.150
 5509POPC   GL130193  15.910  12.120   8.850
 5509POPC   GL230194  15.919  11.963   8.850
 5509POPC   C1A30195  15.944  12.086   8.550
 5509POPC   D2A30196  15.928  12.072   8.250
 5509POPC   C3A30197  15.910  12.075   7.950
 5509POPC   C4A30198  15.943  12.117   7.650
 5509POPC   C1B30199  15.907  11.881   8.550
 5509POPC   C2B30200  15.931  11.821   8.250
 5509POPC   C3B30201  15.848  11.830   7.950
 5509POPC   C4B30202  15.887  11.816   7.650
 5510POPC   NC330203  41.547  11.253   9.450
 5510POPC   PO430204  41.579  11.291   9.150
 5510POPC   GL130205  41.529  11.288   8.850
 5510POPC   GL230206  41.606  11.418   8.850
 5510POPC   C1A30207  41.520  11.266   8.550
 5510POPC   D2A30208  41.536  11.261   8.250
 5510POPC   C3A30209  41.554  11.313   7.950
 5510POPC   C4A30210  41.587  11.255   7.650
 5510POPC   C1B30211  41.617  11.507   8.550
 5510POPC   C2B30212  41.576  11.538   8.250
 5510POPC   C3B30213  41.590  11.535   7.950
 5510POPC   C4B30214  41.597  11.554   7.650
 5511POPC   NC330215  22.184  29.921   9.450
 5511POPC   PO430216  22.166  29.937   9.150
 5511POPC   GL130217  22.147  29.886   8.850
 5511POPC   GL230218  22.032  30.030   8.850
 5511POPC   C1A30219  22.194  29.933   8.550
 5511POPC   D2A30220  22.156  29.969   8.250
 5511POPC   C3A30221  22.183  29.905   7.950
 5511POPC   C4A30222  22.167  29.871   7.650
 5511POPC   C1B30223  21.996  30.050   8.550
 5511POPC   C2B30224  21.957  30.141   8.250
 5511POPC   C3B30225  21.947  30.072   7.950
 5511POPC   C4B30226  21.985  30.120   7.650
 5512POPC   NC330227  15.215  24.444   9.450
 5512POPC   PO430228  15.157  24.533   9.150
 5512POPC   GL130229  15.174  24.469   8.850
 5512POPC   GL230230  15.198  24.658   8.850
 5512POPC   C1A30231  15.137  24.454   8.550
 5512POPC   D2A30232  15.222  24.457   8.250
 5512POPC   C3A30233  15.209  24.535   7.950
 5512POPC   C4A30234  15.160  24.532   7.650
 5512POPC   C1B30235  15.119  24.781   8.550
 5512POPC   C2B30236  15.150  24.696   8.250
 5512POPC   C3B30237  15.204  24.730   7.950
 5512POPC   C4B30238  15.137  24.737   7.650
 5513POPC   NC330239  22.160  13.602   9.450
 5513POPC   PO430240  22.192  13.631   9.150
 5513POPC   GL130241  22.151  13.634   8.850
 5513POPC   GL230242  22.255  13.549   8.850
 5513POPC   C1A30243  22.178  13.638   8.550
 5513POPC   D2A30244  22.145  13.632   8.250
 5513POPC   C3A30245  22.188  13.579   7.950
 5513POPC   C4A30246  22.199  13.586   7.650
 5513POPC   C1B30247  22.352  13.456   8.550
 5513POPC   C2B30248  22.390  13.492   8.250
 5513POPC   C3B30249  22.416  13.503   7.950
 5513POPC   C4B30250  22.318  13.481   7.650
 5514POPC   NC330251  15.229  43.061   9.450
 5514POPC   PO430252  15.218  43.119   9.150
 5514POPC   GL130253  15.202  43.152   8.850
 5514POPC   GL230254  15.274  43.187   8.850
 5514POPC   C1A30255  15.170  43.152   8.550
 5514POPC   D2A30256  15.217  43.071   8.250
 5514POPC   C3A30257  15.204  43.096   7.950
 5514POPC   C4A30258  15.201  43.145   7.650
 5514POPC   C1B30259  15.379  43.177   8.550
 5514POPC   C2B30260  15.386  43.180   8.250
 5514POPC   C3B30261  15.378  43.192   7.950
 5514POPC   C4B30262  15.427  43.182   7.650
 5515POPC   NC330263  29.900  31.500   9.450
 5515POPC   PO430264  29.970  31.449   9.150
 5515POPC   GL130265  29.943  31.474   8.850
 5515POPC   GL230266  29.827  31.429   8.850
 5515POPC   C1A30267  29.894  31.442   8.550
 5515POPC   D2A30268  29.915  31.426   8.250
 5515POPC   C3A30269  29.969  31.483   7.950
 5515POPC   C4A30270  29.904  31.466   7.650
 5515POPC   C1B30271  29.692  31.376   8.550
 5515POPC   C2B30272  29.642  31.418   8.250
 5515POPC   C3B30273  29.702  31.368   7.950
 5515POPC   C4B30274  29.685  31.395   7.650
 5516POPC   NC330275  43.097  39.219   9.450
 5516POPC   PO430276  43.084  39.199   9.150
 5516POPC   GL130277  43.084  39.224   8.850
 5516POPC   GL230278  43.062  39.376   8.850
 5516POPC   C1A30279  43.160  39.261   8.550
 5516POPC   D2A30280  43.122  39.188   8.250
 5516POPC   C3A30281  43.088  39.190   7.950
 5516POPC   C4A30282  43.089  39.269   7.650
 5516POPC   C1B30283  43.077  39.461   8.550
 5516POPC   C2B30284  42.995  39.448   8.250
 5516POPC   C3B30285  42.993  39.448   7.950
 5516POPC   C4B30286  43.069  39.485   7.650
 5517POPC   NC330287   8.160  29.096   9.450
 5517POPC   PO430288   8.157  29.167   9.150
 5517POPC   GL130289   8.235  29.173   8.850
 5517POPC   GL230290   8.086  29.110   8.850
 5517POPC   C1A30291   8.210  29.179   8.550
 5517POPC   D2A30292   8.180  29.179   8.250
 5517POPC   C3A30293   8.204  29.112   7.950
 5517POPC   C4A30294   8.246  29.147   7.650
 5517POPC   C1B30295   7.906  29.122   8.550
 5517POPC   C2B30296   7.985  29.100   8.250
 5517POPC   C3B30297   7.919  29.141   7.950
 5517POPC   C4B30298   7.980  29.087   7.650
 5518POPC   NC330299  24.521  27.567   9.450
 5518POPC   PO430300  24.531  27.619   9.150
 5518POPC   GL130301  24.514  27.637   8.850
 5518POPC   GL230302  24.330  27.617   8.850
 5518POPC   C1A30303  24.462  27.597   8.550
 5518POPC   D2A30304  24.527  27.547   8.250
 5518POPC   C3A30305  24.471  27.593   7.950
 5518POPC   C4A30306  24.470  27.636   7.650
 5518POPC   C1B30307  24.219  27.567   8.550
 5518POPC   C2B30308  24.207  27.584   8.250
 5518POPC   C3B30309  24.206  27.580   7.950
 5518POPC   C4B30310  24.271  27.560   7.650
 5519POPC   NC330311  16.770   5.860   9.450
 5519POPC   PO430312  16.768   5.878   9.150
 5519POPC   GL130313  16.735   5.894   8.850
 5519POPC   GL230314  16.661   5.858   8.850
 5519POPC   C1A30315  16.765   5.848   8.550
 5519POPC   D2A30316  16.746   5.902   8.250
 5519POPC   C3A30317  16.750   5.879   7.950
 5519POPC   C4A30318  16.701   5.867   7.650
 5519POPC   C1B30319  16.545   5.747   8.550
 5519POPC   C2B30320  16.481   5.757   8.250
 5519POPC   C3B30321  16.488   5.781   7.950
 5519POPC   C4B30322  16.530   5.745   7.650
 5520POPC   NC330323   5.125   2.733   9.450
 5520POPC   PO430324   5.101   2.802   9.150
 5520POPC   GL130325   5.095   2.800   8.850
 5520POPC   GL230326   4.978   2.682   8.850
 5520POPC   C1A30327   5.125   2.777   8.550
 5520POPC   D2A30328   5.120   2.717   8.250
 5520POPC   C3A30329   5.051   2.787   7.950
 5520POPC   C4A30330   5.092   2.761   7.650
 5520POPC   C1B30331   4.903   2.671   8.550
 5520POPC   C2B30332   4.888   2.638   8.250
 5520POPC   C3B30333   4.860   2.664   7.950
 5520POPC   C4B30334   4.834   2.592   7.650
 5521POPC   NC330335  14.388  26.801   9.450
 5521POPC   PO430336  14.376  26.822   9.150
 5521POPC   GL130337  14.399  26.838   8.850
 5521POPC   GL230338  14.316  26.862   8.850
 5521POPC   C1A30339  14.360  26.816   8.550
 5521POPC   D2A30340  14.446  26.851   8.250
 5521POPC   C3A30341  14.359  26.789   7.950
 5521POPC   C4A30342  14.448  26.809   7.650
 5521POPC   C1B30343  14.173  26.971   8.550
 5521POPC   C2B30344  14.230  26.976   8.250
 5521POPC   C3B30345  14.183  26.929   7.950
 5521POPC   C4B30346  14.208  26.976   7.650
 5522POPC   NC330347  22.969  21.384   9.450
 5522POPC   PO430348  22.960  21.388   9.150
 5522POPC   GL130349  22.936  21.403   8.850
 5522POPC   GL230350  22.817  21.411   8.850
 5522POPC   C1A30351  22.971  21.404   8.550
 5522POPC   D2A30352  22.909  21.368   8.250
 5522POPC   C3A30353  22.898  21.405   7.950
 5522POPC   C4A30354  22.908  21.362   7.650
 5522POPC   C1B30355  22.706  21.461   8.550
 5522POPC   C2B30356  22.698  21.437   8.250
 5522POPC   C3B30357  22.734  21.446   7.950
 5522POPC   C4B30358  22.694  21.475   7.650
 5523POPC   NC330359  23.682  35.361   9.450
 5523POPC   PO430360  23.745  35.361   9.150
 5523POPC   GL130361  23.753  35.345   8.850
 5523POPC   GL230362  23.823  35.327   8.850
 5523POPC   C1A30363  23.729  35.394   8.550
 5523POPC   D2A30364  23.692  35.308   8.250
 5523POPC   C3A30365  23.709  35.391   7.950
 5523POPC   C4A30366  23.721  35.318   7.650
 5523POPC   C1B30367  23.982  35.248   8.550
 5523POPC   C2B30368  23.973  35.217   8.250
 5523POPC   C3B30369  23.989  35.307   7.950
 5523POPC   C4B30370  23.941  35.260   7.650
 5524POPC   NC330371  11.283  43.084   9.450
 5524POPC   PO430372  11.343  43.134   9.150
 5524POPC   GL130373  11.305  43.121   8.850
 5524POPC   GL230374  11.266  43.251   8.850
 5524POPC   C1A30375  11.288  43.102   8.550
 5524POPC   D2A30376  11.347  43.150   8.250
 5524POPC   C3A30377  11.320  43.112   7.950
 5524POPC   C4A30378  11.277  43.071   7.650
 5524POPC   C1B30379  11.160  43.319   8.550
 5524POPC   C2B30380  11.244  43.323   8.250
 5524POPC   C3B30381  11.153  43.316   7.950
 5524POPC   C4B30382  11.154  43.322   7.650
 5525POPC   NC330383   9.791   6.613   9.450
 5525POPC   PO430384   9.766   6.691   9.150
 5525POPC   GL130385   9.742   6.649   8.850
 5525POPC   GL230386   9.664   6.491   8.850
 5525POPC   C1A30387   9.758   6.596   8.550
 5525POPC   D2A30388   9.735   6.676   8.250
 5525POPC   C3A30389   9.776   6.657   7.950
 5525POPC   C4A30390   9.796   6.627   7.650
 5525POPC   C1B30391   9.669   6.409   8.550
 5525POPC   C2B30392   9.663   6.422   8.250
 5525POPC   C3B30393   9.630   6.428   7.950
 5525POPC   C4B30394   9.691   6.383   7.650
 5526POPC   NC330395  10.528  36.154   9.450
 5526POPC   PO430396  10.519  36.110   9.150
 5526POPC   GL130397  10.522  36.083   8.850
 5526POPC   GL230398  10.530  36.018   8.850
 5526POPC   C1A30399  10.551  36.164   8.550
 5526POPC   D2A30400  10.570  36.150   8.250
 5526POPC   C3A30401  10.543  36.088   7.950
 5526POPC   C4A30402  10.555  36.127   7.650
 5526POPC   C1B30403  10.484  35.851   8.550
 5526POPC   C2B30404  10.543  35.921   8.250
 5526POPC   C3B30405  10.569  35.910   7.950
 5526POPC   C4B30406  10.544  35.894   7.650
 5527POPC   NC330407  16.718  38.499   9.450
 5527POPC   PO430408  16.694  38.464   9.150
 5527POPC   GL130409  16.750  38.461   8.850
 5527POPC   GL230410  16.678  38.354   8.850
 5527POPC   C1A30411  16.772  38.450   8.550
 5527POPC   D2A30412  16.762  38.440   8.250
 5527POPC   C3A30413  16.726  38.496   7.950
 5527POPC   C4A30414  16.741  38.490   7.650
 5527POPC   C1B30415  16.637  38.251   8.550
 5527POPC   C2B30416  16.613  38.240   8.250
 5527POPC   C3B30417  16.662  38.184   7.950
 5527POPC   C4B30418  16.622  38.210   7.650
 5528POPC   NC330419  28.387  20.614   9.450
 5528POPC   PO430420  28.419  20.566   9.150
 5528POPC   GL130421  28.390  20.602   8.850
 5528POPC   GL230422  28.295  20.685   8.850
 5528POPC   C1A30423  28.409  20.610   8.550
 5528POPC   D2A30424  28.373  20.572   8.250
 5528POPC   C3A30425  28.387  20.580   7.950
 5528POPC   C4A30426  28.332  20.578   7.650
 5528POPC   C1B30427  28.137  20.710   8.550
 5528POPC   C2B30428  28.169  20.702   8.250
 5528POPC   C3B30429  28.092  20.701   7.950
 5528POPC   C4B30430  28.127  20.666   7.650
 5529POPC   NC330431  26.835  43.072   9.450
 5529POPC   PO430432  26.810  43.139   9.150
 5529POPC   GL130433  26.850  43.145   8.850
 5529POPC   GL230434  26.688  43.108   8.850
 5529POPC   C1A30435  26.837  43.080   8.550
 5529POPC   D2A30436  26.856  43.079   8.250
 5529POPC   C3A30437  26.810  43.070   7.950
 5529POPC   C4A30438  26.843  43.114   7.650
 5529POPC   C1B30439  26.594  43.140   8.550
 5529POPC   C2B30440  26.534  43.060   8.250
 5529POPC   C3B30441  26.605  43.140   7.950
 5529POPC   C4B30442  26.556  43.053   7.650
 5530POPC   NC330443  12.080   5.073   9.450
 5530POPC   PO430444  12.092   5.083   9.150
 5530POPC   GL130445  12.088   5.116   8.850
 5530POPC   GL230446  12.010   4.935   8.850
 5530POPC   C1A30447  12.093   5.068   8.550
 5530POPC   D2A30448  12.028   5.110   8.250
 5530POPC   C3A30449  12.111   5.133   7.950
 5530POPC   C4A30450  12.060   5.097   7.650
 5530POPC   C1B30451  12.020   4.826   8.550
 5530POPC   C2B30452  11.998   4.897   8.250
 5530POPC   C3B30453  11.985   4.820   7.950
 5530POPC   C4B30454  11.950   4.871   7.650
 5531POPC   NC330455  39.237  34.559   9.450
 5531POPC   PO430456  39.222  34.582   9.150
 5531POPC   GL130457  39.277  34.559   8.850
 5531POPC   GL230458  39.222  34.494   8.850
 5531POPC   C1A30459  39.220  34.599   8.550
 5531POPC   D2A30460  39.239  34.546   8.250
 5531POPC   C3A30461  39.226  34.547   7.950
 5531POPC   C4A30462  39.280  34.625   7.650
 5531POPC   C1B30463  39.332  34.287   8.550
 5531POPC   C2B30464  39.295  34.325   8.250
 5531POPC   C3B30465  39.326  34.293   7.950
 5531POPC   C4B30466  39.253  34.310   7.650
 5532POPC   NC330467  12.029  37.644   9.450
 5532POPC   PO430468  12.120  37.659   9.150
 5532POPC   GL130469  12.109  37.680   8.850
 5532POPC   GL230470  12.148  37.795   8.850
 5532POPC   C1A30471  12.107  37.725   8.550
 5532POPC   D2A30472  12.035  37.633   8.250
 5532POPC   C3A30473  12.027  37.676   7.950
 5532POPC   C4A30474  12.031  37.712   7.650
 5532POPC   C1B30475  12.207  37.860   8.550
 5532POPC   C2B30476  12.201  37.899   8.250
 5532POPC   C3B30477  12.183  37.871   7.950
 5532POPC   C4B30478  12.180  37.931   7.650
 5533POPC   NC330479  37.679  26.840   9.450
 5533POPC   PO430480  37.705  26.846   9.150
 5533POPC   GL130481  37.666  26.769   8.850
 5533POPC   GL230482  37.668  26.680   8.850
 5533POPC   C1A30483  37.646  26.841   8.550
 5533POPC   D2A30484  37.673  26.802   8.250
 5533POPC   C3A30485  37.656  26.835   7.950
 5533POPC   C4A30486  37.696  26.859   7.650
 5533POPC   C1B30487  37.680  26.565   8.550
 5533POPC   C2B30488  37.726  26.519   8.250
 5533POPC   C3B30489  37.660  26.600   7.950
 5533POPC   C4B30490  37.702  26.525   7.650
 5534POPC   NC330491  36.918  25.252   9.450
 5534POPC   PO430492  36.937  25.281   9.150
 5534POPC   GL130493  36.931  25.220   8.850
 5534POPC   GL230494  36.809  25.229   8.850
 5534POPC   C1A30495  36.882  25.228   8.550
 5534POPC   D2A30496  36.894  25.315   8.250
 5534POPC   C3A30497  36.884  25.279   7.950
 5534POPC   C4A30498  36.931  25.277   7.650
 5534POPC   C1B30499  36.653  25.251   8.550
 5534POPC   C2B30500  36.631  25.240   8.250
 5534POPC   C3B30501  36.672  25.231   7.950
 5534POPC   C4B30502  36.628  25.284   7.650
 5535POPC   NC330503  15.957  41.597   9.450
 5535POPC   PO430504  15.966  41.594   9.150
 5535POPC   GL130505  15.986  41.577   8.850
 5535POPC   GL230506  15.984  41.685   8.850
 5535POPC   C1A30507  15.957  41.526   8.550
 5535POPC   D2A30508  15.923  41.588   8.250
 5535POPC   C3A30509  15.929  41.587   7.950
 5535POPC   C4A30510  15.933  41.560   7.650
 5535POPC   C1B30511  16.099  41.753   8.550
 5535POPC   C2B30512  16.008  41.796   8.250
 5535POPC   C3B30513  16.032  41.739   7.950
 5535POPC   C4B30514  16.061  41.783   7.650
 5536POPC   NC330515  42.347  17.469   9.450
 5536POPC   PO430516  42.352  17.522   9.150
 5536POPC   GL130517  42.356  17.546   8.850
 5536POPC   GL230518  42.284  17.384   8.850
 5536POPC   C1A30519  42.286  17.550   8.550
 5536POPC   D2A30520  42.352  17.548   8.250
 5536POPC   C3A30521  42.295  17.522   7.950
 5536POPC   C4A30522  42.296  17.477   7.650
 5536POPC   C1B30523  42.255  17.287   8.550
 5536POPC   C2B30524  42.263  17.223   8.250
 5536POPC   C3B30525  42.288  17.267   7.950
 5536POPC   C4B30526  42.268  17.307   7.650
 5537POPC   NC330527   5.902  36.095   9.450
 5537POPC   PO430528   5.855  36.109   9.150
 5537POPC   GL130529   5.864  36.126   8.850
 5537POPC   GL230530   5.766  35.984   8.850
 5537POPC   C1A30531   5.912  36.173   8.550
 5537POPC   D2A30532   5.836  36.169   8.250
 5537POPC   C3A30533   5.900  36.135   7.950
 5537POPC   C4A30534   5.889  36.106   7.650
 5537POPC   C1B30535   5.747  35.889   8.550
 5537POPC   C2B30536   5.692  35.911   8.250
 5537POPC   C3B30537   5.691  35.885   7.950
 5537POPC   C4B30538   5.693  35.946   7.650
 5538POPC   NC330539   3.524  20.646   9.450
 5538POPC   PO430540   3.556  20.610   9.150
 5538POPC   GL130541   3.493  20.576   8.850
 5538POPC   GL230542   3.515  20.743   8.850
 5538POPC   C1A30543   3.564  20.612   8.550
 5538POPC   D2A30544   3.524  20.570   8.250
 5538POPC   C3A30545   3.546  20.641   7.950
 5538POPC   C4A30546   3.493  20.631   7.650
 5538POPC   C1B30547   3.564  20.837   8.550
 5538POPC   C2B30548   3.563  20.900   8.250
 5538POPC   C3B30549   3.587  20.827   7.950
 5538POPC   C4B30550   3.561  20.820   7.650
 5539POPC   NC330551   5.064  22.131   9.450
 5539POPC   PO430552   5.058  22.196   9.150
 5539POPC   GL130553   5.071  22.202   8.850
 5539POPC   GL230554   4.999  22.147   8.850
 5539POPC   C1A30555   5.058  22.126   8.550
 5539POPC   D2A30556   5.111  22.171   8.250
 5539POPC   C3A30557   5.121  22.161   7.950
 5539POPC   C4A30558   5.134  22.159   7.650
 5539POPC   C1B30559   4.848  22.088   8.550
 5539POPC   C2B30560   4.827  22.080   8.250
 5539POPC   C3B30561   4.843  22.045   7.950
 5539POPC   C4B30562   4.835  22.038   7.650
 5540POPC   NC330563   2.757  35.354   9.450
 5540POPC   PO430564   2.760  35.327   9.150
 5540POPC   GL130565   2.731  35.390   8.850
 5540POPC   GL230566   2.704  35.427   8.850
 5540POPC   C1A30567   2.787  35.373   8.550
 5540POPC   D2A30568   2.735  35.377   8.250
 5540POPC   C3A30569   2.790  35.326   7.950
 5540POPC   C4A30570   2.745  35.351   7.650
 5540POPC   C1B30571   2.624  35.630   8.550
 5540POPC   C2B30572   2.692  35.545   8.250
 5540POPC   C3B30573   2.634  35.535   7.950
 5540POPC   C4B30574   2.688  35.591   7.650
 5541POPC   NC330575   3.521  14.383   9.450
 5541POPC   PO430576   3.508  14.416   9.150
 5541POPC   GL130577   3.587  14.429   8.850
 5541POPC   GL230578   3.495  14.515   8.850
 5541POPC   C1A30579   3.530  14.403   8.550
 5541POPC   D2A30580   3.560  14.365   8.250
 5541POPC   C3A30581   3.512  14.392   7.950
 5541POPC   C4A30582   3.576  14.439   7.650
 5541POPC   C1B30583   3.521  14.667   8.550
 5541POPC   C2B30584   3.532  14.676   8.250
 5541POPC   C3B30585   3.454  14.630   7.950
 5541POPC   C4B30586   3.526  14.633   7.650
 5542POPC   NC330587  26.086   7.410   9.450
 5542POPC   PO430588  26.081   7.418   9.150
 5542POPC   GL130589  26.080   7.455   8.850
 5542POPC   GL230590  26.077   7.535   8.850
 5542POPC   C1A30591  26.011   7.397   8.550
 5542POPC   D2A30592  25.995   7.376   8.250
 5542POPC   C3A30593  26.010   7.452   7.950
 5542POPC   C4A30594  26.056   7.409   7.650
 5542POPC   C1B30595  26.110   7.636   8.550
 5542POPC   C2B30596  26.020   7.676   8.250
 5542POPC   C3B30597  26.077   7.666   7.950
 5542POPC   C4B30598  26.088   7.707   7.650
 5543POPC   NC330599  24.473  15.206   9.450
 5543POPC   PO430600  24.506  15.199   9.150
 5543POPC   GL130601  24.537  15.173   8.850
 5543POPC   GL230602  24.616  15.262   8.850
 5543POPC   C1A30603  24.466  15.175   8.550
 5543POPC   D2A30604  24.499  15.150   8.250
 5543POPC   C3A30605  24.457  15.209   7.950
 5543POPC   C4A30606  24.523  15.147   7.650
 5543POPC   C1B30607  24.735  15.289   8.550
 5543POPC   C2B30608  24.728  15.325   8.250
 5543POPC   C3B30609  24.732  15.319   7.950
 5543POPC   C4B30610  24.702  15.280   7.650
 5544POPC   NC330611  12.074  22.176   9.450
 5544POPC   PO430612  12.070  22.175   9.150
 5544POPC   GL130613  12.034  22.113   8.850
 5544POPC   GL230614  11.947  22.142   8.850
 5544POPC   C1A30615  12.043  22.144   8.550
 5544POPC   D2A30616  12.065  22.127   8.250
 5544POPC   C3A30617  12.093  22.143   7.950
 5544POPC   C4A30618  12.099  22.141   7.650
 5544POPC   C1B30619  11.803  22.218   8.550
 5544POPC   C2B30620  11.813  22.210   8.250
 5544POPC   C3B30621  11.790  22.146   7.950
 5544POPC   C4B30622  11.857  22.134   7.650
 5545POPC   NC330623   4.298  29.894   9.450
 5545POPC   PO430624   4.365  29.910   9.150
 5545POPC   GL130625   4.337  29.953   8.850
 5545POPC   GL230626   4.338  29.822   8.850
 5545POPC   C1A30627   4.317  29.931   8.550
 5545POPC   D2A30628   4.345  29.872   8.250
 5545POPC   C3A30629   4.293  29.894   7.950
 5545POPC   C4A30630   4.307  29.941   7.650
 5545POPC   C1B30631   4.311  29.670   8.550
 5545POPC   C2B30632   4.253  29.674   8.250
 5545POPC   C3B30633   4.334  29.710   7.950
 5545POPC   C4B30634   4.252  29.631   7.650
 5546POPC   NC330635  29.951  40.747   9.450
 5546POPC   PO430636  29.892  40.794   9.150
 5546POPC   GL130637  29.878  40.803   8.850
 5546POPC   GL230638  29.890  40.706   8.850
 5546POPC   C1A30639  29.957  40.765   8.550
 5546POPC   D2A30640  29.910  40.738   8.250
 5546POPC   C3A30641  29.916  40.813   7.950
 5546POPC   C4A30642  29.939  40.734   7.650
 5546POPC   C1B30643  29.867  40.564   8.550
 5546POPC   C2B30644  29.921  40.529   8.250
 5546POPC   C3B30645  29.832  40.542   7.950
 5546POPC   C4B30646  29.864  40.544   7.650
 5547POPC   NC330647  40.735  31.457   9.450
 5547POPC   PO430648  40.795  31.457   9.150
 5547POPC   GL130649  40.758  31.492   8.850
 5547POPC   GL230650  40.718  31.371   8.850
 5547POPC   C1A30651  40.818  31.488   8.550
 5547POPC   D2A30652  40.830  31.516   8.250
 5547POPC   C3A30653  40.795  31.504   7.950
 5547POPC   C4A30654  40.793  31.456   7.650
 5547POPC   C1B30655  40.678  31.294   8.550
 5547POPC   C2B30656  40.601  31.225   8.250
 5547POPC   C3B30657  40.656  31.227   7.950
 5547POPC   C4B30658  40.649  31.272   7.650
 5548POPC   NC330659  10.492  33.808   9.450
 5548POPC   PO430660  10.562  33.752   9.150
 5548POPC   GL130661  10.497  33.849   8.850
 5548POPC   GL230662  10.622  33.856   8.850
 5548POPC   C1A30663  10.545  33.751   8.550
 5548POPC   D2A30664  10.515  33.780   8.250
 5548POPC   C3A30665  10.562  33.791   7.950
 5548POPC   C4A30666  10.478  33.792   7.650
 5548POPC   C1B30667  10.687  33.954   8.550
 5548POPC   C2B30668  10.705  34.014   8.250
 5548POPC   C3B30669  10.740  33.930   7.950
 5548POPC   C4B30670  10.700  33.979   7.650
 5549POPC   NC330671  40.795  30.671   9.450
 5549POPC   PO430672  40.805  30.676   9.150
 5549POPC   GL130673  40.765  30.703   8.850
 5549POPC   GL230674  40.868  30.741   8.850
 5549POPC   C1A30675  40.811  30.686   8.550
 5549POPC   D2A30676  40.735  30.744   8.250
 5549POPC   C3A30677  40.804  30.663   7.950
 5549POPC   C4A30678  40.745  30.708   7.650
 5549POPC   C1B30679  40.991  30.789   8.550
 5549POPC   C2B30680  41.035  30.764   8.250
 5549POPC   C3B30681  40.962  30.802   7.950
 5549POPC   C4B30682  40.988  30.819   7.650
 5550POPC   NC330683  30.713  38.415   9.450
 5550POPC   PO430684  30.667  38.406   9.150
 5550POPC   GL130685  30.687  38.501   8.850
 5550POPC   GL230686  30.639  38.485   8.850
 5550POPC   C1A30687  30.728  38.422   8.550
 5550POPC   D2A30688  30.694  38.497   8.250
 5550POPC   C3A30689  30.741  38.447   7.950
 5550POPC   C4A30690  30.740  38.415   7.650
 5550POPC   C1B30691  30.464  38.573   8.550
 5550POPC   C2B30692  30.488  38.613   8.250
 5550POPC   C3B30693  30.530  38.565   7.950
 5550POPC   C4B30694  30.477  38.569   7.650
 5551POPC   NC330695   1.255  39.281   9.450
 5551POPC   PO430696   1.242  39.269   9.150
 5551POPC   GL130697   1.259  39.259   8.850
 5551POPC   GL230698   1.163  39.305   8.850
 5551POPC   C1A30699   1.213  39.281   8.550
 5551POPC   D2A30700   1.168  39.211   8.250
 5551POPC   C3A30701   1.208  39.263   7.950
 5551POPC   C4A30702   1.196  39.200   7.650
 5551POPC   C1B30703   1.202  39.481   8.550
 5551POPC   C2B30704   1.116  39.483   8.250
 5551POPC   C3B30705   1.213  39.442   7.950
 5551POPC   C4B30706   1.167  39.440   7.650
 5552POPC   NC330707  29.101   9.785   9.450
 5552POPC   PO430708  29.141   9.793   9.150
 5552POPC   GL130709  29.141   9.791   8.850
 5552POPC   GL230710  29.239   9.809   8.850
 5552POPC   C1A30711  29.104   9.701   8.550
 5552POPC   D2A30712  29.177   9.762   8.250
 5552POPC   C3A30713  29.183   9.710   7.950
 5552POPC   C4A30714  29.180   9.727   7.650
 5552POPC   C1B30715  29.310   9.845   8.550
 5552POPC   C2B30716  29.329   9.867   8.250
 5552POPC   C3B30717  29.384   9.844   7.950
 5552POPC   C4B30718  29.374   9.940   7.650
 5553POPC   NC330719  25.229   1.259   9.450
 5553POPC   PO430720  25.310   1.252   9.150
 5553POPC   GL130721  25.265   1.240   8.850
 5553POPC   GL230722  25.131   1.193   8.850
 5553POPC   C1A30723  25.280   1.224   8.550
 5553POPC   D2A30724  25.285   1.219   8.250
 5553POPC   C3A30725  25.230   1.200   7.950
 5553POPC   C4A30726  25.253   1.193   7.650
 5553POPC   C1B30727  25.021   1.212   8.550
 5553POPC   C2B30728  25.019   1.175   8.250
 5553POPC   C3B30729  25.048   1.235   7.950
 5553POPC   C4B30730  25.024   1.240   7.650
 5554POPC   NC330731  39.205  39.247   9.450
 5554POPC   PO430732  39.234  39.203   9.150
 5554POPC   GL130733  39.264  39.181   8.850
 5554POPC   GL230734  39.140  39.328   8.850
 5554POPC   C1A30735  39.205  39.230   8.550
 5554POPC   D2A30736  39.239  39.197   8.250
 5554POPC   C3A30737  39.261  39.209   7.950
 5554POPC   C4A30738  39.216  39.253   7.650
 5554POPC   C1B30739  38.988  39.317   8.550
 5554POPC   C2B30740  38.998  39.362   8.250
 5554POPC   C3B30741  39.054  39.389   7.950
 5554POPC   C4B30742  38.975  39.402   7.650
 5555POPC   NC330743  10.546  26.853   9.450
 5555POPC   PO430744  10.507  26.786   9.150
 5555POPC   GL130745  10.496  26.858   8.850
 5555POPC   GL230746  10.416  26.756   8.850
 5555POPC   C1A30747  10.569  26.825   8.550
 5555POPC   D2A30748  10.509  26.793   8.250
 5555POPC   C3A30749  10.477  26.848   7.950
 5555POPC   C4A30750  10.564  26.853   7.650
 5555POPC   C1B30751  10.315  26.765   8.550
 5555POPC   C2B30752  10.272  26.725   8.250
 5555POPC   C3B30753  10.254  26.748   7.950
 5555POPC   C4B30754  10.250  26.703   7.650
 5556POPC   NC330755   0.438   8.204   9.450
 5556POPC   PO430756   0.390   8.179   9.150
 5556POPC   GL130757   0.415   8.202   8.850
 5556POPC   GL230758   0.296   8.151   8.850
 5556POPC   C1A30759   0.400   8.177   8.550
 5556POPC   D2A30760   0.486   8.222   8.250
 5556POPC   C3A30761   0.421   8.169   7.950
 5556POPC   C4A30762   0.469   8.195   7.650
 5556POPC   C1B30763   0.203   8.229   8.550
 5556POPC   C2B30764   0.225   8.219   8.250
 5556POPC   C3B30765   0.170   8.228   7.950
 5556POPC   C4B30766   0.191   8.148   7.650
 5557POPC   NC330767  36.929  34.574   9.450
 5557POPC   PO430768  36.907  34.617   9.150
 5557POPC   GL130769  36.897  34.593   8.850
 5557POPC   GL230770  36.964  34.506   8.850
 5557POPC   C1A30771  36.902  34.572   8.550
 5557POPC   D2A30772  36.928  34.529   8.250
 5557POPC   C3A30773  36.860  34.546   7.950
 5557POPC   C4A30774  36.943  34.613   7.650
 5557POPC   C1B30775  37.056  34.369   8.550
 5557POPC   C2B30776  37.042  34.371   8.250
 5557POPC   C3B30777  37.019  34.429   7.950
 5557POPC   C4B30778  37.019  34.393   7.650
 5558POPC   NC330779   3.520  27.568   9.450
 5558POPC   PO430780   3.514  27.607   9.150
 5558POPC   GL130781   3.516  27.549   8.850
 5558POPC   GL230782   3.506  27.704   8.850
 5558POPC   C1A30783   3.497  27.631   8.550
 5558POPC   D2A30784   3.513  27.635   8.250
 5558POPC   C3A30785   3.511  27.602   7.950
 5558POPC   C4A30786   3.554  27.583   7.650
 5558POPC   C1B30787   3.490  27.852   8.550
 5558POPC   C2B30788   3.540  27.887   8.250
 5558POPC   C3B30789   3.481  27.874   7.950
 5558POPC   C4B30790   3.475  27.864   7.650
 5559POPC   NC330791  44.699  17.468   9.450
 5559POPC   PO430792  44.655  17.554   9.150
 5559POPC   GL130793  44.692  17.467   8.850
 5559POPC   GL230794  44.647  17.614   8.850
 5559POPC   C1A30795  44.690  17.507   8.550
 5559POPC   D2A30796  44.615  17.536   8.250
 5559POPC   C3A30797  44.664  17.528   7.950
 5559POPC   C4A30798  44.640  17.461   7.650
 5559POPC   C1B30799  44.564  17.705   8.550
 5559POPC   C2B30800  44.580  17.746   8.250
 5559POPC   C3B30801  44.549  17.763   7.950
 5559POPC   C4B30802  44.537  17.782   7.650
 5560POPC   NC330803   5.855  22.138   9.450
 5560POPC   PO430804   5.865  22.176   9.150
 5560POPC   GL130805   5.903  22.169   8.850
 5560POPC   GL230806   5.939  22.092   8.850
 5560POPC   C1A30807   5.855  22.197   8.550
 5560POPC   D2A30808   5.830  22.136   8.250
 5560POPC   C3A30809   5.914  22.147   7.950
 5560POPC   C4A30810   5.884  22.141   7.650
 5560POPC   C1B30811   5.924  21.953   8.550
 5560POPC   C2B30812   5.990  21.906   8.250
 5560POPC   C3B30813   5.941  21.922   7.950
 5560POPC   C4B30814   6.008  21.893   7.650
 5561POPC   NC330815  10.540  22.170   9.450
 5561POPC   PO430816  10.557  22.122   9.150
 5561POPC   GL130817  10.569  22.116   8.850
 5561POPC   GL230818  10.549  22.277   8.850
 5561POPC   C1A30819  10.524  22.166   8.550
 5561POPC   D2A30820  10.533  22.197   8.250
 5561POPC   C3A30821  10.570  22.200   7.950
 5561POPC   C4A30822  10.537  22.194   7.650
 5561POPC   C1B30823  10.450  22.451   8.550
 5561POPC   C2B30824  10.496  22.376   8.250
 5561POPC   C3B30825  10.501  22.418   7.950
 5561POPC   C4B30826  10.483  22.438   7.650
 5562POPC   NC330827  21.432   3.552   9.450
 5562POPC   PO430828  21.418   3.498   9.150
 5562POPC   GL130829  21.365   3.503   8.850
 5562POPC   GL230830  21.273   3.485   8.850
 5562POPC   C1A30831  21.415   3.570   8.550
 5562POPC   D2A30832  21.395   3.556   8.250
 5562POPC   C3A30833  21.387   3.496   7.950
 5562POPC   C4A30834  21.413   3.585   7.650
 5562POPC   C1B30835  21.157   3.398   8.550
 5562POPC   C2B30836  21.171   3.374   8.250
 5562POPC   C3B30837  21.183   3.437   7.950
 5562POPC   C4B30838  21.204   3.389   7.650
 5563POPC   NC330839  20.629   4.269   9.450
 5563POPC   PO430840  20.573   4.287   9.150
 5563POPC   GL130841  20.655   4.276   8.850
 5563POPC   GL230842  20.485   4.378   8.850
 5563POPC   C1A30843  20.594   4.305   8.550
 5563POPC   D2A30844  20.620   4.353   8.250
 5563POPC   C3A30845  20.614   4.343   7.950
 5563POPC   C4A30846  20.651   4.329   7.650
 5563POPC   C1B30847  20.461   4.552   8.550
 5563POPC   C2B30848  20.404   4.489   8.250
 5563POPC   C3B30849  20.459   4.471   7.950
 5563POPC   C4B30850  20.493   4.476   7.650
 5564POPC   NC330851  38.442   7.384   9.450
 5564POPC   PO430852  38.491   7.467   9.150
 5564POPC   GL130853  38.433   7.421   8.850
 5564POPC   GL230854  38.378   7.294   8.850
 5564POPC   C1A30855  38.469   7.449   8.550
 5564POPC   D2A30856  38.435   7.402   8.250
 5564POPC   C3A30857  38.447   7.452   7.950
 5564POPC   C4A30858  38.444   7.467   7.650
 5564POPC   C1B30859  38.313   7.195   8.550
 5564POPC   C2B30860  38.311   7.207   8.250
 5564POPC   C3B30861  38.267   7.187   7.950
 5564POPC   C4B30862  38.276   7.180   7.650
 5565POPC   NC330863  25.286  15.222   9.450
 5565POPC   PO430864  25.309  15.176   9.150
 5565POPC   GL130865  25.282  15.159   8.850
 5565POPC   GL230866  25.330  15.283   8.850
 5565POPC   C1A30867  25.306  15.180   8.550
 5565POPC   D2A30868  25.311  15.180   8.250
 5565POPC   C3A30869  25.297  15.198   7.950
 5565POPC   C4A30870  25.226  15.156   7.650
 5565POPC   C1B30871  25.523  15.326   8.550
 5565POPC   C2B30872  25.472  15.281   8.250
 5565POPC   C3B30873  25.503  15.307   7.950
 5565POPC   C4B30874  25.460  15.249   7.650
 5566POPC   NC330875   2.811  39.975   9.450
 5566POPC   PO430876   2.772  40.010   9.150
 5566POPC   GL130877   2.720  40.030   8.850
 5566POPC   GL230878   2.858  39.971   8.850
 5566POPC   C1A30879   2.803  40.031   8.550
 5566POPC   D2A30880   2.751  40.006   8.250
 5566POPC   C3A30881   2.804  39.961   7.950
 5566POPC   C4A30882   2.745  39.999   7.650
 5566POPC   C1B30883   3.013  39.963   8.550
 5566POPC   C2B30884   2.966  39.968   8.250
 5566POPC   C3B30885   3.056  40.003   7.950
 5566POPC   C4B30886   2.983  39.971   7.650
 5567POPC   NC330887  32.233  19.022   9.450
 5567POPC   PO430888  32.206  19.019   9.150
 5567POPC   GL130889  32.237  19.073   8.850
 5567POPC   GL230890  32.235  19.168   8.850
 5567POPC   C1A30891  32.245  19.078   8.550
 5567POPC   D2A30892  32.259  19.010   8.250
 5567POPC   C3A30893  32.259  19.066   7.950
 5567POPC   C4A30894  32.233  19.104   7.650
 5567POPC   C1B30895  32.197  19.267   8.550
 5567POPC   C2B30896  32.158  19.307   8.250
 5567POPC   C3B30897  32.230  19.336   7.950
 5567POPC   C4B30898  32.159  19.331   7.650
 5568POPC   NC330899  22.925  29.940   9.450
 5568POPC   PO430900  22.915  29.962   9.150
 5568POPC   GL130901  22.973  29.881   8.850
 5568POPC   GL230902  22.887  29.851   8.850
 5568POPC   C1A30903  22.895  29.892   8.550
 5568POPC   D2A30904  22.938  29.909   8.250
 5568POPC   C3A30905  22.913  29.930   7.950
 5568POPC   C4A30906  22.930  29.914   7.650
 5568POPC   C1B30907  22.769  29.689   8.550
 5568POPC   C2B30908  22.749  29.695   8.250
 5568POPC   C3B30909  22.761  29.768   7.950
 5568POPC   C4B30910  22.780  29.769   7.650
 5569POPC   NC330911  31.456  34.527   9.450
 5569POPC   PO430912  31.433  34.529   9.150
 5569POPC   GL130913  31.424  34.560   8.850
 5569POPC   GL230914  31.589  34.615   8.850
 5569POPC   C1A30915  31.467  34.574   8.550
 5569POPC   D2A30916  31.498  34.603   8.250
 5569POPC   C3A30917  31.495  34.549   7.950
 5569POPC   C4A30918  31.432  34.529   7.650
 5569POPC   C1B30919  31.720  34.551   8.550
 5569POPC   C2B30920  31.720  34.615   8.250
 5569POPC   C3B30921  31.722  34.627   7.950
 5569POPC   C4B30922  31.750  34.571   7.650
 5570POPC   NC330923   8.962  19.848   9.450
 5570POPC   PO430924   8.935  19.834   9.150
 5570POPC   GL130925   9.005  19.806   8.850
 5570POPC   GL230926   9.087  19.880   8.850
 5570POPC   C1A30927   8.946  19.881   8.550
 5570POPC   D2A30928   8.931  19.830   8.250
 5570POPC   C3A30929   8.945  19.879   7.950
 5570POPC   C4A30930   8.974  19.867   7.650
 5570POPC   C1B30931   9.173  20.038   8.550
 5570POPC   C2B30932   9.125  19.992   8.250
 5570POPC   C3B30933   9.152  20.026   7.950
 5570POPC   C4B30934   9.179  20.032   7.650
 5571POPC   NC330935  23.751  23.716   9.450
 5571POPC   PO430936  23.692  23.676   9.150
 5571POPC   GL130937  23.720  23.701   8.850
 5571POPC   GL230938  23.706  23.572   8.850
 5571POPC   C1A30939  23.727  23.701   8.550
 5571POPC   D2A30940  23.761  23.718   8.250
 5571POPC   C3A30941  23.673  23.704   7.950
 5571POPC   C4A30942  23.732  23.757   7.650
 5571POPC   C1B30943  23.582  23.469   8.550
 5571POPC   C2B30944  23.671  23.503   8.250
 5571POPC   C3B30945  23.668  23.439   7.950
 5571POPC   C4B30946  23.583  23.519   7.650
 5572POPC   NC330947  24.523  31.451   9.450
 5572POPC   PO430948  24.464  31.458   9.150
 5572POPC   GL130949  24.524  31.513   8.850
 5572POPC   GL230950  24.369  31.586   8.850
 5572POPC   C1A30951  24.538  31.431   8.550
 5572POPC   D2A30952  24.495  31.461   8.250
 5572POPC   C3A30953  24.534  31.459   7.950
 5572POPC   C4A30954  24.515  31.515   7.650
 5572POPC   C1B30955  24.349  31.662   8.550
 5572POPC   C2B30956  24.300  31.650   8.250
 5572POPC   C3B30957  24.263  31.647   7.950
 5572POPC   C4B30958  24.255  31.685   7.650
 5573POPC   NC330959  33.055  30.664   9.450
 5573POPC   PO430960  33.071  30.712   9.150
 5573POPC   GL130961  32.999  30.719   8.850
 5573POPC   GL230962  33.090  30.835   8.850
 5573POPC   C1A30963  32.979  30.678   8.550
 5573POPC   D2A30964  32.981  30.727   8.250
 5573POPC   C3A30965  32.992  30.683   7.950
 5573POPC   C4A30966  33.058  30.709   7.650
 5573POPC   C1B30967  33.205  30.872   8.550
 5573POPC   C2B30968  33.181  30.887   8.250
 5573POPC   C3B30969  33.137  30.909   7.950
 5573POPC   C4B30970  33.186  30.919   7.650
 5574POPC   NC330971  42.309   2.040   9.450
 5574POPC   PO430972  42.285   2.039   9.150
 5574POPC   GL130973  42.322   1.952   8.850
 5574POPC   GL230974  42.378   2.147   8.850
 5574POPC   C1A30975  42.313   1.991   8.550
 5574POPC   D2A30976  42.381   1.956   8.250
 5574POPC   C3A30977  42.342   1.983   7.950
 5574POPC   C4A30978  42.365   1.989   7.650
 5574POPC   C1B30979  42.409   2.184   8.550
 5574POPC   C2B30980  42.499   2.186   8.250
 5574POPC   C3B30981  42.425   2.239   7.950
 5574POPC   C4B30982  42.469   2.221   7.650
 5575POPC   NC330983  10.554  15.166   9.450
 5575POPC   PO430984  10.568  15.193   9.150
 5575POPC   GL130985  10.560  15.161   8.850
 5575POPC   GL230986  10.430  15.108   8.850
 5575POPC   C1A30987  10.512  15.130   8.550
 5575POPC   D2A30988  10.480  15.220   8.250
 5575POPC   C3A30989  10.514  15.163   7.950
 5575POPC   C4A30990  10.551  15.164   7.650
 5575POPC   C1B30991  10.354  15.008   8.550
 5575POPC   C2B30992  10.364  15.062   8.250
 5575POPC   C3B30993  10.371  15.062   7.950
 5575POPC   C4B30994  10.287  15.055   7.650
 5576POPC   NC330995   5.050  11.321   9.450
 5576POPC   PO430996   5.102  11.300   9.150
 5576POPC   GL130997   5.113  11.280   8.850
 5576POPC   GL230998   5.181  11.368   8.850
 5576POPC   C1A30999   5.085  11.317   8.550
 5576POPC   D2A31000   5.072  11.313   8.250
 5576POPC   C3A31001   5.100  11.331   7.950
 5576POPC   C4A31002   5.088  11.281   7.650
 5576POPC   C1B31003   5.358  11.354   8.550
 5576POPC   C2B31004   5.383  11.331   8.250
 5576POPC   C3B31005   5.299  11.344   7.950
 5576POPC   C4B31006   5.368  11.392   7.650
 5577POPC   NC331007   4.314   9.006   9.450
 5577POPC   PO431008   4.353   9.012   9.150
 5577POPC   GL131009   4.326   8.992   8.850
 5577POPC   GL231010   4.371   9.074   8.850
 5577POPC   C1A31011   4.342   8.995   8.550
 5577POPC   D2A31012   4.351   8.968   8.250
 5577POPC   C3A31013   4.322   9.001   7.950
 5577POPC   C4A31014   4.363   8.975   7.650
 5577POPC   C1B31015   4.480   9.159   8.550
 5577POPC   C2B31016   4.484   9.102   8.250
 5577POPC   C3B31017   4.548   9.090   7.950
 5577POPC   C4B31018   4.542   9.167   7.650
 5578POPC   NC331019  19.091  43.114   9.450
 5578POPC   PO431020  19.047  43.079   9.150
 5578POPC   GL131021  19.019  43.079   8.850
 5578POPC   GL231022  19.084  42.939   8.850
 5578POPC   C1A31023  19.076  43.088   8.550
 5578POPC   D2A31024  19.028  43.076   8.250
 5578POPC   C3A31025  19.065  43.070   7.950
 5578POPC   C4A31026  19.024  43.116   7.650
 5578POPC   C1B31027  19.162  42.875   8.550
 5578POPC   C2B31028  19.097  42.876   8.250
 5578POPC   C3B31029  19.141  42.913   7.950
 5578POPC   C4B31030  19.117  42.912   7.650
 5579POPC   NC331031  35.339  14.394   9.450
 5579POPC   PO431032  35.344  14.408   9.150
 5579POPC   GL131033  35.372  14.363   8.850
 5579POPC   GL231034  35.284  14.519   8.850
 5579POPC   C1A31035  35.374  14.369   8.550
 5579POPC   D2A31036  35.324  14.367   8.250
 5579POPC   C3A31037  35.319  14.371   7.950
 5579POPC   C4A31038  35.360  14.355   7.650
 5579POPC   C1B31039  35.116  14.590   8.550
 5579POPC   C2B31040  35.172  14.580   8.250
 5579POPC   C3B31041  35.159  14.592   7.950
 5579POPC   C4B31042  35.178  14.559   7.650
 5580POPC   NC331043  36.159  34.601   9.450
 5580POPC   PO431044  36.162  34.611   9.150
 5580POPC   GL131045  36.098  34.576   8.850
 5580POPC   GL231046  36.042  34.558   8.850
 5580POPC   C1A31047  36.114  34.561   8.550
 5580POPC   D2A31048  36.128  34.543   8.250
 5580POPC   C3A31049  36.173  34.575   7.950
 5580POPC   C4A31050  36.091  34.560   7.650
 5580POPC   C1B31051  35.905  34.594   8.550
 5580POPC   C2B31052  35.864  34.550   8.250
 5580POPC   C3B31053  35.893  34.548   7.950
 5580POPC   C4B31054  35.915  34.615   7.650
 5581POPC   NC331055   2.726  18.258   9.450
 5581POPC   PO431056   2.734  18.310   9.150
 5581POPC   GL131057   2.730  18.304   8.850
 5581POPC   GL231058   2.657  18.307   8.850
 5581POPC   C1A31059   2.760  18.313   8.550
 5581POPC   D2A31060   2.739  18.246   8.250
 5581POPC   C3A31061   2.788  18.317   7.950
 5581POPC   C4A31062   2.732  18.268   7.650
 5581POPC   C1B31063   2.496  18.304   8.550
 5581POPC   C2B31064   2.479  18.317   8.250
 5581POPC   C3B31065   2.509  18.346   7.950
 5581POPC   C4B31066   2.509  18.375   7.650
 5582POPC   NC331067  36.909  24.499   9.450
 5582POPC   PO431068  36.939  24.465   9.150
 5582POPC   GL131069  36.876  24.460   8.850
 5582POPC   GL231070  36.778  24.567   8.850
 5582POPC   C1A31071  36.869  24.540   8.550
 5582POPC   D2A31072  36.878  24.510   8.250
 5582POPC   C3A31073  36.930  24.534   7.950
 5582POPC   C4A31074  36.860  24.446   7.650
 5582POPC   C1B31075  36.734  24.686   8.550
 5582POPC   C2B31076  36.726  24.695   8.250
 5582POPC   C3B31077  36.731  24.696   7.950
 5582POPC   C4B31078  36.665  24.634   7.650
 5583POPC   NC331079   6.681  42.316   9.450
 5583POPC   PO431080   6.619  42.293   9.150
 5583POPC   GL131081   6.663  42.325   8.850
 5583POPC   GL231082   6.653  42.445   8.850
 5583POPC   C1A31083   6.649  42.322   8.550
 5583POPC   D2A31084   6.636  42.311   8.250
 5583POPC   C3A31085   6.661  42.285   7.950
 5583POPC   C4A31086   6.671  42.363   7.650
 5583POPC   C1B31087   6.716  42.598   8.550
 5583POPC   C2B31088   6.649  42.558   8.250
 5583POPC   C3B31089   6.733  42.613   7.950
 5583POPC   C4B31090   6.739  42.549   7.650
 5584POPC   NC331091   5.075   4.268   9.450
 5584POPC   PO431092   5.073   4.279   9.150
 5584POPC   GL131093   5.098   4.294   8.850
 5584POPC   GL231094   5.063   4.216   8.850
 5584POPC   C1A31095   5.143   4.347   8.550
 5584POPC   D2A31096   5.080   4.321   8.250
 5584POPC   C3A31097   5.093   4.325   7.950
 5584POPC   C4A31098   5.044   4.271   7.650
 5584POPC   C1B31099   5.073   4.106   8.550
 5584POPC   C2B31100   5.027   4.044   8.250
 5584POPC   C3B31101   5.071   4.042   7.950
 5584POPC   C4B31102   5.091   4.052   7.650
 5585POPC   NC331103  39.240  11.349   9.450
 5585POPC   PO431104  39.232  11.292   9.150
 5585POPC   GL131105  39.207  11.309   8.850
 5585POPC   GL231106  39.363  11.360   8.850
 5585POPC   C1A31107  39.234  11.264   8.550
 5585POPC   D2A31108  39.200  11.285   8.250
 5585POPC   C3A31109  39.218  11.296   7.950
 5585POPC   C4A31110  39.251  11.273   7.650
 5585POPC   C1B31111  39.429  11.422   8.550
 5585POPC   C2B31112  39.410  11.444   8.250
 5585POPC   C3B31113  39.422  11.439   7.950
 5585POPC   C4B31114  39.462  11.413   7.650
 5586POPC   NC331115  22.971   0.487   9.450
 5586POPC   PO431116  22.955   0.400   9.150
 5586POPC   GL131117  22.938   0.455   8.850
 5586POPC   GL231118  23.015   0.290   8.850
 5586POPC   C1A31119  22.972   0.438   8.550
 5586POPC   D2A31120  22.968   0.471   8.250
 5586POPC   C3A31121  22.937   0.442   7.950
 5586POPC   C4A31122  22.976   0.441   7.650
 5586POPC   C1B31123  22.950   0.162   8.550
 5586POPC   C2B31124  22.986   0.172   8.250
 5586POPC   C3B31125  23.049   0.155   7.950
 5586POPC   C4B31126  22.998   0.158   7.650
 5587POPC   NC331127  26.790   0.447   9.450
 5587POPC   PO431128  26.849   0.433   9.150
 5587POPC   GL131129  26.834   0.483   8.850
 5587POPC   GL231130  26.929   0.390   8.850
 5587POPC   C1A31131  26.806   0.450   8.550
 5587POPC   D2A31132  26.859   0.431   8.250
 5587POPC   C3A31133  26.842   0.428   7.950
 5587POPC   C4A31134  26.857   0.435   7.650
 5587POPC   C1B31135  27.075   0.321   8.550
 5587POPC   C2B31136  27.066   0.325   8.250
 5587POPC   C3B31137  26.982   0.283   7.950
 5587POPC   C4B31138  27.053   0.338   7.650
 5588POPC   NC331139  43.100  35.353   9.450
 5588POPC   PO431140  43.121  35.321   9.150
 5588POPC   GL131141  43.126  35.323   8.850
 5588POPC   GL231142  43.141  35.429   8.850
 5588POPC   C1A31143  43.141  35.378   8.550
 5588POPC   D2A31144  43.083  35.368   8.250
 5588POPC   C3A31145  43.144  35.309   7.950
 5588POPC   C4A31146  43.074  35.369   7.650
 5588POPC   C1B31147  43.303  35.554   8.550
 5588POPC   C2B31148  43.246  35.569   8.250
 5588POPC   C3B31149  43.234  35.601   7.950
 5588POPC   C4B31150  43.227  35.602   7.650
 5589POPC   NC331151   8.186  40.043   9.450
 5589POPC   PO431152   8.148  39.981   9.150
 5589POPC   GL131153   8.208  40.033   8.850
 5589POPC   GL231154   8.140  40.122   8.850
 5589POPC   C1A31155   8.217  40.035   8.550
 5589POPC   D2A31156   8.208  40.019   8.250
 5589POPC   C3A31157   8.231  40.049   7.950
 5589POPC   C4A31158   8.155  40.056   7.650
 5589POPC   C1B31159   8.060  40.225   8.550
 5589POPC   C2B31160   8.000  40.195   8.250
 5589POPC   C3B31161   8.046  40.253   7.950
 5589POPC   C4B31162   8.000  40.233   7.650
 5590POPC   NC331163  13.656  20.618   9.450
 5590POPC   PO431164  13.613  20.561   9.150
 5590POPC   GL131165  13.674  20.636   8.850
 5590POPC   GL231166  13.534  20.588   8.850
 5590POPC   C1A31167  13.664  20.573   8.550
 5590POPC   D2A31168  13.670  20.578   8.250
 5590POPC   C3A31169  13.592  20.584   7.950
 5590POPC   C4A31170  13.615  20.562   7.650
 5590POPC   C1B31171  13.394  20.489   8.550
 5590POPC   C2B31172  13.399  20.534   8.250
 5590POPC   C3B31173  13.443  20.564   7.950
 5590POPC   C4B31174  13.399  20.519   7.650
 5591POPC   NC331175  28.356   8.981   9.450
 5591POPC   PO431176  28.402   8.964   9.150
 5591POPC   GL131177  28.337   8.975   8.850
 5591POPC   GL231178  28.303   9.016   8.850
 5591POPC   C1A31179  28.400   8.981   8.550
 5591POPC   D2A31180  28.322   8.936   8.250
 5591POPC   C3A31181  28.324   9.022   7.950
 5591POPC   C4A31182  28.372   8.949   7.650
 5591POPC   C1B31183  28.239   9.119   8.550
 5591POPC   C2B31184  28.141   9.149   8.250
 5591POPC   C3B31185  28.239   9.107   7.950
 5591POPC   C4B31186  28.185   9.178   7.650
 5592POPC   NC331187  35.308  43.883   9.450
 5592POPC   PO431188  35.378  43.869   9.150
 5592POPC   GL131189  35.374  43.897   8.850
 5592POPC   GL231190  35.458  43.908   8.850
 5592POPC   C1A31191  35.386  43.896   8.550
 5592POPC   D2A31192  35.311  43.897   8.250
 5592POPC   C3A31193  35.399  43.927   7.950
 5592POPC   C4A31194  35.317  43.893   7.650
 5592POPC   C1B31195  35.559  43.993   8.550
 5592POPC   C2B31196  35.612  44.051   8.250
 5592POPC   C3B31197  35.593  44.005   7.950
 5592POPC   C4B31198  35.598  44.030   7.650
 5593POPC   NC331199   5.864  34.564   9.450
 5593POPC   PO431200   5.904  34.582   9.150
 5593POPC   GL131201   5.864  34.534   8.850
 5593POPC   GL231202   5.719  34.551   8.850
 5593POPC   C1A31203   5.905  34.603   8.550
 5593POPC   D2A31204   5.826  34.605   8.250
 5593POPC   C3A31205   5.829  34.604   7.950
 5593POPC   C4A31206   5.842  34.619   7.650
 5593POPC   C1B31207   5.576  34.639   8.550
 5593POPC   C2B31208   5.657  34.599   8.250
 5593POPC   C3B31209   5.587  34.598   7.950
 5593POPC   C4B31210   5.630  34.656   7.650
 5594POPC   NC331211  17.511   0.479   9.450
 5594POPC   PO431212  17.484   0.393   9.150
 5594POPC   GL131213  17.545   0.446   8.850
 5594POPC   GL231214  17.402   0.431   8.850
 5594POPC   C1A31215  17.532   0.450   8.550
 5594POPC   D2A31216  17.550   0.480   8.250
 5594POPC   C3A31217  17.550   0.439   7.950
 5594POPC   C4A31218  17.478   0.391   7.650
 5594POPC   C1B31219  17.223   0.373   8.550
 5594POPC   C2B31220  17.259   0.450   8.250
 5594POPC   C3B31221  17.242   0.375   7.950
 5594POPC   C4B31222  17.258   0.419   7.650
 5595POPC   NC331223  13.578  28.389   9.450
 5595POPC   PO431224  13.677  28.389   9.150
 5595POPC   GL131225  13.596  28.402   8.850
 5595POPC   GL231226  13.485  28.427   8.850
 5595POPC   C1A31227  13.612  28.405   8.550
 5595POPC   D2A31228  13.656  28.339   8.250
 5595POPC   C3A31229  13.671  28.416   7.950
 5595POPC   C4A31230  13.670  28.400   7.650
 5595POPC   C1B31231  13.477  28.503   8.550
 5595POPC   C2B31232  13.427  28.548   8.250
 5595POPC   C3B31233  13.429  28.534   7.950
 5595POPC   C4B31234  13.441  28.518   7.650
 5596POPC   NC331235  37.645  43.929   9.450
 5596POPC   PO431236  37.682  43.934   9.150
 5596POPC   GL131237  37.634  43.873   8.850
 5596POPC   GL231238  37.558  43.946   8.850
 5596POPC   C1A31239  37.658  43.919   8.550
 5596POPC   D2A31240  37.682  43.858   8.250
 5596POPC   C3A31241  37.728  43.871   7.950
 5596POPC   C4A31242  37.719  43.862   7.650
 5596POPC   C1B31243  37.484  43.926   8.550
 5596POPC   C2B31244  37.414  43.942   8.250
 5596POPC   C3B31245  37.435  43.945   7.950
 5596POPC   C4B31246  37.414  43.982   7.650
 5597POPC   NC331247  43.125   7.444   9.450
 5597POPC   PO431248  43.117   7.388   9.150
 5597POPC   GL131249  43.131   7.385   8.850
 5597POPC   GL231250  42.997   7.459   8.850
 5597POPC   C1A31251  43.112   7.439   8.550
 5597POPC   D2A31252  43.133   7.426   8.250
 5597POPC   C3A31253  43.095   7.419   7.950
 5597POPC   C4A31254  43.094   7.409   7.650
 5597POPC   C1B31255  42.949   7.592   8.550
 5597POPC   C2B31256  42.964   7.553   8.250
 5597POPC   C3B31257  42.949   7.590   7.950
 5597POPC   C4B31258  42.952   7.628   7.650
 5598POPC   NC331259  19.087  19.057   9.450
 5598POPC   PO431260  19.074  19.051   9.150
 5598POPC   GL131261  19.032  19.102   8.850
 5598POPC   GL231262  19.132  18.938   8.850
 5598POPC   C1A31263  19.087  19.020   8.550
 5598POPC   D2A31264  19.042  19.012   8.250
 5598POPC   C3A31265  19.018  19.035   7.950
 5598POPC   C4A31266  19.080  19.020   7.650
 5598POPC   C1B31267  19.229  18.872   8.550
 5598POPC   C2B31268  19.171  18.885   8.250
 5598POPC   C3B31269  19.188  18.819   7.950
 5598POPC   C4B31270  19.237  18.913   7.650
 5599POPC   NC331271  12.842   6.679   9.450
 5599POPC   PO431272  12.859   6.652   9.150
 5599POPC   GL131273  12.888   6.622   8.850
 5599POPC   GL231274  12.861   6.738   8.850
 5599POPC   C1A31275  12.871   6.667   8.550
 5599POPC   D2A31276  12.851   6.665   8.250
 5599POPC   C3A31277  12.858   6.690   7.950
 5599POPC   C4A31278  12.857   6.614   7.650
 5599POPC   C1B31279  12.851   6.916   8.550
 5599POPC   C2B31280  12.888   6.916   8.250
 5599POPC   C3B31281  12.850   6.885   7.950
 5599POPC   C4B31282  12.878   6.887   7.650
 5600POPC   NC331283  39.189  36.937   9.450
 5600POPC   PO431284  39.236  36.872   9.150
 5600POPC   GL131285  39.265  36.875   8.850
 5600POPC   GL231286  39.337  36.889   8.850
 5600POPC   C1A31287  39.280  36.906   8.550
 5600POPC   D2A31288  39.261  36.931   8.250
 5600POPC   C3A31289  39.280  36.931   7.950
 5600POPC   C4A31290  39.200  36.854   7.650
 5600POPC   C1B31291  39.479  36.941   8.550
 5600POPC   C2B31292  39.461  36.910   8.250
 5600POPC   C3B31293  39.511  36.919   7.950
 5600POPC   C4B31294  39.450  36.923   7.650
 5601POPC   NC331295  22.192   5.893   9.450
 5601POPC   PO431296  22.116   5.871   9.150
 5601POPC   GL131297  22.184   5.836   8.850
 5601POPC   GL231298  22.085   5.845   8.850
 5601POPC   C1A31299  22.158   5.894   8.550
 5601POPC   D2A31300  22.176   5.861   8.250
 5601POPC   C3A31301  22.167   5.845   7.950
 5601POPC   C4A31302  22.153   5.880   7.650
 5601POPC   C1B31303  21.966   5.817   8.550
 5601POPC   C2B31304  21.934   5.817   8.250
 5601POPC   C3B31305  21.963   5.749   7.950
 5601POPC   C4B31306  21.932   5.795   7.650
 5602POPC   NC331307  32.225   9.701   9.450
 5602POPC   PO431308  32.239   9.709   9.150
 5602POPC   GL131309  32.259   9.708   8.850
 5602POPC   GL231310  32.173   9.773   8.850
 5602POPC   C1A31311  32.270   9.718   8.550
 5602POPC   D2A31312  32.202   9.766   8.250
 5602POPC   C3A31313  32.284   9.791   7.950
 5602POPC   C4A31314  32.232   9.715   7.650
 5602POPC   C1B31315  32.071   9.920   8.550
 5602POPC   C2B31316  32.022   9.861   8.250
 5602POPC   C3B31317  32.079   9.879   7.950
 5602POPC   C4B31318  31.996   9.870   7.650
 5603POPC   NC331319  44.653  19.101   9.450
 5603POPC   PO431320  44.699  19.040   9.150
 5603POPC   GL131321  44.695  19.009   8.850
 5603POPC   GL231322  44.543  19.079   8.850
 5603POPC   C1A31323  44.689  19.038   8.550
 5603POPC   D2A31324  44.631  19.034   8.250
 5603POPC   C3A31325  44.648  19.088   7.950
 5603POPC   C4A31326  44.630  19.087   7.650
 5603POPC   C1B31327  44.397  19.088   8.550
 5603POPC   C2B31328  44.398  19.075   8.250
 5603POPC   C3B31329  44.465  19.144   7.950
 5603POPC   C4B31330  44.463  19.164   7.650
 5604POPC   NC331331  21.356  22.163   9.450
 5604POPC   PO431332  21.354  22.184   9.150
 5604POPC   GL131333  21.419  22.154   8.850
 5604POPC   GL231334  21.426  21.994   8.850
 5604POPC   C1A31335  21.436  22.149   8.550
 5604POPC   D2A31336  21.337  22.171   8.250
 5604POPC   C3A31337  21.431  22.140   7.950
 5604POPC   C4A31338  21.411  22.128   7.650
 5604POPC   C1B31339  21.479  21.901   8.550
 5604POPC   C2B31340  21.502  21.880   8.250
 5604POPC   C3B31341  21.429  21.946   7.950
 5604POPC   C4B31342  21.480  21.956   7.650
 5605POPC   NC331343  34.568  12.086   9.450
 5605POPC   PO431344  34.548  12.097   9.150
 5605POPC   GL131345  34.618  12.067   8.850
 5605POPC   GL231346  34.558  11.992   8.850
 5605POPC   C1A31347  34.534  12.057   8.550
 5605POPC   D2A31348  34.612  12.046   8.250
 5605POPC   C3A31349  34.557  12.086   7.950
 5605POPC   C4A31350  34.619  12.118   7.650
 5605POPC   C1B31351  34.537  11.828   8.550
 5605POPC   C2B31352  34.565  11.784   8.250
 5605POPC   C3B31353  34.540  11.842   7.950
 5605POPC   C4B31354  34.531  11.812   7.650
 5606POPC   NC331355  12.080  22.915   9.450
 5606POPC   PO431356  12.097  22.978   9.150
 5606POPC   GL131357  12.089  22.915   8.850
 5606POPC   GL231358  12.164  23.042   8.850
 5606POPC   C1A31359  12.096  22.962   8.550
 5606POPC   D2A31360  12.079  22.903   8.250
 5606POPC   C3A31361  12.032  22.917   7.950
 5606POPC   C4A31362  12.048  22.939   7.650
 5606POPC   C1B31363  12.257  23.131   8.550
 5606POPC   C2B31364  12.164  23.169   8.250
 5606POPC   C3B31365  12.175  23.165   7.950
 5606POPC   C4B31366  12.197  23.146   7.650
 5607POPC   NC331367  29.903  12.837   9.450
 5607POPC   PO431368  29.913  12.864   9.150
 5607POPC   GL131369  29.893  12.875   8.850
 5607POPC   GL231370  30.004  12.924   8.850
 5607POPC   C1A31371  29.962  12.854   8.550
 5607POPC   D2A31372  29.871  12.814   8.250
 5607POPC   C3A31373  29.885  12.850   7.950
 5607POPC   C4A31374  29.894  12.881   7.650
 5607POPC   C1B31375  30.008  13.129   8.550
 5607POPC   C2B31376  29.996  13.089   8.250
 5607POPC   C3B31377  29.977  13.087   7.950
 5607POPC   C4B31378  30.043  13.114   7.650
 5608POPC   NC331379  39.992   6.639   9.450
 5608POPC   PO431380  40.032   6.604   9.150
 5608POPC   GL131381  40.011   6.681   8.850
 5608POPC   GL231382  39.879   6.592   8.850
 5608POPC   C1A31383  40.025   6.675   8.550
 5608POPC   D2A31384  40.051   6.686   8.250
 5608POPC   C3A31385  39.960   6.623   7.950
 5608POPC   C4A31386  40.011   6.606   7.650
 5608POPC   C1B31387  39.766   6.576   8.550
 5608POPC   C2B31388  39.761   6.598   8.250
 5608POPC   C3B31389  39.753   6.529   7.950
 5608POPC   C4B31390  39.779   6.598   7.650
 5609POPC   NC331391  23.712  37.661   9.450
 5609POPC   PO431392  23.739  37.685   9.150
 5609POPC   GL131393  23.752  37.642   8.850
 5609POPC   GL231394  23.720  37.581   8.850
 5609POPC   C1A31395  23.680  37.652   8.550
 5609POPC   D2A31396  23.740  37.646   8.250
 5609POPC   C3A31397  23.733  37.707   7.950
 5609POPC   C4A31398  23.756  37.723   7.650
 5609POPC   C1B31399  23.729  37.410   8.550
 5609POPC   C2B31400  23.696  37.409   8.250
 5609POPC   C3B31401  23.731  37.400   7.950
 5609POPC   C4B31402  23.743  37.414   7.650
 5610POPC   NC331403  11.326  40.736   9.450
 5610POPC   PO431404  11.310  40.748   9.150
 5610POPC   GL131405  11.321  40.823   8.850
 5610POPC   GL231406  11.186  40.780   8.850
 5610POPC   C1A31407  11.318  40.821   8.550
 5610POPC   D2A31408  11.300  40.782   8.250
 5610POPC   C3A31409  11.296  40.772   7.950
 5610POPC   C4A31410  11.317  40.735   7.650
 5610POPC   C1B31411  11.019  40.724   8.550
 5610POPC   C2B31412  11.092  40.756   8.250
 5610POPC   C3B31413  11.024  40.758   7.950
 5610POPC   C4B31414  11.067  40.711   7.650
 5611POPC   NC331415  42.353  16.728   9.450
 5611POPC   PO431416  42.297  16.722   9.150
 5611POPC   GL131417  42.289  16.749   8.850
 5611POPC   GL231418  42.341  16.873   8.850
 5611POPC   C1A31419  42.359  16.749   8.550
 5611POPC   D2A31420  42.302  16.781   8.250
 5611POPC   C3A31421  42.380  16.746   7.950
 5611POPC   C4A31422  42.331  16.738   7.650
 5611POPC   C1B31423  42.419  17.006   8.550
 5611POPC   C2B31424  42.434  16.932   8.250
 5611POPC   C3B31425  42.425  16.938   7.950
 5611POPC   C4B31426  42.446  17.009   7.650
 5612POPC   NC331427  10.534   7.397   9.450
 5612POPC   PO431428  10.495   7.434   9.150
 5612POPC   GL131429  10.488   7.390   8.850
 5612POPC   GL231430  10.612   7.489   8.850
 5612POPC   C1A31431  10.496   7.430   8.550
 5612POPC   D2A31432  10.562   7.377   8.250
 5612POPC   C3A31433  10.540   7.372   7.950
 5612POPC   C4A31434  10.540   7.466   7.650
 5612POPC   C1B31435  10.676   7.569   8.550
 5612POPC   C2B31436  10.723   7.568   8.250
 5612POPC   C3B31437  10.745   7.617   7.950
 5612POPC   C4B31438  10.714   7.528   7.650
 5613POPC   NC331439  42.329  23.689   9.450
 5613POPC   PO431440  42.306  23.705   9.150
 5613POPC   GL131441  42.378  23.735   8.850
 5613POPC   GL231442  42.290  23.838   8.850
 5613POPC   C1A31443  42.327  23.751   8.550
 5613POPC   D2A31444  42.304  23.757   8.250
 5613POPC   C3A31445  42.287  23.691   7.950
 5613POPC   C4A31446  42.315  23.690   7.650
 5613POPC   C1B31447  42.319  23.925   8.550
 5613POPC   C2B31448  42.329  23.977   8.250
 5613POPC   C3B31449  42.319  23.936   7.950
 5613POPC   C4B31450  42.312  23.938   7.650
 5614POPC   NC331451   8.971  39.965   9.450
 5614POPC   PO431452   8.980  39.967   9.150
 5614POPC   GL131453   8.939  40.002   8.850
 5614POPC   GL231454   8.998  40.181   8.850
 5614POPC   C1A31455   8.961  40.037   8.550
 5614POPC   D2A31456   8.942  40.035   8.250
 5614POPC   C3A31457   8.970  40.006   7.950
 5614POPC   C4A31458   8.992  39.992   7.650
 5614POPC   C1B31459   8.941  40.279   8.550
 5614POPC   C2B31460   8.936  40.274   8.250
 5614POPC   C3B31461   9.026  40.264   7.950
 5614POPC   C4B31462   8.945  40.295   7.650
 5615POPC   NC331463   5.088   5.046   9.450
 5615POPC   PO431464   5.090   5.131   9.150
 5615POPC   GL131465   5.084   5.130   8.850
 5615POPC   GL231466   4.933   5.142   8.850
 5615POPC   C1A31467   5.075   5.085   8.550
 5615POPC   D2A31468   5.101   5.090   8.250
 5615POPC   C3A31469   5.072   5.044   7.950
 5615POPC   C4A31470   5.052   5.097   7.650
 5615POPC   C1B31471   4.893   5.148   8.550
 5615POPC   C2B31472   4.888   5.112   8.250
 5615POPC   C3B31473   4.849   5.077   7.950
 5615POPC   C4B31474   4.874   5.110   7.650
 5616POPC   NC331475  22.209  15.975   9.450
 5616POPC   PO431476  22.132  15.944   9.150
 5616POPC   GL131477  22.209  15.930   8.850
 5616POPC   GL231478  22.267  16.020   8.850
 5616POPC   C1A31479  22.140  15.998   8.550
 5616POPC   D2A31480  22.163  15.994   8.250
 5616POPC   C3A31481  22.157  15.927   7.950
 5616POPC   C4A31482  22.135  15.961   7.650
 5616POPC   C1B31483  22.340  16.143   8.550
 5616POPC   C2B31484  22.371  16.059   8.250
 5616POPC   C3B31485  22.361  16.067   7.950
 5616POPC   C4B31486  22.335  16.128   7.650
 5617POPC   NC331487   0.450  33.065   9.450
 5617POPC   PO431488   0.395  33.030   9.150
 5617POPC   GL131489   0.402  33.048   8.850
 5617POPC   GL231490   0.460  33.140   8.850
 5617POPC   C1A31491   0.463  33.009   8.550
 5617POPC   D2A31492   0.442  32.998   8.250
 5617POPC   C3A31493   0.476  32.977   7.950
 5617POPC   C4A31494   0.462  32.984   7.650
 5617POPC   C1B31495   0.565  33.252   8.550
 5617POPC   C2B31496   0.503  33.275   8.250
 5617POPC   C3B31497   0.586  33.222   7.950
 5617POPC   C4B31498   0.538  33.214   7.650
 5618POPC   NC331499   9.754   5.064   9.450
 5618POPC   PO431500   9.782   5.122   9.150
 5618POPC   GL131501   9.735   5.101   8.850
 5618POPC   GL231502   9.592   5.099   8.850
 5618POPC   C1A31503   9.792   5.075   8.550
 5618POPC   D2A31504   9.715   5.111   8.250
 5618POPC   C3A31505   9.732   5.065   7.950
 5618POPC   C4A31506   9.703   5.104   7.650
 5618POPC   C1B31507   9.514   5.123   8.550
 5618POPC   C2B31508   9.545   5.111   8.250
 5618POPC   C3B31509   9.524   5.039   7.950
 5618POPC   C4B31510   9.448   5.099   7.650
 5619POPC   NC331511  39.218  31.491   9.450
 5619POPC   PO431512  39.221  31.436   9.150
 5619POPC   GL131513  39.192  31.472   8.850
 5619POPC   GL231514  39.374  31.382   8.850
 5619POPC   C1A31515  39.272  31.483   8.550
 5619POPC   D2A31516  39.238  31.505   8.250
 5619POPC   C3A31517  39.192  31.479   7.950
 5619POPC   C4A31518  39.223  31.498   7.650
 5619POPC   C1B31519  39.432  31.407   8.550
 5619POPC   C2B31520  39.444  31.371   8.250
 5619POPC   C3B31521  39.455  31.409   7.950
 5619POPC   C4B31522  39.446  31.397   7.650
 5620POPC   NC331523  16.711  12.886   9.450
 5620POPC   PO431524  16.756  12.858   9.150
 5620POPC   GL131525  16.713  12.854   8.850
 5620POPC   GL231526  16.834  12.899   8.850
 5620POPC   C1A31527  16.755  12.826   8.550
 5620POPC   D2A31528  16.685  12.835   8.250
 5620POPC   C3A31529  16.763  12.811   7.950
 5620POPC   C4A31530  16.696  12.838   7.650
 5620POPC   C1B31531  16.908  12.976   8.550
 5620POPC   C2B31532  16.871  13.017   8.250
 5620POPC   C3B31533  16.889  12.977   7.950
 5620POPC   C4B31534  16.870  13.038   7.650
 5621POPC   NC331535  38.482   3.532   9.450
 5621POPC   PO431536  38.422   3.492   9.150
 5621POPC   GL131537  38.418   3.528   8.850
 5621POPC   GL231538  38.393   3.407   8.850
 5621POPC   C1A31539  38.406   3.543   8.550
 5621POPC   D2A31540  38.447   3.561   8.250
 5621POPC   C3A31541  38.442   3.541   7.950
 5621POPC   C4A31542  38.496   3.564   7.650
 5621POPC   C1B31543  38.389   3.358   8.550
 5621POPC   C2B31544  38.384   3.331   8.250
 5621POPC   C3B31545  38.358   3.309   7.950
 5621POPC   C4B31546  38.320   3.317   7.650
 5622POPC   NC331547  16.692  19.024   9.450
 5622POPC   PO431548  16.732  19.043   9.150
 5622POPC   GL131549  16.779  19.101   8.850
 5622POPC   GL231550  16.640  19.109   8.850
 5622POPC   C1A31551  16.736  19.048   8.550
 5622POPC   D2A31552  16.728  19.075   8.250
 5622POPC   C3A31553  16.705  19.038   7.950
 5622POPC   C4A31554  16.707  19.108   7.650
 5622POPC   C1B31555  16.521  19.242   8.550
 5622POPC   C2B31556  16.536  19.185   8.250
 5622POPC   C3B31557  16.552  19.162   7.950
 5622POPC   C4B31558  16.502  19.224   7.650
 5623POPC   NC331559  11.280  38.426   9.450
 5623POPC   PO431560  11.279  38.473   9.150
 5623POPC   GL131561  11.278  38.413   8.850
 5623POPC   GL231562  11.356  38.536   8.850
 5623POPC   C1A31563  11.273  38.439   8.550
 5623POPC   D2A31564  11.261  38.428   8.250
 5623POPC   C3A31565  11.275  38.429   7.950
 5623POPC   C4A31566  11.298  38.490   7.650
 5623POPC   C1B31567  11.415  38.625   8.550
 5623POPC   C2B31568  11.483  38.685   8.250
 5623POPC   C3B31569  11.474  38.610   7.950
 5623POPC   C4B31570  11.456  38.644   7.650
 5624POPC   NC331571  29.922  13.586   9.450
 5624POPC   PO431572  29.952  13.580   9.150
 5624POPC   GL131573  29.943  13.622   8.850
 5624POPC   GL231574  30.037  13.657   8.850
 5624POPC   C1A31575  29.880  13.611   8.550
 5624POPC   D2A31576  29.950  13.596   8.250
 5624POPC   C3A31577  29.899  13.652   7.950
 5624POPC   C4A31578  29.943  13.670   7.650
 5624POPC   C1B31579  30.121  13.714   8.550
 5624POPC   C2B31580  30.131  13.663   8.250
 5624POPC   C3B31581  30.187  13.694   7.950
 5624POPC   C4B31582  30.163  13.697   7.650
 5625POPC   NC331583  18.298  35.400   9.450
 5625POPC   PO431584  18.283  35.373   9.150
 5625POPC   GL131585  18.238  35.352   8.850
 5625POPC   GL231586  18.335  35.479   8.850
 5625POPC   C1A31587  18.238  35.344   8.550
 5625POPC   D2A31588  18.237  35.381   8.250
 5625POPC   C3A31589  18.309  35.335   7.950
 5625POPC   C4A31590  18.265  35.334   7.650
 5625POPC   C1B31591  18.408  35.621   8.550
 5625POPC   C2B31592  18.450  35.570   8.250
 5625POPC   C3B31593  18.390  35.569   7.950
 5625POPC   C4B31594  18.398  35.587   7.650
 5626POPC   NC331595  33.820  32.293   9.450
 5626POPC   PO431596  33.819  32.290   9.150
 5626POPC   GL131597  33.761  32.262   8.850
 5626POPC   GL231598  33.892  32.389   8.850
 5626POPC   C1A31599  33.798  32.223   8.550
 5626POPC   D2A31600  33.788  32.247   8.250
 5626POPC   C3A31601  33.828  32.286   7.950
 5626POPC   C4A31602  33.820  32.216   7.650
 5626POPC   C1B31603  33.848  32.440   8.550
 5626POPC   C2B31604  33.905  32.436   8.250
 5626POPC   C3B31605  33.919  32.455   7.950
 5626POPC   C4B31606  33.861  32.504   7.650
 5627POPC   NC331607   8.184  41.606   9.450
 5627POPC   PO431608   8.155  41.538   9.150
 5627POPC   GL131609   8.184  41.526   8.850
 5627POPC   GL231610   8.344  41.598   8.850
 5627POPC   C1A31611   8.191  41.544   8.550
 5627POPC   D2A31612   8.169  41.559   8.250
 5627POPC   C3A31613   8.196  41.558   7.950
 5627POPC   C4A31614   8.204  41.572   7.650
 5627POPC   C1B31615   8.408  41.681   8.550
 5627POPC   C2B31616   8.392  41.721   8.250
 5627POPC   C3B31617   8.400  41.689   7.950
 5627POPC   C4B31618   8.418  41.724   7.650
 5628POPC   NC331619  26.810   8.998   9.450
 5628POPC   PO431620  26.827   8.934   9.150
 5628POPC   GL131621  26.784   9.009   8.850
 5628POPC   GL231622  26.828   9.090   8.850
 5628POPC   C1A31623  26.836   8.979   8.550
 5628POPC   D2A31624  26.848   8.973   8.250
 5628POPC   C3A31625  26.855   8.939   7.950
 5628POPC   C4A31626  26.854   8.973   7.650
 5628POPC   C1B31627  26.870   9.252   8.550
 5628POPC   C2B31628  26.860   9.230   8.250
 5628POPC   C3B31629  26.814   9.183   7.950
 5628POPC   C4B31630  26.907   9.238   7.650
 5629POPC   NC331631   9.009  12.078   9.450
 5629POPC   PO431632   9.009  12.114   9.150
 5629POPC   GL131633   8.931  12.103   8.850
 5629POPC   GL231634   9.114  12.073   8.850
 5629POPC   C1A31635   8.970  12.106   8.550
 5629POPC   D2A31636   8.972  12.105   8.250
 5629POPC   C3A31637   8.968  12.078   7.950
 5629POPC   C4A31638   8.978  12.058   7.650
 5629POPC   C1B31639   9.225  12.045   8.550
 5629POPC   C2B31640   9.215  11.973   8.250
 5629POPC   C3B31641   9.187  11.969   7.950
 5629POPC   C4B31642   9.240  12.031   7.650
 5630POPC   NC331643  39.190  12.893   9.450
 5630POPC   PO431644  39.189  12.869   9.150
 5630POPC   GL131645  39.214  12.898   8.850
 5630POPC   GL231646  39.212  12.722   8.850
 5630POPC   C1A31647  39.251  12.823   8.550
 5630POPC   D2A31648  39.185  12.851   8.250
 5630POPC   C3A31649  39.235  12.826   7.950
 5630POPC   C4A31650  39.214  12.878   7.650
 5630POPC   C1B31651  39.151  12.596   8.550
 5630POPC   C2B31652  39.096  12.635   8.250
 5630POPC   C3B31653  39.128  12.618   7.950
 5630POPC   C4B31654  39.149  12.634   7.650
 5631POPC   NC331655  33.013  14.402   9.450
 5631POPC   PO431656  32.984  14.391   9.150
 5631POPC   GL131657  33.057  14.363   8.850
 5631POPC   GL231658  33.025  14.536   8.850
 5631POPC   C1A31659  33.018  14.398   8.550
 5631POPC   D2A31660  32.994  14.395   8.250
 5631POPC   C3A31661  32.986  14.412   7.950
 5631POPC   C4A31662  33.058  14.441   7.650
 5631POPC   C1B31663  33.105  14.607   8.550
 5631POPC   C2B31664  33.144  14.671   8.250
 5631POPC   C3B31665  33.152  14.633   7.950
 5631POPC   C4B31666  33.083  14.608   7.650
 5632POPC   NC331667  36.928  38.465   9.450
 5632POPC   PO431668  36.872  38.414   9.150
 5632POPC   GL131669  36.894  38.497   8.850
 5632POPC   GL231670  36.856  38.610   8.850
 5632POPC   C1A31671  36.938  38.493   8.550
 5632POPC   D2A31672  36.908  38.407   8.250
 5632POPC   C3A31673  36.887  38.449   7.950
 5632POPC   C4A31674  36.890  38.451   7.650
 5632POPC   C1B31675  36.891  38.676   8.550
 5632POPC   C2B31676  36.856  38.684   8.250
 5632POPC   C3B31677  36.824  38.689   7.950
 5632POPC   C4B31678  36.903  38.682   7.650
 5633POPC   NC331679  13.611  44.669   9.450
 5633POPC   PO431680  13.645  44.686   9.150
 5633POPC   GL131681  13.629  44.615   8.850
 5633POPC   GL231682  13.495  44.640   8.850
 5633POPC   C1A31683  13.641  44.671   8.550
 5633POPC   D2A31684  13.670  44.702   8.250
 5633POPC   C3A31685  13.601  44.641   7.950
 5633POPC   C4A31686  13.630  44.620   7.650
 5633POPC   C1B31687  13.432  44.570   8.550
 5633POPC   C2B31688  13.428  44.605   8.250
 5633POPC   C3B31689  13.409  44.587   7.950
 5633POPC   C4B31690  13.343  44.631   7.650
 5634POPC   NC331691  33.756  27.608   9.450
 5634POPC   PO431692  33.754  27.570   9.150
 5634POPC   GL131693  33.806  27.631   8.850
 5634POPC   GL231694  33.660  27.620   8.850
 5634POPC   C1A31695  33.845  27.633   8.550
 5634POPC   D2A31696  33.791  27.578   8.250
 5634POPC   C3A31697  33.836  27.615   7.950
 5634POPC   C4A31698  33.814  27.582   7.650
 5634POPC   C1B31699  33.529  27.588   8.550
 5634POPC   C2B31700  33.535  27.591   8.250
 5634POPC   C3B31701  33.557  27.529   7.950
 5634POPC   C4B31702  33.522  27.531   7.650
 5635POPC   NC331703   1.959  43.929   9.450
 5635POPC   PO431704   1.954  43.904   9.150
 5635POPC   GL131705   2.021  43.901   8.850
 5635POPC   GL231706   2.064  44.006   8.850
 5635POPC   C1A31707   2.010  43.929   8.550
 5635POPC   D2A31708   1.947  43.842   8.250
 5635POPC   C3A31709   2.035  43.838   7.950
 5635POPC   C4A31710   1.997  43.845   7.650
 5635POPC   C1B31711   2.110  44.095   8.550
 5635POPC   C2B31712   2.150  44.134   8.250
 5635POPC   C3B31713   2.133  44.129   7.950
 5635POPC   C4B31714   2.100  44.070   7.650
 5636POPC   NC331715   7.393   7.454   9.450
 5636POPC   PO431716   7.400   7.439   9.150
 5636POPC   GL131717   7.422   7.459   8.850
 5636POPC   GL231718   7.279   7.453   8.850
 5636POPC   C1A31719   7.407   7.449   8.550
 5636POPC   D2A31720   7.419   7.424   8.250
 5636POPC   C3A31721   7.385   7.371   7.950
 5636POPC   C4A31722   7.454   7.451   7.650
 5636POPC   C1B31723   7.141   7.487   8.550
 5636POPC   C2B31724   7.165   7.513   8.250
 5636POPC   C3B31725   7.154   7.511   7.950
 5636POPC   C4B31726   7.174   7.493   7.650
 5637POPC   NC331727  36.175   8.966   9.450
 5637POPC   PO431728  36.107   8.987   9.150
 5637POPC   GL131729  36.149   8.979   8.850
 5637POPC   GL231730  36.266   9.011   8.850
 5637POPC   C1A31731  36.104   8.994   8.550
 5637POPC   D2A31732  36.094   8.929   8.250
 5637POPC   C3A31733  36.131   9.006   7.950
 5637POPC   C4A31734  36.078   8.985   7.650
 5637POPC   C1B31735  36.355   9.101   8.550
 5637POPC   C2B31736  36.322   9.095   8.250
 5637POPC   C3B31737  36.352   9.124   7.950
 5637POPC   C4B31738  36.383   9.079   7.650
 5638POPC   NC331739  35.326  35.318   9.450
 5638POPC   PO431740  35.381  35.363   9.150
 5638POPC   GL131741  35.341  35.317   8.850
 5638POPC   GL231742  35.342  35.191   8.850
 5638POPC   C1A31743  35.357  35.321   8.550
 5638POPC   D2A31744  35.327  35.388   8.250
 5638POPC   C3A31745  35.330  35.341   7.950
 5638POPC   C4A31746  35.377  35.328   7.650
 5638POPC   C1B31747  35.380  35.096   8.550
 5638POPC   C2B31748  35.378  35.124   8.250
 5638POPC   C3B31749  35.383  35.137   7.950
 5638POPC   C4B31750  35.388  35.149   7.650
 5639POPC   NC331751  34.620   1.181   9.450
 5639POPC   PO431752  34.534   1.188   9.150
 5639POPC   GL131753  34.576   1.258   8.850
 5639POPC   GL231754  34.694   1.103   8.850
 5639POPC   C1A31755  34.581   1.225   8.550
 5639POPC   D2A31756  34.600   1.220   8.250
 5639POPC   C3A31757  34.585   1.168   7.950
 5639POPC   C4A31758  34.612   1.224   7.650
 5639POPC   C1B31759  34.780   1.080   8.550
 5639POPC   C2B31760  34.761   1.045   8.250
 5639POPC   C3B31761  34.802   1.077   7.950
 5639POPC   C4B31762  34.724   1.061   7.650
 5640POPC   NC331763  15.992   8.171   9.450
 5640POPC   PO431764  15.975   8.167   9.150
 5640POPC   GL131765  15.993   8.239   8.850
 5640POPC   GL231766  16.027   8.243   8.850
 5640POPC   C1A31767  15.973   8.224   8.550
 5640POPC   D2A31768  15.945   8.242   8.250
 5640POPC   C3A31769  15.917   8.205   7.950
 5640POPC   C4A31770  15.911   8.168   7.650
 5640POPC   C1B31771  16.179   8.328   8.550
 5640POPC   C2B31772  16.153   8.359   8.250
 5640POPC   C3B31773  16.175   8.392   7.950
 5640POPC   C4B31774  16.164   8.314   7.650
 5641POPC   NC331775   5.063  34.576   9.450
 5641POPC   PO431776   5.117  34.529   9.150
 5641POPC   GL131777   5.122  34.624   8.850
 5641POPC   GL231778   5.203  34.667   8.850
 5641POPC   C1A31779   5.052  34.527   8.550
 5641POPC   D2A31780   5.056  34.548   8.250
 5641POPC   C3A31781   5.122  34.539   7.950
 5641POPC   C4A31782   5.067  34.579   7.650
 5641POPC   C1B31783   5.271  34.737   8.550
 5641POPC   C2B31784   5.275  34.704   8.250
 5641POPC   C3B31785   5.325  34.689   7.950
 5641POPC   C4B31786   5.273  34.756   7.650
 5642POPC   NC331787  32.998  24.477   9.450
 5642POPC   PO431788  33.060  24.471   9.150
 5642POPC   GL131789  33.070  24.448   8.850
 5642POPC   GL231790  33.160  24.429   8.850
 5642POPC   C1A31791  33.074  24.446   8.550
 5642POPC   D2A31792  33.063  24.516   8.250
 5642POPC   C3A31793  32.975  24.508   7.950
 5642POPC   C4A31794  33.033  24.490   7.650
 5642POPC   C1B31795  33.207  24.339   8.550
 5642POPC   C2B31796  33.204  24.277   8.250
 5642POPC   C3B31797  33.249  24.296   7.950
 5642POPC   C4B31798  33.168  24.343   7.650
 5643POPC   NC331799  10.504  35.365   9.450
 5643POPC   PO431800  10.512  35.385   9.150
 5643POPC   GL131801  10.538  35.379   8.850
 5643POPC   GL231802  10.569  35.454   8.850
 5643POPC   C1A31803  10.496  35.356   8.550
 5643POPC   D2A31804  10.560  35.320   8.250
 5643POPC   C3A31805  10.543  35.366   7.950
 5643POPC   C4A31806  10.550  35.379   7.650
 5643POPC   C1B31807  10.694  35.550   8.550
 5643POPC   C2B31808  10.698  35.556   8.250
 5643POPC   C3B31809  10.677  35.582   7.950
 5643POPC   C4B31810  10.642  35.582   7.650
 5644POPC   NC331811  29.882   0.445   9.450
 5644POPC   PO431812  29.933   0.420   9.150
 5644POPC   GL131813  29.907   0.444   8.850
 5644POPC   GL231814  29.834   0.358   8.850
 5644POPC   C1A31815  29.948   0.432   8.550
 5644POPC   D2A31816  29.920   0.452   8.250
 5644POPC   C3A31817  29.893   0.406   7.950
 5644POPC   C4A31818  29.933   0.464   7.650
 5644POPC   C1B31819  29.725   0.294   8.550
 5644POPC   C2B31820  29.675   0.334   8.250
 5644POPC   C3B31821  29.671   0.313   7.950
 5644POPC   C4B31822  29.669   0.300   7.650
 5645POPC   NC331823  32.215  29.915   9.450
 5645POPC   PO431824  32.287  29.958   9.150
 5645POPC   GL131825  32.270  29.948   8.850
 5645POPC   GL231826  32.371  29.927   8.850
 5645POPC   C1A31827  32.233  29.904   8.550
 5645POPC   D2A31828  32.262  29.933   8.250
 5645POPC   C3A31829  32.216  29.895   7.950
 5645POPC   C4A31830  32.205  29.947   7.650
 5645POPC   C1B31831  32.509  29.876   8.550
 5645POPC   C2B31832  32.496  29.920   8.250
 5645POPC   C3B31833  32.475  29.903   7.950
 5645POPC   C4B31834  32.514  29.861   7.650
 5646POPC   NC331835   7.415  21.424   9.450
 5646POPC   PO431836   7.381  21.357   9.150
 5646POPC   GL131837   7.447  21.388   8.850
 5646POPC   GL231838   7.294  21.448   8.850
 5646POPC   C1A31839   7.448  21.432   8.550
 5646POPC   D2A31840   7.437  21.433   8.250
 5646POPC   C3A31841   7.378  21.339   7.950
 5646POPC   C4A31842   7.400  21.409   7.650
 5646POPC   C1B31843   7.144  21.448   8.550
 5646POPC   C2B31844   7.193  21.448   8.250
 5646POPC   C3B31845   7.178  21.496   7.950
 5646POPC   C4B31846   7.191  21.486   7.650
 5647POPC   NC331847   7.413  29.151   9.450
 5647POPC   PO431848   7.461  29.146   9.150
 5647POPC   GL131849   7.461  29.126   8.850
 5647POPC   GL231850   7.339  29.219   8.850
 5647POPC   C1A31851   7.396  29.100   8.550
 5647POPC   D2A31852   7.392  29.142   8.250
 5647POPC   C3A31853   7.459  29.169   7.950
 5647POPC   C4A31854   7.420  29.160   7.650
 5647POPC   C1B31855   7.351  29.417   8.550
 5647POPC   C2B31856   7.368  29.341   8.250
 5647POPC   C3B31857   7.315  29.356   7.950
 5647POPC   C4B31858   7.357  29.391   7.650
 5648POPC   NC331859  10.549   8.993   9.450
 5648POPC   PO431860  10.508   8.930   9.150
 5648POPC   GL131861  10.494   8.976   8.850
 5648POPC   GL231862  10.570   8.818   8.850
 5648POPC   C1A31863  10.500   8.937   8.550
 5648POPC   D2A31864  10.563   8.960   8.250
 5648POPC   C3A31865  10.496   8.945   7.950
 5648POPC   C4A31866  10.522   8.982   7.650
 5648POPC   C1B31867  10.545   8.704   8.550
 5648POPC   C2B31868  10.526   8.744   8.250
 5648POPC   C3B31869  10.554   8.680   7.950
 5648POPC   C4B31870  10.580   8.711   7.650
 5649POPC   NC331871  40.021   0.460   9.450
 5649POPC   PO431872  39.992   0.435   9.150
 5649POPC   GL131873  39.960   0.482   8.850
 5649POPC   GL231874  40.066   0.524   8.850
 5649POPC   C1A31875  40.016   0.417   8.550
 5649POPC   D2A31876  39.975   0.446   8.250
 5649POPC   C3A31877  39.971   0.479   7.950
 5649POPC   C4A31878  39.994   0.464   7.650
 5649POPC   C1B31879  40.000   0.721   8.550
 5649POPC   C2B31880  40.081   0.696   8.250
 5649POPC   C3B31881  40.024   0.687   7.950
 5649POPC   C4B31882  40.000   0.673   7.650
 5650POPC   NC331883   2.721  23.666   9.450
 5650POPC   PO431884   2.762  23.668   9.150
 5650POPC   GL131885   2.732  23.677   8.850
 5650POPC   GL231886   2.657  23.690   8.850
 5650POPC   C1A31887   2.784  23.749   8.550
 5650POPC   D2A31888   2.736  23.674   8.250
 5650POPC   C3A31889   2.794  23.691   7.950
 5650POPC   C4A31890   2.808  23.672   7.650
 5650POPC   C1B31891   2.559  23.518   8.550
 5650POPC   C2B31892   2.598  23.534   8.250
 5650POPC   C3B31893   2.563  23.617   7.950
 5650POPC   C4B31894   2.535  23.582   7.650
 5651POPC   NC331895  44.644  15.911   9.450
 5651POPC   PO431896  44.677  15.912   9.150
 5651POPC   GL131897  44.683  15.946   8.850
 5651POPC   GL231898  44.539  16.058   8.850
 5651POPC   C1A31899  44.616  15.934   8.550
 5651POPC   D2A31900  44.615  15.919   8.250
 5651POPC   C3A31901  44.617  15.924   7.950
 5651POPC   C4A31902  44.616  15.927   7.650
 5651POPC   C1B31903  44.538  16.117   8.550
 5651POPC   C2B31904  44.490  16.112   8.250
 5651POPC   C3B31905  44.520  16.178   7.950
 5651POPC   C4B31906  44.543  16.190   7.650
 5652POPC   NC331907  12.840  15.149   9.450
 5652POPC   PO431908  12.880  15.137   9.150
 5652POPC   GL131909  12.892  15.229   8.850
 5652POPC   GL231910  12.705  15.212   8.850
 5652POPC   C1A31911  12.851  15.148   8.550
 5652POPC   D2A31912  12.890  15.184   8.250
 5652POPC   C3A31913  12.868  15.221   7.950
 5652POPC   C4A31914  12.888  15.200   7.650
 5652POPC   C1B31915  12.573  15.284   8.550
 5652POPC   C2B31916  12.648  15.245   8.250
 5652POPC   C3B31917  12.658  15.269   7.950
 5652POPC   C4B31918  12.618  15.299   7.650
 5653POPC   NC331919  14.389  10.551   9.450
 5653POPC   PO431920  14.409  10.503   9.150
 5653POPC   GL131921  14.453  10.536   8.850
 5653POPC   GL231922  14.472  10.414   8.850
 5653POPC   C1A31923  14.409  10.526   8.550
 5653POPC   D2A31924  14.436  10.562   8.250
 5653POPC   C3A31925  14.388  10.486   7.950
 5653POPC   C4A31926  14.398  10.570   7.650
 5653POPC   C1B31927  14.527  10.314   8.550
 5653POPC   C2B31928  14.476  10.300   8.250
 5653POPC   C3B31929  14.469  10.299   7.950
 5653POPC   C4B31930  14.532  10.341   7.650
 5654POPC   NC331931   3.553  10.524   9.450
 5654POPC   PO431932   3.500  10.545   9.150
 5654POPC   GL131933   3.495  10.479   8.850
 5654POPC   GL231934   3.417  10.529   8.850
 5654POPC   C1A31935   3.515  10.515   8.550
 5654POPC   D2A31936   3.517  10.569   8.250
 5654POPC   C3A31937   3.566  10.527   7.950
 5654POPC   C4A31938   3.560  10.516   7.650
 5654POPC   C1B31939   3.324  10.629   8.550
 5654POPC   C2B31940   3.340  10.637   8.250
 5654POPC   C3B31941   3.348  10.601   7.950
 5654POPC   C4B31942   3.290  10.602   7.650
 5655POPC   NC331943   5.125  26.860   9.450
 5655POPC   PO431944   5.109  26.778   9.150
 5655POPC   GL131945   5.130  26.781   8.850
 5655POPC   GL231946   4.949  26.747   8.850
 5655POPC   C1A31947   5.102  26.772   8.550
 5655POPC   D2A31948   5.084  26.768   8.250
 5655POPC   C3A31949   5.082  26.853   7.950
 5655POPC   C4A31950   5.101  26.790   7.650
 5655POPC   C1B31951   4.835  26.702   8.550
 5655POPC   C2B31952   4.881  26.744   8.250
 5655POPC   C3B31953   4.843  26.657   7.950
 5655POPC   C4B31954   4.877  26.712   7.650
 5656POPC   NC331955  32.267  12.867   9.450
 5656POPC   PO431956  32.224  12.901   9.150
 5656POPC   GL131957  32.291  12.831   8.850
 5656POPC   GL231958  32.209  12.932   8.850
 5656POPC   C1A31959  32.232  12.844   8.550
 5656POPC   D2A31960  32.214  12.871   8.250
 5656POPC   C3A31961  32.223  12.870   7.950
 5656POPC   C4A31962  32.265  12.836   7.650
 5656POPC   C1B31963  32.230  13.058   8.550
 5656POPC   C2B31964  32.191  13.069   8.250
 5656POPC   C3B31965  32.232  13.138   7.950
 5656POPC   C4B31966  32.281  13.081   7.650
 5657POPC   NC331967  30.732   9.755   9.450
 5657POPC   PO431968  30.724   9.749   9.150
 5657POPC   GL131969  30.746   9.710   8.850
 5657POPC   GL231970  30.621   9.676   8.850
 5657POPC   C1A31971  30.675   9.774   8.550
 5657POPC   D2A31972  30.669   9.715   8.250
 5657POPC   C3A31973  30.686   9.755   7.950
 5657POPC   C4A31974  30.679   9.710   7.650
 5657POPC   C1B31975  30.512   9.600   8.550
 5657POPC   C2B31976  30.492   9.606   8.250
 5657POPC   C3B31977  30.459   9.552   7.950
 5657POPC   C4B31978  30.554   9.573   7.650
 5658POPC   NC331979  41.537  32.985   9.450
 5658POPC   PO431980  41.604  32.988   9.150
 5658POPC   GL131981  41.595  33.034   8.850
 5658POPC   GL231982  41.407  33.055   8.850
 5658POPC   C1A31983  41.539  32.997   8.550
 5658POPC   D2A31984  41.564  33.070   8.250
 5658POPC   C3A31985  41.522  32.991   7.950
 5658POPC   C4A31986  41.578  33.015   7.650
 5658POPC   C1B31987  41.311  33.051   8.550
 5658POPC   C2B31988  41.330  33.025   8.250
 5658POPC   C3B31989  41.362  33.080   7.950
 5658POPC   C4B31990  41.265  33.049   7.650
 5659POPC   NC331991  10.554  32.982   9.450
 5659POPC   PO431992  10.486  32.997   9.150
 5659POPC   GL131993  10.568  33.035   8.850
 5659POPC   GL231994  10.627  33.071   8.850
 5659POPC   C1A31995  10.558  33.026   8.550
 5659POPC   D2A31996  10.488  33.027   8.250
 5659POPC   C3A31997  10.488  32.988   7.950
 5659POPC   C4A31998  10.504  33.041   7.650
 5659POPC   C1B31999  10.750  33.136   8.550
 5659POPC   C2B32000  10.728  33.166   8.250
 5659POPC   C3B32001  10.713  33.193   7.950
 5659POPC   C4B32002  10.703  33.156   7.650
 5660POPC   NC332003  32.218  14.381   9.450
 5660POPC   PO432004  32.272  14.437   9.150
 5660POPC   GL132005  32.203  14.355   8.850
 5660POPC   GL232006  32.183  14.469   8.850
 5660POPC   C1A32007  32.201  14.416   8.550
 5660POPC   D2A32008  32.208  14.419   8.250
 5660POPC   C3A32009  32.292  14.441   7.950
 5660POPC   C4A32010  32.250  14.362   7.650
 5660POPC   C1B32011  32.053  14.541   8.550
 5660POPC   C2B32012  32.089  14.623   8.250
 5660POPC   C3B32013  32.067  14.539   7.950
 5660POPC   C4B32014  32.083  14.546   7.650
 5661POPC   NC332015  27.642  36.158   9.450
 5661POPC   PO432016  27.631  36.163   9.150
 5661POPC   GL132017  27.586  36.121   8.850
 5661POPC   GL232018  27.697  36.113   8.850
 5661POPC   C1A32019  27.568  36.107   8.550
 5661POPC   D2A32020  27.642  36.095   8.250
 5661POPC   C3A32021  27.555  36.142   7.950
 5661POPC   C4A32022  27.595  36.108   7.650
 5661POPC   C1B32023  27.849  36.168   8.550
 5661POPC   C2B32024  27.872  36.182   8.250
 5661POPC   C3B32025  27.840  36.154   7.950
 5661POPC   C4B32026  27.883  36.181   7.650
 5662POPC   NC332027   8.207   1.941   9.450
 5662POPC   PO432028   8.175   1.982   9.150
 5662POPC   GL132029   8.171   1.995   8.850
 5662POPC   GL232030   8.324   1.919   8.850
 5662POPC   C1A32031   8.159   1.959   8.550
 5662POPC   D2A32032   8.174   1.955   8.250
 5662POPC   C3A32033   8.164   1.951   7.950
 5662POPC   C4A32034   8.165   1.962   7.650
 5662POPC   C1B32035   8.438   1.857   8.550
 5662POPC   C2B32036   8.386   1.955   8.250
 5662POPC   C3B32037   8.426   1.942   7.950
 5662POPC   C4B32038   8.432   1.861   7.650
 5663POPC   NC332039   0.459  38.447   9.450
 5663POPC   PO432040   0.413  38.442   9.150
 5663POPC   GL132041   0.476  38.449   8.850
 5663POPC   GL232042   0.443  38.619   8.850
 5663POPC   C1A32043   0.446  38.470   8.550
 5663POPC   D2A32044   0.457  38.477   8.250
 5663POPC   C3A32045   0.462  38.471   7.950
 5663POPC   C4A32046   0.450  38.414   7.650
 5663POPC   C1B32047   0.499  38.637   8.550
 5663POPC   C2B32048   0.554  38.674   8.250
 5663POPC   C3B32049   0.552  38.646   7.950
 5663POPC   C4B32050   0.521  38.702   7.650
 5664POPC   NC332051  41.567   4.330   9.450
 5664POPC   PO432052  41.551   4.356   9.150
 5664POPC   GL132053  41.510   4.352   8.850
 5664POPC   GL232054  41.451   4.232   8.850
 5664POPC   C1A32055  41.564   4.309   8.550
 5664POPC   D2A32056  41.527   4.357   8.250
 5664POPC   C3A32057  41.600   4.314   7.950
 5664POPC   C4A32058  41.542   4.309   7.650
 5664POPC   C1B32059  41.414   4.165   8.550
 5664POPC   C2B32060  41.416   4.107   8.250
 5664POPC   C3B32061  41.449   4.105   7.950
 5664POPC   C4B32062  41.397   4.141   7.650
 5665POPC   NC332063  22.169   8.175   9.450
 5665POPC   PO432064  22.154   8.242   9.150
 5665POPC   GL132065  22.176   8.229   8.850
 5665POPC   GL232066  22.067   8.168   8.850
 5665POPC   C1A32067  22.179   8.204   8.550
 5665POPC   D2A32068  22.173   8.171   8.250
 5665POPC   C3A32069  22.141   8.164   7.950
 5665POPC   C4A32070  22.194   8.188   7.650
 5665POPC   C1B32071  21.965   8.059   8.550
 5665POPC   C2B32072  21.958   8.056   8.250
 5665POPC   C3B32073  21.956   8.046   7.950
 5665POPC   C4B32074  21.943   8.002   7.650
 5666POPC   NC332075  10.477  40.776   9.450
 5666POPC   PO432076  10.573  40.828   9.150
 5666POPC   GL132077  10.499  40.829   8.850
 5666POPC   GL232078  10.583  40.867   8.850
 5666POPC   C1A32079  10.564  40.752   8.550
 5666POPC   D2A32080  10.519  40.743   8.250
 5666POPC   C3A32081  10.491  40.772   7.950
 5666POPC   C4A32082  10.522  40.795   7.650
 5666POPC   C1B32083  10.659  40.957   8.550
 5666POPC   C2B32084  10.625  41.028   8.250
 5666POPC   C3B32085  10.669  41.048   7.950
 5666POPC   C4B32086  10.691  41.039   7.650
 5667POPC   NC332087  14.409  15.201   9.450
 5667POPC   PO432088  14.427  15.212   9.150
 5667POPC   GL132089  14.387  15.173   8.850
 5667POPC   GL232090  14.446  15.111   8.850
 5667POPC   C1A32091  14.357  15.145   8.550
 5667POPC   D2A32092  14.416  15.205   8.250
 5667POPC   C3A32093  14.388  15.137   7.950
 5667POPC   C4A32094  14.400  15.173   7.650
 5667POPC   C1B32095  14.547  15.013   8.550
 5667POPC   C2B32096  14.592  14.974   8.250
 5667POPC   C3B32097  14.580  14.991   7.950
 5667POPC   C4B32098  14.567  15.019   7.650
 5668POPC   NC332099  14.435   6.661   9.450
 5668POPC   PO432100  14.379   6.668   9.150
 5668POPC   GL132101  14.440   6.686   8.850
 5668POPC   GL232102  14.505   6.537   8.850
 5668POPC   C1A32103  14.428   6.615   8.550
 5668POPC   D2A32104  14.402   6.643   8.250
 5668POPC   C3A32105  14.401   6.657   7.950
 5668POPC   C4A32106  14.421   6.664   7.650
 5668POPC   C1B32107  14.546   6.405   8.550
 5668POPC   C2B32108  14.525   6.488   8.250
 5668POPC   C3B32109  14.544   6.493   7.950
 5668POPC   C4B32110  14.606   6.409   7.650
 5669POPC   NC332111   9.744  42.343   9.450
 5669POPC   PO432112   9.779  42.340   9.150
 5669POPC   GL132113   9.759  42.297   8.850
 5669POPC   GL232114   9.861  42.429   8.850
 5669POPC   C1A32115   9.795  42.322   8.550
 5669POPC   D2A32116   9.714  42.372   8.250
 5669POPC   C3A32117   9.715  42.319   7.950
 5669POPC   C4A32118   9.745  42.360   7.650
 5669POPC   C1B32119   9.914  42.471   8.550
 5669POPC   C2B32120   9.875  42.549   8.250
 5669POPC   C3B32121   9.941  42.472   7.950
 5669POPC   C4B32122   9.881  42.531   7.650
 5670POPC   NC332123   8.204  22.141   9.450
 5670POPC   PO432124   8.202  22.177   9.150
 5670POPC   GL132125   8.201  22.190   8.850
 5670POPC   GL232126   8.284  22.194   8.850
 5670POPC   C1A32127   8.181  22.187   8.550
 5670POPC   D2A32128   8.229  22.174   8.250
 5670POPC   C3A32129   8.161  22.170   7.950
 5670POPC   C4A32130   8.216  22.175   7.650
 5670POPC   C1B32131   8.380  22.314   8.550
 5670POPC   C2B32132   8.362  22.319   8.250
 5670POPC   C3B32133   8.356  22.289   7.950
 5670POPC   C4B32134   8.402  22.356   7.650
 5671POPC   NC332135  38.453  14.359   9.450
 5671POPC   PO432136  38.502  14.408   9.150
 5671POPC   GL132137  38.417  14.397   8.850
 5671POPC   GL232138  38.356  14.502   8.850
 5671POPC   C1A32139  38.442  14.408   8.550
 5671POPC   D2A32140  38.484  14.446   8.250
 5671POPC   C3A32141  38.455  14.381   7.950
 5671POPC   C4A32142  38.441  14.441   7.650
 5671POPC   C1B32143  38.260  14.554   8.550
 5671POPC   C2B32144  38.294  14.621   8.250
 5671POPC   C3B32145  38.257  14.631   7.950
 5671POPC   C4B32146  38.320  14.617   7.650
 5672POPC   NC332147  25.277  22.178   9.450
 5672POPC   PO432148  25.223  22.118   9.150
 5672POPC   GL132149  25.223  22.123   8.850
 5672POPC   GL232150  25.438  22.141   8.850
 5672POPC   C1A32151  25.237  22.128   8.550
 5672POPC   D2A32152  25.218  22.164   8.250
 5672POPC   C3A32153  25.276  22.150   7.950
 5672POPC   C4A32154  25.232  22.143   7.650
 5672POPC   C1B32155  25.561  22.167   8.550
 5672POPC   C2B32156  25.498  22.153   8.250
 5672POPC   C3B32157  25.557  22.106   7.950
 5672POPC   C4B32158  25.559  22.095   7.650
 5673POPC   NC332159  18.297  19.844   9.450
 5673POPC   PO432160  18.285  19.794   9.150
 5673POPC   GL132161  18.283  19.877   8.850
 5673POPC   GL232162  18.397  19.843   8.850
 5673POPC   C1A32163  18.254  19.808   8.550
 5673POPC   D2A32164  18.258  19.861   8.250
 5673POPC   C3A32165  18.280  19.854   7.950
 5673POPC   C4A32166  18.312  19.837   7.650
 5673POPC   C1B32167  18.514  19.771   8.550
 5673POPC   C2B32168  18.500  19.779   8.250
 5673POPC   C3B32169  18.564  19.716   7.950
 5673POPC   C4B32170  18.551  19.802   7.650
 5674POPC   NC332171  28.330  19.078   9.450
 5674POPC   PO432172  28.348  19.099   9.150
 5674POPC   GL132173  28.409  19.093   8.850
 5674POPC   GL232174  28.382  18.961   8.850
 5674POPC   C1A32175  28.324  19.105   8.550
 5674POPC   D2A32176  28.350  19.062   8.250
 5674POPC   C3A32177  28.415  19.048   7.950
 5674POPC   C4A32178  28.404  19.080   7.650
 5674POPC   C1B32179  28.490  18.831   8.550
 5674POPC   C2B32180  28.461  18.831   8.250
 5674POPC   C3B32181  28.515  18.785   7.950
 5674POPC   C4B32182  28.487  18.835   7.650
 5675POPC   NC332183  26.077  27.596   9.450
 5675POPC   PO432184  26.090  27.552   9.150
 5675POPC   GL132185  26.003  27.585   8.850
 5675POPC   GL232186  26.082  27.742   8.850
 5675POPC   C1A32187  26.082  27.610   8.550
 5675POPC   D2A32188  26.002  27.585   8.250
 5675POPC   C3A32189  26.085  27.561   7.950
 5675POPC   C4A32190  26.064  27.560   7.650
 5675POPC   C1B32191  26.119  27.801   8.550
 5675POPC   C2B32192  26.114  27.799   8.250
 5675POPC   C3B32193  26.077  27.822   7.950
 5675POPC   C4B32194  26.105  27.842   7.650
 5676POPC   NC332195  39.193  43.132   9.450
 5676POPC   PO432196  39.232  43.107   9.150
 5676POPC   GL132197  39.187  43.106   8.850
 5676POPC   GL232198  39.185  42.940   8.850
 5676POPC   C1A32199  39.251  43.115   8.550
 5676POPC   D2A32200  39.273  43.075   8.250
 5676POPC   C3A32201  39.247  43.114   7.950
 5676POPC   C4A32202  39.192  43.098   7.650
 5676POPC   C1B32203  39.191  42.847   8.550
 5676POPC   C2B32204  39.121  42.871   8.250
 5676POPC   C3B32205  39.173  42.844   7.950
 5676POPC   C4B32206  39.202  42.866   7.650
 5677POPC   NC332207  24.440  41.580   9.450
 5677POPC   PO432208  24.442  41.601   9.150
 5677POPC   GL132209  24.508  41.516   8.850
 5677POPC   GL232210  24.592  41.434   8.850
 5677POPC   C1A32211  24.501  41.548   8.550
 5677POPC   D2A32212  24.497  41.538   8.250
 5677POPC   C3A32213  24.489  41.515   7.950
 5677POPC   C4A32214  24.492  41.582   7.650
 5677POPC   C1B32215  24.565  41.292   8.550
 5677POPC   C2B32216  24.586  41.373   8.250
 5677POPC   C3B32217  24.554  41.340   7.950
 5677POPC   C4B32218  24.580  41.356   7.650
 5678POPC   NC332219   9.765  15.162   9.450
 5678POPC   PO432220   9.718  15.144   9.150
 5678POPC   GL132221   9.700  15.206   8.850
 5678POPC   GL232222   9.806  15.336   8.850
 5678POPC   C1A32223   9.722  15.195   8.550
 5678POPC   D2A32224   9.753  15.172   8.250
 5678POPC   C3A32225   9.750  15.164   7.950
 5678POPC   C4A32226   9.791  15.191   7.650
 5678POPC   C1B32227   9.801  15.366   8.550
 5678POPC   C2B32228   9.880  15.446   8.250
 5678POPC   C3B32229   9.813  15.384   7.950
 5678POPC   C4B32230   9.884  15.435   7.650
 5679POPC   NC332231  38.415  43.113   9.450
 5679POPC   PO432232  38.449  43.101   9.150
 5679POPC   GL132233  38.475  43.085   8.850
 5679POPC   GL232234  38.537  43.123   8.850
 5679POPC   C1A32235  38.503  43.117   8.550
 5679POPC   D2A32236  38.454  43.065   8.250
 5679POPC   C3A32237  38.458  43.082   7.950
 5679POPC   C4A32238  38.500  43.156   7.650
 5679POPC   C1B32239  38.643  43.210   8.550
 5679POPC   C2B32240  38.658  43.172   8.250
 5679POPC   C3B32241  38.695  43.232   7.950
 5679POPC   C4B32242  38.731  43.241   7.650
 5680POPC   NC332243  34.583   7.386   9.450
 5680POPC   PO432244  34.588   7.426   9.150
 5680POPC   GL132245  34.608   7.466   8.850
 5680POPC   GL232246  34.670   7.528   8.850
 5680POPC   C1A32247  34.588   7.453   8.550
 5680POPC   D2A32248  34.605   7.396   8.250
 5680POPC   C3A32249  34.626   7.422   7.950
 5680POPC   C4A32250  34.581   7.417   7.650
 5680POPC   C1B32251  34.636   7.695   8.550
 5680POPC   C2B32252  34.634   7.658   8.250
 5680POPC   C3B32253  34.634   7.619   7.950
 5680POPC   C4B32254  34.683   7.606   7.650
 5681POPC   NC332255  36.937  29.911   9.450
 5681POPC   PO432256  36.894  29.918   9.150
 5681POPC   GL132257  36.945  29.889   8.850
 5681POPC   GL232258  36.867  29.765   8.850
 5681POPC   C1A32259  36.944  29.968   8.550
 5681POPC   D2A32260  36.951  29.935   8.250
 5681POPC   C3A32261  36.903  29.886   7.950
 5681POPC   C4A32262  36.863  29.936   7.650
 5681POPC   C1B32263  36.770  29.694   8.550
 5681POPC   C2B32264  36.803  29.716   8.250
 5681POPC   C3B32265  36.786  29.728   7.950
 5681POPC   C4B32266  36.814  29.673   7.650
 5682POPC   NC332267  17.489  39.200   9.450
 5682POPC   PO432268  17.499  39.249   9.150
 5682POPC   GL132269  17.557  39.258   8.850
 5682POPC   GL232270  17.477  39.148   8.850
 5682POPC   C1A32271  17.541  39.265   8.550
 5682POPC   D2A32272  17.553  39.203   8.250
 5682POPC   C3A32273  17.543  39.236   7.950
 5682POPC   C4A32274  17.491  39.269   7.650
 5682POPC   C1B32275  17.432  39.005   8.550
 5682POPC   C2B32276  17.438  38.934   8.250
 5682POPC   C3B32277  17.474  39.014   7.950
 5682POPC   C4B32278  17.468  39.030   7.650
 5683POPC   NC332279  41.512  32.224   9.450
 5683POPC   PO432280  41.542  32.242   9.150
 5683POPC   GL132281  41.569  32.269   8.850
 5683POPC   GL232282  41.650  32.317   8.850
 5683POPC   C1A32283  41.563  32.268   8.550
 5683POPC   D2A32284  41.543  32.209   8.250
 5683POPC   C3A32285  41.544  32.294   7.950
 5683POPC   C4A32286  41.550  32.264   7.650
 5683POPC   C1B32287  41.773  32.342   8.550
 5683POPC   C2B32288  41.828  32.366   8.250
 5683POPC   C3B32289  41.835  32.333   7.950
 5683POPC   C4B32290  41.761  32.402   7.650
 5684POPC   NC332291  35.386  19.841   9.450
 5684POPC   PO432292  35.320  19.830   9.150
 5684POPC   GL132293  35.347  19.872   8.850
 5684POPC   GL232294  35.354  19.951   8.850
 5684POPC   C1A32295  35.319  19.881   8.550
 5684POPC   D2A32296  35.312  19.835   8.250
 5684POPC   C3A32297  35.373  19.810   7.950
 5684POPC   C4A32298  35.341  19.801   7.650
 5684POPC   C1B32299  35.413  20.055   8.550
 5684POPC   C2B32300  35.378  20.045   8.250
 5684POPC   C3B32301  35.445  20.089   7.950
 5684POPC   C4B32302  35.395  20.053   7.650
 5685POPC   NC332303  39.258   2.023   9.450
 5685POPC   PO432304  39.261   2.005   9.150
 5685POPC   GL132305  39.231   2.005   8.850
 5685POPC   GL232306  39.311   2.009   8.850
 5685POPC   C1A32307  39.227   1.944   8.550
 5685POPC   D2A32308  39.194   1.945   8.250
 5685POPC   C3A32309  39.210   1.964   7.950
 5685POPC   C4A32310  39.259   2.012   7.650
 5685POPC   C1B32311  39.439   2.098   8.550
 5685POPC   C2B32312  39.449   2.092   8.250
 5685POPC   C3B32313  39.490   2.020   7.950
 5685POPC   C4B32314  39.423   2.051   7.650
 5686POPC   NC332315  40.811  23.750   9.450
 5686POPC   PO432316  40.737  23.736   9.150
 5686POPC   GL132317  40.758  23.675   8.850
 5686POPC   GL232318  40.917  23.734   8.850
 5686POPC   C1A32319  40.825  23.669   8.550
 5686POPC   D2A32320  40.745  23.757   8.250
 5686POPC   C3A32321  40.749  23.740   7.950
 5686POPC   C4A32322  40.824  23.689   7.650
 5686POPC   C1B32323  41.001  23.651   8.550
 5686POPC   C2B32324  41.035  23.676   8.250
 5686POPC   C3B32325  41.059  23.661   7.950
 5686POPC   C4B32326  41.057  23.623   7.650
 5687POPC   NC332327  33.763  12.874   9.450
 5687POPC   PO432328  33.845  12.803   9.150
 5687POPC   GL132329  33.832  12.849   8.850
 5687POPC   GL232330  33.756  12.718   8.850
 5687POPC   C1A32331  33.751  12.818   8.550
 5687POPC   D2A32332  33.793  12.893   8.250
 5687POPC   C3A32333  33.837  12.832   7.950
 5687POPC   C4A32334  33.768  12.814   7.650
 5687POPC   C1B32335  33.648  12.635   8.550
 5687POPC   C2B32336  33.642  12.652   8.250
 5687POPC   C3B32337  33.643  12.643   7.950
 5687POPC   C4B32338  33.677  12.588   7.650
 5688POPC   NC332339  26.067   3.542   9.450
 5688POPC   PO432340  26.034   3.577   9.150
 5688POPC   GL132341  26.061   3.492   8.850
 5688POPC   GL232342  25.914   3.580   8.850
 5688POPC   C1A32343  26.071   3.559   8.550
 5688POPC   D2A32344  26.059   3.560   8.250
 5688POPC   C3A32345  26.036   3.530   7.950
 5688POPC   C4A32346  26.042   3.560   7.650
 5688POPC   C1B32347  25.793   3.570   8.550
 5688POPC   C2B32348  25.791   3.634   8.250
 5688POPC   C3B32349  25.838   3.557   7.950
 5688POPC   C4B32350  25.767   3.614   7.650
 5689POPC   NC332351  34.578  44.656   9.450
 5689POPC   PO432352  34.619  44.708   9.150
 5689POPC   GL132353  34.612  44.670   8.850
 5689POPC   GL232354  34.483  44.606   8.850
 5689POPC   C1A32355  34.539  44.702   8.550
 5689POPC   D2A32356  34.615  44.703   8.250
 5689POPC   C3A32357  34.607  44.668   7.950
 5689POPC   C4A32358  34.578  44.705   7.650
 5689POPC   C1B32359  34.307  44.598   8.550
 5689POPC   C2B32360  34.333  44.677   8.250
 5689POPC   C3B32361  34.376  44.615   7.950
 5689POPC   C4B32362  34.356  44.610   7.650
 5690POPC   NC332363  21.433  26.061   9.450
 5690POPC   PO432364  21.427  25.997   9.150
 5690POPC   GL132365  21.371  26.067   8.850
 5690POPC   GL232366  21.463  26.052   8.850
 5690POPC   C1A32367  21.357  26.039   8.550
 5690POPC   D2A32368  21.418  26.079   8.250
 5690POPC   C3A32369  21.343  26.033   7.950
 5690POPC   C4A32370  21.339  26.063   7.650
 5690POPC   C1B32371  21.647  26.154   8.550
 5690POPC   C2B32372  21.571  26.173   8.250
 5690POPC   C3B32373  21.616  26.152   7.950
 5690POPC   C4B32374  21.571  26.194   7.650
 5691POPC   NC332375  40.044  19.872   9.450
 5691POPC   PO432376  40.021  19.855   9.150
 5691POPC   GL132377  40.029  19.869   8.850
 5691POPC   GL232378  40.161  19.912   8.850
 5691POPC   C1A32379  40.026  19.826   8.550
 5691POPC   D2A32380  40.010  19.794   8.250
 5691POPC   C3A32381  39.996  19.795   7.950
 5691POPC   C4A32382  40.002  19.812   7.650
 5691POPC   C1B32383  40.191  19.922   8.550
 5691POPC   C2B32384  40.265  19.896   8.250
 5691POPC   C3B32385  40.269  19.981   7.950
 5691POPC   C4B32386  40.241  19.988   7.650
 5692POPC   NC332387  19.035  12.117   9.450
 5692POPC   PO432388  19.079  12.033   9.150
 5692POPC   GL132389  19.041  12.065   8.850
 5692POPC   GL232390  19.137  12.232   8.850
 5692POPC   C1A32391  19.056  12.030   8.550
 5692POPC   D2A32392  19.062  12.124   8.250
 5692POPC   C3A32393  19.074  12.038   7.950
 5692POPC   C4A32394  19.101  12.087   7.650
 5692POPC   C1B32395  19.162  12.269   8.550
 5692POPC   C2B32396  19.182  12.286   8.250
 5692POPC   C3B32397  19.197  12.353   7.950
 5692POPC   C4B32398  19.157  12.337   7.650
 5693POPC   NC332399   7.445  23.720   9.450
 5693POPC   PO432400   7.404  23.751   9.150
 5693POPC   GL132401   7.414  23.728   8.850
 5693POPC   GL232402   7.586  23.682   8.850
 5693POPC   C1A32403   7.424  23.744   8.550
 5693POPC   D2A32404   7.460  23.717   8.250
 5693POPC   C3A32405   7.404  23.664   7.950
 5693POPC   C4A32406   7.445  23.719   7.650
 5693POPC   C1B32407   7.619  23.694   8.550
 5693POPC   C2B32408   7.698  23.618   8.250
 5693POPC   C3B32409   7.658  23.613   7.950
 5693POPC   C4B32410   7.680  23.703   7.650
 5694POPC   NC332411  15.993  35.308   9.450
 5694POPC   PO432412  15.911  35.399   9.150
 5694POPC   GL132413  15.989  35.334   8.850
 5694POPC   GL232414  16.064  35.410   8.850
 5694POPC   C1A32415  15.936  35.308   8.550
 5694POPC   D2A32416  15.945  35.353   8.250
 5694POPC   C3A32417  15.906  35.397   7.950
 5694POPC   C4A32418  15.951  35.385   7.650
 5694POPC   C1B32419  16.102  35.491   8.550
 5694POPC   C2B32420  16.163  35.509   8.250
 5694POPC   C3B32421  16.130  35.572   7.950
 5694POPC   C4B32422  16.073  35.523   7.650
 5695POPC   NC332423  23.668   2.799   9.450
 5695POPC   PO432424  23.718   2.721   9.150
 5695POPC   GL132425  23.695   2.765   8.850
 5695POPC   GL232426  23.682   2.663   8.850
 5695POPC   C1A32427  23.720   2.738   8.550
 5695POPC   D2A32428  23.725   2.769   8.250
 5695POPC   C3A32429  23.683   2.805   7.950
 5695POPC   C4A32430  23.761   2.797   7.650
 5695POPC   C1B32431  23.622   2.499   8.550
 5695POPC   C2B32432  23.593   2.554   8.250
 5695POPC   C3B32433  23.640   2.538   7.950
 5695POPC   C4B32434  23.683   2.576   7.650
 5696POPC   NC332435  18.249  37.656   9.450
 5696POPC   PO432436  18.327  37.693   9.150
 5696POPC   GL132437  18.294  37.714   8.850
 5696POPC   GL232438  18.224  37.566   8.850
 5696POPC   C1A32439  18.319  37.663   8.550
 5696POPC   D2A32440  18.299  37.643   8.250
 5696POPC   C3A32441  18.268  37.665   7.950
 5696POPC   C4A32442  18.302  37.678   7.650
 5696POPC   C1B32443  18.039  37.485   8.550
 5696POPC   C2B32444  18.108  37.530   8.250
 5696POPC   C3B32445  18.041  37.531   7.950
 5696POPC   C4B32446  18.118  37.560   7.650
 5697POPC   NC332447  42.292   2.807   9.450
 5697POPC   PO432448  42.351   2.722   9.150
 5697POPC   GL132449  42.316   2.811   8.850
 5697POPC   GL232450  42.424   2.930   8.850
 5697POPC   C1A32451  42.331   2.798   8.550
 5697POPC   D2A32452  42.285   2.766   8.250
 5697POPC   C3A32453  42.300   2.774   7.950
 5697POPC   C4A32454  42.346   2.725   7.650
 5697POPC   C1B32455  42.446   3.000   8.550
 5697POPC   C2B32456  42.456   2.981   8.250
 5697POPC   C3B32457  42.424   2.994   7.950
 5697POPC   C4B32458  42.407   2.996   7.650
 5698POPC   NC332459  23.683  39.990   9.450
 5698POPC   PO432460  23.745  39.961   9.150
 5698POPC   GL132461  23.666  40.021   8.850
 5698POPC   GL232462  23.646  40.148   8.850
 5698POPC   C1A32463  23.729  39.972   8.550
 5698POPC   D2A32464  23.680  40.026   8.250
 5698POPC   C3A32465  23.723  40.052   7.950
 5698POPC   C4A32466  23.750  40.049   7.650
 5698POPC   C1B32467  23.634  40.276   8.550
 5698POPC   C2B32468  23.688  40.222   8.250
 5698POPC   C3B32469  23.715  40.270   7.950
 5698POPC   C4B32470  23.627  40.212   7.650
 5699POPC   NC332471  12.861  12.864   9.450
 5699POPC   PO432472  12.827  12.814   9.150
 5699POPC   GL132473  12.890  12.806   8.850
 5699POPC   GL232474  12.920  12.753   8.850
 5699POPC   C1A32475  12.892  12.861   8.550
 5699POPC   D2A32476  12.900  12.829   8.250
 5699POPC   C3A32477  12.882  12.816   7.950
 5699POPC   C4A32478  12.806  12.899   7.650
 5699POPC   C1B32479  13.102  12.695   8.550
 5699POPC   C2B32480  13.107  12.717   8.250
 5699POPC   C3B32481  13.033  12.739   7.950
 5699POPC   C4B32482  13.104  12.731   7.650
 5700POPC   NC332483  20.646  15.956   9.450
 5700POPC   PO432484  20.596  15.952   9.150
 5700POPC   GL132485  20.621  15.912   8.850
 5700POPC   GL232486  20.642  16.022   8.850
 5700POPC   C1A32487  20.659  15.927   8.550
 5700POPC   D2A32488  20.590  15.967   8.250
 5700POPC   C3A32489  20.632  15.978   7.950
 5700POPC   C4A32490  20.572  15.999   7.650
 5700POPC   C1B32491  20.756  16.232   8.550
 5700POPC   C2B32492  20.740  16.192   8.250
 5700POPC   C3B32493  20.678  16.186   7.950
 5700POPC   C4B32494  20.718  16.197   7.650
 5701POPC   NC332495  44.700  24.467   9.450
 5701POPC   PO432496  44.689  24.443   9.150
 5701POPC   GL132497  44.681  24.524   8.850
 5701POPC   GL232498  44.752  24.573   8.850
 5701POPC   C1A32499  44.649  24.480   8.550
 5701POPC   D2A32500  44.662  24.501   8.250
 5701POPC   C3A32501  44.704  24.520   7.950
 5701POPC   C4A32502  44.618  24.527   7.650
 5701POPC   C1B32503  44.836  24.611   8.550
 5701POPC   C2B32504  44.857  24.620   8.250
 5701POPC   C3B32505  44.848  24.629   7.950
 5701POPC   C4B32506  44.872  24.641   7.650
 5702POPC   NC332507  21.340  38.414   9.450
 5702POPC   PO432508  21.380  38.504   9.150
 5702POPC   GL132509  21.399  38.470   8.850
 5702POPC   GL232510  21.507  38.327   8.850
 5702POPC   C1A32511  21.388  38.494   8.550
 5702POPC   D2A32512  21.363  38.434   8.250
 5702POPC   C3A32513  21.392  38.442   7.950
 5702POPC   C4A32514  21.357  38.422   7.650
 5702POPC   C1B32515  21.542  38.302   8.550
 5702POPC   C2B32516  21.611  38.250   8.250
 5702POPC   C3B32517  21.619  38.317   7.950
 5702POPC   C4B32518  21.594  38.242   7.650
 5703POPC   NC332519   3.582  40.793   9.450
 5703POPC   PO432520   3.498  40.796   9.150
 5703POPC   GL132521   3.508  40.789   8.850
 5703POPC   GL232522   3.468  40.746   8.850
 5703POPC   C1A32523   3.543  40.740   8.550
 5703POPC   D2A32524   3.537  40.805   8.250
 5703POPC   C3A32525   3.506  40.809   7.950
 5703POPC   C4A32526   3.580  40.826   7.650
 5703POPC   C1B32527   3.264  40.687   8.550
 5703POPC   C2B32528   3.299  40.764   8.250
 5703POPC   C3B32529   3.276  40.750   7.950
 5703POPC   C4B32530   3.252  40.777   7.650
 5704POPC   NC332531   9.004  12.837   9.450
 5704POPC   PO432532   8.982  12.815   9.150
 5704POPC   GL132533   9.005  12.878   8.850
 5704POPC   GL232534   9.050  12.851   8.850
 5704POPC   C1A32535   9.008  12.867   8.550
 5704POPC   D2A32536   8.935  12.808   8.250
 5704POPC   C3A32537   8.988  12.886   7.950
 5704POPC   C4A32538   8.926  12.819   7.650
 5704POPC   C1B32539   9.189  12.896   8.550
 5704POPC   C2B32540   9.211  12.933   8.250
 5704POPC   C3B32541   9.217  12.891   7.950
 5704POPC   C4B32542   9.228  12.968   7.650
 5705POPC   NC332543  29.156  14.393   9.450
 5705POPC   PO432544  29.148  14.446   9.150
 5705POPC   GL132545  29.142  14.398   8.850
 5705POPC   GL232546  29.126  14.505   8.850
 5705POPC   C1A32547  29.194  14.366   8.550
 5705POPC   D2A32548  29.158  14.362   8.250
 5705POPC   C3A32549  29.124  14.407   7.950
 5705POPC   C4A32550  29.182  14.445   7.650
 5705POPC   C1B32551  29.211  14.679   8.550
 5705POPC   C2B32552  29.158  14.620   8.250
 5705POPC   C3B32553  29.126  14.665   7.950
 5705POPC   C4B32554  29.194  14.666   7.650
 5706POPC   NC332555   8.949   5.861   9.450
 5706POPC   PO432556   8.944   5.833   9.150
 5706POPC   GL132557   8.967   5.887   8.850
 5706POPC   GL232558   9.041   5.744   8.850
 5706POPC   C1A32559   8.991   5.876   8.550
 5706POPC   D2A32560   8.973   5.862   8.250
 5706POPC   C3A32561   8.977   5.879   7.950
 5706POPC   C4A32562   8.928   5.883   7.650
 5706POPC   C1B32563   9.142   5.671   8.550
 5706POPC   C2B32564   9.142   5.708   8.250
 5706POPC   C3B32565   9.169   5.733   7.950
 5706POPC   C4B32566   9.175   5.667   7.650
 5707POPC   NC332567  26.009   8.197   9.450
 5707POPC   PO432568  26.076   8.163   9.150
 5707POPC   GL132569  26.004   8.235   8.850
 5707POPC   GL232570  26.132   8.125   8.850
 5707POPC   C1A32571  26.008   8.160   8.550
 5707POPC   D2A32572  26.023   8.147   8.250
 5707POPC   C3A32573  26.020   8.234   7.950
 5707POPC   C4A32574  26.040   8.150   7.650
 5707POPC   C1B32575  26.267   8.037   8.550
 5707POPC   C2B32576  26.298   8.086   8.250
 5707POPC   C3B32577  26.249   8.094   7.950
 5707POPC   C4B32578  26.232   8.121   7.650
 5708POPC   NC332579  43.089   4.287   9.450
 5708POPC   PO432580  43.118   4.339   9.150
 5708POPC   GL132581  43.097   4.291   8.850
 5708POPC   GL232582  43.080   4.179   8.850
 5708POPC   C1A32583  43.089   4.312   8.550
 5708POPC   D2A32584  43.154   4.304   8.250
 5708POPC   C3A32585  43.085   4.322   7.950
 5708POPC   C4A32586  43.109   4.344   7.650
 5708POPC   C1B32587  43.098   4.029   8.550
 5708POPC   C2B32588  43.126   4.027   8.250
 5708POPC   C3B32589  43.139   4.060   7.950
 5708POPC   C4B32590  43.167   4.050   7.650
 5709POPC   NC332591  13.668   2.039   9.450
 5709POPC   PO432592  13.612   1.952   9.150
 5709POPC   GL132593  13.606   2.009   8.850
 5709POPC   GL232594  13.684   1.930   8.850
 5709POPC   C1A32595  13.662   1.954   8.550
 5709POPC   D2A32596  13.590   1.973   8.250
 5709POPC   C3A32597  13.625   1.987   7.950
 5709POPC   C4A32598  13.625   2.034   7.650
 5709POPC   C1B32599  13.828   1.839   8.550
 5709POPC   C2B32600  13.835   1.797   8.250
 5709POPC   C3B32601  13.863   1.843   7.950
 5709POPC   C4B32602  13.797   1.866   7.650
 5710POPC   NC332603  21.360  25.310   9.450
 5710POPC   PO432604  21.417  25.217   9.150
 5710POPC   GL132605  21.389  25.255   8.850
 5710POPC   GL232606  21.490  25.352   8.850
 5710POPC   C1A32607  21.371  25.306   8.550
 5710POPC   D2A32608  21.347  25.229   8.250
 5710POPC   C3A32609  21.391  25.254   7.950
 5710POPC   C4A32610  21.421  25.237   7.650
 5710POPC   C1B32611  21.592  25.328   8.550
 5710POPC   C2B32612  21.570  25.352   8.250
 5710POPC   C3B32613  21.666  25.331   7.950
 5710POPC   C4B32614  21.610  25.398   7.650
 5711POPC   NC332615  29.944   2.753   9.450
 5711POPC   PO432616  29.895   2.744   9.150
 5711POPC   GL132617  29.882   2.786   8.850
 5711POPC   GL232618  29.887   2.866   8.850
 5711POPC   C1A32619  29.915   2.721   8.550
 5711POPC   D2A32620  29.928   2.737   8.250
 5711POPC   C3A32621  29.898   2.788   7.950
 5711POPC   C4A32622  29.962   2.815   7.650
 5711POPC   C1B32623  29.734   2.926   8.550
 5711POPC   C2B32624  29.793   2.942   8.250
 5711POPC   C3B32625  29.769   3.000   7.950
 5711POPC   C4B32626  29.791   2.930   7.650
 5712POPC   NC332627   1.967  36.153   9.450
 5712POPC   PO432628   2.019  36.103   9.150
 5712POPC   GL132629   1.971  36.084   8.850
 5712POPC   GL232630   1.929  36.209   8.850
 5712POPC   C1A32631   1.995  36.081   8.550
 5712POPC   D2A32632   1.992  36.096   8.250
 5712POPC   C3A32633   2.030  36.126   7.950
 5712POPC   C4A32634   1.965  36.167   7.650
 5712POPC   C1B32635   1.918  36.363   8.550
 5712POPC   C2B32636   1.962  36.365   8.250
 5712POPC   C3B32637   1.944  36.409   7.950
 5712POPC   C4B32638   1.897  36.365   7.650
 5713POPC   NC332639   5.058  39.216   9.450
 5713POPC   PO432640   5.053  39.257   9.150
 5713POPC   GL132641   5.088  39.217   8.850
 5713POPC   GL232642   4.993  39.196   8.850
 5713POPC   C1A32643   5.064  39.234   8.550
 5713POPC   D2A32644   5.060  39.256   8.250
 5713POPC   C3A32645   5.069  39.214   7.950
 5713POPC   C4A32646   5.094  39.228   7.650
 5713POPC   C1B32647   4.869  39.282   8.550
 5713POPC   C2B32648   4.845  39.206   8.250
 5713POPC   C3B32649   4.826  39.274   7.950
 5713POPC   C4B32650   4.874  39.196   7.650
 5714POPC   NC332651   9.724  21.417   9.450
 5714POPC   PO432652   9.714  21.394   9.150
 5714POPC   GL132653   9.752  21.378   8.850
 5714POPC   GL232654   9.662  21.324   8.850
 5714POPC   C1A32655   9.737  21.431   8.550
 5714POPC   D2A32656   9.775  21.388   8.250
 5714POPC   C3A32657   9.783  21.433   7.950
 5714POPC   C4A32658   9.700  21.361   7.650
 5714POPC   C1B32659   9.616  21.185   8.550
 5714POPC   C2B32660   9.614  21.204   8.250
 5714POPC   C3B32661   9.552  21.146   7.950
 5714POPC   C4B32662   9.579  21.162   7.650
 5715POPC   NC332663  11.277  26.054   9.450
 5715POPC   PO432664  11.329  26.067   9.150
 5715POPC   GL132665  11.288  26.059   8.850
 5715POPC   GL232666  11.199  26.180   8.850
 5715POPC   C1A32667  11.326  26.050   8.550
 5715POPC   D2A32668  11.315  26.014   8.250
 5715POPC   C3A32669  11.327  26.053   7.950
 5715POPC   C4A32670  11.263  26.043   7.650
 5715POPC   C1B32671  11.168  26.225   8.550
 5715POPC   C2B32672  11.211  26.255   8.250
 5715POPC   C3B32673  11.159  26.286   7.950
 5715POPC   C4B32674  11.228  26.222   7.650
 5716POPC   NC332675  11.299  20.584   9.450
 5716POPC   PO432676  11.285  20.627   9.150
 5716POPC   GL132677  11.327  20.575   8.850
 5716POPC   GL232678  11.238  20.645   8.850
 5716POPC   C1A32679  11.272  20.637   8.550
 5716POPC   D2A32680  11.298  20.645   8.250
 5716POPC   C3A32681  11.316  20.595   7.950
 5716POPC   C4A32682  11.304  20.605   7.650
 5716POPC   C1B32683  11.083  20.799   8.550
 5716POPC   C2B32684  11.150  20.726   8.250
 5716POPC   C3B32685  11.104  20.723   7.950
 5716POPC   C4B32686  11.086  20.743   7.650
 5717POPC   NC332687   3.522  25.216   9.450
 5717POPC   PO432688   3.529  25.293   9.150
 5717POPC   GL132689   3.581  25.311   8.850
 5717POPC   GL232690   3.471  25.192   8.850
 5717POPC   C1A32691   3.583  25.231   8.550
 5717POPC   D2A32692   3.544  25.251   8.250
 5717POPC   C3A32693   3.535  25.311   7.950
 5717POPC   C4A32694   3.579  25.225   7.650
 5717POPC   C1B32695   3.329  25.177   8.550
 5717POPC   C2B32696   3.328  25.225   8.250
 5717POPC   C3B32697   3.300  25.191   7.950
 5717POPC   C4B32698   3.277  25.164   7.650
 5718POPC   NC332699   0.456  31.491   9.450
 5718POPC   PO432700   0.449  31.432   9.150
 5718POPC   GL132701   0.487  31.444   8.850
 5718POPC   GL232702   0.555  31.410   8.850
 5718POPC   C1A32703   0.461  31.427   8.550
 5718POPC   D2A32704   0.479  31.452   8.250
 5718POPC   C3A32705   0.424  31.428   7.950
 5718POPC   C4A32706   0.461  31.520   7.650
 5718POPC   C1B32707   0.684  31.421   8.550
 5718POPC   C2B32708   0.695  31.353   8.250
 5718POPC   C3B32709   0.715  31.377   7.950
 5718POPC   C4B32710   0.657  31.384   7.650
 5719POPC   NC332711  14.418   5.136   9.450
 5719POPC   PO432712  14.387   5.067   9.150
 5719POPC   GL132713  14.397   5.140   8.850
 5719POPC   GL232714  14.310   5.082   8.850
 5719POPC   C1A32715  14.356   5.106   8.550
 5719POPC   D2A32716  14.447   5.126   8.250
 5719POPC   C3A32717  14.445   5.051   7.950
 5719POPC   C4A32718  14.446   5.118   7.650
 5719POPC   C1B32719  14.160   5.040   8.550
 5719POPC   C2B32720  14.113   5.103   8.250
 5719POPC   C3B32721  14.191   5.019   7.950
 5719POPC   C4B32722  14.114   5.019   7.650
 5720POPC   NC332723  36.904   4.289   9.450
 5720POPC   PO432724  36.913   4.344   9.150
 5720POPC   GL132725  36.940   4.347   8.850
 5720POPC   GL232726  37.066   4.356   8.850
 5720POPC   C1A32727  36.868   4.303   8.550
 5720POPC   D2A32728  36.884   4.302   8.250
 5720POPC   C3A32729  36.882   4.354   7.950
 5720POPC   C4A32730  36.915   4.327   7.650
 5720POPC   C1B32731  37.171   4.310   8.550
 5720POPC   C2B32732  37.129   4.381   8.250
 5720POPC   C3B32733  37.128   4.380   7.950
 5720POPC   C4B32734  37.160   4.366   7.650
 5721POPC   NC332735  37.646  19.816   9.450
 5721POPC   PO432736  37.726  19.790   9.150
 5721POPC   GL132737  37.683  19.856   8.850
 5721POPC   GL232738  37.639  19.767   8.850
 5721POPC   C1A32739  37.674  19.873   8.550
 5721POPC   D2A32740  37.716  19.790   8.250
 5721POPC   C3A32741  37.728  19.809   7.950
 5721POPC   C4A32742  37.668  19.855   7.650
 5721POPC   C1B32743  37.514  19.609   8.550
 5721POPC   C2B32744  37.577  19.647   8.250
 5721POPC   C3B32745  37.523  19.575   7.950
 5721POPC   C4B32746  37.568  19.644   7.650
 5722POPC   NC332747  23.720  33.758   9.450
 5722POPC   PO432748  23.715  33.817   9.150
 5722POPC   GL132749  23.698  33.792   8.850
 5722POPC   GL232750  23.637  33.718   8.850
 5722POPC   C1A32751  23.761  33.783   8.550
 5722POPC   D2A32752  23.759  33.790   8.250
 5722POPC   C3A32753  23.699  33.831   7.950
 5722POPC   C4A32754  23.696  33.819   7.650
 5722POPC   C1B32755  23.524  33.661   8.550
 5722POPC   C2B32756  23.491  33.708   8.250
 5722POPC   C3B32757  23.500  33.661   7.950
 5722POPC   C4B32758  23.500  33.616   7.650
 5723POPC   NC332759  32.285  32.246   9.450
 5723POPC   PO432760  32.298  32.253   9.150
 5723POPC   GL132761  32.204  32.274   8.850
 5723POPC   GL232762  32.329  32.167   8.850
 5723POPC   C1A32763  32.276  32.255   8.550
 5723POPC   D2A32764  32.253  32.247   8.250
 5723POPC   C3A32765  32.255  32.290   7.950
 5723POPC   C4A32766  32.270  32.225   7.650
 5723POPC   C1B32767  32.443  32.087   8.550
 5723POPC   C2B32768  32.400  32.040   8.250
 5723POPC   C3B32769  32.439  32.030   7.950
 5723POPC   C4B32770  32.434  32.057   7.650
 5724POPC   NC332771  19.865  22.892   9.450
 5724POPC   PO432772  19.861  22.936   9.150
 5724POPC   GL132773  19.833  22.956   8.850
 5724POPC   GL232774  19.885  22.790   8.850
 5724POPC   C1A32775  19.798  22.961   8.550
 5724POPC   D2A32776  19.867  22.978   8.250
 5724POPC   C3A32777  19.810  22.957   7.950
 5724POPC   C4A32778  19.813  22.960   7.650
 5724POPC   C1B32779  19.918  22.678   8.550
 5724POPC   C2B32780  19.983  22.725   8.250
 5724POPC   C3B32781  19.899  22.720   7.950
 5724POPC   C4B32782  19.973  22.678   7.650
 5725POPC   NC332783  23.760  36.876   9.450
 5725POPC   PO432784  23.711  36.931   9.150
 5725POPC   GL132785  23.719  36.875   8.850
 5725POPC   GL232786  23.845  36.856   8.850
 5725POPC   C1A32787  23.723  36.916   8.550
 5725POPC   D2A32788  23.696  36.899   8.250
 5725POPC   C3A32789  23.704  36.918   7.950
 5725POPC   C4A32790  23.700  36.860   7.650
 5725POPC   C1B32791  23.917  36.847   8.550
 5725POPC   C2B32792  23.962  36.796   8.250
 5725POPC   C3B32793  23.925  36.789   7.950
 5725POPC   C4B32794  23.951  36.823   7.650
 5726POPC   NC332795   5.877  15.905   9.450
 5726POPC   PO432796   5.877  15.915   9.150
 5726POPC   GL132797   5.870  15.942   8.850
 5726POPC   GL232798   5.973  15.946   8.850
 5726POPC   C1A32799   5.871  16.000   8.550
 5726POPC   D2A32800   5.825  15.963   8.250
 5726POPC   C3A32801   5.847  15.940   7.950
 5726POPC   C4A32802   5.841  15.940   7.650
 5726POPC   C1B32803   6.108  15.882   8.550
 5726POPC   C2B32804   6.131  15.939   8.250
 5726POPC   C3B32805   6.128  15.892   7.950
 5726POPC   C4B32806   6.135  15.900   7.650
 5727POPC   NC332807  38.471  34.618   9.450
 5727POPC   PO432808  38.408  34.582   9.150
 5727POPC   GL132809  38.453  34.529   8.850
 5727POPC   GL232810  38.337  34.554   8.850
 5727POPC   C1A32811  38.445  34.619   8.550
 5727POPC   D2A32812  38.499  34.562   8.250
 5727POPC   C3A32813  38.468  34.617   7.950
 5727POPC   C4A32814  38.437  34.536   7.650
 5727POPC   C1B32815  38.231  34.545   8.550
 5727POPC   C2B32816  38.183  34.524   8.250
 5727POPC   C3B32817  38.194  34.583   7.950
 5727POPC   C4B32818  38.183  34.537   7.650
 5728POPC   NC332819  35.397   5.831   9.450
 5728POPC   PO432820  35.314   5.827   9.150
 5728POPC   GL132821  35.374   5.900   8.850
 5728POPC   GL232822  35.282   5.755   8.850
 5728POPC   C1A32823  35.401   5.853   8.550
 5728POPC   D2A32824  35.307   5.911   8.250
 5728POPC   C3A32825  35.383   5.848   7.950
 5728POPC   C4A32826  35.370   5.859   7.650
 5728POPC   C1B32827  35.297   5.663   8.550
 5728POPC   C2B32828  35.218   5.614   8.250
 5728POPC   C3B32829  35.297   5.607   7.950
 5728POPC   C4B32830  35.289   5.597   7.650
 5729POPC   NC332831  11.284  22.158   9.450
 5729POPC   PO432832  11.285  22.154   9.150
 5729POPC   GL132833  11.257  22.201   8.850
 5729POPC   GL232834  11.328  22.003   8.850
 5729POPC   C1A32835  11.329  22.204   8.550
 5729POPC   D2A32836  11.340  22.145   8.250
 5729POPC   C3A32837  11.341  22.142   7.950
 5729POPC   C4A32838  11.335  22.198   7.650
 5729POPC   C1B32839  11.408  21.940   8.550
 5729POPC   C2B32840  11.359  21.882   8.250
 5729POPC   C3B32841  11.379  21.903   7.950
 5729POPC   C4B32842  11.380  21.960   7.650
 5730POPC   NC332843  12.890   5.837   9.450
 5730POPC   PO432844  12.859   5.871   9.150
 5730POPC   GL132845  12.842   5.898   8.850
 5730POPC   GL232846  12.812   5.767   8.850
 5730POPC   C1A32847  12.861   5.859   8.550
 5730POPC   D2A32848  12.894   5.862   8.250
 5730POPC   C3A32849  12.811   5.822   7.950
 5730POPC   C4A32850  12.827   5.901   7.650
 5730POPC   C1B32851  12.884   5.590   8.550
 5730POPC   C2B32852  12.869   5.600   8.250
 5730POPC   C3B32853  12.870   5.669   7.950
 5730POPC   C4B32854  12.835   5.613   7.650
 5731POPC   NC332855  16.752  23.666   9.450
 5731POPC   PO432856  16.692  23.754   9.150
 5731POPC   GL132857  16.713  23.725   8.850
 5731POPC   GL232858  16.624  23.588   8.850
 5731POPC   C1A32859  16.691  23.701   8.550
 5731POPC   D2A32860  16.780  23.751   8.250
 5731POPC   C3A32861  16.740  23.706   7.950
 5731POPC   C4A32862  16.689  23.746   7.650
 5731POPC   C1B32863  16.558  23.558   8.550
 5731POPC   C2B32864  16.596  23.508   8.250
 5731POPC   C3B32865  16.532  23.538   7.950
 5731POPC   C4B32866  16.567  23.506   7.650
 5732POPC   NC332867  26.056   2.745   9.450
 5732POPC   PO432868  26.032   2.749   9.150
 5732POPC   GL132869  26.005   2.770   8.850
 5732POPC   GL232870  25.990   2.882   8.850
 5732POPC   C1A32871  26.004   2.744   8.550
 5732POPC   D2A32872  26.067   2.761   8.250
 5732POPC   C3A32873  26.031   2.805   7.950
 5732POPC   C4A32874  26.073   2.748   7.650
 5732POPC   C1B32875  26.061   2.988   8.550
 5732POPC   C2B32876  26.082   2.985   8.250
 5732POPC   C3B32877  26.003   2.973   7.950
 5732POPC   C4B32878  26.013   2.990   7.650
 5733POPC   NC332879  39.261  33.791   9.450
 5733POPC   PO432880  39.274  33.752   9.150
 5733POPC   GL132881  39.199  33.840   8.850
 5733POPC   GL232882  39.301  33.731   8.850
 5733POPC   C1A32883  39.244  33.819   8.550
 5733POPC   D2A32884  39.248  33.809   8.250
 5733POPC   C3A32885  39.249  33.822   7.950
 5733POPC   C4A32886  39.189  33.830   7.650
 5733POPC   C1B32887  39.416  33.586   8.550
 5733POPC   C2B32888  39.410  33.574   8.250
 5733POPC   C3B32889  39.358  33.606   7.950
 5733POPC   C4B32890  39.370  33.603   7.650
 5734POPC   NC332891   8.172   4.285   9.450
 5734POPC   PO432892   8.240   4.281   9.150
 5734POPC   GL132893   8.168   4.341   8.850
 5734POPC   GL232894   8.112   4.216   8.850
 5734POPC   C1A32895   8.203   4.337   8.550
 5734POPC   D2A32896   8.235   4.338   8.250
 5734POPC   C3A32897   8.152   4.333   7.950
 5734POPC   C4A32898   8.239   4.311   7.650
 5734POPC   C1B32899   8.068   4.145   8.550
 5734POPC   C2B32900   8.022   4.161   8.250
 5734POPC   C3B32901   8.047   4.131   7.950
 5734POPC   C4B32902   8.038   4.101   7.650
 5735POPC   NC332903  36.869  36.080   9.450
 5735POPC   PO432904  36.855  36.082   9.150
 5735POPC   GL132905  36.882  36.170   8.850
 5735POPC   GL232906  36.860  36.260   8.850
 5735POPC   C1A32907  36.890  36.150   8.550
 5735POPC   D2A32908  36.942  36.079   8.250
 5735POPC   C3A32909  36.898  36.135   7.950
 5735POPC   C4A32910  36.861  36.112   7.650
 5735POPC   C1B32911  36.848  36.410   8.550
 5735POPC   C2B32912  36.824  36.325   8.250
 5735POPC   C3B32913  36.872  36.400   7.950
 5735POPC   C4B32914  36.834  36.388   7.650
 5736POPC   NC332915  43.109   1.249   9.450
 5736POPC   PO432916  43.075   1.194   9.150
 5736POPC   GL132917  43.133   1.227   8.850
 5736POPC   GL232918  43.235   1.178   8.850
 5736POPC   C1A32919  43.157   1.173   8.550
 5736POPC   D2A32920  43.088   1.243   8.250
 5736POPC   C3A32921  43.156   1.207   7.950
 5736POPC   C4A32922  43.092   1.228   7.650
 5736POPC   C1B32923  43.319   1.043   8.550
 5736POPC   C2B32924  43.338   1.046   8.250
 5736POPC   C3B32925  43.330   1.092   7.950
 5736POPC   C4B32926  43.313   1.034   7.650
 5737POPC   NC332927   3.493  44.660   9.450
 5737POPC   PO432928   3.517  44.654   9.150
 5737POPC   GL132929   3.532  44.680   8.850
 5737POPC   GL232930   3.435  44.748   8.850
 5737POPC   C1A32931   3.512  44.678   8.550
 5737POPC   D2A32932   3.523  44.663   8.250
 5737POPC   C3A32933   3.584  44.614   7.950
 5737POPC   C4A32934   3.523  44.614   7.650
 5737POPC   C1B32935   3.279  44.797   8.550
 5737POPC   C2B32936   3.271  44.760   8.250
 5737POPC   C3B32937   3.298  44.792   7.950
 5737POPC   C4B32938   3.342  44.747   7.650
 5738POPC   NC332939  36.890  41.519   9.450
 5738POPC   PO432940  36.944  41.510   9.150
 5738POPC   GL132941  36.914  41.529   8.850
 5738POPC   GL232942  37.051  41.636   8.850
 5738POPC   C1A32943  36.882  41.589   8.550
 5738POPC   D2A32944  36.893  41.521   8.250
 5738POPC   C3A32945  36.884  41.515   7.950
 5738POPC   C4A32946  36.945  41.606   7.650
 5738POPC   C1B32947  37.170  41.724   8.550
 5738POPC   C2B32948  37.154  41.720   8.250
 5738POPC   C3B32949  37.166  41.724   7.950
 5738POPC   C4B32950  37.115  41.684   7.650
 5739POPC   NC332951   1.964  25.251   9.450
 5739POPC   PO432952   2.031  25.233   9.150
 5739POPC   GL132953   2.001  25.221   8.850
 5739POPC   GL232954   2.005  25.378   8.850
 5739POPC   C1A32955   2.011  25.311   8.550
 5739POPC   D2A32956   2.025  25.274   8.250
 5739POPC   C3A32957   1.986  25.240   7.950
 5739POPC   C4A32958   2.008  25.287   7.650
 5739POPC   C1B32959   1.893  25.498   8.550
 5739POPC   C2B32960   1.926  25.478   8.250
 5739POPC   C3B32961   1.920  25.551   7.950
 5739POPC   C4B32962   1.967  25.505   7.650
 5740POPC   NC332963   6.641  15.956   9.450
 5740POPC   PO432964   6.689  15.971   9.150
 5740POPC   GL132965   6.647  15.978   8.850
 5740POPC   GL232966   6.543  15.818   8.850
 5740POPC   C1A32967   6.687  15.914   8.550
 5740POPC   D2A32968   6.622  15.987   8.250
 5740POPC   C3A32969   6.622  15.953   7.950
 5740POPC   C4A32970   6.690  15.943   7.650
 5740POPC   C1B32971   6.483  15.711   8.550
 5740POPC   C2B32972   6.467  15.725   8.250
 5740POPC   C3B32973   6.523  15.781   7.950
 5740POPC   C4B32974   6.483  15.708   7.650
 5741POPC   NC332975  20.653  16.750   9.450
 5741POPC   PO432976  20.583  16.687   9.150
 5741POPC   GL132977  20.594  16.707   8.850
 5741POPC   GL232978  20.622  16.567   8.850
 5741POPC   C1A32979  20.639  16.779   8.550
 5741POPC   D2A32980  20.646  16.726   8.250
 5741POPC   C3A32981  20.565  16.726   7.950
 5741POPC   C4A32982  20.613  16.778   7.650
 5741POPC   C1B32983  20.664  16.464   8.550
 5741POPC   C2B32984  20.666  16.438   8.250
 5741POPC   C3B32985  20.692  16.476   7.950
 5741POPC   C4B32986  20.596  16.474   7.650
 5742POPC   NC332987  26.073  39.980   9.450
 5742POPC   PO432988  26.091  39.970   9.150
 5742POPC   GL132989  26.080  40.038   8.850
 5742POPC   GL232990  26.173  40.059   8.850
 5742POPC   C1A32991  26.004  40.005   8.550
 5742POPC   D2A32992  26.071  40.035   8.250
 5742POPC   C3A32993  26.052  39.983   7.950
 5742POPC   C4A32994  26.069  40.043   7.650
 5742POPC   C1B32995  26.292  40.055   8.550
 5742POPC   C2B32996  26.327  40.005   8.250
 5742POPC   C3B32997  26.298  40.042   7.950
 5742POPC   C4B32998  26.327  40.041   7.650
 5743POPC   NC332999  34.531  25.270   9.450
 5743POPC   PO433000  34.591  25.269   9.150
 5743POPC   GL133001  34.540  25.228   8.850
 5743POPC   GL233002  34.437  25.225   8.850
 5743POPC   C1A33003  34.563  25.223   8.550
 5743POPC   D2A33004  34.540  25.276   8.250
 5743POPC   C3A33005  34.549  25.226   7.950
 5743POPC   C4A33006  34.556  25.238   7.650
 5743POPC   C1B33007  34.383  25.156   8.550
 5743POPC   C2B33008  34.334  25.213   8.250
 5743POPC   C3B33009  34.295  25.139   7.950
 5743POPC   C4B33010  34.308  25.209   7.650
 5744POPC   NC333011   4.360  23.701   9.450
 5744POPC   PO433012   4.356  23.675   9.150
 5744POPC   GL133013   4.294  23.759   8.850
 5744POPC   GL233014   4.399  23.795   8.850
 5744POPC   C1A33015   4.307  23.701   8.550
 5744POPC   D2A33016   4.357  23.696   8.250
 5744POPC   C3A33017   4.320  23.670   7.950
 5744POPC   C4A33018   4.280  23.671   7.650
 5744POPC   C1B33019   4.496  23.867   8.550
 5744POPC   C2B33020   4.487  23.852   8.250
 5744POPC   C3B33021   4.528  23.867   7.950
 5744POPC   C4B33022   4.545  23.813   7.650
 5745POPC   NC333023  16.711  35.335   9.450
 5745POPC   PO433024  16.767  35.375   9.150
 5745POPC   GL133025  16.743  35.390   8.850
 5745POPC   GL233026  16.889  35.418   8.850
 5745POPC   C1A33027  16.689  35.315   8.550
 5745POPC   D2A33028  16.741  35.310   8.250
 5745POPC   C3A33029  16.742  35.310   7.950
 5745POPC   C4A33030  16.706  35.350   7.650
 5745POPC   C1B33031  16.944  35.437   8.550
 5745POPC   C2B33032  16.927  35.477   8.250
 5745POPC   C3B33033  16.921  35.481   7.950
 5745POPC   C4B33034  16.940  35.427   7.650
 5746POPC   NC333035  42.361  10.573   9.450
 5746POPC   PO433036  42.319  10.554   9.150
 5746POPC   GL133037  42.309  10.508   8.850
 5746POPC   GL233038  42.378  10.462   8.850
 5746POPC   C1A33039  42.374  10.563   8.550
 5746POPC   D2A33040  42.366  10.549   8.250
 5746POPC   C3A33041  42.350  10.480   7.950
 5746POPC   C4A33042  42.345  10.522   7.650
 5746POPC   C1B33043  42.442  10.356   8.550
 5746POPC   C2B33044  42.477  10.279   8.250
 5746POPC   C3B33045  42.447  10.343   7.950
 5746POPC   C4B33046  42.510  10.308   7.650
 5747POPC   NC333047  12.853  22.947   9.450
 5747POPC   PO433048  12.873  22.896   9.150
 5747POPC   GL133049  12.811  22.934   8.850
 5747POPC   GL233050  12.962  22.786   8.850
 5747POPC   C1A33051  12.891  22.924   8.550
 5747POPC   D2A33052  12.877  22.976   8.250
 5747POPC   C3A33053  12.893  22.959   7.950
 5747POPC   C4A33054  12.893  22.943   7.650
 5747POPC   C1B33055  12.945  22.699   8.550
 5747POPC   C2B33056  12.981  22.716   8.250
 5747POPC   C3B33057  12.953  22.771   7.950
 5747POPC   C4B33058  12.960  22.680   7.650
 5748POPC   NC333059   5.837  11.331   9.450
 5748POPC   PO433060   5.901  11.322   9.150
 5748POPC   GL133061   5.841  11.339   8.850
 5748POPC   GL233062   5.795  11.198   8.850
 5748POPC   C1A33063   5.912  11.305   8.550
 5748POPC   D2A33064   5.821  11.275   8.250
 5748POPC   C3A33065   5.825  11.274   7.950
 5748POPC   C4A33066   5.903  11.272   7.650
 5748POPC   C1B33067   5.680  11.107   8.550
 5748POPC   C2B33068   5.710  11.134   8.250
 5748POPC   C3B33069   5.645  11.178   7.950
 5748POPC   C4B33070   5.649  11.136   7.650
 5749POPC   NC333071  34.528   5.117   9.450
 5749POPC   PO433072  34.574   5.073   9.150
 5749POPC   GL133073  34.619   5.124   8.850
 5749POPC   GL233074  34.470   5.153   8.850
 5749POPC   C1A33075  34.583   5.113   8.550
 5749POPC   D2A33076  34.579   5.092   8.250
 5749POPC   C3A33077  34.600   5.048   7.950
 5749POPC   C4A33078  34.572   5.089   7.650
 5749POPC   C1B33079  34.333   5.141   8.550
 5749POPC   C2B33080  34.357   5.166   8.250
 5749POPC   C3B33081  34.324   5.210   7.950
 5749POPC   C4B33082  34.333   5.143   7.650
 5750POPC   NC333083  14.403  33.054   9.450
 5750POPC   PO433084  14.370  33.051   9.150
 5750POPC   GL133085  14.388  32.982   8.850
 5750POPC   GL233086  14.298  32.880   8.850
 5750POPC   C1A33087  14.429  33.057   8.550
 5750POPC   D2A33088  14.436  33.011   8.250
 5750POPC   C3A33089  14.373  33.035   7.950
 5750POPC   C4A33090  14.405  33.008   7.650
 5750POPC   C1B33091  14.255  32.798   8.550
 5750POPC   C2B33092  14.250  32.843   8.250
 5750POPC   C3B33093  14.303  32.817   7.950
 5750POPC   C4B33094  14.313  32.816   7.650
 5751POPC   NC333095   8.950  16.712   9.450
 5751POPC   PO433096   8.982  16.755   9.150
 5751POPC   GL133097   8.982  16.702   8.850
 5751POPC   GL233098   8.903  16.610   8.850
 5751POPC   C1A33099   8.973  16.753   8.550
 5751POPC   D2A33100   8.941  16.745   8.250
 5751POPC   C3A33101   8.940  16.719   7.950
 5751POPC   C4A33102   8.981  16.753   7.650
 5751POPC   C1B33103   8.809  16.536   8.550
 5751POPC   C2B33104   8.839  16.518   8.250
 5751POPC   C3B33105   8.879  16.524   7.950
 5751POPC   C4B33106   8.900  16.527   7.650
 5752POPC   NC333107  37.709  23.699   9.450
 5752POPC   PO433108  37.665  23.716   9.150
 5752POPC   GL133109  37.642  23.716   8.850
 5752POPC   GL233110  37.718  23.652   8.850
 5752POPC   C1A33111  37.713  23.740   8.550
 5752POPC   D2A33112  37.697  23.678   8.250
 5752POPC   C3A33113  37.701  23.761   7.950
 5752POPC   C4A33114  37.673  23.681   7.650
 5752POPC   C1B33115  37.827  23.550   8.550
 5752POPC   C2B33116  37.804  23.502   8.250
 5752POPC   C3B33117  37.857  23.499   7.950
 5752POPC   C4B33118  37.845  23.531   7.650
 5753POPC   NC333119  29.103  19.035   9.450
 5753POPC   PO433120  29.169  19.026   9.150
 5753POPC   GL133121  29.157  19.026   8.850
 5753POPC   GL233122  29.256  18.962   8.850
 5753POPC   C1A33123  29.143  19.074   8.550
 5753POPC   D2A33124  29.126  19.066   8.250
 5753POPC   C3A33125  29.133  19.072   7.950
 5753POPC   C4A33126  29.107  19.016   7.650
 5753POPC   C1B33127  29.308  18.795   8.550
 5753POPC   C2B33128  29.313  18.841   8.250
 5753POPC   C3B33129  29.243  18.817   7.950
 5753POPC   C4B33130  29.253  18.830   7.650
 5754POPC   NC333131  27.638  43.863   9.450
 5754POPC   PO433132  27.550  43.920   9.150
 5754POPC   GL133133  27.576  43.925   8.850
 5754POPC   GL233134  27.616  44.051   8.850
 5754POPC   C1A33135  27.600  43.916   8.550
 5754POPC   D2A33136  27.589  43.873   8.250
 5754POPC   C3A33137  27.576  43.898   7.950
 5754POPC   C4A33138  27.640  43.879   7.650
 5754POPC   C1B33139  27.637  44.162   8.550
 5754POPC   C2B33140  27.643  44.154   8.250
 5754POPC   C3B33141  27.672  44.096   7.950
 5754POPC   C4B33142  27.679  44.081   7.650
 5755POPC   NC333143  40.769  18.249   9.450
 5755POPC   PO433144  40.758  18.243   9.150
 5755POPC   GL133145  40.777  18.252   8.850
 5755POPC   GL233146  40.821  18.357   8.850
 5755POPC   C1A33147  40.748  18.274   8.550
 5755POPC   D2A33148  40.827  18.306   8.250
 5755POPC   C3A33149  40.792  18.298   7.950
 5755POPC   C4A33150  40.791  18.272   7.650
 5755POPC   C1B33151  40.905  18.526   8.550
 5755POPC   C2B33152  40.935  18.496   8.250
 5755POPC   C3B33153  40.975  18.487   7.950
 5755POPC   C4B33154  40.879  18.447   7.650
 5756POPC   NC333155  36.884  22.890   9.450
 5756POPC   PO433156  36.932  22.932   9.150
 5756POPC   GL133157  36.937  22.906   8.850
 5756POPC   GL233158  36.793  22.903   8.850
 5756POPC   C1A33159  36.934  22.973   8.550
 5756POPC   D2A33160  36.859  22.921   8.250
 5756POPC   C3A33161  36.856  22.922   7.950
 5756POPC   C4A33162  36.875  22.978   7.650
 5756POPC   C1B33163  36.679  22.826   8.550
 5756POPC   C2B33164  36.620  22.819   8.250
 5756POPC   C3B33165  36.652  22.848   7.950
 5756POPC   C4B33166  36.647  22.869   7.650
 5757POPC   NC333167  40.817   0.402   9.450
 5757POPC   PO433168  40.734   0.429   9.150
 5757POPC   GL133169  40.749   0.475   8.850
 5757POPC   GL233170  40.651   0.368   8.850
 5757POPC   C1A33171  40.803   0.487   8.550
 5757POPC   D2A33172  40.735   0.394   8.250
 5757POPC   C3A33173  40.805   0.487   7.950
 5757POPC   C4A33174  40.783   0.485   7.650
 5757POPC   C1B33175  40.573   0.318   8.550
 5757POPC   C2B33176  40.589   0.389   8.250
 5757POPC   C3B33177  40.549   0.398   7.950
 5757POPC   C4B33178  40.551   0.331   7.650
 5758POPC   NC333179   6.659   0.446   9.450
 5758POPC   PO433180   6.651   0.405   9.150
 5758POPC   GL133181   6.679   0.436   8.850
 5758POPC   GL233182   6.710   0.359   8.850
 5758POPC   C1A33183   6.677   0.464   8.550
 5758POPC   D2A33184   6.633   0.427   8.250
 5758POPC   C3A33185   6.625   0.407   7.950
 5758POPC   C4A33186   6.595   0.480   7.650
 5758POPC   C1B33187   6.706   0.208   8.550
 5758POPC   C2B33188   6.675   0.197   8.250
 5758POPC   C3B33189   6.702   0.219   7.950
 5758POPC   C4B33190   6.680   0.167   7.650
 5759POPC   NC333191  28.365  16.770   9.450
 5759POPC   PO433192  28.401  16.775   9.150
 5759POPC   GL133193  28.381  16.707   8.850
 5759POPC   GL233194  28.330  16.893   8.850
 5759POPC   C1A33195  28.332  16.781   8.550
 5759POPC   D2A33196  28.380  16.698   8.250
 5759POPC   C3A33197  28.402  16.682   7.950
 5759POPC   C4A33198  28.373  16.700   7.650
 5759POPC   C1B33199  28.329  17.006   8.550
 5759POPC   C2B33200  28.401  17.026   8.250
 5759POPC   C3B33201  28.322  16.980   7.950
 5759POPC   C4B33202  28.372  16.980   7.650
 5760POPC   NC333203   9.021  10.501   9.450
 5760POPC   PO433204   8.953  10.538   9.150
 5760POPC   GL133205   8.963  10.502   8.850
 5760POPC   GL233206   8.824  10.554   8.850
 5760POPC   C1A33207   8.973  10.538   8.550
 5760POPC   D2A33208   8.949  10.537   8.250
 5760POPC   C3A33209   8.977  10.559   7.950
 5760POPC   C4A33210   9.012  10.563   7.650
 5760POPC   C1B33211   8.768  10.530   8.550
 5760POPC   C2B33212   8.714  10.479   8.250
 5760POPC   C3B33213   8.697  10.490   7.950
 5760POPC   C4B33214   8.686  10.565   7.650
 5761POPC   NC333215  17.508  13.613   9.450
 5761POPC   PO433216  17.553  13.595   9.150
 5761POPC   GL133217  17.471  13.578   8.850
 5761POPC   GL233218  17.662  13.644   8.850
 5761POPC   C1A33219  17.505  13.617   8.550
 5761POPC   D2A33220  17.468  13.645   8.250
 5761POPC   C3A33221  17.494  13.633   7.950
 5761POPC   C4A33222  17.518  13.631   7.650
 5761POPC   C1B33223  17.743  13.714   8.550
 5761POPC   C2B33224  17.743  13.705   8.250
 5761POPC   C3B33225  17.756  13.709   7.950
 5761POPC   C4B33226  17.763  13.713   7.650
 5762POPC   NC333227   2.806   5.109   9.450
 5762POPC   PO433228   2.797   5.103   9.150
 5762POPC   GL133229   2.747   5.084   8.850
 5762POPC   GL233230   2.921   5.085   8.850
 5762POPC   C1A33231   2.793   5.111   8.550
 5762POPC   D2A33232   2.737   5.060   8.250
 5762POPC   C3A33233   2.729   5.114   7.950
 5762POPC   C4A33234   2.761   5.107   7.650
 5762POPC   C1B33235   2.998   5.016   8.550
 5762POPC   C2B33236   2.969   5.056   8.250
 5762POPC   C3B33237   2.961   5.025   7.950
 5762POPC   C4B33238   3.012   4.987   7.650
 5763POPC   NC333239  20.639  24.533   9.450
 5763POPC   PO433240  20.610  24.469   9.150
 5763POPC   GL133241  20.598  24.501   8.850
 5763POPC   GL233242  20.482  24.496   8.850
 5763POPC   C1A33243  20.570  24.491   8.550
 5763POPC   D2A33244  20.610  24.535   8.250
 5763POPC   C3A33245  20.598  24.480   7.950
 5763POPC   C4A33246  20.570  24.507   7.650
 5763POPC   C1B33247  20.420  24.546   8.550
 5763POPC   C2B33248  20.373  24.579   8.250
 5763POPC   C3B33249  20.360  24.583   7.950
 5763POPC   C4B33250  20.346  24.562   7.650
 5764POPC   NC333251  40.018  27.583   9.450
 5764POPC   PO433252  39.984  27.581   9.150
 5764POPC   GL133253  39.978  27.627   8.850
 5764POPC   GL233254  40.080  27.699   8.850
 5764POPC   C1A33255  40.042  27.586   8.550
 5764POPC   D2A33256  40.047  27.546   8.250
 5764POPC   C3A33257  39.983  27.599   7.950
 5764POPC   C4A33258  40.000  27.552   7.650
 5764POPC   C1B33259  40.189  27.750   8.550
 5764POPC   C2B33260  40.125  27.833   8.250
 5764POPC   C3B33261  40.182  27.758   7.950
 5764POPC   C4B33262  40.137  27.785   7.650
 5765POPC   NC333263  36.104  33.820   9.450
 5765POPC   PO433264  36.137  33.840   9.150
 5765POPC   GL133265  36.106  33.751   8.850
 5765POPC   GL233266  36.152  33.943   8.850
 5765POPC   C1A33267  36.112  33.847   8.550
 5765POPC   D2A33268  36.158  33.788   8.250
 5765POPC   C3A33269  36.087  33.796   7.950
 5765POPC   C4A33270  36.097  33.823   7.650
 5765POPC   C1B33271  36.206  34.015   8.550
 5765POPC   C2B33272  36.248  34.016   8.250
 5765POPC   C3B33273  36.238  33.985   7.950
 5765POPC   C4B33274  36.189  34.020   7.650
 5766POPC   NC333275  21.351   1.976   9.450
 5766POPC   PO433276  21.404   1.996   9.150
 5766POPC   GL133277  21.402   2.020   8.850
 5766POPC   GL233278  21.240   2.070   8.850
 5766POPC   C1A33279  21.340   1.951   8.550
 5766POPC   D2A33280  21.339   1.951   8.250
 5766POPC   C3A33281  21.368   1.979   7.950
 5766POPC   C4A33282  21.391   1.974   7.650
 5766POPC   C1B33283  21.155   2.145   8.550
 5766POPC   C2B33284  21.198   2.107   8.250
 5766POPC   C3B33285  21.143   2.106   7.950
 5766POPC   C4B33286  21.163   2.088   7.650
 5767POPC   NC333287  11.348  19.873   9.450
 5767POPC   PO433288  11.250  19.830   9.150
 5767POPC   GL133289  11.324  19.875   8.850
 5767POPC   GL233290  11.292  19.991   8.850
 5767POPC   C1A33291  11.333  19.820   8.550
 5767POPC   D2A33292  11.314  19.791   8.250
 5767POPC   C3A33293  11.336  19.793   7.950
 5767POPC   C4A33294  11.343  19.876   7.650
 5767POPC   C1B33295  11.279  20.132   8.550
 5767POPC   C2B33296  11.317  20.054   8.250
 5767POPC   C3B33297  11.290  20.097   7.950
 5767POPC   C4B33298  11.305  20.094   7.650
 5768POPC   NC333299  33.043  20.648   9.450
 5768POPC   PO433300  33.059  20.631   9.150
 5768POPC   GL133301  33.031  20.569   8.850
 5768POPC   GL233302  33.110  20.644   8.850
 5768POPC   C1A33303  33.026  20.624   8.550
 5768POPC   D2A33304  33.005  20.611   8.250
 5768POPC   C3A33305  32.999  20.645   7.950
 5768POPC   C4A33306  33.066  20.617   7.650
 5768POPC   C1B33307  33.265  20.574   8.550
 5768POPC   C2B33308  33.233  20.634   8.250
 5768POPC   C3B33309  33.261  20.550   7.950
 5768POPC   C4B33310  33.226  20.616   7.650
 5769POPC   NC333311   8.200  19.814   9.450
 5769POPC   PO433312   8.167  19.851   9.150
 5769POPC   GL133313   8.203  19.872   8.850
 5769POPC   GL233314   8.295  19.795   8.850
 5769POPC   C1A33315   8.223  19.881   8.550
 5769POPC   D2A33316   8.149  19.861   8.250
 5769POPC   C3A33317   8.216  19.879   7.950
 5769POPC   C4A33318   8.228  19.837   7.650
 5769POPC   C1B33319   8.410  19.769   8.550
 5769POPC   C2B33320   8.427  19.778   8.250
 5769POPC   C3B33321   8.428  19.802   7.950
 5769POPC   C4B33322   8.448  19.746   7.650
 5770POPC   NC333323  37.644  42.296   9.450
 5770POPC   PO433324  37.637  42.378   9.150
 5770POPC   GL133325  37.723  42.295   8.850
 5770POPC   GL233326  37.658  42.231   8.850
 5770POPC   C1A33327  37.635  42.371   8.550
 5770POPC   D2A33328  37.698  42.322   8.250
 5770POPC   C3A33329  37.700  42.338   7.950
 5770POPC   C4A33330  37.713  42.352   7.650
 5770POPC   C1B33331  37.511  42.114   8.550
 5770POPC   C2B33332  37.522  42.102   8.250
 5770POPC   C3B33333  37.536  42.118   7.950
 5770POPC   C4B33334  37.549  42.098   7.650
 5771POPC   NC333335   5.063  12.837   9.450
 5771POPC   PO433336   5.084  12.886   9.150
 5771POPC   GL133337   5.129  12.850   8.850
 5771POPC   GL233338   4.980  12.762   8.850
 5771POPC   C1A33339   5.107  12.836   8.550
 5771POPC   D2A33340   5.134  12.830   8.250
 5771POPC   C3A33341   5.074  12.890   7.950
 5771POPC   C4A33342   5.105  12.842   7.650
 5771POPC   C1B33343   4.930  12.698   8.550
 5771POPC   C2B33344   4.927  12.680   8.250
 5771POPC   C3B33345   4.918  12.688   7.950
 5771POPC   C4B33346   4.973  12.686   7.650
 5772POPC   NC333347   2.789  38.452   9.450
 5772POPC   PO433348   2.742  38.446   9.150
 5772POPC   GL133349   2.780  38.483   8.850
 5772POPC   GL233350   2.815  38.579   8.850
 5772POPC   C1A33351   2.783  38.504   8.550
 5772POPC   D2A33352   2.802  38.489   8.250
 5772POPC   C3A33353   2.799  38.441   7.950
 5772POPC   C4A33354   2.772  38.494   7.650
 5772POPC   C1B33355   2.768  38.740   8.550
 5772POPC   C2B33356   2.796  38.683   8.250
 5772POPC   C3B33357   2.780  38.715   7.950
 5772POPC   C4B33358   2.771  38.725   7.650
 5773POPC   NC333359  12.837   8.163   9.450
 5773POPC   PO433360  12.852   8.179   9.150
 5773POPC   GL133361  12.861   8.222   8.850
 5773POPC   GL233362  12.771   8.228   8.850
 5773POPC   C1A33363  12.889   8.188   8.550
 5773POPC   D2A33364  12.887   8.225   8.250
 5773POPC   C3A33365  12.862   8.194   7.950
 5773POPC   C4A33366  12.847   8.179   7.650
 5773POPC   C1B33367  12.663   8.275   8.550
 5773POPC   C2B33368  12.631   8.317   8.250
 5773POPC   C3B33369  12.575   8.306   7.950
 5773POPC   C4B33370  12.586   8.250   7.650
 5774POPC   NC333371   5.904   0.409   9.450
 5774POPC   PO433372   5.836   0.434   9.150
 5774POPC   GL133373   5.868   0.453   8.850
 5774POPC   GL233374   6.035   0.482   8.850
 5774POPC   C1A33375   5.859   0.397   8.550
 5774POPC   D2A33376   5.877   0.486   8.250
 5774POPC   C3A33377   5.836   0.486   7.950
 5774POPC   C4A33378   5.826   0.412   7.650
 5774POPC   C1B33379   6.153   0.515   8.550
 5774POPC   C2B33380   6.075   0.442   8.250
 5774POPC   C3B33381   6.115   0.428   7.950
 5774POPC   C4B33382   6.088   0.441   7.650
 5775POPC   NC333383   5.117   8.213   9.450
 5775POPC   PO433384   5.133   8.183   9.150
 5775POPC   GL133385   5.046   8.192   8.850
 5775POPC   GL233386   5.030   8.117   8.850
 5775POPC   C1A33387   5.073   8.246   8.550
 5775POPC   D2A33388   5.047   8.208   8.250
 5775POPC   C3A33389   5.091   8.151   7.950
 5775POPC   C4A33390   5.052   8.221   7.650
 5775POPC   C1B33391   4.935   8.020   8.550
 5775POPC   C2B33392   4.933   8.056   8.250
 5775POPC   C3B33393   4.897   8.052   7.950
 5775POPC   C4B33394   4.943   8.088   7.650
 5776POPC   NC333395  33.060  41.602   9.450
 5776POPC   PO433396  32.999  41.518   9.150
 5776POPC   GL133397  33.034  41.554   8.850
 5776POPC   GL233398  32.871  41.581   8.850
 5776POPC   C1A33399  33.071  41.608   8.550
 5776POPC   D2A33400  32.996  41.516   8.250
 5776POPC   C3A33401  33.059  41.533   7.950
 5776POPC   C4A33402  32.994  41.584   7.650
 5776POPC   C1B33403  32.767  41.699   8.550
 5776POPC   C2B33404  32.848  41.701   8.250
 5776POPC   C3B33405  32.826  41.698   7.950
 5776POPC   C4B33406  32.815  41.696   7.650
 5777POPC   NC333407  39.201  40.774   9.450
 5777POPC   PO433408  39.202  40.793   9.150
 5777POPC   GL133409  39.214  40.764   8.850
 5777POPC   GL233410  39.140  40.739   8.850
 5777POPC   C1A33411  39.249  40.777   8.550
 5777POPC   D2A33412  39.191  40.809   8.250
 5777POPC   C3A33413  39.232  40.806   7.950
 5777POPC   C4A33414  39.266  40.741   7.650
 5777POPC   C1B33415  39.059  40.679   8.550
 5777POPC   C2B33416  39.024  40.677   8.250
 5777POPC   C3B33417  39.053  40.654   7.950
 5777POPC   C4B33418  39.053  40.667   7.650
 5778POPC   NC333419  33.021  27.611   9.450
 5778POPC   PO433420  33.069  27.557   9.150
 5778POPC   GL133421  33.011  27.558   8.850
 5778POPC   GL233422  32.863  27.645   8.850
 5778POPC   C1A33423  32.978  27.568   8.550
 5778POPC   D2A33424  33.009  27.614   8.250
 5778POPC   C3A33425  33.039  27.584   7.950
 5778POPC   C4A33426  32.998  27.602   7.650
 5778POPC   C1B33427  32.724  27.636   8.550
 5778POPC   C2B33428  32.748  27.601   8.250
 5778POPC   C3B33429  32.760  27.649   7.950
 5778POPC   C4B33430  32.727  27.624   7.650
 5779POPC   NC333431   3.540  39.215   9.450
 5779POPC   PO433432   3.590  39.223   9.150
 5779POPC   GL133433   3.527  39.200   8.850
 5779POPC   GL233434   3.644  39.298   8.850
 5779POPC   C1A33435   3.525  39.256   8.550
 5779POPC   D2A33436   3.548  39.186   8.250
 5779POPC   C3A33437   3.591  39.229   7.950
 5779POPC   C4A33438   3.540  39.270   7.650
 5779POPC   C1B33439   3.793  39.325   8.550
 5779POPC   C2B33440   3.753  39.317   8.250
 5779POPC   C3B33441   3.807  39.285   7.950
 5779POPC   C4B33442   3.834  39.245   7.650
 5780POPC   NC333443   8.983   1.198   9.450
 5780POPC   PO433444   8.940   1.231   9.150
 5780POPC   GL133445   9.008   1.200   8.850
 5780POPC   GL233446   9.000   1.349   8.850
 5780POPC   C1A33447   8.986   1.197   8.550
 5780POPC   D2A33448   8.999   1.166   8.250
 5780POPC   C3A33449   8.929   1.227   7.950
 5780POPC   C4A33450   9.011   1.203   7.650
 5780POPC   C1B33451   9.038   1.445   8.550
 5780POPC   C2B33452   8.987   1.423   8.250
 5780POPC   C3B33453   9.012   1.477   7.950
 5780POPC   C4B33454   9.023   1.489   7.650
 5781POPC   NC333455  43.837   6.689   9.450
 5781POPC   PO433456  43.840   6.622   9.150
 5781POPC   GL133457  43.893   6.664   8.850
 5781POPC   GL233458  43.789   6.711   8.850
 5781POPC   C1A33459  43.848   6.609   8.550
 5781POPC   D2A33460  43.861   6.625   8.250
 5781POPC   C3A33461  43.906   6.616   7.950
 5781POPC   C4A33462  43.892   6.661   7.650
 5781POPC   C1B33463  43.664   6.781   8.550
 5781POPC   C2B33464  43.632   6.769   8.250
 5781POPC   C3B33465  43.634   6.793   7.950
 5781POPC   C4B33466  43.717   6.792   7.650
 5782POPC   NC333467  42.318  33.008   9.450
 5782POPC   PO433468  42.329  33.054   9.150
 5782POPC   GL133469  42.297  33.013   8.850
 5782POPC   GL233470  42.428  33.160   8.850
 5782POPC   C1A33471  42.286  33.052   8.550
 5782POPC   D2A33472  42.288  33.057   8.250
 5782POPC   C3A33473  42.319  33.013   7.950
 5782POPC   C4A33474  42.376  33.035   7.650
 5782POPC   C1B33475  42.381  33.279   8.550
 5782POPC   C2B33476  42.464  33.251   8.250
 5782POPC   C3B33477  42.390  33.266   7.950
 5782POPC   C4B33478  42.416  33.281   7.650
 5783POPC   NC333479   2.005   4.317   9.450
 5783POPC   PO433480   1.983   4.344   9.150
 5783POPC   GL133481   1.957   4.311   8.850
 5783POPC   GL233482   2.150   4.371   8.850
 5783POPC   C1A33483   1.989   4.289   8.550
 5783POPC   D2A33484   1.994   4.280   8.250
 5783POPC   C3A33485   2.020   4.350   7.950
 5783POPC   C4A33486   1.954   4.307   7.650
 5783POPC   C1B33487   2.189   4.407   8.550
 5783POPC   C2B33488   2.190   4.383   8.250
 5783POPC   C3B33489   2.199   4.420   7.950
 5783POPC   C4B33490   2.259   4.340   7.650
 5784POPC   NC333491  11.327  10.483   9.450
 5784POPC   PO433492  11.287  10.539   9.150
 5784POPC   GL133493  11.329  10.564   8.850
 5784POPC   GL233494  11.354  10.410   8.850
 5784POPC   C1A33495  11.276  10.547   8.550
 5784POPC   D2A33496  11.326  10.538   8.250
 5784POPC   C3A33497  11.303  10.563   7.950
 5784POPC   C4A33498  11.270  10.547   7.650
 5784POPC   C1B33499  11.483  10.403   8.550
 5784POPC   C2B33500  11.535  10.412   8.250
 5784POPC   C3B33501  11.494  10.319   7.950
 5784POPC   C4B33502  11.480  10.343   7.650
 5785POPC   NC333503  33.842  35.380   9.450
 5785POPC   PO433504  33.755  35.337   9.150
 5785POPC   GL133505  33.756  35.306   8.850
 5785POPC   GL233506  33.820  35.436   8.850
 5785POPC   C1A33507  33.840  35.371   8.550
 5785POPC   D2A33508  33.821  35.385   8.250
 5785POPC   C3A33509  33.769  35.311   7.950
 5785POPC   C4A33510  33.789  35.389   7.650
 5785POPC   C1B33511  33.851  35.566   8.550
 5785POPC   C2B33512  33.898  35.562   8.250
 5785POPC   C3B33513  33.888  35.549   7.950
 5785POPC   C4B33514  33.919  35.620   7.650
 5786POPC   NC333515  20.601  33.774   9.450
 5786POPC   PO433516  20.608  33.847   9.150
 5786POPC   GL133517  20.604  33.807   8.850
 5786POPC   GL233518  20.776  33.771   8.850
 5786POPC   C1A33519  20.579  33.806   8.550
 5786POPC   D2A33520  20.630  33.828   8.250
 5786POPC   C3A33521  20.594  33.841   7.950
 5786POPC   C4A33522  20.597  33.843   7.650
 5786POPC   C1B33523  20.867  33.759   8.550
 5786POPC   C2B33524  20.873  33.778   8.250
 5786POPC   C3B33525  20.872  33.755   7.950
 5786POPC   C4B33526  20.833  33.715   7.650
 5787POPC   NC333527   3.558  36.876   9.450
 5787POPC   PO433528   3.515  36.874   9.150
 5787POPC   GL133529   3.561  36.924   8.850
 5787POPC   GL233530   3.530  37.072   8.850
 5787POPC   C1A33531   3.556  36.947   8.550
 5787POPC   D2A33532   3.525  36.939   8.250
 5787POPC   C3A33533   3.492  36.870   7.950
 5787POPC   C4A33534   3.513  36.866   7.650
 5787POPC   C1B33535   3.490  37.186   8.550
 5787POPC   C2B33536   3.516  37.124   8.250
 5787POPC   C3B33537   3.503  37.193   7.950
 5787POPC   C4B33538   3.493  37.113   7.650
 5788POPC   NC333539   0.456  14.441   9.450
 5788POPC   PO433540   0.415  14.380   9.150
 5788POPC   GL133541   0.441  14.385   8.850
 5788POPC   GL233542   0.558  14.382   8.850
 5788POPC   C1A33543   0.479  14.368   8.550
 5788POPC   D2A33544   0.485  14.448   8.250
 5788POPC   C3A33545   0.393  14.375   7.950
 5788POPC   C4A33546   0.428  14.370   7.650
 5788POPC   C1B33547   0.648  14.362   8.550
 5788POPC   C2B33548   0.646  14.306   8.250
 5788POPC   C3B33549   0.644  14.292   7.950
 5788POPC   C4B33550   0.706  14.308   7.650
 5789POPC   NC333551  25.261  40.760   9.450
 5789POPC   PO433552  25.244  40.737   9.150
 5789POPC   GL133553  25.310  40.752   8.850
 5789POPC   GL233554  25.410  40.809   8.850
 5789POPC   C1A33555  25.275  40.773   8.550
 5789POPC   D2A33556  25.311  40.733   8.250
 5789POPC   C3A33557  25.312  40.814   7.950
 5789POPC   C4A33558  25.251  40.747   7.650
 5789POPC   C1B33559  25.513  40.759   8.550
 5789POPC   C2B33560  25.563  40.744   8.250
 5789POPC   C3B33561  25.562  40.806   7.950
 5789POPC   C4B33562  25.516  40.771   7.650
 5790POPC   NC333563  39.260   5.092   9.450
 5790POPC   PO433564  39.210   5.095   9.150
 5790POPC   GL133565  39.265   5.111   8.850
 5790POPC   GL233566  39.311   5.009   8.850
 5790POPC   C1A33567  39.250   5.123   8.550
 5790POPC   D2A33568  39.225   5.117   8.250
 5790POPC   C3A33569  39.229   5.117   7.950
 5790POPC   C4A33570  39.190   5.052   7.650
 5790POPC   C1B33571  39.489   5.052   8.550
 5790POPC   C2B33572  39.446   4.966   8.250
 5790POPC   C3B33573  39.461   4.997   7.950
 5790POPC   C4B33574  39.501   5.039   7.650
 5791POPC   NC333575  32.199  11.311   9.450
 5791POPC   PO433576  32.285  11.256   9.150
 5791POPC   GL133577  32.222  11.336   8.850
 5791POPC   GL233578  32.251  11.227   8.850
 5791POPC   C1A33579  32.250  11.255   8.550
 5791POPC   D2A33580  32.275  11.286   8.250
 5791POPC   C3A33581  32.251  11.265   7.950
 5791POPC   C4A33582  32.207  11.318   7.650
 5791POPC   C1B33583  32.210  11.078   8.550
 5791POPC   C2B33584  32.204  11.086   8.250
 5791POPC   C3B33585  32.150  11.093   7.950
 5791POPC   C4B33586  32.216  11.024   7.650
 5792POPC   NC333587  43.079  32.978   9.450
 5792POPC   PO433588  43.066  32.978   9.150
 5792POPC   GL133589  43.142  32.975   8.850
 5792POPC   GL233590  43.236  33.086   8.850
 5792POPC   C1A33591  43.151  33.024   8.550
 5792POPC   D2A33592  43.073  33.060   8.250
 5792POPC   C3A33593  43.075  33.053   7.950
 5792POPC   C4A33594  43.072  33.032   7.650
 5792POPC   C1B33595  43.310  33.128   8.550
 5792POPC   C2B33596  43.386  33.131   8.250
 5792POPC   C3B33597  43.363  33.113   7.950
 5792POPC   C4B33598  43.380  33.108   7.650
 5793POPC   NC333599  32.210  31.473   9.450
 5793POPC   PO433600  32.237  31.477   9.150
 5793POPC   GL133601  32.230  31.486   8.850
 5793POPC   GL233602  32.373  31.531   8.850
 5793POPC   C1A33603  32.225  31.504   8.550
 5793POPC   D2A33604  32.291  31.501   8.250
 5793POPC   C3A33605  32.266  31.496   7.950
 5793POPC   C4A33606  32.266  31.511   7.650
 5793POPC   C1B33607  32.468  31.598   8.550
 5793POPC   C2B33608  32.459  31.579   8.250
 5793POPC   C3B33609  32.496  31.600   7.950
 5793POPC   C4B33610  32.460  31.557   7.650
 5794POPC   NC333611  16.697  31.424   9.450
 5794POPC   PO433612  16.764  31.430   9.150
 5794POPC   GL133613  16.749  31.427   8.850
 5794POPC   GL233614  16.739  31.310   8.850
 5794POPC   C1A33615  16.730  31.471   8.550
 5794POPC   D2A33616  16.686  31.432   8.250
 5794POPC   C3A33617  16.743  31.497   7.950
 5794POPC   C4A33618  16.738  31.425   7.650
 5794POPC   C1B33619  16.747  31.257   8.550
 5794POPC   C2B33620  16.825  31.271   8.250
 5794POPC   C3B33621  16.789  31.207   7.950
 5794POPC   C4B33622  16.803  31.181   7.650
 5795POPC   NC333623  14.372  25.277   9.450
 5795POPC   PO433624  14.390  25.282   9.150
 5795POPC   GL133625  14.440  25.298   8.850
 5795POPC   GL233626  14.436  25.129   8.850
 5795POPC   C1A33627  14.395  25.287   8.550
 5795POPC   D2A33628  14.447  25.249   8.250
 5795POPC   C3A33629  14.441  25.218   7.950
 5795POPC   C4A33630  14.442  25.226   7.650
 5795POPC   C1B33631  14.482  25.089   8.550
 5795POPC   C2B33632  14.581  25.012   8.250
 5795POPC   C3B33633  14.576  25.061   7.950
 5795POPC   C4B33634  14.573  25.035   7.650
 5796POPC   NC333635  15.964   4.272   9.450
 5796POPC   PO433636  15.909   4.289   9.150
 5796POPC   GL133637  15.909   4.356   8.850
 5796POPC   GL233638  15.806   4.365   8.850
 5796POPC   C1A33639  15.970   4.314   8.550
 5796POPC   D2A33640  15.976   4.289   8.250
 5796POPC   C3A33641  15.954   4.341   7.950
 5796POPC   C4A33642  15.983   4.314   7.650
 5796POPC   C1B33643  15.743   4.389   8.550
 5796POPC   C2B33644  15.684   4.469   8.250
 5796POPC   C3B33645  15.685   4.430   7.950
 5796POPC   C4B33646  15.767   4.441   7.650
 5797POPC   NC333647   1.206  33.760   9.450
 5797POPC   PO433648   1.197  33.838   9.150
 5797POPC   GL133649   1.215  33.813   8.850
 5797POPC   GL233650   1.375  33.747   8.850
 5797POPC   C1A33651   1.222  33.809   8.550
 5797POPC   D2A33652   1.232  33.774   8.250
 5797POPC   C3A33653   1.247  33.821   7.950
 5797POPC   C4A33654   1.262  33.756   7.650
 5797POPC   C1B33655   1.437  33.753   8.550
 5797POPC   C2B33656   1.474  33.721   8.250
 5797POPC   C3B33657   1.503  33.759   7.950
 5797POPC   C4B33658   1.508  33.756   7.650
 5798POPC   NC333659  43.110   8.985   9.450
 5798POPC   PO433660  43.102   8.963   9.150
 5798POPC   GL133661  43.075   8.979   8.850
 5798POPC   GL233662  43.126   8.863   8.850
 5798POPC   C1A33663  43.089   8.923   8.550
 5798POPC   D2A33664  43.150   9.021   8.250
 5798POPC   C3A33665  43.073   8.941   7.950
 5798POPC   C4A33666  43.076   9.017   7.650
 5798POPC   C1B33667  43.087   8.692   8.550
 5798POPC   C2B33668  43.072   8.753   8.250
 5798POPC   C3B33669  43.122   8.708   7.950
 5798POPC   C4B33670  43.082   8.711   7.650
 5799POPC   NC333671  19.038  20.609   9.450
 5799POPC   PO433672  19.051  20.571   9.150
 5799POPC   GL133673  19.032  20.636   8.850
 5799POPC   GL233674  18.999  20.548   8.850
 5799POPC   C1A33675  19.062  20.590   8.550
 5799POPC   D2A33676  19.041  20.571   8.250
 5799POPC   C3A33677  19.091  20.583   7.950
 5799POPC   C4A33678  19.087  20.578   7.650
 5799POPC   C1B33679  18.863  20.457   8.550
 5799POPC   C2B33680  18.926  20.439   8.250
 5799POPC   C3B33681  18.858  20.404   7.950
 5799POPC   C4B33682  18.900  20.397   7.650
 5800POPC   NC333683  38.491  38.471   9.450
 5800POPC   PO433684  38.493  38.456   9.150
 5800POPC   GL133685  38.449  38.421   8.850
 5800POPC   GL233686  38.381  38.335   8.850
 5800POPC   C1A33687  38.481  38.464   8.550
 5800POPC   D2A33688  38.494  38.406   8.250
 5800POPC   C3A33689  38.478  38.409   7.950
 5800POPC   C4A33690  38.499  38.485   7.650
 5800POPC   C1B33691  38.342  38.228   8.550
 5800POPC   C2B33692  38.344  38.251   8.250
 5800POPC   C3B33693  38.330  38.203   7.950
 5800POPC   C4B33694  38.288  38.274   7.650
 5801POPC   NC333695  42.357  29.929   9.450
 5801POPC   PO433696  42.355  29.901   9.150
 5801POPC   GL133697  42.300  29.964   8.850
 5801POPC   GL233698  42.424  29.795   8.850
 5801POPC   C1A33699  42.327  29.961   8.550
 5801POPC   D2A33700  42.310  29.911   8.250
 5801POPC   C3A33701  42.344  29.927   7.950
 5801POPC   C4A33702  42.373  29.939   7.650
 5801POPC   C1B33703  42.473  29.735   8.550
 5801POPC   C2B33704  42.526  29.770   8.250
 5801POPC   C3B33705  42.528  29.740   7.950
 5801POPC   C4B33706  42.475  29.782   7.650
 5802POPC   NC333707  12.874  12.070   9.450
 5802POPC   PO433708  12.821  12.089   9.150
 5802POPC   GL133709  12.813  12.103   8.850
 5802POPC   GL233710  12.915  12.181   8.850
 5802POPC   C1A33711  12.839  12.096   8.550
 5802POPC   D2A33712  12.816  12.117   8.250
 5802POPC   C3A33713  12.880  12.047   7.950
 5802POPC   C4A33714  12.802  12.067   7.650
 5802POPC   C1B33715  12.984  12.267   8.550
 5802POPC   C2B33716  12.927  12.341   8.250
 5802POPC   C3B33717  12.905  12.260   7.950
 5802POPC   C4B33718  12.913  12.315   7.650
 5803POPC   NC333719  26.855  36.122   9.450
 5803POPC   PO433720  26.821  36.101   9.150
 5803POPC   GL133721  26.854  36.110   8.850
 5803POPC   GL233722  26.722  36.077   8.850
 5803POPC   C1A33723  26.827  36.169   8.550
 5803POPC   D2A33724  26.819  36.166   8.250
 5803POPC   C3A33725  26.822  36.166   7.950
 5803POPC   C4A33726  26.849  36.092   7.650
 5803POPC   C1B33727  26.615  35.955   8.550
 5803POPC   C2B33728  26.654  35.957   8.250
 5803POPC   C3B33729  26.668  36.013   7.950
 5803POPC   C4B33730  26.620  35.940   7.650
 5804POPC   NC333731   5.118  38.498   9.450
 5804POPC   PO433732   5.142  38.411   9.150
 5804POPC   GL133733   5.104  38.413   8.850
 5804POPC   GL233734   5.210  38.320   8.850
 5804POPC   C1A33735   5.077  38.428   8.550
 5804POPC   D2A33736   5.101  38.481   8.250
 5804POPC   C3A33737   5.137  38.430   7.950
 5804POPC   C4A33738   5.130  38.504   7.650
 5804POPC   C1B33739   5.266  38.290   8.550
 5804POPC   C2B33740   5.240  38.252   8.250
 5804POPC   C3B33741   5.254  38.304   7.950
 5804POPC   C4B33742   5.245  38.251   7.650
 5805POPC   NC333743  31.484  33.038   9.450
 5805POPC   PO433744  31.432  33.038   9.150
 5805POPC   GL133745  31.463  33.052   8.850
 5805POPC   GL233746  31.507  32.904   8.850
 5805POPC   C1A33747  31.471  33.005   8.550
 5805POPC   D2A33748  31.517  33.057   8.250
 5805POPC   C3A33749  31.512  32.984   7.950
 5805POPC   C4A33750  31.514  33.060   7.650
 5805POPC   C1B33751  31.599  32.833   8.550
 5805POPC   C2B33752  31.611  32.835   8.250
 5805POPC   C3B33753  31.597  32.764   7.950
 5805POPC   C4B33754  31.591  32.825   7.650
 5806POPC   NC333755  15.934   6.695   9.450
 5806POPC   PO433756  15.985   6.689   9.150
 5806POPC   GL133757  15.946   6.681   8.850
 5806POPC   GL233758  15.856   6.550   8.850
 5806POPC   C1A33759  15.942   6.604   8.550
 5806POPC   D2A33760  15.942   6.677   8.250
 5806POPC   C3A33761  16.004   6.652   7.950
 5806POPC   C4A33762  15.943   6.607   7.650
 5806POPC   C1B33763  15.783   6.468   8.550
 5806POPC   C2B33764  15.759   6.419   8.250
 5806POPC   C3B33765  15.794   6.491   7.950
 5806POPC   C4B33766  15.798   6.397   7.650
 5807POPC   NC333767  40.767  13.611   9.450
 5807POPC   PO433768  40.824  13.644   9.150
 5807POPC   GL133769  40.754  13.622   8.850
 5807POPC   GL233770  40.897  13.540   8.850
 5807POPC   C1A33771  40.747  13.626   8.550
 5807POPC   D2A33772  40.782  13.600   8.250
 5807POPC   C3A33773  40.782  13.656   7.950
 5807POPC   C4A33774  40.738  13.624   7.650
 5807POPC   C1B33775  40.982  13.427   8.550
 5807POPC   C2B33776  41.020  13.465   8.250
 5807POPC   C3B33777  40.993  13.504   7.950
 5807POPC   C4B33778  40.928  13.467   7.650
 5808POPC   NC333779  32.239  28.377   9.450
 5808POPC   PO433780  32.203  28.403   9.150
 5808POPC   GL133781  32.284  28.390   8.850
 5808POPC   GL233782  32.336  28.337   8.850
 5808POPC   C1A33783  32.235  28.321   8.550
 5808POPC   D2A33784  32.269  28.409   8.250
 5808POPC   C3A33785  32.226  28.385   7.950
 5808POPC   C4A33786  32.238  28.322   7.650
 5808POPC   C1B33787  32.529  28.398   8.550
 5808POPC   C2B33788  32.457  28.366   8.250
 5808POPC   C3B33789  32.519  28.332   7.950
 5808POPC   C4B33790  32.525  28.386   7.650
 5809POPC   NC333791  23.681  43.868   9.450
 5809POPC   PO433792  23.740  43.883   9.150
 5809POPC   GL133793  23.703  43.859   8.850
 5809POPC   GL233794  23.598  43.802   8.850
 5809POPC   C1A33795  23.745  43.919   8.550
 5809POPC   D2A33796  23.694  43.890   8.250
 5809POPC   C3A33797  23.704  43.866   7.950
 5809POPC   C4A33798  23.669  43.887   7.650
 5809POPC   C1B33799  23.528  43.659   8.550
 5809POPC   C2B33800  23.612  43.706   8.250
 5809POPC   C3B33801  23.560  43.650   7.950
 5809POPC   C4B33802  23.618  43.652   7.650
 5810POPC   NC333803   4.332  10.492   9.450
 5810POPC   PO433804   4.301  10.537   9.150
 5810POPC   GL133805   4.315  10.475   8.850
 5810POPC   GL233806   4.371  10.423   8.850
 5810POPC   C1A33807   4.337  10.486   8.550
 5810POPC   D2A33808   4.317  10.565   8.250
 5810POPC   C3A33809   4.281  10.573   7.950
 5810POPC   C4A33810   4.313  10.532   7.650
 5810POPC   C1B33811   4.418  10.311   8.550
 5810POPC   C2B33812   4.409  10.314   8.250
 5810POPC   C3B33813   4.475  10.325   7.950
 5810POPC   C4B33814   4.449  10.264   7.650
 5811POPC   NC333815   5.114   0.458   9.450
 5811POPC   PO433816   5.138   0.467   9.150
 5811POPC   GL133817   5.112   0.414   8.850
 5811POPC   GL233818   5.150   0.574   8.850
 5811POPC   C1A33819   5.087   0.471   8.550
 5811POPC   D2A33820   5.133   0.404   8.250
 5811POPC   C3A33821   5.118   0.438   7.950
 5811POPC   C4A33822   5.072   0.438   7.650
 5811POPC   C1B33823   5.187   0.657   8.550
 5811POPC   C2B33824   5.237   0.699   8.250
 5811POPC   C3B33825   5.257   0.636   7.950
 5811POPC   C4B33826   5.243   0.693   7.650
 5812POPC   NC333827  28.356  22.188   9.450
 5812POPC   PO433828  28.401  22.176   9.150
 5812POPC   GL133829  28.413  22.131   8.850
 5812POPC   GL233830  28.481  22.294   8.850
 5812POPC   C1A33831  28.403  22.175   8.550
 5812POPC   D2A33832  28.378  22.160   8.250
 5812POPC   C3A33833  28.400  22.130   7.950
 5812POPC   C4A33834  28.323  22.176   7.650
 5812POPC   C1B33835  28.591  22.291   8.550
 5812POPC   C2B33836  28.527  22.355   8.250
 5812POPC   C3B33837  28.522  22.380   7.950
 5812POPC   C4B33838  28.546  22.330   7.650
 5813POPC   NC333839   8.994  27.576   9.450
 5813POPC   PO433840   8.964  27.571   9.150
 5813POPC   GL133841   8.963  27.634   8.850
 5813POPC   GL233842   9.021  27.724   8.850
 5813POPC   C1A33843   8.984  27.609   8.550
 5813POPC   D2A33844   9.018  27.575   8.250
 5813POPC   C3A33845   9.008  27.625   7.950
 5813POPC   C4A33846   9.018  27.557   7.650
 5813POPC   C1B33847   8.949  27.873   8.550
 5813POPC   C2B33848   8.973  27.830   8.250
 5813POPC   C3B33849   9.032  27.835   7.950
 5813POPC   C4B33850   8.966  27.839   7.650
 5814POPC   NC333851  38.455  36.088   9.450
 5814POPC   PO433852  38.436  36.166   9.150
 5814POPC   GL133853  38.447  36.081   8.850
 5814POPC   GL233854  38.362  35.985   8.850
 5814POPC   C1A33855  38.473  36.150   8.550
 5814POPC   D2A33856  38.423  36.115   8.250
 5814POPC   C3A33857  38.454  36.159   7.950
 5814POPC   C4A33858  38.501  36.113   7.650
 5814POPC   C1B33859  38.312  35.879   8.550
 5814POPC   C2B33860  38.345  35.869   8.250
 5814POPC   C3B33861  38.375  35.914   7.950
 5814POPC   C4B33862  38.391  35.941   7.650
 5815POPC   NC333863   0.397  27.583   9.450
 5815POPC   PO433864   0.461  27.625   9.150
 5815POPC   GL133865   0.451  27.641   8.850
 5815POPC   GL233866   0.429  27.436   8.850
 5815POPC   C1A33867   0.428  27.561   8.550
 5815POPC   D2A33868   0.480  27.589   8.250
 5815POPC   C3A33869   0.405  27.578   7.950
 5815POPC   C4A33870   0.401  27.564   7.650
 5815POPC   C1B33871   0.418  27.306   8.550
 5815POPC   C2B33872   0.388  27.327   8.250
 5815POPC   C3B33873   0.398  27.354   7.950
 5815POPC   C4B33874   0.429  27.316   7.650
 5816POPC   NC333875  34.595   8.204   9.450
 5816POPC   PO433876  34.574   8.188   9.150
 5816POPC   GL133877  34.605   8.228   8.850
 5816POPC   GL233878  34.503   8.147   8.850
 5816POPC   C1A33879  34.624   8.173   8.550
 5816POPC   D2A33880  34.542   8.209   8.250
 5816POPC   C3A33881  34.557   8.194   7.950
 5816POPC   C4A33882  34.550   8.165   7.650
 5816POPC   C1B33883  34.376   7.985   8.550
 5816POPC   C2B33884  34.369   8.051   8.250
 5816POPC   C3B33885  34.377   7.998   7.950
 5816POPC   C4B33886  34.373   8.063   7.650
 5817POPC   NC333887  27.547  11.308   9.450
 5817POPC   PO433888  27.607  11.343   9.150
 5817POPC   GL133889  27.620  11.344   8.850
 5817POPC   GL233890  27.564  11.192   8.850
 5817POPC   C1A33891  27.592  11.337   8.550
 5817POPC   D2A33892  27.580  11.344   8.250
 5817POPC   C3A33893  27.579  11.338   7.950
 5817POPC   C4A33894  27.625  11.305   7.650
 5817POPC   C1B33895  27.450  11.091   8.550
 5817POPC   C2B33896  27.509  11.052   8.250
 5817POPC   C3B33897  27.458  11.074   7.950
 5817POPC   C4B33898  27.481  11.035   7.650
 5818POPC   NC333899   8.161  15.917   9.450
 5818POPC   PO433900   8.223  15.974   9.150
 5818POPC   GL133901   8.203  16.005   8.850
 5818POPC   GL233902   8.071  15.921   8.850
 5818POPC   C1A33903   8.147  15.906   8.550
 5818POPC   D2A33904   8.205  15.916   8.250
 5818POPC   C3A33905   8.217  15.924   7.950
 5818POPC   C4A33906   8.177  15.996   7.650
 5818POPC   C1B33907   7.968  15.845   8.550
 5818POPC   C2B33908   8.035  15.824   8.250
 5818POPC   C3B33909   7.948  15.797   7.950
 5818POPC   C4B33910   7.979  15.798   7.650
 5819POPC   NC333911   2.771  40.789   9.450
 5819POPC   PO433912   2.786  40.747   9.150
 5819POPC   GL133913   2.811  40.800   8.850
 5819POPC   GL233914   2.702  40.740   8.850
 5819POPC   C1A33915   2.766  40.806   8.550
 5819POPC   D2A33916   2.769  40.824   8.250
 5819POPC   C3A33917   2.748  40.733   7.950
 5819POPC   C4A33918   2.763  40.802   7.650
 5819POPC   C1B33919   2.541  40.660   8.550
 5819POPC   C2B33920   2.559  40.661   8.250
 5819POPC   C3B33921   2.547  40.588   7.950
 5819POPC   C4B33922   2.607  40.612   7.650
 5820POPC   NC333923  25.297  35.306   9.450
 5820POPC   PO433924  25.305  35.387   9.150
 5820POPC   GL133925  25.225  35.310   8.850
 5820POPC   GL233926  25.145  35.317   8.850
 5820POPC   C1A33927  25.263  35.327   8.550
 5820POPC   D2A33928  25.229  35.327   8.250
 5820POPC   C3A33929  25.259  35.318   7.950
 5820POPC   C4A33930  25.293  35.327   7.650
 5820POPC   C1B33931  25.050  35.253   8.550
 5820POPC   C2B33932  25.068  35.191   8.250
 5820POPC   C3B33933  25.037  35.217   7.950
 5820POPC   C4B33934  25.019  35.220   7.650
 5821POPC   NC333935  32.248  22.981   9.450
 5821POPC   PO433936  32.221  22.914   9.150
 5821POPC   GL133937  32.294  22.905   8.850
 5821POPC   GL233938  32.412  22.894   8.850
 5821POPC   C1A33939  32.256  22.979   8.550
 5821POPC   D2A33940  32.260  22.982   8.250
 5821POPC   C3A33941  32.232  22.897   7.950
 5821POPC   C4A33942  32.288  22.912   7.650
 5821POPC   C1B33943  32.493  22.866   8.550
 5821POPC   C2B33944  32.506  22.845   8.250
 5821POPC   C3B33945  32.508  22.803   7.950
 5821POPC   C4B33946  32.513  22.886   7.650
 5822POPC   NC333947   8.222  18.245   9.450
 5822POPC   PO433948   8.191  18.240   9.150
 5822POPC   GL133949   8.155  18.310   8.850
 5822POPC   GL233950   8.084  18.394   8.850
 5822POPC   C1A33951   8.161  18.295   8.550
 5822POPC   D2A33952   8.243  18.316   8.250
 5822POPC   C3A33953   8.153  18.248   7.950
 5822POPC   C4A33954   8.184  18.260   7.650
 5822POPC   C1B33955   8.050  18.503   8.550
 5822POPC   C2B33956   8.025  18.487   8.250
 5822POPC   C3B33957   8.106  18.508   7.950
 5822POPC   C4B33958   8.112  18.527   7.650
 5823POPC   NC333959  30.674  13.596   9.450
 5823POPC   PO433960  30.706  13.608   9.150
 5823POPC   GL133961  30.708  13.670   8.850
 5823POPC   GL233962  30.626  13.464   8.850
 5823POPC   C1A33963  30.721  13.676   8.550
 5823POPC   D2A33964  30.702  13.632   8.250
 5823POPC   C3A33965  30.694  13.610   7.950
 5823POPC   C4A33966  30.702  13.662   7.650
 5823POPC   C1B33967  30.644  13.340   8.550
 5823POPC   C2B33968  30.687  13.419   8.250
 5823POPC   C3B33969  30.634  13.375   7.950
 5823POPC   C4B33970  30.634  13.375   7.650
 5824POPC   NC333971  40.744  35.401   9.450
 5824POPC   PO433972  40.807  35.381   9.150
 5824POPC   GL133973  40.805  35.323   8.850
 5824POPC   GL233974  40.868  35.278   8.850
 5824POPC   C1A33975  40.746  35.353   8.550
 5824POPC   D2A33976  40.752  35.313   8.250
 5824POPC   C3A33977  40.748  35.306   7.950
 5824POPC   C4A33978  40.798  35.358   7.650
 5824POPC   C1B33979  41.046  35.232   8.550
 5824POPC   C2B33980  41.062  35.218   8.250
 5824POPC   C3B33981  41.054  35.288   7.950
 5824POPC   C4B33982  40.983  35.214   7.650
 5825POPC   NC333983  26.062  25.293   9.450
 5825POPC   PO433984  26.008  25.239   9.150
 5825POPC   GL133985  26.047  25.247   8.850
 5825POPC   GL233986  25.969  25.388   8.850
 5825POPC   C1A33987  26.044  25.234   8.550
 5825POPC   D2A33988  25.994  25.230   8.250
 5825POPC   C3A33989  26.078  25.236   7.950
 5825POPC   C4A33990  26.053  25.277   7.650
 5825POPC   C1B33991  25.920  25.493   8.550
 5825POPC   C2B33992  25.902  25.480   8.250
 5825POPC   C3B33993  25.889  25.463   7.950
 5825POPC   C4B33994  25.910  25.506   7.650
 5826POPC   NC333995  15.985  30.710   9.450
 5826POPC   PO433996  15.962  30.648   9.150
 5826POPC   GL133997  15.971  30.658   8.850
 5826POPC   GL233998  16.028  30.847   8.850
 5826POPC   C1A33999  15.946  30.716   8.550
 5826POPC   D2A34000  15.970  30.728   8.250
 5826POPC   C3A34001  15.996  30.743   7.950
 5826POPC   C4A34002  15.954  30.686   7.650
 5826POPC   C1B34003  16.119  30.883   8.550
 5826POPC   C2B34004  16.077  30.894   8.250
 5826POPC   C3B34005  16.136  30.910   7.950
 5826POPC   C4B34006  16.069  30.874   7.650
 5827POPC   NC334007  37.708  39.194   9.450
 5827POPC   PO434008  37.693  39.202   9.150
 5827POPC   GL134009  37.715  39.183   8.850
 5827POPC   GL234010  37.843  39.245   8.850
 5827POPC   C1A34011  37.638  39.262   8.550
 5827POPC   D2A34012  37.727  39.249   8.250
 5827POPC   C3A34013  37.707  39.228   7.950
 5827POPC   C4A34014  37.651  39.252   7.650
 5827POPC   C1B34015  37.891  39.216   8.550
 5827POPC   C2B34016  37.917  39.225   8.250
 5827POPC   C3B34017  37.898  39.257   7.950
 5827POPC   C4B34018  37.881  39.256   7.650
 5828POPC   NC334019  40.828  15.150   9.450
 5828POPC   PO434020  40.774  15.133   9.150
 5828POPC   GL134021  40.767  15.135   8.850
 5828POPC   GL234022  40.774  15.292   8.850
 5828POPC   C1A34023  40.754  15.140   8.550
 5828POPC   D2A34024  40.821  15.199   8.250
 5828POPC   C3A34025  40.774  15.229   7.950
 5828POPC   C4A34026  40.770  15.197   7.650
 5828POPC   C1B34027  40.798  15.377   8.550
 5828POPC   C2B34028  40.820  15.449   8.250
 5828POPC   C3B34029  40.843  15.450   7.950
 5828POPC   C4B34030  40.835  15.457   7.650
 5829POPC   NC334031   6.663  32.279   9.450
 5829POPC   PO434032   6.610  32.199   9.150
 5829POPC   GL134033   6.614  32.216   8.850
 5829POPC   GL234034   6.653  32.127   8.850
 5829POPC   C1A34035   6.630  32.263   8.550
 5829POPC   D2A34036   6.654  32.243   8.250
 5829POPC   C3A34037   6.632  32.240   7.950
 5829POPC   C4A34038   6.600  32.217   7.650
 5829POPC   C1B34039   6.567  32.046   8.550
 5829POPC   C2B34040   6.568  32.040   8.250
 5829POPC   C3B34041   6.571  32.001   7.950
 5829POPC   C4B34042   6.520  32.059   7.650
 5830POPC   NC334043  42.379  19.811   9.450
 5830POPC   PO434044  42.313  19.841   9.150
 5830POPC   GL134045  42.316  19.864   8.850
 5830POPC   GL234046  42.357  19.703   8.850
 5830POPC   C1A34047  42.342  19.844   8.550
 5830POPC   D2A34048  42.348  19.843   8.250
 5830POPC   C3A34049  42.378  19.858   7.950
 5830POPC   C4A34050  42.341  19.874   7.650
 5830POPC   C1B34051  42.385  19.566   8.550
 5830POPC   C2B34052  42.373  19.582   8.250
 5830POPC   C3B34053  42.373  19.590   7.950
 5830POPC   C4B34054  42.371  19.558   7.650
 5831POPC   NC334055   2.724   5.828   9.450
 5831POPC   PO434056   2.806   5.917   9.150
 5831POPC   GL134057   2.795   5.854   8.850
 5831POPC   GL234058   2.839   5.824   8.850
 5831POPC   C1A34059   2.716   5.888   8.550
 5831POPC   D2A34060   2.798   5.883   8.250
 5831POPC   C3A34061   2.774   5.863   7.950
 5831POPC   C4A34062   2.780   5.917   7.650
 5831POPC   C1B34063   2.975   5.728   8.550
 5831POPC   C2B34064   3.014   5.734   8.250
 5831POPC   C3B34065   2.978   5.790   7.950
 5831POPC   C4B34066   2.999   5.756   7.650
 5832POPC   NC334067  15.225  43.875   9.450
 5832POPC   PO434068  15.193  43.933   9.150
 5832POPC   GL134069  15.145  43.903   8.850
 5832POPC   GL234070  15.318  43.809   8.850
 5832POPC   C1A34071  15.194  43.899   8.550
 5832POPC   D2A34072  15.186  43.886   8.250
 5832POPC   C3A34073  15.186  43.895   7.950
 5832POPC   C4A34074  15.203  43.874   7.650
 5832POPC   C1B34075  15.392  43.797   8.550
 5832POPC   C2B34076  15.431  43.791   8.250
 5832POPC   C3B34077  15.385  43.791   7.950
 5832POPC   C4B34078  15.384  43.797   7.650
 5833POPC   NC334079  20.625  11.311   9.450
 5833POPC   PO434080  20.623  11.271   9.150
 5833POPC   GL134081  20.595  11.344   8.850
 5833POPC   GL234082  20.594  11.417   8.850
 5833POPC   C1A34083  20.562  11.277   8.550
 5833POPC   D2A34084  20.574  11.291   8.250
 5833POPC   C3A34085  20.653  11.316   7.950
 5833POPC   C4A34086  20.615  11.273   7.650
 5833POPC   C1B34087  20.685  11.539   8.550
 5833POPC   C2B34088  20.708  11.513   8.250
 5833POPC   C3B34089  20.697  11.512   7.950
 5833POPC   C4B34090  20.662  11.523   7.650
 5834POPC   NC334091  29.896  15.140   9.450
 5834POPC   PO434092  29.877  15.168   9.150
 5834POPC   GL134093  29.901  15.218   8.850
 5834POPC   GL234094  29.900  15.036   8.850
 5834POPC   C1A34095  29.962  15.135   8.550
 5834POPC   D2A34096  29.926  15.218   8.250
 5834POPC   C3A34097  29.965  15.200   7.950
 5834POPC   C4A34098  29.952  15.149   7.650
 5834POPC   C1B34099  29.753  14.960   8.550
 5834POPC   C2B34100  29.734  14.935   8.250
 5834POPC   C3B34101  29.818  14.926   7.950
 5834POPC   C4B34102  29.756  14.994   7.650
 5835POPC   NC334103   1.232  14.366   9.450
 5835POPC   PO434104   1.238  14.388   9.150
 5835POPC   GL134105   1.206  14.438   8.850
 5835POPC   GL234106   1.347  14.274   8.850
 5835POPC   C1A34107   1.216  14.437   8.550
 5835POPC   D2A34108   1.223  14.422   8.250
 5835POPC   C3A34109   1.249  14.439   7.950
 5835POPC   C4A34110   1.226  14.425   7.650
 5835POPC   C1B34111   1.384  14.282   8.550
 5835POPC   C2B34112   1.377  14.252   8.250
 5835POPC   C3B34113   1.347  14.214   7.950
 5835POPC   C4B34114   1.352  14.268   7.650
 5836POPC   NC334115  29.110  29.915   9.450
 5836POPC   PO434116  29.159  29.944   9.150
 5836POPC   GL134117  29.110  29.937   8.850
 5836POPC   GL234118  29.177  30.001   8.850
 5836POPC   C1A34119  29.187  29.919   8.550
 5836POPC   D2A34120  29.159  29.891   8.250
 5836POPC   C3A34121  29.126  29.959   7.950
 5836POPC   C4A34122  29.190  29.941   7.650
 5836POPC   C1B34123  29.121  30.209   8.550
 5836POPC   C2B34124  29.177  30.134   8.250
 5836POPC   C3B34125  29.145  30.176   7.950
 5836POPC   C4B34126  29.110  30.192   7.650
 5837POPC   NC334127  15.148  10.485   9.450
 5837POPC   PO434128  15.151  10.501   9.150
 5837POPC   GL134129  15.167  10.538   8.850
 5837POPC   GL234130  15.288  10.428   8.850
 5837POPC   C1A34131  15.178  10.478   8.550
 5837POPC   D2A34132  15.156  10.548   8.250
 5837POPC   C3A34133  15.152  10.551   7.950
 5837POPC   C4A34134  15.217  10.491   7.650
 5837POPC   C1B34135  15.392  10.418   8.550
 5837POPC   C2B34136  15.374  10.393   8.250
 5837POPC   C3B34137  15.452  10.383   7.950
 5837POPC   C4B34138  15.404  10.383   7.650
 5838POPC   NC334139  33.803   7.447   9.450
 5838POPC   PO434140  33.819   7.460   9.150
 5838POPC   GL134141  33.841   7.435   8.850
 5838POPC   GL234142  33.837   7.283   8.850
 5838POPC   C1A34143  33.750   7.407   8.550
 5838POPC   D2A34144  33.846   7.385   8.250
 5838POPC   C3A34145  33.822   7.433   7.950
 5838POPC   C4A34146  33.766   7.425   7.650
 5838POPC   C1B34147  33.815   7.176   8.550
 5838POPC   C2B34148  33.825   7.157   8.250
 5838POPC   C3B34149  33.790   7.131   7.950
 5838POPC   C4B34150  33.855   7.121   7.650
 5839POPC   NC334151   4.276  36.171   9.450
 5839POPC   PO434152   4.316  36.107   9.150
 5839POPC   GL134153   4.363  36.086   8.850
 5839POPC   GL234154   4.351  36.185   8.850
 5839POPC   C1A34155   4.327  36.139   8.550
 5839POPC   D2A34156   4.350  36.173   8.250
 5839POPC   C3A34157   4.363  36.135   7.950
 5839POPC   C4A34158   4.273  36.164   7.650
 5839POPC   C1B34159   4.486  36.372   8.550
 5839POPC   C2B34160   4.495  36.339   8.250
 5839POPC   C3B34161   4.400  36.305   7.950
 5839POPC   C4B34162   4.459  36.374   7.650
 5840POPC   NC334163  40.741  29.113   9.450
 5840POPC   PO434164  40.801  29.152   9.150
 5840POPC   GL134165  40.772  29.178   8.850
 5840POPC   GL234166  40.865  29.218   8.850
 5840POPC   C1A34167  40.792  29.134   8.550
 5840POPC   D2A34168  40.827  29.179   8.250
 5840POPC   C3A34169  40.772  29.157   7.950
 5840POPC   C4A34170  40.829  29.188   7.650
 5840POPC   C1B34171  40.997  29.373   8.550
 5840POPC   C2B34172  40.965  29.336   8.250
 5840POPC   C3B34173  40.958  29.328   7.950
 5840POPC   C4B34174  40.911  29.362   7.650
 5841POPC   NC334175  34.542  18.257   9.450
 5841POPC   PO434176  34.624  18.242   9.150
 5841POPC   GL134177  34.573  18.277   8.850
 5841POPC   GL234178  34.620  18.155   8.850
 5841POPC   C1A34179  34.588  18.265   8.550
 5841POPC   D2A34180  34.594  18.310   8.250
 5841POPC   C3A34181  34.543  18.279   7.950
 5841POPC   C4A34182  34.581  18.245   7.650
 5841POPC   C1B34183  34.665  18.108   8.550
 5841POPC   C2B34184  34.688  18.043   8.250
 5841POPC   C3B34185  34.650  18.042   7.950
 5841POPC   C4B34186  34.719  18.056   7.650
 5842POPC   NC334187  17.512  43.884   9.450
 5842POPC   PO434188  17.468  43.911   9.150
 5842POPC   GL134189  17.490  43.936   8.850
 5842POPC   GL234190  17.495  44.030   8.850
 5842POPC   C1A34191  17.506  43.848   8.550
 5842POPC   D2A34192  17.531  43.923   8.250
 5842POPC   C3A34193  17.485  43.908   7.950
 5842POPC   C4A34194  17.530  43.917   7.650
 5842POPC   C1B34195  17.478  44.161   8.550
 5842POPC   C2B34196  17.522  44.100   8.250
 5842POPC   C3B34197  17.479  44.121   7.950
 5842POPC   C4B34198  17.530  44.107   7.650
 5843POPC   NC334199  12.031   6.611   9.450
 5843POPC   PO434200  12.080   6.652   9.150
 5843POPC   GL134201  12.057   6.690   8.850
 5843POPC   GL234202  11.977   6.529   8.850
 5843POPC   C1A34203  12.115   6.602   8.550
 5843POPC   D2A34204  12.029   6.680   8.250
 5843POPC   C3A34205  12.104   6.605   7.950
 5843POPC   C4A34206  12.105   6.670   7.650
 5843POPC   C1B34207  11.855   6.450   8.550
 5843POPC   C2B34208  11.848   6.512   8.250
 5843POPC   C3B34209  11.864   6.501   7.950
 5843POPC   C4B34210  11.932   6.497   7.650
 5844POPC   NC334211  19.015  13.670   9.450
 5844POPC   PO434212  19.070  13.636   9.150
 5844POPC   GL134213  19.053  13.591   8.850
 5844POPC   GL234214  19.082  13.487   8.850
 5844POPC   C1A34215  19.105  13.631   8.550
 5844POPC   D2A34216  19.078  13.612   8.250
 5844POPC   C3A34217  19.068  13.602   7.950
 5844POPC   C4A34218  19.091  13.633   7.650
 5844POPC   C1B34219  19.160  13.430   8.550
 5844POPC   C2B34220  19.232  13.470   8.250
 5844POPC   C3B34221  19.228  13.421   7.950
 5844POPC   C4B34222  19.242  13.444   7.650
 5845POPC   NC334223  20.606  31.424   9.450
 5845POPC   PO434224  20.595  31.486   9.150
 5845POPC   GL134225  20.569  31.424   8.850
 5845POPC   GL234226  20.566  31.342   8.850
 5845POPC   C1A34227  20.570  31.443   8.550
 5845POPC   D2A34228  20.612  31.435   8.250
 5845POPC   C3A34229  20.605  31.453   7.950
 5845POPC   C4A34230  20.629  31.438   7.650
 5845POPC   C1B34231  20.601  31.179   8.550
 5845POPC   C2B34232  20.592  31.259   8.250
 5845POPC   C3B34233  20.600  31.260   7.950
 5845POPC   C4B34234  20.531  31.218   7.650
 5846POPC   NC334235  25.995  38.476   9.450
 5846POPC   PO434236  26.012  38.411   9.150
 5846POPC   GL134237  25.994  38.497   8.850
 5846POPC   GL234238  26.151  38.378   8.850
 5846POPC   C1A34239  26.009  38.466   8.550
 5846POPC   D2A34240  26.074  38.473   8.250
 5846POPC   C3A34241  26.041  38.505   7.950
 5846POPC   C4A34242  26.050  38.453   7.650
 5846POPC   C1B34243  26.244  38.392   8.550
 5846POPC   C2B34244  26.309  38.326   8.250
 5846POPC   C3B34245  26.294  38.355   7.950
 5846POPC   C4B34246  26.261  38.346   7.650
 5847POPC   NC334247  22.906   9.746   9.450
 5847POPC   PO434248  22.950   9.763   9.150
 5847POPC   GL134249  22.889   9.770   8.850
 5847POPC   GL234250  22.939   9.880   8.850
 5847POPC   C1A34251  22.967   9.747   8.550
 5847POPC   D2A34252  22.960   9.775   8.250
 5847POPC   C3A34253  22.892   9.701   7.950
 5847POPC   C4A34254  22.925   9.759   7.650
 5847POPC   C1B34255  22.990  10.017   8.550
 5847POPC   C2B34256  22.969   9.943   8.250
 5847POPC   C3B34257  23.034   9.954   7.950
 5847POPC   C4B34258  23.015  10.026   7.650
 5848POPC   NC334259  39.233  22.921   9.450
 5848POPC   PO434260  39.220  22.942   9.150
 5848POPC   GL134261  39.237  22.960   8.850
 5848POPC   GL234262  39.171  22.803   8.850
 5848POPC   C1A34263  39.227  22.915   8.550
 5848POPC   D2A34264  39.227  22.931   8.250
 5848POPC   C3A34265  39.269  22.888   7.950
 5848POPC   C4A34266  39.225  22.928   7.650
 5848POPC   C1B34267  39.190  22.716   8.550
 5848POPC   C2B34268  39.180  22.722   8.250
 5848POPC   C3B34269  39.249  22.678   7.950
 5848POPC   C4B34270  39.203  22.705   7.650
 5849POPC   NC334271  22.125  26.004   9.450
 5849POPC   PO434272  22.128  26.042   9.150
 5849POPC   GL134273  22.157  26.054   8.850
 5849POPC   GL234274  22.095  25.959   8.850
 5849POPC   C1A34275  22.193  26.015   8.550
 5849POPC   D2A34276  22.130  25.996   8.250
 5849POPC   C3A34277  22.146  26.064   7.950
 5849POPC   C4A34278  22.122  26.067   7.650
 5849POPC   C1B34279  22.033  25.845   8.550
 5849POPC   C2B34280  22.069  25.870   8.250
 5849POPC   C3B34281  22.046  25.830   7.950
 5849POPC   C4B34282  22.050  25.848   7.650
 5850POPC   NC334283  13.666  22.139   9.450
 5850POPC   PO434284  13.666  22.174   9.150
 5850POPC   GL134285  13.635  22.211   8.850
 5850POPC   GL234286  13.579  22.236   8.850
 5850POPC   C1A34287  13.601  22.137   8.550
 5850POPC   D2A34288  13.581  22.198   8.250
 5850POPC   C3A34289  13.621  22.202   7.950
 5850POPC   C4A34290  13.671  22.180   7.650
 5850POPC   C1B34291  13.563  22.401   8.550
 5850POPC   C2B34292  13.527  22.410   8.250
 5850POPC   C3B34293  13.509  22.411   7.950
 5850POPC   C4B34294  13.570  22.377   7.650
 5851POPC   NC334295  19.839   5.888   9.450
 5851POPC   PO434296  19.877   5.881   9.150
 5851POPC   GL134297  19.870   5.894   8.850
 5851POPC   GL234298  19.949   5.778   8.850
 5851POPC   C1A34299  19.800   5.870   8.550
 5851POPC   D2A34300  19.834   5.889   8.250
 5851POPC   C3A34301  19.799   5.839   7.950
 5851POPC   C4A34302  19.809   5.860   7.650
 5851POPC   C1B34303  20.068   5.762   8.550
 5851POPC   C2B34304  20.025   5.745   8.250
 5851POPC   C3B34305  20.057   5.732   7.950
 5851POPC   C4B34306  20.044   5.717   7.650
 5852POPC   NC334307  44.629   8.188   9.450
 5852POPC   PO434308  44.688   8.170   9.150
 5852POPC   GL134309  44.664   8.207   8.850
 5852POPC   GL234310  44.544   8.148   8.850
 5852POPC   C1A34311  44.630   8.157   8.550
 5852POPC   D2A34312  44.689   8.163   8.250
 5852POPC   C3A34313  44.688   8.218   7.950
 5852POPC   C4A34314  44.707   8.178   7.650
 5852POPC   C1B34315  44.407   8.206   8.550
 5852POPC   C2B34316  44.411   8.162   8.250
 5852POPC   C3B34317  44.455   8.148   7.950
 5852POPC   C4B34318  44.403   8.218   7.650
 5853POPC   NC334319  44.680  39.965   9.450
 5853POPC   PO434320  44.704  40.052   9.150
 5853POPC   GL134321  44.651  40.027   8.850
 5853POPC   GL234322  44.623  39.871   8.850
 5853POPC   C1A34323  44.710  39.980   8.550
 5853POPC   D2A34324  44.663  40.053   8.250
 5853POPC   C3A34325  44.613  39.964   7.950
 5853POPC   C4A34326  44.692  40.000   7.650
 5853POPC   C1B34327  44.524  39.789   8.550
 5853POPC   C2B34328  44.458  39.808   8.250
 5853POPC   C3B34329  44.454  39.831   7.950
 5853POPC   C4B34330  44.531  39.811   7.650
 5854POPC   NC334331  40.024  20.636   9.450
 5854POPC   PO434332  39.959  20.581   9.150
 5854POPC   GL134333  40.000  20.631   8.850
 5854POPC   GL234334  40.026  20.501   8.850
 5854POPC   C1A34335  40.049  20.587   8.550
 5854POPC   D2A34336  39.997  20.659   8.250
 5854POPC   C3A34337  40.006  20.597   7.950
 5854POPC   C4A34338  39.990  20.652   7.650
 5854POPC   C1B34339  40.037  20.343   8.550
 5854POPC   C2B34340  40.065  20.328   8.250
 5854POPC   C3B34341  40.120  20.377   7.950
 5854POPC   C4B34342  40.122  20.356   7.650
 5855POPC   NC334343  15.202  30.693   9.450
 5855POPC   PO434344  15.198  30.683   9.150
 5855POPC   GL134345  15.210  30.688   8.850
 5855POPC   GL234346  15.149  30.594   8.850
 5855POPC   C1A34347  15.185  30.727   8.550
 5855POPC   D2A34348  15.205  30.668   8.250
 5855POPC   C3A34349  15.132  30.718   7.950
 5855POPC   C4A34350  15.137  30.697   7.650
 5855POPC   C1B34351  15.112  30.406   8.550
 5855POPC   C2B34352  15.090  30.444   8.250
 5855POPC   C3B34353  15.140  30.433   7.950
 5855POPC   C4B34354  15.084  30.500   7.650
 5856POPC   NC334355   6.604  29.164   9.450
 5856POPC   PO434356   6.646  29.157   9.150
 5856POPC   GL134357   6.689  29.183   8.850
 5856POPC   GL234358   6.564  29.051   8.850
 5856POPC   C1A34359   6.693  29.164   8.550
 5856POPC   D2A34360   6.681  29.118   8.250
 5856POPC   C3A34361   6.604  29.189   7.950
 5856POPC   C4A34362   6.634  29.117   7.650
 5856POPC   C1B34363   6.495  28.926   8.550
 5856POPC   C2B34364   6.487  28.956   8.250
 5856POPC   C3B34365   6.519  28.920   7.950
 5856POPC   C4B34366   6.452  28.974   7.650
 5857POPC   NC334367  32.211   7.451   9.450
 5857POPC   PO434368  32.203   7.465   9.150
 5857POPC   GL134369  32.216   7.435   8.850
 5857POPC   GL234370  32.328   7.349   8.850
 5857POPC   C1A34371  32.259   7.403   8.550
 5857POPC   D2A34372  32.276   7.460   8.250
 5857POPC   C3A34373  32.282   7.372   7.950
 5857POPC   C4A34374  32.249   7.399   7.650
 5857POPC   C1B34375  32.414   7.229   8.550
 5857POPC   C2B34376  32.439   7.214   8.250
 5857POPC   C3B34377  32.479   7.261   7.950
 5857POPC   C4B34378  32.412   7.273   7.650
 5858POPC   NC334379   1.972  12.876   9.450
 5858POPC   PO434380   1.972  12.840   9.150
 5858POPC   GL134381   2.003  12.900   8.850
 5858POPC   GL234382   1.851  12.888   8.850
 5858POPC   C1A34383   1.982  12.855   8.550
 5858POPC   D2A34384   1.976  12.816   8.250
 5858POPC   C3A34385   1.999  12.823   7.950
 5858POPC   C4A34386   1.948  12.883   7.650
 5858POPC   C1B34387   1.714  12.846   8.550
 5858POPC   C2B34388   1.767  12.873   8.250
 5858POPC   C3B34389   1.734  12.889   7.950
 5858POPC   C4B34390   1.740  12.865   7.650
 5859POPC   NC334391  42.345   8.156   9.450
 5859POPC   PO434392  42.315   8.166   9.150
 5859POPC   GL134393  42.330   8.235   8.850
 5859POPC   GL234394  42.259   8.244   8.850
 5859POPC   C1A34395  42.307   8.151   8.550
 5859POPC   D2A34396  42.296   8.166   8.250
 5859POPC   C3A34397  42.368   8.156   7.950
 5859POPC   C4A34398  42.320   8.158   7.650
 5859POPC   C1B34399  42.127   8.359   8.550
 5859POPC   C2B34400  42.143   8.403   8.250
 5859POPC   C3B34401  42.166   8.360   7.950
 5859POPC   C4B34402  42.159   8.385   7.650
 5860POPC   NC334403  12.829  19.810   9.450
 5860POPC   PO434404  12.831  19.861   9.150
 5860POPC   GL134405  12.821  19.860   8.850
 5860POPC   GL234406  12.792  19.787   8.850
 5860POPC   C1A34407  12.843  19.837   8.550
 5860POPC   D2A34408  12.842  19.834   8.250
 5860POPC   C3A34409  12.817  19.801   7.950
 5860POPC   C4A34410  12.812  19.848   7.650
 5860POPC   C1B34411  12.678  19.658   8.550
 5860POPC   C2B34412  12.681  19.649   8.250
 5860POPC   C3B34413  12.701  19.668   7.950
 5860POPC   C4B34414  12.721  19.611   7.650
 5861POPC   NC334415  15.928  22.959   9.450
 5861POPC   PO434416  15.966  22.975   9.150
 5861POPC   GL134417  15.912  22.929   8.850
 5861POPC   GL234418  15.813  22.960   8.850
 5861POPC   C1A34419  15.978  22.921   8.550
 5861POPC   D2A34420  15.910  22.940   8.250
 5861POPC   C3A34421  15.981  22.917   7.950
 5861POPC   C4A34422  15.970  22.907   7.650
 5861POPC   C1B34423  15.669  22.947   8.550
 5861POPC   C2B34424  15.720  23.028   8.250
 5861POPC   C3B34425  15.670  23.034   7.950
 5861POPC   C4B34426  15.721  22.945   7.650
 5862POPC   NC334427  21.359  15.162   9.450
 5862POPC   PO434428  21.375  15.152   9.150
 5862POPC   GL134429  21.430  15.170   8.850
 5862POPC   GL234430  21.419  15.040   8.850
 5862POPC   C1A34431  21.423  15.225   8.550
 5862POPC   D2A34432  21.399  15.139   8.250
 5862POPC   C3A34433  21.370  15.229   7.950
 5862POPC   C4A34434  21.413  15.135   7.650
 5862POPC   C1B34435  21.407  14.936   8.550
 5862POPC   C2B34436  21.441  14.971   8.250
 5862POPC   C3B34437  21.466  14.883   7.950
 5862POPC   C4B34438  21.422  14.951   7.650
 5863POPC   NC334439  41.539  29.911   9.450
 5863POPC   PO434440  41.551  29.885   9.150
 5863POPC   GL134441  41.582  29.883   8.850
 5863POPC   GL234442  41.463  29.933   8.850
 5863POPC   C1A34443  41.604  29.897   8.550
 5863POPC   D2A34444  41.552  29.891   8.250
 5863POPC   C3A34445  41.574  29.906   7.950
 5863POPC   C4A34446  41.554  29.947   7.650
 5863POPC   C1B34447  41.325  29.817   8.550
 5863POPC   C2B34448  41.314  29.820   8.250
 5863POPC   C3B34449  41.294  29.828   7.950
 5863POPC   C4B34450  41.287  29.884   7.650
 5864POPC   NC334451  29.906  25.276   9.450
 5864POPC   PO434452  29.875  25.255   9.150
 5864POPC   GL134453  29.953  25.240   8.850
 5864POPC   GL234454  29.836  25.237   8.850
 5864POPC   C1A34455  29.970  25.309   8.550
 5864POPC   D2A34456  29.961  25.249   8.250
 5864POPC   C3A34457  29.951  25.285   7.950
 5864POPC   C4A34458  29.931  25.315   7.650
 5864POPC   C1B34459  29.698  25.141   8.550
 5864POPC   C2B34460  29.671  25.165   8.250
 5864POPC   C3B34461  29.689  25.227   7.950
 5864POPC   C4B34462  29.711  25.138   7.650
 5865POPC   NC334463   8.980   8.155   9.450
 5865POPC   PO434464   8.993   8.187   9.150
 5865POPC   GL134465   8.961   8.199   8.850
 5865POPC   GL234466   8.942   8.122   8.850
 5865POPC   C1A34467   9.011   8.192   8.550
 5865POPC   D2A34468   8.935   8.224   8.250
 5865POPC   C3A34469   8.996   8.150   7.950
 5865POPC   C4A34470   9.002   8.213   7.650
 5865POPC   C1B34471   8.806   7.968   8.550
 5865POPC   C2B34472   8.797   8.038   8.250
 5865POPC   C3B34473   8.850   8.022   7.950
 5865POPC   C4B34474   8.781   7.952   7.650
 5866POPC   NC334475  16.706  36.929   9.450
 5866POPC   PO434476  16.682  36.871   9.150
 5866POPC   GL134477  16.779  36.912   8.850
 5866POPC   GL234478  16.840  36.972   8.850
 5866POPC   C1A34479  16.774  36.865   8.550
 5866POPC   D2A34480  16.747  36.932   8.250
 5866POPC   C3A34481  16.741  36.936   7.950
 5866POPC   C4A34482  16.725  36.911   7.650
 5866POPC   C1B34483  16.875  37.082   8.550
 5866POPC   C2B34484  16.836  37.127   8.250
 5866POPC   C3B34485  16.897  37.081   7.950
 5866POPC   C4B34486  16.857  37.095   7.650
 5867POPC   NC334487   1.263  26.057   9.450
 5867POPC   PO434488   1.213  26.014   9.150
 5867POPC   GL134489   1.188  26.036   8.850
 5867POPC   GL234490   1.209  26.183   8.850
 5867POPC   C1A34491   1.170  26.003   8.550
 5867POPC   D2A34492   1.193  26.040   8.250
 5867POPC   C3A34493   1.181  26.044   7.950
 5867POPC   C4A34494   1.168  26.005   7.650
 5867POPC   C1B34495   1.303  26.269   8.550
 5867POPC   C2B34496   1.208  26.283   8.250
 5867POPC   C3B34497   1.296  26.309   7.950
 5867POPC   C4B34498   1.290  26.272   7.650
 5868POPC   NC334499   8.996  36.945   9.450
 5868POPC   PO434500   9.022  36.898   9.150
 5868POPC   GL134501   8.947  36.912   8.850
 5868POPC   GL234502   8.897  36.906   8.850
 5868POPC   C1A34503   8.992  36.908   8.550
 5868POPC   D2A34504   9.014  36.878   8.250
 5868POPC   C3A34505   8.995  36.886   7.950
 5868POPC   C4A34506   8.968  36.932   7.650
 5868POPC   C1B34507   8.705  36.938   8.550
 5868POPC   C2B34508   8.718  37.031   8.250
 5868POPC   C3B34509   8.751  37.012   7.950
 5868POPC   C4B34510   8.711  36.987   7.650
 5869POPC   NC334511  10.505  34.535   9.450
 5869POPC   PO434512  10.570  34.560   9.150
 5869POPC   GL134513  10.510  34.563   8.850
 5869POPC   GL234514  10.412  34.542   8.850
 5869POPC   C1A34515  10.562  34.586   8.550
 5869POPC   D2A34516  10.529  34.573   8.250
 5869POPC   C3A34517  10.544  34.567   7.950
 5869POPC   C4A34518  10.552  34.588   7.650
 5869POPC   C1B34519  10.354  34.419   8.550
 5869POPC   C2B34520  10.274  34.491   8.250
 5869POPC   C3B34521  10.312  34.462   7.950
 5869POPC   C4B34522  10.305  34.444   7.650
 5870POPC   NC334523  24.451  14.410   9.450
 5870POPC   PO434524  24.532  14.450   9.150
 5870POPC   GL134525  24.455  14.445   8.850
 5870POPC   GL234526  24.387  14.375   8.850
 5870POPC   C1A34527  24.453  14.414   8.550
 5870POPC   D2A34528  24.497  14.380   8.250
 5870POPC   C3A34529  24.511  14.364   7.950
 5870POPC   C4A34530  24.454  14.369   7.650
 5870POPC   C1B34531  24.199  14.347   8.550
 5870POPC   C2B34532  24.283  14.418   8.250
 5870POPC   C3B34533  24.219  14.341   7.950
 5870POPC   C4B34534  24.216  14.398   7.650
 5871POPC   NC334535  28.370  36.105   9.450
 5871POPC   PO434536  28.409  36.171   9.150
 5871POPC   GL134537  28.414  36.126   8.850
 5871POPC   GL234538  28.318  36.043   8.850
 5871POPC   C1A34539  28.395  36.151   8.550
 5871POPC   D2A34540  28.336  36.177   8.250
 5871POPC   C3A34541  28.319  36.090   7.950
 5871POPC   C4A34542  28.348  36.117   7.650
 5871POPC   C1B34543  28.254  35.977   8.550
 5871POPC   C2B34544  28.183  35.979   8.250
 5871POPC   C3B34545  28.248  35.915   7.950
 5871POPC   C4B34546  28.197  35.933   7.650
 5872POPC   NC334547  24.451   1.950   9.450
 5872POPC   PO434548  24.485   2.033   9.150
 5872POPC   GL134549  24.507   1.963   8.850
 5872POPC   GL234550  24.579   2.089   8.850
 5872POPC   C1A34551  24.522   1.989   8.550
 5872POPC   D2A34552  24.457   2.019   8.250
 5872POPC   C3A34553  24.455   2.018   7.950
 5872POPC   C4A34554  24.468   1.948   7.650
 5872POPC   C1B34555  24.642   2.163   8.550
 5872POPC   C2B34556  24.697   2.184   8.250
 5872POPC   C3B34557  24.660   2.161   7.950
 5872POPC   C4B34558  24.623   2.166   7.650
 5873POPC   NC334559   7.435  11.301   9.450
 5873POPC   PO434560   7.465  11.278   9.150
 5873POPC   GL134561   7.467  11.300   8.850
 5873POPC   GL234562   7.541  11.320   8.850
 5873POPC   C1A34563   7.410  11.300   8.550
 5873POPC   D2A34564   7.425  11.264   8.250
 5873POPC   C3A34565   7.465  11.308   7.950
 5873POPC   C4A34566   7.451  11.308   7.650
 5873POPC   C1B34567   7.627  11.263   8.550
 5873POPC   C2B34568   7.631  11.282   8.250
 5873POPC   C3B34569   7.655  11.326   7.950
 5873POPC   C4B34570   7.683  11.287   7.650
 5874POPC   NC334571   5.062  37.642   9.450
 5874POPC   PO434572   5.093  37.728   9.150
 5874POPC   GL134573   5.078  37.636   8.850
 5874POPC   GL234574   5.010  37.581   8.850
 5874POPC   C1A34575   5.107  37.636   8.550
 5874POPC   D2A34576   5.114  37.705   8.250
 5874POPC   C3A34577   5.106  37.705   7.950
 5874POPC   C4A34578   5.092  37.671   7.650
 5874POPC   C1B34579   4.915  37.519   8.550
 5874POPC   C2B34580   4.932  37.501   8.250
 5874POPC   C3B34581   4.885  37.497   7.950
 5874POPC   C4B34582   4.942  37.455   7.650
 5875POPC   NC334583  25.287  20.600   9.450
 5875POPC   PO434584  25.234  20.596   9.150
 5875POPC   GL134585  25.251  20.603   8.850
 5875POPC   GL234586  25.403  20.638   8.850
 5875POPC   C1A34587  25.283  20.654   8.550
 5875POPC   D2A34588  25.237  20.634   8.250
 5875POPC   C3A34589  25.239  20.628   7.950
 5875POPC   C4A34590  25.240  20.629   7.650
 5875POPC   C1B34591  25.477  20.666   8.550
 5875POPC   C2B34592  25.485  20.659   8.250
 5875POPC   C3B34593  25.474  20.642   7.950
 5875POPC   C4B34594  25.485  20.620   7.650
 5876POPC   NC334595   5.137   7.415   9.450
 5876POPC   PO434596   5.125   7.451   9.150
 5876POPC   GL134597   5.135   7.383   8.850
 5876POPC   GL234598   5.002   7.481   8.850
 5876POPC   C1A34599   5.112   7.413   8.550
 5876POPC   D2A34600   5.078   7.466   8.250
 5876POPC   C3A34601   5.081   7.455   7.950
 5876POPC   C4A34602   5.123   7.462   7.650
 5876POPC   C1B34603   4.935   7.553   8.550
 5876POPC   C2B34604   4.939   7.618   8.250
 5876POPC   C3B34605   4.930   7.551   7.950
 5876POPC   C4B34606   4.922   7.573   7.650
 5877POPC   NC334607  37.667  32.285   9.450
 5877POPC   PO434608  37.667  32.287   9.150
 5877POPC   GL134609  37.705  32.233   8.850
 5877POPC   GL234610  37.586  32.223   8.850
 5877POPC   C1A34611  37.658  32.242   8.550
 5877POPC   D2A34612  37.699  32.218   8.250
 5877POPC   C3A34613  37.726  32.280   7.950
 5877POPC   C4A34614  37.698  32.254   7.650
 5877POPC   C1B34615  37.412  32.181   8.550
 5877POPC   C2B34616  37.456  32.195   8.250
 5877POPC   C3B34617  37.421  32.243   7.950
 5877POPC   C4B34618  37.410  32.181   7.650
 5878POPC   NC334619   1.210   9.790   9.450
 5878POPC   PO434620   1.185   9.728   9.150
 5878POPC   GL134621   1.210   9.707   8.850
 5878POPC   GL234622   1.070   9.839   8.850
 5878POPC   C1A34623   1.176   9.778   8.550
 5878POPC   D2A34624   1.193   9.712   8.250
 5878POPC   C3A34625   1.229   9.768   7.950
 5878POPC   C4A34626   1.171   9.718   7.650
 5878POPC   C1B34627   1.029   9.838   8.550
 5878POPC   C2B34628   1.011   9.820   8.250
 5878POPC   C3B34629   1.016   9.843   7.950
 5878POPC   C4B34630   1.002   9.819   7.650
 5879POPC   NC334631  29.120  22.113   9.450
 5879POPC   PO434632  29.128  22.127   9.150
 5879POPC   GL134633  29.146  22.118   8.850
 5879POPC   GL234634  29.046  22.083   8.850
 5879POPC   C1A34635  29.128  22.148   8.550
 5879POPC   D2A34636  29.176  22.150   8.250
 5879POPC   C3A34637  29.172  22.136   7.950
 5879POPC   C4A34638  29.178  22.123   7.650
 5879POPC   C1B34639  28.864  22.042   8.550
 5879POPC   C2B34640  28.873  22.036   8.250
 5879POPC   C3B34641  28.958  22.049   7.950
 5879POPC   C4B34642  28.891  22.066   7.650
 5880POPC   NC334643   8.927  35.401   9.450
 5880POPC   PO434644   9.009  35.329   9.150
 5880POPC   GL134645   9.011  35.305   8.850
 5880POPC   GL234646   9.125  35.313   8.850
 5880POPC   C1A34647   8.934  35.317   8.550
 5880POPC   D2A34648   8.955  35.341   8.250
 5880POPC   C3A34649   8.934  35.379   7.950
 5880POPC   C4A34650   8.972  35.388   7.650
 5880POPC   C1B34651   9.235  35.377   8.550
 5880POPC   C2B34652   9.258  35.361   8.250
 5880POPC   C3B34653   9.178  35.383   7.950
 5880POPC   C4B34654   9.254  35.394   7.650
 5881POPC   NC334655  33.038  21.368   9.450
 5881POPC   PO434656  32.995  21.365   9.150
 5881POPC   GL134657  33.023  21.393   8.850
 5881POPC   GL234658  32.949  21.338   8.850
 5881POPC   C1A34659  32.981  21.394   8.550
 5881POPC   D2A34660  32.977  21.379   8.250
 5881POPC   C3A34661  32.986  21.346   7.950
 5881POPC   C4A34662  33.025  21.406   7.650
 5881POPC   C1B34663  32.821  21.347   8.550
 5881POPC   C2B34664  32.799  21.370   8.250
 5881POPC   C3B34665  32.730  21.397   7.950
 5881POPC   C4B34666  32.825  21.305   7.650
 5882POPC   NC334667  22.909   6.673   9.450
 5882POPC   PO434668  22.975   6.627   9.150
 5882POPC   GL134669  22.976   6.675   8.850
 5882POPC   GL234670  22.957   6.511   8.850
 5882POPC   C1A34671  22.928   6.638   8.550
 5882POPC   D2A34672  22.941   6.642   8.250
 5882POPC   C3A34673  22.891   6.680   7.950
 5882POPC   C4A34674  22.929   6.635   7.650
 5882POPC   C1B34675  23.061   6.432   8.550
 5882POPC   C2B34676  23.045   6.426   8.250
 5882POPC   C3B34677  22.988   6.372   7.950
 5882POPC   C4B34678  23.039   6.438   7.650
 5883POPC   NC334679  33.002   8.203   9.450
 5883POPC   PO434680  32.980   8.209   9.150
 5883POPC   GL134681  32.997   8.213   8.850
 5883POPC   GL234682  33.163   8.291   8.850
 5883POPC   C1A34683  32.988   8.156   8.550
 5883POPC   D2A34684  33.030   8.208   8.250
 5883POPC   C3A34685  32.974   8.221   7.950
 5883POPC   C4A34686  33.056   8.233   7.650
 5883POPC   C1B34687  33.267   8.344   8.550
 5883POPC   C2B34688  33.282   8.309   8.250
 5883POPC   C3B34689  33.286   8.365   7.950
 5883POPC   C4B34690  33.237   8.356   7.650
 5884POPC   NC334691  21.416  41.554   9.450
 5884POPC   PO434692  21.400  41.558   9.150
 5884POPC   GL134693  21.401  41.587   8.850
 5884POPC   GL234694  21.297  41.417   8.850
 5884POPC   C1A34695  21.357  41.536   8.550
 5884POPC   D2A34696  21.353  41.557   8.250
 5884POPC   C3A34697  21.391  41.586   7.950
 5884POPC   C4A34698  21.411  41.539   7.650
 5884POPC   C1B34699  21.243  41.329   8.550
 5884POPC   C2B34700  21.172  41.354   8.250
 5884POPC   C3B34701  21.185  41.405   7.950
 5884POPC   C4B34702  21.193  41.381   7.650
 5885POPC   NC334703  29.896  10.511   9.450
 5885POPC   PO434704  29.956  10.480   9.150
 5885POPC   GL134705  29.962  10.526   8.850
 5885POPC   GL234706  29.801  10.538   8.850
 5885POPC   C1A34707  29.904  10.564   8.550
 5885POPC   D2A34708  29.881  10.514   8.250
 5885POPC   C3A34709  29.881  10.514   7.950
 5885POPC   C4A34710  29.959  10.572   7.650
 5885POPC   C1B34711  29.708  10.483   8.550
 5885POPC   C2B34712  29.660  10.501   8.250
 5885POPC   C3B34713  29.660  10.512   7.950
 5885POPC   C4B34714  29.708  10.568   7.650
 5886POPC   NC334715   0.446   1.992   9.450
 5886POPC   PO434716   0.466   1.966   9.150
 5886POPC   GL134717   0.487   1.978   8.850
 5886POPC   GL234718   0.273   1.995   8.850
 5886POPC   C1A34719   0.401   1.970   8.550
 5886POPC   D2A34720   0.400   2.016   8.250
 5886POPC   C3A34721   0.482   2.015   7.950
 5886POPC   C4A34722   0.405   1.974   7.650
 5886POPC   C1B34723   0.192   2.031   8.550
 5886POPC   C2B34724   0.235   2.048   8.250
 5886POPC   C3B34725   0.170   2.069   7.950
 5886POPC   C4B34726   0.185   2.086   7.650
 5887POPC   NC334727  36.099  19.822   9.450
 5887POPC   PO434728  36.137  19.836   9.150
 5887POPC   GL134729  36.091  19.815   8.850
 5887POPC   GL234730  35.979  19.932   8.850
 5887POPC   C1A34731  36.151  19.833   8.550
 5887POPC   D2A34732  36.099  19.833   8.250
 5887POPC   C3A34733  36.101  19.853   7.950
 5887POPC   C4A34734  36.106  19.864   7.650
 5887POPC   C1B34735  35.859  20.002   8.550
 5887POPC   C2B34736  35.872  19.916   8.250
 5887POPC   C3B34737  35.860  19.942   7.950
 5887POPC   C4B34738  35.946  19.979   7.650
 5888POPC   NC334739  13.594  19.015   9.450
 5888POPC   PO434740  13.584  19.052   9.150
 5888POPC   GL134741  13.614  19.011   8.850
 5888POPC   GL234742  13.797  18.991   8.850
 5888POPC   C1A34743  13.592  19.089   8.550
 5888POPC   D2A34744  13.662  19.042   8.250
 5888POPC   C3A34745  13.580  19.066   7.950
 5888POPC   C4A34746  13.635  19.046   7.650
 5888POPC   C1B34747  13.839  19.025   8.550
 5888POPC   C2B34748  13.866  18.961   8.250
 5888POPC   C3B34749  13.839  18.997   7.950
 5888POPC   C4B34750  13.877  18.987   7.650
 5889POPC   NC334751  12.073  41.553   9.450
 5889POPC   PO434752  12.065  41.529   9.150
 5889POPC   GL134753  12.040  41.581   8.850
 5889POPC   GL234754  12.102  41.702   8.850
 5889POPC   C1A34755  12.044  41.563   8.550
 5889POPC   D2A34756  12.101  41.528   8.250
 5889POPC   C3A34757  12.075  41.559   7.950
 5889POPC   C4A34758  12.028  41.511   7.650
 5889POPC   C1B34759  12.121  41.752   8.550
 5889POPC   C2B34760  12.189  41.789   8.250
 5889POPC   C3B34761  12.158  41.789   7.950
 5889POPC   C4B34762  12.146  41.808   7.650
 5890POPC   NC334763  25.290   2.761   9.450
 5890POPC   PO434764  25.266   2.770   9.150
 5890POPC   GL134765  25.286   2.815   8.850
 5890POPC   GL234766  25.378   2.696   8.850
 5890POPC   C1A34767  25.243   2.729   8.550
 5890POPC   D2A34768  25.242   2.737   8.250
 5890POPC   C3A34769  25.302   2.728   7.950
 5890POPC   C4A34770  25.218   2.726   7.650
 5890POPC   C1B34771  25.401   2.556   8.550
 5890POPC   C2B34772  25.416   2.578   8.250
 5890POPC   C3B34773  25.390   2.549   7.950
 5890POPC   C4B34774  25.423   2.516   7.650
 5891POPC   NC334775  40.812   9.735   9.450
 5891POPC   PO434776  40.760   9.747   9.150
 5891POPC   GL134777  40.745   9.708   8.850
 5891POPC   GL234778  40.812   9.578   8.850
 5891POPC   C1A34779  40.761   9.788   8.550
 5891POPC   D2A34780  40.824   9.761   8.250
 5891POPC   C3A34781  40.751   9.713   7.950
 5891POPC   C4A34782  40.776   9.779   7.650
 5891POPC   C1B34783  40.851   9.485   8.550
 5891POPC   C2B34784  40.895   9.552   8.250
 5891POPC   C3B34785  40.895   9.514   7.950
 5891POPC   C4B34786  40.810   9.520   7.650
 5892POPC   NC334787   0.486  40.799   9.450
 5892POPC   PO434788   0.396  40.789   9.150
 5892POPC   GL134789   0.443  40.776   8.850
 5892POPC   GL234790   0.369  40.878   8.850
 5892POPC   C1A34791   0.399  40.753   8.550
 5892POPC   D2A34792   0.461  40.761   8.250
 5892POPC   C3A34793   0.420  40.778   7.950
 5892POPC   C4A34794   0.461  40.744   7.650
 5892POPC   C1B34795   0.283  40.966   8.550
 5892POPC   C2B34796   0.259  40.908   8.250
 5892POPC   C3B34797   0.299  40.959   7.950
 5892POPC   C4B34798   0.243  40.904   7.650
 5893POPC   NC334799  42.344  39.220   9.450
 5893POPC   PO434800  42.353  39.242   9.150
 5893POPC   GL134801  42.358  39.206   8.850
 5893POPC   GL234802  42.331  39.385   8.850
 5893POPC   C1A34803  42.289  39.268   8.550
 5893POPC   D2A34804  42.352  39.234   8.250
 5893POPC   C3A34805  42.315  39.209   7.950
 5893POPC   C4A34806  42.320  39.216   7.650
 5893POPC   C1B34807  42.205  39.486   8.550
 5893POPC   C2B34808  42.257  39.490   8.250
 5893POPC   C3B34809  42.280  39.412   7.950
 5893POPC   C4B34810  42.261  39.488   7.650
 5894POPC   NC334811  29.141  33.781   9.450
 5894POPC   PO434812  29.124  33.808   9.150
 5894POPC   GL134813  29.141  33.808   8.850
 5894POPC   GL234814  29.047  33.826   8.850
 5894POPC   C1A34815  29.166  33.768   8.550
 5894POPC   D2A34816  29.113  33.766   8.250
 5894POPC   C3A34817  29.161  33.809   7.950
 5894POPC   C4A34818  29.125  33.817   7.650
 5894POPC   C1B34819  28.889  33.912   8.550
 5894POPC   C2B34820  28.973  33.934   8.250
 5894POPC   C3B34821  28.896  33.915   7.950
 5894POPC   C4B34822  28.913  33.972   7.650
 5895POPC   NC334823   7.374  14.425   9.450
 5895POPC   PO434824   7.377  14.398   9.150
 5895POPC   GL134825   7.457  14.447   8.850
 5895POPC   GL234826   7.364  14.348   8.850
 5895POPC   C1A34827   7.384  14.369   8.550
 5895POPC   D2A34828   7.466  14.365   8.250
 5895POPC   C3A34829   7.461  14.393   7.950
 5895POPC   C4A34830   7.452  14.368   7.650
 5895POPC   C1B34831   7.206  14.248   8.550
 5895POPC   C2B34832   7.236  14.305   8.250
 5895POPC   C3B34833   7.238  14.258   7.950
 5895POPC   C4B34834   7.168  14.301   7.650
 5896POPC   NC334835  29.906  27.629   9.450
 5896POPC   PO434836  29.879  27.605   9.150
 5896POPC   GL134837  29.890  27.591   8.850
 5896POPC   GL234838  30.019  27.652   8.850
 5896POPC   C1A34839  29.909  27.567   8.550
 5896POPC   D2A34840  29.906  27.558   8.250
 5896POPC   C3A34841  29.966  27.557   7.950
 5896POPC   C4A34842  29.952  27.570   7.650
 5896POPC   C1B34843  30.152  27.595   8.550
 5896POPC   C2B34844  30.142  27.633   8.250
 5896POPC   C3B34845  30.176  27.625   7.950
 5896POPC   C4B34846  30.132  27.650   7.650
 5897POPC   NC334847  29.888  42.331   9.450
 5897POPC   PO434848  29.884  42.306   9.150
 5897POPC   GL134849  29.917  42.363   8.850
 5897POPC   GL234850  29.811  42.307   8.850
 5897POPC   C1A34851  29.970  42.338   8.550
 5897POPC   D2A34852  29.924  42.352   8.250
 5897POPC   C3A34853  29.936  42.296   7.950
 5897POPC   C4A34854  29.872  42.299   7.650
 5897POPC   C1B34855  29.694  42.176   8.550
 5897POPC   C2B34856  29.676  42.235   8.250
 5897POPC   C3B34857  29.691  42.232   7.950
 5897POPC   C4B34858  29.671  42.232   7.650
 5898POPC   NC334859   4.340  20.613   9.450
 5898POPC   PO434860   4.335  20.643   9.150
 5898POPC   GL134861   4.353  20.575   8.850
 5898POPC   GL234862   4.375  20.737   8.850
 5898POPC   C1A34863   4.315  20.591   8.550
 5898POPC   D2A34864   4.328  20.611   8.250
 5898POPC   C3A34865   4.360  20.600   7.950
 5898POPC   C4A34866   4.319  20.578   7.650
 5898POPC   C1B34867   4.376  20.857   8.550
 5898POPC   C2B34868   4.384  20.856   8.250
 5898POPC   C3B34869   4.421  20.835   7.950
 5898POPC   C4B34870   4.424  20.843   7.650
 5899POPC   NC334871  29.970  40.043   9.450
 5899POPC   PO434872  29.921  39.982   9.150
 5899POPC   GL134873  29.916  40.051   8.850
 5899POPC   GL234874  30.074  40.060   8.850
 5899POPC   C1A34875  29.963  40.041   8.550
 5899POPC   D2A34876  29.892  40.055   8.250
 5899POPC   C3A34877  29.927  39.975   7.950
 5899POPC   C4A34878  29.953  40.027   7.650
 5899POPC   C1B34879  30.196  40.029   8.550
 5899POPC   C2B34880  30.140  40.086   8.250
 5899POPC   C3B34881  30.149  40.019   7.950
 5899POPC   C4B34882  30.125  40.055   7.650
 5900POPC   NC334883  14.409  26.010   9.450
 5900POPC   PO434884  14.368  26.071   9.150
 5900POPC   GL134885  14.431  25.996   8.850
 5900POPC   GL234886  14.342  26.144   8.850
 5900POPC   C1A34887  14.410  26.068   8.550
 5900POPC   D2A34888  14.438  26.035   8.250
 5900POPC   C3A34889  14.374  26.058   7.950
 5900POPC   C4A34890  14.376  26.006   7.650
 5900POPC   C1B34891  14.404  26.246   8.550
 5900POPC   C2B34892  14.421  26.244   8.250
 5900POPC   C3B34893  14.345  26.250   7.950
 5900POPC   C4B34894  14.352  26.265   7.650
 5901POPC   NC334895  14.386  19.046   9.450
 5901POPC   PO434896  14.434  19.108   9.150
 5901POPC   GL134897  14.410  19.050   8.850
 5901POPC   GL234898  14.245  19.130   8.850
 5901POPC   C1A34899  14.362  19.078   8.550
 5901POPC   D2A34900  14.399  19.052   8.250
 5901POPC   C3A34901  14.376  19.073   7.950
 5901POPC   C4A34902  14.414  19.025   7.650
 5901POPC   C1B34903  14.199  19.109   8.550
 5901POPC   C2B34904  14.140  19.152   8.250
 5901POPC   C3B34905  14.128  19.156   7.950
 5901POPC   C4B34906  14.129  19.146   7.650
 5902POPC   NC334907  35.372  23.740   9.450
 5902POPC   PO434908  35.332  23.688   9.150
 5902POPC   GL134909  35.321  23.750   8.850
 5902POPC   GL234910  35.460  23.759   8.850
 5902POPC   C1A34911  35.305  23.719   8.550
 5902POPC   D2A34912  35.385  23.740   8.250
 5902POPC   C3A34913  35.330  23.707   7.950
 5902POPC   C4A34914  35.337  23.725   7.650
 5902POPC   C1B34915  35.501  23.850   8.550
 5902POPC   C2B34916  35.521  23.915   8.250
 5902POPC   C3B34917  35.557  23.886   7.950
 5902POPC   C4B34918  35.482  23.922   7.650
 5903POPC   NC334919   1.168  11.348   9.450
 5903POPC   PO434920   1.252  11.283   9.150
 5903POPC   GL134921   1.173  11.315   8.850
 5903POPC   GL234922   1.293  11.461   8.850
 5903POPC   C1A34923   1.235  11.312   8.550
 5903POPC   D2A34924   1.196  11.270   8.250
 5903POPC   C3A34925   1.203  11.340   7.950
 5903POPC   C4A34926   1.261  11.285   7.650
 5903POPC   C1B34927   1.255  11.516   8.550
 5903POPC   C2B34928   1.293  11.584   8.250
 5903POPC   C3B34929   1.255  11.488   7.950
 5903POPC   C4B34930   1.335  11.565   7.650
 5904POPC   NC334931  43.876  19.092   9.450
 5904POPC   PO434932  43.924  19.028   9.150
 5904POPC   GL134933  43.910  19.100   8.850
 5904POPC   GL234934  43.779  19.139   8.850
 5904POPC   C1A34935  43.928  19.011   8.550
 5904POPC   D2A34936  43.913  19.083   8.250
 5904POPC   C3A34937  43.895  19.089   7.950
 5904POPC   C4A34938  43.868  19.076   7.650
 5904POPC   C1B34939  43.705  19.178   8.550
 5904POPC   C2B34940  43.668  19.171   8.250
 5904POPC   C3B34941  43.672  19.166   7.950
 5904POPC   C4B34942  43.681  19.133   7.650
 5905POPC   NC334943   1.208   1.175   9.450
 5905POPC   PO434944   1.206   1.230   9.150
 5905POPC   GL134945   1.243   1.206   8.850
 5905POPC   GL234946   1.133   1.139   8.850
 5905POPC   C1A34947   1.187   1.184   8.550
 5905POPC   D2A34948   1.221   1.254   8.250
 5905POPC   C3A34949   1.172   1.215   7.950
 5905POPC   C4A34950   1.221   1.226   7.650
 5905POPC   C1B34951   0.939   1.082   8.550
 5905POPC   C2B34952   0.993   1.136   8.250
 5905POPC   C3B34953   1.006   1.145   7.950
 5905POPC   C4B34954   0.974   1.079   7.650
 5906POPC   NC334955  26.091  11.304   9.450
 5906POPC   PO434956  26.067  11.252   9.150
 5906POPC   GL134957  26.073  11.343   8.850
 5906POPC   GL234958  26.011  11.190   8.850
 5906POPC   C1A34959  26.024  11.315   8.550
 5906POPC   D2A34960  26.017  11.328   8.250
 5906POPC   C3A34961  26.024  11.262   7.950
 5906POPC   C4A34962  26.041  11.269   7.650
 5906POPC   C1B34963  25.973  11.122   8.550
 5906POPC   C2B34964  25.895  11.081   8.250
 5906POPC   C3B34965  25.911  11.081   7.950
 5906POPC   C4B34966  25.899  11.075   7.650
 5907POPC   NC334967  19.869   8.932   9.450
 5907POPC   PO434968  19.862   9.019   9.150
 5907POPC   GL134969  19.790   8.940   8.850
 5907POPC   GL234970  19.721   8.882   8.850
 5907POPC   C1A34971  19.861   8.944   8.550
 5907POPC   D2A34972  19.856   8.946   8.250
 5907POPC   C3A34973  19.861   8.937   7.950
 5907POPC   C4A34974  19.796   8.969   7.650
 5907POPC   C1B34975  19.566   8.827   8.550
 5907POPC   C2B34976  19.589   8.824   8.250
 5907POPC   C3B34977  19.592   8.834   7.950
 5907POPC   C4B34978  19.638   8.818   7.650
 5908POPC   NC334979  36.863  39.214   9.450
 5908POPC   PO434980  36.899  39.281   9.150
 5908POPC   GL134981  36.922  39.187   8.850
 5908POPC   GL234982  36.883  39.104   8.850
 5908POPC   C1A34983  36.878  39.275   8.550
 5908POPC   D2A34984  36.921  39.214   8.250
 5908POPC   C3A34985  36.911  39.192   7.950
 5908POPC   C4A34986  36.952  39.224   7.650
 5908POPC   C1B34987  36.814  38.951   8.550
 5908POPC   C2B34988  36.796  38.999   8.250
 5908POPC   C3B34989  36.790  39.039   7.950
 5908POPC   C4B34990  36.856  39.012   7.650
 5909POPC   NC334991  26.055  34.589   9.450
 5909POPC   PO434992  25.997  34.573   9.150
 5909POPC   GL134993  26.063  34.548   8.850
 5909POPC   GL234994  26.070  34.482   8.850
 5909POPC   C1A34995  26.017  34.614   8.550
 5909POPC   D2A34996  26.040  34.556   8.250
 5909POPC   C3A34997  26.050  34.568   7.950
 5909POPC   C4A34998  26.059  34.623   7.650
 5909POPC   C1B34999  26.028  34.345   8.550
 5909POPC   C2B35000  26.033  34.288   8.250
 5909POPC   C3B35001  25.972  34.352   7.950
 5909POPC   C4B35002  26.054  34.295   7.650
 5910POPC   NC335003  33.837  18.304   9.450
 5910POPC   PO435004  33.820  18.330   9.150
 5910POPC   GL135005  33.799  18.259   8.850
 5910POPC   GL235006  33.716  18.162   8.850
 5910POPC   C1A35007  33.761  18.309   8.550
 5910POPC   D2A35008  33.800  18.251   8.250
 5910POPC   C3A35009  33.781  18.308   7.950
 5910POPC   C4A35010  33.848  18.258   7.650
 5910POPC   C1B35011  33.590  18.150   8.550
 5910POPC   C2B35012  33.587  18.160   8.250
 5910POPC   C3B35013  33.611  18.117   7.950
 5910POPC   C4B35014  33.599  18.136   7.650
 5911POPC   NC335015  28.356   9.790   9.450
 5911POPC   PO435016  28.407   9.727   9.150
 5911POPC   GL135017  28.404   9.756   8.850
 5911POPC   GL235018  28.291   9.793   8.850
 5911POPC   C1A35019  28.399   9.698   8.550
 5911POPC   D2A35020  28.368   9.762   8.250
 5911POPC   C3A35021  28.390   9.724   7.950
 5911POPC   C4A35022  28.370   9.765   7.650
 5911POPC   C1B35023  28.178   9.930   8.550
 5911POPC   C2B35024  28.187   9.890   8.250
 5911POPC   C3B35025  28.164   9.957   7.950
 5911POPC   C4B35026  28.161   9.897   7.650
 5912POPC   NC335027  38.427  22.161   9.450
 5912POPC   PO435028  38.451  22.159   9.150
 5912POPC   GL135029  38.468  22.112   8.850
 5912POPC   GL235030  38.617  22.221   8.850
 5912POPC   C1A35031  38.426  22.134   8.550
 5912POPC   D2A35032  38.498  22.188   8.250
 5912POPC   C3A35033  38.482  22.143   7.950
 5912POPC   C4A35034  38.456  22.137   7.650
 5912POPC   C1B35035  38.748  22.178   8.550
 5912POPC   C2B35036  38.732  22.241   8.250
 5912POPC   C3B35037  38.731  22.198   7.950
 5912POPC   C4B35038  38.690  22.202   7.650
 5913POPC   NC335039   7.419  43.845   9.450
 5913POPC   PO435040   7.437  43.929   9.150
 5913POPC   GL135041   7.382  43.858   8.850
 5913POPC   GL235042   7.324  43.797   8.850
 5913POPC   C1A35043   7.401  43.915   8.550
 5913POPC   D2A35044   7.398  43.933   8.250
 5913POPC   C3A35045   7.454  43.853   7.950
 5913POPC   C4A35046   7.417  43.897   7.650
 5913POPC   C1B35047   7.324  43.614   8.550
 5913POPC   C2B35048   7.344  43.684   8.250
 5913POPC   C3B35049   7.293  43.666   7.950
 5913POPC   C4B35050   7.355  43.636   7.650
 5914POPC   NC335051  33.804  23.721   9.450
 5914POPC   PO435052  33.825  23.731   9.150
 5914POPC   GL135053  33.782  23.679   8.850
 5914POPC   GL235054  33.822  23.839   8.850
 5914POPC   C1A35055  33.845  23.758   8.550
 5914POPC   D2A35056  33.781  23.673   8.250
 5914POPC   C3A35057  33.763  23.744   7.950
 5914POPC   C4A35058  33.816  23.738   7.650
 5914POPC   C1B35059  33.971  23.919   8.550
 5914POPC   C2B35060  33.933  23.913   8.250
 5914POPC   C3B35061  33.975  23.897   7.950
 5914POPC   C4B35062  33.914  23.932   7.650
 5915POPC   NC335063  39.254   9.745   9.450
 5915POPC   PO435064  39.223   9.728   9.150
 5915POPC   GL135065  39.275   9.723   8.850
 5915POPC   GL235066  39.306   9.695   8.850
 5915POPC   C1A35067  39.236   9.717   8.550
 5915POPC   D2A35068  39.253   9.716   8.250
 5915POPC   C3A35069  39.240   9.742   7.950
 5915POPC   C4A35070  39.246   9.774   7.650
 5915POPC   C1B35071  39.429   9.590   8.550
 5915POPC   C2B35072  39.410   9.606   8.250
 5915POPC   C3B35073  39.411   9.579   7.950
 5915POPC   C4B35074  39.403   9.595   7.650
 5916POPC   NC335075  43.909  27.598   9.450
 5916POPC   PO435076  43.914  27.612   9.150
 5916POPC   GL135077  43.876  27.577   8.850
 5916POPC   GL235078  44.028  27.701   8.850
 5916POPC   C1A35079  43.861  27.572   8.550
 5916POPC   D2A35080  43.908  27.592   8.250
 5916POPC   C3A35081  43.851  27.558   7.950
 5916POPC   C4A35082  43.855  27.555   7.650
 5916POPC   C1B35083  44.051  27.732   8.550
 5916POPC   C2B35084  44.055  27.701   8.250
 5916POPC   C3B35085  44.064  27.740   7.950
 5916POPC   C4B35086  44.121  27.785   7.650
 5917POPC   NC335087  19.092   9.776   9.450
 5917POPC   PO435088  19.028   9.763   9.150
 5917POPC   GL135089  19.023   9.759   8.850
 5917POPC   GL235090  19.232   9.802   8.850
 5917POPC   C1A35091  19.025   9.699   8.550
 5917POPC   D2A35092  19.060   9.759   8.250
 5917POPC   C3A35093  19.015   9.757   7.950
 5917POPC   C4A35094  19.086   9.769   7.650
 5917POPC   C1B35095  19.314   9.797   8.550
 5917POPC   C2B35096  19.270   9.818   8.250
 5917POPC   C3B35097  19.269   9.782   7.950
 5917POPC   C4B35098  19.332   9.737   7.650
 5918POPC   NC335099  13.585  14.439   9.450
 5918POPC   PO435100  13.607  14.365   9.150
 5918POPC   GL135101  13.596  14.434   8.850
 5918POPC   GL235102  13.587  14.319   8.850
 5918POPC   C1A35103  13.659  14.381   8.550
 5918POPC   D2A35104  13.603  14.445   8.250
 5918POPC   C3A35105  13.637  14.387   7.950
 5918POPC   C4A35106  13.649  14.398   7.650
 5918POPC   C1B35107  13.667  14.186   8.550
 5918POPC   C2B35108  13.669  14.176   8.250
 5918POPC   C3B35109  13.647  14.131   7.950
 5918POPC   C4B35110  13.646  14.133   7.650
 5919POPC   NC335111  42.295  38.434   9.450
 5919POPC   PO435112  42.290  38.471   9.150
 5919POPC   GL135113  42.355  38.447   8.850
 5919POPC   GL235114  42.298  38.520   8.850
 5919POPC   C1A35115  42.309  38.503   8.550
 5919POPC   D2A35116  42.351  38.421   8.250
 5919POPC   C3A35117  42.367  38.470   7.950
 5919POPC   C4A35118  42.337  38.418   7.650
 5919POPC   C1B35119  42.209  38.608   8.550
 5919POPC   C2B35120  42.154  38.674   8.250
 5919POPC   C3B35121  42.213  38.612   7.950
 5919POPC   C4B35122  42.222  38.638   7.650
 5920POPC   NC335123   2.808  19.074   9.450
 5920POPC   PO435124   2.790  19.013   9.150
 5920POPC   GL135125   2.743  19.048   8.850
 5920POPC   GL235126   2.869  19.157   8.850
 5920POPC   C1A35127   2.782  19.054   8.550
 5920POPC   D2A35128   2.751  19.009   8.250
 5920POPC   C3A35129   2.802  19.060   7.950
 5920POPC   C4A35130   2.718  19.070   7.650
 5920POPC   C1B35131   3.014  19.189   8.550
 5920POPC   C2B35132   2.998  19.162   8.250
 5920POPC   C3B35133   3.024  19.218   7.950
 5920POPC   C4B35134   2.964  19.219   7.650
 5921POPC   NC335135  12.858  21.407   9.450
 5921POPC   PO435136  12.812  21.388   9.150
 5921POPC   GL135137  12.840  21.374   8.850
 5921POPC   GL235138  12.743  21.372   8.850
 5921POPC   C1A35139  12.873  21.365   8.550
 5921POPC   D2A35140  12.809  21.350   8.250
 5921POPC   C3A35141  12.868  21.367   7.950
 5921POPC   C4A35142  12.804  21.425   7.650
 5921POPC   C1B35143  12.640  21.367   8.550
 5921POPC   C2B35144  12.567  21.364   8.250
 5921POPC   C3B35145  12.595  21.379   7.950
 5921POPC   C4B35146  12.594  21.458   7.650
 5922POPC   NC335147  18.315  30.723   9.450
 5922POPC   PO435148  18.287  30.674   9.150
 5922POPC   GL135149  18.297  30.696   8.850
 5922POPC   GL235150  18.358  30.622   8.850
 5922POPC   C1A35151  18.299  30.717   8.550
 5922POPC   D2A35152  18.266  30.676   8.250
 5922POPC   C3A35153  18.291  30.692   7.950
 5922POPC   C4A35154  18.317  30.691   7.650
 5922POPC   C1B35155  18.509  30.536   8.550
 5922POPC   C2B35156  18.434  30.519   8.250
 5922POPC   C3B35157  18.429  30.561   7.950
 5922POPC   C4B35158  18.479  30.549   7.650
 5923POPC   NC335159  15.912  36.151   9.450
 5923POPC   PO435160  15.931  36.139   9.150
 5923POPC   GL135161  15.943  36.159   8.850
 5923POPC   GL235162  15.902  36.012   8.850
 5923POPC   C1A35163  15.923  36.109   8.550
 5923POPC   D2A35164  15.939  36.135   8.250
 5923POPC   C3A35165  15.939  36.149   7.950
 5923POPC   C4A35166  15.938  36.104   7.650
 5923POPC   C1B35167  15.762  35.982   8.550
 5923POPC   C2B35168  15.833  35.919   8.250
 5923POPC   C3B35169  15.798  35.977   7.950
 5923POPC   C4B35170  15.819  35.981   7.650
 5924POPC   NC335171  40.760   8.189   9.450
 5924POPC   PO435172  40.754   8.212   9.150
 5924POPC   GL135173  40.777   8.202   8.850
 5924POPC   GL235174  40.931   8.187   8.850
 5924POPC   C1A35175  40.768   8.168   8.550
 5924POPC   D2A35176  40.741   8.173   8.250
 5924POPC   C3A35177  40.735   8.215   7.950
 5924POPC   C4A35178  40.755   8.159   7.650
 5924POPC   C1B35179  40.985   8.170   8.550
 5924POPC   C2B35180  41.030   8.114   8.250
 5924POPC   C3B35181  41.001   8.211   7.950
 5924POPC   C4B35182  41.024   8.134   7.650
 5925POPC   NC335183  44.625  36.856   9.450
 5925POPC   PO435184  44.670  36.924   9.150
 5925POPC   GL135185  44.680  36.908   8.850
 5925POPC   GL235186  44.746  36.872   8.850
 5925POPC   C1A35187  44.682  36.919   8.550
 5925POPC   D2A35188  44.621  36.862   8.250
 5925POPC   C3A35189  44.641  36.900   7.950
 5925POPC   C4A35190  44.646  36.854   7.650
 5925POPC   C1B35191  44.940  36.873   8.550
 5925POPC   C2B35192  44.954  36.898   8.250
 5925POPC   C3B35193  44.939  36.864   7.950
 5925POPC   C4B35194  44.947  36.907   7.650
 5926POPC   NC335195  16.730  24.511   9.450
 5926POPC   PO435196  16.709  24.513   9.150
 5926POPC   GL135197  16.704  24.473   8.850
 5926POPC   GL235198  16.584  24.414   8.850
 5926POPC   C1A35199  16.698  24.486   8.550
 5926POPC   D2A35200  16.713  24.523   8.250
 5926POPC   C3A35201  16.700  24.463   7.950
 5926POPC   C4A35202  16.771  24.539   7.650
 5926POPC   C1B35203  16.570  24.344   8.550
 5926POPC   C2B35204  16.502  24.350   8.250
 5926POPC   C3B35205  16.545  24.341   7.950
 5926POPC   C4B35206  16.544  24.336   7.650
 5927POPC   NC335207  26.003  36.120   9.450
 5927POPC   PO435208  26.016  36.139   9.150
 5927POPC   GL135209  26.040  36.140   8.850
 5927POPC   GL235210  25.936  36.227   8.850
 5927POPC   C1A35211  26.004  36.166   8.550
 5927POPC   D2A35212  26.036  36.109   8.250
 5927POPC   C3A35213  26.066  36.156   7.950
 5927POPC   C4A35214  26.004  36.109   7.650
 5927POPC   C1B35215  25.821  36.283   8.550
 5927POPC   C2B35216  25.815  36.276   8.250
 5927POPC   C3B35217  25.798  36.304   7.950
 5927POPC   C4B35218  25.864  36.261   7.650
 5928POPC   NC335219   8.947  26.777   9.450
 5928POPC   PO435220   8.927  26.852   9.150
 5928POPC   GL135221   9.012  26.789   8.850
 5928POPC   GL235222   9.136  26.881   8.850
 5928POPC   C1A35223   9.018  26.810   8.550
 5928POPC   D2A35224   8.992  26.812   8.250
 5928POPC   C3A35225   9.021  26.862   7.950
 5928POPC   C4A35226   8.939  26.855   7.650
 5928POPC   C1B35227   9.189  26.901   8.550
 5928POPC   C2B35228   9.245  26.942   8.250
 5928POPC   C3B35229   9.192  26.942   7.950
 5928POPC   C4B35230   9.206  26.847   7.650
 5929POPC   NC335231   8.217   0.479   9.450
 5929POPC   PO435232   8.195   0.483   9.150
 5929POPC   GL135233   8.184   0.446   8.850
 5929POPC   GL235234   8.041   0.457   8.850
 5929POPC   C1A35235   8.180   0.468   8.550
 5929POPC   D2A35236   8.153   0.426   8.250
 5929POPC   C3A35237   8.208   0.399   7.950
 5929POPC   C4A35238   8.231   0.393   7.650
 5929POPC   C1B35239   7.946   0.356   8.550
 5929POPC   C2B35240   7.938   0.415   8.250
 5929POPC   C3B35241   7.981   0.419   7.950
 5929POPC   C4B35242   7.994   0.414   7.650
 5930POPC   NC335243  38.439  42.348   9.450
 5930POPC   PO435244  38.473  42.294   9.150
 5930POPC   GL135245  38.409  42.304   8.850
 5930POPC   GL235246  38.375  42.382   8.850
 5930POPC   C1A35247  38.471  42.365   8.550
 5930POPC   D2A35248  38.468  42.293   8.250
 5930POPC   C3A35249  38.501  42.329   7.950
 5930POPC   C4A35250  38.460  42.376   7.650
 5930POPC   C1B35251  38.261  42.459   8.550
 5930POPC   C2B35252  38.219  42.435   8.250
 5930POPC   C3B35253  38.214  42.496   7.950
 5930POPC   C4B35254  38.287  42.444   7.650
 5931POPC   NC335255  38.415  20.645   9.450
 5931POPC   PO435256  38.483  20.569   9.150
 5931POPC   GL135257  38.465  20.584   8.850
 5931POPC   GL235258  38.555  20.509   8.850
 5931POPC   C1A35259  38.432  20.594   8.550
 5931POPC   D2A35260  38.413  20.607   8.250
 5931POPC   C3A35261  38.476  20.644   7.950
 5931POPC   C4A35262  38.473  20.651   7.650
 5931POPC   C1B35263  38.537  20.368   8.550
 5931POPC   C2B35264  38.583  20.425   8.250
 5931POPC   C3B35265  38.588  20.353   7.950
 5931POPC   C4B35266  38.555  20.373   7.650
 5932POPC   NC335267  39.196   8.215   9.450
 5932POPC   PO435268  39.188   8.196   9.150
 5932POPC   GL135269  39.258   8.209   8.850
 5932POPC   GL235270  39.383   8.276   8.850
 5932POPC   C1A35271  39.198   8.166   8.550
 5932POPC   D2A35272  39.196   8.164   8.250
 5932POPC   C3A35273  39.203   8.170   7.950
 5932POPC   C4A35274  39.237   8.189   7.650
 5932POPC   C1B35275  39.420   8.260   8.550
 5932POPC   C2B35276  39.415   8.299   8.250
 5932POPC   C3B35277  39.458   8.356   7.950
 5932POPC   C4B35278  39.414   8.291   7.650
 5933POPC   NC335279  24.456   9.715   9.450
 5933POPC   PO435280  24.501   9.756   9.150
 5933POPC   GL135281  24.485   9.759   8.850
 5933POPC   GL235282  24.569   9.750   8.850
 5933POPC   C1A35283  24.462   9.782   8.550
 5933POPC   D2A35284  24.493   9.774   8.250
 5933POPC   C3A35285  24.447   9.793   7.950
 5933POPC   C4A35286  24.488   9.715   7.650
 5933POPC   C1B35287  24.751   9.687   8.550
 5933POPC   C2B35288  24.691   9.766   8.250
 5933POPC   C3B35289  24.732   9.713   7.950
 5933POPC   C4B35290  24.754   9.727   7.650
 5934POPC   NC335291  37.635  25.232   9.450
 5934POPC   PO435292  37.652  25.292   9.150
 5934POPC   GL135293  37.651  25.279   8.850
 5934POPC   GL235294  37.643  25.120   8.850
 5934POPC   C1A35295  37.701  25.307   8.550
 5934POPC   D2A35296  37.708  25.268   8.250
 5934POPC   C3A35297  37.687  25.313   7.950
 5934POPC   C4A35298  37.717  25.218   7.650
 5934POPC   C1B35299  37.614  25.043   8.550
 5934POPC   C2B35300  37.574  25.055   8.250
 5934POPC   C3B35301  37.576  25.023   7.950
 5934POPC   C4B35302  37.598  25.056   7.650
 5935POPC   NC335303   5.849   3.558   9.450
 5935POPC   PO435304   5.893   3.565   9.150
 5935POPC   GL135305   5.843   3.501   8.850
 5935POPC   GL235306   5.934   3.696   8.850
 5935POPC   C1A35307   5.858   3.521   8.550
 5935POPC   D2A35308   5.825   3.547   8.250
 5935POPC   C3A35309   5.874   3.566   7.950
 5935POPC   C4A35310   5.834   3.494   7.650
 5935POPC   C1B35311   6.011   3.738   8.550
 5935POPC   C2B35312   6.008   3.765   8.250
 5935POPC   C3B35313   5.970   3.788   7.950
 5935POPC   C4B35314   6.015   3.749   7.650
 5936POPC   NC335315  33.796  28.324   9.450
 5936POPC   PO435316  33.791  28.411   9.150
 5936POPC   GL135317  33.841  28.404   8.850
 5936POPC   GL235318  33.926  28.439   8.850
 5936POPC   C1A35319  33.756  28.326   8.550
 5936POPC   D2A35320  33.805  28.342   8.250
 5936POPC   C3A35321  33.814  28.405   7.950
 5936POPC   C4A35322  33.833  28.413   7.650
 5936POPC   C1B35323  34.028  28.453   8.550
 5936POPC   C2B35324  34.069  28.459   8.250
 5936POPC   C3B35325  34.059  28.442   7.950
 5936POPC   C4B35326  33.987  28.477   7.650
 5937POPC   NC335327  41.556   0.404   9.450
 5937POPC   PO435328  41.519   0.439   9.150
 5937POPC   GL135329  41.571   0.415   8.850
 5937POPC   GL235330  41.570   0.270   8.850
 5937POPC   C1A35331  41.604   0.419   8.550
 5937POPC   D2A35332  41.586   0.392   8.250
 5937POPC   C3A35333  41.579   0.475   7.950
 5937POPC   C4A35334  41.602   0.431   7.650
 5937POPC   C1B35335  41.557   0.217   8.550
 5937POPC   C2B35336  41.578   0.196   8.250
 5937POPC   C3B35337  41.502   0.147   7.950
 5937POPC   C4B35338  41.562   0.219   7.650
 5938POPC   NC335339  27.590   0.424   9.450
 5938POPC   PO435340  27.581   0.469   9.150
 5938POPC   GL135341  27.597   0.419   8.850
 5938POPC   GL235342  27.593   0.356   8.850
 5938POPC   C1A35343  27.560   0.469   8.550
 5938POPC   D2A35344  27.588   0.401   8.250
 5938POPC   C3A35345  27.636   0.431   7.950
 5938POPC   C4A35346  27.596   0.452   7.650
 5938POPC   C1B35347  27.681   0.174   8.550
 5938POPC   C2B35348  27.626   0.178   8.250
 5938POPC   C3B35349  27.621   0.188   7.950
 5938POPC   C4B35350  27.655   0.205   7.650
 5939POPC   NC335351  19.846  39.957   9.450
 5939POPC   PO435352  19.828  40.001   9.150
 5939POPC   GL135353  19.869  39.976   8.850
 5939POPC   GL235354  19.719  40.029   8.850
 5939POPC   C1A35355  19.883  40.030   8.550
 5939POPC   D2A35356  19.793  39.959   8.250
 5939POPC   C3A35357  19.841  40.034   7.950
 5939POPC   C4A35358  19.791  40.028   7.650
 5939POPC   C1B35359  19.623  40.049   8.550
 5939POPC   C2B35360  19.553  40.002   8.250
 5939POPC   C3B35361  19.548  39.981   7.950
 5939POPC   C4B35362  19.554  39.983   7.650
 5940POPC   NC335363  36.921  35.371   9.450
 5940POPC   PO435364  36.864  35.352   9.150
 5940POPC   GL135365  36.912  35.317   8.850
 5940POPC   GL235366  36.891  35.240   8.850
 5940POPC   C1A35367  36.860  35.381   8.550
 5940POPC   D2A35368  36.881  35.366   8.250
 5940POPC   C3A35369  36.945  35.329   7.950
 5940POPC   C4A35370  36.930  35.339   7.650
 5940POPC   C1B35371  36.846  35.072   8.550
 5940POPC   C2B35372  36.812  35.164   8.250
 5940POPC   C3B35373  36.828  35.098   7.950
 5940POPC   C4B35374  36.821  35.110   7.650
 5941POPC   NC335375   2.796  11.307   9.450
 5941POPC   PO435376   2.782  11.327   9.150
 5941POPC   GL135377   2.780  11.253   8.850
 5941POPC   GL235378   2.668  11.257   8.850
 5941POPC   C1A35379   2.744  11.287   8.550
 5941POPC   D2A35380   2.739  11.348   8.250
 5941POPC   C3A35381   2.729  11.326   7.950
 5941POPC   C4A35382   2.725  11.323   7.650
 5941POPC   C1B35383   2.618  11.099   8.550
 5941POPC   C2B35384   2.579  11.151   8.250
 5941POPC   C3B35385   2.572  11.143   7.950
 5941POPC   C4B35386   2.620  11.094   7.650
 5942POPC   NC335387   5.127  21.358   9.450
 5942POPC   PO435388   5.044  21.384   9.150
 5942POPC   GL135389   5.120  21.368   8.850
 5942POPC   GL235390   5.007  21.273   8.850
 5942POPC   C1A35391   5.057  21.401   8.550
 5942POPC   D2A35392   5.137  21.388   8.250
 5942POPC   C3A35393   5.077  21.384   7.950
 5942POPC   C4A35394   5.046  21.434   7.650
 5942POPC   C1B35395   4.925  21.215   8.550
 5942POPC   C2B35396   4.994  21.142   8.250
 5942POPC   C3B35397   4.984  21.199   7.950
 5942POPC   C4B35398   5.008  21.188   7.650
 5943POPC   NC335399   5.821  29.877   9.450
 5943POPC   PO435400   5.913  29.934   9.150
 5943POPC   GL135401   5.908  29.906   8.850
 5943POPC   GL235402   5.947  29.782   8.850
 5943POPC   C1A35403   5.900  29.921   8.550
 5943POPC   D2A35404   5.843  29.952   8.250
 5943POPC   C3A35405   5.857  29.884   7.950
 5943POPC   C4A35406   5.821  29.910   7.650
 5943POPC   C1B35407   5.972  29.707   8.550
 5943POPC   C2B35408   5.985  29.678   8.250
 5943POPC   C3B35409   5.963  29.630   7.950
 5943POPC   C4B35410   5.911  29.724   7.650
 5944POPC   NC335411   0.430   5.886   9.450
 5944POPC   PO435412   0.482   5.880   9.150
 5944POPC   GL135413   0.422   5.841   8.850
 5944POPC   GL235414   0.370   5.884   8.850
 5944POPC   C1A35415   0.465   5.853   8.550
 5944POPC   D2A35416   0.456   5.844   8.250
 5944POPC   C3A35417   0.471   5.848   7.950
 5944POPC   C4A35418   0.482   5.910   7.650
 5944POPC   C1B35419   0.226   5.997   8.550
 5944POPC   C2B35420   0.199   5.951   8.250
 5944POPC   C3B35421   0.197   5.932   7.950
 5944POPC   C4B35422   0.230   5.943   7.650
 5945POPC   NC335423   1.210  28.403   9.450
 5945POPC   PO435424   1.225  28.333   9.150
 5945POPC   GL135425   1.215  28.375   8.850
 5945POPC   GL235426   1.219  28.483   8.850
 5945POPC   C1A35427   1.191  28.390   8.550
 5945POPC   D2A35428   1.219  28.346   8.250
 5945POPC   C3A35429   1.256  28.322   7.950
 5945POPC   C4A35430   1.211  28.386   7.650
 5945POPC   C1B35431   1.117  28.559   8.550
 5945POPC   C2B35432   1.088  28.567   8.250
 5945POPC   C3B35433   1.138  28.554   7.950
 5945POPC   C4B35434   1.085  28.583   7.650
 5946POPC   NC335435   3.552  33.800   9.450
 5946POPC   PO435436   3.539  33.776   9.150
 5946POPC   GL135437   3.581  33.771   8.850
 5946POPC   GL235438   3.483  33.672   8.850
 5946POPC   C1A35439   3.502  33.821   8.550
 5946POPC   D2A35440   3.554  33.782   8.250
 5946POPC   C3A35441   3.588  33.770   7.950
 5946POPC   C4A35442   3.555  33.773   7.650
 5946POPC   C1B35443   3.465  33.553   8.550
 5946POPC   C2B35444   3.458  33.603   8.250
 5946POPC   C3B35445   3.452  33.609   7.950
 5946POPC   C4B35446   3.427  33.594   7.650
 5947POPC   NC335447   2.766   7.407   9.450
 5947POPC   PO435448   2.801   7.448   9.150
 5947POPC   GL135449   2.783   7.453   8.850
 5947POPC   GL235450   2.640   7.373   8.850
 5947POPC   C1A35451   2.761   7.386   8.550
 5947POPC   D2A35452   2.783   7.445   8.250
 5947POPC   C3A35453   2.749   7.470   7.950
 5947POPC   C4A35454   2.783   7.373   7.650
 5947POPC   C1B35455   2.611   7.287   8.550
 5947POPC   C2B35456   2.590   7.285   8.250
 5947POPC   C3B35457   2.614   7.276   7.950
 5947POPC   C4B35458   2.633   7.274   7.650
 5948POPC   NC335459  26.051   4.361   9.450
 5948POPC   PO435460  26.041   4.315   9.150
 5948POPC   GL135461  25.992   4.320   8.850
 5948POPC   GL235462  26.006   4.433   8.850
 5948POPC   C1A35463  26.048   4.296   8.550
 5948POPC   D2A35464  26.086   4.282   8.250
 5948POPC   C3A35465  26.003   4.303   7.950
 5948POPC   C4A35466  26.071   4.302   7.650
 5948POPC   C1B35467  25.961   4.589   8.550
 5948POPC   C2B35468  25.981   4.561   8.250
 5948POPC   C3B35469  25.995   4.594   7.950
 5948POPC   C4B35470  25.952   4.554   7.650
 5949POPC   NC335471  20.602  36.155   9.450
 5949POPC   PO435472  20.627  36.171   9.150
 5949POPC   GL135473  20.597  36.130   8.850
 5949POPC   GL235474  20.703  36.088   8.850
 5949POPC   C1A35475  20.586  36.174   8.550
 5949POPC   D2A35476  20.581  36.146   8.250
 5949POPC   C3A35477  20.578  36.114   7.950
 5949POPC   C4A35478  20.560  36.116   7.650
 5949POPC   C1B35479  20.893  36.179   8.550
 5949POPC   C2B35480  20.905  36.105   8.250
 5949POPC   C3B35481  20.822  36.106   7.950
 5949POPC   C4B35482  20.898  36.119   7.650
 5950POPC   NC335483  26.045  29.923   9.450
 5950POPC   PO435484  26.083  29.918   9.150
 5950POPC   GL135485  26.079  29.879   8.850
 5950POPC   GL235486  25.906  29.966   8.850
 5950POPC   C1A35487  26.040  29.905   8.550
 5950POPC   D2A35488  26.078  29.950   8.250
 5950POPC   C3A35489  26.040  29.955   7.950
 5950POPC   C4A35490  26.090  29.916   7.650
 5950POPC   C1B35491  25.791  29.960   8.550
 5950POPC   C2B35492  25.782  29.907   8.250
 5950POPC   C3B35493  25.826  29.929   7.950
 5950POPC   C4B35494  25.764  29.960   7.650
 5951POPC   NC335495   6.680  37.662   9.450
 5951POPC   PO435496   6.634  37.647   9.150
 5951POPC   GL135497   6.602  37.718   8.850
 5951POPC   GL235498   6.498  37.690   8.850
 5951POPC   C1A35499   6.684  37.728   8.550
 5951POPC   D2A35500   6.628  37.645   8.250
 5951POPC   C3A35501   6.606  37.691   7.950
 5951POPC   C4A35502   6.648  37.692   7.650
 5951POPC   C1B35503   6.361  37.693   8.550
 5951POPC   C2B35504   6.415  37.719   8.250
 5951POPC   C3B35505   6.431  37.745   7.950
 5951POPC   C4B35506   6.439  37.750   7.650
 5952POPC   NC335507   6.605  35.314   9.450
 5952POPC   PO435508   6.682  35.366   9.150
 5952POPC   GL135509   6.615  35.378   8.850
 5952POPC   GL235510   6.701  35.412   8.850
 5952POPC   C1A35511   6.611  35.322   8.550
 5952POPC   D2A35512   6.640  35.363   8.250
 5952POPC   C3A35513   6.664  35.313   7.950
 5952POPC   C4A35514   6.690  35.380   7.650
 5952POPC   C1B35515   6.810  35.528   8.550
 5952POPC   C2B35516   6.791  35.605   8.250
 5952POPC   C3B35517   6.745  35.613   7.950
 5952POPC   C4B35518   6.727  35.541   7.650
 5953POPC   NC335519  18.279  26.073   9.450
 5953POPC   PO435520  18.249  26.058   9.150
 5953POPC   GL135521  18.313  26.060   8.850
 5953POPC   GL235522  18.357  26.130   8.850
 5953POPC   C1A35523  18.320  26.009   8.550
 5953POPC   D2A35524  18.304  25.996   8.250
 5953POPC   C3A35525  18.295  26.085   7.950
 5953POPC   C4A35526  18.256  26.036   7.650
 5953POPC   C1B35527  18.465  26.236   8.550
 5953POPC   C2B35528  18.460  26.237   8.250
 5953POPC   C3B35529  18.439  26.230   7.950
 5953POPC   C4B35530  18.487  26.231   7.650
 5954POPC   NC335531   5.106  32.208   9.450
 5954POPC   PO435532   5.054  32.224   9.150
 5954POPC   GL135533   5.093  32.227   8.850
 5954POPC   GL235534   5.065  32.085   8.850
 5954POPC   C1A35535   5.087  32.275   8.550
 5954POPC   D2A35536   5.124  32.272   8.250
 5954POPC   C3A35537   5.084  32.249   7.950
 5954POPC   C4A35538   5.081  32.276   7.650
 5954POPC   C1B35539   5.128  31.983   8.550
 5954POPC   C2B35540   5.088  31.972   8.250
 5954POPC   C3B35541   5.057  31.994   7.950
 5954POPC   C4B35542   5.103  32.006   7.650
 5955POPC   NC335543  34.534  10.514   9.450
 5955POPC   PO435544  34.598  10.555   9.150
 5955POPC   GL135545  34.593  10.546   8.850
 5955POPC   GL235546  34.555  10.386   8.850
 5955POPC   C1A35547  34.573  10.511   8.550
 5955POPC   D2A35548  34.620  10.478   8.250
 5955POPC   C3A35549  34.563  10.481   7.950
 5955POPC   C4A35550  34.576  10.566   7.650
 5955POPC   C1B35551  34.662  10.327   8.550
 5955POPC   C2B35552  34.642  10.247   8.250
 5955POPC   C3B35553  34.609  10.294   7.950
 5955POPC   C4B35554  34.621  10.266   7.650
 5956POPC   NC335555   6.628  43.149   9.450
 5956POPC   PO435556   6.692  43.141   9.150
 5956POPC   GL135557   6.629  43.084   8.850
 5956POPC   GL235558   6.766  43.204   8.850
 5956POPC   C1A35559   6.676  43.088   8.550
 5956POPC   D2A35560   6.670  43.133   8.250
 5956POPC   C3A35561   6.667  43.087   7.950
 5956POPC   C4A35562   6.627  43.073   7.650
 5956POPC   C1B35563   6.844  43.298   8.550
 5956POPC   C2B35564   6.797  43.255   8.250
 5956POPC   C3B35565   6.820  43.269   7.950
 5956POPC   C4B35566   6.798  43.316   7.650
 5957POPC   NC335567  23.751  22.128   9.450
 5957POPC   PO435568  23.701  22.210   9.150
 5957POPC   GL135569  23.735  22.197   8.850
 5957POPC   GL235570  23.842  22.184   8.850
 5957POPC   C1A35571  23.694  22.180   8.550
 5957POPC   D2A35572  23.692  22.128   8.250
 5957POPC   C3A35573  23.712  22.174   7.950
 5957POPC   C4A35574  23.720  22.170   7.650
 5957POPC   C1B35575  23.947  22.287   8.550
 5957POPC   C2B35576  23.902  22.268   8.250
 5957POPC   C3B35577  23.902  22.277   7.950
 5957POPC   C4B35578  23.975  22.215   7.650
 5958POPC   NC335579  42.296  24.514   9.450
 5958POPC   PO435580  42.328  24.452   9.150
 5958POPC   GL135581  42.296  24.532   8.850
 5958POPC   GL235582  42.430  24.419   8.850
 5958POPC   C1A35583  42.303  24.510   8.550
 5958POPC   D2A35584  42.379  24.462   8.250
 5958POPC   C3A35585  42.371  24.461   7.950
 5958POPC   C4A35586  42.373  24.442   7.650
 5958POPC   C1B35587  42.486  24.324   8.550
 5958POPC   C2B35588  42.484  24.304   8.250
 5958POPC   C3B35589  42.484  24.316   7.950
 5958POPC   C4B35590  42.553  24.309   7.650
 5959POPC   NC335591   1.955  32.975   9.450
 5959POPC   PO435592   1.978  33.052   9.150
 5959POPC   GL135593   2.024  32.979   8.850
 5959POPC   GL235594   2.069  33.062   8.850
 5959POPC   C1A35595   2.036  33.049   8.550
 5959POPC   D2A35596   1.974  33.068   8.250
 5959POPC   C3A35597   2.031  32.985   7.950
 5959POPC   C4A35598   2.000  33.070   7.650
 5959POPC   C1B35599   2.234  33.047   8.550
 5959POPC   C2B35600   2.217  33.060   8.250
 5959POPC   C3B35601   2.248  32.971   7.950
 5959POPC   C4B35602   2.209  32.993   7.650
 5960POPC   NC335603  19.789   4.345   9.450
 5960POPC   PO435604  19.840   4.274   9.150
 5960POPC   GL135605  19.787   4.289   8.850
 5960POPC   GL235606  19.872   4.228   8.850
 5960POPC   C1A35607  19.844   4.310   8.550
 5960POPC   D2A35608  19.794   4.299   8.250
 5960POPC   C3A35609  19.799   4.295   7.950
 5960POPC   C4A35610  19.858   4.327   7.650
 5960POPC   C1B35611  19.799   4.071   8.550
 5960POPC   C2B35612  19.887   4.066   8.250
 5960POPC   C3B35613  19.791   4.072   7.950
 5960POPC   C4B35614  19.803   4.046   7.650
 5961POPC   NC335615  15.951  27.598   9.450
 5961POPC   PO435616  15.988  27.604   9.150
 5961POPC   GL135617  15.911  27.559   8.850
 5961POPC   GL235618  15.887  27.510   8.850
 5961POPC   C1A35619  15.982  27.550   8.550
 5961POPC   D2A35620  15.965  27.592   8.250
 5961POPC   C3A35621  15.937  27.564   7.950
 5961POPC   C4A35622  15.964  27.606   7.650
 5961POPC   C1B35623  15.712  27.426   8.550
 5961POPC   C2B35624  15.769  27.440   8.250
 5961POPC   C3B35625  15.755  27.416   7.950
 5961POPC   C4B35626  15.757  27.401   7.650
 5962POPC   NC335627  34.582   1.947   9.450
 5962POPC   PO435628  34.620   1.950   9.150
 5962POPC   GL135629  34.553   1.950   8.850
 5962POPC   GL235630  34.746   1.926   8.850
 5962POPC   C1A35631  34.582   1.992   8.550
 5962POPC   D2A35632  34.541   1.963   8.250
 5962POPC   C3A35633  34.603   1.994   7.950
 5962POPC   C4A35634  34.566   1.989   7.650
 5962POPC   C1B35635  34.810   1.962   8.550
 5962POPC   C2B35636  34.829   1.962   8.250
 5962POPC   C3B35637  34.814   1.890   7.950
 5962POPC   C4B35638  34.786   1.890   7.650
 5963POPC   NC335639  43.134  29.175   9.450
 5963POPC   PO435640  43.069  29.167   9.150
 5963POPC   GL135641  43.148  29.109   8.850
 5963POPC   GL235642  43.211  29.086   8.850
 5963POPC   C1A35643  43.071  29.127   8.550
 5963POPC   D2A35644  43.148  29.167   8.250
 5963POPC   C3A35645  43.114  29.096   7.950
 5963POPC   C4A35646  43.160  29.117   7.650
 5963POPC   C1B35647  43.401  29.110   8.550
 5963POPC   C2B35648  43.392  29.059   8.250
 5963POPC   C3B35649  43.388  29.106   7.950
 5963POPC   C4B35650  43.382  29.098   7.650
 5964POPC   NC335651   8.174  36.862   9.450
 5964POPC   PO435652   8.219  36.889   9.150
 5964POPC   GL135653   8.182  36.887   8.850
 5964POPC   GL235654   8.177  36.734   8.850
 5964POPC   C1A35655   8.207  36.881   8.550
 5964POPC   D2A35656   8.222  36.858   8.250
 5964POPC   C3A35657   8.164  36.894   7.950
 5964POPC   C4A35658   8.214  36.857   7.650
 5964POPC   C1B35659   8.202  36.621   8.550
 5964POPC   C2B35660   8.278  36.655   8.250
 5964POPC   C3B35661   8.281  36.626   7.950
 5964POPC   C4B35662   8.202  36.686   7.650
 5965POPC   NC335663  16.728  32.242   9.450
 5965POPC   PO435664  16.778  32.292   9.150
 5965POPC   GL135665  16.745  32.260   8.850
 5965POPC   GL235666  16.643  32.330   8.850
 5965POPC   C1A35667  16.759  32.222   8.550
 5965POPC   D2A35668  16.716  32.252   8.250
 5965POPC   C3A35669  16.725  32.287   7.950
 5965POPC   C4A35670  16.689  32.213   7.650
 5965POPC   C1B35671  16.592  32.453   8.550
 5965POPC   C2B35672  16.658  32.519   8.250
 5965POPC   C3B35673  16.617  32.436   7.950
 5965POPC   C4B35674  16.659  32.457   7.650
 5966POPC   NC335675  17.492  39.999   9.450
 5966POPC   PO435676  17.508  40.046   9.150
 5966POPC   GL135677  17.545  40.042   8.850
 5966POPC   GL235678  17.462  39.906   8.850
 5966POPC   C1A35679  17.488  40.054   8.550
 5966POPC   D2A35680  17.468  40.025   8.250
 5966POPC   C3A35681  17.554  40.025   7.950
 5966POPC   C4A35682  17.544  39.979   7.650
 5966POPC   C1B35683  17.416  39.735   8.550
 5966POPC   C2B35684  17.389  39.734   8.250
 5966POPC   C3B35685  17.417  39.739   7.950
 5966POPC   C4B35686  17.448  39.733   7.650
 5967POPC   NC335687   1.218  40.769   9.450
 5967POPC   PO435688   1.219  40.737   9.150
 5967POPC   GL135689   1.193  40.775   8.850
 5967POPC   GL235690   1.178  40.937   8.850
 5967POPC   C1A35691   1.226  40.813   8.550
 5967POPC   D2A35692   1.210  40.817   8.250
 5967POPC   C3A35693   1.169  40.777   7.950
 5967POPC   C4A35694   1.243  40.747   7.650
 5967POPC   C1B35695   1.106  40.978   8.550
 5967POPC   C2B35696   1.139  41.046   8.250
 5967POPC   C3B35697   1.092  40.972   7.950
 5967POPC   C4B35698   1.059  41.008   7.650
 5968POPC   NC335699   1.195  24.502   9.450
 5968POPC   PO435700   1.252  24.472   9.150
 5968POPC   GL135701   1.259  24.486   8.850
 5968POPC   GL235702   1.115  24.582   8.850
 5968POPC   C1A35703   1.170  24.509   8.550
 5968POPC   D2A35704   1.205  24.486   8.250
 5968POPC   C3A35705   1.196  24.508   7.950
 5968POPC   C4A35706   1.243  24.496   7.650
 5968POPC   C1B35707   1.072  24.745   8.550
 5968POPC   C2B35708   1.102  24.706   8.250
 5968POPC   C3B35709   1.061  24.665   7.950
 5968POPC   C4B35710   1.103  24.665   7.650
 5969POPC   NC335711  38.407  29.962   9.450
 5969POPC   PO435712  38.445  29.888   9.150
 5969POPC   GL135713  38.460  29.899   8.850
 5969POPC   GL235714  38.583  29.954   8.850
 5969POPC   C1A35715  38.442  29.923   8.550
 5969POPC   D2A35716  38.497  29.903   8.250
 5969POPC   C3A35717  38.488  29.933   7.950
 5969POPC   C4A35718  38.487  29.904   7.650
 5969POPC   C1B35719  38.739  29.988   8.550
 5969POPC   C2B35720  38.655  29.976   8.250
 5969POPC   C3B35721  38.687  29.999   7.950
 5969POPC   C4B35722  38.691  29.995   7.650
 5970POPC   NC335723  36.088   4.311   9.450
 5970POPC   PO435724  36.081   4.363   9.150
 5970POPC   GL135725  36.078   4.316   8.850
 5970POPC   GL235726  36.218   4.190   8.850
 5970POPC   C1A35727  36.097   4.268   8.550
 5970POPC   D2A35728  36.096   4.326   8.250
 5970POPC   C3A35729  36.139   4.273   7.950
 5970POPC   C4A35730  36.170   4.287   7.650
 5970POPC   C1B35731  36.329   4.141   8.550
 5970POPC   C2B35732  36.325   4.194   8.250
 5970POPC   C3B35733  36.272   4.105   7.950
 5970POPC   C4B35734  36.293   4.122   7.650
 5971POPC   NC335735   8.931  22.158   9.450
 5971POPC   PO435736   8.938  22.192   9.150
 5971POPC   GL135737   9.002  22.197   8.850
 5971POPC   GL235738   8.895  22.114   8.850
 5971POPC   C1A35739   9.017  22.154   8.550
 5971POPC   D2A35740   8.977  22.164   8.250
 5971POPC   C3A35741   8.957  22.186   7.950
 5971POPC   C4A35742   8.926  22.139   7.650
 5971POPC   C1B35743   8.765  22.013   8.550
 5971POPC   C2B35744   8.734  22.070   8.250
 5971POPC   C3B35745   8.745  22.044   7.950
 5971POPC   C4B35746   8.747  22.018   7.650
 5972POPC   NC335747  30.698  36.165   9.450
 5972POPC   PO435748  30.663  36.078   9.150
 5972POPC   GL135749  30.666  36.110   8.850
 5972POPC   GL235750  30.755  36.278   8.850
 5972POPC   C1A35751  30.676  36.084   8.550
 5972POPC   D2A35752  30.741  36.136   8.250
 5972POPC   C3A35753  30.727  36.163   7.950
 5972POPC   C4A35754  30.701  36.160   7.650
 5972POPC   C1B35755  30.722  36.408   8.550
 5972POPC   C2B35756  30.782  36.373   8.250
 5972POPC   C3B35757  30.806  36.406   7.950
 5972POPC   C4B35758  30.736  36.366   7.650
 5973POPC   NC335759  20.622  12.041   9.450
 5973POPC   PO435760  20.621  12.090   9.150
 5973POPC   GL135761  20.596  12.124   8.850
 5973POPC   GL235762  20.504  12.024   8.850
 5973POPC   C1A35763  20.596  12.054   8.550
 5973POPC   D2A35764  20.593  12.052   8.250
 5973POPC   C3A35765  20.628  12.061   7.950
 5973POPC   C4A35766  20.586  12.078   7.650
 5973POPC   C1B35767  20.399  11.947   8.550
 5973POPC   C2B35768  20.330  12.014   8.250
 5973POPC   C3B35769  20.369  12.016   7.950
 5973POPC   C4B35770  20.380  11.944   7.650
 5974POPC   NC335771   6.654   6.598   9.450
 5974POPC   PO435772   6.682   6.642   9.150
 5974POPC   GL135773   6.610   6.663   8.850
 5974POPC   GL235774   6.701   6.544   8.850
 5974POPC   C1A35775   6.620   6.685   8.550
 5974POPC   D2A35776   6.685   6.612   8.250
 5974POPC   C3A35777   6.661   6.680   7.950
 5974POPC   C4A35778   6.630   6.624   7.650
 5974POPC   C1B35779   6.821   6.450   8.550
 5974POPC   C2B35780   6.873   6.510   8.250
 5974POPC   C3B35781   6.841   6.491   7.950
 5974POPC   C4B35782   6.818   6.460   7.650
 5975POPC   NC335783   1.993  18.250   9.450
 5975POPC   PO435784   1.956  18.246   9.150
 5975POPC   GL135785   1.977  18.324   8.850
 5975POPC   GL235786   1.872  18.330   8.850
 5975POPC   C1A35787   1.947  18.235   8.550
 5975POPC   D2A35788   1.966  18.258   8.250
 5975POPC   C3A35789   2.039  18.243   7.950
 5975POPC   C4A35790   1.943  18.318   7.650
 5975POPC   C1B35791   1.809  18.495   8.550
 5975POPC   C2B35792   1.823  18.499   8.250
 5975POPC   C3B35793   1.833  18.448   7.950
 5975POPC   C4B35794   1.843  18.506   7.650
 5976POPC   NC335795  15.199   0.432   9.450
 5976POPC   PO435796  15.178   0.440   9.150
 5976POPC   GL135797  15.221   0.432   8.850
 5976POPC   GL235798  15.098   0.446   8.850
 5976POPC   C1A35799  15.159   0.436   8.550
 5976POPC   D2A35800  15.159   0.459   8.250
 5976POPC   C3A35801  15.228   0.453   7.950
 5976POPC   C4A35802  15.136   0.468   7.650
 5976POPC   C1B35803  14.969   0.393   8.550
 5976POPC   C2B35804  14.913   0.385   8.250
 5976POPC   C3B35805  14.967   0.388   7.950
 5976POPC   C4B35806  14.895   0.395   7.650
 5977POPC   NC335807  28.332  14.370   9.450
 5977POPC   PO435808  28.385  14.412   9.150
 5977POPC   GL135809  28.329  14.448   8.850
 5977POPC   GL235810  28.422  14.272   8.850
 5977POPC   C1A35811  28.327  14.414   8.550
 5977POPC   D2A35812  28.399  14.396   8.250
 5977POPC   C3A35813  28.370  14.404   7.950
 5977POPC   C4A35814  28.338  14.383   7.650
 5977POPC   C1B35815  28.538  14.232   8.550
 5977POPC   C2B35816  28.526  14.262   8.250
 5977POPC   C3B35817  28.531  14.262   7.950
 5977POPC   C4B35818  28.557  14.246   7.650
 5978POPC   NC335819  44.679   2.768   9.450
 5978POPC   PO435820  44.702   2.815   9.150
 5978POPC   GL135821  44.628   2.729   8.850
 5978POPC   GL235822  44.543   2.774   8.850
 5978POPC   C1A35823  44.689   2.725   8.550
 5978POPC   D2A35824  44.618   2.732   8.250
 5978POPC   C3A35825  44.668   2.804   7.950
 5978POPC   C4A35826  44.662   2.781   7.650
 5978POPC   C1B35827  44.433   2.709   8.550
 5978POPC   C2B35828  44.363   2.721   8.250
 5978POPC   C3B35829  44.423   2.790   7.950
 5978POPC   C4B35830  44.413   2.732   7.650
 5979POPC   NC335831  36.942  30.702   9.450
 5979POPC   PO435832  36.865  30.672   9.150
 5979POPC   GL135833  36.887  30.699   8.850
 5979POPC   GL235834  36.936  30.784   8.850
 5979POPC   C1A35835  36.898  30.730   8.550
 5979POPC   D2A35836  36.870  30.724   8.250
 5979POPC   C3A35837  36.868  30.686   7.950
 5979POPC   C4A35838  36.887  30.710   7.650
 5979POPC   C1B35839  36.862  30.944   8.550
 5979POPC   C2B35840  36.883  30.985   8.250
 5979POPC   C3B35841  36.897  30.922   7.950
 5979POPC   C4B35842  36.874  30.939   7.650
 5980POPC   NC335843   4.346   6.629   9.450
 5980POPC   PO435844   4.289   6.626   9.150
 5980POPC   GL135845   4.341   6.660   8.850
 5980POPC   GL235846   4.319   6.727   8.850
 5980POPC   C1A35847   4.345   6.623   8.550
 5980POPC   D2A35848   4.344   6.660   8.250
 5980POPC   C3A35849   4.279   6.633   7.950
 5980POPC   C4A35850   4.305   6.694   7.650
 5980POPC   C1B35851   4.345   6.854   8.550
 5980POPC   C2B35852   4.325   6.942   8.250
 5980POPC   C3B35853   4.340   6.870   7.950
 5980POPC   C4B35854   4.321   6.905   7.650
 5981POPC   NC335855   9.722  40.736   9.450
 5981POPC   PO435856   9.783  40.775   9.150
 5981POPC   GL135857   9.796  40.749   8.850
 5981POPC   GL235858   9.876  40.783   8.850
 5981POPC   C1A35859   9.746  40.787   8.550
 5981POPC   D2A35860   9.767  40.758   8.250
 5981POPC   C3A35861   9.765  40.826   7.950
 5981POPC   C4A35862   9.754  40.744   7.650
 5981POPC   C1B35863   9.999  40.674   8.550
 5981POPC   C2B35864   9.939  40.722   8.250
 5981POPC   C3B35865  10.016  40.685   7.950
 5981POPC   C4B35866  10.034  40.745   7.650
 5982POPC   NC335867   5.842  43.100   9.450
 5982POPC   PO435868   5.825  43.145   9.150
 5982POPC   GL135869   5.845  43.146   8.850
 5982POPC   GL235870   5.745  42.975   8.850
 5982POPC   C1A35871   5.894  43.114   8.550
 5982POPC   D2A35872   5.825  43.111   8.250
 5982POPC   C3A35873   5.903  43.093   7.950
 5982POPC   C4A35874   5.852  43.094   7.650
 5982POPC   C1B35875   5.685  42.908   8.550
 5982POPC   C2B35876   5.736  42.953   8.250
 5982POPC   C3B35877   5.677  42.917   7.950
 5982POPC   C4B35878   5.660  42.946   7.650
 5983POPC   NC335879   9.771  43.872   9.450
 5983POPC   PO435880   9.780  43.903   9.150
 5983POPC   GL135881   9.725  43.922   8.850
 5983POPC   GL235882   9.589  43.923   8.850
 5983POPC   C1A35883   9.732  43.903   8.550
 5983POPC   D2A35884   9.782  43.926   8.250
 5983POPC   C3A35885   9.740  43.853   7.950
 5983POPC   C4A35886   9.762  43.917   7.650
 5983POPC   C1B35887   9.522  43.911   8.550
 5983POPC   C2B35888   9.487  43.983   8.250
 5983POPC   C3B35889   9.517  43.945   7.950
 5983POPC   C4B35890   9.546  43.987   7.650
 5984POPC   NC335891  11.268  31.459   9.450
 5984POPC   PO435892  11.348  31.469   9.150
 5984POPC   GL135893  11.303  31.505   8.850
 5984POPC   GL235894  11.150  31.479   8.850
 5984POPC   C1A35895  11.257  31.474   8.550
 5984POPC   D2A35896  11.261  31.509   8.250
 5984POPC   C3A35897  11.322  31.424   7.950
 5984POPC   C4A35898  11.340  31.428   7.650
 5984POPC   C1B35899  11.013  31.477   8.550
 5984POPC   C2B35900  11.066  31.498   8.250
 5984POPC   C3B35901  11.078  31.547   7.950
 5984POPC   C4B35902  11.059  31.517   7.650
 5985POPC   NC335903  38.431  43.865   9.450
 5985POPC   PO435904  38.498  43.841   9.150
 5985POPC   GL135905  38.489  43.884   8.850
 5985POPC   GL235906  38.463  43.818   8.850
 5985POPC   C1A35907  38.499  43.853   8.550
 5985POPC   D2A35908  38.448  43.866   8.250
 5985POPC   C3A35909  38.422  43.878   7.950
 5985POPC   C4A35910  38.443  43.866   7.650
 5985POPC   C1B35911  38.609  43.631   8.550
 5985POPC   C2B35912  38.576  43.674   8.250
 5985POPC   C3B35913  38.547  43.681   7.950
 5985POPC   C4B35914  38.537  43.705   7.650
 5986POPC   NC335915  25.221  14.355   9.450
 5986POPC   PO435916  25.229  14.382   9.150
 5986POPC   GL135917  25.313  14.435   8.850
 5986POPC   GL235918  25.347  14.452   8.850
 5986POPC   C1A35919  25.226  14.378   8.550
 5986POPC   D2A35920  25.228  14.366   8.250
 5986POPC   C3A35921  25.245  14.420   7.950
 5986POPC   C4A35922  25.249  14.419   7.650
 5986POPC   C1B35923  25.497  14.510   8.550
 5986POPC   C2B35924  25.510  14.529   8.250
 5986POPC   C3B35925  25.451  14.537   7.950
 5986POPC   C4B35926  25.481  14.455   7.650
 5987POPC   NC335927  13.602  26.825   9.450
 5987POPC   PO435928  13.603  26.833   9.150
 5987POPC   GL135929  13.624  26.830   8.850
 5987POPC   GL235930  13.504  26.834   8.850
 5987POPC   C1A35931  13.588  26.850   8.550
 5987POPC   D2A35932  13.630  26.853   8.250
 5987POPC   C3A35933  13.673  26.789   7.950
 5987POPC   C4A35934  13.595  26.860   7.650
 5987POPC   C1B35935  13.354  26.806   8.550
 5987POPC   C2B35936  13.425  26.783   8.250
 5987POPC   C3B35937  13.397  26.860   7.950
 5987POPC   C4B35938  13.398  26.815   7.650
 5988POPC   NC335939  44.622  29.936   9.450
 5988POPC   PO435940  44.623  29.875   9.150
 5988POPC   GL135941  44.681  29.902   8.850
 5988POPC   GL235942  44.601  29.991   8.850
 5988POPC   C1A35943  44.705  29.889   8.550
 5988POPC   D2A35944  44.620  29.934   8.250
 5988POPC   C3A35945  44.621  29.876   7.950
 5988POPC   C4A35946  44.695  29.884   7.650
 5988POPC   C1B35947  44.441  30.145   8.550
 5988POPC   C2B35948  44.506  30.139   8.250
 5988POPC   C3B35949  44.522  30.137   7.950
 5988POPC   C4B35950  44.470  30.125   7.650
 5989POPC   NC335951  16.779   4.279   9.450
 5989POPC   PO435952  16.769   4.351   9.150
 5989POPC   GL135953  16.751   4.296   8.850
 5989POPC   GL235954  16.773   4.205   8.850
 5989POPC   C1A35955  16.712   4.280   8.550
 5989POPC   D2A35956  16.728   4.279   8.250
 5989POPC   C3A35957  16.713   4.342   7.950
 5989POPC   C4A35958  16.762   4.272   7.650
 5989POPC   C1B35959  16.693   4.028   8.550
 5989POPC   C2B35960  16.782   4.065   8.250
 5989POPC   C3B35961  16.719   4.061   7.950
 5989POPC   C4B35962  16.768   4.069   7.650
 5990POPC   NC335963  37.698  10.512   9.450
 5990POPC   PO435964  37.666  10.506   9.150
 5990POPC   GL135965  37.701  10.479   8.850
 5990POPC   GL235966  37.800  10.488   8.850
 5990POPC   C1A35967  37.666  10.483   8.550
 5990POPC   D2A35968  37.691  10.522   8.250
 5990POPC   C3A35969  37.712  10.505   7.950
 5990POPC   C4A35970  37.722  10.493   7.650
 5990POPC   C1B35971  37.927  10.374   8.550
 5990POPC   C2B35972  37.879  10.404   8.250
 5990POPC   C3B35973  37.875  10.406   7.950
 5990POPC   C4B35974  37.902  10.386   7.650
 5991POPC   NC335975  17.551  29.128   9.450
 5991POPC   PO435976  17.548  29.130   9.150
 5991POPC   GL135977  17.535  29.101   8.850
 5991POPC   GL235978  17.625  29.100   8.850
 5991POPC   C1A35979  17.488  29.174   8.550
 5991POPC   D2A35980  17.541  29.193   8.250
 5991POPC   C3A35981  17.554  29.129   7.950
 5991POPC   C4A35982  17.479  29.193   7.650
 5991POPC   C1B35983  17.727  28.972   8.550
 5991POPC   C2B35984  17.755  29.046   8.250
 5991POPC   C3B35985  17.692  29.017   7.950
 5991POPC   C4B35986  17.729  28.999   7.650
 5992POPC   NC335987  39.234  20.593   9.450
 5992POPC   PO435988  39.191  20.564   9.150
 5992POPC   GL135989  39.217  20.620   8.850
 5992POPC   GL235990  39.129  20.558   8.850
 5992POPC   C1A35991  39.227  20.593   8.550
 5992POPC   D2A35992  39.248  20.584   8.250
 5992POPC   C3A35993  39.276  20.631   7.950
 5992POPC   C4A35994  39.263  20.655   7.650
 5992POPC   C1B35995  39.013  20.418   8.550
 5992POPC   C2B35996  39.071  20.474   8.250
 5992POPC   C3B35997  39.088  20.472   7.950
 5992POPC   C4B35998  39.033  20.440   7.650
 5993POPC   NC335999  32.230   1.960   9.450
 5993POPC   PO436000  32.235   2.019   9.150
 5993POPC   GL136001  32.247   2.033   8.850
 5993POPC   GL236002  32.130   1.936   8.850
 5993POPC   C1A36003  32.246   1.999   8.550
 5993POPC   D2A36004  32.213   1.949   8.250
 5993POPC   C3A36005  32.279   2.027   7.950
 5993POPC   C4A36006  32.296   1.943   7.650
 5993POPC   C1B36007  32.030   1.997   8.550
 5993POPC   C2B36008  31.980   1.976   8.250
 5993POPC   C3B36009  31.974   2.011   7.950
 5993POPC   C4B36010  31.989   1.945   7.650
 5994POPC   NC336011  15.188   6.652   9.450
 5994POPC   PO436012  15.195   6.678   9.150
 5994POPC   GL136013  15.211   6.689   8.850
 5994POPC   GL236014  15.282   6.560   8.850
 5994POPC   C1A36015  15.131   6.600   8.550
 5994POPC   D2A36016  15.154   6.618   8.250
 5994POPC   C3A36017  15.155   6.664   7.950
 5994POPC   C4A36018  15.217   6.614   7.650
 5994POPC   C1B36019  15.339   6.420   8.550
 5994POPC   C2B36020  15.351   6.468   8.250
 5994POPC   C3B36021  15.313   6.413   7.950
 5994POPC   C4B36022  15.288   6.445   7.650
 5995POPC   NC336023  28.382  38.454   9.450
 5995POPC   PO436024  28.370  38.485   9.150
 5995POPC   GL136025  28.345  38.493   8.850
 5995POPC   GL236026  28.503  38.530   8.850
 5995POPC   C1A36027  28.389  38.426   8.550
 5995POPC   D2A36028  28.401  38.479   8.250
 5995POPC   C3A36029  28.406  38.422   7.950
 5995POPC   C4A36030  28.361  38.452   7.650
 5995POPC   C1B36031  28.540  38.615   8.550
 5995POPC   C2B36032  28.533  38.546   8.250
 5995POPC   C3B36033  28.541  38.626   7.950
 5995POPC   C4B36034  28.610  38.616   7.650
 5996POPC   NC336035  13.640  15.153   9.450
 5996POPC   PO436036  13.674  15.193   9.150
 5996POPC   GL136037  13.638  15.161   8.850
 5996POPC   GL236038  13.713  15.162   8.850
 5996POPC   C1A36039  13.599  15.182   8.550
 5996POPC   D2A36040  13.667  15.225   8.250
 5996POPC   C3A36041  13.636  15.162   7.950
 5996POPC   C4A36042  13.656  15.189   7.650
 5996POPC   C1B36043  13.869  15.219   8.550
 5996POPC   C2B36044  13.925  15.199   8.250
 5996POPC   C3B36045  13.867  15.169   7.950
 5996POPC   C4B36046  13.849  15.197   7.650
 5997POPC   NC336047   0.391  41.567   9.450
 5997POPC   PO436048   0.450  41.523   9.150
 5997POPC   GL136049   0.439  41.517   8.850
 5997POPC   GL236050   0.497  41.430   8.850
 5997POPC   C1A36051   0.455  41.572   8.550
 5997POPC   D2A36052   0.461  41.598   8.250
 5997POPC   C3A36053   0.487  41.571   7.950
 5997POPC   C4A36054   0.389  41.540   7.650
 5997POPC   C1B36055   0.592  41.363   8.550
 5997POPC   C2B36056   0.574  41.340   8.250
 5997POPC   C3B36057   0.554  41.313   7.950
 5997POPC   C4B36058   0.560  41.346   7.650
 5998POPC   NC336059  24.519  44.683   9.450
 5998POPC   PO436060  24.444  44.638   9.150
 5998POPC   GL136061  24.467  44.635   8.850
 5998POPC   GL236062  24.454  44.538   8.850
 5998POPC   C1A36063  24.458  44.620   8.550
 5998POPC   D2A36064  24.471  44.687   8.250
 5998POPC   C3A36065  24.457  44.635   7.950
 5998POPC   C4A36066  24.516  44.647   7.650
 5998POPC   C1B36067  24.487  44.376   8.550
 5998POPC   C2B36068  24.488  44.438   8.250
 5998POPC   C3B36069  24.424  44.380   7.950
 5998POPC   C4B36070  24.417  44.411   7.650
 5999POPC   NC336071   0.395  22.153   9.450
 5999POPC   PO436072   0.451  22.164   9.150
 5999POPC   GL136073   0.417  22.113   8.850
 5999POPC   GL236074   0.510  22.033   8.850
 5999POPC   C1A36075   0.394  22.137   8.550
 5999POPC   D2A36076   0.400  22.205   8.250
 5999POPC   C3A36077   0.458  22.175   7.950
 5999POPC   C4A36078   0.389  22.208   7.650
 5999POPC   C1B36079   0.499  21.966   8.550
 5999POPC   C2B36080   0.485  21.943   8.250
 5999POPC   C3B36081   0.481  21.875   7.950
 5999POPC   C4B36082   0.472  21.877   7.650
 6000POPC   NC336083  12.073  36.115   9.450
 6000POPC   PO436084  12.098  36.110   9.150
 6000POPC   GL136085  12.115  36.160   8.850
 6000POPC   GL236086  12.140  35.972   8.850
 6000POPC   C1A36087  12.041  36.138   8.550
 6000POPC   D2A36088  12.032  36.082   8.250
 6000POPC   C3A36089  12.067  36.111   7.950
 6000POPC   C4A36090  12.080  36.103   7.650
 6000POPC   C1B36091  12.117  35.930   8.550
 6000POPC   C2B36092  12.113  35.929   8.250
 6000POPC   C3B36093  12.171  35.905   7.950
 6000POPC   C4B36094  12.172  35.926   7.650
 6001POPC   NC336095  29.113   5.108   9.450
 6001POPC   PO436096  29.108   5.140   9.150
 6001POPC   GL136097  29.123   5.048   8.850
 6001POPC   GL236098  29.252   5.022   8.850
 6001POPC   C1A36099  29.181   5.103   8.550
 6001POPC   D2A36100  29.128   5.074   8.250
 6001POPC   C3A36101  29.158   5.056   7.950
 6001POPC   C4A36102  29.116   5.108   7.650
 6001POPC   C1B36103  29.313   4.874   8.550
 6001POPC   C2B36104  29.334   4.906   8.250
 6001POPC   C3B36105  29.352   4.958   7.950
 6001POPC   C4B36106  29.280   4.891   7.650
 6002POPC   NC336107   2.748  13.674   9.450
 6002POPC   PO436108   2.751  13.668   9.150
 6002POPC   GL136109   2.738  13.646   8.850
 6002POPC   GL236110   2.656  13.698   8.850
 6002POPC   C1A36111   2.798  13.653   8.550
 6002POPC   D2A36112   2.813  13.668   8.250
 6002POPC   C3A36113   2.751  13.661   7.950
 6002POPC   C4A36114   2.791  13.629   7.650
 6002POPC   C1B36115   2.576  13.689   8.550
 6002POPC   C2B36116   2.576  13.737   8.250
 6002POPC   C3B36117   2.512  13.671   7.950
 6002POPC   C4B36118   2.525  13.699   7.650
 6003POPC   NC336119  44.613  32.985   9.450
 6003POPC   PO436120  44.655  33.065   9.150
 6003POPC   GL136121  44.620  33.039   8.850
 6003POPC   GL236122  44.532  33.038   8.850
 6003POPC   C1A36123  44.700  32.976   8.550
 6003POPC   D2A36124  44.703  33.061   8.250
 6003POPC   C3A36125  44.680  33.067   7.950
 6003POPC   C4A36126  44.636  32.975   7.650
 6003POPC   C1B36127  44.448  33.069   8.550
 6003POPC   C2B36128  44.459  33.115   8.250
 6003POPC   C3B36129  44.387  33.076   7.950
 6003POPC   C4B36130  44.453  33.108   7.650
 6004POPC   NC336131  43.901  43.074   9.450
 6004POPC   PO436132  43.896  43.075   9.150
 6004POPC   GL136133  43.841  43.068   8.850
 6004POPC   GL236134  44.026  43.090   8.850
 6004POPC   C1A36135  43.886  43.125   8.550
 6004POPC   D2A36136  43.864  43.067   8.250
 6004POPC   C3A36137  43.843  43.063   7.950
 6004POPC   C4A36138  43.878  43.157   7.650
 6004POPC   C1B36139  44.097  43.179   8.550
 6004POPC   C2B36140  44.122  43.177   8.250
 6004POPC   C3B36141  44.137  43.124   7.950
 6004POPC   C4B36142  44.167  43.133   7.650
 6005POPC   NC336143  26.008  14.399   9.450
 6005POPC   PO436144  26.048  14.383   9.150
 6005POPC   GL136145  26.067  14.389   8.850
 6005POPC   GL236146  26.055  14.272   8.850
 6005POPC   C1A36147  26.047  14.446   8.550
 6005POPC   D2A36148  26.062  14.445   8.250
 6005POPC   C3A36149  26.025  14.385   7.950
 6005POPC   C4A36150  26.090  14.394   7.650
 6005POPC   C1B36151  26.019  14.168   8.550
 6005POPC   C2B36152  25.962  14.155   8.250
 6005POPC   C3B36153  25.983  14.206   7.950
 6005POPC   C4B36154  26.001  14.188   7.650
 6006POPC   NC336155  26.806  11.328   9.450
 6006POPC   PO436156  26.802  11.333   9.150
 6006POPC   GL136157  26.860  11.332   8.850
 6006POPC   GL236158  26.967  11.311   8.850
 6006POPC   C1A36159  26.864  11.277   8.550
 6006POPC   D2A36160  26.848  11.294   8.250
 6006POPC   C3A36161  26.816  11.324   7.950
 6006POPC   C4A36162  26.836  11.276   7.650
 6006POPC   C1B36163  27.056  11.308   8.550
 6006POPC   C2B36164  27.043  11.386   8.250
 6006POPC   C3B36165  27.055  11.319   7.950
 6006POPC   C4B36166  27.086  11.353   7.650
 6007POPC   NC336167  40.831  12.894   9.450
 6007POPC   PO436168  40.818  12.802   9.150
 6007POPC   GL136169  40.749  12.840   8.850
 6007POPC   GL236170  40.869  12.907   8.850
 6007POPC   C1A36171  40.749  12.849   8.550
 6007POPC   D2A36172  40.799  12.881   8.250
 6007POPC   C3A36173  40.737  12.813   7.950
 6007POPC   C4A36174  40.802  12.892   7.650
 6007POPC   C1B36175  40.912  13.040   8.550
 6007POPC   C2B36176  40.917  13.011   8.250
 6007POPC   C3B36177  40.892  13.054   7.950
 6007POPC   C4B36178  40.953  13.074   7.650
 6008POPC   NC336179  11.270  44.632   9.450
 6008POPC   PO436180  11.303  44.646   9.150
 6008POPC   GL136181  11.278  44.704   8.850
 6008POPC   GL236182  11.414  44.646   8.850
 6008POPC   C1A36183  11.282  44.616   8.550
 6008POPC   D2A36184  11.303  44.678   8.250
 6008POPC   C3A36185  11.340  44.638   7.950
 6008POPC   C4A36186  11.297  44.637   7.650
 6008POPC   C1B36187  11.524  44.588   8.550
 6008POPC   C2B36188  11.505  44.631   8.250
 6008POPC   C3B36189  11.572  44.628   7.950
 6008POPC   C4B36190  11.491  44.599   7.650
 6009POPC   NC336191  17.498  26.844   9.450
 6009POPC   PO436192  17.478  26.823   9.150
 6009POPC   GL136193  17.472  26.855   8.850
 6009POPC   GL236194  17.398  26.908   8.850
 6009POPC   C1A36195  17.544  26.768   8.550
 6009POPC   D2A36196  17.503  26.806   8.250
 6009POPC   C3A36197  17.494  26.768   7.950
 6009POPC   C4A36198  17.556  26.864   7.650
 6009POPC   C1B36199  17.383  27.042   8.550
 6009POPC   C2B36200  17.352  27.054   8.250
 6009POPC   C3B36201  17.349  27.012   7.950
 6009POPC   C4B36202  17.355  27.035   7.650
 6010POPC   NC336203   5.140   9.740   9.450
 6010POPC   PO436204   5.118   9.756   9.150
 6010POPC   GL136205   5.098   9.737   8.850
 6010POPC   GL236206   5.203   9.689   8.850
 6010POPC   C1A36207   5.070   9.772   8.550
 6010POPC   D2A36208   5.088   9.729   8.250
 6010POPC   C3A36209   5.113   9.755   7.950
 6010POPC   C4A36210   5.109   9.756   7.650
 6010POPC   C1B36211   5.311   9.521   8.550
 6010POPC   C2B36212   5.275   9.554   8.250
 6010POPC   C3B36213   5.305   9.591   7.950
 6010POPC   C4B36214   5.299   9.517   7.650
 6011POPC   NC336215  29.914  26.795   9.450
 6011POPC   PO436216  29.895  26.782   9.150
 6011POPC   GL136217  29.896  26.777   8.850
 6011POPC   GL236218  29.930  26.703   8.850
 6011POPC   C1A36219  29.964  26.824   8.550
 6011POPC   D2A36220  29.948  26.809   8.250
 6011POPC   C3A36221  29.942  26.820   7.950
 6011POPC   C4A36222  29.919  26.781   7.650
 6011POPC   C1B36223  29.975  26.590   8.550
 6011POPC   C2B36224  29.927  26.526   8.250
 6011POPC   C3B36225  29.912  26.612   7.950
 6011POPC   C4B36226  29.974  26.548   7.650
 6012POPC   NC336227  37.679   9.786   9.450
 6012POPC   PO436228  37.658   9.701   9.150
 6012POPC   GL136229  37.718   9.757   8.850
 6012POPC   GL236230  37.720   9.630   8.850
 6012POPC   C1A36231  37.662   9.757   8.550
 6012POPC   D2A36232  37.713   9.718   8.250
 6012POPC   C3A36233  37.714   9.727   7.950
 6012POPC   C4A36234  37.726   9.766   7.650
 6012POPC   C1B36235  37.687   9.500   8.550
 6012POPC   C2B36236  37.693   9.525   8.250
 6012POPC   C3B36237  37.701   9.476   7.950
 6012POPC   C4B36238  37.669   9.490   7.650
 6013POPC   NC336239  31.475  28.393   9.450
 6013POPC   PO436240  31.467  28.385   9.150
 6013POPC   GL136241  31.465  28.361   8.850
 6013POPC   GL236242  31.492  28.293   8.850
 6013POPC   C1A36243  31.489  28.334   8.550
 6013POPC   D2A36244  31.493  28.389   8.250
 6013POPC   C3A36245  31.505  28.396   7.950
 6013POPC   C4A36246  31.483  28.407   7.650
 6013POPC   C1B36247  31.540  28.098   8.550
 6013POPC   C2B36248  31.510  28.080   8.250
 6013POPC   C3B36249  31.489  28.091   7.950
 6013POPC   C4B36250  31.491  28.086   7.650
 6014POPC   NC336251  12.839   2.760   9.450
 6014POPC   PO436252  12.850   2.779   9.150
 6014POPC   GL136253  12.813   2.764   8.850
 6014POPC   GL236254  12.739   2.727   8.850
 6014POPC   C1A36255  12.824   2.764   8.550
 6014POPC   D2A36256  12.807   2.723   8.250
 6014POPC   C3A36257  12.842   2.807   7.950
 6014POPC   C4A36258  12.839   2.751   7.650
 6014POPC   C1B36259  12.612   2.784   8.550
 6014POPC   C2B36260  12.635   2.743   8.250
 6014POPC   C3B36261  12.565   2.750   7.950
 6014POPC   C4B36262  12.614   2.714   7.650
 6015POPC   NC336263  21.406  15.940   9.450
 6015POPC   PO436264  21.408  15.923   9.150
 6015POPC   GL136265  21.357  15.971   8.850
 6015POPC   GL236266  21.393  16.030   8.850
 6015POPC   C1A36267  21.401  15.917   8.550
 6015POPC   D2A36268  21.418  15.930   8.250
 6015POPC   C3A36269  21.416  16.003   7.950
 6015POPC   C4A36270  21.379  15.976   7.650
 6015POPC   C1B36271  21.374  16.237   8.550
 6015POPC   C2B36272  21.335  16.222   8.250
 6015POPC   C3B36273  21.283  16.176   7.950
 6015POPC   C4B36274  21.296  16.198   7.650
 6016POPC   NC336275  34.621  15.171   9.450
 6016POPC   PO436276  34.600  15.174   9.150
 6016POPC   GL136277  34.590  15.148   8.850
 6016POPC   GL236278  34.509  15.102   8.850
 6016POPC   C1A36279  34.547  15.212   8.550
 6016POPC   D2A36280  34.604  15.155   8.250
 6016POPC   C3A36281  34.612  15.158   7.950
 6016POPC   C4A36282  34.526  15.131   7.650
 6016POPC   C1B36283  34.387  15.092   8.550
 6016POPC   C2B36284  34.333  15.048   8.250
 6016POPC   C3B36285  34.382  15.074   7.950
 6016POPC   C4B36286  34.370  15.046   7.650
 6017POPC   NC336287  40.803  11.278   9.450
 6017POPC   PO436288  40.766  11.284   9.150
 6017POPC   GL136289  40.748  11.316   8.850
 6017POPC   GL236290  40.758  11.392   8.850
 6017POPC   C1A36291  40.768  11.282   8.550
 6017POPC   D2A36292  40.777  11.263   8.250
 6017POPC   C3A36293  40.815  11.313   7.950
 6017POPC   C4A36294  40.825  11.343   7.650
 6017POPC   C1B36295  40.861  11.516   8.550
 6017POPC   C2B36296  40.804  11.516   8.250
 6017POPC   C3B36297  40.825  11.545   7.950
 6017POPC   C4B36298  40.800  11.544   7.650
 6018POPC   NC336299   7.462  30.735   9.450
 6018POPC   PO436300   7.388  30.663   9.150
 6018POPC   GL136301   7.458  30.729   8.850
 6018POPC   GL236302   7.404  30.855   8.850
 6018POPC   C1A36303   7.433  30.725   8.550
 6018POPC   D2A36304   7.463  30.657   8.250
 6018POPC   C3A36305   7.423  30.686   7.950
 6018POPC   C4A36306   7.452  30.695   7.650
 6018POPC   C1B36307   7.474  30.974   8.550
 6018POPC   C2B36308   7.419  30.930   8.250
 6018POPC   C3B36309   7.452  30.948   7.950
 6018POPC   C4B36310   7.406  30.953   7.650
 6019POPC   NC336311  26.043  40.769   9.450
 6019POPC   PO436312  26.082  40.829   9.150
 6019POPC   GL136313  26.061  40.790   8.850
 6019POPC   GL236314  25.971  40.696   8.850
 6019POPC   C1A36315  26.059  40.824   8.550
 6019POPC   D2A36316  26.027  40.753   8.250
 6019POPC   C3A36317  26.006  40.796   7.950
 6019POPC   C4A36318  26.010  40.797   7.650
 6019POPC   C1B36319  25.983  40.555   8.550
 6019POPC   C2B36320  25.992  40.549   8.250
 6019POPC   C3B36321  25.964  40.565   7.950
 6019POPC   C4B36322  25.978  40.586   7.650
 6020POPC   NC336323  33.759  40.004   9.450
 6020POPC   PO436324  33.849  40.019   9.150
 6020POPC   GL136325  33.833  40.015   8.850
 6020POPC   GL236326  33.933  40.047   8.850
 6020POPC   C1A36327  33.795  39.987   8.550
 6020POPC   D2A36328  33.796  39.994   8.250
 6020POPC   C3A36329  33.768  40.015   7.950
 6020POPC   C4A36330  33.775  40.042   7.650
 6020POPC   C1B36331  34.079  40.081   8.550
 6020POPC   C2B36332  34.049  40.093   8.250
 6020POPC   C3B36333  34.049  40.085   7.950
 6020POPC   C4B36334  34.009  40.018   7.650
 6021POPC   NC336335  19.821   5.140   9.450
 6021POPC   PO436336  19.793   5.078   9.150
 6021POPC   GL136337  19.814   5.107   8.850
 6021POPC   GL236338  19.935   5.053   8.850
 6021POPC   C1A36339  19.785   5.056   8.550
 6021POPC   D2A36340  19.871   5.079   8.250
 6021POPC   C3A36341  19.831   5.122   7.950
 6021POPC   C4A36342  19.882   5.044   7.650
 6021POPC   C1B36343  20.046   5.146   8.550
 6021POPC   C2B36344  20.054   5.073   8.250
 6021POPC   C3B36345  20.103   5.094   7.950
 6021POPC   C4B36346  20.073   5.064   7.650
 6022POPC   NC336347   2.726   2.761   9.450
 6022POPC   PO436348   2.716   2.748   9.150
 6022POPC   GL136349   2.760   2.736   8.850
 6022POPC   GL236350   2.657   2.761   8.850
 6022POPC   C1A36351   2.767   2.804   8.550
 6022POPC   D2A36352   2.804   2.757   8.250
 6022POPC   C3A36353   2.737   2.731   7.950
 6022POPC   C4A36354   2.815   2.815   7.650
 6022POPC   C1B36355   2.519   2.788   8.550
 6022POPC   C2B36356   2.480   2.827   8.250
 6022POPC   C3B36357   2.541   2.801   7.950
 6022POPC   C4B36358   2.542   2.795   7.650
 6023POPC   NC336359  32.980   5.119   9.450
 6023POPC   PO436360  32.993   5.053   9.150
 6023POPC   GL136361  33.035   5.135   8.850
 6023POPC   GL236362  32.935   5.137   8.850
 6023POPC   C1A36363  33.048   5.051   8.550
 6023POPC   D2A36364  33.024   5.051   8.250
 6023POPC   C3A36365  33.055   5.102   7.950
 6023POPC   C4A36366  33.008   5.126   7.650
 6023POPC   C1B36367  32.825   5.246   8.550
 6023POPC   C2B36368  32.832   5.253   8.250
 6023POPC   C3B36369  32.810   5.295   7.950
 6023POPC   C4B36370  32.871   5.241   7.650
 6024POPC   NC336371  18.332  34.575   9.450
 6024POPC   PO436372  18.235  34.590   9.150
 6024POPC   GL136373  18.331  34.580   8.850
 6024POPC   GL236374  18.378  34.604   8.850
 6024POPC   C1A36375  18.283  34.557   8.550
 6024POPC   D2A36376  18.326  34.549   8.250
 6024POPC   C3A36377  18.262  34.527   7.950
 6024POPC   C4A36378  18.255  34.599   7.650
 6024POPC   C1B36379  18.518  34.514   8.550
 6024POPC   C2B36380  18.524  34.595   8.250
 6024POPC   C3B36381  18.549  34.568   7.950
 6024POPC   C4B36382  18.522  34.558   7.650
 6025POPC   NC336383  41.541  36.947   9.450
 6025POPC   PO436384  41.568  36.952   9.150
 6025POPC   GL136385  41.554  36.859   8.850
 6025POPC   GL236386  41.439  36.941   8.850
 6025POPC   C1A36387  41.529  36.877   8.550
 6025POPC   D2A36388  41.537  36.920   8.250
 6025POPC   C3A36389  41.576  36.873   7.950
 6025POPC   C4A36390  41.564  36.925   7.650
 6025POPC   C1B36391  41.328  37.096   8.550
 6025POPC   C2B36392  41.398  37.100   8.250
 6025POPC   C3B36393  41.378  37.077   7.950
 6025POPC   C4B36394  41.319  37.066   7.650
 6026POPC   NC336395  43.139  28.388   9.450
 6026POPC   PO436396  43.150  28.376   9.150
 6026POPC   GL136397  43.154  28.417   8.850
 6026POPC   GL236398  43.094  28.485   8.850
 6026POPC   C1A36399  43.116  28.357   8.550
 6026POPC   D2A36400  43.138  28.375   8.250
 6026POPC   C3A36401  43.062  28.407   7.950
 6026POPC   C4A36402  43.137  28.418   7.650
 6026POPC   C1B36403  43.187  28.587   8.550
 6026POPC   C2B36404  43.178  28.571   8.250
 6026POPC   C3B36405  43.196  28.608   7.950
 6026POPC   C4B36406  43.165  28.619   7.650
 6027POPC   NC336407  26.050  28.359   9.450
 6027POPC   PO436408  26.047  28.348   9.150
 6027POPC   GL136409  26.063  28.407   8.850
 6027POPC   GL236410  25.944  28.327   8.850
 6027POPC   C1A36411  26.077  28.326   8.550
 6027POPC   D2A36412  26.050  28.407   8.250
 6027POPC   C3A36413  26.086  28.383   7.950
 6027POPC   C4A36414  26.076  28.388   7.650
 6027POPC   C1B36415  25.847  28.209   8.550
 6027POPC   C2B36416  25.830  28.183   8.250
 6027POPC   C3B36417  25.791  28.186   7.950
 6027POPC   C4B36418  25.828  28.252   7.650
 6028POPC   NC336419  40.785  29.923   9.450
 6028POPC   PO436420  40.792  29.935   9.150
 6028POPC   GL136421  40.745  29.911   8.850
 6028POPC   GL236422  40.791  30.067   8.850
 6028POPC   C1A36423  40.796  29.904   8.550
 6028POPC   D2A36424  40.743  29.881   8.250
 6028POPC   C3A36425  40.763  29.954   7.950
 6028POPC   C4A36426  40.792  29.958   7.650
 6028POPC   C1B36427  40.812  30.181   8.550
 6028POPC   C2B36428  40.851  30.185   8.250
 6028POPC   C3B36429  40.815  30.150   7.950
 6028POPC   C4B36430  40.829  30.213   7.650
 6029POPC   NC336431  29.958  21.419   9.450
 6029POPC   PO436432  29.907  21.363   9.150
 6029POPC   GL136433  29.956  21.365   8.850
 6029POPC   GL236434  29.805  21.309   8.850
 6029POPC   C1A36435  29.946  21.406   8.550
 6029POPC   D2A36436  29.889  21.374   8.250
 6029POPC   C3A36437  29.968  21.340   7.950
 6029POPC   C4A36438  29.900  21.336   7.650
 6029POPC   C1B36439  29.673  21.279   8.550
 6029POPC   C2B36440  29.654  21.258   8.250
 6029POPC   C3B36441  29.728  21.250   7.950
 6029POPC   C4B36442  29.723  21.313   7.650
 6030POPC   NC336443  20.624  21.363   9.450
 6030POPC   PO436444  20.586  21.435   9.150
 6030POPC   GL136445  20.600  21.354   8.850
 6030POPC   GL236446  20.589  21.249   8.850
 6030POPC   C1A36447  20.607  21.404   8.550
 6030POPC   D2A36448  20.619  21.421   8.250
 6030POPC   C3A36449  20.625  21.410   7.950
 6030POPC   C4A36450  20.658  21.413   7.650
 6030POPC   C1B36451  20.552  21.119   8.550
 6030POPC   C2B36452  20.529  21.172   8.250
 6030POPC   C3B36453  20.597  21.099   7.950
 6030POPC   C4B36454  20.586  21.136   7.650
 6031POPC   NC336455  17.525  33.810   9.450
 6031POPC   PO436456  17.544  33.750   9.150
 6031POPC   GL136457  17.551  33.807   8.850
 6031POPC   GL236458  17.522  33.667   8.850
 6031POPC   C1A36459  17.494  33.837   8.550
 6031POPC   D2A36460  17.459  33.846   8.250
 6031POPC   C3A36461  17.479  33.825   7.950
 6031POPC   C4A36462  17.485  33.844   7.650
 6031POPC   C1B36463  17.462  33.518   8.550
 6031POPC   C2B36464  17.394  33.547   8.250
 6031POPC   C3B36465  17.404  33.530   7.950
 6031POPC   C4B36466  17.405  33.594   7.650
 6032POPC   NC336467  32.282   5.917   9.450
 6032POPC   PO436468  32.237   5.822   9.150
 6032POPC   GL136469  32.290   5.889   8.850
 6032POPC   GL236470  32.388   5.873   8.850
 6032POPC   C1A36471  32.243   5.855   8.550
 6032POPC   D2A36472  32.266   5.913   8.250
 6032POPC   C3A36473  32.293   5.841   7.950
 6032POPC   C4A36474  32.199   5.856   7.650
 6032POPC   C1B36475  32.520   5.971   8.550
 6032POPC   C2B36476  32.490   5.964   8.250
 6032POPC   C3B36477  32.502   5.994   7.950
 6032POPC   C4B36478  32.445   5.969   7.650
 6033POPC   NC336479  40.791  37.672   9.450
 6033POPC   PO436480  40.738  37.674   9.150
 6033POPC   GL136481  40.776  37.631   8.850
 6033POPC   GL236482  40.636  37.662   8.850
 6033POPC   C1A36483  40.814  37.660   8.550
 6033POPC   D2A36484  40.813  37.712   8.250
 6033POPC   C3A36485  40.832  37.648   7.950
 6033POPC   C4A36486  40.758  37.728   7.650
 6033POPC   C1B36487  40.498  37.597   8.550
 6033POPC   C2B36488  40.553  37.615   8.250
 6033POPC   C3B36489  40.591  37.631   7.950
 6033POPC   C4B36490  40.574  37.609   7.650
 6034POPC   NC336491   6.659  19.073   9.450
 6034POPC   PO436492   6.679  19.093   9.150
 6034POPC   GL136493   6.602  19.089   8.850
 6034POPC   GL236494   6.595  18.904   8.850
 6034POPC   C1A36495   6.677  19.037   8.550
 6034POPC   D2A36496   6.630  19.075   8.250
 6034POPC   C3A36497   6.628  19.058   7.950
 6034POPC   C4A36498   6.692  19.094   7.650
 6034POPC   C1B36499   6.617  18.820   8.550
 6034POPC   C2B36500   6.584  18.814   8.250
 6034POPC   C3B36501   6.573  18.786   7.950
 6034POPC   C4B36502   6.590  18.805   7.650
 6035POPC   NC336503  37.716   3.543   9.450
 6035POPC   PO436504  37.714   3.562   9.150
 6035POPC   GL136505  37.662   3.504   8.850
 6035POPC   GL236506  37.785   3.463   8.850
 6035POPC   C1A36507  37.663   3.580   8.550
 6035POPC   D2A36508  37.710   3.582   8.250
 6035POPC   C3A36509  37.633   3.542   7.950
 6035POPC   C4A36510  37.723   3.551   7.650
 6035POPC   C1B36511  37.749   3.323   8.550
 6035POPC   C2B36512  37.836   3.271   8.250
 6035POPC   C3B36513  37.794   3.274   7.950
 6035POPC   C4B36514  37.750   3.336   7.650
 6036POPC   NC336515   7.428   5.044   9.450
 6036POPC   PO436516   7.402   5.135   9.150
 6036POPC   GL136517   7.447   5.114   8.850
 6036POPC   GL236518   7.401   5.170   8.850
 6036POPC   C1A36519   7.402   5.136   8.550
 6036POPC   D2A36520   7.397   5.050   8.250
 6036POPC   C3A36521   7.373   5.142   7.950
 6036POPC   C4A36522   7.453   5.107   7.650
 6036POPC   C1B36523   7.275   5.293   8.550
 6036POPC   C2B36524   7.288   5.268   8.250
 6036POPC   C3B36525   7.263   5.321   7.950
 6036POPC   C4B36526   7.291   5.294   7.650
 6037POPC   NC336527  12.046  19.030   9.450
 6037POPC   PO436528  12.090  19.083   9.150
 6037POPC   GL136529  12.039  19.044   8.850
 6037POPC   GL236530  11.940  19.113   8.850
 6037POPC   C1A36531  12.123  19.036   8.550
 6037POPC   D2A36532  12.050  19.089   8.250
 6037POPC   C3A36533  12.055  19.043   7.950
 6037POPC   C4A36534  12.037  19.101   7.650
 6037POPC   C1B36535  11.869  19.160   8.550
 6037POPC   C2B36536  11.855  19.137   8.250
 6037POPC   C3B36537  11.898  19.147   7.950
 6037POPC   C4B36538  11.819  19.196   7.650
 6038POPC   NC336539  19.104  42.353   9.450
 6038POPC   PO436540  19.069  42.302   9.150
 6038POPC   GL136541  19.093  42.355   8.850
 6038POPC   GL236542  18.988  42.389   8.850
 6038POPC   C1A36543  19.027  42.380   8.550
 6038POPC   D2A36544  19.059  42.344   8.250
 6038POPC   C3A36545  19.009  42.326   7.950
 6038POPC   C4A36546  19.039  42.349   7.650
 6038POPC   C1B36547  18.869  42.570   8.550
 6038POPC   C2B36548  18.877  42.566   8.250
 6038POPC   C3B36549  18.948  42.515   7.950
 6038POPC   C4B36550  18.899  42.561   7.650
 6039POPC   NC336551  42.305  28.380   9.450
 6039POPC   PO436552  42.333  28.401   9.150
 6039POPC   GL136553  42.297  28.346   8.850
 6039POPC   GL236554  42.397  28.456   8.850
 6039POPC   C1A36555  42.367  28.369   8.550
 6039POPC   D2A36556  42.351  28.321   8.250
 6039POPC   C3A36557  42.381  28.393   7.950
 6039POPC   C4A36558  42.306  28.370   7.650
 6039POPC   C1B36559  42.481  28.573   8.550
 6039POPC   C2B36560  42.467  28.613   8.250
 6039POPC   C3B36561  42.447  28.551   7.950
 6039POPC   C4B36562  42.458  28.529   7.650
 6040POPC   NC336563  43.149  40.788   9.450
 6040POPC   PO436564  43.096  40.755   9.150
 6040POPC   GL136565  43.119  40.757   8.850
 6040POPC   GL236566  43.204  40.759   8.850
 6040POPC   C1A36567  43.120  40.791   8.550
 6040POPC   D2A36568  43.138  40.815   8.250
 6040POPC   C3A36569  43.111  40.782   7.950
 6040POPC   C4A36570  43.089  40.778   7.650
 6040POPC   C1B36571  43.366  40.773   8.550
 6040POPC   C2B36572  43.355  40.784   8.250
 6040POPC   C3B36573  43.376  40.810   7.950
 6040POPC   C4B36574  43.368  40.849   7.650
 6041POPC   NC336575   5.072  28.383   9.450
 6041POPC   PO436576   5.093  28.355   9.150
 6041POPC   GL136577   5.057  28.398   8.850
 6041POPC   GL236578   4.958  28.304   8.850
 6041POPC   C1A36579   5.069  28.356   8.550
 6041POPC   D2A36580   5.076  28.400   8.250
 6041POPC   C3A36581   5.118  28.382   7.950
 6041POPC   C4A36582   5.126  28.347   7.650
 6041POPC   C1B36583   4.800  28.357   8.550
 6041POPC   C2B36584   4.805  28.298   8.250
 6041POPC   C3B36585   4.844  28.348   7.950
 6041POPC   C4B36586   4.808  28.310   7.650
 6042POPC   NC336587  25.235  12.898   9.450
 6042POPC   PO436588  25.224  12.880   9.150
 6042POPC   GL136589  25.224  12.879   8.850
 6042POPC   GL236590  25.109  12.865   8.850
 6042POPC   C1A36591  25.301  12.832   8.550
 6042POPC   D2A36592  25.244  12.835   8.250
 6042POPC   C3A36593  25.226  12.871   7.950
 6042POPC   C4A36594  25.219  12.825   7.650
 6042POPC   C1B36595  25.005  12.956   8.550
 6042POPC   C2B36596  25.038  12.994   8.250
 6042POPC   C3B36597  25.001  12.974   7.950
 6042POPC   C4B36598  25.053  12.964   7.650
 6043POPC   NC336599  25.248  32.220   9.450
 6043POPC   PO436600  25.228  32.288   9.150
 6043POPC   GL136601  25.268  32.203   8.850
 6043POPC   GL236602  25.227  32.096   8.850
 6043POPC   C1A36603  25.232  32.249   8.550
 6043POPC   D2A36604  25.255  32.270   8.250
 6043POPC   C3A36605  25.255  32.226   7.950
 6043POPC   C4A36606  25.235  32.251   7.650
 6043POPC   C1B36607  25.091  32.043   8.550
 6043POPC   C2B36608  25.180  32.054   8.250
 6043POPC   C3B36609  25.143  32.061   7.950
 6043POPC   C4B36610  25.094  32.056   7.650
 6044POPC   NC336611  33.780  37.683   9.450
 6044POPC   PO436612  33.786  37.681   9.150
 6044POPC   GL136613  33.774  37.670   8.850
 6044POPC   GL236614  33.878  37.570   8.850
 6044POPC   C1A36615  33.829  37.648   8.550
 6044POPC   D2A36616  33.782  37.725   8.250
 6044POPC   C3A36617  33.804  37.666   7.950
 6044POPC   C4A36618  33.845  37.663   7.650
 6044POPC   C1B36619  33.913  37.441   8.550
 6044POPC   C2B36620  33.938  37.465   8.250
 6044POPC   C3B36621  33.984  37.456   7.950
 6044POPC   C4B36622  33.904  37.519   7.650
 6045POPC   NC336623  43.137  36.172   9.450
 6045POPC   PO436624  43.145  36.151   9.150
 6045POPC   GL136625  43.099  36.127   8.850
 6045POPC   GL236626  43.236  36.192   8.850
 6045POPC   C1A36627  43.073  36.171   8.550
 6045POPC   D2A36628  43.122  36.119   8.250
 6045POPC   C3A36629  43.125  36.145   7.950
 6045POPC   C4A36630  43.102  36.175   7.650
 6045POPC   C1B36631  43.342  36.257   8.550
 6045POPC   C2B36632  43.283  36.237   8.250
 6045POPC   C3B36633  43.326  36.233   7.950
 6045POPC   C4B36634  43.325  36.275   7.650
 6046POPC   NC336635  35.308  33.011   9.450
 6046POPC   PO436636  35.360  33.016   9.150
 6046POPC   GL136637  35.343  33.005   8.850
 6046POPC   GL236638  35.341  32.900   8.850
 6046POPC   C1A36639  35.331  33.041   8.550
 6046POPC   D2A36640  35.368  33.065   8.250
 6046POPC   C3A36641  35.328  32.999   7.950
 6046POPC   C4A36642  35.388  33.053   7.650
 6046POPC   C1B36643  35.343  32.740   8.550
 6046POPC   C2B36644  35.318  32.812   8.250
 6046POPC   C3B36645  35.289  32.802   7.950
 6046POPC   C4B36646  35.298  32.809   7.650
 6047POPC   NC336647  15.134  12.893   9.450
 6047POPC   PO436648  15.157  12.874   9.150
 6047POPC   GL136649  15.143  12.830   8.850
 6047POPC   GL236650  15.349  12.842   8.850
 6047POPC   C1A36651  15.158  12.879   8.550
 6047POPC   D2A36652  15.221  12.899   8.250
 6047POPC   C3A36653  15.200  12.881   7.950
 6047POPC   C4A36654  15.222  12.839   7.650
 6047POPC   C1B36655  15.471  12.795   8.550
 6047POPC   C2B36656  15.448  12.881   8.250
 6047POPC   C3B36657  15.441  12.819   7.950
 6047POPC   C4B36658  15.436  12.879   7.650
 6048POPC   NC336659  39.209   4.288   9.450
 6048POPC   PO436660  39.257   4.345   9.150
 6048POPC   GL136661  39.277   4.353   8.850
 6048POPC   GL236662  39.305   4.443   8.850
 6048POPC   C1A36663  39.213   4.343   8.550
 6048POPC   D2A36664  39.253   4.339   8.250
 6048POPC   C3A36665  39.267   4.309   7.950
 6048POPC   C4A36666  39.184   4.341   7.650
 6048POPC   C1B36667  39.290   4.539   8.550
 6048POPC   C2B36668  39.359   4.505   8.250
 6048POPC   C3B36669  39.327   4.522   7.950
 6048POPC   C4B36670  39.344   4.590   7.650
 6049POPC   NC336671  23.744  30.702   9.450
 6049POPC   PO436672  23.728  30.726   9.150
 6049POPC   GL136673  23.679  30.724   8.850
 6049POPC   GL236674  23.624  30.554   8.850
 6049POPC   C1A36675  23.732  30.689   8.550
 6049POPC   D2A36676  23.682  30.647   8.250
 6049POPC   C3A36677  23.689  30.731   7.950
 6049POPC   C4A36678  23.735  30.677   7.650
 6049POPC   C1B36679  23.599  30.500   8.550
 6049POPC   C2B36680  23.596  30.530   8.250
 6049POPC   C3B36681  23.507  30.554   7.950
 6049POPC   C4B36682  23.574  30.491   7.650
 6050POPC   NC336683  33.045  36.121   9.450
 6050POPC   PO436684  33.037  36.103   9.150
 6050POPC   GL136685  33.057  36.159   8.850
 6050POPC   GL236686  33.091  36.274   8.850
 6050POPC   C1A36687  33.049  36.137   8.550
 6050POPC   D2A36688  33.046  36.110   8.250
 6050POPC   C3A36689  32.984  36.173   7.950
 6050POPC   C4A36690  32.987  36.110   7.650
 6050POPC   C1B36691  33.039  36.334   8.550
 6050POPC   C2B36692  33.041  36.374   8.250
 6050POPC   C3B36693  33.069  36.423   7.950
 6050POPC   C4B36694  33.073  36.423   7.650
 6051POPC   NC336695  21.410   8.231   9.450
 6051POPC   PO436696  21.363   8.232   9.150
 6051POPC   GL136697  21.346   8.234   8.850
 6051POPC   GL236698  21.493   8.284   8.850
 6051POPC   C1A36699  21.424   8.194   8.550
 6051POPC   D2A36700  21.401   8.227   8.250
 6051POPC   C3A36701  21.395   8.205   7.950
 6051POPC   C4A36702  21.411   8.181   7.650
 6051POPC   C1B36703  21.476   8.452   8.550
 6051POPC   C2B36704  21.504   8.412   8.250
 6051POPC   C3B36705  21.546   8.417   7.950
 6051POPC   C4B36706  21.475   8.402   7.650
 6052POPC   NC336707   1.963  30.737   9.450
 6052POPC   PO436708   1.961  30.727   9.150
 6052POPC   GL136709   1.963  30.694   8.850
 6052POPC   GL236710   2.070  30.681   8.850
 6052POPC   C1A36711   2.029  30.666   8.550
 6052POPC   D2A36712   1.961  30.694   8.250
 6052POPC   C3A36713   2.038  30.720   7.950
 6052POPC   C4A36714   1.962  30.736   7.650
 6052POPC   C1B36715   2.180  30.552   8.550
 6052POPC   C2B36716   2.161  30.562   8.250
 6052POPC   C3B36717   2.225  30.548   7.950
 6052POPC   C4B36718   2.244  30.567   7.650
 6053POPC   NC336719  25.228  17.525   9.450
 6053POPC   PO436720  25.281  17.468   9.150
 6053POPC   GL136721  25.284  17.507   8.850
 6053POPC   GL236722  25.121  17.419   8.850
 6053POPC   C1A36723  25.247  17.548   8.550
 6053POPC   D2A36724  25.248  17.552   8.250
 6053POPC   C3A36725  25.217  17.461   7.950
 6053POPC   C4A36726  25.224  17.496   7.650
 6053POPC   C1B36727  25.021  17.414   8.550
 6053POPC   C2B36728  25.046  17.452   8.250
 6053POPC   C3B36729  25.023  17.461   7.950
 6053POPC   C4B36730  24.994  17.453   7.650
 6054POPC   NC336731   0.412  18.293   9.450
 6054POPC   PO436732   0.443  18.270   9.150
 6054POPC   GL136733   0.438  18.273   8.850
 6054POPC   GL236734   0.609  18.334   8.850
 6054POPC   C1A36735   0.427  18.240   8.550
 6054POPC   D2A36736   0.476  18.282   8.250
 6054POPC   C3A36737   0.413  18.277   7.950
 6054POPC   C4A36738   0.453  18.294   7.650
 6054POPC   C1B36739   0.703  18.338   8.550
 6054POPC   C2B36740   0.712  18.311   8.250
 6054POPC   C3B36741   0.654  18.339   7.950
 6054POPC   C4B36742   0.724  18.295   7.650
 6055POPC   NC336743  24.500  36.174   9.450
 6055POPC   PO436744  24.503  36.127   9.150
 6055POPC   GL136745  24.477  36.120   8.850
 6055POPC   GL236746  24.332  36.221   8.850
 6055POPC   C1A36747  24.465  36.126   8.550
 6055POPC   D2A36748  24.471  36.142   8.250
 6055POPC   C3A36749  24.471  36.117   7.950
 6055POPC   C4A36750  24.477  36.167   7.650
 6055POPC   C1B36751  24.240  36.264   8.550
 6055POPC   C2B36752  24.308  36.212   8.250
 6055POPC   C3B36753  24.300  36.212   7.950
 6055POPC   C4B36754  24.277  36.229   7.650
 6056POPC   NC336755  19.013   5.875   9.450
 6056POPC   PO436756  19.031   5.872   9.150
 6056POPC   GL136757  19.106   5.886   8.850
 6056POPC   GL236758  19.126   5.942   8.850
 6056POPC   C1A36759  19.082   5.853   8.550
 6056POPC   D2A36760  19.048   5.863   8.250
 6056POPC   C3A36761  19.066   5.849   7.950
 6056POPC   C4A36762  19.046   5.917   7.650
 6056POPC   C1B36763  19.265   6.061   8.550
 6056POPC   C2B36764  19.233   6.016   8.250
 6056POPC   C3B36765  19.195   6.070   7.950
 6056POPC   C4B36766  19.182   6.045   7.650
 6057POPC   NC336767  37.682  11.266   9.450
 6057POPC   PO436768  37.649  11.270   9.150
 6057POPC   GL136769  37.671  11.312   8.850
 6057POPC   GL236770  37.832  11.229   8.850
 6057POPC   C1A36771  37.703  11.268   8.550
 6057POPC   D2A36772  37.646  11.268   8.250
 6057POPC   C3A36773  37.708  11.282   7.950
 6057POPC   C4A36774  37.654  11.274   7.650
 6057POPC   C1B36775  37.919  11.178   8.550
 6057POPC   C2B36776  37.864  11.112   8.250
 6057POPC   C3B36777  37.865  11.208   7.950
 6057POPC   C4B36778  37.851  11.185   7.650
 6058POPC   NC336779  42.380   6.666   9.450
 6058POPC   PO436780  42.336   6.662   9.150
 6058POPC   GL136781  42.351   6.623   8.850
 6058POPC   GL236782  42.211   6.773   8.850
 6058POPC   C1A36783  42.347   6.608   8.550
 6058POPC   D2A36784  42.307   6.683   8.250
 6058POPC   C3A36785  42.311   6.685   7.950
 6058POPC   C4A36786  42.349   6.624   7.650
 6058POPC   C1B36787  42.138   6.788   8.550
 6058POPC   C2B36788  42.162   6.821   8.250
 6058POPC   C3B36789  42.195   6.799   7.950
 6058POPC   C4B36790  42.146   6.816   7.650
 6059POPC   NC336791  36.141  25.222   9.450
 6059POPC   PO436792  36.132  25.251   9.150
 6059POPC   GL136793  36.157  25.268   8.850
 6059POPC   GL236794  36.230  25.179   8.850
 6059POPC   C1A36795  36.157  25.218   8.550
 6059POPC   D2A36796  36.088  25.231   8.250
 6059POPC   C3A36797  36.137  25.232   7.950
 6059POPC   C4A36798  36.105  25.299   7.650
 6059POPC   C1B36799  36.329  25.051   8.550
 6059POPC   C2B36800  36.344  25.079   8.250
 6059POPC   C3B36801  36.319  25.131   7.950
 6059POPC   C4B36802  36.265  25.039   7.650
 6060POPC   NC336803  36.081  13.586   9.450
 6060POPC   PO436804  36.141  13.608   9.150
 6060POPC   GL136805  36.170  13.666   8.850
 6060POPC   GL236806  36.045  13.698   8.850
 6060POPC   C1A36807  36.173  13.586   8.550
 6060POPC   D2A36808  36.106  13.637   8.250
 6060POPC   C3A36809  36.127  13.619   7.950
 6060POPC   C4A36810  36.150  13.613   7.650
 6060POPC   C1B36811  36.030  13.808   8.550
 6060POPC   C2B36812  36.040  13.880   8.250
 6060POPC   C3B36813  36.036  13.868   7.950
 6060POPC   C4B36814  35.997  13.860   7.650
 6061POPC   NC336815  25.286  44.674   9.450
 6061POPC   PO436816  25.247  44.632   9.150
 6061POPC   GL136817  25.229  44.672   8.850
 6061POPC   GL236818  25.339  44.617   8.850
 6061POPC   C1A36819  25.307  44.617   8.550
 6061POPC   D2A36820  25.249  44.685   8.250
 6061POPC   C3A36821  25.273  44.647   7.950
 6061POPC   C4A36822  25.281  44.661   7.650
 6061POPC   C1B36823  25.433  44.548   8.550
 6061POPC   C2B36824  25.503  44.534   8.250
 6061POPC   C3B36825  25.459  44.474   7.950
 6061POPC   C4B36826  25.461  44.530   7.650
 6062POPC   NC336827  22.152  33.835   9.450
 6062POPC   PO436828  22.196  33.777   9.150
 6062POPC   GL136829  22.137  33.776   8.850
 6062POPC   GL236830  21.991  33.834   8.850
 6062POPC   C1A36831  22.131  33.767   8.550
 6062POPC   D2A36832  22.205  33.834   8.250
 6062POPC   C3A36833  22.130  33.841   7.950
 6062POPC   C4A36834  22.198  33.784   7.650
 6062POPC   C1B36835  21.872  33.905   8.550
 6062POPC   C2B36836  21.893  33.846   8.250
 6062POPC   C3B36837  21.919  33.841   7.950
 6062POPC   C4B36838  21.918  33.841   7.650
 6063POPC   NC336839  15.910  15.158   9.450
 6063POPC   PO436840  15.965  15.149   9.150
 6063POPC   GL136841  15.985  15.197   8.850
 6063POPC   GL236842  16.050  15.208   8.850
 6063POPC   C1A36843  15.962  15.200   8.550
 6063POPC   D2A36844  15.941  15.181   8.250
 6063POPC   C3A36845  15.995  15.162   7.950
 6063POPC   C4A36846  15.933  15.137   7.650
 6063POPC   C1B36847  16.195  15.136   8.550
 6063POPC   C2B36848  16.175  15.157   8.250
 6063POPC   C3B36849  16.238  15.135   7.950
 6063POPC   C4B36850  16.238  15.187   7.650
 6064POPC   NC336851  12.894  23.687   9.450
 6064POPC   PO436852  12.854  23.698   9.150
 6064POPC   GL136853  12.847  23.675   8.850
 6064POPC   GL236854  12.736  23.761   8.850
 6064POPC   C1A36855  12.860  23.741   8.550
 6064POPC   D2A36856  12.901  23.717   8.250
 6064POPC   C3A36857  12.872  23.757   7.950
 6064POPC   C4A36858  12.856  23.690   7.650
 6064POPC   C1B36859  12.669  23.917   8.550
 6064POPC   C2B36860  12.726  23.851   8.250
 6064POPC   C3B36861  12.693  23.925   7.950
 6064POPC   C4B36862  12.730  23.872   7.650
 6065POPC   NC336863  35.352  28.375   9.450
 6065POPC   PO436864  35.315  28.372   9.150
 6065POPC   GL136865  35.382  28.328   8.850
 6065POPC   GL236866  35.367  28.485   8.850
 6065POPC   C1A36867  35.345  28.387   8.550
 6065POPC   D2A36868  35.336  28.367   8.250
 6065POPC   C3A36869  35.327  28.322   7.950
 6065POPC   C4A36870  35.361  28.405   7.650
 6065POPC   C1B36871  35.417  28.635   8.550
 6065POPC   C2B36872  35.435  28.583   8.250
 6065POPC   C3B36873  35.355  28.657   7.950
 6065POPC   C4B36874  35.357  28.589   7.650
 6066POPC   NC336875   1.173  44.680   9.450
 6066POPC   PO436876   1.208  44.623   9.150
 6066POPC   GL136877   1.174  44.669   8.850
 6066POPC   GL236878   1.129  44.582   8.850
 6066POPC   C1A36879   1.210  44.646   8.550
 6066POPC   D2A36880   1.227  44.667   8.250
 6066POPC   C3A36881   1.187  44.647   7.950
 6066POPC   C4A36882   1.245  44.706   7.650
 6066POPC   C1B36883   1.065  44.437   8.550
 6066POPC   C2B36884   1.122  44.493   8.250
 6066POPC   C3B36885   1.080  44.399   7.950
 6066POPC   C4B36886   1.098  44.467   7.650
 6067POPC   NC336887  44.700  36.084   9.450
 6067POPC   PO436888  44.638  36.083   9.150
 6067POPC   GL136889  44.656  36.124   8.850
 6067POPC   GL236890  44.749  36.217   8.850
 6067POPC   C1A36891  44.703  36.176   8.550
 6067POPC   D2A36892  44.614  36.094   8.250
 6067POPC   C3A36893  44.628  36.088   7.950
 6067POPC   C4A36894  44.627  36.169   7.650
 6067POPC   C1B36895  44.873  36.243   8.550
 6067POPC   C2B36896  44.935  36.257   8.250
 6067POPC   C3B36897  44.838  36.212   7.950
 6067POPC   C4B36898  44.852  36.262   7.650
 6068POPC   NC336899  20.609  15.148   9.450
 6068POPC   PO436900  20.629  15.228   9.150
 6068POPC   GL136901  20.615  15.196   8.850
 6068POPC   GL236902  20.680  15.146   8.850
 6068POPC   C1A36903  20.566  15.196   8.550
 6068POPC   D2A36904  20.561  15.167   8.250
 6068POPC   C3A36905  20.568  15.132   7.950
 6068POPC   C4A36906  20.563  15.134   7.650
 6068POPC   C1B36907  20.791  15.045   8.550
 6068POPC   C2B36908  20.846  15.092   8.250
 6068POPC   C3B36909  20.819  15.067   7.950
 6068POPC   C4B36910  20.874  15.119   7.650
 6069POPC   NC336911  29.185  37.675   9.450
 6069POPC   PO436912  29.134  37.637   9.150
 6069POPC   GL136913  29.154  37.641   8.850
 6069POPC   GL236914  29.082  37.631   8.850
 6069POPC   C1A36915  29.121  37.728   8.550
 6069POPC   D2A36916  29.185  37.680   8.250
 6069POPC   C3A36917  29.154  37.685   7.950
 6069POPC   C4A36918  29.135  37.684   7.650
 6069POPC   C1B36919  29.024  37.537   8.550
 6069POPC   C2B36920  29.008  37.477   8.250
 6069POPC   C3B36921  28.941  37.453   7.950
 6069POPC   C4B36922  28.975  37.479   7.650
 6070POPC   NC336923  18.264  40.031   9.450
 6070POPC   PO436924  18.291  39.988   9.150
 6070POPC   GL136925  18.273  39.975   8.850
 6070POPC   GL236926  18.335  39.915   8.850
 6070POPC   C1A36927  18.331  40.041   8.550
 6070POPC   D2A36928  18.261  40.025   8.250
 6070POPC   C3A36929  18.303  39.971   7.950
 6070POPC   C4A36930  18.249  39.957   7.650
 6070POPC   C1B36931  18.282  39.773   8.550
 6070POPC   C2B36932  18.324  39.803   8.250
 6070POPC   C3B36933  18.331  39.773   7.950
 6070POPC   C4B36934  18.344  39.784   7.650
 6071POPC   NC336935  23.684   1.957   9.450
 6071POPC   PO436936  23.670   2.029   9.150
 6071POPC   GL136937  23.704   1.984   8.850
 6071POPC   GL236938  23.813   2.057   8.850
 6071POPC   C1A36939  23.737   1.971   8.550
 6071POPC   D2A36940  23.709   1.971   8.250
 6071POPC   C3A36941  23.730   1.957   7.950
 6071POPC   C4A36942  23.762   1.984   7.650
 6071POPC   C1B36943  23.885   2.173   8.550
 6071POPC   C2B36944  23.883   2.217   8.250
 6071POPC   C3B36945  23.871   2.222   7.950
 6071POPC   C4B36946  23.809   2.243   7.650
 6072POPC   NC336947   5.822  27.557   9.450
 6072POPC   PO436948   5.877  27.634   9.150
 6072POPC   GL136949   5.863  27.594   8.850
 6072POPC   GL236950   5.966  27.578   8.850
 6072POPC   C1A36951   5.849  27.639   8.550
 6072POPC   D2A36952   5.836  27.543   8.250
 6072POPC   C3A36953   5.896  27.557   7.950
 6072POPC   C4A36954   5.902  27.591   7.650
 6072POPC   C1B36955   6.081  27.600   8.550
 6072POPC   C2B36956   6.129  27.601   8.250
 6072POPC   C3B36957   6.149  27.527   7.950
 6072POPC   C4B36958   6.160  27.606   7.650
 6073POPC   NC336959  35.321   7.411   9.450
 6073POPC   PO436960  35.380   7.466   9.150
 6073POPC   GL136961  35.374   7.437   8.850
 6073POPC   GL236962  35.197   7.422   8.850
 6073POPC   C1A36963  35.363   7.371   8.550
 6073POPC   D2A36964  35.360   7.396   8.250
 6073POPC   C3A36965  35.399   7.373   7.950
 6073POPC   C4A36966  35.357   7.439   7.650
 6073POPC   C1B36967  35.131   7.460   8.550
 6073POPC   C2B36968  35.136   7.509   8.250
 6073POPC   C3B36969  35.136   7.482   7.950
 6073POPC   C4B36970  35.073   7.490   7.650
 6074POPC   NC336971  40.045   8.211   9.450
 6074POPC   PO436972  39.981   8.215   9.150
 6074POPC   GL136973  40.029   8.242   8.850
 6074POPC   GL236974  39.894   8.196   8.850
 6074POPC   C1A36975  39.981   8.175   8.550
 6074POPC   D2A36976  40.040   8.148   8.250
 6074POPC   C3A36977  40.021   8.178   7.950
 6074POPC   C4A36978  40.050   8.147   7.650
 6074POPC   C1B36979  39.749   8.192   8.550
 6074POPC   C2B36980  39.788   8.246   8.250
 6074POPC   C3B36981  39.742   8.209   7.950
 6074POPC   C4B36982  39.742   8.161   7.650
 6075POPC   NC336983   5.873  19.822   9.450
 6075POPC   PO436984   5.860  19.839   9.150
 6075POPC   GL136985   5.885  19.877   8.850
 6075POPC   GL236986   5.930  19.778   8.850
 6075POPC   C1A36987   5.876  19.817   8.550
 6075POPC   D2A36988   5.826  19.827   8.250
 6075POPC   C3A36989   5.861  19.836   7.950
 6075POPC   C4A36990   5.830  19.821   7.650
 6075POPC   C1B36991   6.023  19.622   8.550
 6075POPC   C2B36992   5.991  19.614   8.250
 6075POPC   C3B36993   6.066  19.686   7.950
 6075POPC   C4B36994   6.024  19.670   7.650
 6076POPC   NC336995   7.445   6.635   9.450
 6076POPC   PO436996   7.465   6.670   9.150
 6076POPC   GL136997   7.420   6.604   8.850
 6076POPC   GL236998   7.349   6.650   8.850
 6076POPC   C1A36999   7.457   6.636   8.550
 6076POPC   D2A37000   7.427   6.595   8.250
 6076POPC   C3A37001   7.462   6.614   7.950
 6076POPC   C4A37002   7.372   6.646   7.650
 6076POPC   C1B37003   7.198   6.747   8.550
 6076POPC   C2B37004   7.187   6.749   8.250
 6076POPC   C3B37005   7.170   6.763   7.950
 6076POPC   C4B37006   7.194   6.728   7.650
 6077POPC   NC337007  37.647  12.836   9.450
 6077POPC   PO437008  37.642  12.855   9.150
 6077POPC   GL137009  37.647  12.856   8.850
 6077POPC   GL237010  37.831  12.931   8.850
 6077POPC   C1A37011  37.690  12.862   8.550
 6077POPC   D2A37012  37.685  12.852   8.250
 6077POPC   C3A37013  37.647  12.833   7.950
 6077POPC   C4A37014  37.707  12.874   7.650
 6077POPC   C1B37015  37.873  12.884   8.550
 6077POPC   C2B37016  37.945  12.892   8.250
 6077POPC   C3B37017  37.971  12.952   7.950
 6077POPC   C4B37018  37.962  12.870   7.650
 6078POPC   NC337019  21.352  39.978   9.450
 6078POPC   PO437020  21.425  40.051   9.150
 6078POPC   GL137021  21.427  40.024   8.850
 6078POPC   GL237022  21.331  40.079   8.850
 6078POPC   C1A37023  21.360  39.992   8.550
 6078POPC   D2A37024  21.375  39.980   8.250
 6078POPC   C3A37025  21.370  40.030   7.950
 6078POPC   C4A37026  21.420  40.028   7.650
 6078POPC   C1B37027  21.287  40.254   8.550
 6078POPC   C2B37028  21.292  40.246   8.250
 6078POPC   C3B37029  21.287  40.243   7.950
 6078POPC   C4B37030  21.280  40.238   7.650
 6079POPC   NC337031  24.455  15.986   9.450
 6079POPC   PO437032  24.521  15.952   9.150
 6079POPC   GL137033  24.525  15.957   8.850
 6079POPC   GL237034  24.623  15.875   8.850
 6079POPC   C1A37035  24.490  15.926   8.550
 6079POPC   D2A37036  24.461  15.941   8.250
 6079POPC   C3A37037  24.503  15.939   7.950
 6079POPC   C4A37038  24.536  15.975   7.650
 6079POPC   C1B37039  24.743  15.784   8.550
 6079POPC   C2B37040  24.676  15.791   8.250
 6079POPC   C3B37041  24.716  15.853   7.950
 6079POPC   C4B37042  24.736  15.856   7.650
 6080POPC   NC337043   0.453  16.769   9.450
 6080POPC   PO437044   0.469  16.780   9.150
 6080POPC   GL137045   0.430  16.767   8.850
 6080POPC   GL237046   0.494  16.828   8.850
 6080POPC   C1A37047   0.449  16.710   8.550
 6080POPC   D2A37048   0.462  16.703   8.250
 6080POPC   C3A37049   0.419  16.780   7.950
 6080POPC   C4A37050   0.447  16.768   7.650
 6080POPC   C1B37051   0.441  17.013   8.550
 6080POPC   C2B37052   0.459  16.932   8.250
 6080POPC   C3B37053   0.513  17.006   7.950
 6080POPC   C4B37054   0.508  16.991   7.650
 6081POPC   NC337055  28.356  31.454   9.450
 6081POPC   PO437056  28.362  31.490   9.150
 6081POPC   GL137057  28.415  31.504   8.850
 6081POPC   GL237058  28.231  31.441   8.850
 6081POPC   C1A37059  28.368  31.467   8.550
 6081POPC   D2A37060  28.372  31.499   8.250
 6081POPC   C3A37061  28.326  31.498   7.950
 6081POPC   C4A37062  28.394  31.496   7.650
 6081POPC   C1B37063  28.160  31.340   8.550
 6081POPC   C2B37064  28.113  31.421   8.250
 6081POPC   C3B37065  28.108  31.408   7.950
 6081POPC   C4B37066  28.091  31.353   7.650
 6082POPC   NC337067  17.524  17.465   9.450
 6082POPC   PO437068  17.480  17.499   9.150
 6082POPC   GL137069  17.556  17.536   8.850
 6082POPC   GL237070  17.434  17.401   8.850
 6082POPC   C1A37071  17.461  17.484   8.550
 6082POPC   D2A37072  17.484  17.509   8.250
 6082POPC   C3A37073  17.470  17.543   7.950
 6082POPC   C4A37074  17.520  17.471   7.650
 6082POPC   C1B37075  17.326  17.379   8.550
 6082POPC   C2B37076  17.277  17.306   8.250
 6082POPC   C3B37077  17.356  17.324   7.950
 6082POPC   C4B37078  17.371  17.349   7.650
 6083POPC   NC337079  21.397  33.783   9.450
 6083POPC   PO437080  21.370  33.781   9.150
 6083POPC   GL137081  21.433  33.819   8.850
 6083POPC   GL237082  21.276  33.789   8.850
 6083POPC   C1A37083  21.367  33.843   8.550
 6083POPC   D2A37084  21.363  33.779   8.250
 6083POPC   C3A37085  21.375  33.771   7.950
 6083POPC   C4A37086  21.359  33.824   7.650
 6083POPC   C1B37087  21.216  33.636   8.550
 6083POPC   C2B37088  21.198  33.657   8.250
 6083POPC   C3B37089  21.133  33.645   7.950
 6083POPC   C4B37090  21.183  33.668   7.650
 6084POPC   NC337091  40.001  11.282   9.450
 6084POPC   PO437092  40.043  11.252   9.150
 6084POPC   GL137093  39.990  11.307   8.850
 6084POPC   GL237094  40.124  11.237   8.850
 6084POPC   C1A37095  40.032  11.317   8.550
 6084POPC   D2A37096  39.975  11.335   8.250
 6084POPC   C3A37097  39.980  11.348   7.950
 6084POPC   C4A37098  40.039  11.272   7.650
 6084POPC   C1B37099  40.230  11.264   8.550
 6084POPC   C2B37100  40.286  11.190   8.250
 6084POPC   C3B37101  40.201  11.230   7.950
 6084POPC   C4B37102  40.232  11.188   7.650
 6085POPC   NC337103  26.788  41.595   9.450
 6085POPC   PO437104  26.840  41.596   9.150
 6085POPC   GL137105  26.834  41.594   8.850
 6085POPC   GL237106  26.838  41.419   8.850
 6085POPC   C1A37107  26.783  41.553   8.550
 6085POPC   D2A37108  26.853  41.545   8.250
 6085POPC   C3A37109  26.833  41.594   7.950
 6085POPC   C4A37110  26.792  41.556   7.650
 6085POPC   C1B37111  26.877  41.289   8.550
 6085POPC   C2B37112  26.874  41.326   8.250
 6085POPC   C3B37113  26.861  41.358   7.950
 6085POPC   C4B37114  26.860  41.331   7.650
 6086POPC   NC337115   6.637  12.066   9.450
 6086POPC   PO437116   6.648  12.095   9.150
 6086POPC   GL137117   6.675  12.085   8.850
 6086POPC   GL237118   6.692  11.993   8.850
 6086POPC   C1A37119   6.602  12.036   8.550
 6086POPC   D2A37120   6.646  12.093   8.250
 6086POPC   C3A37121   6.659  12.053   7.950
 6086POPC   C4A37122   6.606  12.075   7.650
 6086POPC   C1B37123   6.761  11.906   8.550
 6086POPC   C2B37124   6.748  11.888   8.250
 6086POPC   C3B37125   6.768  11.882   7.950
 6086POPC   C4B37126   6.795  11.855   7.650
 6087POPC   NC337127  37.630  16.745   9.450
 6087POPC   PO437128  37.637  16.715   9.150
 6087POPC   GL137129  37.676  16.719   8.850
 6087POPC   GL237130  37.765  16.863   8.850
 6087POPC   C1A37131  37.644  16.715   8.550
 6087POPC   D2A37132  37.726  16.702   8.250
 6087POPC   C3A37133  37.727  16.725   7.950
 6087POPC   C4A37134  37.652  16.732   7.650
 6087POPC   C1B37135  37.775  16.981   8.550
 6087POPC   C2B37136  37.783  16.966   8.250
 6087POPC   C3B37137  37.715  17.013   7.950
 6087POPC   C4B37138  37.759  16.963   7.650
 6088POPC   NC337139   3.529   1.257   9.450
 6088POPC   PO437140   3.494   1.235   9.150
 6088POPC   GL137141   3.509   1.241   8.850
 6088POPC   GL237142   3.371   1.260   8.850
 6088POPC   C1A37143   3.577   1.212   8.550
 6088POPC   D2A37144   3.586   1.188   8.250
 6088POPC   C3A37145   3.549   1.242   7.950
 6088POPC   C4A37146   3.561   1.194   7.650
 6088POPC   C1B37147   3.269   1.307   8.550
 6088POPC   C2B37148   3.304   1.300   8.250
 6088POPC   C3B37149   3.258   1.256   7.950
 6088POPC   C4B37150   3.281   1.270   7.650
 6089POPC   NC337151  43.888  12.898   9.450
 6089POPC   PO437152  43.882  12.897   9.150
 6089POPC   GL137153  43.839  12.852   8.850
 6089POPC   GL237154  43.814  12.934   8.850
 6089POPC   C1A37155  43.927  12.897   8.550
 6089POPC   D2A37156  43.901  12.870   8.250
 6089POPC   C3A37157  43.837  12.837   7.950
 6089POPC   C4A37158  43.862  12.827   7.650
 6089POPC   C1B37159  43.613  12.948   8.550
 6089POPC   C2B37160  43.612  12.965   8.250
 6089POPC   C3B37161  43.646  12.927   7.950
 6089POPC   C4B37162  43.663  12.979   7.650
 6090POPC   NC337163  20.577  41.532   9.450
 6090POPC   PO437164  20.616  41.579   9.150
 6090POPC   GL137165  20.623  41.531   8.850
 6090POPC   GL237166  20.756  41.643   8.850
 6090POPC   C1A37167  20.567  41.578   8.550
 6090POPC   D2A37168  20.574  41.558   8.250
 6090POPC   C3A37169  20.629  41.541   7.950
 6090POPC   C4A37170  20.596  41.562   7.650
 6090POPC   C1B37171  20.874  41.588   8.550
 6090POPC   C2B37172  20.867  41.590   8.250
 6090POPC   C3B37173  20.875  41.678   7.950
 6090POPC   C4B37174  20.828  41.671   7.650
 6091POPC   NC337175  41.524   2.782   9.450
 6091POPC   PO437176  41.539   2.793   9.150
 6091POPC   GL137177  41.545   2.760   8.850
 6091POPC   GL237178  41.439   2.740   8.850
 6091POPC   C1A37179  41.524   2.739   8.550
 6091POPC   D2A37180  41.525   2.777   8.250
 6091POPC   C3A37181  41.555   2.717   7.950
 6091POPC   C4A37182  41.536   2.767   7.650
 6091POPC   C1B37183  41.362   2.634   8.550
 6091POPC   C2B37184  41.363   2.666   8.250
 6091POPC   C3B37185  41.362   2.602   7.950
 6091POPC   C4B37186  41.397   2.643   7.650
 6092POPC   NC337187  25.301  21.355   9.450
 6092POPC   PO437188  25.224  21.411   9.150
 6092POPC   GL137189  25.270  21.433   8.850
 6092POPC   GL237190  25.352  21.291   8.850
 6092POPC   C1A37191  25.278  21.430   8.550
 6092POPC   D2A37192  25.233  21.337   8.250
 6092POPC   C3A37193  25.220  21.399   7.950
 6092POPC   C4A37194  25.222  21.337   7.650
 6092POPC   C1B37195  25.469  21.261   8.550
 6092POPC   C2B37196  25.494  21.295   8.250
 6092POPC   C3B37197  25.499  21.219   7.950
 6092POPC   C4B37198  25.477  21.225   7.650
 6093POPC   NC337199  15.974  23.693   9.450
 6093POPC   PO437200  15.995  23.731   9.150
 6093POPC   GL137201  15.964  23.758   8.850
 6093POPC   GL237202  15.896  23.789   8.850
 6093POPC   C1A37203  15.981  23.763   8.550
 6093POPC   D2A37204  15.912  23.759   8.250
 6093POPC   C3A37205  15.957  23.709   7.950
 6093POPC   C4A37206  15.931  23.738   7.650
 6093POPC   C1B37207  15.785  23.860   8.550
 6093POPC   C2B37208  15.772  23.946   8.250
 6093POPC   C3B37209  15.809  23.935   7.950
 6093POPC   C4B37210  15.799  23.900   7.650
 6094POPC   NC337211  35.335  18.260   9.450
 6094POPC   PO437212  35.352  18.322   9.150
 6094POPC   GL137213  35.399  18.294   8.850
 6094POPC   GL237214  35.248  18.265   8.850
 6094POPC   C1A37215  35.302  18.281   8.550
 6094POPC   D2A37216  35.327  18.309   8.250
 6094POPC   C3A37217  35.360  18.332   7.950
 6094POPC   C4A37218  35.369  18.246   7.650
 6094POPC   C1B37219  35.082  18.183   8.550
 6094POPC   C2B37220  35.150  18.253   8.250
 6094POPC   C3B37221  35.112  18.208   7.950
 6094POPC   C4B37222  35.096  18.269   7.650
 6095POPC   NC337223   5.875   8.963   9.450
 6095POPC   PO437224   5.879   8.993   9.150
 6095POPC   GL137225   5.842   8.982   8.850
 6095POPC   GL237226   5.895   9.083   8.850
 6095POPC   C1A37227   5.887   8.952   8.550
 6095POPC   D2A37228   5.917   8.965   8.250
 6095POPC   C3A37229   5.916   9.015   7.950
 6095POPC   C4A37230   5.834   8.949   7.650
 6095POPC   C1B37231   5.881   9.270   8.550
 6095POPC   C2B37232   5.883   9.195   8.250
 6095POPC   C3B37233   5.893   9.254   7.950
 6095POPC   C4B37234   5.898   9.214   7.650
 6096POPC   NC337235  18.324  18.273   9.450
 6096POPC   PO437236  18.258  18.254   9.150
 6096POPC   GL137237  18.327  18.276   8.850
 6096POPC   GL237238  18.212  18.376   8.850
 6096POPC   C1A37239  18.328  18.251   8.550
 6096POPC   D2A37240  18.322  18.316   8.250
 6096POPC   C3A37241  18.243  18.315   7.950
 6096POPC   C4A37242  18.330  18.324   7.650
 6096POPC   C1B37243  18.101  18.377   8.550
 6096POPC   C2B37244  18.056  18.449   8.250
 6096POPC   C3B37245  18.051  18.374   7.950
 6096POPC   C4B37246  18.100  18.421   7.650
 6097POPC   NC337247  12.825  24.520   9.450
 6097POPC   PO437248  12.865  24.449   9.150
 6097POPC   GL137249  12.830  24.453   8.850
 6097POPC   GL237250  12.946  24.468   8.850
 6097POPC   C1A37251  12.809  24.506   8.550
 6097POPC   D2A37252  12.871  24.500   8.250
 6097POPC   C3A37253  12.840  24.538   7.950
 6097POPC   C4A37254  12.818  24.514   7.650
 6097POPC   C1B37255  13.029  24.343   8.550
 6097POPC   C2B37256  13.079  24.352   8.250
 6097POPC   C3B37257  13.109  24.389   7.950
 6097POPC   C4B37258  13.026  24.346   7.650
 6098POPC   NC337259  26.860  20.567   9.450
 6098POPC   PO437260  26.792  20.643   9.150
 6098POPC   GL137261  26.838  20.598   8.850
 6098POPC   GL237262  26.695  20.597   8.850
 6098POPC   C1A37263  26.864  20.591   8.550
 6098POPC   D2A37264  26.842  20.619   8.250
 6098POPC   C3A37265  26.841  20.570   7.950
 6098POPC   C4A37266  26.853  20.615   7.650
 6098POPC   C1B37267  26.591  20.602   8.550
 6098POPC   C2B37268  26.574  20.571   8.250
 6098POPC   C3B37269  26.545  20.566   7.950
 6098POPC   C4B37270  26.565  20.527   7.650
 6099POPC   NC337271  26.006  15.967   9.450
 6099POPC   PO437272  26.081  15.957   9.150
 6099POPC   GL137273  26.067  15.959   8.850
 6099POPC   GL237274  26.126  15.874   8.850
 6099POPC   C1A37275  26.059  15.993   8.550
 6099POPC   D2A37276  26.053  15.970   8.250
 6099POPC   C3A37277  26.045  15.910   7.950
 6099POPC   C4A37278  26.007  15.939   7.650
 6099POPC   C1B37279  26.194  15.707   8.550
 6099POPC   C2B37280  26.158  15.778   8.250
 6099POPC   C3B37281  26.169  15.756   7.950
 6099POPC   C4B37282  26.148  15.778   7.650
 6100POPC   NC337283  26.785  29.893   9.450
 6100POPC   PO437284  26.802  29.881   9.150
 6100POPC   GL137285  26.824  29.933   8.850
 6100POPC   GL237286  26.704  30.002   8.850
 6100POPC   C1A37287  26.784  29.904   8.550
 6100POPC   D2A37288  26.797  29.950   8.250
 6100POPC   C3A37289  26.856  29.872   7.950
 6100POPC   C4A37290  26.772  29.917   7.650
 6100POPC   C1B37291  26.578  30.105   8.550
 6100POPC   C2B37292  26.659  30.072   8.250
 6100POPC   C3B37293  26.611  30.034   7.950
 6100POPC   C4B37294  26.655  30.036   7.650
 6101POPC   NC337295   3.546  15.140   9.450
 6101POPC   PO437296   3.564  15.202   9.150
 6101POPC   GL137297   3.575  15.157   8.850
 6101POPC   GL237298   3.373  15.106   8.850
 6101POPC   C1A37299   3.512  15.210   8.550
 6101POPC   D2A37300   3.502  15.191   8.250
 6101POPC   C3A37301   3.561  15.154   7.950
 6101POPC   C4A37302   3.576  15.182   7.650
 6101POPC   C1B37303   3.263  15.070   8.550
 6101POPC   C2B37304   3.344  15.116   8.250
 6101POPC   C3B37305   3.347  15.124   7.950
 6101POPC   C4B37306   3.289  15.103   7.650
 6102POPC   NC337307  43.084  40.042   9.450
 6102POPC   PO437308  43.145  39.977   9.150
 6102POPC   GL137309  43.066  39.961   8.850
 6102POPC   GL237310  43.067  40.095   8.850
 6102POPC   C1A37311  43.109  40.019   8.550
 6102POPC   D2A37312  43.120  39.963   8.250
 6102POPC   C3A37313  43.079  40.034   7.950
 6102POPC   C4A37314  43.130  39.958   7.650
 6102POPC   C1B37315  43.065  40.283   8.550
 6102POPC   C2B37316  43.082  40.269   8.250
 6102POPC   C3B37317  43.043  40.243   7.950
 6102POPC   C4B37318  43.124  40.232   7.650
 6103POPC   NC337319  44.697   7.408   9.450
 6103POPC   PO437320  44.657   7.447   9.150
 6103POPC   GL137321  44.702   7.444   8.850
 6103POPC   GL237322  44.749   7.441   8.850
 6103POPC   C1A37323  44.643   7.453   8.550
 6103POPC   D2A37324  44.629   7.397   8.250
 6103POPC   C3A37325  44.640   7.469   7.950
 6103POPC   C4A37326  44.696   7.465   7.650
 6103POPC   C1B37327  44.845   7.582   8.550
 6103POPC   C2B37328  44.933   7.520   8.250
 6103POPC   C3B37329  44.872   7.523   7.950
 6103POPC   C4B37330  44.870   7.547   7.650
 6104POPC   NC337331   5.117  44.709   9.450
 6104POPC   PO437332   5.131  44.685   9.150
 6104POPC   GL137333   5.062  44.652   8.850
 6104POPC   GL237334   5.060  44.551   8.850
 6104POPC   C1A37335   5.104  44.625   8.550
 6104POPC   D2A37336   5.131  44.667   8.250
 6104POPC   C3A37337   5.133  44.665   7.950
 6104POPC   C4A37338   5.130  44.701   7.650
 6104POPC   C1B37339   5.101  44.453   8.550
 6104POPC   C2B37340   5.083  44.425   8.250
 6104POPC   C3B37341   5.099  44.444   7.950
 6104POPC   C4B37342   5.078  44.442   7.650
 6105POPC   NC337343  22.179   9.743   9.450
 6105POPC   PO437344  22.142   9.704   9.150
 6105POPC   GL137345  22.146   9.787   8.850
 6105POPC   GL237346  22.189   9.910   8.850
 6105POPC   C1A37347  22.206   9.733   8.550
 6105POPC   D2A37348  22.170   9.744   8.250
 6105POPC   C3A37349  22.192   9.762   7.950
 6105POPC   C4A37350  22.161   9.765   7.650
 6105POPC   C1B37351  22.212   9.952   8.550
 6105POPC   C2B37352  22.194   9.951   8.250
 6105POPC   C3B37353  22.199   9.947   7.950
 6105POPC   C4B37354  22.172   9.992   7.650
 6106POPC   NC337355  39.191  10.493   9.450
 6106POPC   PO437356  39.268  10.532   9.150
 6106POPC   GL137357  39.239  10.511   8.850
 6106POPC   GL237358  39.374  10.458   8.850
 6106POPC   C1A37359  39.266  10.542   8.550
 6106POPC   D2A37360  39.277  10.505   8.250
 6106POPC   C3A37361  39.183  10.497   7.950
 6106POPC   C4A37362  39.215  10.479   7.650
 6106POPC   C1B37363  39.412  10.387   8.550
 6106POPC   C2B37364  39.383  10.375   8.250
 6106POPC   C3B37365  39.417  10.415   7.950
 6106POPC   C4B37366  39.473  10.394   7.650
 6107POPC   NC337367   1.221   8.153   9.450
 6107POPC   PO437368   1.249   8.166   9.150
 6107POPC   GL137369   1.191   8.224   8.850
 6107POPC   GL237370   1.223   8.359   8.850
 6107POPC   C1A37371   1.258   8.245   8.550
 6107POPC   D2A37372   1.178   8.202   8.250
 6107POPC   C3A37373   1.247   8.201   7.950
 6107POPC   C4A37374   1.222   8.154   7.650
 6107POPC   C1B37375   1.121   8.487   8.550
 6107POPC   C2B37376   1.132   8.479   8.250
 6107POPC   C3B37377   1.160   8.445   7.950
 6107POPC   C4B37378   1.128   8.437   7.650
 6108POPC   NC337379  19.106  36.916   9.450
 6108POPC   PO437380  19.060  36.909   9.150
 6108POPC   GL137381  19.061  36.867   8.850
 6108POPC   GL237382  18.978  36.827   8.850
 6108POPC   C1A37383  19.087  36.946   8.550
 6108POPC   D2A37384  19.076  36.945   8.250
 6108POPC   C3A37385  19.059  36.873   7.950
 6108POPC   C4A37386  19.083  36.920   7.650
 6108POPC   C1B37387  18.858  36.696   8.550
 6108POPC   C2B37388  18.839  36.736   8.250
 6108POPC   C3B37389  18.872  36.753   7.950
 6108POPC   C4B37390  18.879  36.687   7.650
 6109POPC   NC337391  42.383  35.350   9.450
 6109POPC   PO437392  42.293  35.388   9.150
 6109POPC   GL137393  42.297  35.384   8.850
 6109POPC   GL237394  42.387  35.451   8.850
 6109POPC   C1A37395  42.379  35.357   8.550
 6109POPC   D2A37396  42.292  35.378   8.250
 6109POPC   C3A37397  42.311  35.336   7.950
 6109POPC   C4A37398  42.345  35.391   7.650
 6109POPC   C1B37399  42.409  35.617   8.550
 6109POPC   C2B37400  42.481  35.532   8.250
 6109POPC   C3B37401  42.477  35.585   7.950
 6109POPC   C4B37402  42.451  35.567   7.650
 6110POPC   NC337403  19.789  23.675   9.450
 6110POPC   PO437404  19.799  23.708   9.150
 6110POPC   GL137405  19.860  23.752   8.850
 6110POPC   GL237406  19.695  23.640   8.850
 6110POPC   C1A37407  19.850  23.674   8.550
 6110POPC   D2A37408  19.863  23.704   8.250
 6110POPC   C3A37409  19.822  23.716   7.950
 6110POPC   C4A37410  19.880  23.750   7.650
 6110POPC   C1B37411  19.603  23.593   8.550
 6110POPC   C2B37412  19.603  23.585   8.250
 6110POPC   C3B37413  19.608  23.595   7.950
 6110POPC   C4B37414  19.630  23.538   7.650
 6111POPC   NC337415  44.711  22.976   9.450
 6111POPC   PO437416  44.685  22.962   9.150
 6111POPC   GL137417  44.667  22.936   8.850
 6111POPC   GL237418  44.557  22.904   8.850
 6111POPC   C1A37419  44.647  22.916   8.550
 6111POPC   D2A37420  44.700  22.945   8.250
 6111POPC   C3A37421  44.655  22.930   7.950
 6111POPC   C4A37422  44.616  22.954   7.650
 6111POPC   C1B37423  44.371  22.933   8.550
 6111POPC   C2B37424  44.410  22.920   8.250
 6111POPC   C3B37425  44.379  22.942   7.950
 6111POPC   C4B37426  44.463  22.923   7.650
 6112POPC   NC337427  22.968   3.589   9.450
 6112POPC   PO437428  22.903   3.584   9.150
 6112POPC   GL137429  22.913   3.557   8.850
 6112POPC   GL237430  22.886   3.485   8.850
 6112POPC   C1A37431  22.906   3.500   8.550
 6112POPC   D2A37432  22.937   3.579   8.250
 6112POPC   C3A37433  22.936   3.527   7.950
 6112POPC   C4A37434  22.969   3.513   7.650
 6112POPC   C1B37435  22.785   3.384   8.550
 6112POPC   C2B37436  22.712   3.422   8.250
 6112POPC   C3B37437  22.727   3.434   7.950
 6112POPC   C4B37438  22.719   3.395   7.650
 6113POPC   NC337439  35.328  39.214   9.450
 6113POPC   PO437440  35.326  39.194   9.150
 6113POPC   GL137441  35.324  39.221   8.850
 6113POPC   GL237442  35.296  39.189   8.850
 6113POPC   C1A37443  35.366  39.235   8.550
 6113POPC   D2A37444  35.326  39.215   8.250
 6113POPC   C3A37445  35.394  39.260   7.950
 6113POPC   C4A37446  35.335  39.214   7.650
 6113POPC   C1B37447  35.133  39.046   8.550
 6113POPC   C2B37448  35.193  39.138   8.250
 6113POPC   C3B37449  35.162  39.110   7.950
 6113POPC   C4B37450  35.181  39.092   7.650
 6114POPC   NC337451  44.612  18.272   9.450
 6114POPC   PO437452  44.643  18.325   9.150
 6114POPC   GL137453  44.685  18.291   8.850
 6114POPC   GL237454  44.751  18.296   8.850
 6114POPC   C1A37455  44.652  18.276   8.550
 6114POPC   D2A37456  44.679  18.255   8.250
 6114POPC   C3A37457  44.614  18.240   7.950
 6114POPC   C4A37458  44.697  18.267   7.650
 6114POPC   C1B37459  44.886  18.308   8.550
 6114POPC   C2B37460  44.946  18.274   8.250
 6114POPC   C3B37461  44.919  18.326   7.950
 6114POPC   C4B37462  44.924  18.319   7.650
 6115POPC   NC337463   2.751   1.262   9.450
 6115POPC   PO437464   2.797   1.252   9.150
 6115POPC   GL137465   2.762   1.230   8.850
 6115POPC   GL237466   2.877   1.181   8.850
 6115POPC   C1A37467   2.815   1.239   8.550
 6115POPC   D2A37468   2.779   1.246   8.250
 6115POPC   C3A37469   2.736   1.261   7.950
 6115POPC   C4A37470   2.758   1.165   7.650
 6115POPC   C1B37471   3.002   1.089   8.550
 6115POPC   C2B37472   2.953   1.082   8.250
 6115POPC   C3B37473   2.973   1.078   7.950
 6115POPC   C4B37474   2.999   1.072   7.650
 6116POPC   NC337475  22.138  39.958   9.450
 6116POPC   PO437476  22.186  39.965   9.150
 6116POPC   GL137477  22.187  40.031   8.850
 6116POPC   GL237478  22.312  39.998   8.850
 6116POPC   C1A37479  22.119  40.001   8.550
 6116POPC   D2A37480  22.139  40.017   8.250
 6116POPC   C3A37481  22.174  40.031   7.950
 6116POPC   C4A37482  22.156  40.020   7.650
 6116POPC   C1B37483  22.367  40.043   8.550
 6116POPC   C2B37484  22.387  40.099   8.250
 6116POPC   C3B37485  22.384  40.088   7.950
 6116POPC   C4B37486  22.414  40.064   7.650
 6117POPC   NC337487   7.398  26.816   9.450
 6117POPC   PO437488   7.389  26.775   9.150
 6117POPC   GL137489   7.404  26.837   8.850
 6117POPC   GL237490   7.255  26.815   8.850
 6117POPC   C1A37491   7.448  26.800   8.550
 6117POPC   D2A37492   7.373  26.854   8.250
 6117POPC   C3A37493   7.372  26.847   7.950
 6117POPC   C4A37494   7.400  26.863   7.650
 6117POPC   C1B37495   7.218  26.808   8.550
 6117POPC   C2B37496   7.173  26.782   8.250
 6117POPC   C3B37497   7.198  26.821   7.950
 6117POPC   C4B37498   7.214  26.803   7.650
 6118POPC   NC337499  17.485   6.611   9.450
 6118POPC   PO437500  17.531   6.680   9.150
 6118POPC   GL137501  17.494   6.640   8.850
 6118POPC   GL237502  17.408   6.602   8.850
 6118POPC   C1A37503  17.513   6.659   8.550
 6118POPC   D2A37504  17.524   6.677   8.250
 6118POPC   C3A37505  17.485   6.603   7.950
 6118POPC   C4A37506  17.503   6.613   7.650
 6118POPC   C1B37507  17.365   6.444   8.550
 6118POPC   C2B37508  17.350   6.444   8.250
 6118POPC   C3B37509  17.350   6.419   7.950
 6118POPC   C4B37510  17.355   6.455   7.650
 6119POPC   NC337511  17.475  11.345   9.450
 6119POPC   PO437512  17.533  11.297   9.150
 6119POPC   GL137513  17.520  11.335   8.850
 6119POPC   GL237514  17.643  11.306   8.850
 6119POPC   C1A37515  17.486  11.342   8.550
 6119POPC   D2A37516  17.471  11.297   8.250
 6119POPC   C3A37517  17.536  11.261   7.950
 6119POPC   C4A37518  17.458  11.300   7.650
 6119POPC   C1B37519  17.708  11.320   8.550
 6119POPC   C2B37520  17.725  11.277   8.250
 6119POPC   C3B37521  17.727  11.296   7.950
 6119POPC   C4B37522  17.797  11.316   7.650
 6120POPC   NC337523  38.415  30.684   9.450
 6120POPC   PO437524  38.491  30.724   9.150
 6120POPC   GL137525  38.503  30.721   8.850
 6120POPC   GL237526  38.567  30.812   8.850
 6120POPC   C1A37527  38.416  30.738   8.550
 6120POPC   D2A37528  38.431  30.707   8.250
 6120POPC   C3A37529  38.443  30.676   7.950
 6120POPC   C4A37530  38.484  30.671   7.650
 6120POPC   C1B37531  38.538  30.870   8.550
 6120POPC   C2B37532  38.556  30.915   8.250
 6120POPC   C3B37533  38.542  30.931   7.950
 6120POPC   C4B37534  38.539  30.908   7.650
 6121POPC   NC337535   1.199  10.475   9.450
 6121POPC   PO437536   1.201  10.497   9.150
 6121POPC   GL137537   1.189  10.529   8.850
 6121POPC   GL237538   1.354  10.496   8.850
 6121POPC   C1A37539   1.165  10.526   8.550
 6121POPC   D2A37540   1.196  10.556   8.250
 6121POPC   C3A37541   1.179  10.522   7.950
 6121POPC   C4A37542   1.258  10.534   7.650
 6121POPC   C1B37543   1.444  10.444   8.550
 6121POPC   C2B37544   1.483  10.431   8.250
 6121POPC   C3B37545   1.437  10.440   7.950
 6121POPC   C4B37546   1.410  10.457   7.650
 6122POPC   NC337547  11.347   6.646   9.450
 6122POPC   PO437548  11.260   6.604   9.150
 6122POPC   GL137549  11.258   6.601   8.850
 6122POPC   GL237550  11.248   6.806   8.850
 6122POPC   C1A37551  11.276   6.694   8.550
 6122POPC   D2A37552  11.302   6.660   8.250
 6122POPC   C3A37553  11.259   6.617   7.950
 6122POPC   C4A37554  11.346   6.653   7.650
 6122POPC   C1B37555  11.291   6.871   8.550
 6122POPC   C2B37556  11.236   6.882   8.250
 6122POPC   C3B37557  11.259   6.882   7.950
 6122POPC   C4B37558  11.244   6.850   7.650
 6123POPC   NC337559   2.721  37.726   9.450
 6123POPC   PO437560   2.761  37.638   9.150
 6123POPC   GL137561   2.743  37.659   8.850
 6123POPC   GL237562   2.760  37.843   8.850
 6123POPC   C1A37563   2.797  37.723   8.550
 6123POPC   D2A37564   2.784  37.669   8.250
 6123POPC   C3A37565   2.769  37.707   7.950
 6123POPC   C4A37566   2.801  37.660   7.650
 6123POPC   C1B37567   2.688  37.901   8.550
 6123POPC   C2B37568   2.727  37.913   8.250
 6123POPC   C3B37569   2.773  37.914   7.950
 6123POPC   C4B37570   2.724  37.951   7.650
 6124POPC   NC337571  39.198  15.948   9.450
 6124POPC   PO437572  39.245  15.949   9.150
 6124POPC   GL137573  39.223  15.961   8.850
 6124POPC   GL237574  39.352  16.050   8.850
 6124POPC   C1A37575  39.259  15.944   8.550
 6124POPC   D2A37576  39.197  15.950   8.250
 6124POPC   C3A37577  39.232  15.959   7.950
 6124POPC   C4A37578  39.245  15.991   7.650
 6124POPC   C1B37579  39.433  16.101   8.550
 6124POPC   C2B37580  39.478  16.094   8.250
 6124POPC   C3B37581  39.465  16.060   7.950
 6124POPC   C4B37582  39.463  16.038   7.650
 6125POPC   NC337583  43.092  37.630   9.450
 6125POPC   PO437584  43.068  37.682   9.150
 6125POPC   GL137585  43.113  37.685   8.850
 6125POPC   GL237586  43.115  37.518   8.850
 6125POPC   C1A37587  43.133  37.703   8.550
 6125POPC   D2A37588  43.160  37.696   8.250
 6125POPC   C3A37589  43.137  37.663   7.950
 6125POPC   C4A37590  43.097  37.643   7.650
 6125POPC   C1B37591  43.138  37.472   8.550
 6125POPC   C2B37592  43.074  37.479   8.250
 6125POPC   C3B37593  43.120  37.443   7.950
 6125POPC   C4B37594  43.088  37.444   7.650
 6126POPC   NC337595   6.684  33.834   9.450
 6126POPC   PO437596   6.693  33.829   9.150
 6126POPC   GL137597   6.604  33.804   8.850
 6126POPC   GL237598   6.581  33.842   8.850
 6126POPC   C1A37599   6.613  33.784   8.550
 6126POPC   D2A37600   6.682  33.811   8.250
 6126POPC   C3A37601   6.622  33.775   7.950
 6126POPC   C4A37602   6.680  33.768   7.650
 6126POPC   C1B37603   6.480  34.015   8.550
 6126POPC   C2B37604   6.485  33.990   8.250
 6126POPC   C3B37605   6.435  33.943   7.950
 6126POPC   C4B37606   6.447  33.945   7.650
 6127POPC   NC337607   3.551   8.968   9.450
 6127POPC   PO437608   3.554   8.984   9.150
 6127POPC   GL137609   3.575   9.000   8.850
 6127POPC   GL237610   3.516   8.879   8.850
 6127POPC   C1A37611   3.498   8.944   8.550
 6127POPC   D2A37612   3.496   8.971   8.250
 6127POPC   C3A37613   3.516   8.974   7.950
 6127POPC   C4A37614   3.511   9.020   7.650
 6127POPC   C1B37615   3.554   8.735   8.550
 6127POPC   C2B37616   3.531   8.688   8.250
 6127POPC   C3B37617   3.564   8.751   7.950
 6127POPC   C4B37618   3.541   8.772   7.650
 6128POPC   NC337619  43.143  18.262   9.450
 6128POPC   PO437620  43.116  18.321   9.150
 6128POPC   GL137621  43.095  18.274   8.850
 6128POPC   GL237622  42.971  18.377   8.850
 6128POPC   C1A37623  43.089  18.325   8.550
 6128POPC   D2A37624  43.152  18.292   8.250
 6128POPC   C3A37625  43.067  18.281   7.950
 6128POPC   C4A37626  43.158  18.235   7.650
 6128POPC   C1B37627  42.932  18.351   8.550
 6128POPC   C2B37628  42.878  18.352   8.250
 6128POPC   C3B37629  42.916  18.431   7.950
 6128POPC   C4B37630  42.878  18.427   7.650
 6129POPC   NC337631   1.256  37.718   9.450
 6129POPC   PO437632   1.198  37.708   9.150
 6129POPC   GL137633   1.194  37.680   8.850
 6129POPC   GL237634   1.089  37.672   8.850
 6129POPC   C1A37635   1.168  37.706   8.550
 6129POPC   D2A37636   1.205  37.689   8.250
 6129POPC   C3A37637   1.221  37.640   7.950
 6129POPC   C4A37638   1.168  37.647   7.650
 6129POPC   C1B37639   0.927  37.736   8.550
 6129POPC   C2B37640   0.947  37.697   8.250
 6129POPC   C3B37641   0.954  37.699   7.950
 6129POPC   C4B37642   0.988  37.721   7.650
 6130POPC   NC337643  12.842  10.565   9.450
 6130POPC   PO437644  12.887  10.489   9.150
 6130POPC   GL137645  12.863  10.503   8.850
 6130POPC   GL237646  12.699  10.422   8.850
 6130POPC   C1A37647  12.872  10.525   8.550
 6130POPC   D2A37648  12.831  10.535   8.250
 6130POPC   C3A37649  12.820  10.531   7.950
 6130POPC   C4A37650  12.811  10.476   7.650
 6130POPC   C1B37651  12.671  10.406   8.550
 6130POPC   C2B37652  12.599  10.432   8.250
 6130POPC   C3B37653  12.665  10.436   7.950
 6130POPC   C4B37654  12.593  10.442   7.650
 6131POPC   NC337655   5.062  22.961   9.450
 6131POPC   PO437656   5.081  22.940   9.150
 6131POPC   GL137657   5.089  22.900   8.850
 6131POPC   GL237658   5.038  23.028   8.850
 6131POPC   C1A37659   5.137  22.964   8.550
 6131POPC   D2A37660   5.055  22.922   8.250
 6131POPC   C3A37661   5.073  22.981   7.950
 6131POPC   C4A37662   5.103  22.919   7.650
 6131POPC   C1B37663   4.882  23.063   8.550
 6131POPC   C2B37664   4.939  23.127   8.250
 6131POPC   C3B37665   4.859  23.111   7.950
 6131POPC   C4B37666   4.899  23.121   7.650
 6132POPC   NC337667  32.251   5.070   9.450
 6132POPC   PO437668  32.240   5.121   9.150
 6132POPC   GL137669  32.283   5.093   8.850
 6132POPC   GL237670  32.231   4.968   8.850
 6132POPC   C1A37671  32.215   5.073   8.550
 6132POPC   D2A37672  32.295   5.070   8.250
 6132POPC   C3A37673  32.286   5.098   7.950
 6132POPC   C4A37674  32.217   5.090   7.650
 6132POPC   C1B37675  32.335   4.878   8.550
 6132POPC   C2B37676  32.292   4.892   8.250
 6132POPC   C3B37677  32.347   4.811   7.950
 6132POPC   C4B37678  32.347   4.805   7.650
 6133POPC   NC337679  29.935  39.268   9.450
 6133POPC   PO437680  29.962  39.267   9.150
 6133POPC   GL137681  29.907  39.247   8.850
 6133POPC   GL237682  29.904  39.342   8.850
 6133POPC   C1A37683  29.880  39.255   8.550
 6133POPC   D2A37684  29.874  39.280   8.250
 6133POPC   C3A37685  29.927  39.235   7.950
 6133POPC   C4A37686  29.959  39.248   7.650
 6133POPC   C1B37687  29.951  39.437   8.550
 6133POPC   C2B37688  29.939  39.473   8.250
 6133POPC   C3B37689  29.999  39.436   7.950
 6133POPC   C4B37690  29.966  39.457   7.650
 6134POPC   NC337691  36.893  14.399   9.450
 6134POPC   PO437692  36.876  14.426   9.150
 6134POPC   GL137693  36.863  14.398   8.850
 6134POPC   GL237694  36.917  14.239   8.850
 6134POPC   C1A37695  36.899  14.447   8.550
 6134POPC   D2A37696  36.936  14.409   8.250
 6134POPC   C3A37697  36.909  14.431   7.950
 6134POPC   C4A37698  36.929  14.368   7.650
 6134POPC   C1B37699  36.937  14.105   8.550
 6134POPC   C2B37700  36.902  14.123   8.250
 6134POPC   C3B37701  36.890  14.179   7.950
 6134POPC   C4B37702  36.967  14.113   7.650
 6135POPC   NC337703  32.211  15.201   9.450
 6135POPC   PO437704  32.239  15.168   9.150
 6135POPC   GL137705  32.260  15.222   8.850
 6135POPC   GL237706  32.135  15.119   8.850
 6135POPC   C1A37707  32.251  15.217   8.550
 6135POPC   D2A37708  32.265  15.154   8.250
 6135POPC   C3A37709  32.276  15.228   7.950
 6135POPC   C4A37710  32.277  15.176   7.650
 6135POPC   C1B37711  32.031  15.030   8.550
 6135POPC   C2B37712  31.986  15.076   8.250
 6135POPC   C3B37713  32.051  15.053   7.950
 6135POPC   C4B37714  31.988  15.034   7.650
 6136POPC   NC337715  27.628  27.599   9.450
 6136POPC   PO437716  27.598  27.564   9.150
 6136POPC   GL137717  27.602  27.616   8.850
 6136POPC   GL237718  27.699  27.714   8.850
 6136POPC   C1A37719  27.602  27.575   8.550
 6136POPC   D2A37720  27.598  27.563   8.250
 6136POPC   C3A37721  27.547  27.556   7.950
 6136POPC   C4A37722  27.635  27.545   7.650
 6136POPC   C1B37723  27.666  27.823   8.550
 6136POPC   C2B37724  27.706  27.824   8.250
 6136POPC   C3B37725  27.738  27.767   7.950
 6136POPC   C4B37726  27.659  27.805   7.650
 6137POPC   NC337727  40.023   1.189   9.450
 6137POPC   PO437728  40.007   1.169   9.150
 6137POPC   GL137729  39.995   1.235   8.850
 6137POPC   GL237730  39.951   1.340   8.850
 6137POPC   C1A37731  39.973   1.230   8.550
 6137POPC   D2A37732  39.967   1.199   8.250
 6137POPC   C3A37733  39.993   1.262   7.950
 6137POPC   C4A37734  40.006   1.168   7.650
 6137POPC   C1B37735  40.015   1.476   8.550
 6137POPC   C2B37736  39.921   1.454   8.250
 6137POPC   C3B37737  39.955   1.498   7.950
 6137POPC   C4B37738  40.011   1.414   7.650
 6138POPC   NC337739  43.930  24.490   9.450
 6138POPC   PO437740  43.894  24.533   9.150
 6138POPC   GL137741  43.886  24.522   8.850
 6138POPC   GL237742  43.769  24.470   8.850
 6138POPC   C1A37743  43.915  24.518   8.550
 6138POPC   D2A37744  43.923  24.531   8.250
 6138POPC   C3A37745  43.904  24.501   7.950
 6138POPC   C4A37746  43.881  24.517   7.650
 6138POPC   C1B37747  43.665  24.465   8.550
 6138POPC   C2B37748  43.625  24.514   8.250
 6138POPC   C3B37749  43.640  24.485   7.950
 6138POPC   C4B37750  43.614  24.471   7.650
 6139POPC   NC337751  15.155  33.811   9.450
 6139POPC   PO437752  15.199  33.758   9.150
 6139POPC   GL137753  15.182  33.752   8.850
 6139POPC   GL237754  15.072  33.934   8.850
 6139POPC   C1A37755  15.169  33.845   8.550
 6139POPC   D2A37756  15.175  33.845   8.250
 6139POPC   C3A37757  15.215  33.788   7.950
 6139POPC   C4A37758  15.163  33.805   7.650
 6139POPC   C1B37759  15.016  34.043   8.550
 6139POPC   C2B37760  15.009  34.036   8.250
 6139POPC   C3B37761  15.064  33.963   7.950
 6139POPC   C4B37762  15.057  33.992   7.650
 6140POPC   NC337763  23.676  43.100   9.450
 6140POPC   PO437764  23.722  43.101   9.150
 6140POPC   GL137765  23.720  43.093   8.850
 6140POPC   GL237766  23.745  43.163   8.850
 6140POPC   C1A37767  23.686  43.157   8.550
 6140POPC   D2A37768  23.710  43.112   8.250
 6140POPC   C3A37769  23.697  43.112   7.950
 6140POPC   C4A37770  23.674  43.076   7.650
 6140POPC   C1B37771  23.863  43.358   8.550
 6140POPC   C2B37772  23.850  43.326   8.250
 6140POPC   C3B37773  23.833  43.331   7.950
 6140POPC   C4B37774  23.832  43.330   7.650
 6141POPC   NC337775  36.110  39.215   9.450
 6141POPC   PO437776  36.110  39.185   9.150
 6141POPC   GL137777  36.141  39.209   8.850
 6141POPC   GL237778  36.275  39.218   8.850
 6141POPC   C1A37779  36.084  39.239   8.550
 6141POPC   D2A37780  36.085  39.210   8.250
 6141POPC   C3A37781  36.133  39.248   7.950
 6141POPC   C4A37782  36.156  39.267   7.650
 6141POPC   C1B37783  36.420  39.307   8.550
 6141POPC   C2B37784  36.392  39.286   8.250
 6141POPC   C3B37785  36.409  39.326   7.950
 6141POPC   C4B37786  36.349  39.235   7.650
 6142POPC   NC337787  17.504  19.058   9.450
 6142POPC   PO437788  17.525  19.044   9.150
 6142POPC   GL137789  17.497  19.093   8.850
 6142POPC   GL237790  17.545  19.135   8.850
 6142POPC   C1A37791  17.464  19.059   8.550
 6142POPC   D2A37792  17.485  19.069   8.250
 6142POPC   C3A37793  17.491  19.076   7.950
 6142POPC   C4A37794  17.459  19.072   7.650
 6142POPC   C1B37795  17.618  19.285   8.550
 6142POPC   C2B37796  17.615  19.256   8.250
 6142POPC   C3B37797  17.609  19.310   7.950
 6142POPC   C4B37798  17.664  19.303   7.650
 6143POPC   NC337799  32.202   0.433   9.450
 6143POPC   PO437800  32.266   0.402   9.150
 6143POPC   GL137801  32.263   0.408   8.850
 6143POPC   GL237802  32.207   0.552   8.850
 6143POPC   C1A37803  32.294   0.389   8.550
 6143POPC   D2A37804  32.223   0.443   8.250
 6143POPC   C3A37805  32.269   0.472   7.950
 6143POPC   C4A37806  32.243   0.436   7.650
 6143POPC   C1B37807  32.167   0.688   8.550
 6143POPC   C2B37808  32.083   0.686   8.250
 6143POPC   C3B37809  32.086   0.654   7.950
 6143POPC   C4B37810  32.110   0.631   7.650
 6144POPC   NC337811  26.775  26.842   9.450
 6144POPC   PO437812  26.852  26.859   9.150
 6144POPC   GL137813  26.798  26.799   8.850
 6144POPC   GL237814  26.943  26.744   8.850
 6144POPC   C1A37815  26.789  26.838   8.550
 6144POPC   D2A37816  26.831  26.833   8.250
 6144POPC   C3A37817  26.815  26.822   7.950
 6144POPC   C4A37818  26.828  26.834   7.650
 6144POPC   C1B37819  26.981  26.688   8.550
 6144POPC   C2B37820  26.995  26.695   8.250
 6144POPC   C3B37821  26.996  26.616   7.950
 6144POPC   C4B37822  26.974  26.700   7.650
 6145POPC   NC337823  33.815   0.439   9.450
 6145POPC   PO437824  33.785   0.396   9.150
 6145POPC   GL137825  33.783   0.441   8.850
 6145POPC   GL237826  33.725   0.350   8.850
 6145POPC   C1A37827  33.762   0.410   8.550
 6145POPC   D2A37828  33.758   0.392   8.250
 6145POPC   C3A37829  33.756   0.388   7.950
 6145POPC   C4A37830  33.823   0.412   7.650
 6145POPC   C1B37831  33.640   0.284   8.550
 6145POPC   C2B37832  33.618   0.298   8.250
 6145POPC   C3B37833  33.574   0.300   7.950
 6145POPC   C4B37834  33.601   0.254   7.650
 6146POPC   NC337835  10.546  26.049   9.450
 6146POPC   PO437836  10.524  26.069   9.150
 6146POPC   GL137837  10.567  26.068   8.850
 6146POPC   GL237838  10.481  26.191   8.850
 6146POPC   C1A37839  10.533  26.031   8.550
 6146POPC   D2A37840  10.532  26.014   8.250
 6146POPC   C3A37841  10.491  26.036   7.950
 6146POPC   C4A37842  10.475  26.066   7.650
 6146POPC   C1B37843  10.394  26.230   8.550
 6146POPC   C2B37844  10.458  26.221   8.250
 6146POPC   C3B37845  10.388  26.313   7.950
 6146POPC   C4B37846  10.416  26.236   7.650
 6147POPC   NC337847  44.655   1.991   9.450
 6147POPC   PO437848  44.687   2.034   9.150
 6147POPC   GL137849  44.645   1.980   8.850
 6147POPC   GL237850  44.663   2.069   8.850
 6147POPC   C1A37851  44.631   2.023   8.550
 6147POPC   D2A37852  44.615   1.950   8.250
 6147POPC   C3A37853  44.618   2.035   7.950
 6147POPC   C4A37854  44.674   1.992   7.650
 6147POPC   C1B37855  44.686   2.242   8.550
 6147POPC   C2B37856  44.699   2.255   8.250
 6147POPC   C3B37857  44.741   2.228   7.950
 6147POPC   C4B37858  44.682   2.271   7.650
 6148POPC   NC337859  24.513  35.356   9.450
 6148POPC   PO437860  24.469  35.358   9.150
 6148POPC   GL137861  24.535  35.309   8.850
 6148POPC   GL237862  24.472  35.258   8.850
 6148POPC   C1A37863  24.460  35.387   8.550
 6148POPC   D2A37864  24.533  35.311   8.250
 6148POPC   C3A37865  24.487  35.315   7.950
 6148POPC   C4A37866  24.532  35.387   7.650
 6148POPC   C1B37867  24.333  35.113   8.550
 6148POPC   C2B37868  24.349  35.121   8.250
 6148POPC   C3B37869  24.427  35.081   7.950
 6148POPC   C4B37870  24.392  35.120   7.650
 6149POPC   NC337871   4.272  36.932   9.450
 6149POPC   PO437872   4.279  36.885   9.150
 6149POPC   GL137873   4.338  36.873   8.850
 6149POPC   GL237874   4.376  36.790   8.850
 6149POPC   C1A37875   4.275  36.909   8.550
 6149POPC   D2A37876   4.332  36.870   8.250
 6149POPC   C3A37877   4.317  36.892   7.950
 6149POPC   C4A37878   4.269  36.936   7.650
 6149POPC   C1B37879   4.549  36.785   8.550
 6149POPC   C2B37880   4.507  36.801   8.250
 6149POPC   C3B37881   4.529  36.750   7.950
 6149POPC   C4B37882   4.505  36.816   7.650
 6150POPC   NC337883  19.844   6.647   9.450
 6150POPC   PO437884  19.828   6.673   9.150
 6150POPC   GL137885  19.841   6.691   8.850
 6150POPC   GL237886  19.749   6.565   8.850
 6150POPC   C1A37887  19.799   6.638   8.550
 6150POPC   D2A37888  19.815   6.611   8.250
 6150POPC   C3A37889  19.824   6.629   7.950
 6150POPC   C4A37890  19.802   6.609   7.650
 6150POPC   C1B37891  19.688   6.389   8.550
 6150POPC   C2B37892  19.662   6.393   8.250
 6150POPC   C3B37893  19.675   6.406   7.950
 6150POPC   C4B37894  19.745   6.423   7.650
 6151POPC   NC337895  30.724  28.389   9.450
 6151POPC   PO437896  30.654  28.365   9.150
 6151POPC   GL137897  30.698  28.329   8.850
 6151POPC   GL237898  30.588  28.380   8.850
 6151POPC   C1A37899  30.673  28.335   8.550
 6151POPC   D2A37900  30.655  28.385   8.250
 6151POPC   C3A37901  30.746  28.322   7.950
 6151POPC   C4A37902  30.738  28.380   7.650
 6151POPC   C1B37903  30.481  28.468   8.550
 6151POPC   C2B37904  30.441  28.385   8.250
 6151POPC   C3B37905  30.449  28.371   7.950
 6151POPC   C4B37906  30.481  28.409   7.650
 6152POPC   NC337907  13.599  25.220   9.450
 6152POPC   PO437908  13.590  25.294   9.150
 6152POPC   GL137909  13.619  25.300   8.850
 6152POPC   GL237910  13.580  25.399   8.850
 6152POPC   C1A37911  13.627  25.314   8.550
 6152POPC   D2A37912  13.587  25.233   8.250
 6152POPC   C3A37913  13.631  25.256   7.950
 6152POPC   C4A37914  13.645  25.269   7.650
 6152POPC   C1B37915  13.600  25.537   8.550
 6152POPC   C2B37916  13.654  25.523   8.250
 6152POPC   C3B37917  13.674  25.505   7.950
 6152POPC   C4B37918  13.667  25.559   7.650
 6153POPC   NC337919   1.187  12.832   9.450
 6153POPC   PO437920   1.189  12.824   9.150
 6153POPC   GL137921   1.179  12.842   8.850
 6153POPC   GL237922   1.300  12.817   8.850
 6153POPC   C1A37923   1.181  12.847   8.550
 6153POPC   D2A37924   1.179  12.838   8.250
 6153POPC   C3A37925   1.200  12.807   7.950
 6153POPC   C4A37926   1.166  12.879   7.650
 6153POPC   C1B37927   1.453  12.687   8.550
 6153POPC   C2B37928   1.479  12.683   8.250
 6153POPC   C3B37929   1.420  12.773   7.950
 6153POPC   C4B37930   1.402  12.746   7.650
 6154POPC   NC337931  41.526  43.920   9.450
 6154POPC   PO437932  41.530  43.849   9.150
 6154POPC   GL137933  41.511  43.923   8.850
 6154POPC   GL237934  41.702  43.834   8.850
 6154POPC   C1A37935  41.594  43.850   8.550
 6154POPC   D2A37936  41.597  43.852   8.250
 6154POPC   C3A37937  41.553  43.882   7.950
 6154POPC   C4A37938  41.547  43.897   7.650
 6154POPC   C1B37939  41.743  43.783   8.550
 6154POPC   C2B37940  41.731  43.748   8.250
 6154POPC   C3B37941  41.729  43.720   7.950
 6154POPC   C4B37942  41.799  43.717   7.650
 6155POPC   NC337943  41.583  25.311   9.450
 6155POPC   PO437944  41.604  25.310   9.150
 6155POPC   GL137945  41.554  25.310   8.850
 6155POPC   GL237946  41.699  25.369   8.850
 6155POPC   C1A37947  41.559  25.238   8.550
 6155POPC   D2A37948  41.566  25.246   8.250
 6155POPC   C3A37949  41.544  25.282   7.950
 6155POPC   C4A37950  41.538  25.299   7.650
 6155POPC   C1B37951  41.719  25.484   8.550
 6155POPC   C2B37952  41.722  25.393   8.250
 6155POPC   C3B37953  41.721  25.477   7.950
 6155POPC   C4B37954  41.763  25.429   7.650
 6156POPC   NC337955  17.521  23.712   9.450
 6156POPC   PO437956  17.458  23.755   9.150
 6156POPC   GL137957  17.529  23.724   8.850
 6156POPC   GL237958  17.584  23.596   8.850
 6156POPC   C1A37959  17.544  23.681   8.550
 6156POPC   D2A37960  17.507  23.723   8.250
 6156POPC   C3A37961  17.519  23.757   7.950
 6156POPC   C4A37962  17.518  23.726   7.650
 6156POPC   C1B37963  17.640  23.537   8.550
 6156POPC   C2B37964  17.599  23.451   8.250
 6156POPC   C3B37965  17.649  23.537   7.950
 6156POPC   C4B37966  17.649  23.463   7.650
 6157POPC   NC337967  32.291  35.321   9.450
 6157POPC   PO437968  32.289  35.378   9.150
 6157POPC   GL137969  32.248  35.345   8.850
 6157POPC   GL237970  32.266  35.293   8.850
 6157POPC   C1A37971  32.231  35.330   8.550
 6157POPC   D2A37972  32.264  35.304   8.250
 6157POPC   C3A37973  32.242  35.364   7.950
 6157POPC   C4A37974  32.286  35.374   7.650
 6157POPC   C1B37975  32.341  35.101   8.550
 6157POPC   C2B37976  32.420  35.145   8.250
 6157POPC   C3B37977  32.335  35.092   7.950
 6157POPC   C4B37978  32.349  35.174   7.650
 6158POPC   NC337979  42.342  22.159   9.450
 6158POPC   PO437980  42.356  22.120   9.150
 6158POPC   GL137981  42.363  22.166   8.850
 6158POPC   GL237982  42.207  22.097   8.850
 6158POPC   C1A37983  42.362  22.116   8.550
 6158POPC   D2A37984  42.290  22.151   8.250
 6158POPC   C3A37985  42.294  22.168   7.950
 6158POPC   C4A37986  42.365  22.166   7.650
 6158POPC   C1B37987  42.114  21.999   8.550
 6158POPC   C2B37988  42.149  22.000   8.250
 6158POPC   C3B37989  42.101  22.027   7.950
 6158POPC   C4B37990  42.137  22.054   7.650
 6159POPC   NC337991   1.972  41.553   9.450
 6159POPC   PO437992   2.018  41.550   9.150
 6159POPC   GL137993   2.028  41.592   8.850
 6159POPC   GL237994   1.883  41.640   8.850
 6159POPC   C1A37995   1.970  41.603   8.550
 6159POPC   D2A37996   1.978  41.509   8.250
 6159POPC   C3A37997   1.943  41.562   7.950
 6159POPC   C4A37998   1.944  41.588   7.650
 6159POPC   C1B37999   1.823  41.736   8.550
 6159POPC   C2B38000   1.785  41.680   8.250
 6159POPC   C3B38001   1.845  41.700   7.950
 6159POPC   C4B38002   1.853  41.682   7.650
 6160POPC   NC338003   1.947  14.416   9.450
 6160POPC   PO438004   1.963  14.389   9.150
 6160POPC   GL138005   1.986  14.435   8.850
 6160POPC   GL238006   1.830  14.343   8.850
 6160POPC   C1A38007   2.037  14.405   8.550
 6160POPC   D2A38008   2.005  14.370   8.250
 6160POPC   C3A38009   2.030  14.375   7.950
 6160POPC   C4A38010   1.984  14.416   7.650
 6160POPC   C1B38011   1.779  14.331   8.550
 6160POPC   C2B38012   1.723  14.343   8.250
 6160POPC   C3B38013   1.716  14.395   7.950
 6160POPC   C4B38014   1.775  14.394   7.650
 6161POPC   NC338015  29.963  29.931   9.450
 6161POPC   PO438016  29.969  29.923   9.150
 6161POPC   GL138017  29.891  29.963   8.850
 6161POPC   GL238018  29.953  29.839   8.850
 6161POPC   C1A38019  29.933  29.949   8.550
 6161POPC   D2A38020  29.898  29.932   8.250
 6161POPC   C3A38021  29.929  29.947   7.950
 6161POPC   C4A38022  29.941  29.953   7.650
 6161POPC   C1B38023  30.117  29.766   8.550
 6161POPC   C2B38024  30.090  29.770   8.250
 6161POPC   C3B38025  30.124  29.697   7.950
 6161POPC   C4B38026  30.074  29.726   7.650
 6162POPC   NC338027  37.657  35.320   9.450
 6162POPC   PO438028  37.692  35.349   9.150
 6162POPC   GL138029  37.672  35.334   8.850
 6162POPC   GL238030  37.595  35.231   8.850
 6162POPC   C1A38031  37.645  35.313   8.550
 6162POPC   D2A38032  37.641  35.303   8.250
 6162POPC   C3A38033  37.704  35.337   7.950
 6162POPC   C4A38034  37.701  35.348   7.650
 6162POPC   C1B38035  37.503  35.167   8.550
 6162POPC   C2B38036  37.482  35.132   8.250
 6162POPC   C3B38037  37.491  35.134   7.950
 6162POPC   C4B38038  37.529  35.150   7.650
 6163POPC   NC338039  16.727  39.252   9.450
 6163POPC   PO438040  16.686  39.258   9.150
 6163POPC   GL138041  16.753  39.205   8.850
 6163POPC   GL238042  16.694  39.338   8.850
 6163POPC   C1A38043  16.726  39.203   8.550
 6163POPC   D2A38044  16.726  39.205   8.250
 6163POPC   C3A38045  16.690  39.195   7.950
 6163POPC   C4A38046  16.739  39.263   7.650
 6163POPC   C1B38047  16.661  39.416   8.550
 6163POPC   C2B38048  16.675  39.454   8.250
 6163POPC   C3B38049  16.624  39.431   7.950
 6163POPC   C4B38050  16.618  39.438   7.650
 6164POPC   NC338051  39.206  25.226   9.450
 6164POPC   PO438052  39.244  25.307   9.150
 6164POPC   GL138053  39.196  25.222   8.850
 6164POPC   GL238054  39.288  25.371   8.850
 6164POPC   C1A38055  39.273  25.255   8.550
 6164POPC   D2A38056  39.199  25.243   8.250
 6164POPC   C3A38057  39.210  25.238   7.950
 6164POPC   C4A38058  39.276  25.242   7.650
 6164POPC   C1B38059  39.422  25.469   8.550
 6164POPC   C2B38060  39.341  25.460   8.250
 6164POPC   C3B38061  39.337  25.461   7.950
 6164POPC   C4B38062  39.420  25.470   7.650
 6165POPC   NC338063  36.166  15.146   9.450
 6165POPC   PO438064  36.151  15.197   9.150
 6165POPC   GL138065  36.159  15.223   8.850
 6165POPC   GL238066  36.212  15.134   8.850
 6165POPC   C1A38067  36.079  15.208   8.550
 6165POPC   D2A38068  36.129  15.203   8.250
 6165POPC   C3A38069  36.096  15.191   7.950
 6165POPC   C4A38070  36.172  15.162   7.650
 6165POPC   C1B38071  36.264  14.956   8.550
 6165POPC   C2B38072  36.294  14.947   8.250
 6165POPC   C3B38073  36.259  15.012   7.950
 6165POPC   C4B38074  36.309  15.032   7.650
 6166POPC   NC338075  25.262  43.902   9.450
 6166POPC   PO438076  25.258  43.930   9.150
 6166POPC   GL138077  25.269  43.858   8.850
 6166POPC   GL238078  25.113  43.926   8.850
 6166POPC   C1A38079  25.278  43.850   8.550
 6166POPC   D2A38080  25.232  43.921   8.250
 6166POPC   C3A38081  25.226  43.934   7.950
 6166POPC   C4A38082  25.286  43.883   7.650
 6166POPC   C1B38083  25.030  43.961   8.550
 6166POPC   C2B38084  25.067  43.998   8.250
 6166POPC   C3B38085  24.987  43.975   7.950
 6166POPC   C4B38086  25.012  44.025   7.650
 6167POPC   NC338087  43.892  11.259   9.450
 6167POPC   PO438088  43.908  11.277   9.150
 6167POPC   GL138089  43.873  11.349   8.850
 6167POPC   GL238090  43.999  11.204   8.850
 6167POPC   C1A38091  43.862  11.333   8.550
 6167POPC   D2A38092  43.906  11.251   8.250
 6167POPC   C3A38093  43.888  11.305   7.950
 6167POPC   C4A38094  43.892  11.293   7.650
 6167POPC   C1B38095  44.118  11.162   8.550
 6167POPC   C2B38096  44.117  11.098   8.250
 6167POPC   C3B38097  44.095  11.122   7.950
 6167POPC   C4B38098  44.065  11.141   7.650
 6168POPC   NC338099   3.569   5.131   9.450
 6168POPC   PO438100   3.569   5.054   9.150
 6168POPC   GL138101   3.576   5.139   8.850
 6168POPC   GL238102   3.520   5.184   8.850
 6168POPC   C1A38103   3.563   5.044   8.550
 6168POPC   D2A38104   3.536   5.098   8.250
 6168POPC   C3A38105   3.534   5.087   7.950
 6168POPC   C4A38106   3.524   5.071   7.650
 6168POPC   C1B38107   3.476   5.328   8.550
 6168POPC   C2B38108   3.468   5.325   8.250
 6168POPC   C3B38109   3.490   5.362   7.950
 6168POPC   C4B38110   3.445   5.308   7.650
 6169POPC   NC338111   7.442  26.083   9.450
 6169POPC   PO438112   7.372  26.077   9.150
 6169POPC   GL138113   7.383  26.030   8.850
 6169POPC   GL238114   7.436  26.202   8.850
 6169POPC   C1A38115   7.372  26.035   8.550
 6169POPC   D2A38116   7.424  26.079   8.250
 6169POPC   C3A38117   7.392  26.022   7.950
 6169POPC   C4A38118   7.414  26.075   7.650
 6169POPC   C1B38119   7.407  26.254   8.550
 6169POPC   C2B38120   7.391  26.255   8.250
 6169POPC   C3B38121   7.433  26.315   7.950
 6169POPC   C4B38122   7.360  26.268   7.650
 6170POPC   NC338123  25.310  25.236   9.450
 6170POPC   PO438124  25.266  25.300   9.150
 6170POPC   GL138125  25.260  25.274   8.850
 6170POPC   GL238126  25.127  25.259   8.850
 6170POPC   C1A38127  25.230  25.296   8.550
 6170POPC   D2A38128  25.295  25.267   8.250
 6170POPC   C3A38129  25.291  25.308   7.950
 6170POPC   C4A38130  25.273  25.281   7.650
 6170POPC   C1B38131  25.012  25.265   8.550
 6170POPC   C2B38132  24.988  25.281   8.250
 6170POPC   C3B38133  24.984  25.230   7.950
 6170POPC   C4B38134  25.047  25.237   7.650
 6171POPC   NC338135  32.280  29.155   9.450
 6171POPC   PO438136  32.254  29.146   9.150
 6171POPC   GL138137  32.267  29.108   8.850
 6171POPC   GL238138  32.281  29.027   8.850
 6171POPC   C1A38139  32.237  29.122   8.550
 6171POPC   D2A38140  32.278  29.168   8.250
 6171POPC   C3A38141  32.260  29.175   7.950
 6171POPC   C4A38142  32.268  29.168   7.650
 6171POPC   C1B38143  32.437  28.956   8.550
 6171POPC   C2B38144  32.374  28.924   8.250
 6171POPC   C3B38145  32.450  28.935   7.950
 6171POPC   C4B38146  32.357  28.982   7.650
 6172POPC   NC338147   6.661  39.183   9.450
 6172POPC   PO438148   6.641  39.220   9.150
 6172POPC   GL138149   6.642  39.264   8.850
 6172POPC   GL238150   6.720  39.287   8.850
 6172POPC   C1A38151   6.672  39.204   8.550
 6172POPC   D2A38152   6.640  39.259   8.250
 6172POPC   C3A38153   6.670  39.261   7.950
 6172POPC   C4A38154   6.615  39.201   7.650
 6172POPC   C1B38155   6.835  39.355   8.550
 6172POPC   C2B38156   6.848  39.421   8.250
 6172POPC   C3B38157   6.859  39.398   7.950
 6172POPC   C4B38158   6.785  39.443   7.650
 6173POPC   NC338159  19.019   3.552   9.450
 6173POPC   PO438160  19.039   3.586   9.150
 6173POPC   GL138161  19.028   3.581   8.850
 6173POPC   GL238162  19.162   3.647   8.850
 6173POPC   C1A38163  19.075   3.541   8.550
 6173POPC   D2A38164  19.019   3.515   8.250
 6173POPC   C3A38165  19.037   3.567   7.950
 6173POPC   C4A38166  19.040   3.567   7.650
 6173POPC   C1B38167  19.294   3.681   8.550
 6173POPC   C2B38168  19.274   3.681   8.250
 6173POPC   C3B38169  19.248   3.735   7.950
 6173POPC   C4B38170  19.287   3.707   7.650
 6174POPC   NC338171  41.563   3.562   9.450
 6174POPC   PO438172  41.535   3.493   9.150
 6174POPC   GL138173  41.531   3.579   8.850
 6174POPC   GL238174  41.688   3.606   8.850
 6174POPC   C1A38175  41.516   3.590   8.550
 6174POPC   D2A38176  41.525   3.509   8.250
 6174POPC   C3A38177  41.518   3.578   7.950
 6174POPC   C4A38178  41.511   3.550   7.650
 6174POPC   C1B38179  41.826   3.590   8.550
 6174POPC   C2B38180  41.761   3.624   8.250
 6174POPC   C3B38181  41.794   3.585   7.950
 6174POPC   C4B38182  41.796   3.566   7.650
 6175POPC   NC338183  25.233  42.381   9.450
 6175POPC   PO438184  25.271  42.331   9.150
 6175POPC   GL138185  25.275  42.344   8.850
 6175POPC   GL238186  25.180  42.397   8.850
 6175POPC   C1A38187  25.309  42.301   8.550
 6175POPC   D2A38188  25.259  42.292   8.250
 6175POPC   C3A38189  25.251  42.362   7.950
 6175POPC   C4A38190  25.315  42.314   7.650
 6175POPC   C1B38191  25.035  42.412   8.550
 6175POPC   C2B38192  24.991  42.405   8.250
 6175POPC   C3B38193  25.054  42.412   7.950
 6175POPC   C4B38194  25.065  42.398   7.650
 6176POPC   NC338195  17.554  22.150   9.450
 6176POPC   PO438196  17.504  22.117   9.150
 6176POPC   GL138197  17.526  22.170   8.850
 6176POPC   GL238198  17.484  22.304   8.850
 6176POPC   C1A38199  17.491  22.208   8.550
 6176POPC   D2A38200  17.463  22.133   8.250
 6176POPC   C3A38201  17.538  22.184   7.950
 6176POPC   C4A38202  17.529  22.185   7.650
 6176POPC   C1B38203  17.519  22.422   8.550
 6176POPC   C2B38204  17.426  22.367   8.250
 6176POPC   C3B38205  17.455  22.429   7.950
 6176POPC   C4B38206  17.514  22.360   7.650
 6177POPC   NC338207  16.749   9.768   9.450
 6177POPC   PO438208  16.770   9.797   9.150
 6177POPC   GL138209  16.705   9.775   8.850
 6177POPC   GL238210  16.646   9.883   8.850
 6177POPC   C1A38211  16.743   9.715   8.550
 6177POPC   D2A38212  16.698   9.791   8.250
 6177POPC   C3A38213  16.692   9.719   7.950
 6177POPC   C4A38214  16.742   9.742   7.650
 6177POPC   C1B38215  16.559  10.002   8.550
 6177POPC   C2B38216  16.576  10.003   8.250
 6177POPC   C3B38217  16.605  10.005   7.950
 6177POPC   C4B38218  16.560   9.956   7.650
 6178POPC   NC338219  44.662  38.500   9.450
 6178POPC   PO438220  44.693  38.452   9.150
 6178POPC   GL138221  44.662  38.426   8.850
 6178POPC   GL238222  44.512  38.412   8.850
 6178POPC   C1A38223  44.692  38.411   8.550
 6178POPC   D2A38224  44.679  38.432   8.250
 6178POPC   C3A38225  44.648  38.496   7.950
 6178POPC   C4A38226  44.650  38.470   7.650
 6178POPC   C1B38227  44.409  38.470   8.550
 6178POPC   C2B38228  44.377  38.498   8.250
 6178POPC   C3B38229  44.364  38.486   7.950
 6178POPC   C4B38230  44.459  38.435   7.650
 6179POPC   NC338231  12.877   8.924   9.450
 6179POPC   PO438232  12.869   8.928   9.150
 6179POPC   GL138233  12.824   8.998   8.850
 6179POPC   GL238234  12.699   8.954   8.850
 6179POPC   C1A38235  12.803   8.951   8.550
 6179POPC   D2A38236  12.807   8.975   8.250
 6179POPC   C3A38237  12.882   9.008   7.950
 6179POPC   C4A38238  12.861   8.996   7.650
 6179POPC   C1B38239  12.607   8.862   8.550
 6179POPC   C2B38240  12.574   8.863   8.250
 6179POPC   C3B38241  12.639   8.906   7.950
 6179POPC   C4B38242  12.574   8.830   7.650
 6180POPC   NC338243   7.403  22.981   9.450
 6180POPC   PO438244   7.420  22.949   9.150
 6180POPC   GL138245   7.396  22.945   8.850
 6180POPC   GL238246   7.497  23.095   8.850
 6180POPC   C1A38247   7.375  22.980   8.550
 6180POPC   D2A38248   7.457  22.944   8.250
 6180POPC   C3A38249   7.422  22.906   7.950
 6180POPC   C4A38250   7.446  22.937   7.650
 6180POPC   C1B38251   7.433  23.198   8.550
 6180POPC   C2B38252   7.527  23.188   8.250
 6180POPC   C3B38253   7.465  23.228   7.950
 6180POPC   C4B38254   7.479  23.153   7.650
 6181POPC   NC338255  39.184  24.501   9.450
 6181POPC   PO438256  39.195  24.477   9.150
 6181POPC   GL138257  39.262  24.518   8.850
 6181POPC   GL238258  39.353  24.494   8.850
 6181POPC   C1A38259  39.183  24.532   8.550
 6181POPC   D2A38260  39.244  24.449   8.250
 6181POPC   C3A38261  39.255  24.465   7.950
 6181POPC   C4A38262  39.192  24.500   7.650
 6181POPC   C1B38263  39.433  24.465   8.550
 6181POPC   C2B38264  39.443  24.459   8.250
 6181POPC   C3B38265  39.520  24.474   7.950
 6181POPC   C4B38266  39.481  24.485   7.650
 6182POPC   NC338267   7.420  37.697   9.450
 6182POPC   PO438268   7.432  37.647   9.150
 6182POPC   GL138269   7.447  37.631   8.850
 6182POPC   GL238270   7.543  37.639   8.850
 6182POPC   C1A38271   7.398  37.720   8.550
 6182POPC   D2A38272   7.426  37.723   8.250
 6182POPC   C3A38273   7.453  37.645   7.950
 6182POPC   C4A38274   7.451  37.676   7.650
 6182POPC   C1B38275   7.628  37.596   8.550
 6182POPC   C2B38276   7.614  37.596   8.250
 6182POPC   C3B38277   7.665  37.523   7.950
 6182POPC   C4B38278   7.658  37.542   7.650
 6183POPC   NC338279  44.650  11.261   9.450
 6183POPC   PO438280  44.681  11.320   9.150
 6183POPC   GL138281  44.665  11.304   8.850
 6183POPC   GL238282  44.554  11.202   8.850
 6183POPC   C1A38283  44.674  11.318   8.550
 6183POPC   D2A38284  44.636  11.328   8.250
 6183POPC   C3A38285  44.628  11.326   7.950
 6183POPC   C4A38286  44.613  11.319   7.650
 6183POPC   C1B38287  44.535  11.130   8.550
 6183POPC   C2B38288  44.518  11.065   8.250
 6183POPC   C3B38289  44.528  11.147   7.950
 6183POPC   C4B38290  44.475  11.108   7.650
 6184POPC   NC338291   0.414  20.584   9.450
 6184POPC   PO438292   0.481  20.587   9.150
 6184POPC   GL138293   0.451  20.581   8.850
 6184POPC   GL238294   0.432  20.517   8.850
 6184POPC   C1A38295   0.471  20.564   8.550
 6184POPC   D2A38296   0.434  20.596   8.250
 6184POPC   C3A38297   0.419  20.599   7.950
 6184POPC   C4A38298   0.420  20.604   7.650
 6184POPC   C1B38299   0.521  20.353   8.550
 6184POPC   C2B38300   0.493  20.314   8.250
 6184POPC   C3B38301   0.472  20.379   7.950
 6184POPC   C4B38302   0.474  20.364   7.650
 6185POPC   NC338303  15.220  20.644   9.450
 6185POPC   PO438304  15.134  20.586   9.150
 6185POPC   GL138305  15.210  20.582   8.850
 6185POPC   GL238306  15.247  20.682   8.850
 6185POPC   C1A38307  15.150  20.615   8.550
 6185POPC   D2A38308  15.133  20.568   8.250
 6185POPC   C3A38309  15.227  20.583   7.950
 6185POPC   C4A38310  15.147  20.644   7.650
 6185POPC   C1B38311  15.431  20.726   8.550
 6185POPC   C2B38312  15.407  20.668   8.250
 6185POPC   C3B38313  15.447  20.714   7.950
 6185POPC   C4B38314  15.379  20.740   7.650
 6186POPC   NC338315   8.184   5.057   9.450
 6186POPC   PO438316   8.155   5.142   9.150
 6186POPC   GL138317   8.166   5.114   8.850
 6186POPC   GL238318   8.238   5.248   8.850
 6186POPC   C1A38319   8.168   5.064   8.550
 6186POPC   D2A38320   8.219   5.094   8.250
 6186POPC   C3A38321   8.192   5.097   7.950
 6186POPC   C4A38322   8.147   5.134   7.650
 6186POPC   C1B38323   8.279   5.331   8.550
 6186POPC   C2B38324   8.324   5.291   8.250
 6186POPC   C3B38325   8.356   5.339   7.950
 6186POPC   C4B38326   8.348   5.341   7.650
 6187POPC   NC338327   9.704   5.831   9.450
 6187POPC   PO438328   9.714   5.820   9.150
 6187POPC   GL138329   9.717   5.915   8.850
 6187POPC   GL238330   9.628   5.889   8.850
 6187POPC   C1A38331   9.791   5.868   8.550
 6187POPC   D2A38332   9.759   5.881   8.250
 6187POPC   C3A38333   9.774   5.870   7.950
 6187POPC   C4A38334   9.732   5.856   7.650
 6187POPC   C1B38335   9.468   5.935   8.550
 6187POPC   C2B38336   9.494   5.887   8.250
 6187POPC   C3B38337   9.524   5.917   7.950
 6187POPC   C4B38338   9.537   5.934   7.650
 6188POPC   NC338339   0.474  30.726   9.450
 6188POPC   PO438340   0.414  30.728   9.150
 6188POPC   GL138341   0.463  30.658   8.850
 6188POPC   GL238342   0.392  30.752   8.850
 6188POPC   C1A38343   0.451  30.677   8.550
 6188POPC   D2A38344   0.412  30.736   8.250
 6188POPC   C3A38345   0.488  30.739   7.950
 6188POPC   C4A38346   0.448  30.678   7.650
 6188POPC   C1B38347   0.283  30.891   8.550
 6188POPC   C2B38348   0.255  30.864   8.250
 6188POPC   C3B38349   0.312  30.933   7.950
 6188POPC   C4B38350   0.305  30.849   7.650
 6189POPC   NC338351   9.736  24.496   9.450
 6189POPC   PO438352   9.789  24.526   9.150
 6189POPC   GL138353   9.744  24.450   8.850
 6189POPC   GL238354   9.712  24.566   8.850
 6189POPC   C1A38355   9.737  24.469   8.550
 6189POPC   D2A38356   9.752  24.527   8.250
 6189POPC   C3A38357   9.755  24.463   7.950
 6189POPC   C4A38358   9.781  24.496   7.650
 6189POPC   C1B38359   9.650  24.765   8.550
 6189POPC   C2B38360   9.656  24.689   8.250
 6189POPC   C3B38361   9.651  24.734   7.950
 6189POPC   C4B38362   9.662  24.766   7.650
 6190POPC   NC338363  13.635  29.904   9.450
 6190POPC   PO438364  13.634  29.907   9.150
 6190POPC   GL138365  13.665  29.891   8.850
 6190POPC   GL238366  13.783  29.913   8.850
 6190POPC   C1A38367  13.584  29.889   8.550
 6190POPC   D2A38368  13.646  29.957   8.250
 6190POPC   C3A38369  13.579  29.942   7.950
 6190POPC   C4A38370  13.602  29.926   7.650
 6190POPC   C1B38371  13.837  29.855   8.550
 6190POPC   C2B38372  13.882  29.877   8.250
 6190POPC   C3B38373  13.874  29.839   7.950
 6190POPC   C4B38374  13.855  29.815   7.650
 6191POPC   NC338375  12.061   4.343   9.450
 6191POPC   PO438376  12.121   4.349   9.150
 6191POPC   GL138377  12.091   4.304   8.850
 6191POPC   GL238378  12.086   4.181   8.850
 6191POPC   C1A38379  12.102   4.286   8.550
 6191POPC   D2A38380  12.079   4.325   8.250
 6191POPC   C3A38381  12.035   4.291   7.950
 6191POPC   C4A38382  12.061   4.283   7.650
 6191POPC   C1B38383  12.162   4.121   8.550
 6191POPC   C2B38384  12.122   4.135   8.250
 6191POPC   C3B38385  12.157   4.069   7.950
 6191POPC   C4B38386  12.203   4.087   7.650
 6192POPC   NC338387  25.309  29.969   9.450
 6192POPC   PO438388  25.228  29.960   9.150
 6192POPC   GL138389  25.255  29.900   8.850
 6192POPC   GL238390  25.193  29.830   8.850
 6192POPC   C1A38391  25.271  29.909   8.550
 6192POPC   D2A38392  25.246  29.916   8.250
 6192POPC   C3A38393  25.301  29.966   7.950
 6192POPC   C4A38394  25.277  29.879   7.650
 6192POPC   C1B38395  25.240  29.725   8.550
 6192POPC   C2B38396  25.228  29.690   8.250
 6192POPC   C3B38397  25.171  29.696   7.950
 6192POPC   C4B38398  25.179  29.706   7.650
 6193POPC   NC338399  22.151  43.857   9.450
 6193POPC   PO438400  22.163  43.848   9.150
 6193POPC   GL138401  22.158  43.934   8.850
 6193POPC   GL238402  22.106  43.753   8.850
 6193POPC   C1A38403  22.190  43.919   8.550
 6193POPC   D2A38404  22.118  43.884   8.250
 6193POPC   C3A38405  22.183  43.886   7.950
 6193POPC   C4A38406  22.135  43.869   7.650
 6193POPC   C1B38407  22.106  43.638   8.550
 6193POPC   C2B38408  22.125  43.622   8.250
 6193POPC   C3B38409  22.090  43.591   7.950
 6193POPC   C4B38410  22.162  43.623   7.650
 6194POPC   NC338411  44.643  19.851   9.450
 6194POPC   PO438412  44.657  19.836   9.150
 6194POPC   GL138413  44.617  19.795   8.850
 6194POPC   GL238414  44.739  19.878   8.850
 6194POPC   C1A38415  44.664  19.813   8.550
 6194POPC   D2A38416  44.672  19.842   8.250
 6194POPC   C3A38417  44.711  19.797   7.950
 6194POPC   C4A38418  44.626  19.880   7.650
 6194POPC   C1B38419  44.828  20.010   8.550
 6194POPC   C2B38420  44.799  19.989   8.250
 6194POPC   C3B38421  44.806  19.959   7.950
 6194POPC   C4B38422  44.862  19.965   7.650
 6195POPC   NC338423  37.634   8.971   9.450
 6195POPC   PO438424  37.699   8.933   9.150
 6195POPC   GL138425  37.715   8.971   8.850
 6195POPC   GL238426  37.712   8.911   8.850
 6195POPC   C1A38427  37.716   8.945   8.550
 6195POPC   D2A38428  37.701   8.957   8.250
 6195POPC   C3A38429  37.679   8.966   7.950
 6195POPC   C4A38430  37.727   8.949   7.650
 6195POPC   C1B38431  37.784   8.805   8.550
 6195POPC   C2B38432  37.846   8.733   8.250
 6195POPC   C3B38433  37.818   8.724   7.950
 6195POPC   C4B38434  37.836   8.798   7.650
 6196POPC   NC338435  19.059  43.881   9.450
 6196POPC   PO438436  19.073  43.851   9.150
 6196POPC   GL138437  19.068  43.933   8.850
 6196POPC   GL238438  19.206  43.832   8.850
 6196POPC   C1A38439  19.060  43.891   8.550
 6196POPC   D2A38440  19.018  43.905   8.250
 6196POPC   C3A38441  19.047  43.907   7.950
 6196POPC   C4A38442  19.099  43.913   7.650
 6196POPC   C1B38443  19.273  43.795   8.550
 6196POPC   C2B38444  19.309  43.848   8.250
 6196POPC   C3B38445  19.315  43.774   7.950
 6196POPC   C4B38446  19.282  43.828   7.650
 6197POPC   NC338447  32.981  43.935   9.450
 6197POPC   PO438448  32.997  43.897   9.150
 6197POPC   GL138449  33.039  43.859   8.850
 6197POPC   GL238450  32.961  43.977   8.850
 6197POPC   C1A38451  32.990  43.851   8.550
 6197POPC   D2A38452  33.007  43.912   8.250
 6197POPC   C3A38453  33.057  43.858   7.950
 6197POPC   C4A38454  33.045  43.871   7.650
 6197POPC   C1B38455  32.846  44.030   8.550
 6197POPC   C2B38456  32.798  44.092   8.250
 6197POPC   C3B38457  32.807  44.011   7.950
 6197POPC   C4B38458  32.866  44.104   7.650
 6198POPC   NC338459  17.464  12.040   9.450
 6198POPC   PO438460  17.472  12.068   9.150
 6198POPC   GL138461  17.555  12.033   8.850
 6198POPC   GL238462  17.478  12.003   8.850
 6198POPC   C1A38463  17.517  12.100   8.550
 6198POPC   D2A38464  17.471  12.112   8.250
 6198POPC   C3A38465  17.488  12.120   7.950
 6198POPC   C4A38466  17.471  12.100   7.650
 6198POPC   C1B38467  17.425  11.834   8.550
 6198POPC   C2B38468  17.387  11.846   8.250
 6198POPC   C3B38469  17.402  11.844   7.950
 6198POPC   C4B38470  17.398  11.815   7.650
 6199POPC   NC338471   5.095  40.030   9.450
 6199POPC   PO438472   5.085  39.962   9.150
 6199POPC   GL138473   5.106  40.003   8.850
 6199POPC   GL238474   5.242  39.949   8.850
 6199POPC   C1A38475   5.063  40.008   8.550
 6199POPC   D2A38476   5.050  39.986   8.250
 6199POPC   C3A38477   5.093  39.963   7.950
 6199POPC   C4A38478   5.074  39.961   7.650
 6199POPC   C1B38479   5.374  39.927   8.550
 6199POPC   C2B38480   5.324  39.915   8.250
 6199POPC   C3B38481   5.333  39.902   7.950
 6199POPC   C4B38482   5.358  39.900   7.650
 6200POPC   NC338483  29.157  36.877   9.450
 6200POPC   PO438484  29.174  36.935   9.150
 6200POPC   GL138485  29.182  36.903   8.850
 6200POPC   GL238486  29.182  36.770   8.850
 6200POPC   C1A38487  29.182  36.860   8.550
 6200POPC   D2A38488  29.174  36.900   8.250
 6200POPC   C3A38489  29.103  36.939   7.950
 6200POPC   C4A38490  29.099  36.896   7.650
 6200POPC   C1B38491  29.254  36.636   8.550
 6200POPC   C2B38492  29.221  36.655   8.250
 6200POPC   C3B38493  29.223  36.721   7.950
 6200POPC   C4B38494  29.245  36.681   7.650
 6201POPC   NC338495   2.777  28.396   9.450
 6201POPC   PO438496   2.778  28.414   9.150
 6201POPC   GL138497   2.810  28.327   8.850
 6201POPC   GL238498   2.848  28.481   8.850
 6201POPC   C1A38499   2.774  28.401   8.550
 6201POPC   D2A38500   2.782  28.375   8.250
 6201POPC   C3A38501   2.751  28.348   7.950
 6201POPC   C4A38502   2.741  28.393   7.650
 6201POPC   C1B38503   2.974  28.454   8.550
 6201POPC   C2B38504   2.960  28.528   8.250
 6201POPC   C3B38505   3.012  28.471   7.950
 6201POPC   C4B38506   2.966  28.479   7.650
 6202POPC   NC338507  29.127  24.517   9.450
 6202POPC   PO438508  29.190  24.459   9.150
 6202POPC   GL138509  29.139  24.481   8.850
 6202POPC   GL238510  29.140  24.639   8.850
 6202POPC   C1A38511  29.134  24.507   8.550
 6202POPC   D2A38512  29.184  24.451   8.250
 6202POPC   C3A38513  29.127  24.508   7.950
 6202POPC   C4A38514  29.150  24.471   7.650
 6202POPC   C1B38515  28.995  24.669   8.550
 6202POPC   C2B38516  29.010  24.700   8.250
 6202POPC   C3B38517  28.997  24.714   7.950
 6202POPC   C4B38518  29.041  24.665   7.650
 6203POPC   NC338519  32.265  10.513   9.450
 6203POPC   PO438520  32.280  10.567   9.150
 6203POPC   GL138521  32.244  10.539   8.850
 6203POPC   GL238522  32.088  10.520   8.850
 6203POPC   C1A38523  32.226  10.502   8.550
 6203POPC   D2A38524  32.209  10.514   8.250
 6203POPC   C3A38525  32.255  10.531   7.950
 6203POPC   C4A38526  32.262  10.500   7.650
 6203POPC   C1B38527  32.033  10.625   8.550
 6203POPC   C2B38528  31.992  10.605   8.250
 6203POPC   C3B38529  32.030  10.541   7.950
 6203POPC   C4B38530  32.002  10.537   7.650
 6204POPC   NC338531   5.864  40.735   9.450
 6204POPC   PO438532   5.866  40.809   9.150
 6204POPC   GL138533   5.878  40.823   8.850
 6204POPC   GL238534   5.811  40.847   8.850
 6204POPC   C1A38535   5.837  40.786   8.550
 6204POPC   D2A38536   5.851  40.779   8.250
 6204POPC   C3A38537   5.859  40.740   7.950
 6204POPC   C4A38538   5.871  40.764   7.650
 6204POPC   C1B38539   5.771  41.036   8.550
 6204POPC   C2B38540   5.732  41.032   8.250
 6204POPC   C3B38541   5.707  41.004   7.950
 6204POPC   C4B38542   5.739  41.023   7.650
 6205POPC   NC338543  35.342  36.940   9.450
 6205POPC   PO438544  35.362  36.911   9.150
 6205POPC   GL138545  35.393  36.922   8.850
 6205POPC   GL238546  35.336  37.033   8.850
 6205POPC   C1A38547  35.323  36.912   8.550
 6205POPC   D2A38548  35.365  36.877   8.250
 6205POPC   C3A38549  35.357  36.937   7.950
 6205POPC   C4A38550  35.334  36.876   7.650
 6205POPC   C1B38551  35.295  37.128   8.550
 6205POPC   C2B38552  35.294  37.105   8.250
 6205POPC   C3B38553  35.227  37.176   7.950
 6205POPC   C4B38554  35.219  37.130   7.650
 6206POPC   NC338555   2.732  33.041   9.450
 6206POPC   PO438556   2.744  33.057   9.150
 6206POPC   GL138557   2.739  33.057   8.850
 6206POPC   GL238558   2.839  33.147   8.850
 6206POPC   C1A38559   2.721  33.020   8.550
 6206POPC   D2A38560   2.741  33.066   8.250
 6206POPC   C3A38561   2.786  32.991   7.950
 6206POPC   C4A38562   2.751  32.980   7.650
 6206POPC   C1B38563   2.930  33.217   8.550
 6206POPC   C2B38564   2.865  33.264   8.250
 6206POPC   C3B38565   2.905  33.270   7.950
 6206POPC   C4B38566   2.919  33.220   7.650
 6207POPC   NC338567  12.865   0.391   9.450
 6207POPC   PO438568  12.808   0.486   9.150
 6207POPC   GL138569  12.867   0.483   8.850
 6207POPC   GL238570  12.956   0.430   8.850
 6207POPC   C1A38571  12.845   0.455   8.550
 6207POPC   D2A38572  12.882   0.415   8.250
 6207POPC   C3A38573  12.845   0.462   7.950
 6207POPC   C4A38574  12.860   0.443   7.650
 6207POPC   C1B38575  13.059   0.476   8.550
 6207POPC   C2B38576  13.096   0.504   8.250
 6207POPC   C3B38577  13.090   0.519   7.950
 6207POPC   C4B38578  13.128   0.504   7.650
 6208POPC   NC338579  18.322  16.701   9.450
 6208POPC   PO438580  18.283  16.692   9.150
 6208POPC   GL138581  18.273  16.692   8.850
 6208POPC   GL238582  18.147  16.660   8.850
 6208POPC   C1A38583  18.308  16.774   8.550
 6208POPC   D2A38584  18.234  16.750   8.250
 6208POPC   C3A38585  18.280  16.757   7.950
 6208POPC   C4A38586  18.236  16.756   7.650
 6208POPC   C1B38587  18.032  16.682   8.550
 6208POPC   C2B38588  18.003  16.689   8.250
 6208POPC   C3B38589  18.067  16.631   7.950
 6208POPC   C4B38590  18.008  16.656   7.650
 6209POPC   NC338591  27.545  30.733   9.450
 6209POPC   PO438592  27.606  30.739   9.150
 6209POPC   GL138593  27.621  30.701   8.850
 6209POPC   GL238594  27.714  30.557   8.850
 6209POPC   C1A38595  27.634  30.732   8.550
 6209POPC   D2A38596  27.588  30.693   8.250
 6209POPC   C3A38597  27.607  30.735   7.950
 6209POPC   C4A38598  27.598  30.737   7.650
 6209POPC   C1B38599  27.715  30.476   8.550
 6209POPC   C2B38600  27.712  30.531   8.250
 6209POPC   C3B38601  27.761  30.493   7.950
 6209POPC   C4B38602  27.760  30.463   7.650
 6210POPC   NC338603  21.379  29.911   9.450
 6210POPC   PO438604  21.424  29.913   9.150
 6210POPC   GL138605  21.418  29.903   8.850
 6210POPC   GL238606  21.261  29.944   8.850
 6210POPC   C1A38607  21.340  29.903   8.550
 6210POPC   D2A38608  21.401  29.899   8.250
 6210POPC   C3A38609  21.394  29.903   7.950
 6210POPC   C4A38610  21.357  29.908   7.650
 6210POPC   C1B38611  21.104  29.972   8.550
 6210POPC   C2B38612  21.135  29.896   8.250
 6210POPC   C3B38613  21.158  29.993   7.950
 6210POPC   C4B38614  21.181  29.913   7.650
 6211POPC   NC338615  38.493   8.211   9.450
 6211POPC   PO438616  38.476   8.223   9.150
 6211POPC   GL138617  38.419   8.174   8.850
 6211POPC   GL238618  38.418   8.080   8.850
 6211POPC   C1A38619  38.476   8.213   8.550
 6211POPC   D2A38620  38.484   8.175   8.250
 6211POPC   C3A38621  38.430   8.229   7.950
 6211POPC   C4A38622  38.470   8.181   7.650
 6211POPC   C1B38623  38.324   7.973   8.550
 6211POPC   C2B38624  38.291   7.981   8.250
 6211POPC   C3B38625  38.339   7.988   7.950
 6211POPC   C4B38626  38.330   8.044   7.650
 6212POPC   NC338627  15.178  16.749   9.450
 6212POPC   PO438628  15.164  16.726   9.150
 6212POPC   GL138629  15.136  16.742   8.850
 6212POPC   GL238630  15.180  16.654   8.850
 6212POPC   C1A38631  15.199  16.726   8.550
 6212POPC   D2A38632  15.175  16.779   8.250
 6212POPC   C3A38633  15.194  16.700   7.950
 6212POPC   C4A38634  15.156  16.731   7.650
 6212POPC   C1B38635  15.263  16.473   8.550
 6212POPC   C2B38636  15.217  16.517   8.250
 6212POPC   C3B38637  15.222  16.496   7.950
 6212POPC   C4B38638  15.250  16.451   7.650
 6213POPC   NC338639  26.782  18.276   9.450
 6213POPC   PO438640  26.810  18.283   9.150
 6213POPC   GL138641  26.832  18.276   8.850
 6213POPC   GL238642  26.791  18.390   8.850
 6213POPC   C1A38643  26.820  18.312   8.550
 6213POPC   D2A38644  26.812  18.314   8.250
 6213POPC   C3A38645  26.859  18.256   7.950
 6213POPC   C4A38646  26.845  18.332   7.650
 6213POPC   C1B38647  26.797  18.504   8.550
 6213POPC   C2B38648  26.787  18.499   8.250
 6213POPC   C3B38649  26.761  18.513   7.950
 6213POPC   C4B38650  26.761  18.500   7.650
 6214POPC   NC338651   7.470   2.007   9.450
 6214POPC   PO438652   7.400   1.992   9.150
 6214POPC   GL138653   7.445   1.998   8.850
 6214POPC   GL238654   7.373   2.125   8.850
 6214POPC   C1A38655   7.429   1.988   8.550
 6214POPC   D2A38656   7.403   1.998   8.250
 6214POPC   C3A38657   7.441   2.014   7.950
 6214POPC   C4A38658   7.395   1.948   7.650
 6214POPC   C1B38659   7.359   2.273   8.550
 6214POPC   C2B38660   7.426   2.224   8.250
 6214POPC   C3B38661   7.338   2.278   7.950
 6214POPC   C4B38662   7.425   2.255   7.650
 6215POPC   NC338663  43.126  11.310   9.450
 6215POPC   PO438664  43.154  11.296   9.150
 6215POPC   GL138665  43.106  11.273   8.850
 6215POPC   GL238666  43.174  11.379   8.850
 6215POPC   C1A38667  43.138  11.274   8.550
 6215POPC   D2A38668  43.147  11.275   8.250
 6215POPC   C3A38669  43.147  11.271   7.950
 6215POPC   C4A38670  43.083  11.275   7.650
 6215POPC   C1B38671  43.331  11.406   8.550
 6215POPC   C2B38672  43.342  11.460   8.250
 6215POPC   C3B38673  43.292  11.442   7.950
 6215POPC   C4B38674  43.279  11.423   7.650
 6216POPC   NC338675  28.347  11.282   9.450
 6216POPC   PO438676  28.326  11.328   9.150
 6216POPC   GL138677  28.365  11.274   8.850
 6216POPC   GL238678  28.349  11.425   8.850
 6216POPC   C1A38679  28.346  11.315   8.550
 6216POPC   D2A38680  28.363  11.295   8.250
 6216POPC   C3A38681  28.408  11.284   7.950
 6216POPC   C4A38682  28.372  11.335   7.650
 6216POPC   C1B38683  28.306  11.586   8.550
 6216POPC   C2B38684  28.287  11.547   8.250
 6216POPC   C3B38685  28.273  11.499   7.950
 6216POPC   C4B38686  28.279  11.491   7.650
 6217POPC   NC338687   9.008  41.569   9.450
 6217POPC   PO438688   8.962  41.598   9.150
 6217POPC   GL138689   8.975  41.533   8.850
 6217POPC   GL238690   9.069  41.489   8.850
 6217POPC   C1A38691   8.952  41.583   8.550
 6217POPC   D2A38692   8.933  41.511   8.250
 6217POPC   C3A38693   8.941  41.572   7.950
 6217POPC   C4A38694   9.007  41.542   7.650
 6217POPC   C1B38695   9.134  41.406   8.550
 6217POPC   C2B38696   9.135  41.439   8.250
 6217POPC   C3B38697   9.199  41.362   7.950
 6217POPC   C4B38698   9.200  41.436   7.650
 6218POPC   NC338699  26.862  17.472   9.450
 6218POPC   PO438700  26.810  17.482   9.150
 6218POPC   GL138701  26.797  17.552   8.850
 6218POPC   GL238702  26.708  17.554   8.850
 6218POPC   C1A38703  26.859  17.493   8.550
 6218POPC   D2A38704  26.838  17.474   8.250
 6218POPC   C3A38705  26.778  17.481   7.950
 6218POPC   C4A38706  26.839  17.542   7.650
 6218POPC   C1B38707  26.579  17.619   8.550
 6218POPC   C2B38708  26.624  17.606   8.250
 6218POPC   C3B38709  26.576  17.627   7.950
 6218POPC   C4B38710  26.640  17.667   7.650
 6219POPC   NC338711  12.809   1.978   9.450
 6219POPC   PO438712  12.872   1.957   9.150
 6219POPC   GL138713  12.823   2.018   8.850
 6219POPC   GL238714  12.803   1.942   8.850
 6219POPC   C1A38715  12.810   2.008   8.550
 6219POPC   D2A38716  12.900   1.968   8.250
 6219POPC   C3A38717  12.829   1.988   7.950
 6219POPC   C4A38718  12.880   1.994   7.650
 6219POPC   C1B38719  12.728   1.801   8.550
 6219POPC   C2B38720  12.667   1.843   8.250
 6219POPC   C3B38721  12.688   1.836   7.950
 6219POPC   C4B38722  12.649   1.783   7.650
 6220POPC   NC338723  39.194  19.053   9.450
 6220POPC   PO438724  39.276  19.052   9.150
 6220POPC   GL138725  39.201  19.055   8.850
 6220POPC   GL238726  39.160  19.148   8.850
 6220POPC   C1A38727  39.280  19.089   8.550
 6220POPC   D2A38728  39.248  19.027   8.250
 6220POPC   C3A38729  39.182  19.061   7.950
 6220POPC   C4A38730  39.249  19.058   7.650
 6220POPC   C1B38731  39.044  19.268   8.550
 6220POPC   C2B38732  39.083  19.255   8.250
 6220POPC   C3B38733  39.047  19.242   7.950
 6220POPC   C4B38734  39.081  19.264   7.650
 6221POPC   NC338735  19.818  39.182   9.450
 6221POPC   PO438736  19.836  39.255   9.150
 6221POPC   GL138737  19.846  39.232   8.850
 6221POPC   GL238738  19.901  39.090   8.850
 6221POPC   C1A38739  19.835  39.184   8.550
 6221POPC   D2A38740  19.815  39.271   8.250
 6221POPC   C3A38741  19.792  39.230   7.950
 6221POPC   C4A38742  19.865  39.272   7.650
 6221POPC   C1B38743  19.959  38.971   8.550
 6221POPC   C2B38744  19.933  38.968   8.250
 6221POPC   C3B38745  19.905  38.999   7.950
 6221POPC   C4B38746  19.912  38.946   7.650
 6222POPC   NC338747  42.313  33.791   9.450
 6222POPC   PO438748  42.324  33.793   9.150
 6222POPC   GL138749  42.292  33.834   8.850
 6222POPC   GL238750  42.297  33.730   8.850
 6222POPC   C1A38751  42.306  33.776   8.550
 6222POPC   D2A38752  42.332  33.798   8.250
 6222POPC   C3A38753  42.320  33.823   7.950
 6222POPC   C4A38754  42.353  33.826   7.650
 6222POPC   C1B38755  42.189  33.625   8.550
 6222POPC   C2B38756  42.199  33.586   8.250
 6222POPC   C3B38757  42.225  33.571   7.950
 6222POPC   C4B38758  42.190  33.613   7.650
 6223POPC   NC338759  28.340  17.510   9.450
 6223POPC   PO438760  28.331  17.524   9.150
 6223POPC   GL138761  28.408  17.475   8.850
 6223POPC   GL238762  28.468  17.621   8.850
 6223POPC   C1A38763  28.321  17.502   8.550
 6223POPC   D2A38764  28.321  17.508   8.250
 6223POPC   C3A38765  28.376  17.501   7.950
 6223POPC   C4A38766  28.358  17.547   7.650
 6223POPC   C1B38767  28.548  17.659   8.550
 6223POPC   C2B38768  28.593  17.684   8.250
 6223POPC   C3B38769  28.596  17.625   7.950
 6223POPC   C4B38770  28.541  17.651   7.650
 6224POPC   NC338771  17.509  36.868   9.450
 6224POPC   PO438772  17.521  36.942   9.150
 6224POPC   GL138773  17.549  36.891   8.850
 6224POPC   GL238774  17.645  36.931   8.850
 6224POPC   C1A38775  17.543  36.929   8.550
 6224POPC   D2A38776  17.539  36.921   8.250
 6224POPC   C3A38777  17.503  36.925   7.950
 6224POPC   C4A38778  17.538  36.868   7.650
 6224POPC   C1B38779  17.697  37.037   8.550
 6224POPC   C2B38780  17.725  37.002   8.250
 6224POPC   C3B38781  17.711  37.059   7.950
 6224POPC   C4B38782  17.683  37.007   7.650
 6225POPC   NC338783  19.872  36.156   9.450
 6225POPC   PO438784  19.857  36.164   9.150
 6225POPC   GL138785  19.837  36.170   8.850
 6225POPC   GL238786  19.960  36.190   8.850
 6225POPC   C1A38787  19.795  36.116   8.550
 6225POPC   D2A38788  19.819  36.148   8.250
 6225POPC   C3A38789  19.793  36.116   7.950
 6225POPC   C4A38790  19.786  36.168   7.650
 6225POPC   C1B38791  20.092  36.218   8.550
 6225POPC   C2B38792  20.041  36.187   8.250
 6225POPC   C3B38793  20.065  36.183   7.950
 6225POPC   C4B38794  20.085  36.206   7.650
 6226POPC   NC338795  24.473  30.688   9.450
 6226POPC   PO438796  24.468  30.690   9.150
 6226POPC   GL138797  24.454  30.742   8.850
 6226POPC   GL238798  24.396  30.800   8.850
 6226POPC   C1A38799  24.464  30.727   8.550
 6226POPC   D2A38800  24.521  30.727   8.250
 6226POPC   C3A38801  24.454  30.666   7.950
 6226POPC   C4A38802  24.523  30.676   7.650
 6226POPC   C1B38803  24.254  30.853   8.550
 6226POPC   C2B38804  24.337  30.825   8.250
 6226POPC   C3B38805  24.266  30.893   7.950
 6226POPC   C4B38806  24.332  30.876   7.650
 6227POPC   NC338807  22.982  25.312   9.450
 6227POPC   PO438808  22.900  25.270   9.150
 6227POPC   GL138809  22.945  25.265   8.850
 6227POPC   GL238810  23.093  25.240   8.850
 6227POPC   C1A38811  22.979  25.235   8.550
 6227POPC   D2A38812  22.907  25.269   8.250
 6227POPC   C3A38813  22.957  25.225   7.950
 6227POPC   C4A38814  22.936  25.246   7.650
 6227POPC   C1B38815  23.164  25.082   8.550
 6227POPC   C2B38816  23.171  25.166   8.250
 6227POPC   C3B38817  23.167  25.114   7.950
 6227POPC   C4B38818  23.134  25.107   7.650
 6228POPC   NC338819  26.793  36.909   9.450
 6228POPC   PO438820  26.781  36.901   9.150
 6228POPC   GL138821  26.839  36.871   8.850
 6228POPC   GL238822  26.729  36.992   8.850
 6228POPC   C1A38823  26.845  36.898   8.550
 6228POPC   D2A38824  26.812  36.917   8.250
 6228POPC   C3A38825  26.835  36.881   7.950
 6228POPC   C4A38826  26.819  36.884   7.650
 6228POPC   C1B38827  26.623  36.984   8.550
 6228POPC   C2B38828  26.585  37.046   8.250
 6228POPC   C3B38829  26.635  37.016   7.950
 6228POPC   C4B38830  26.557  37.027   7.650
 6229POPC   NC338831   1.259   2.012   9.450
 6229POPC   PO438832   1.222   2.033   9.150
 6229POPC   GL138833   1.264   1.980   8.850
 6229POPC   GL238834   1.076   1.886   8.850
 6229POPC   C1A38835   1.236   1.943   8.550
 6229POPC   D2A38836   1.214   2.032   8.250
 6229POPC   C3A38837   1.241   2.020   7.950
 6229POPC   C4A38838   1.241   2.010   7.650
 6229POPC   C1B38839   1.067   1.799   8.550
 6229POPC   C2B38840   1.034   1.839   8.250
 6229POPC   C3B38841   1.043   1.851   7.950
 6229POPC   C4B38842   1.018   1.819   7.650
 6230POPC   NC338843  18.291  40.795   9.450
 6230POPC   PO438844  18.305  40.813   9.150
 6230POPC   GL138845  18.253  40.790   8.850
 6230POPC   GL238846  18.393  40.901   8.850
 6230POPC   C1A38847  18.290  40.749   8.550
 6230POPC   D2A38848  18.312  40.827   8.250
 6230POPC   C3A38849  18.267  40.772   7.950
 6230POPC   C4A38850  18.294  40.766   7.650
 6230POPC   C1B38851  18.457  40.938   8.550
 6230POPC   C2B38852  18.432  40.918   8.250
 6230POPC   C3B38853  18.425  40.959   7.950
 6230POPC   C4B38854  18.469  40.946   7.650
 6231POPC   NC338855  33.037   2.804   9.450
 6231POPC   PO438856  33.018   2.717   9.150
 6231POPC   GL138857  33.012   2.758   8.850
 6231POPC   GL238858  33.001   2.681   8.850
 6231POPC   C1A38859  33.070   2.745   8.550
 6231POPC   D2A38860  33.049   2.758   8.250
 6231POPC   C3A38861  33.012   2.768   7.950
 6231POPC   C4A38862  32.975   2.754   7.650
 6231POPC   C1B38863  32.912   2.521   8.550
 6231POPC   C2B38864  32.930   2.511   8.250
 6231POPC   C3B38865  32.925   2.521   7.950
 6231POPC   C4B38866  32.891   2.573   7.650
 6232POPC   NC338867  28.360   5.905   9.450
 6232POPC   PO438868  28.374   5.879   9.150
 6232POPC   GL138869  28.324   5.911   8.850
 6232POPC   GL238870  28.243   5.987   8.850
 6232POPC   C1A38871  28.341   5.907   8.550
 6232POPC   D2A38872  28.323   5.877   8.250
 6232POPC   C3A38873  28.325   5.907   7.950
 6232POPC   C4A38874  28.353   5.864   7.650
 6232POPC   C1B38875  28.226   6.058   8.550
 6232POPC   C2B38876  28.249   6.075   8.250
 6232POPC   C3B38877  28.162   6.081   7.950
 6232POPC   C4B38878  28.199   6.097   7.650
 6233POPC   NC338879  32.233  25.219   9.450
 6233POPC   PO438880  32.262  25.258   9.150
 6233POPC   GL138881  32.244  25.217   8.850
 6233POPC   GL238882  32.194  25.317   8.850
 6233POPC   C1A38883  32.219  25.233   8.550
 6233POPC   D2A38884  32.223  25.243   8.250
 6233POPC   C3A38885  32.202  25.272   7.950
 6233POPC   C4A38886  32.239  25.240   7.650
 6233POPC   C1B38887  32.050  25.477   8.550
 6233POPC   C2B38888  32.058  25.482   8.250
 6233POPC   C3B38889  32.046  25.481   7.950
 6233POPC   C4B38890  32.106  25.437   7.650
 6234POPC   NC338891  42.368   7.438   9.450
 6234POPC   PO438892  42.311   7.384   9.150
 6234POPC   GL138893  42.366   7.405   8.850
 6234POPC   GL238894  42.425   7.421   8.850
 6234POPC   C1A38895  42.378   7.413   8.550
 6234POPC   D2A38896  42.357   7.381   8.250
 6234POPC   C3A38897  42.308   7.415   7.950
 6234POPC   C4A38898  42.356   7.398   7.650
 6234POPC   C1B38899  42.540   7.488   8.550
 6234POPC   C2B38900  42.617   7.450   8.250
 6234POPC   C3B38901  42.605   7.477   7.950
 6234POPC   C4B38902  42.544   7.501   7.650
 6235POPC   NC338903  30.663  24.505   9.450
 6235POPC   PO438904  30.683  24.502   9.150
 6235POPC   GL138905  30.671  24.449   8.850
 6235POPC   GL238906  30.760  24.571   8.850
 6235POPC   C1A38907  30.717  24.470   8.550
 6235POPC   D2A38908  30.712  24.477   8.250
 6235POPC   C3A38909  30.740  24.487   7.950
 6235POPC   C4A38910  30.663  24.538   7.650
 6235POPC   C1B38911  30.834  24.703   8.550
 6235POPC   C2B38912  30.851  24.658   8.250
 6235POPC   C3B38913  30.813  24.742   7.950
 6235POPC   C4B38914  30.857  24.674   7.650
 6236POPC   NC338915  32.216  19.802   9.450
 6236POPC   PO438916  32.272  19.808   9.150
 6236POPC   GL138917  32.214  19.786   8.850
 6236POPC   GL238918  32.114  19.755   8.850
 6236POPC   C1A38919  32.232  19.800   8.550
 6236POPC   D2A38920  32.291  19.842   8.250
 6236POPC   C3A38921  32.276  19.883   7.950
 6236POPC   C4A38922  32.207  19.823   7.650
 6236POPC   C1B38923  32.042  19.644   8.550
 6236POPC   C2B38924  32.097  19.669   8.250
 6236POPC   C3B38925  32.029  19.633   7.950
 6236POPC   C4B38926  32.022  19.713   7.650
 6237POPC   NC338927  15.914  29.878   9.450
 6237POPC   PO438928  15.923  29.908   9.150
 6237POPC   GL138929  16.001  29.919   8.850
 6237POPC   GL238930  15.876  29.988   8.850
 6237POPC   C1A38931  15.963  29.957   8.550
 6237POPC   D2A38932  15.942  29.883   8.250
 6237POPC   C3A38933  15.997  29.896   7.950
 6237POPC   C4A38934  15.935  29.945   7.650
 6237POPC   C1B38935  15.680  30.018   8.550
 6237POPC   C2B38936  15.703  29.975   8.250
 6237POPC   C3B38937  15.742  30.025   7.950
 6237POPC   C4B38938  15.766  30.044   7.650
 6238POPC   NC338939  16.750  33.012   9.450
 6238POPC   PO438940  16.696  33.045   9.150
 6238POPC   GL138941  16.696  32.978   8.850
 6238POPC   GL238942  16.714  33.143   8.850
 6238POPC   C1A38943  16.708  32.975   8.550
 6238POPC   D2A38944  16.781  32.987   8.250
 6238POPC   C3A38945  16.771  33.066   7.950
 6238POPC   C4A38946  16.696  33.047   7.650
 6238POPC   C1B38947  16.696  33.278   8.550
 6238POPC   C2B38948  16.664  33.296   8.250
 6238POPC   C3B38949  16.677  33.310   7.950
 6238POPC   C4B38950  16.714  33.314   7.650
 6239POPC   NC338951  15.224  13.676   9.450
 6239POPC   PO438952  15.207  13.648   9.150
 6239POPC   GL138953  15.154  13.666   8.850
 6239POPC   GL238954  15.282  13.708   8.850
 6239POPC   C1A38955  15.140  13.581   8.550
 6239POPC   D2A38956  15.188  13.586   8.250
 6239POPC   C3A38957  15.163  13.595   7.950
 6239POPC   C4A38958  15.167  13.581   7.650
 6239POPC   C1B38959  15.368  13.740   8.550
 6239POPC   C2B38960  15.450  13.761   8.250
 6239POPC   C3B38961  15.403  13.752   7.950
 6239POPC   C4B38962  15.366  13.760   7.650
 6240POPC   NC338963   0.394  25.228   9.450
 6240POPC   PO438964   0.421  25.254   9.150
 6240POPC   GL138965   0.423  25.272   8.850
 6240POPC   GL238966   0.404  25.413   8.850
 6240POPC   C1A38967   0.415  25.286   8.550
 6240POPC   D2A38968   0.445  25.258   8.250
 6240POPC   C3A38969   0.399  25.225   7.950
 6240POPC   C4A38970   0.458  25.241   7.650
 6240POPC   C1B38971   0.299  25.473   8.550
 6240POPC   C2B38972   0.289  25.522   8.250
 6240POPC   C3B38973   0.362  25.454   7.950
 6240POPC   C4B38974   0.322  25.524   7.650
 6241POPC   NC338975   0.471   3.528   9.450
 6241POPC   PO438976   0.390   3.587   9.150
 6241POPC   GL138977   0.441   3.497   8.850
 6241POPC   GL238978   0.291   3.529   8.850
 6241POPC   C1A38979   0.481   3.571   8.550
 6241POPC   D2A38980   0.455   3.515   8.250
 6241POPC   C3A38981   0.429   3.516   7.950
 6241POPC   C4A38982   0.410   3.586   7.650
 6241POPC   C1B38983   0.180   3.526   8.550
 6241POPC   C2B38984   0.218   3.518   8.250
 6241POPC   C3B38985   0.171   3.452   7.950
 6241POPC   C4B38986   0.192   3.493   7.650
 6242POPC   NC338987  15.224  26.063   9.450
 6242POPC   PO438988  15.141  26.046   9.150
 6242POPC   GL138989  15.167  26.074   8.850
 6242POPC   GL238990  15.074  25.944   8.850
 6242POPC   C1A38991  15.200  26.009   8.550
 6242POPC   D2A38992  15.170  26.034   8.250
 6242POPC   C3A38993  15.218  26.025   7.950
 6242POPC   C4A38994  15.201  26.027   7.650
 6242POPC   C1B38995  14.924  25.968   8.550
 6242POPC   C2B38996  14.975  25.903   8.250
 6242POPC   C3B38997  14.982  25.904   7.950
 6242POPC   C4B38998  14.960  25.901   7.650
 6243POPC   NC338999  22.942  11.284   9.450
 6243POPC   PO439000  22.926  11.320   9.150
 6243POPC   GL139001  22.921  11.294   8.850
 6243POPC   GL239002  23.050  11.233   8.850
 6243POPC   C1A39003  22.896  11.278   8.550
 6243POPC   D2A39004  22.906  11.336   8.250
 6243POPC   C3A39005  22.942  11.311   7.950
 6243POPC   C4A39006  22.920  11.302   7.650
 6243POPC   C1B39007  23.048  11.084   8.550
 6243POPC   C2B39008  23.034  11.074   8.250
 6243POPC   C3B39009  23.094  11.066   7.950
 6243POPC   C4B39010  23.110  11.050   7.650
 6244POPC   NC339011  24.496   4.292   9.450
 6244POPC   PO439012  24.477   4.336   9.150
 6244POPC   GL139013  24.463   4.316   8.850
 6244POPC   GL239014  24.390   4.316   8.850
 6244POPC   C1A39015  24.484   4.359   8.550
 6244POPC   D2A39016  24.504   4.292   8.250
 6244POPC   C3A39017  24.476   4.304   7.950
 6244POPC   C4A39018  24.494   4.297   7.650
 6244POPC   C1B39019  24.256   4.204   8.550
 6244POPC   C2B39020  24.286   4.177   8.250
 6244POPC   C3B39021  24.237   4.263   7.950
 6244POPC   C4B39022  24.216   4.216   7.650
 6245POPC   NC339023  11.339  41.551   9.450
 6245POPC   PO439024  11.268  41.533   9.150
 6245POPC   GL139025  11.317  41.574   8.850
 6245POPC   GL239026  11.175  41.565   8.850
 6245POPC   C1A39027  11.318  41.568   8.550
 6245POPC   D2A39028  11.334  41.602   8.250
 6245POPC   C3A39029  11.308  41.580   7.950
 6245POPC   C4A39030  11.285  41.577   7.650
 6245POPC   C1B39031  11.040  41.630   8.550
 6245POPC   C2B39032  11.108  41.677   8.250
 6245POPC   C3B39033  11.096  41.638   7.950
 6245POPC   C4B39034  11.073  41.611   7.650
 6246POPC   NC339035   8.967   6.682   9.450
 6246POPC   PO439036   9.022   6.616   9.150
 6246POPC   GL139037   8.960   6.657   8.850
 6246POPC   GL239038   9.093   6.680   8.850
 6246POPC   C1A39039   8.928   6.688   8.550
 6246POPC   D2A39040   8.936   6.618   8.250
 6246POPC   C3A39041   9.012   6.645   7.950
 6246POPC   C4A39042   9.001   6.690   7.650
 6246POPC   C1B39043   9.202   6.691   8.550
 6246POPC   C2B39044   9.214   6.775   8.250
 6246POPC   C3B39045   9.196   6.707   7.950
 6246POPC   C4B39046   9.182   6.750   7.650
 6247POPC   NC339047  39.193  44.632   9.450
 6247POPC   PO439048  39.236  44.648   9.150
 6247POPC   GL139049  39.186  44.708   8.850
 6247POPC   GL239050  39.326  44.722   8.850
 6247POPC   C1A39051  39.195  44.629   8.550
 6247POPC   D2A39052  39.205  44.698   8.250
 6247POPC   C3A39053  39.204  44.658   7.950
 6247POPC   C4A39054  39.232  44.631   7.650
 6247POPC   C1B39055  39.456  44.662   8.550
 6247POPC   C2B39056  39.481  44.661   8.250
 6247POPC   C3B39057  39.480  44.729   7.950
 6247POPC   C4B39058  39.502  44.727   7.650
 6248POPC   NC339059  40.785  34.574   9.450
 6248POPC   PO439060  40.750  34.620   9.150
 6248POPC   GL139061  40.819  34.581   8.850
 6248POPC   GL239062  40.760  34.662   8.850
 6248POPC   C1A39063  40.760  34.574   8.550
 6248POPC   D2A39064  40.739  34.618   8.250
 6248POPC   C3A39065  40.764  34.532   7.950
 6248POPC   C4A39066  40.789  34.579   7.650
 6248POPC   C1B39067  40.724  34.785   8.550
 6248POPC   C2B39068  40.722  34.842   8.250
 6248POPC   C3B39069  40.692  34.844   7.950
 6248POPC   C4B39070  40.642  34.780   7.650
 6249POPC   NC339071   6.596  41.595   9.450
 6249POPC   PO439072   6.641  41.572   9.150
 6249POPC   GL139073   6.598  41.608   8.850
 6249POPC   GL239074   6.614  41.416   8.850
 6249POPC   C1A39075   6.679  41.582   8.550
 6249POPC   D2A39076   6.634  41.565   8.250
 6249POPC   C3A39077   6.664  41.539   7.950
 6249POPC   C4A39078   6.681  41.554   7.650
 6249POPC   C1B39079   6.654  41.356   8.550
 6249POPC   C2B39080   6.659  41.338   8.250
 6249POPC   C3B39081   6.651  41.302   7.950
 6249POPC   C4B39082   6.692  41.357   7.650
 6250POPC   NC339083  24.452   8.938   9.450
 6250POPC   PO439084  24.494   8.936   9.150
 6250POPC   GL139085  24.527   8.945   8.850
 6250POPC   GL239086  24.468   9.109   8.850
 6250POPC   C1A39087  24.527   9.000   8.550
 6250POPC   D2A39088  24.447   9.016   8.250
 6250POPC   C3A39089  24.481   8.959   7.950
 6250POPC   C4A39090  24.462   8.944   7.650
 6250POPC   C1B39091  24.449   9.255   8.550
 6250POPC   C2B39092  24.509   9.239   8.250
 6250POPC   C3B39093  24.535   9.238   7.950
 6250POPC   C4B39094  24.450   9.177   7.650
 6251POPC   NC339095  19.047  22.137   9.450
 6251POPC   PO439096  19.104  22.148   9.150
 6251POPC   GL139097  19.040  22.211   8.850
 6251POPC   GL239098  19.055  22.012   8.850
 6251POPC   C1A39099  19.046  22.182   8.550
 6251POPC   D2A39100  19.034  22.140   8.250
 6251POPC   C3A39101  19.074  22.187   7.950
 6251POPC   C4A39102  19.107  22.144   7.650
 6251POPC   C1B39103  19.053  21.945   8.550
 6251POPC   C2B39104  19.026  21.887   8.250
 6251POPC   C3B39105  19.063  21.882   7.950
 6251POPC   C4B39106  19.069  21.886   7.650
 6252POPC   NC339107   3.576  26.859   9.450
 6252POPC   PO439108   3.533  26.777   9.150
 6252POPC   GL139109   3.539  26.832   8.850
 6252POPC   GL239110   3.444  26.721   8.850
 6252POPC   C1A39111   3.516  26.855   8.550
 6252POPC   D2A39112   3.573  26.784   8.250
 6252POPC   C3A39113   3.552  26.789   7.950
 6252POPC   C4A39114   3.516  26.833   7.650
 6252POPC   C1B39115   3.364  26.704   8.550
 6252POPC   C2B39116   3.347  26.703   8.250
 6252POPC   C3B39117   3.352  26.659   7.950
 6252POPC   C4B39118   3.299  26.707   7.650
 6253POPC   NC339119  24.516   7.415   9.450
 6253POPC   PO439120  24.473   7.418   9.150
 6253POPC   GL139121  24.475   7.447   8.850
 6253POPC   GL239122  24.402   7.579   8.850
 6253POPC   C1A39123  24.537   7.426   8.550
 6253POPC   D2A39124  24.454   7.434   8.250
 6253POPC   C3A39125  24.510   7.383   7.950
 6253POPC   C4A39126  24.509   7.455   7.650
 6253POPC   C1B39127  24.430   7.608   8.550
 6253POPC   C2B39128  24.421   7.693   8.250
 6253POPC   C3B39129  24.423   7.695   7.950
 6253POPC   C4B39130  24.411   7.694   7.650
 6254POPC   NC339131  29.168  29.114   9.450
 6254POPC   PO439132  29.118  29.097   9.150
 6254POPC   GL139133  29.149  29.116   8.850
 6254POPC   GL239134  29.259  29.113   8.850
 6254POPC   C1A39135  29.174  29.163   8.550
 6254POPC   D2A39136  29.176  29.102   8.250
 6254POPC   C3A39137  29.120  29.124   7.950
 6254POPC   C4A39138  29.142  29.140   7.650
 6254POPC   C1B39139  29.333  29.078   8.550
 6254POPC   C2B39140  29.350  29.003   8.250
 6254POPC   C3B39141  29.357  29.040   7.950
 6254POPC   C4B39142  29.369  29.010   7.650
 6255POPC   NC339143  18.275   5.896   9.450
 6255POPC   PO439144  18.254   5.852   9.150
 6255POPC   GL139145  18.240   5.847   8.850
 6255POPC   GL239146  18.121   5.852   8.850
 6255POPC   C1A39147  18.331   5.861   8.550
 6255POPC   D2A39148  18.307   5.903   8.250
 6255POPC   C3A39149  18.321   5.918   7.950
 6255POPC   C4A39150  18.282   5.918   7.650
 6255POPC   C1B39151  18.028   5.778   8.550
 6255POPC   C2B39152  18.079   5.856   8.250
 6255POPC   C3B39153  18.017   5.842   7.950
 6255POPC   C4B39154  18.012   5.763   7.650
 6256POPC   NC339155   3.500  32.216   9.450
 6256POPC   PO439156   3.583  32.207   9.150
 6256POPC   GL139157   3.527  32.294   8.850
 6256POPC   GL239158   3.469  32.353   8.850
 6256POPC   C1A39159   3.518  32.211   8.550
 6256POPC   D2A39160   3.526  32.246   8.250
 6256POPC   C3A39161   3.574  32.241   7.950
 6256POPC   C4A39162   3.565  32.264   7.650
 6256POPC   C1B39163   3.370  32.446   8.550
 6256POPC   C2B39164   3.405  32.425   8.250
 6256POPC   C3B39165   3.388  32.442   7.950
 6256POPC   C4B39166   3.345  32.409   7.650
 6257POPC   NC339167  14.415  42.359   9.450
 6257POPC   PO439168  14.450  42.332   9.150
 6257POPC   GL139169  14.355  42.316   8.850
 6257POPC   GL239170  14.456  42.391   8.850
 6257POPC   C1A39171  14.374  42.340   8.550
 6257POPC   D2A39172  14.400  42.346   8.250
 6257POPC   C3A39173  14.423  42.311   7.950
 6257POPC   C4A39174  14.433  42.298   7.650
 6257POPC   C1B39175  14.495  42.568   8.550
 6257POPC   C2B39176  14.496  42.518   8.250
 6257POPC   C3B39177  14.542  42.594   7.950
 6257POPC   C4B39178  14.489  42.537   7.650
 6258POPC   NC339179   6.600  19.856   9.450
 6258POPC   PO439180   6.629  19.867   9.150
 6258POPC   GL139181   6.597  19.827   8.850
 6258POPC   GL239182   6.761  19.941   8.850
 6258POPC   C1A39183   6.644  19.806   8.550
 6258POPC   D2A39184   6.676  19.875   8.250
 6258POPC   C3A39185   6.622  19.819   7.950
 6258POPC   C4A39186   6.685  19.850   7.650
 6258POPC   C1B39187   6.818  20.061   8.550
 6258POPC   C2B39188   6.773  20.040   8.250
 6258POPC   C3B39189   6.781  20.081   7.950
 6258POPC   C4B39190   6.793  20.020   7.650
 6259POPC   NC339191   6.629  17.536   9.450
 6259POPC   PO439192   6.665  17.539   9.150
 6259POPC   GL139193   6.660  17.550   8.850
 6259POPC   GL239194   6.708  17.402   8.850
 6259POPC   C1A39195   6.624  17.527   8.550
 6259POPC   D2A39196   6.659  17.506   8.250
 6259POPC   C3A39197   6.666  17.552   7.950
 6259POPC   C4A39198   6.616  17.461   7.650
 6259POPC   C1B39199   6.745  17.244   8.550
 6259POPC   C2B39200   6.694  17.240   8.250
 6259POPC   C3B39201   6.708  17.235   7.950
 6259POPC   C4B39202   6.671  17.252   7.650
 6260POPC   NC339203   2.731  27.606   9.450
 6260POPC   PO439204   2.810  27.548   9.150
 6260POPC   GL139205   2.807  27.622   8.850
 6260POPC   GL239206   2.849  27.434   8.850
 6260POPC   C1A39207   2.720  27.597   8.550
 6260POPC   D2A39208   2.732  27.632   8.250
 6260POPC   C3A39209   2.724  27.621   7.950
 6260POPC   C4A39210   2.739  27.556   7.650
 6260POPC   C1B39211   2.880  27.324   8.550
 6260POPC   C2B39212   2.810  27.386   8.250
 6260POPC   C3B39213   2.801  27.350   7.950
 6260POPC   C4B39214   2.868  27.350   7.650
 6261POPC   NC339215  13.599   3.532   9.450
 6261POPC   PO439216  13.589   3.586   9.150
 6261POPC   GL139217  13.591   3.512   8.850
 6261POPC   GL239218  13.733   3.596   8.850
 6261POPC   C1A39219  13.637   3.586   8.550
 6261POPC   D2A39220  13.661   3.544   8.250
 6261POPC   C3A39221  13.585   3.566   7.950
 6261POPC   C4A39222  13.605   3.566   7.650
 6261POPC   C1B39223  13.905   3.624   8.550
 6261POPC   C2B39224  13.830   3.680   8.250
 6261POPC   C3B39225  13.855   3.632   7.950
 6261POPC   C4B39226  13.854   3.610   7.650
 6262POPC   NC339227   8.154  32.250   9.450
 6262POPC   PO439228   8.222  32.241   9.150
 6262POPC   GL139229   8.208  32.282   8.850
 6262POPC   GL239230   8.265  32.166   8.850
 6262POPC   C1A39231   8.191  32.252   8.550
 6262POPC   D2A39232   8.186  32.206   8.250
 6262POPC   C3A39233   8.172  32.291   7.950
 6262POPC   C4A39234   8.223  32.241   7.650
 6262POPC   C1B39235   8.355  32.130   8.550
 6262POPC   C2B39236   8.335  32.083   8.250
 6262POPC   C3B39237   8.427  32.089   7.950
 6262POPC   C4B39238   8.404  32.047   7.650
 6263POPC   NC339239  15.938   0.468   9.450
 6263POPC   PO439240  15.962   0.390   9.150
 6263POPC   GL139241  15.959   0.421   8.850
 6263POPC   GL239242  15.919   0.529   8.850
 6263POPC   C1A39243  15.981   0.444   8.550
 6263POPC   D2A39244  15.967   0.399   8.250
 6263POPC   C3A39245  15.994   0.452   7.950
 6263POPC   C4A39246  15.975   0.487   7.650
 6263POPC   C1B39247  15.828   0.656   8.550
 6263POPC   C2B39248  15.845   0.631   8.250
 6263POPC   C3B39249  15.820   0.663   7.950
 6263POPC   C4B39250  15.879   0.654   7.650
 6264POPC   NC339251  22.195  12.826   9.450
 6264POPC   PO439252  22.161  12.867   9.150
 6264POPC   GL139253  22.139  12.814   8.850
 6264POPC   GL239254  22.076  12.881   8.850
 6264POPC   C1A39255  22.181  12.817   8.550
 6264POPC   D2A39256  22.192  12.846   8.250
 6264POPC   C3A39257  22.115  12.899   7.950
 6264POPC   C4A39258  22.209  12.814   7.650
 6264POPC   C1B39259  21.897  12.825   8.550
 6264POPC   C2B39260  21.912  12.841   8.250
 6264POPC   C3B39261  21.880  12.810   7.950
 6264POPC   C4B39262  21.898  12.803   7.650
 6265POPC   NC339263   6.684  34.595   9.450
 6265POPC   PO439264   6.651  34.575   9.150
 6265POPC   GL139265   6.603  34.568   8.850
 6265POPC   GL239266   6.555  34.708   8.850
 6265POPC   C1A39267   6.676  34.555   8.550
 6265POPC   D2A39268   6.657  34.603   8.250
 6265POPC   C3A39269   6.666  34.579   7.950
 6265POPC   C4A39270   6.604  34.585   7.650
 6265POPC   C1B39271   6.456  34.807   8.550
 6265POPC   C2B39272   6.468  34.770   8.250
 6265POPC   C3B39273   6.449  34.756   7.950
 6265POPC   C4B39274   6.449  34.792   7.650
 6266POPC   NC339275  20.599  12.879   9.450
 6266POPC   PO439276  20.602  12.825   9.150
 6266POPC   GL139277  20.645  12.876   8.850
 6266POPC   GL239278  20.468  12.814   8.850
 6266POPC   C1A39279  20.575  12.869   8.550
 6266POPC   D2A39280  20.569  12.866   8.250
 6266POPC   C3A39281  20.615  12.885   7.950
 6266POPC   C4A39282  20.572  12.816   7.650
 6266POPC   C1B39283  20.340  12.877   8.550
 6266POPC   C2B39284  20.354  12.897   8.250
 6266POPC   C3B39285  20.316  12.858   7.950
 6266POPC   C4B39286  20.408  12.875   7.650
 6267POPC   NC339287  27.639  19.792   9.450
 6267POPC   PO439288  27.566  19.836   9.150
 6267POPC   GL139289  27.612  19.823   8.850
 6267POPC   GL239290  27.735  19.891   8.850
 6267POPC   C1A39291  27.599  19.840   8.550
 6267POPC   D2A39292  27.559  19.827   8.250
 6267POPC   C3A39293  27.577  19.880   7.950
 6267POPC   C4A39294  27.602  19.822   7.650
 6267POPC   C1B39295  27.846  19.942   8.550
 6267POPC   C2B39296  27.867  19.858   8.250
 6267POPC   C3B39297  27.830  19.885   7.950
 6267POPC   C4B39298  27.844  19.892   7.650
 6268POPC   NC339299  21.357  13.669   9.450
 6268POPC   PO439300  21.428  13.606   9.150
 6268POPC   GL139301  21.346  13.643   8.850
 6268POPC   GL239302  21.536  13.660   8.850
 6268POPC   C1A39303  21.346  13.632   8.550
 6268POPC   D2A39304  21.395  13.610   8.250
 6268POPC   C3A39305  21.366  13.677   7.950
 6268POPC   C4A39306  21.391  13.616   7.650
 6268POPC   C1B39307  21.597  13.688   8.550
 6268POPC   C2B39308  21.651  13.639   8.250
 6268POPC   C3B39309  21.589  13.665   7.950
 6268POPC   C4B39310  21.619  13.660   7.650
 6269POPC   NC339311  25.268  36.932   9.450
 6269POPC   PO439312  25.261  36.884   9.150
 6269POPC   GL139313  25.306  36.864   8.850
 6269POPC   GL239314  25.150  37.000   8.850
 6269POPC   C1A39315  25.305  36.880   8.550
 6269POPC   D2A39316  25.270  36.871   8.250
 6269POPC   C3A39317  25.271  36.910   7.950
 6269POPC   C4A39318  25.225  36.899   7.650
 6269POPC   C1B39319  25.108  37.155   8.550
 6269POPC   C2B39320  25.130  37.121   8.250
 6269POPC   C3B39321  25.135  37.151   7.950
 6269POPC   C4B39322  25.147  37.130   7.650
 6270POPC   NC339323  38.474  39.972   9.450
 6270POPC   PO439324  38.483  39.979   9.150
 6270POPC   GL139325  38.473  40.014   8.850
 6270POPC   GL239326  38.499  40.101   8.850
 6270POPC   C1A39327  38.480  39.968   8.550
 6270POPC   D2A39328  38.471  40.030   8.250
 6270POPC   C3A39329  38.458  40.021   7.950
 6270POPC   C4A39330  38.487  40.037   7.650
 6270POPC   C1B39331  38.427  40.250   8.550
 6270POPC   C2B39332  38.482  40.216   8.250
 6270POPC   C3B39333  38.496  40.239   7.950
 6270POPC   C4B39334  38.474  40.293   7.650
 6271POPC   NC339335  19.091   2.815   9.450
 6271POPC   PO439336  19.041   2.798   9.150
 6271POPC   GL139337  19.014   2.794   8.850
 6271POPC   GL239338  19.183   2.668   8.850
 6271POPC   C1A39339  19.022   2.733   8.550
 6271POPC   D2A39340  19.070   2.734   8.250
 6271POPC   C3A39341  19.081   2.768   7.950
 6271POPC   C4A39342  19.020   2.766   7.650
 6271POPC   C1B39343  19.189   2.585   8.550
 6271POPC   C2B39344  19.254   2.630   8.250
 6271POPC   C3B39345  19.259   2.608   7.950
 6271POPC   C4B39346  19.264   2.633   7.650
 6272POPC   NC339347  16.005   9.015   9.450
 6272POPC   PO439348  15.921   8.980   9.150
 6272POPC   GL139349  15.929   8.938   8.850
 6272POPC   GL239350  15.835   8.947   8.850
 6272POPC   C1A39351  15.945   8.998   8.550
 6272POPC   D2A39352  15.997   9.001   8.250
 6272POPC   C3A39353  15.956   8.977   7.950
 6272POPC   C4A39354  15.941   9.000   7.650
 6272POPC   C1B39355  15.684   8.889   8.550
 6272POPC   C2B39356  15.770   8.870   8.250
 6272POPC   C3B39357  15.687   8.814   7.950
 6272POPC   C4B39358  15.761   8.904   7.650
 6273POPC   NC339359  30.662  32.256   9.450
 6273POPC   PO439360  30.687  32.231   9.150
 6273POPC   GL139361  30.730  32.282   8.850
 6273POPC   GL239362  30.588  32.256   8.850
 6273POPC   C1A39363  30.722  32.226   8.550
 6273POPC   D2A39364  30.657  32.281   8.250
 6273POPC   C3A39365  30.664  32.264   7.950
 6273POPC   C4A39366  30.717  32.240   7.650
 6273POPC   C1B39367  30.424  32.364   8.550
 6273POPC   C2B39368  30.451  32.340   8.250
 6273POPC   C3B39369  30.424  32.338   7.950
 6273POPC   C4B39370  30.464  32.305   7.650
 6274POPC   NC339371   1.170  23.756   9.450
 6274POPC   PO439372   1.203  23.734   9.150
 6274POPC   GL139373   1.263  23.713   8.850
 6274POPC   GL239374   1.083  23.654   8.850
 6274POPC   C1A39375   1.197  23.738   8.550
 6274POPC   D2A39376   1.199  23.708   8.250
 6274POPC   C3A39377   1.165  23.728   7.950
 6274POPC   C4A39378   1.256  23.671   7.650
 6274POPC   C1B39379   0.941  23.663   8.550
 6274POPC   C2B39380   0.955  23.643   8.250
 6274POPC   C3B39381   0.929  23.626   7.950
 6274POPC   C4B39382   0.928  23.688   7.650
 6275POPC   NC339383   4.310  32.290   9.450
 6275POPC   PO439384   4.276  32.291   9.150
 6275POPC   GL139385   4.308  32.288   8.850
 6275POPC   GL239386   4.172  32.334   8.850
 6275POPC   C1A39387   4.363  32.245   8.550
 6275POPC   D2A39388   4.294  32.200   8.250
 6275POPC   C3A39389   4.306  32.226   7.950
 6275POPC   C4A39390   4.339  32.265   7.650
 6275POPC   C1B39391   4.115  32.454   8.550
 6275POPC   C2B39392   4.080  32.379   8.250
 6275POPC   C3B39393   4.107  32.399   7.950
 6275POPC   C4B39394   4.162  32.441   7.650
 6276POPC   NC339395   8.171   1.224   9.450
 6276POPC   PO439396   8.232   1.214   9.150
 6276POPC   GL139397   8.226   1.237   8.850
 6276POPC   GL239398   8.214   1.099   8.850
 6276POPC   C1A39399   8.194   1.221   8.550
 6276POPC   D2A39400   8.212   1.173   8.250
 6276POPC   C3A39401   8.150   1.195   7.950
 6276POPC   C4A39402   8.206   1.165   7.650
 6276POPC   C1B39403   8.290   0.951   8.550
 6276POPC   C2B39404   8.269   0.954   8.250
 6276POPC   C3B39405   8.324   1.019   7.950
 6276POPC   C4B39406   8.297   0.960   7.650
 6277POPC   NC339407   6.667  38.446   9.450
 6277POPC   PO439408   6.668  38.439   9.150
 6277POPC   GL139409   6.614  38.499   8.850
 6277POPC   GL239410   6.659  38.533   8.850
 6277POPC   C1A39411   6.606  38.455   8.550
 6277POPC   D2A39412   6.611  38.430   8.250
 6277POPC   C3A39413   6.694  38.482   7.950
 6277POPC   C4A39414   6.595  38.495   7.650
 6277POPC   C1B39415   6.774  38.723   8.550
 6277POPC   C2B39416   6.737  38.705   8.250
 6277POPC   C3B39417   6.715  38.679   7.950
 6277POPC   C4B39418   6.716  38.665   7.650
 6278POPC   NC339419  15.960   2.774   9.450
 6278POPC   PO439420  15.971   2.805   9.150
 6278POPC   GL139421  15.927   2.762   8.850
 6278POPC   GL239422  16.055   2.703   8.850
 6278POPC   C1A39423  15.909   2.784   8.550
 6278POPC   D2A39424  15.966   2.811   8.250
 6278POPC   C3A39425  15.981   2.795   7.950
 6278POPC   C4A39426  15.948   2.770   7.650
 6278POPC   C1B39427  16.155   2.726   8.550
 6278POPC   C2B39428  16.195   2.738   8.250
 6278POPC   C3B39429  16.160   2.693   7.950
 6278POPC   C4B39430  16.173   2.733   7.650
 6279POPC   NC339431  30.693  26.843   9.450
 6279POPC   PO439432  30.654  26.827   9.150
 6279POPC   GL139433  30.731  26.805   8.850
 6279POPC   GL239434  30.786  26.932   8.850
 6279POPC   C1A39435  30.680  26.832   8.550
 6279POPC   D2A39436  30.652  26.807   8.250
 6279POPC   C3A39437  30.661  26.844   7.950
 6279POPC   C4A39438  30.719  26.817   7.650
 6279POPC   C1B39439  30.848  27.028   8.550
 6279POPC   C2B39440  30.807  27.085   8.250
 6279POPC   C3B39441  30.811  27.042   7.950
 6279POPC   C4B39442  30.788  27.094   7.650
 6280POPC   NC339443   6.614   8.978   9.450
 6280POPC   PO439444   6.652   8.966   9.150
 6280POPC   GL139445   6.652   8.936   8.850
 6280POPC   GL239446   6.772   8.922   8.850
 6280POPC   C1A39447   6.692   8.964   8.550
 6280POPC   D2A39448   6.603   8.956   8.250
 6280POPC   C3A39449   6.635   8.999   7.950
 6280POPC   C4A39450   6.623   8.988   7.650
 6280POPC   C1B39451   6.866   8.860   8.550
 6280POPC   C2B39452   6.858   8.786   8.250
 6280POPC   C3B39453   6.857   8.822   7.950
 6280POPC   C4B39454   6.814   8.831   7.650
 6281POPC   NC339455   1.947  24.468   9.450
 6281POPC   PO439456   1.950  24.480   9.150
 6281POPC   GL139457   1.940  24.537   8.850
 6281POPC   GL239458   1.871  24.608   8.850
 6281POPC   C1A39459   2.027  24.514   8.550
 6281POPC   D2A39460   2.006  24.523   8.250
 6281POPC   C3A39461   2.019  24.468   7.950
 6281POPC   C4A39462   1.949  24.527   7.650
 6281POPC   C1B39463   1.762  24.608   8.550
 6281POPC   C2B39464   1.810  24.674   8.250
 6281POPC   C3B39465   1.757  24.653   7.950
 6281POPC   C4B39466   1.760  24.677   7.650
 6282POPC   NC339467  26.808  30.697   9.450
 6282POPC   PO439468  26.826  30.685   9.150
 6282POPC   GL139469  26.858  30.676   8.850
 6282POPC   GL239470  26.678  30.710   8.850
 6282POPC   C1A39471  26.858  30.735   8.550
 6282POPC   D2A39472  26.800  30.726   8.250
 6282POPC   C3A39473  26.823  30.743   7.950
 6282POPC   C4A39474  26.806  30.700   7.650
 6282POPC   C1B39475  26.603  30.794   8.550
 6282POPC   C2B39476  26.589  30.830   8.250
 6282POPC   C3B39477  26.554  30.823   7.950
 6282POPC   C4B39478  26.626  30.801   7.650
 6283POPC   NC339479  10.476  19.799   9.450
 6283POPC   PO439480  10.543  19.834   9.150
 6283POPC   GL139481  10.494  19.794   8.850
 6283POPC   GL239482  10.660  19.938   8.850
 6283POPC   C1A39483  10.554  19.877   8.550
 6283POPC   D2A39484  10.550  19.823   8.250
 6283POPC   C3A39485  10.522  19.820   7.950
 6283POPC   C4A39486  10.515  19.825   7.650
 6283POPC   C1B39487  10.750  19.989   8.550
 6283POPC   C2B39488  10.755  19.977   8.250
 6283POPC   C3B39489  10.756  19.966   7.950
 6283POPC   C4B39490  10.699  19.963   7.650
 6284POPC   NC339491   9.747  26.030   9.450
 6284POPC   PO439492   9.728  26.044   9.150
 6284POPC   GL139493   9.774  26.036   8.850
 6284POPC   GL239494   9.798  26.137   8.850
 6284POPC   C1A39495   9.795  25.992   8.550
 6284POPC   D2A39496   9.797  26.020   8.250
 6284POPC   C3A39497   9.720  26.042   7.950
 6284POPC   C4A39498   9.796  25.998   7.650
 6284POPC   C1B39499   9.904  26.286   8.550
 6284POPC   C2B39500   9.829  26.292   8.250
 6284POPC   C3B39501   9.830  26.212   7.950
 6284POPC   C4B39502   9.837  26.220   7.650
 6285POPC   NC339503   7.438  10.493   9.450
 6285POPC   PO439504   7.407  10.556   9.150
 6285POPC   GL139505   7.460  10.554   8.850
 6285POPC   GL239506   7.524  10.417   8.850
 6285POPC   C1A39507   7.414  10.528   8.550
 6285POPC   D2A39508   7.468  10.571   8.250
 6285POPC   C3A39509   7.440  10.530   7.950
 6285POPC   C4A39510   7.419  10.515   7.650
 6285POPC   C1B39511   7.639  10.352   8.550
 6285POPC   C2B39512   7.623  10.362   8.250
 6285POPC   C3B39513   7.638  10.352   7.950
 6285POPC   C4B39514   7.574  10.319   7.650
 6286POPC   NC339515  24.478  42.370   9.450
 6286POPC   PO439516  24.489  42.287   9.150
 6286POPC   GL139517  24.487  42.376   8.850
 6286POPC   GL239518  24.338  42.327   8.850
 6286POPC   C1A39519  24.525  42.350   8.550
 6286POPC   D2A39520  24.537  42.326   8.250
 6286POPC   C3A39521  24.469  42.308   7.950
 6286POPC   C4A39522  24.528  42.297   7.650
 6286POPC   C1B39523  24.203  42.376   8.550
 6286POPC   C2B39524  24.257  42.391   8.250
 6286POPC   C3B39525  24.213  42.417   7.950
 6286POPC   C4B39526  24.249  42.392   7.650
 6287POPC   NC339527   8.226  44.634   9.450
 6287POPC   PO439528   8.153  44.659   9.150
 6287POPC   GL139529   8.181  44.651   8.850
 6287POPC   GL239530   8.324  44.650   8.850
 6287POPC   C1A39531   8.184  44.675   8.550
 6287POPC   D2A39532   8.168  44.615   8.250
 6287POPC   C3A39533   8.166  44.656   7.950
 6287POPC   C4A39534   8.158  44.616   7.650
 6287POPC   C1B39535   8.378  44.585   8.550
 6287POPC   C2B39536   8.410  44.531   8.250
 6287POPC   C3B39537   8.412  44.586   7.950
 6287POPC   C4B39538   8.395  44.561   7.650
 6288POPC   NC339539  22.945  38.475   9.450
 6288POPC   PO439540  22.961  38.412   9.150
 6288POPC   GL139541  22.953  38.447   8.850
 6288POPC   GL239542  22.995  38.612   8.850
 6288POPC   C1A39543  22.907  38.499   8.550
 6288POPC   D2A39544  22.950  38.493   8.250
 6288POPC   C3A39545  22.911  38.483   7.950
 6288POPC   C4A39546  22.970  38.425   7.650
 6288POPC   C1B39547  22.975  38.658   8.550
 6288POPC   C2B39548  22.999  38.673   8.250
 6288POPC   C3B39549  22.954  38.732   7.950
 6288POPC   C4B39550  22.947  38.699   7.650
 6289POPC   NC339551  15.159  26.847   9.450
 6289POPC   PO439552  15.156  26.865   9.150
 6289POPC   GL139553  15.200  26.800   8.850
 6289POPC   GL239554  15.102  26.746   8.850
 6289POPC   C1A39555  15.194  26.790   8.550
 6289POPC   D2A39556  15.168  26.817   8.250
 6289POPC   C3A39557  15.145  26.858   7.950
 6289POPC   C4A39558  15.173  26.853   7.650
 6289POPC   C1B39559  15.141  26.535   8.550
 6289POPC   C2B39560  15.068  26.609   8.250
 6289POPC   C3B39561  15.066  26.612   7.950
 6289POPC   C4B39562  15.127  26.588   7.650
 6290POPC   NC339563  43.894  44.699   9.450
 6290POPC   PO439564  43.895  44.655   9.150
 6290POPC   GL139565  43.851  44.658   8.850
 6290POPC   GL239566  43.933  44.518   8.850
 6290POPC   C1A39567  43.933  44.636   8.550
 6290POPC   D2A39568  43.876  44.674   8.250
 6290POPC   C3A39569  43.876  44.704   7.950
 6290POPC   C4A39570  43.845  44.650   7.650
 6290POPC   C1B39571  43.896  44.369   8.550
 6290POPC   C2B39572  43.921  44.434   8.250
 6290POPC   C3B39573  43.911  44.389   7.950
 6290POPC   C4B39574  43.902  44.380   7.650
 6291POPC   NC339575  33.813  31.455   9.450
 6291POPC   PO439576  33.850  31.436   9.150
 6291POPC   GL139577  33.767  31.437   8.850
 6291POPC   GL239578  33.856  31.543   8.850
 6291POPC   C1A39579  33.838  31.486   8.550
 6291POPC   D2A39580  33.833  31.483   8.250
 6291POPC   C3A39581  33.770  31.443   7.950
 6291POPC   C4A39582  33.775  31.489   7.650
 6291POPC   C1B39583  33.926  31.681   8.550
 6291POPC   C2B39584  33.924  31.693   8.250
 6291POPC   C3B39585  33.954  31.711   7.950
 6291POPC   C4B39586  33.888  31.698   7.650
 6292POPC   NC339587  40.749  10.500   9.450
 6292POPC   PO439588  40.787  10.494   9.150
 6292POPC   GL139589  40.781  10.515   8.850
 6292POPC   GL239590  40.724  10.606   8.850
 6292POPC   C1A39591  40.790  10.487   8.550
 6292POPC   D2A39592  40.765  10.491   8.250
 6292POPC   C3A39593  40.754  10.569   7.950
 6292POPC   C4A39594  40.827  10.570   7.650
 6292POPC   C1B39595  40.604  10.682   8.550
 6292POPC   C2B39596  40.616  10.672   8.250
 6292POPC   C3B39597  40.567  10.627   7.950
 6292POPC   C4B39598  40.550  10.636   7.650
 6293POPC   NC339599  24.486  24.530   9.450
 6293POPC   PO439600  24.451  24.509   9.150
 6293POPC   GL139601  24.482  24.479   8.850
 6293POPC   GL239602  24.475  24.619   8.850
 6293POPC   C1A39603  24.534  24.471   8.550
 6293POPC   D2A39604  24.481  24.480   8.250
 6293POPC   C3A39605  24.466  24.471   7.950
 6293POPC   C4A39606  24.501  24.493   7.650
 6293POPC   C1B39607  24.468  24.750   8.550
 6293POPC   C2B39608  24.393  24.747   8.250
 6293POPC   C3B39609  24.460  24.700   7.950
 6293POPC   C4B39610  24.450  24.710   7.650
 6294POPC   NC339611   8.942   9.781   9.450
 6294POPC   PO439612   9.005   9.739   9.150
 6294POPC   GL139613   8.966   9.782   8.850
 6294POPC   GL239614   9.064   9.766   8.850
 6294POPC   C1A39615   8.955   9.735   8.550
 6294POPC   D2A39616   9.004   9.775   8.250
 6294POPC   C3A39617   9.015   9.780   7.950
 6294POPC   C4A39618   8.985   9.721   7.650
 6294POPC   C1B39619   9.253   9.760   8.550
 6294POPC   C2B39620   9.182   9.755   8.250
 6294POPC   C3B39621   9.184   9.751   7.950
 6294POPC   C4B39622   9.195   9.715   7.650
 6295POPC   NC339623  26.827  34.571   9.450
 6295POPC   PO439624  26.860  34.540   9.150
 6295POPC   GL139625  26.819  34.541   8.850
 6295POPC   GL239626  26.889  34.446   8.850
 6295POPC   C1A39627  26.827  34.590   8.550
 6295POPC   D2A39628  26.784  34.601   8.250
 6295POPC   C3A39629  26.819  34.542   7.950
 6295POPC   C4A39630  26.818  34.539   7.650
 6295POPC   C1B39631  26.960  34.417   8.550
 6295POPC   C2B39632  26.961  34.337   8.250
 6295POPC   C3B39633  26.968  34.391   7.950
 6295POPC   C4B39634  26.982  34.418   7.650
 6296POPC   NC339635  33.024  13.613   9.450
 6296POPC   PO439636  32.996  13.671   9.150
 6296POPC   GL139637  33.023  13.611   8.850
 6296POPC   GL239638  32.969  13.552   8.850
 6296POPC   C1A39639  33.049  13.595   8.550
 6296POPC   D2A39640  33.046  13.639   8.250
 6296POPC   C3A39641  32.984  13.659   7.950
 6296POPC   C4A39642  33.051  13.601   7.650
 6296POPC   C1B39643  32.892  13.419   8.550
 6296POPC   C2B39644  32.936  13.390   8.250
 6296POPC   C3B39645  32.948  13.453   7.950
 6296POPC   C4B39646  32.888  13.387   7.650
 6297POPC   NC339647  40.781   5.862   9.450
 6297POPC   PO439648  40.800   5.904   9.150
 6297POPC   GL139649  40.831   5.898   8.850
 6297POPC   GL239650  40.689   5.728   8.850
 6297POPC   C1A39651  40.755   5.892   8.550
 6297POPC   D2A39652  40.802   5.890   8.250
 6297POPC   C3A39653  40.743   5.852   7.950
 6297POPC   C4A39654  40.802   5.896   7.650
 6297POPC   C1B39655  40.656   5.627   8.550
 6297POPC   C2B39656  40.651   5.619   8.250
 6297POPC   C3B39657  40.597   5.682   7.950
 6297POPC   C4B39658  40.638   5.714   7.650
 6298POPC   NC339659  30.740  26.053   9.450
 6298POPC   PO439660  30.653  26.005   9.150
 6298POPC   GL139661  30.673  26.055   8.850
 6298POPC   GL239662  30.613  25.960   8.850
 6298POPC   C1A39663  30.691  26.037   8.550
 6298POPC   D2A39664  30.734  26.070   8.250
 6298POPC   C3A39665  30.739  26.031   7.950
 6298POPC   C4A39666  30.651  26.005   7.650
 6298POPC   C1B39667  30.590  25.861   8.550
 6298POPC   C2B39668  30.633  25.794   8.250
 6298POPC   C3B39669  30.541  25.775   7.950
 6298POPC   C4B39670  30.605  25.847   7.650
 6299POPC   NC339671  16.001  44.666   9.450
 6299POPC   PO439672  15.988  44.659   9.150
 6299POPC   GL139673  15.917  44.711   8.850
 6299POPC   GL239674  15.933  44.791   8.850
 6299POPC   C1A39675  15.959  44.648   8.550
 6299POPC   D2A39676  15.924  44.650   8.250
 6299POPC   C3A39677  15.981  44.707   7.950
 6299POPC   C4A39678  15.964  44.705   7.650
 6299POPC   C1B39679  15.907  44.917   8.550
 6299POPC   C2B39680  15.845  44.933   8.250
 6299POPC   C3B39681  15.841  44.863   7.950
 6299POPC   C4B39682  15.824  44.872   7.650
 6300POPC   NC339683  33.034  15.164   9.450
 6300POPC   PO439684  33.029  15.198   9.150
 6300POPC   GL139685  32.983  15.162   8.850
 6300POPC   GL239686  33.085  15.046   8.850
 6300POPC   C1A39687  33.044  15.138   8.550
 6300POPC   D2A39688  33.048  15.166   8.250
 6300POPC   C3A39689  33.054  15.134   7.950
 6300POPC   C4A39690  33.057  15.131   7.650
 6300POPC   C1B39691  33.091  14.938   8.550
 6300POPC   C2B39692  33.091  14.935   8.250
 6300POPC   C3B39693  33.104  14.967   7.950
 6300POPC   C4B39694  33.089  14.931   7.650
 6301POPC   NC339695   8.979  23.734   9.450
 6301POPC   PO439696   8.981  23.759   9.150
 6301POPC   GL139697   8.946  23.740   8.850
 6301POPC   GL239698   8.893  23.734   8.850
 6301POPC   C1A39699   9.007  23.699   8.550
 6301POPC   D2A39700   8.936  23.731   8.250
 6301POPC   C3A39701   9.019  23.729   7.950
 6301POPC   C4A39702   8.972  23.690   7.650
 6301POPC   C1B39703   8.811  23.869   8.550
 6301POPC   C2B39704   8.791  23.806   8.250
 6301POPC   C3B39705   8.755  23.867   7.950
 6301POPC   C4B39706   8.806  23.799   7.650
 6302POPC   NC339707   8.236  20.568   9.450
 6302POPC   PO439708   8.236  20.649   9.150
 6302POPC   GL139709   8.224  20.572   8.850
 6302POPC   GL239710   8.066  20.728   8.850
 6302POPC   C1A39711   8.234  20.577   8.550
 6302POPC   D2A39712   8.162  20.573   8.250
 6302POPC   C3A39713   8.185  20.657   7.950
 6302POPC   C4A39714   8.172  20.641   7.650
 6302POPC   C1B39715   8.037  20.732   8.550
 6302POPC   C2B39716   7.951  20.736   8.250
 6302POPC   C3B39717   8.023  20.759   7.950
 6302POPC   C4B39718   7.959  20.741   7.650
 6303POPC   NC339719  10.477  39.188   9.450
 6303POPC   PO439720  10.510  39.201   9.150
 6303POPC   GL139721  10.573  39.206   8.850
 6303POPC   GL239722  10.566  39.122   8.850
 6303POPC   C1A39723  10.521  39.190   8.550
 6303POPC   D2A39724  10.548  39.208   8.250
 6303POPC   C3A39725  10.572  39.238   7.950
 6303POPC   C4A39726  10.515  39.192   7.650
 6303POPC   C1B39727  10.544  38.995   8.550
 6303POPC   C2B39728  10.541  39.005   8.250
 6303POPC   C3B39729  10.523  38.976   7.950
 6303POPC   C4B39730  10.496  39.013   7.650
 6304POPC   NC339731  33.041   3.519   9.450
 6304POPC   PO439732  33.069   3.506   9.150
 6304POPC   GL139733  32.976   3.591   8.850
 6304POPC   GL239734  32.888   3.622   8.850
 6304POPC   C1A39735  33.025   3.505   8.550
 6304POPC   D2A39736  33.062   3.546   8.250
 6304POPC   C3A39737  33.032   3.526   7.950
 6304POPC   C4A39738  32.994   3.516   7.650
 6304POPC   C1B39739  32.818   3.644   8.550
 6304POPC   C2B39740  32.865   3.651   8.250
 6304POPC   C3B39741  32.807   3.647   7.950
 6304POPC   C4B39742  32.810   3.730   7.650
 6305POPC   NC339743   1.976  16.700   9.450
 6305POPC   PO439744   1.950  16.714   9.150
 6305POPC   GL139745   1.960  16.702   8.850
 6305POPC   GL239746   2.136  16.766   8.850
 6305POPC   C1A39747   1.978  16.705   8.550
 6305POPC   D2A39748   2.036  16.705   8.250
 6305POPC   C3A39749   1.971  16.763   7.950
 6305POPC   C4A39750   2.008  16.729   7.650
 6305POPC   C1B39751   2.231  16.766   8.550
 6305POPC   C2B39752   2.190  16.775   8.250
 6305POPC   C3B39753   2.192  16.801   7.950
 6305POPC   C4B39754   2.256  16.821   7.650
 6306POPC   NC339755  35.308  42.371   9.450
 6306POPC   PO439756  35.351  42.300   9.150
 6306POPC   GL139757  35.378  42.383   8.850
 6306POPC   GL239758  35.382  42.502   8.850
 6306POPC   C1A39759  35.307  42.327   8.550
 6306POPC   D2A39760  35.379  42.381   8.250
 6306POPC   C3A39761  35.357  42.345   7.950
 6306POPC   C4A39762  35.350  42.367   7.650
 6306POPC   C1B39763  35.311  42.616   8.550
 6306POPC   C2B39764  35.306  42.535   8.250
 6306POPC   C3B39765  35.290  42.552   7.950
 6306POPC   C4B39766  35.309  42.617   7.650
 6307POPC   NC339767  42.358  21.369   9.450
 6307POPC   PO439768  42.376  21.427   9.150
 6307POPC   GL139769  42.384  21.387   8.850
 6307POPC   GL239770  42.458  21.270   8.850
 6307POPC   C1A39771  42.321  21.370   8.550
 6307POPC   D2A39772  42.287  21.368   8.250
 6307POPC   C3A39773  42.375  21.358   7.950
 6307POPC   C4A39774  42.307  21.396   7.650
 6307POPC   C1B39775  42.521  21.199   8.550
 6307POPC   C2B39776  42.517  21.169   8.250
 6307POPC   C3B39777  42.467  21.220   7.950
 6307POPC   C4B39778  42.552  21.246   7.650
 6308POPC   NC339779   2.719  42.370   9.450
 6308POPC   PO439780   2.754  42.322   9.150
 6308POPC   GL139781   2.772  42.338   8.850
 6308POPC   GL239782   2.614  42.419   8.850
 6308POPC   C1A39783   2.717  42.332   8.550
 6308POPC   D2A39784   2.807  42.308   8.250
 6308POPC   C3A39785   2.733  42.338   7.950
 6308POPC   C4A39786   2.785  42.354   7.650
 6308POPC   C1B39787   2.516  42.483   8.550
 6308POPC   C2B39788   2.575  42.420   8.250
 6308POPC   C3B39789   2.519  42.471   7.950
 6308POPC   C4B39790   2.532  42.423   7.650
 6309POPC   NC339791  22.151  21.353   9.450
 6309POPC   PO439792  22.161  21.420   9.150
 6309POPC   GL139793  22.175  21.373   8.850
 6309POPC   GL239794  22.026  21.435   8.850
 6309POPC   C1A39795  22.145  21.397   8.550
 6309POPC   D2A39796  22.118  21.366   8.250
 6309POPC   C3A39797  22.121  21.375   7.950
 6309POPC   C4A39798  22.188  21.392   7.650
 6309POPC   C1B39799  21.989  21.546   8.550
 6309POPC   C2B39800  21.966  21.500   8.250
 6309POPC   C3B39801  22.014  21.535   7.950
 6309POPC   C4B39802  21.941  21.527   7.650
 6310POPC   NC339803  34.544  23.715   9.450
 6310POPC   PO439804  34.586  23.674   9.150
 6310POPC   GL139805  34.560  23.704   8.850
 6310POPC   GL239806  34.518  23.838   8.850
 6310POPC   C1A39807  34.588  23.677   8.550
 6310POPC   D2A39808  34.554  23.699   8.250
 6310POPC   C3A39809  34.562  23.695   7.950
 6310POPC   C4A39810  34.578  23.696   7.650
 6310POPC   C1B39811  34.452  23.877   8.550
 6310POPC   C2B39812  34.455  23.902   8.250
 6310POPC   C3B39813  34.414  23.945   7.950
 6310POPC   C4B39814  34.466  23.947   7.650
 6311POPC   NC339815  24.533  19.044   9.450
 6311POPC   PO439816  24.504  19.055   9.150
 6311POPC   GL139817  24.511  19.013   8.850
 6311POPC   GL239818  24.369  19.154   8.850
 6311POPC   C1A39819  24.452  19.075   8.550
 6311POPC   D2A39820  24.507  19.009   8.250
 6311POPC   C3A39821  24.489  19.042   7.950
 6311POPC   C4A39822  24.499  19.102   7.650
 6311POPC   C1B39823  24.299  19.120   8.550
 6311POPC   C2B39824  24.244  19.116   8.250
 6311POPC   C3B39825  24.249  19.127   7.950
 6311POPC   C4B39826  24.284  19.193   7.650
 6312POPC   NC339827  15.131  32.979   9.450
 6312POPC   PO439828  15.140  33.058   9.150
 6312POPC   GL139829  15.131  33.040   8.850
 6312POPC   GL239830  15.302  33.011   8.850
 6312POPC   C1A39831  15.210  33.027   8.550
 6312POPC   D2A39832  15.174  32.982   8.250
 6312POPC   C3A39833  15.149  33.001   7.950
 6312POPC   C4A39834  15.159  32.989   7.650
 6312POPC   C1B39835  15.411  32.966   8.550
 6312POPC   C2B39836  15.447  32.939   8.250
 6312POPC   C3B39837  15.461  32.941   7.950
 6312POPC   C4B39838  15.400  32.998   7.650
 6313POPC   NC339839  43.079  15.184   9.450
 6313POPC   PO439840  43.121  15.152   9.150
 6313POPC   GL139841  43.101  15.197   8.850
 6313POPC   GL239842  43.201  15.071   8.850
 6313POPC   C1A39843  43.065  15.147   8.550
 6313POPC   D2A39844  43.118  15.172   8.250
 6313POPC   C3A39845  43.116  15.172   7.950
 6313POPC   C4A39846  43.061  15.213   7.650
 6313POPC   C1B39847  43.170  14.975   8.550
 6313POPC   C2B39848  43.212  14.942   8.250
 6313POPC   C3B39849  43.216  14.923   7.950
 6313POPC   C4B39850  43.257  14.925   7.650
 6314POPC   NC339851  20.588  20.588   9.450
 6314POPC   PO439852  20.602  20.601   9.150
 6314POPC   GL139853  20.588  20.599   8.850
 6314POPC   GL239854  20.695  20.562   8.850
 6314POPC   C1A39855  20.638  20.625   8.550
 6314POPC   D2A39856  20.586  20.564   8.250
 6314POPC   C3A39857  20.575  20.645   7.950
 6314POPC   C4A39858  20.602  20.590   7.650
 6314POPC   C1B39859  20.786  20.462   8.550
 6314POPC   C2B39860  20.770  20.489   8.250
 6314POPC   C3B39861  20.764  20.443   7.950
 6314POPC   C4B39862  20.802  20.478   7.650
 6315POPC   NC339863  19.097  17.459   9.450
 6315POPC   PO439864  19.051  17.480   9.150
 6315POPC   GL139865  19.045  17.506   8.850
 6315POPC   GL239866  18.984  17.598   8.850
 6315POPC   C1A39867  19.093  17.546   8.550
 6315POPC   D2A39868  19.061  17.520   8.250
 6315POPC   C3A39869  19.054  17.460   7.950
 6315POPC   C4A39870  19.050  17.524   7.650
 6315POPC   C1B39871  18.886  17.653   8.550
 6315POPC   C2B39872  18.911  17.619   8.250
 6315POPC   C3B39873  18.904  17.629   7.950
 6315POPC   C4B39874  18.840  17.655   7.650
 6316POPC   NC339875  25.267  41.542   9.450
 6316POPC   PO439876  25.240  41.558   9.150
 6316POPC   GL139877  25.277  41.543   8.850
 6316POPC   GL239878  25.249  41.638   8.850
 6316POPC   C1A39879  25.286  41.565   8.550
 6316POPC   D2A39880  25.313  41.558   8.250
 6316POPC   C3A39881  25.277  41.608   7.950
 6316POPC   C4A39882  25.310  41.594   7.650
 6316POPC   C1B39883  25.200  41.804   8.550
 6316POPC   C2B39884  25.232  41.772   8.250
 6316POPC   C3B39885  25.213  41.776   7.950
 6316POPC   C4B39886  25.250  41.816   7.650
 6317POPC   NC339887   8.964  11.266   9.450
 6317POPC   PO439888   9.005  11.324   9.150
 6317POPC   GL139889   9.016  11.333   8.850
 6317POPC   GL239890   8.886  11.172   8.850
 6317POPC   C1A39891   8.957  11.275   8.550
 6317POPC   D2A39892   9.000  11.261   8.250
 6317POPC   C3A39893   9.021  11.304   7.950
 6317POPC   C4A39894   9.003  11.317   7.650
 6317POPC   C1B39895   8.876  11.091   8.550
 6317POPC   C2B39896   8.880  11.046   8.250
 6317POPC   C3B39897   8.858  11.108   7.950
 6317POPC   C4B39898   8.835  11.092   7.650
 6318POPC   NC339899  26.083  17.476   9.450
 6318POPC   PO439900  26.068  17.473   9.150
 6318POPC   GL139901  26.029  17.484   8.850
 6318POPC   GL239902  25.931  17.602   8.850
 6318POPC   C1A39903  26.051  17.542   8.550
 6318POPC   D2A39904  26.004  17.481   8.250
 6318POPC   C3A39905  26.026  17.543   7.950
 6318POPC   C4A39906  26.018  17.553   7.650
 6318POPC   C1B39907  25.842  17.610   8.550
 6318POPC   C2B39908  25.837  17.702   8.250
 6318POPC   C3B39909  25.830  17.626   7.950
 6318POPC   C4B39910  25.869  17.638   7.650
 6319POPC   NC339911  12.080  36.910   9.450
 6319POPC   PO439912  12.059  36.909   9.150
 6319POPC   GL139913  12.047  36.905   8.850
 6319POPC   GL239914  12.169  36.985   8.850
 6319POPC   C1A39915  12.060  36.901   8.550
 6319POPC   D2A39916  12.113  36.935   8.250
 6319POPC   C3A39917  12.047  36.867   7.950
 6319POPC   C4A39918  12.092  36.892   7.650
 6319POPC   C1B39919  12.161  37.153   8.550
 6319POPC   C2B39920  12.206  37.139   8.250
 6319POPC   C3B39921  12.143  37.087   7.950
 6319POPC   C4B39922  12.160  37.156   7.650
 6320POPC   NC339923   3.516   3.530   9.450
 6320POPC   PO439924   3.578   3.517   9.150
 6320POPC   GL139925   3.514   3.591   8.850
 6320POPC   GL239926   3.593   3.409   8.850
 6320POPC   C1A39927   3.508   3.548   8.550
 6320POPC   D2A39928   3.503   3.513   8.250
 6320POPC   C3A39929   3.542   3.558   7.950
 6320POPC   C4A39930   3.574   3.533   7.650
 6320POPC   C1B39931   3.672   3.384   8.550
 6320POPC   C2B39932   3.666   3.317   8.250
 6320POPC   C3B39933   3.738   3.298   7.950
 6320POPC   C4B39934   3.739   3.325   7.650
 6321POPC   NC339935   2.034   2.015   9.450
 6321POPC   PO439936   1.968   2.018   9.150
 6321POPC   GL139937   2.013   2.027   8.850
 6321POPC   GL239938   1.879   2.066   8.850
 6321POPC   C1A39939   1.973   1.963   8.550
 6321POPC   D2A39940   2.036   1.952   8.250
 6321POPC   C3A39941   1.966   2.002   7.950
 6321POPC   C4A39942   1.976   2.032   7.650
 6321POPC   C1B39943   1.732   2.049   8.550
 6321POPC   C2B39944   1.740   2.046   8.250
 6321POPC   C3B39945   1.741   2.039   7.950
 6321POPC   C4B39946   1.708   2.082   7.650
 6322POPC   NC339947   4.350  34.580   9.450
 6322POPC   PO439948   4.321  34.621   9.150
 6322POPC   GL139949   4.298  34.558   8.850
 6322POPC   GL239950   4.250  34.721   8.850
 6322POPC   C1A39951   4.367  34.562   8.550
 6322POPC   D2A39952   4.301  34.567   8.250
 6322POPC   C3A39953   4.334  34.538   7.950
 6322POPC   C4A39954   4.366  34.535   7.650
 6322POPC   C1B39955   4.188  34.789   8.550
 6322POPC   C2B39956   4.157  34.767   8.250
 6322POPC   C3B39957   4.154  34.740   7.950
 6322POPC   C4B39958   4.188  34.828   7.650
 6323POPC   NC339959   7.424  41.535   9.450
 6323POPC   PO439960   7.436  41.514   9.150
 6323POPC   GL139961   7.382  41.524   8.850
 6323POPC   GL239962   7.499  41.439   8.850
 6323POPC   C1A39963   7.415  41.583   8.550
 6323POPC   D2A39964   7.450  41.579   8.250
 6323POPC   C3A39965   7.390  41.511   7.950
 6323POPC   C4A39966   7.435  41.608   7.650
 6323POPC   C1B39967   7.557  41.317   8.550
 6323POPC   C2B39968   7.552  41.397   8.250
 6323POPC   C3B39969   7.571  41.343   7.950
 6323POPC   C4B39970   7.600  41.347   7.650
 6324POPC   NC339971   4.275   1.247   9.450
 6324POPC   PO439972   4.291   1.166   9.150
 6324POPC   GL139973   4.293   1.233   8.850
 6324POPC   GL239974   4.155   1.234   8.850
 6324POPC   C1A39975   4.287   1.218   8.550
 6324POPC   D2A39976   4.291   1.237   8.250
 6324POPC   C3A39977   4.293   1.171   7.950
 6324POPC   C4A39978   4.364   1.247   7.650
 6324POPC   C1B39979   4.064   1.265   8.550
 6324POPC   C2B39980   4.037   1.260   8.250
 6324POPC   C3B39981   4.073   1.266   7.950
 6324POPC   C4B39982   4.064   1.303   7.650
 6325POPC   NC339983  43.146  25.313   9.450
 6325POPC   PO439984  43.091  25.305   9.150
 6325POPC   GL139985  43.084  25.244   8.850
 6325POPC   GL239986  43.131  25.111   8.850
 6325POPC   C1A39987  43.074  25.275   8.550
 6325POPC   D2A39988  43.089  25.279   8.250
 6325POPC   C3A39989  43.160  25.274   7.950
 6325POPC   C4A39990  43.136  25.268   7.650
 6325POPC   C1B39991  43.148  25.016   8.550
 6325POPC   C2B39992  43.208  25.012   8.250
 6325POPC   C3B39993  43.161  25.043   7.950
 6325POPC   C4B39994  43.178  25.078   7.650
 6326POPC   NC339995  37.660  21.411   9.450
 6326POPC   PO439996  37.644  21.409   9.150
 6326POPC   GL139997  37.675  21.433   8.850
 6326POPC   GL239998  37.686  21.477   8.850
 6326POPC   C1A39999  37.714  21.394   8.550
 6326POPC   D2A40000  37.725  21.367   8.250
 6326POPC   C3A40001  37.676  21.425   7.950
 6326POPC   C4A40002  37.683  21.419   7.650
 6326POPC   C1B40003  37.679  21.666   8.550
 6326POPC   C2B40004  37.644  21.619   8.250
 6326POPC   C3B40005  37.648  21.589   7.950
 6326POPC   C4B40006  37.711  21.630   7.650
 6327POPC   NC340007   5.098  16.722   9.450
 6327POPC   PO440008   5.069  16.694   9.150
 6327POPC   GL140009   5.045  16.719   8.850
 6327POPC   GL240010   5.054  16.797   8.850
 6327POPC   C1A40011   5.125  16.684   8.550
 6327POPC   D2A40012   5.053  16.685   8.250
 6327POPC   C3A40013   5.120  16.729   7.950
 6327POPC   C4A40014   5.141  16.701   7.650
 6327POPC   C1B40015   4.969  16.977   8.550
 6327POPC   C2B40016   5.009  16.986   8.250
 6327POPC   C3B40017   4.943  16.995   7.950
 6327POPC   C4B40018   5.012  16.960   7.650
 6328POPC   NC340019  15.955  22.200   9.450
 6328POPC   PO440020  15.972  22.114   9.150
 6328POPC   GL140021  16.001  22.200   8.850
 6328POPC   GL240022  15.847  22.123   8.850
 6328POPC   C1A40023  15.970  22.212   8.550
 6328POPC   D2A40024  15.920  22.202   8.250
 6328POPC   C3A40025  15.950  22.158   7.950
 6328POPC   C4A40026  15.943  22.150   7.650
 6328POPC   C1B40027  15.703  22.097   8.550
 6328POPC   C2B40028  15.743  22.067   8.250
 6328POPC   C3B40029  15.704  22.152   7.950
 6328POPC   C4B40030  15.674  22.055   7.650
 6329POPC   NC340031   3.503  31.446   9.450
 6329POPC   PO440032   3.565  31.423   9.150
 6329POPC   GL140033   3.507  31.520   8.850
 6329POPC   GL240034   3.468  31.465   8.850
 6329POPC   C1A40035   3.575  31.434   8.550
 6329POPC   D2A40036   3.539  31.433   8.250
 6329POPC   C3A40037   3.508  31.516   7.950
 6329POPC   C4A40038   3.517  31.428   7.650
 6329POPC   C1B40039   3.275  31.372   8.550
 6329POPC   C2B40040   3.307  31.429   8.250
 6329POPC   C3B40041   3.313  31.456   7.950
 6329POPC   C4B40042   3.261  31.420   7.650
 6330POPC   NC340043  30.664  29.190   9.450
 6330POPC   PO440044  30.666  29.136   9.150
 6330POPC   GL140045  30.671  29.113   8.850
 6330POPC   GL240046  30.641  29.027   8.850
 6330POPC   C1A40047  30.703  29.179   8.550
 6330POPC   D2A40048  30.721  29.095   8.250
 6330POPC   C3A40049  30.647  29.167   7.950
 6330POPC   C4A40050  30.685  29.100   7.650
 6330POPC   C1B40051  30.630  28.874   8.550
 6330POPC   C2B40052  30.693  28.893   8.250
 6330POPC   C3B40053  30.687  28.945   7.950
 6330POPC   C4B40054  30.635  28.918   7.650
 6331POPC   NC340055  12.839  33.025   9.450
 6331POPC   PO440056  12.893  33.019   9.150
 6331POPC   GL140057  12.892  32.991   8.850
 6331POPC   GL240058  12.690  32.965   8.850
 6331POPC   C1A40059  12.883  33.043   8.550
 6331POPC   D2A40060  12.817  32.983   8.250
 6331POPC   C3A40061  12.802  33.058   7.950
 6331POPC   C4A40062  12.836  32.977   7.650
 6331POPC   C1B40063  12.569  32.922   8.550
 6331POPC   C2B40064  12.660  32.963   8.250
 6331POPC   C3B40065  12.565  32.971   7.950
 6331POPC   C4B40066  12.620  32.947   7.650
 6332POPC   NC340067   6.658  16.732   9.450
 6332POPC   PO440068   6.648  16.712   9.150
 6332POPC   GL140069   6.610  16.750   8.850
 6332POPC   GL240070   6.680  16.869   8.850
 6332POPC   C1A40071   6.635  16.685   8.550
 6332POPC   D2A40072   6.629  16.759   8.250
 6332POPC   C3A40073   6.646  16.781   7.950
 6332POPC   C4A40074   6.633  16.735   7.650
 6332POPC   C1B40075   6.722  16.991   8.550
 6332POPC   C2B40076   6.693  16.954   8.250
 6332POPC   C3B40077   6.725  16.982   7.950
 6332POPC   C4B40078   6.628  16.983   7.650
 6333POPC   NC340079  43.865  33.842   9.450
 6333POPC   PO440080  43.892  33.810   9.150
 6333POPC   GL140081  43.933  33.810   8.850
 6333POPC   GL240082  43.845  33.725   8.850
 6333POPC   C1A40083  43.922  33.823   8.550
 6333POPC   D2A40084  43.903  33.813   8.250
 6333POPC   C3A40085  43.894  33.763   7.950
 6333POPC   C4A40086  43.886  33.837   7.650
 6333POPC   C1B40087  43.741  33.633   8.550
 6333POPC   C2B40088  43.691  33.643   8.250
 6333POPC   C3B40089  43.715  33.574   7.950
 6333POPC   C4B40090  43.681  33.599   7.650
 6334POPC   NC340091  12.885  33.755   9.450
 6334POPC   PO440092  12.812  33.771   9.150
 6334POPC   GL140093  12.899  33.767   8.850
 6334POPC   GL240094  12.796  33.874   8.850
 6334POPC   C1A40095  12.892  33.811   8.550
 6334POPC   D2A40096  12.848  33.842   8.250
 6334POPC   C3A40097  12.879  33.803   7.950
 6334POPC   C4A40098  12.822  33.835   7.650
 6334POPC   C1B40099  12.636  33.955   8.550
 6334POPC   C2B40100  12.669  34.020   8.250
 6334POPC   C3B40101  12.679  33.934   7.950
 6334POPC   C4B40102  12.719  34.008   7.650
 6335POPC   NC340103  26.088  37.651   9.450
 6335POPC   PO440104  26.035  37.698   9.150
 6335POPC   GL140105  25.999  37.648   8.850
 6335POPC   GL240106  25.972  37.621   8.850
 6335POPC   C1A40107  26.028  37.686   8.550
 6335POPC   D2A40108  26.082  37.643   8.250
 6335POPC   C3A40109  25.999  37.674   7.950
 6335POPC   C4A40110  26.049  37.647   7.650
 6335POPC   C1B40111  25.851  37.574   8.550
 6335POPC   C2B40112  25.846  37.606   8.250
 6335POPC   C3B40113  25.819  37.607   7.950
 6335POPC   C4B40114  25.763  37.631   7.650
 6336POPC   NC340115  10.543  19.061   9.450
 6336POPC   PO440116  10.544  19.025   9.150
 6336POPC   GL140117  10.490  19.093   8.850
 6336POPC   GL240118  10.443  18.965   8.850
 6336POPC   C1A40119  10.560  19.073   8.550
 6336POPC   D2A40120  10.513  19.053   8.250
 6336POPC   C3A40121  10.491  19.009   7.950
 6336POPC   C4A40122  10.569  19.082   7.650
 6336POPC   C1B40123  10.375  18.822   8.550
 6336POPC   C2B40124  10.360  18.872   8.250
 6336POPC   C3B40125  10.355  18.887   7.950
 6336POPC   C4B40126  10.344  18.867   7.650
 6337POPC   NC340127  35.319  41.578   9.450
 6337POPC   PO440128  35.388  41.512   9.150
 6337POPC   GL140129  35.308  41.532   8.850
 6337POPC   GL240130  35.455  41.640   8.850
 6337POPC   C1A40131  35.302  41.598   8.550
 6337POPC   D2A40132  35.376  41.564   8.250
 6337POPC   C3A40133  35.349  41.568   7.950
 6337POPC   C4A40134  35.333  41.562   7.650
 6337POPC   C1B40135  35.633  41.668   8.550
 6337POPC   C2B40136  35.565  41.675   8.250
 6337POPC   C3B40137  35.628  41.615   7.950
 6337POPC   C4B40138  35.603  41.663   7.650
 6338POPC   NC340139  13.644   5.885   9.450
 6338POPC   PO440140  13.661   5.866   9.150
 6338POPC   GL140141  13.599   5.914   8.850
 6338POPC   GL240142  13.797   5.851   8.850
 6338POPC   C1A40143  13.668   5.873   8.550
 6338POPC   D2A40144  13.673   5.880   8.250
 6338POPC   C3A40145  13.669   5.901   7.950
 6338POPC   C4A40146  13.673   5.915   7.650
 6338POPC   C1B40147  13.865   5.899   8.550
 6338POPC   C2B40148  13.848   5.879   8.250
 6338POPC   C3B40149  13.888   5.911   7.950
 6338POPC   C4B40150  13.861   5.890   7.650
 6339POPC   NC340151  34.553  33.757   9.450
 6339POPC   PO440152  34.571  33.838   9.150
 6339POPC   GL140153  34.609  33.827   8.850
 6339POPC   GL240154  34.667  33.726   8.850
 6339POPC   C1A40155  34.568  33.753   8.550
 6339POPC   D2A40156  34.615  33.843   8.250
 6339POPC   C3A40157  34.612  33.841   7.950
 6339POPC   C4A40158  34.539  33.838   7.650
 6339POPC   C1B40159  34.724  33.547   8.550
 6339POPC   C2B40160  34.716  33.562   8.250
 6339POPC   C3B40161  34.712  33.560   7.950
 6339POPC   C4B40162  34.674  33.535   7.650
 6340POPC   NC340163  43.924  43.854   9.450
 6340POPC   PO440164  43.878  43.840   9.150
 6340POPC   GL140165  43.923  43.838   8.850
 6340POPC   GL240166  44.045  43.874   8.850
 6340POPC   C1A40167  43.868  43.849   8.550
 6340POPC   D2A40168  43.891  43.930   8.250
 6340POPC   C3A40169  43.934  43.890   7.950
 6340POPC   C4A40170  43.921  43.856   7.650
 6340POPC   C1B40171  44.076  43.761   8.550
 6340POPC   C2B40172  44.140  43.769   8.250
 6340POPC   C3B40173  44.093  43.766   7.950
 6340POPC   C4B40174  44.104  43.783   7.650
 6341POPC   NC340175   4.292  22.930   9.450
 6341POPC   PO440176   4.313  22.972   9.150
 6341POPC   GL140177   4.302  22.908   8.850
 6341POPC   GL240178   4.249  22.954   8.850
 6341POPC   C1A40179   4.313  22.934   8.550
 6341POPC   D2A40180   4.271  22.979   8.250
 6341POPC   C3A40181   4.270  22.906   7.950
 6341POPC   C4A40182   4.357  22.930   7.650
 6341POPC   C1B40183   4.053  23.061   8.550
 6341POPC   C2B40184   4.126  23.062   8.250
 6341POPC   C3B40185   4.058  23.046   7.950
 6341POPC   C4B40186   4.077  23.104   7.650
 6342POPC   NC340187  26.839   1.966   9.450
 6342POPC   PO440188  26.802   2.027   9.150
 6342POPC   GL140189  26.818   1.962   8.850
 6342POPC   GL240190  26.907   1.951   8.850
 6342POPC   C1A40191  26.832   2.021   8.550
 6342POPC   D2A40192  26.831   1.991   8.250
 6342POPC   C3A40193  26.839   1.965   7.950
 6342POPC   C4A40194  26.774   2.021   7.650
 6342POPC   C1B40195  27.052   1.868   8.550
 6342POPC   C2B40196  27.025   1.884   8.250
 6342POPC   C3B40197  27.042   1.793   7.950
 6342POPC   C4B40198  27.060   1.849   7.650
 6343POPC   NC340199  11.280  34.594   9.450
 6343POPC   PO440200  11.320  34.559   9.150
 6343POPC   GL140201  11.347  34.595   8.850
 6343POPC   GL240202  11.428  34.587   8.850
 6343POPC   C1A40203  11.261  34.549   8.550
 6343POPC   D2A40204  11.342  34.619   8.250
 6343POPC   C3A40205  11.254  34.617   7.950
 6343POPC   C4A40206  11.339  34.561   7.650
 6343POPC   C1B40207  11.540  34.614   8.550
 6343POPC   C2B40208  11.529  34.662   8.250
 6343POPC   C3B40209  11.530  34.634   7.950
 6343POPC   C4B40210  11.548  34.629   7.650
 6344POPC   NC340211  18.251   2.815   9.450
 6344POPC   PO440212  18.260   2.808   9.150
 6344POPC   GL140213  18.294   2.805   8.850
 6344POPC   GL240214  18.433   2.861   8.850
 6344POPC   C1A40215  18.288   2.727   8.550
 6344POPC   D2A40216  18.318   2.765   8.250
 6344POPC   C3A40217  18.317   2.765   7.950
 6344POPC   C4A40218  18.271   2.736   7.650
 6344POPC   C1B40219  18.472   2.829   8.550
 6344POPC   C2B40220  18.491   2.891   8.250
 6344POPC   C3B40221  18.543   2.826   7.950
 6344POPC   C4B40222  18.534   2.902   7.650
 6345POPC   NC340223  39.249  27.634   9.450
 6345POPC   PO440224  39.190  27.547   9.150
 6345POPC   GL140225  39.190  27.633   8.850
 6345POPC   GL240226  39.198  27.422   8.850
 6345POPC   C1A40227  39.247  27.595   8.550
 6345POPC   D2A40228  39.193  27.603   8.250
 6345POPC   C3A40229  39.196  27.585   7.950
 6345POPC   C4A40230  39.239  27.569   7.650
 6345POPC   C1B40231  39.228  27.338   8.550
 6345POPC   C2B40232  39.251  27.346   8.250
 6345POPC   C3B40233  39.273  27.392   7.950
 6345POPC   C4B40234  39.275  27.366   7.650
 6346POPC   NC340235   1.191  19.815   9.450
 6346POPC   PO440236   1.257  19.792   9.150
 6346POPC   GL140237   1.169  19.866   8.850
 6346POPC   GL240238   1.287  19.724   8.850
 6346POPC   C1A40239   1.233  19.838   8.550
 6346POPC   D2A40240   1.259  19.884   8.250
 6346POPC   C3A40241   1.200  19.825   7.950
 6346POPC   C4A40242   1.234  19.842   7.650
 6346POPC   C1B40243   1.300  19.641   8.550
 6346POPC   C2B40244   1.288  19.615   8.250
 6346POPC   C3B40245   1.228  19.583   7.950
 6346POPC   C4B40246   1.250  19.560   7.650
 6347POPC   NC340247   7.409  18.329   9.450
 6347POPC   PO440248   7.414  18.271   9.150
 6347POPC   GL140249   7.402  18.278   8.850
 6347POPC   GL240250   7.397  18.139   8.850
 6347POPC   C1A40251   7.404  18.312   8.550
 6347POPC   D2A40252   7.453  18.280   8.250
 6347POPC   C3A40253   7.453  18.301   7.950
 6347POPC   C4A40254   7.455  18.239   7.650
 6347POPC   C1B40255   7.329  17.998   8.550
 6347POPC   C2B40256   7.383  18.073   8.250
 6347POPC   C3B40257   7.376  18.056   7.950
 6347POPC   C4B40258   7.403  17.999   7.650
 6348POPC   NC340259  33.071  40.028   9.450
 6348POPC   PO440260  32.984  39.984   9.150
 6348POPC   GL140261  33.044  39.974   8.850
 6348POPC   GL240262  32.943  40.095   8.850
 6348POPC   C1A40263  33.025  40.053   8.550
 6348POPC   D2A40264  33.009  39.962   8.250
 6348POPC   C3A40265  33.002  39.969   7.950
 6348POPC   C4A40266  33.050  39.996   7.650
 6348POPC   C1B40267  32.838  40.108   8.550
 6348POPC   C2B40268  32.773  40.154   8.250
 6348POPC   C3B40269  32.759  40.110   7.950
 6348POPC   C4B40270  32.778  40.141   7.650
 6349POPC   NC340271  25.231  10.511   9.450
 6349POPC   PO440272  25.218  10.523   9.150
 6349POPC   GL140273  25.254  10.525   8.850
 6349POPC   GL240274  25.326  10.604   8.850
 6349POPC   C1A40275  25.224  10.514   8.550
 6349POPC   D2A40276  25.220  10.552   8.250
 6349POPC   C3A40277  25.281  10.506   7.950
 6349POPC   C4A40278  25.289  10.507   7.650
 6349POPC   C1B40279  25.442  10.677   8.550
 6349POPC   C2B40280  25.423  10.662   8.250
 6349POPC   C3B40281  25.445  10.697   7.950
 6349POPC   C4B40282  25.486  10.632   7.650
 6350POPC   NC340283  28.382  40.737   9.450
 6350POPC   PO440284  28.383  40.733   9.150
 6350POPC   GL140285  28.393  40.832   8.850
 6350POPC   GL240286  28.483  40.634   8.850
 6350POPC   C1A40287  28.372  40.827   8.550
 6350POPC   D2A40288  28.376  40.801   8.250
 6350POPC   C3A40289  28.329  40.785   7.950
 6350POPC   C4A40290  28.380  40.798   7.650
 6350POPC   C1B40291  28.539  40.536   8.550
 6350POPC   C2B40292  28.471  40.588   8.250
 6350POPC   C3B40293  28.556  40.590   7.950
 6350POPC   C4B40294  28.504  40.566   7.650
 6351POPC   NC340295  44.658  12.095   9.450
 6351POPC   PO440296  44.646  12.033   9.150
 6351POPC   GL140297  44.651  12.076   8.850
 6351POPC   GL240298  44.533  11.977   8.850
 6351POPC   C1A40299  44.648  12.070   8.550
 6351POPC   D2A40300  44.672  12.067   8.250
 6351POPC   C3A40301  44.659  12.086   7.950
 6351POPC   C4A40302  44.619  12.114   7.650
 6351POPC   C1B40303  44.466  11.861   8.550
 6351POPC   C2B40304  44.508  11.893   8.250
 6351POPC   C3B40305  44.517  11.890   7.950
 6351POPC   C4B40306  44.499  11.922   7.650
 6352POPC   NC340307  26.814  44.634   9.450
 6352POPC   PO440308  26.858  44.685   9.150
 6352POPC   GL140309  26.847  44.623   8.850
 6352POPC   GL240310  26.656  44.745   8.850
 6352POPC   C1A40311  26.769  44.640   8.550
 6352POPC   D2A40312  26.811  44.623   8.250
 6352POPC   C3A40313  26.818  44.624   7.950
 6352POPC   C4A40314  26.792  44.697   7.650
 6352POPC   C1B40315  26.530  44.759   8.550
 6352POPC   C2B40316  26.581  44.698   8.250
 6352POPC   C3B40317  26.571  44.703   7.950
 6352POPC   C4B40318  26.624  44.739   7.650
 6353POPC   NC340319  27.633  33.782   9.450
 6353POPC   PO440320  27.608  33.771   9.150
 6353POPC   GL140321  27.563  33.815   8.850
 6353POPC   GL240322  27.596  33.713   8.850
 6353POPC   C1A40323  27.553  33.841   8.550
 6353POPC   D2A40324  27.604  33.781   8.250
 6353POPC   C3A40325  27.582  33.773   7.950
 6353POPC   C4A40326  27.619  33.815   7.650
 6353POPC   C1B40327  27.610  33.592   8.550
 6353POPC   C2B40328  27.669  33.598   8.250
 6353POPC   C3B40329  27.662  33.522   7.950
 6353POPC   C4B40330  27.663  33.552   7.650
 6354POPC   NC340331  19.082  23.704   9.450
 6354POPC   PO440332  19.084  23.678   9.150
 6354POPC   GL140333  19.054  23.723   8.850
 6354POPC   GL240334  19.131  23.630   8.850
 6354POPC   C1A40335  19.089  23.664   8.550
 6354POPC   D2A40336  19.039  23.699   8.250
 6354POPC   C3A40337  19.097  23.675   7.950
 6354POPC   C4A40338  19.088  23.704   7.650
 6354POPC   C1B40339  19.322  23.664   8.550
 6354POPC   C2B40340  19.279  23.592   8.250
 6354POPC   C3B40341  19.290  23.672   7.950
 6354POPC   C4B40342  19.322  23.666   7.650
 6355POPC   NC340343  40.773  16.765   9.450
 6355POPC   PO440344  40.828  16.714   9.150
 6355POPC   GL140345  40.799  16.779   8.850
 6355POPC   GL240346  40.738  16.645   8.850
 6355POPC   C1A40347  40.766  16.764   8.550
 6355POPC   D2A40348  40.740  16.711   8.250
 6355POPC   C3A40349  40.776  16.727   7.950
 6355POPC   C4A40350  40.742  16.752   7.650
 6355POPC   C1B40351  40.681  16.526   8.550
 6355POPC   C2B40352  40.723  16.473   8.250
 6355POPC   C3B40353  40.676  16.481   7.950
 6355POPC   C4B40354  40.700  16.484   7.650
 6356POPC   NC340355   4.353  24.537   9.450
 6356POPC   PO440356   4.308  24.509   9.150
 6356POPC   GL140357   4.349  24.477   8.850
 6356POPC   GL240358   4.234  24.362   8.850
 6356POPC   C1A40359   4.289  24.478   8.550
 6356POPC   D2A40360   4.363  24.479   8.250
 6356POPC   C3A40361   4.352  24.448   7.950
 6356POPC   C4A40362   4.347  24.491   7.650
 6356POPC   C1B40363   4.216  24.242   8.550
 6356POPC   C2B40364   4.249  24.225   8.250
 6356POPC   C3B40365   4.229  24.256   7.950
 6356POPC   C4B40366   4.289  24.219   7.650
 6357POPC   NC340367  10.524   2.725   9.450
 6357POPC   PO440368  10.498   2.807   9.150
 6357POPC   GL140369  10.484   2.753   8.850
 6357POPC   GL240370  10.694   2.744   8.850
 6357POPC   C1A40371  10.546   2.766   8.550
 6357POPC   D2A40372  10.550   2.782   8.250
 6357POPC   C3A40373  10.475   2.798   7.950
 6357POPC   C4A40374  10.481   2.723   7.650
 6357POPC   C1B40375  10.820   2.758   8.550
 6357POPC   C2B40376  10.816   2.720   8.250
 6357POPC   C3B40377  10.744   2.737   7.950
 6357POPC   C4B40378  10.755   2.726   7.650
 6358POPC   NC340379  33.012   6.628   9.450
 6358POPC   PO440380  32.980   6.620   9.150
 6358POPC   GL140381  33.073   6.613   8.850
 6358POPC   GL240382  33.106   6.773   8.850
 6358POPC   C1A40383  32.993   6.636   8.550
 6358POPC   D2A40384  33.054   6.642   8.250
 6358POPC   C3A40385  33.029   6.663   7.950
 6358POPC   C4A40386  33.065   6.676   7.650
 6358POPC   C1B40387  33.184   6.818   8.550
 6358POPC   C2B40388  33.202   6.851   8.250
 6358POPC   C3B40389  33.111   6.882   7.950
 6358POPC   C4B40390  33.202   6.906   7.650
 6359POPC   NC340391  17.520   7.468   9.450
 6359POPC   PO440392  17.479   7.422   9.150
 6359POPC   GL140393  17.534   7.392   8.850
 6359POPC   GL240394  17.640   7.380   8.850
 6359POPC   C1A40395  17.460   7.440   8.550
 6359POPC   D2A40396  17.510   7.427   8.250
 6359POPC   C3A40397  17.555   7.417   7.950
 6359POPC   C4A40398  17.466   7.430   7.650
 6359POPC   C1B40399  17.736   7.308   8.550
 6359POPC   C2B40400  17.782   7.359   8.250
 6359POPC   C3B40401  17.775   7.266   7.950
 6359POPC   C4B40402  17.736   7.328   7.650
 6360POPC   NC340403  44.625  25.277   9.450
 6360POPC   PO440404  44.613  25.226   9.150
 6360POPC   GL140405  44.676  25.294   8.850
 6360POPC   GL240406  44.743  25.147   8.850
 6360POPC   C1A40407  44.618  25.276   8.550
 6360POPC   D2A40408  44.674  25.280   8.250
 6360POPC   C3A40409  44.678  25.262   7.950
 6360POPC   C4A40410  44.622  25.265   7.650
 6360POPC   C1B40411  44.773  25.043   8.550
 6360POPC   C2B40412  44.827  25.076   8.250
 6360POPC   C3B40413  44.771  25.084   7.950
 6360POPC   C4B40414  44.772  25.065   7.650
 6361POPC   NC340415  41.536   9.708   9.450
 6361POPC   PO440416  41.564   9.792   9.150
 6361POPC   GL140417  41.568   9.703   8.850
 6361POPC   GL240418  41.562   9.842   8.850
 6361POPC   C1A40419  41.576   9.704   8.550
 6361POPC   D2A40420  41.588   9.718   8.250
 6361POPC   C3A40421  41.600   9.701   7.950
 6361POPC   C4A40422  41.559   9.783   7.650
 6361POPC   C1B40423  41.506  10.007   8.550
 6361POPC   C2B40424  41.554   9.987   8.250
 6361POPC   C3B40425  41.506   9.951   7.950
 6361POPC   C4B40426  41.509   9.972   7.650
 6362POPC   NC340427  20.627  38.431   9.450
 6362POPC   PO440428  20.648  38.503   9.150
 6362POPC   GL140429  20.605  38.412   8.850
 6362POPC   GL240430  20.518  38.500   8.850
 6362POPC   C1A40431  20.601  38.483   8.550
 6362POPC   D2A40432  20.561  38.423   8.250
 6362POPC   C3A40433  20.646  38.417   7.950
 6362POPC   C4A40434  20.642  38.480   7.650
 6362POPC   C1B40435  20.333  38.551   8.550
 6362POPC   C2B40436  20.344  38.541   8.250
 6362POPC   C3B40437  20.372  38.507   7.950
 6362POPC   C4B40438  20.411  38.562   7.650
 6363POPC   NC340439   9.753   9.016   9.450
 6363POPC   PO440440   9.790   8.937   9.150
 6363POPC   GL140441   9.710   8.950   8.850
 6363POPC   GL240442   9.636   8.946   8.850
 6363POPC   C1A40443   9.796   8.953   8.550
 6363POPC   D2A40444   9.760   8.944   8.250
 6363POPC   C3A40445   9.731   8.987   7.950
 6363POPC   C4A40446   9.711   9.004   7.650
 6363POPC   C1B40447   9.497   8.992   8.550
 6363POPC   C2B40448   9.514   8.949   8.250
 6363POPC   C3B40449   9.457   8.970   7.950
 6363POPC   C4B40450   9.475   8.930   7.650
 6364POPC   NC340451  40.019  40.774   9.450
 6364POPC   PO440452  40.042  40.757   9.150
 6364POPC   GL140453  39.999  40.788   8.850
 6364POPC   GL240454  39.950  40.893   8.850
 6364POPC   C1A40455  40.052  40.743   8.550
 6364POPC   D2A40456  40.017  40.805   8.250
 6364POPC   C3A40457  40.024  40.792   7.950
 6364POPC   C4A40458  40.000  40.741   7.650
 6364POPC   C1B40459  39.830  40.929   8.550
 6364POPC   C2B40460  39.829  40.926   8.250
 6364POPC   C3B40461  39.821  40.956   7.950
 6364POPC   C4B40462  39.801  40.932   7.650
 6365POPC   NC340463  20.597   8.926   9.450
 6365POPC   PO440464  20.605   8.989   9.150
 6365POPC   GL140465  20.605   8.937   8.850
 6365POPC   GL240466  20.634   9.054   8.850
 6365POPC   C1A40467  20.659   8.989   8.550
 6365POPC   D2A40468  20.653   8.923   8.250
 6365POPC   C3A40469  20.605   8.999   7.950
 6365POPC   C4A40470  20.582   8.955   7.650
 6365POPC   C1B40471  20.669   9.237   8.550
 6365POPC   C2B40472  20.675   9.231   8.250
 6365POPC   C3B40473  20.742   9.234   7.950
 6365POPC   C4B40474  20.733   9.217   7.650
 6366POPC   NC340475  34.544  17.546   9.450
 6366POPC   PO440476  34.581  17.556   9.150
 6366POPC   GL140477  34.538  17.473   8.850
 6366POPC   GL240478  34.419  17.439   8.850
 6366POPC   C1A40479  34.601  17.507   8.550
 6366POPC   D2A40480  34.565  17.523   8.250
 6366POPC   C3A40481  34.529  17.459   7.950
 6366POPC   C4A40482  34.615  17.504   7.650
 6366POPC   C1B40483  34.304  17.383   8.550
 6366POPC   C2B40484  34.326  17.431   8.250
 6366POPC   C3B40485  34.378  17.386   7.950
 6366POPC   C4B40486  34.323  17.446   7.650
 6367POPC   NC340487  41.529  17.502   9.450
 6367POPC   PO440488  41.572  17.537   9.150
 6367POPC   GL140489  41.586  17.458   8.850
 6367POPC   GL240490  41.632  17.407   8.850
 6367POPC   C1A40491  41.574  17.529   8.550
 6367POPC   D2A40492  41.591  17.491   8.250
 6367POPC   C3A40493  41.569  17.518   7.950
 6367POPC   C4A40494  41.580  17.495   7.650
 6367POPC   C1B40495  41.639  17.326   8.550
 6367POPC   C2B40496  41.714  17.299   8.250
 6367POPC   C3B40497  41.638  17.284   7.950
 6367POPC   C4B40498  41.667  17.262   7.650
 6368POPC   NC340499  25.308  22.964   9.450
 6368POPC   PO440500  25.294  22.960   9.150
 6368POPC   GL140501  25.274  22.934   8.850
 6368POPC   GL240502  25.206  23.043   8.850
 6368POPC   C1A40503  25.277  22.931   8.550
 6368POPC   D2A40504  25.248  22.924   8.250
 6368POPC   C3A40505  25.307  22.953   7.950
 6368POPC   C4A40506  25.239  22.939   7.650
 6368POPC   C1B40507  25.103  23.088   8.550
 6368POPC   C2B40508  25.086  23.056   8.250
 6368POPC   C3B40509  25.084  23.104   7.950
 6368POPC   C4B40510  25.062  23.023   7.650
 6369POPC   NC340511  33.019  37.679   9.450
 6369POPC   PO440512  33.018  37.706   9.150
 6369POPC   GL140513  32.979  37.658   8.850
 6369POPC   GL240514  32.948  37.635   8.850
 6369POPC   C1A40515  33.068  37.634   8.550
 6369POPC   D2A40516  32.978  37.702   8.250
 6369POPC   C3A40517  33.007  37.687   7.950
 6369POPC   C4A40518  33.030  37.722   7.650
 6369POPC   C1B40519  32.843  37.589   8.550
 6369POPC   C2B40520  32.792  37.506   8.250
 6369POPC   C3B40521  32.853  37.528   7.950
 6369POPC   C4B40522  32.788  37.541   7.650
 6370POPC   NC340523  12.808  40.043   9.450
 6370POPC   PO440524  12.810  39.972   9.150
 6370POPC   GL140525  12.882  40.055   8.850
 6370POPC   GL240526  12.801  39.838   8.850
 6370POPC   C1A40527  12.848  40.017   8.550
 6370POPC   D2A40528  12.815  39.999   8.250
 6370POPC   C3A40529  12.872  40.038   7.950
 6370POPC   C4A40530  12.817  40.043   7.650
 6370POPC   C1B40531  12.777  39.732   8.550
 6370POPC   C2B40532  12.832  39.766   8.250
 6370POPC   C3B40533  12.752  39.759   7.950
 6370POPC   C4B40534  12.788  39.787   7.650
 6371POPC   NC340535   4.356  14.421   9.450
 6371POPC   PO440536   4.311  14.391   9.150
 6371POPC   GL140537   4.325  14.375   8.850
 6371POPC   GL240538   4.237  14.409   8.850
 6371POPC   C1A40539   4.324  14.433   8.550
 6371POPC   D2A40540   4.314  14.407   8.250
 6371POPC   C3A40541   4.365  14.439   7.950
 6371POPC   C4A40542   4.277  14.420   7.650
 6371POPC   C1B40543   4.034  14.461   8.550
 6371POPC   C2B40544   4.050  14.431   8.250
 6371POPC   C3B40545   4.100  14.413   7.950
 6371POPC   C4B40546   4.039  14.485   7.650
 6372POPC   NC340547  44.702  33.804   9.450
 6372POPC   PO440548  44.647  33.805   9.150
 6372POPC   GL140549  44.695  33.808   8.850
 6372POPC   GL240550  44.666  33.681   8.850
 6372POPC   C1A40551  44.695  33.753   8.550
 6372POPC   D2A40552  44.673  33.768   8.250
 6372POPC   C3A40553  44.692  33.814   7.950
 6372POPC   C4A40554  44.708  33.796   7.650
 6372POPC   C1B40555  44.742  33.529   8.550
 6372POPC   C2B40556  44.763  33.521   8.250
 6372POPC   C3B40557  44.747  33.564   7.950
 6372POPC   C4B40558  44.753  33.590   7.650
 6373POPC   NC340559  17.508   9.018   9.450
 6373POPC   PO440560  17.513   9.021   9.150
 6373POPC   GL140561  17.457   8.966   8.850
 6373POPC   GL240562  17.605   9.004   8.850
 6373POPC   C1A40563  17.472   8.966   8.550
 6373POPC   D2A40564  17.529   8.966   8.250
 6373POPC   C3A40565  17.473   8.972   7.950
 6373POPC   C4A40566  17.506   8.986   7.650
 6373POPC   C1B40567  17.700   9.057   8.550
 6373POPC   C2B40568  17.700   9.066   8.250
 6373POPC   C3B40569  17.692   9.126   7.950
 6373POPC   C4B40570  17.769   9.061   7.650
 6374POPC   NC340571  27.546  19.038   9.450
 6374POPC   PO440572  27.543  19.051   9.150
 6374POPC   GL140573  27.550  19.071   8.850
 6374POPC   GL240574  27.531  18.918   8.850
 6374POPC   C1A40575  27.579  19.046   8.550
 6374POPC   D2A40576  27.636  19.028   8.250
 6374POPC   C3A40577  27.642  19.031   7.950
 6374POPC   C4A40578  27.611  19.066   7.650
 6374POPC   C1B40579  27.484  18.857   8.550
 6374POPC   C2B40580  27.489  18.859   8.250
 6374POPC   C3B40581  27.495  18.861   7.950
 6374POPC   C4B40582  27.477  18.819   7.650
 6375POPC   NC340583  33.849  36.157   9.450
 6375POPC   PO440584  33.850  36.086   9.150
 6375POPC   GL140585  33.791  36.136   8.850
 6375POPC   GL240586  33.861  36.024   8.850
 6375POPC   C1A40587  33.784  36.154   8.550
 6375POPC   D2A40588  33.821  36.142   8.250
 6375POPC   C3A40589  33.798  36.118   7.950
 6375POPC   C4A40590  33.842  36.157   7.650
 6375POPC   C1B40591  34.013  35.977   8.550
 6375POPC   C2B40592  33.992  35.971   8.250
 6375POPC   C3B40593  33.972  35.947   7.950
 6375POPC   C4B40594  33.952  35.979   7.650
 6376POPC   NC340595  29.911  33.798   9.450
 6376POPC   PO440596  29.876  33.823   9.150
 6376POPC   GL140597  29.906  33.789   8.850
 6376POPC   GL240598  29.839  33.771   8.850
 6376POPC   C1A40599  29.920  33.802   8.550
 6376POPC   D2A40600  29.970  33.756   8.250
 6376POPC   C3A40601  29.955  33.762   7.950
 6376POPC   C4A40602  29.872  33.780   7.650
 6376POPC   C1B40603  29.633  33.743   8.550
 6376POPC   C2B40604  29.668  33.745   8.250
 6376POPC   C3B40605  29.663  33.720   7.950
 6376POPC   C4B40606  29.648  33.713   7.650
 6377POPC   NC340607  41.594  39.252   9.450
 6377POPC   PO440608  41.567  39.202   9.150
 6377POPC   GL140609  41.603  39.221   8.850
 6377POPC   GL240610  41.688  39.245   8.850
 6377POPC   C1A40611  41.607  39.263   8.550
 6377POPC   D2A40612  41.554  39.263   8.250
 6377POPC   C3A40613  41.560  39.259   7.950
 6377POPC   C4A40614  41.523  39.187   7.650
 6377POPC   C1B40615  41.727  39.361   8.550
 6377POPC   C2B40616  41.794  39.389   8.250
 6377POPC   C3B40617  41.794  39.346   7.950
 6377POPC   C4B40618  41.786  39.394   7.650
 6378POPC   NC340619   5.142   3.510   9.450
 6378POPC   PO440620   5.077   3.514   9.150
 6378POPC   GL140621   5.074   3.580   8.850
 6378POPC   GL240622   5.209   3.446   8.850
 6378POPC   C1A40623   5.115   3.522   8.550
 6378POPC   D2A40624   5.060   3.563   8.250
 6378POPC   C3A40625   5.102   3.570   7.950
 6378POPC   C4A40626   5.097   3.549   7.650
 6378POPC   C1B40627   5.253   3.340   8.550
 6378POPC   C2B40628   5.232   3.394   8.250
 6378POPC   C3B40629   5.329   3.417   7.950
 6378POPC   C4B40630   5.289   3.364   7.650
 6379POPC   NC340631   5.065  13.628   9.450
 6379POPC   PO440632   5.102  13.667   9.150
 6379POPC   GL140633   5.086  13.583   8.850
 6379POPC   GL240634   4.951  13.697   8.850
 6379POPC   C1A40635   5.059  13.641   8.550
 6379POPC   D2A40636   5.089  13.591   8.250
 6379POPC   C3A40637   5.070  13.613   7.950
 6379POPC   C4A40638   5.126  13.605   7.650
 6379POPC   C1B40639   4.878  13.715   8.550
 6379POPC   C2B40640   4.863  13.702   8.250
 6379POPC   C3B40641   4.863  13.740   7.950
 6379POPC   C4B40642   4.864  13.694   7.650
 6380POPC   NC340643  40.018  21.397   9.450
 6380POPC   PO440644  40.041  21.412   9.150
 6380POPC   GL140645  39.967  21.407   8.850
 6380POPC   GL240646  40.063  21.301   8.850
 6380POPC   C1A40647  39.995  21.353   8.550
 6380POPC   D2A40648  40.055  21.372   8.250
 6380POPC   C3A40649  40.037  21.352   7.950
 6380POPC   C4A40650  39.971  21.379   7.650
 6380POPC   C1B40651  40.161  21.170   8.550
 6380POPC   C2B40652  40.153  21.206   8.250
 6380POPC   C3B40653  40.141  21.161   7.950
 6380POPC   C4B40654  40.108  21.211   7.650
 6381POPC   NC340655   8.210  14.396   9.450
 6381POPC   PO440656   8.218  14.400   9.150
 6381POPC   GL140657   8.211  14.408   8.850
 6381POPC   GL240658   8.203  14.566   8.850
 6381POPC   C1A40659   8.160  14.418   8.550
 6381POPC   D2A40660   8.159  14.420   8.250
 6381POPC   C3A40661   8.192  14.363   7.950
 6381POPC   C4A40662   8.165  14.450   7.650
 6381POPC   C1B40663   8.276  14.619   8.550
 6381POPC   C2B40664   8.241  14.661   8.250
 6381POPC   C3B40665   8.238  14.635   7.950
 6381POPC   C4B40666   8.288  14.605   7.650
 6382POPC   NC340667  36.105   9.702   9.450
 6382POPC   PO440668  36.118   9.733   9.150
 6382POPC   GL140669  36.175   9.784   8.850
 6382POPC   GL240670  35.998   9.675   8.850
 6382POPC   C1A40671  36.170   9.755   8.550
 6382POPC   D2A40672  36.102   9.777   8.250
 6382POPC   C3A40673  36.151   9.753   7.950
 6382POPC   C4A40674  36.088   9.724   7.650
 6382POPC   C1B40675  35.918   9.601   8.550
 6382POPC   C2B40676  35.905   9.588   8.250
 6382POPC   C3B40677  35.882   9.614   7.950
 6382POPC   C4B40678  35.941   9.621   7.650
 6383POPC   NC340679   1.948  12.094   9.450
 6383POPC   PO440680   2.004  12.069   9.150
 6383POPC   GL140681   2.003  12.117   8.850
 6383POPC   GL240682   2.063  12.008   8.850
 6383POPC   C1A40683   2.032  12.082   8.550
 6383POPC   D2A40684   2.021  12.073   8.250
 6383POPC   C3A40685   2.008  12.048   7.950
 6383POPC   C4A40686   1.969  12.103   7.650
 6383POPC   C1B40687   2.060  11.828   8.550
 6383POPC   C2B40688   2.117  11.853   8.250
 6383POPC   C3B40689   2.038  11.857   7.950
 6383POPC   C4B40690   2.035  11.808   7.650
 6384POPC   NC340691  15.995  32.231   9.450
 6384POPC   PO440692  15.934  32.231   9.150
 6384POPC   GL140693  15.921  32.231   8.850
 6384POPC   GL240694  16.087  32.283   8.850
 6384POPC   C1A40695  15.910  32.204   8.550
 6384POPC   D2A40696  15.940  32.210   8.250
 6384POPC   C3A40697  16.001  32.267   7.950
 6384POPC   C4A40698  15.980  32.218   7.650
 6384POPC   C1B40699  16.128  32.463   8.550
 6384POPC   C2B40700  16.124  32.367   8.250
 6384POPC   C3B40701  16.176  32.389   7.950
 6384POPC   C4B40702  16.145  32.419   7.650
 6385POPC   NC340703   1.221  17.511   9.450
 6385POPC   PO440704   1.201  17.482   9.150
 6385POPC   GL140705   1.200  17.495   8.850
 6385POPC   GL240706   1.326  17.518   8.850
 6385POPC   C1A40707   1.206  17.472   8.550
 6385POPC   D2A40708   1.232  17.551   8.250
 6385POPC   C3A40709   1.261  17.464   7.950
 6385POPC   C4A40710   1.263  17.460   7.650
 6385POPC   C1B40711   1.430  17.569   8.550
 6385POPC   C2B40712   1.455  17.579   8.250
 6385POPC   C3B40713   1.474  17.657   7.950
 6385POPC   C4B40714   1.466  17.631   7.650
 6386POPC   NC340715  20.599  32.202   9.450
 6386POPC   PO440716  20.606  32.287   9.150
 6386POPC   GL140717  20.637  32.199   8.850
 6386POPC   GL240718  20.725  32.197   8.850
 6386POPC   C1A40719  20.589  32.278   8.550
 6386POPC   D2A40720  20.651  32.283   8.250
 6386POPC   C3A40721  20.603  32.224   7.950
 6386POPC   C4A40722  20.575  32.235   7.650
 6386POPC   C1B40723  20.828  32.145   8.550
 6386POPC   C2B40724  20.849  32.131   8.250
 6386POPC   C3B40725  20.861  32.083   7.950
 6386POPC   C4B40726  20.836  32.088   7.650
 6387POPC   NC340727  25.219  43.078   9.450
 6387POPC   PO440728  25.223  43.141   9.150
 6387POPC   GL140729  25.254  43.085   8.850
 6387POPC   GL240730  25.243  43.266   8.850
 6387POPC   C1A40731  25.249  43.072   8.550
 6387POPC   D2A40732  25.244  43.081   8.250
 6387POPC   C3A40733  25.217  43.147   7.950
 6387POPC   C4A40734  25.309  43.081   7.650
 6387POPC   C1B40735  25.172  43.372   8.550
 6387POPC   C2B40736  25.116  43.310   8.250
 6387POPC   C3B40737  25.114  43.361   7.950
 6387POPC   C4B40738  25.157  43.294   7.650
 6388POPC   NC340739  29.895  23.746   9.450
 6388POPC   PO440740  29.871  23.762   9.150
 6388POPC   GL140741  29.892  23.722   8.850
 6388POPC   GL240742  29.882  23.810   8.850
 6388POPC   C1A40743  29.874  23.686   8.550
 6388POPC   D2A40744  29.875  23.762   8.250
 6388POPC   C3A40745  29.925  23.676   7.950
 6388POPC   C4A40746  29.908  23.727   7.650
 6388POPC   C1B40747  29.883  23.922   8.550
 6388POPC   C2B40748  29.911  23.958   8.250
 6388POPC   C3B40749  29.921  23.956   7.950
 6388POPC   C4B40750  29.939  23.982   7.650
 6389POPC   NC340751  12.054  40.024   9.450
 6389POPC   PO440752  12.061  40.025   9.150
 6389POPC   GL140753  12.085  40.030   8.850
 6389POPC   GL240754  12.050  39.852   8.850
 6389POPC   C1A40755  12.104  40.045   8.550
 6389POPC   D2A40756  12.112  40.052   8.250
 6389POPC   C3A40757  12.042  39.980   7.950
 6389POPC   C4A40758  12.075  39.973   7.650
 6389POPC   C1B40759  11.932  39.819   8.550
 6389POPC   C2B40760  11.963  39.789   8.250
 6389POPC   C3B40761  11.926  39.821   7.950
 6389POPC   C4B40762  11.948  39.786   7.650
 6390POPC   NC340763  18.326   7.466   9.450
 6390POPC   PO440764  18.311   7.444   9.150
 6390POPC   GL140765  18.286   7.412   8.850
 6390POPC   GL240766  18.202   7.543   8.850
 6390POPC   C1A40767  18.299   7.449   8.550
 6390POPC   D2A40768  18.291   7.447   8.250
 6390POPC   C3A40769  18.260   7.404   7.950
 6390POPC   C4A40770  18.243   7.457   7.650
 6390POPC   C1B40771  18.244   7.635   8.550
 6390POPC   C2B40772  18.163   7.672   8.250
 6390POPC   C3B40773  18.182   7.691   7.950
 6390POPC   C4B40774  18.235   7.638   7.650
 6391POPC   NC340775  21.360  17.545   9.450
 6391POPC   PO440776  21.427  17.519   9.150
 6391POPC   GL140777  21.403  17.474   8.850
 6391POPC   GL240778  21.494  17.649   8.850
 6391POPC   C1A40779  21.359  17.531   8.550
 6391POPC   D2A40780  21.406  17.531   8.250
 6391POPC   C3A40781  21.400  17.521   7.950
 6391POPC   C4A40782  21.425  17.515   7.650
 6391POPC   C1B40783  21.473  17.759   8.550
 6391POPC   C2B40784  21.542  17.754   8.250
 6391POPC   C3B40785  21.527  17.682   7.950
 6391POPC   C4B40786  21.538  17.743   7.650
 6392POPC   NC340787  30.737   5.124   9.450
 6392POPC   PO440788  30.680   5.076   9.150
 6392POPC   GL140789  30.689   5.120   8.850
 6392POPC   GL240790  30.614   5.079   8.850
 6392POPC   C1A40791  30.666   5.121   8.550
 6392POPC   D2A40792  30.693   5.126   8.250
 6392POPC   C3A40793  30.662   5.077   7.950
 6392POPC   C4A40794  30.711   5.094   7.650
 6392POPC   C1B40795  30.489   4.980   8.550
 6392POPC   C2B40796  30.453   5.001   8.250
 6392POPC   C3B40797  30.461   4.996   7.950
 6392POPC   C4B40798  30.506   5.004   7.650
 6393POPC   NC340799  39.226  19.869   9.450
 6393POPC   PO440800  39.205  19.847   9.150
 6393POPC   GL140801  39.235  19.848   8.850
 6393POPC   GL240802  39.290  19.734   8.850
 6393POPC   C1A40803  39.199  19.819   8.550
 6393POPC   D2A40804  39.215  19.858   8.250
 6393POPC   C3A40805  39.207  19.847   7.950
 6393POPC   C4A40806  39.266  19.857   7.650
 6393POPC   C1B40807  39.382  19.667   8.550
 6393POPC   C2B40808  39.394  19.685   8.250
 6393POPC   C3B40809  39.357  19.615   7.950
 6393POPC   C4B40810  39.390  19.664   7.650
 6394POPC   NC340811  33.803   3.548   9.450
 6394POPC   PO440812  33.758   3.537   9.150
 6394POPC   GL140813  33.755   3.532   8.850
 6394POPC   GL240814  33.841   3.626   8.850
 6394POPC   C1A40815  33.833   3.545   8.550
 6394POPC   D2A40816  33.778   3.500   8.250
 6394POPC   C3A40817  33.802   3.583   7.950
 6394POPC   C4A40818  33.813   3.566   7.650
 6394POPC   C1B40819  33.859   3.744   8.550
 6394POPC   C2B40820  33.859   3.760   8.250
 6394POPC   C3B40821  33.852   3.811   7.950
 6394POPC   C4B40822  33.912   3.784   7.650
 6395POPC   NC340823   7.392  43.110   9.450
 6395POPC   PO440824   7.414  43.098   9.150
 6395POPC   GL140825   7.433  43.123   8.850
 6395POPC   GL240826   7.449  43.009   8.850
 6395POPC   C1A40827   7.413  43.150   8.550
 6395POPC   D2A40828   7.393  43.107   8.250
 6395POPC   C3A40829   7.467  43.089   7.950
 6395POPC   C4A40830   7.394  43.144   7.650
 6395POPC   C1B40831   7.471  42.834   8.550
 6395POPC   C2B40832   7.509  42.881   8.250
 6395POPC   C3B40833   7.505  42.828   7.950
 6395POPC   C4B40834   7.472  42.913   7.650
 6396POPC   NC340835  22.187  33.053   9.450
 6396POPC   PO440836  22.195  33.005   9.150
 6396POPC   GL140837  22.135  33.047   8.850
 6396POPC   GL240838  22.207  32.962   8.850
 6396POPC   C1A40839  22.154  33.069   8.550
 6396POPC   D2A40840  22.173  33.000   8.250
 6396POPC   C3A40841  22.192  33.057   7.950
 6396POPC   C4A40842  22.207  33.033   7.650
 6396POPC   C1B40843  22.318  32.786   8.550
 6396POPC   C2B40844  22.319  32.821   8.250
 6396POPC   C3B40845  22.300  32.851   7.950
 6396POPC   C4B40846  22.303  32.795   7.650
 6397POPC   NC340847  27.579  42.354   9.450
 6397POPC   PO440848  27.623  42.303   9.150
 6397POPC   GL140849  27.607  42.322   8.850
 6397POPC   GL240850  27.648  42.216   8.850
 6397POPC   C1A40851  27.610  42.288   8.550
 6397POPC   D2A40852  27.545  42.370   8.250
 6397POPC   C3A40853  27.554  42.374   7.950
 6397POPC   C4A40854  27.638  42.329   7.650
 6397POPC   C1B40855  27.672  42.120   8.550
 6397POPC   C2B40856  27.706  42.147   8.250
 6397POPC   C3B40857  27.690  42.155   7.950
 6397POPC   C4B40858  27.766  42.088   7.650
 6398POPC   NC340859  39.991  39.226   9.450
 6398POPC   PO440860  40.053  39.261   9.150
 6398POPC   GL140861  40.032  39.210   8.850
 6398POPC   GL240862  39.865  39.178   8.850
 6398POPC   C1A40863  40.004  39.221   8.550
 6398POPC   D2A40864  40.005  39.278   8.250
 6398POPC   C3A40865  40.045  39.188   7.950
 6398POPC   C4A40866  39.957  39.196   7.650
 6398POPC   C1B40867  39.799  39.039   8.550
 6398POPC   C2B40868  39.826  39.092   8.250
 6398POPC   C3B40869  39.798  39.035   7.950
 6398POPC   C4B40870  39.799  39.083   7.650
 6399POPC   NC340871  40.814  43.158   9.450
 6399POPC   PO440872  40.767  43.065   9.150
 6399POPC   GL140873  40.766  43.124   8.850
 6399POPC   GL240874  40.744  42.997   8.850
 6399POPC   C1A40875  40.775  43.087   8.550
 6399POPC   D2A40876  40.755  43.100   8.250
 6399POPC   C3A40877  40.754  43.097   7.950
 6399POPC   C4A40878  40.795  43.109   7.650
 6399POPC   C1B40879  40.788  42.882   8.550
 6399POPC   C2B40880  40.750  42.858   8.250
 6399POPC   C3B40881  40.765  42.831   7.950
 6399POPC   C4B40882  40.826  42.812   7.650
 6400POPC   NC340883  14.371  27.608   9.450
 6400POPC   PO440884  14.395  27.544   9.150
 6400POPC   GL140885  14.452  27.576   8.850
 6400POPC   GL240886  14.451  27.546   8.850
 6400POPC   C1A40887  14.434  27.619   8.550
 6400POPC   D2A40888  14.424  27.563   8.250
 6400POPC   C3A40889  14.415  27.602   7.950
 6400POPC   C4A40890  14.364  27.553   7.650
 6400POPC   C1B40891  14.605  27.389   8.550
 6400POPC   C2B40892  14.593  27.435   8.250
 6400POPC   C3B40893  14.589  27.414   7.950
 6400POPC   C4B40894  14.601  27.419   7.650
 6401POPC   NC340895  23.696  28.387   9.450
 6401POPC   PO440896  23.704  28.326   9.150
 6401POPC   GL140897  23.715  28.403   8.850
 6401POPC   GL240898  23.645  28.297   8.850
 6401POPC   C1A40899  23.720  28.333   8.550
 6401POPC   D2A40900  23.680  28.380   8.250
 6401POPC   C3A40901  23.683  28.329   7.950
 6401POPC   C4A40902  23.755  28.320   7.650
 6401POPC   C1B40903  23.488  28.284   8.550
 6401POPC   C2B40904  23.461  28.236   8.250
 6401POPC   C3B40905  23.467  28.263   7.950
 6401POPC   C4B40906  23.516  28.307   7.650
 6402POPC   NC340907   1.992  44.657   9.450
 6402POPC   PO440908   1.945  44.697   9.150
 6402POPC   GL140909   2.031  44.694   8.850
 6402POPC   GL240910   2.073  44.616   8.850
 6402POPC   C1A40911   1.965  44.699   8.550
 6402POPC   D2A40912   1.989  44.664   8.250
 6402POPC   C3A40913   2.015  44.658   7.950
 6402POPC   C4A40914   1.973  44.696   7.650
 6402POPC   C1B40915   2.262  44.573   8.550
 6402POPC   C2B40916   2.221  44.539   8.250
 6402POPC   C3B40917   2.191  44.615   7.950
 6402POPC   C4B40918   2.225  44.587   7.650
 6403POPC   NC340919   3.563  32.976   9.450
 6403POPC   PO440920   3.533  33.015   9.150
 6403POPC   GL140921   3.576  33.006   8.850
 6403POPC   GL240922   3.677  32.973   8.850
 6403POPC   C1A40923   3.559  33.051   8.550
 6403POPC   D2A40924   3.495  33.055   8.250
 6403POPC   C3A40925   3.518  33.007   7.950
 6403POPC   C4A40926   3.552  33.065   7.650
 6403POPC   C1B40927   3.774  32.912   8.550
 6403POPC   C2B40928   3.748  32.971   8.250
 6403POPC   C3B40929   3.827  32.963   7.950
 6403POPC   C4B40930   3.767  32.942   7.650
 6404POPC   NC340931  16.686   2.733   9.450
 6404POPC   PO440932  16.731   2.741   9.150
 6404POPC   GL140933  16.757   2.744   8.850
 6404POPC   GL240934  16.818   2.875   8.850
 6404POPC   C1A40935  16.780   2.784   8.550
 6404POPC   D2A40936  16.737   2.777   8.250
 6404POPC   C3A40937  16.696   2.799   7.950
 6404POPC   C4A40938  16.682   2.815   7.650
 6404POPC   C1B40939  16.817   3.013   8.550
 6404POPC   C2B40940  16.850   2.998   8.250
 6404POPC   C3B40941  16.871   2.959   7.950
 6404POPC   C4B40942  16.818   2.979   7.650
 6405POPC   NC340943  11.334  32.991   9.450
 6405POPC   PO440944  11.326  32.997   9.150
 6405POPC   GL140945  11.293  33.010   8.850
 6405POPC   GL240946  11.214  33.100   8.850
 6405POPC   C1A40947  11.274  32.990   8.550
 6405POPC   D2A40948  11.340  33.042   8.250
 6405POPC   C3A40949  11.262  32.988   7.950
 6405POPC   C4A40950  11.300  33.022   7.650
 6405POPC   C1B40951  11.105  33.088   8.550
 6405POPC   C2B40952  11.090  33.083   8.250
 6405POPC   C3B40953  11.104  33.140   7.950
 6405POPC   C4B40954  11.081  33.157   7.650
 6406POPC   NC340955   4.302  32.985   9.450
 6406POPC   PO440956   4.305  33.010   9.150
 6406POPC   GL140957   4.353  33.067   8.850
 6406POPC   GL240958   4.245  32.866   8.850
 6406POPC   C1A40959   4.314  33.072   8.550
 6406POPC   D2A40960   4.360  33.028   8.250
 6406POPC   C3A40961   4.290  32.996   7.950
 6406POPC   C4A40962   4.289  33.009   7.650
 6406POPC   C1B40963   4.290  32.800   8.550
 6406POPC   C2B40964   4.247  32.813   8.250
 6406POPC   C3B40965   4.253  32.774   7.950
 6406POPC   C4B40966   4.273  32.827   7.650
 6407POPC   NC340967  43.918  26.858   9.450
 6407POPC   PO440968  43.928  26.796   9.150
 6407POPC   GL140969  43.890  26.781   8.850
 6407POPC   GL240970  43.924  26.648   8.850
 6407POPC   C1A40971  43.921  26.822   8.550
 6407POPC   D2A40972  43.880  26.786   8.250
 6407POPC   C3A40973  43.915  26.835   7.950
 6407POPC   C4A40974  43.878  26.839   7.650
 6407POPC   C1B40975  43.904  26.520   8.550
 6407POPC   C2B40976  43.872  26.562   8.250
 6407POPC   C3B40977  43.876  26.596   7.950
 6407POPC   C4B40978  43.911  26.587   7.650
 6408POPC   NC340979  24.468  43.840   9.450
 6408POPC   PO440980  24.529  43.847   9.150
 6408POPC   GL140981  24.487  43.882   8.850
 6408POPC   GL240982  24.586  43.847   8.850
 6408POPC   C1A40983  24.488  43.918   8.550
 6408POPC   D2A40984  24.507  43.870   8.250
 6408POPC   C3A40985  24.535  43.889   7.950
 6408POPC   C4A40986  24.528  43.841   7.650
 6408POPC   C1B40987  24.708  43.764   8.550
 6408POPC   C2B40988  24.671  43.770   8.250
 6408POPC   C3B40989  24.690  43.774   7.950
 6408POPC   C4B40990  24.675  43.813   7.650
 6409POPC   NC340991  24.468   2.775   9.450
 6409POPC   PO440992  24.524   2.745   9.150
 6409POPC   GL140993  24.511   2.736   8.850
 6409POPC   GL240994  24.519   2.603   8.850
 6409POPC   C1A40995  24.478   2.718   8.550
 6409POPC   D2A40996  24.539   2.789   8.250
 6409POPC   C3A40997  24.487   2.807   7.950
 6409POPC   C4A40998  24.491   2.764   7.650
 6409POPC   C1B40999  24.514   2.494   8.550
 6409POPC   C2B41000  24.491   2.507   8.250
 6409POPC   C3B41001  24.557   2.566   7.950
 6409POPC   C4B41002  24.482   2.536   7.650
 6410POPC   NC341003  43.844   2.005   9.450
 6410POPC   PO441004  43.855   1.976   9.150
 6410POPC   GL141005  43.894   2.006   8.850
 6410POPC   GL241006  43.905   2.119   8.850
 6410POPC   C1A41007  43.897   2.004   8.550
 6410POPC   D2A41008  43.881   1.941   8.250
 6410POPC   C3A41009  43.878   1.969   7.950
 6410POPC   C4A41010  43.858   2.003   7.650
 6410POPC   C1B41011  44.048   2.163   8.550
 6410POPC   C2B41012  44.020   2.158   8.250
 6410POPC   C3B41013  43.964   2.183   7.950
 6410POPC   C4B41014  44.050   2.229   7.650
 6411POPC   NC341015   8.174  39.268   9.450
 6411POPC   PO441016   8.231  39.210   9.150
 6411POPC   GL141017   8.220  39.254   8.850
 6411POPC   GL241018   8.135  39.320   8.850
 6411POPC   C1A41019   8.179  39.278   8.550
 6411POPC   D2A41020   8.147  39.207   8.250
 6411POPC   C3A41021   8.204  39.206   7.950
 6411POPC   C4A41022   8.153  39.223   7.650
 6411POPC   C1B41023   8.134  39.481   8.550
 6411POPC   C2B41024   8.167  39.443   8.250
 6411POPC   C3B41025   8.167  39.518   7.950
 6411POPC   C4B41026   8.115  39.482   7.650
 6412POPC   NC341027  26.006  18.278   9.450
 6412POPC   PO441028  26.046  18.244   9.150
 6412POPC   GL141029  26.006  18.286   8.850
 6412POPC   GL241030  25.934  18.326   8.850
 6412POPC   C1A41031  26.082  18.300   8.550
 6412POPC   D2A41032  26.088  18.281   8.250
 6412POPC   C3A41033  26.035  18.305   7.950
 6412POPC   C4A41034  25.995  18.242   7.650
 6412POPC   C1B41035  25.800  18.328   8.550
 6412POPC   C2B41036  25.797  18.392   8.250
 6412POPC   C3B41037  25.846  18.341   7.950
 6412POPC   C4B41038  25.762  18.328   7.650
 6413POPC   NC341039  19.011   4.331   9.450
 6413POPC   PO441040  19.081   4.297   9.150
 6413POPC   GL141041  19.028   4.325   8.850
 6413POPC   GL241042  19.023   4.207   8.850
 6413POPC   C1A41043  19.106   4.305   8.550
 6413POPC   D2A41044  19.038   4.356   8.250
 6413POPC   C3A41045  19.101   4.332   7.950
 6413POPC   C4A41046  19.042   4.319   7.650
 6413POPC   C1B41047  18.924   4.128   8.550
 6413POPC   C2B41048  18.916   4.161   8.250
 6413POPC   C3B41049  18.923   4.118   7.950
 6413POPC   C4B41050  18.894   4.142   7.650
 6414POPC   NC341051   7.435  38.459   9.450
 6414POPC   PO441052   7.458  38.430   9.150
 6414POPC   GL141053   7.400  38.468   8.850
 6414POPC   GL241054   7.329  38.528   8.850
 6414POPC   C1A41055   7.417  38.459   8.550
 6414POPC   D2A41056   7.382  38.447   8.250
 6414POPC   C3A41057   7.461  38.406   7.950
 6414POPC   C4A41058   7.372  38.483   7.650
 6414POPC   C1B41059   7.130  38.552   8.550
 6414POPC   C2B41060   7.197  38.477   8.250
 6414POPC   C3B41061   7.221  38.530   7.950
 6414POPC   C4B41062   7.204  38.477   7.650
 6415POPC   NC341063  31.494  43.143   9.450
 6415POPC   PO441064  31.466  43.120   9.150
 6415POPC   GL141065  31.437  43.136   8.850
 6415POPC   GL241066  31.402  43.010   8.850
 6415POPC   C1A41067  31.516  43.074   8.550
 6415POPC   D2A41068  31.475  43.093   8.250
 6415POPC   C3A41069  31.474  43.112   7.950
 6415POPC   C4A41070  31.443  43.131   7.650
 6415POPC   C1B41071  31.229  42.979   8.550
 6415POPC   C2B41072  31.289  43.002   8.250
 6415POPC   C3B41073  31.250  42.998   7.950
 6415POPC   C4B41074  31.217  42.965   7.650
 6416POPC   NC341075  38.447   6.627   9.450
 6416POPC   PO441076  38.429   6.674   9.150
 6416POPC   GL141077  38.448   6.652   8.850
 6416POPC   GL241078  38.558   6.685   8.850
 6416POPC   C1A41079  38.453   6.608   8.550
 6416POPC   D2A41080  38.477   6.665   8.250
 6416POPC   C3A41081  38.495   6.666   7.950
 6416POPC   C4A41082  38.488   6.604   7.650
 6416POPC   C1B41083  38.694   6.733   8.550
 6416POPC   C2B41084  38.733   6.726   8.250
 6416POPC   C3B41085  38.743   6.657   7.950
 6416POPC   C4B41086  38.659   6.672   7.650
 6417POPC   NC341087  11.258   2.015   9.450
 6417POPC   PO441088  11.259   1.988   9.150
 6417POPC   GL141089  11.287   2.005   8.850
 6417POPC   GL241090  11.196   2.107   8.850
 6417POPC   C1A41091  11.334   2.038   8.550
 6417POPC   D2A41092  11.304   2.027   8.250
 6417POPC   C3A41093  11.302   2.008   7.950
 6417POPC   C4A41094  11.283   2.033   7.650
 6417POPC   C1B41095  11.156   2.155   8.550
 6417POPC   C2B41096  11.176   2.179   8.250
 6417POPC   C3B41097  11.152   2.207   7.950
 6417POPC   C4B41098  11.167   2.159   7.650
 6418POPC   NC341099   6.612  11.261   9.450
 6418POPC   PO441100   6.665  11.326   9.150
 6418POPC   GL141101   6.619  11.330   8.850
 6418POPC   GL241102   6.688  11.392   8.850
 6418POPC   C1A41103   6.596  11.349   8.550
 6418POPC   D2A41104   6.606  11.268   8.250
 6418POPC   C3A41105   6.671  11.345   7.950
 6418POPC   C4A41106   6.609  11.336   7.650
 6418POPC   C1B41107   6.785  11.482   8.550
 6418POPC   C2B41108   6.802  11.468   8.250
 6418POPC   C3B41109   6.777  11.514   7.950
 6418POPC   C4B41110   6.782  11.475   7.650
 6419POPC   NC341111  33.039  18.285   9.450
 6419POPC   PO441112  33.067  18.287   9.150
 6419POPC   GL141113  33.019  18.249   8.850
 6419POPC   GL241114  33.007  18.404   8.850
 6419POPC   C1A41115  33.032  18.311   8.550
 6419POPC   D2A41116  32.998  18.309   8.250
 6419POPC   C3A41117  33.068  18.329   7.950
 6419POPC   C4A41118  33.020  18.322   7.650
 6419POPC   C1B41119  32.897  18.552   8.550
 6419POPC   C2B41120  32.894  18.520   8.250
 6419POPC   C3B41121  32.895  18.490   7.950
 6419POPC   C4B41122  32.895  18.464   7.650
 6420POPC   NC341123  15.212  31.464   9.450
 6420POPC   PO441124  15.148  31.429   9.150
 6420POPC   GL141125  15.132  31.517   8.850
 6420POPC   GL241126  15.046  31.495   8.850
 6420POPC   C1A41127  15.186  31.468   8.550
 6420POPC   D2A41128  15.203  31.510   8.250
 6420POPC   C3A41129  15.131  31.501   7.950
 6420POPC   C4A41130  15.180  31.431   7.650
 6420POPC   C1B41131  14.982  31.632   8.550
 6420POPC   C2B41132  14.931  31.629   8.250
 6420POPC   C3B41133  14.929  31.594   7.950
 6420POPC   C4B41134  14.960  31.625   7.650
 6421POPC   NC341135  11.294   5.887   9.450
 6421POPC   PO441136  11.326   5.895   9.150
 6421POPC   GL141137  11.290   5.839   8.850
 6421POPC   GL241138  11.429   5.950   8.850
 6421POPC   C1A41139  11.326   5.882   8.550
 6421POPC   D2A41140  11.317   5.873   8.250
 6421POPC   C3A41141  11.280   5.853   7.950
 6421POPC   C4A41142  11.319   5.901   7.650
 6421POPC   C1B41143  11.536   6.054   8.550
 6421POPC   C2B41144  11.510   6.009   8.250
 6421POPC   C3B41145  11.517   6.024   7.950
 6421POPC   C4B41146  11.475   5.990   7.650
 6422POPC   NC341147  13.666   0.418   9.450
 6422POPC   PO441148  13.598   0.456   9.150
 6422POPC   GL141149  13.633   0.402   8.850
 6422POPC   GL241150  13.573   0.391   8.850
 6422POPC   C1A41151  13.634   0.450   8.550
 6422POPC   D2A41152  13.671   0.448   8.250
 6422POPC   C3A41153  13.584   0.478   7.950
 6422POPC   C4A41154  13.594   0.398   7.650
 6422POPC   C1B41155  13.455   0.240   8.550
 6422POPC   C2B41156  13.415   0.269   8.250
 6422POPC   C3B41157  13.411   0.245   7.950
 6422POPC   C4B41158  13.457   0.279   7.650
 6423POPC   NC341159  31.478   9.756   9.450
 6423POPC   PO441160  31.429   9.717   9.150
 6423POPC   GL141161  31.487   9.713   8.850
 6423POPC   GL241162  31.412   9.858   8.850
 6423POPC   C1A41163  31.475   9.722   8.550
 6423POPC   D2A41164  31.428   9.744   8.250
 6423POPC   C3A41165  31.467   9.751   7.950
 6423POPC   C4A41166  31.447   9.787   7.650
 6423POPC   C1B41167  31.421  10.037   8.550
 6423POPC   C2B41168  31.406   9.982   8.250
 6423POPC   C3B41169  31.451  10.009   7.950
 6423POPC   C4B41170  31.426   9.991   7.650
 6424POPC   NC341171  10.524  25.229   9.450
 6424POPC   PO441172  10.527  25.262   9.150
 6424POPC   GL141173  10.478  25.235   8.850
 6424POPC   GL241174  10.528  25.105   8.850
 6424POPC   C1A41175  10.506  25.294   8.550
 6424POPC   D2A41176  10.518  25.280   8.250
 6424POPC   C3A41177  10.486  25.220   7.950
 6424POPC   C4A41178  10.564  25.313   7.650
 6424POPC   C1B41179  10.448  25.078   8.550
 6424POPC   C2B41180  10.404  25.014   8.250
 6424POPC   C3B41181  10.469  25.044   7.950
 6424POPC   C4B41182  10.400  25.028   7.650
 6425POPC   NC341183   3.517  29.181   9.450
 6425POPC   PO441184   3.501  29.104   9.150
 6425POPC   GL141185   3.547  29.147   8.850
 6425POPC   GL241186   3.491  29.215   8.850
 6425POPC   C1A41187   3.511  29.104   8.550
 6425POPC   D2A41188   3.566  29.104   8.250
 6425POPC   C3A41189   3.560  29.111   7.950
 6425POPC   C4A41190   3.573  29.164   7.650
 6425POPC   C1B41191   3.423  29.343   8.550
 6425POPC   C2B41192   3.337  29.330   8.250
 6425POPC   C3B41193   3.344  29.314   7.950
 6425POPC   C4B41194   3.333  29.359   7.650
 6426POPC   NC341195  36.148  32.220   9.450
 6426POPC   PO441196  36.088  32.203   9.150
 6426POPC   GL141197  36.173  32.276   8.850
 6426POPC   GL241198  36.108  32.082   8.850
 6426POPC   C1A41199  36.104  32.256   8.550
 6426POPC   D2A41200  36.129  32.263   8.250
 6426POPC   C3A41201  36.089  32.296   7.950
 6426POPC   C4A41202  36.079  32.218   7.650
 6426POPC   C1B41203  36.076  31.970   8.550
 6426POPC   C2B41204  36.052  32.049   8.250
 6426POPC   C3B41205  36.036  31.973   7.950
 6426POPC   C4B41206  36.117  31.993   7.650
 6427POPC   NC341207  35.340   8.215   9.450
 6427POPC   PO441208  35.348   8.198   9.150
 6427POPC   GL141209  35.331   8.172   8.850
 6427POPC   GL241210  35.300   8.041   8.850
 6427POPC   C1A41211  35.348   8.185   8.550
 6427POPC   D2A41212  35.325   8.175   8.250
 6427POPC   C3A41213  35.357   8.186   7.950
 6427POPC   C4A41214  35.351   8.207   7.650
 6427POPC   C1B41215  35.289   7.963   8.550
 6427POPC   C2B41216  35.309   7.944   8.250
 6427POPC   C3B41217  35.291   7.907   7.950
 6427POPC   C4B41218  35.301   7.970   7.650
 6428POPC   NC341219   7.447  17.538   9.450
 6428POPC   PO441220   7.395  17.500   9.150
 6428POPC   GL141221   7.400  17.517   8.850
 6428POPC   GL241222   7.293  17.629   8.850
 6428POPC   C1A41223   7.376  17.539   8.550
 6428POPC   D2A41224   7.431  17.470   8.250
 6428POPC   C3A41225   7.466  17.525   7.950
 6428POPC   C4A41226   7.465  17.463   7.650
 6428POPC   C1B41227   7.279  17.692   8.550
 6428POPC   C2B41228   7.291  17.683   8.250
 6428POPC   C3B41229   7.259  17.740   7.950
 6428POPC   C4B41230   7.291  17.681   7.650
 6429POPC   NC341231  22.175  41.511   9.450
 6429POPC   PO441232  22.117  41.572   9.150
 6429POPC   GL141233  22.176  41.545   8.850
 6429POPC   GL241234  22.229  41.496   8.850
 6429POPC   C1A41235  22.160  41.606   8.550
 6429POPC   D2A41236  22.191  41.534   8.250
 6429POPC   C3A41237  22.148  41.564   7.950
 6429POPC   C4A41238  22.115  41.575   7.650
 6429POPC   C1B41239  22.362  41.433   8.550
 6429POPC   C2B41240  22.370  41.391   8.250
 6429POPC   C3B41241  22.397  41.455   7.950
 6429POPC   C4B41242  22.353  41.430   7.650
 6430POPC   NC341243  41.582   1.225   9.450
 6430POPC   PO441244  41.604   1.214   9.150
 6430POPC   GL141245  41.559   1.234   8.850
 6430POPC   GL241246  41.495   1.361   8.850
 6430POPC   C1A41247  41.552   1.205   8.550
 6430POPC   D2A41248  41.511   1.245   8.250
 6430POPC   C3A41249  41.568   1.258   7.950
 6430POPC   C4A41250  41.565   1.238   7.650
 6430POPC   C1B41251  41.445   1.458   8.550
 6430POPC   C2B41252  41.415   1.399   8.250
 6430POPC   C3B41253  41.445   1.413   7.950
 6430POPC   C4B41254  41.423   1.374   7.650
 6431POPC   NC341255  26.799  42.324   9.450
 6431POPC   PO441256  26.849  42.309   9.150
 6431POPC   GL141257  26.849  42.365   8.850
 6431POPC   GL241258  26.719  42.224   8.850
 6431POPC   C1A41259  26.845  42.301   8.550
 6431POPC   D2A41260  26.861  42.350   8.250
 6431POPC   C3A41261  26.782  42.382   7.950
 6431POPC   C4A41262  26.802  42.364   7.650
 6431POPC   C1B41263  26.634  42.134   8.550
 6431POPC   C2B41264  26.716  42.146   8.250
 6431POPC   C3B41265  26.697  42.108   7.950
 6431POPC   C4B41266  26.697  42.156   7.650
 6432POPC   NC341267  33.021  33.019   9.450
 6432POPC   PO441268  33.062  33.014   9.150
 6432POPC   GL141269  33.041  32.983   8.850
 6432POPC   GL241270  32.970  33.089   8.850
 6432POPC   C1A41271  33.002  33.024   8.550
 6432POPC   D2A41272  33.057  33.041   8.250
 6432POPC   C3A41273  33.041  32.986   7.950
 6432POPC   C4A41274  33.037  33.064   7.650
 6432POPC   C1B41275  32.791  33.160   8.550
 6432POPC   C2B41276  32.848  33.205   8.250
 6432POPC   C3B41277  32.771  33.218   7.950
 6432POPC   C4B41278  32.825  33.139   7.650
 6433POPC   NC341279  42.346  44.705   9.450
 6433POPC   PO441280  42.364  44.665   9.150
 6433POPC   GL141281  42.354  44.696   8.850
 6433POPC   GL241282  42.437  44.563   8.850
 6433POPC   C1A41283  42.291  44.663   8.550
 6433POPC   D2A41284  42.344  44.640   8.250
 6433POPC   C3A41285  42.362  44.707   7.950
 6433POPC   C4A41286  42.382  44.653   7.650
 6433POPC   C1B41287  42.582  44.593   8.550
 6433POPC   C2B41288  42.567  44.533   8.250
 6433POPC   C3B41289  42.588  44.565   7.950
 6433POPC   C4B41290  42.511  44.594   7.650
 6434POPC   NC341291  13.644  34.592   9.450
 6434POPC   PO441292  13.605  34.600   9.150
 6434POPC   GL141293  13.582  34.584   8.850
 6434POPC   GL241294  13.687  34.677   8.850
 6434POPC   C1A41295  13.672  34.540   8.550
 6434POPC   D2A41296  13.593  34.540   8.250
 6434POPC   C3A41297  13.668  34.528   7.950
 6434POPC   C4A41298  13.588  34.564   7.650
 6434POPC   C1B41299  13.706  34.864   8.550
 6434POPC   C2B41300  13.698  34.863   8.250
 6434POPC   C3B41301  13.628  34.850   7.950
 6434POPC   C4B41302  13.655  34.827   7.650
 6435POPC   NC341303  40.806  25.301   9.450
 6435POPC   PO441304  40.765  25.240   9.150
 6435POPC   GL141305  40.786  25.218   8.850
 6435POPC   GL241306  40.875  25.414   8.850
 6435POPC   C1A41307  40.779  25.233   8.550
 6435POPC   D2A41308  40.827  25.225   8.250
 6435POPC   C3A41309  40.785  25.246   7.950
 6435POPC   C4A41310  40.824  25.288   7.650
 6435POPC   C1B41311  40.915  25.493   8.550
 6435POPC   C2B41312  40.916  25.531   8.250
 6435POPC   C3B41313  40.850  25.503   7.950
 6435POPC   C4B41314  40.839  25.521   7.650
 6436POPC   NC341315  36.879  13.625   9.450
 6436POPC   PO441316  36.924  13.578   9.150
 6436POPC   GL141317  36.924  13.620   8.850
 6436POPC   GL241318  36.806  13.598   8.850
 6436POPC   C1A41319  36.941  13.636   8.550
 6436POPC   D2A41320  36.854  13.675   8.250
 6436POPC   C3A41321  36.911  13.675   7.950
 6436POPC   C4A41322  36.921  13.589   7.650
 6436POPC   C1B41323  36.697  13.477   8.550
 6436POPC   C2B41324  36.728  13.488   8.250
 6436POPC   C3B41325  36.640  13.541   7.950
 6436POPC   C4B41326  36.637  13.472   7.650
 6437POPC   NC341327  41.517  33.800   9.450
 6437POPC   PO441328  41.528  33.826   9.150
 6437POPC   GL141329  41.545  33.759   8.850
 6437POPC   GL241330  41.689  33.843   8.850
 6437POPC   C1A41331  41.547  33.787   8.550
 6437POPC   D2A41332  41.570  33.803   8.250
 6437POPC   C3A41333  41.588  33.761   7.950
 6437POPC   C4A41334  41.596  33.797   7.650
 6437POPC   C1B41335  41.828  33.837   8.550
 6437POPC   C2B41336  41.841  33.849   8.250
 6437POPC   C3B41337  41.818  33.861   7.950
 6437POPC   C4B41338  41.856  33.839   7.650
 6438POPC   NC341339  12.888  35.377   9.450
 6438POPC   PO441340  12.850  35.309   9.150
 6438POPC   GL141341  12.818  35.384   8.850
 6438POPC   GL241342  12.967  35.418   8.850
 6438POPC   C1A41343  12.819  35.318   8.550
 6438POPC   D2A41344  12.837  35.383   8.250
 6438POPC   C3A41345  12.840  35.382   7.950
 6438POPC   C4A41346  12.804  35.356   7.650
 6438POPC   C1B41347  13.138  35.395   8.550
 6438POPC   C2B41348  13.109  35.434   8.250
 6438POPC   C3B41349  13.080  35.416   7.950
 6438POPC   C4B41350  13.075  35.444   7.650
 6439POPC   NC341351  17.540  21.408   9.450
 6439POPC   PO441352  17.472  21.365   9.150
 6439POPC   GL141353  17.458  21.345   8.850
 6439POPC   GL241354  17.586  21.256   8.850
 6439POPC   C1A41355  17.515  21.410   8.550
 6439POPC   D2A41356  17.459  21.361   8.250
 6439POPC   C3A41357  17.531  21.377   7.950
 6439POPC   C4A41358  17.538  21.373   7.650
 6439POPC   C1B41359  17.687  21.185   8.550
 6439POPC   C2B41360  17.668  21.183   8.250
 6439POPC   C3B41361  17.685  21.216   7.950
 6439POPC   C4B41362  17.680  21.275   7.650
 6440POPC   NC341363   7.424   8.218   9.450
 6440POPC   PO441364   7.373   8.156   9.150
 6440POPC   GL141365   7.374   8.159   8.850
 6440POPC   GL241366   7.367   8.289   8.850
 6440POPC   C1A41367   7.381   8.162   8.550
 6440POPC   D2A41368   7.467   8.182   8.250
 6440POPC   C3A41369   7.437   8.243   7.950
 6440POPC   C4A41370   7.412   8.202   7.650
 6440POPC   C1B41371   7.325   8.444   8.550
 6440POPC   C2B41372   7.311   8.378   8.250
 6440POPC   C3B41373   7.320   8.433   7.950
 6440POPC   C4B41374   7.282   8.398   7.650
 6441POPC   NC341375   5.140  19.804   9.450
 6441POPC   PO441376   5.112  19.813   9.150
 6441POPC   GL141377   5.065  19.805   8.850
 6441POPC   GL241378   5.219  19.904   8.850
 6441POPC   C1A41379   5.139  19.805   8.550
 6441POPC   D2A41380   5.076  19.824   8.250
 6441POPC   C3A41381   5.049  19.845   7.950
 6441POPC   C4A41382   5.110  19.850   7.650
 6441POPC   C1B41383   5.291  19.968   8.550
 6441POPC   C2B41384   5.281  20.021   8.250
 6441POPC   C3B41385   5.291  19.963   7.950
 6441POPC   C4B41386   5.257  20.015   7.650
 6442POPC   NC341387  21.432   9.790   9.450
 6442POPC   PO441388  21.342   9.796   9.150
 6442POPC   GL141389  21.372   9.775   8.850
 6442POPC   GL241390  21.425   9.687   8.850
 6442POPC   C1A41391  21.406   9.779   8.550
 6442POPC   D2A41392  21.409   9.714   8.250
 6442POPC   C3A41393  21.395   9.728   7.950
 6442POPC   C4A41394  21.402   9.724   7.650
 6442POPC   C1B41395  21.532   9.570   8.550
 6442POPC   C2B41396  21.485   9.535   8.250
 6442POPC   C3B41397  21.522   9.521   7.950
 6442POPC   C4B41398  21.517   9.544   7.650
 6443POPC   NC341399  12.104  25.252   9.450
 6443POPC   PO441400  12.117  25.309   9.150
 6443POPC   GL141401  12.103  25.289   8.850
 6443POPC   GL241402  12.091  25.393   8.850
 6443POPC   C1A41403  12.072  25.257   8.550
 6443POPC   D2A41404  12.080  25.244   8.250
 6443POPC   C3A41405  12.031  25.285   7.950
 6443POPC   C4A41406  12.029  25.231   7.650
 6443POPC   C1B41407  12.061  25.545   8.550
 6443POPC   C2B41408  11.997  25.475   8.250
 6443POPC   C3B41409  11.988  25.491   7.950
 6443POPC   C4B41410  11.996  25.544   7.650
 6444POPC   NC341411  28.328  29.135   9.450
 6444POPC   PO441412  28.346  29.107   9.150
 6444POPC   GL141413  28.333  29.177   8.850
 6444POPC   GL241414  28.418  29.244   8.850
 6444POPC   C1A41415  28.319  29.142   8.550
 6444POPC   D2A41416  28.336  29.171   8.250
 6444POPC   C3A41417  28.395  29.184   7.950
 6444POPC   C4A41418  28.392  29.158   7.650
 6444POPC   C1B41419  28.397  29.335   8.550
 6444POPC   C2B41420  28.482  29.398   8.250
 6444POPC   C3B41421  28.398  29.429   7.950
 6444POPC   C4B41422  28.413  29.361   7.650
 6445POPC   NC341423  39.248   5.832   9.450
 6445POPC   PO441424  39.222   5.862   9.150
 6445POPC   GL141425  39.206   5.875   8.850
 6445POPC   GL241426  39.080   5.937   8.850
 6445POPC   C1A41427  39.259   5.881   8.550
 6445POPC   D2A41428  39.182   5.860   8.250
 6445POPC   C3A41429  39.248   5.883   7.950
 6445POPC   C4A41430  39.258   5.916   7.650
 6445POPC   C1B41431  39.008   6.005   8.550
 6445POPC   C2B41432  39.014   5.939   8.250
 6445POPC   C3B41433  38.957   5.931   7.950
 6445POPC   C4B41434  38.988   5.988   7.650
 6446POPC   NC341435  35.365  20.646   9.450
 6446POPC   PO441436  35.379  20.563   9.150
 6446POPC   GL141437  35.343  20.646   8.850
 6446POPC   GL241438  35.312  20.530   8.850
 6446POPC   C1A41439  35.374  20.634   8.550
 6446POPC   D2A41440  35.352  20.592   8.250
 6446POPC   C3A41441  35.304  20.562   7.950
 6446POPC   C4A41442  35.344  20.563   7.650
 6446POPC   C1B41443  35.200  20.440   8.550
 6446POPC   C2B41444  35.239  20.444   8.250
 6446POPC   C3B41445  35.211  20.418   7.950
 6446POPC   C4B41446  35.184  20.453   7.650
 6447POPC   NC341447  22.210   5.117   9.450
 6447POPC   PO441448  22.173   5.084   9.150
 6447POPC   GL141449  22.146   5.075   8.850
 6447POPC   GL241450  22.041   5.003   8.850
 6447POPC   C1A41451  22.170   5.078   8.550
 6447POPC   D2A41452  22.159   5.056   8.250
 6447POPC   C3A41453  22.127   5.094   7.950
 6447POPC   C4A41454  22.190   5.136   7.650
 6447POPC   C1B41455  21.931   4.917   8.550
 6447POPC   C2B41456  21.929   4.979   8.250
 6447POPC   C3B41457  21.997   4.913   7.950
 6447POPC   C4B41458  21.996   4.936   7.650
 6448POPC   NC341459  28.382  13.655   9.450
 6448POPC   PO441460  28.345  13.598   9.150
 6448POPC   GL141461  28.351  13.628   8.850
 6448POPC   GL241462  28.272  13.678   8.850
 6448POPC   C1A41463  28.374  13.620   8.550
 6448POPC   D2A41464  28.347  13.627   8.250
 6448POPC   C3A41465  28.386  13.657   7.950
 6448POPC   C4A41466  28.413  13.675   7.650
 6448POPC   C1B41467  28.102  13.603   8.550
 6448POPC   C2B41468  28.149  13.643   8.250
 6448POPC   C3B41469  28.095  13.589   7.950
 6448POPC   C4B41470  28.075  13.664   7.650
 6449POPC   NC341471  24.476  22.896   9.450
 6449POPC   PO441472  24.453  22.959   9.150
 6449POPC   GL141473  24.492  22.934   8.850
 6449POPC   GL241474  24.462  22.806   8.850
 6449POPC   C1A41475  24.501  22.956   8.550
 6449POPC   D2A41476  24.501  22.956   8.250
 6449POPC   C3A41477  24.462  22.929   7.950
 6449POPC   C4A41478  24.455  22.958   7.650
 6449POPC   C1B41479  24.376  22.679   8.550
 6449POPC   C2B41480  24.399  22.695   8.250
 6449POPC   C3B41481  24.404  22.691   7.950
 6449POPC   C4B41482  24.454  22.741   7.650
 6450POPC   NC341483   9.745  22.898   9.450
 6450POPC   PO441484   9.796  22.959   9.150
 6450POPC   GL141485   9.742  22.965   8.850
 6450POPC   GL241486   9.643  23.003   8.850
 6450POPC   C1A41487   9.707  22.965   8.550
 6450POPC   D2A41488   9.702  22.968   8.250
 6450POPC   C3A41489   9.720  22.933   7.950
 6450POPC   C4A41490   9.710  22.915   7.650
 6450POPC   C1B41491   9.561  23.092   8.550
 6450POPC   C2B41492   9.582  23.099   8.250
 6450POPC   C3B41493   9.600  23.139   7.950
 6450POPC   C4B41494   9.610  23.113   7.650
 6451POPC   NC341495  38.493   1.967   9.450
 6451POPC   PO441496  38.495   1.946   9.150
 6451POPC   GL141497  38.439   1.973   8.850
 6451POPC   GL241498  38.460   1.865   8.850
 6451POPC   C1A41499  38.481   1.959   8.550
 6451POPC   D2A41500  38.453   1.995   8.250
 6451POPC   C3A41501  38.456   1.977   7.950
 6451POPC   C4A41502  38.465   2.014   7.650
 6451POPC   C1B41503  38.525   1.792   8.550
 6451POPC   C2B41504  38.489   1.708   8.250
 6451POPC   C3B41505  38.513   1.744   7.950
 6451POPC   C4B41506  38.537   1.776   7.650
 6452POPC   NC341507  25.291  12.818   5.550
 6452POPC   PO441508  25.265  12.839   5.850
 6452POPC   GL141509  25.266  12.836   6.150
 6452POPC   GL241510  25.207  12.905   6.150
 6452POPC   C1A41511  25.266  12.828   6.450
 6452POPC   D2A41512  25.224  12.805   6.750
 6452POPC   C3A41513  25.299  12.871   7.050
 6452POPC   C4A41514  25.233  12.807   7.350
 6452POPC   C1B41515  25.028  12.941   6.450
 6452POPC   C2B41516  25.015  12.937   6.750
 6452POPC   C3B41517  25.077  13.007   7.050
 6452POPC   C4B41518  25.030  13.016   7.350
 6453POPC   NC341519  27.616  16.709   5.550
 6453POPC   PO441520  27.545  16.748   5.850
 6453POPC   GL141521  27.637  16.717   6.150
 6453POPC   GL241522  27.497  16.641   6.150
 6453POPC   C1A41523  27.618  16.721   6.450
 6453POPC   D2A41524  27.571  16.732   6.750
 6453POPC   C3A41525  27.570  16.745   7.050
 6453POPC   C4A41526  27.599  16.778   7.350
 6453POPC   C1B41527  27.422  16.558   6.450
 6453POPC   C2B41528  27.499  16.526   6.750
 6453POPC   C3B41529  27.495  16.560   7.050
 6453POPC   C4B41530  27.456  16.505   7.350
 6454POPC   NC341531  20.607  10.501   5.550
 6454POPC   PO441532  20.593  10.475   5.850
 6454POPC   GL141533  20.633  10.567   6.150
 6454POPC   GL241534  20.484  10.507   6.150
 6454POPC   C1A41535  20.627  10.519   6.450
 6454POPC   D2A41536  20.598  10.546   6.750
 6454POPC   C3A41537  20.598  10.514   7.050
 6454POPC   C4A41538  20.574  10.542   7.350
 6454POPC   C1B41539  20.400  10.501   6.450
 6454POPC   C2B41540  20.364  10.421   6.750
 6454POPC   C3B41541  20.399  10.423   7.050
 6454POPC   C4B41542  20.413  10.470   7.350
 6455POPC   NC341543   3.555  36.919   5.550
 6455POPC   PO441544   3.549  36.907   5.850
 6455POPC   GL141545   3.560  36.879   6.150
 6455POPC   GL241546   3.601  37.032   6.150
 6455POPC   C1A41547   3.557  36.917   6.450
 6455POPC   D2A41548   3.512  36.872   6.750
 6455POPC   C3A41549   3.580  36.918   7.050
 6455POPC   C4A41550   3.557  36.949   7.350
 6455POPC   C1B41551   3.566  37.153   6.450
 6455POPC   C2B41552   3.592  37.153   6.750
 6455POPC   C3B41553   3.545  37.117   7.050
 6455POPC   C4B41554   3.558  37.112   7.350
 6456POPC   NC341555   9.708  15.171   5.550
 6456POPC   PO441556   9.702  15.219   5.850
 6456POPC   GL141557   9.793  15.138   6.150
 6456POPC   GL241558   9.669  15.160   6.150
 6456POPC   C1A41559   9.704  15.160   6.450
 6456POPC   D2A41560   9.795  15.221   6.750
 6456POPC   C3A41561   9.755  15.135   7.050
 6456POPC   C4A41562   9.715  15.164   7.350
 6456POPC   C1B41563   9.477  15.237   6.450
 6456POPC   C2B41564   9.477  15.253   6.750
 6456POPC   C3B41565   9.493  15.232   7.050
 6456POPC   C4B41566   9.497  15.196   7.350
 6457POPC   NC341567   5.861  12.895   5.550
 6457POPC   PO441568   5.854  12.830   5.850
 6457POPC   GL141569   5.869  12.845   6.150
 6457POPC   GL241570   5.733  12.787   6.150
 6457POPC   C1A41571   5.821  12.833   6.450
 6457POPC   D2A41572   5.863  12.884   6.750
 6457POPC   C3A41573   5.900  12.855   7.050
 6457POPC   C4A41574   5.852  12.876   7.350
 6457POPC   C1B41575   5.670  12.780   6.450
 6457POPC   C2B41576   5.684  12.773   6.750
 6457POPC   C3B41577   5.675  12.725   7.050
 6457POPC   C4B41578   5.620  12.740   7.350
 6458POPC   NC341579  30.681  36.135   5.550
 6458POPC   PO441580  30.689  36.170   5.850
 6458POPC   GL141581  30.687  36.108   6.150
 6458POPC   GL241582  30.853  36.132   6.150
 6458POPC   C1A41583  30.729  36.112   6.450
 6458POPC   D2A41584  30.693  36.128   6.750
 6458POPC   C3A41585  30.684  36.158   7.050
 6458POPC   C4A41586  30.735  36.174   7.350
 6458POPC   C1B41587  30.968  36.084   6.450
 6458POPC   C2B41588  30.898  36.026   6.750
 6458POPC   C3B41589  30.977  36.076   7.050
 6458POPC   C4B41590  30.925  36.063   7.350
 6459POPC   NC341591  44.693  43.901   5.550
 6459POPC   PO441592  44.699  43.897   5.850
 6459POPC   GL141593  44.656  43.922   6.150
 6459POPC   GL241594  44.786  44.009   6.150
 6459POPC   C1A41595  44.676  43.897   6.450
 6459POPC   D2A41596  44.629  43.853   6.750
 6459POPC   C3A41597  44.707  43.894   7.050
 6459POPC   C4A41598  44.672  43.907   7.350
 6459POPC   C1B41599  44.864  44.105   6.450
 6459POPC   C2B41600  44.858  44.091   6.750
 6459POPC   C3B41601  44.811  44.031   7.050
 6459POPC   C4B41602  44.795  44.020   7.350
 6460POPC   NC341603  39.191   3.549   5.550
 6460POPC   PO441604  39.246   3.552   5.850
 6460POPC   GL141605  39.197   3.493   6.150
 6460POPC   GL241606  39.337   3.517   6.150
 6460POPC   C1A41607  39.279   3.521   6.450
 6460POPC   D2A41608  39.252   3.530   6.750
 6460POPC   C3A41609  39.271   3.534   7.050
 6460POPC   C4A41610  39.207   3.503   7.350
 6460POPC   C1B41611  39.471   3.604   6.450
 6460POPC   C2B41612  39.471   3.584   6.750
 6460POPC   C3B41613  39.444   3.542   7.050
 6460POPC   C4B41614  39.512   3.555   7.350
 6461POPC   NC341615  11.302  23.693   5.550
 6461POPC   PO441616  11.265  23.677   5.850
 6461POPC   GL141617  11.318  23.755   6.150
 6461POPC   GL241618  11.150  23.734   6.150
 6461POPC   C1A41619  11.333  23.709   6.450
 6461POPC   D2A41620  11.340  23.703   6.750
 6461POPC   C3A41621  11.270  23.681   7.050
 6461POPC   C4A41622  11.313  23.680   7.350
 6461POPC   C1B41623  11.018  23.763   6.450
 6461POPC   C2B41624  11.105  23.727   6.750
 6461POPC   C3B41625  11.093  23.799   7.050
 6461POPC   C4B41626  11.041  23.761   7.350
 6462POPC   NC341627  30.698  44.672   5.550
 6462POPC   PO441628  30.729  44.614   5.850
 6462POPC   GL141629  30.741  44.648   6.150
 6462POPC   GL241630  30.814  44.620   6.150
 6462POPC   C1A41631  30.703  44.655   6.450
 6462POPC   D2A41632  30.691  44.692   6.750
 6462POPC   C3A41633  30.695  44.704   7.050
 6462POPC   C4A41634  30.716  44.705   7.350
 6462POPC   C1B41635  30.938  44.707   6.450
 6462POPC   C2B41636  30.988  44.662   6.750
 6462POPC   C3B41637  30.951  44.617   7.050
 6462POPC   C4B41638  30.914  44.623   7.350
 6463POPC   NC341639  25.274   3.591   5.550
 6463POPC   PO441640  25.310   3.589   5.850
 6463POPC   GL141641  25.257   3.578   6.150
 6463POPC   GL241642  25.402   3.617   6.150
 6463POPC   C1A41643  25.230   3.572   6.450
 6463POPC   D2A41644  25.224   3.542   6.750
 6463POPC   C3A41645  25.251   3.498   7.050
 6463POPC   C4A41646  25.264   3.514   7.350
 6463POPC   C1B41647  25.544   3.578   6.450
 6463POPC   C2B41648  25.510   3.634   6.750
 6463POPC   C3B41649  25.540   3.567   7.050
 6463POPC   C4B41650  25.511   3.585   7.350
 6464POPC   NC341651  17.513  38.419   5.550
 6464POPC   PO441652  17.540  38.443   5.850
 6464POPC   GL141653  17.504  38.498   6.150
 6464POPC   GL241654  17.419  38.507   6.150
 6464POPC   C1A41655  17.462  38.478   6.450
 6464POPC   D2A41656  17.489  38.497   6.750
 6464POPC   C3A41657  17.536  38.469   7.050
 6464POPC   C4A41658  17.509  38.435   7.350
 6464POPC   C1B41659  17.338  38.610   6.450
 6464POPC   C2B41660  17.321  38.643   6.750
 6464POPC   C3B41661  17.373  38.670   7.050
 6464POPC   C4B41662  17.327  38.692   7.350
 6465POPC   NC341663  42.319  12.118   5.550
 6465POPC   PO441664  42.372  12.116   5.850
 6465POPC   GL141665  42.376  12.108   6.150
 6465POPC   GL241666  42.370  11.936   6.150
 6465POPC   C1A41667  42.381  12.040   6.450
 6465POPC   D2A41668  42.349  12.030   6.750
 6465POPC   C3A41669  42.304  12.074   7.050
 6465POPC   C4A41670  42.349  12.097   7.350
 6465POPC   C1B41671  42.401  11.850   6.450
 6465POPC   C2B41672  42.354  11.803   6.750
 6465POPC   C3B41673  42.390  11.781   7.050
 6465POPC   C4B41674  42.339  11.786   7.350
 6466POPC   NC341675  20.658  23.734   5.550
 6466POPC   PO441676  20.656  23.699   5.850
 6466POPC   GL141677  20.641  23.747   6.150
 6466POPC   GL241678  20.573  23.628   6.150
 6466POPC   C1A41679  20.628  23.679   6.450
 6466POPC   D2A41680  20.616  23.756   6.750
 6466POPC   C3A41681  20.602  23.724   7.050
 6466POPC   C4A41682  20.567  23.736   7.350
 6466POPC   C1B41683  20.633  23.488   6.450
 6466POPC   C2B41684  20.640  23.482   6.750
 6466POPC   C3B41685  20.597  23.450   7.050
 6466POPC   C4B41686  20.603  23.457   7.350
 6467POPC   NC341687  25.295  11.276   5.550
 6467POPC   PO441688  25.219  11.277   5.850
 6467POPC   GL141689  25.257  11.323   6.150
 6467POPC   GL241690  25.421  11.264   6.150
 6467POPC   C1A41691  25.315  11.331   6.450
 6467POPC   D2A41692  25.265  11.308   6.750
 6467POPC   C3A41693  25.303  11.346   7.050
 6467POPC   C4A41694  25.218  11.295   7.350
 6467POPC   C1B41695  25.490  11.138   6.450
 6467POPC   C2B41696  25.471  11.212   6.750
 6467POPC   C3B41697  25.484  11.169   7.050
 6467POPC   C4B41698  25.477  11.155   7.350
 6468POPC   NC341699   9.791  29.150   5.550
 6468POPC   PO441700   9.718  29.151   5.850
 6468POPC   GL141701   9.754  29.146   6.150
 6468POPC   GL241702   9.871  29.217   6.150
 6468POPC   C1A41703   9.753  29.161   6.450
 6468POPC   D2A41704   9.719  29.168   6.750
 6468POPC   C3A41705   9.716  29.178   7.050
 6468POPC   C4A41706   9.740  29.114   7.350
 6468POPC   C1B41707  10.020  29.258   6.450
 6468POPC   C2B41708   9.944  29.190   6.750
 6468POPC   C3B41709   9.939  29.186   7.050
 6468POPC   C4B41710  10.017  29.278   7.350
 6469POPC   NC341711  17.512   7.465   5.550
 6469POPC   PO441712  17.495   7.469   5.850
 6469POPC   GL141713  17.521   7.428   6.150
 6469POPC   GL241714  17.604   7.452   6.150
 6469POPC   C1A41715  17.522   7.420   6.450
 6469POPC   D2A41716  17.502   7.448   6.750
 6469POPC   C3A41717  17.520   7.394   7.050
 6469POPC   C4A41718  17.519   7.440   7.350
 6469POPC   C1B41719  17.701   7.481   6.450
 6469POPC   C2B41720  17.745   7.521   6.750
 6469POPC   C3B41721  17.783   7.524   7.050
 6469POPC   C4B41722  17.771   7.517   7.350
 6470POPC   NC341723   5.097  13.642   5.550
 6470POPC   PO441724   5.050  13.632   5.850
 6470POPC   GL141725   5.044  13.587   6.150
 6470POPC   GL241726   5.052  13.475   6.150
 6470POPC   C1A41727   5.054  13.648   6.450
 6470POPC   D2A41728   5.108  13.631   6.750
 6470POPC   C3A41729   5.083  13.634   7.050
 6470POPC   C4A41730   5.100  13.649   7.350
 6470POPC   C1B41731   5.097  13.335   6.450
 6470POPC   C2B41732   5.086  13.391   6.750
 6470POPC   C3B41733   5.064  13.369   7.050
 6470POPC   C4B41734   5.138  13.377   7.350
 6471POPC   NC341735  39.187  13.629   5.550
 6471POPC   PO441736  39.207  13.636   5.850
 6471POPC   GL141737  39.190  13.650   6.150
 6471POPC   GL241738  39.180  13.488   6.150
 6471POPC   C1A41739  39.273  13.666   6.450
 6471POPC   D2A41740  39.250  13.604   6.750
 6471POPC   C3A41741  39.269  13.624   7.050
 6471POPC   C4A41742  39.236  13.658   7.350
 6471POPC   C1B41743  39.194  13.377   6.450
 6471POPC   C2B41744  39.158  13.423   6.750
 6471POPC   C3B41745  39.147  13.419   7.050
 6471POPC   C4B41746  39.203  13.337   7.350
 6472POPC   NC341747  19.096  23.738   5.550
 6472POPC   PO441748  19.091  23.679   5.850
 6472POPC   GL141749  19.048  23.699   6.150
 6472POPC   GL241750  19.013  23.547   6.150
 6472POPC   C1A41751  19.045  23.709   6.450
 6472POPC   D2A41752  19.035  23.748   6.750
 6472POPC   C3A41753  19.039  23.714   7.050
 6472POPC   C4A41754  19.050  23.707   7.350
 6472POPC   C1B41755  19.098  23.433   6.450
 6472POPC   C2B41756  19.030  23.478   6.750
 6472POPC   C3B41757  19.025  23.414   7.050
 6472POPC   C4B41758  19.081  23.462   7.350
 6473POPC   NC341759  37.670  15.942   5.550
 6473POPC   PO441760  37.726  15.951   5.850
 6473POPC   GL141761  37.704  15.924   6.150
 6473POPC   GL241762  37.680  16.073   6.150
 6473POPC   C1A41763  37.633  15.947   6.450
 6473POPC   D2A41764  37.680  15.981   6.750
 6473POPC   C3A41765  37.726  15.963   7.050
 6473POPC   C4A41766  37.653  15.936   7.350
 6473POPC   C1B41767  37.766  16.159   6.450
 6473POPC   C2B41768  37.718  16.188   6.750
 6473POPC   C3B41769  37.756  16.175   7.050
 6473POPC   C4B41770  37.780  16.244   7.350
 6474POPC   NC341771  12.107  41.601   5.550
 6474POPC   PO441772  12.100  41.545   5.850
 6474POPC   GL141773  12.091  41.581   6.150
 6474POPC   GL241774  12.126  41.462   6.150
 6474POPC   C1A41775  12.123  41.540   6.450
 6474POPC   D2A41776  12.071  41.580   6.750
 6474POPC   C3A41777  12.111  41.542   7.050
 6474POPC   C4A41778  12.091  41.528   7.350
 6474POPC   C1B41779  12.213  41.367   6.450
 6474POPC   C2B41780  12.253  41.328   6.750
 6474POPC   C3B41781  12.238  41.325   7.050
 6474POPC   C4B41782  12.229  41.347   7.350
 6475POPC   NC341783   2.728  28.413   5.550
 6475POPC   PO441784   2.761  28.385   5.850
 6475POPC   GL141785   2.755  28.321   6.150
 6475POPC   GL241786   2.924  28.359   6.150
 6475POPC   C1A41787   2.788  28.344   6.450
 6475POPC   D2A41788   2.743  28.365   6.750
 6475POPC   C3A41789   2.738  28.363   7.050
 6475POPC   C4A41790   2.799  28.338   7.350
 6475POPC   C1B41791   2.965  28.385   6.450
 6475POPC   C2B41792   3.022  28.330   6.750
 6475POPC   C3B41793   2.994  28.381   7.050
 6475POPC   C4B41794   3.036  28.306   7.350
 6476POPC   NC341795  41.563  36.858   5.550
 6476POPC   PO441796  41.580  36.903   5.850
 6476POPC   GL141797  41.553  36.896   6.150
 6476POPC   GL241798  41.419  36.929   6.150
 6476POPC   C1A41799  41.567  36.937   6.450
 6476POPC   D2A41800  41.522  36.935   6.750
 6476POPC   C3A41801  41.518  36.888   7.050
 6476POPC   C4A41802  41.525  36.854   7.350
 6476POPC   C1B41803  41.353  36.904   6.450
 6476POPC   C2B41804  41.311  36.906   6.750
 6476POPC   C3B41805  41.321  37.002   7.050
 6476POPC   C4B41806  41.331  36.993   7.350
 6477POPC   NC341807  44.657   6.673   5.550
 6477POPC   PO441808  44.636   6.670   5.850
 6477POPC   GL141809  44.687   6.651   6.150
 6477POPC   GL241810  44.792   6.703   6.150
 6477POPC   C1A41811  44.665   6.645   6.450
 6477POPC   D2A41812  44.680   6.670   6.750
 6477POPC   C3A41813  44.642   6.604   7.050
 6477POPC   C4A41814  44.618   6.608   7.350
 6477POPC   C1B41815  44.870   6.687   6.450
 6477POPC   C2B41816  44.857   6.734   6.750
 6477POPC   C3B41817  44.891   6.702   7.050
 6477POPC   C4B41818  44.910   6.733   7.350
 6478POPC   NC341819   9.782  33.800   5.550
 6478POPC   PO441820   9.768  33.754   5.850
 6478POPC   GL141821   9.745  33.785   6.150
 6478POPC   GL241822   9.791  33.884   6.150
 6478POPC   C1A41823   9.708  33.820   6.450
 6478POPC   D2A41824   9.727  33.845   6.750
 6478POPC   C3A41825   9.777  33.777   7.050
 6478POPC   C4A41826   9.776  33.773   7.350
 6478POPC   C1B41827   9.825  33.983   6.450
 6478POPC   C2B41828   9.850  33.978   6.750
 6478POPC   C3B41829   9.847  34.020   7.050
 6478POPC   C4B41830   9.860  34.047   7.350
 6479POPC   NC341831  22.152  23.709   5.550
 6479POPC   PO441832  22.153  23.675   5.850
 6479POPC   GL141833  22.194  23.738   6.150
 6479POPC   GL241834  22.036  23.591   6.150
 6479POPC   C1A41835  22.195  23.729   6.450
 6479POPC   D2A41836  22.193  23.699   6.750
 6479POPC   C3A41837  22.151  23.694   7.050
 6479POPC   C4A41838  22.208  23.755   7.350
 6479POPC   C1B41839  21.956  23.555   6.450
 6479POPC   C2B41840  21.964  23.529   6.750
 6479POPC   C3B41841  21.958  23.601   7.050
 6479POPC   C4B41842  21.991  23.577   7.350
 6480POPC   NC341843   2.789   2.785   5.550
 6480POPC   PO441844   2.729   2.773   5.850
 6480POPC   GL141845   2.749   2.785   6.150
 6480POPC   GL241846   2.804   2.867   6.150
 6480POPC   C1A41847   2.725   2.744   6.450
 6480POPC   D2A41848   2.746   2.798   6.750
 6480POPC   C3A41849   2.781   2.726   7.050
 6480POPC   C4A41850   2.780   2.774   7.350
 6480POPC   C1B41851   2.886   2.963   6.450
 6480POPC   C2B41852   2.905   3.027   6.750
 6480POPC   C3B41853   2.919   3.004   7.050
 6480POPC   C4B41854   2.842   2.985   7.350
 6481POPC   NC341855  11.288  22.981   5.550
 6481POPC   PO441856  11.316  22.985   5.850
 6481POPC   GL141857  11.346  22.964   6.150
 6481POPC   GL241858  11.255  22.783   6.150
 6481POPC   C1A41859  11.292  22.970   6.450
 6481POPC   D2A41860  11.334  22.899   6.750
 6481POPC   C3A41861  11.343  22.981   7.050
 6481POPC   C4A41862  11.272  22.927   7.350
 6481POPC   C1B41863  11.261  22.644   6.450
 6481POPC   C2B41864  11.330  22.656   6.750
 6481POPC   C3B41865  11.255  22.732   7.050
 6481POPC   C4B41866  11.332  22.690   7.350
 6482POPC   NC341867  23.683   5.055   5.550
 6482POPC   PO441868  23.709   5.090   5.850
 6482POPC   GL141869  23.745   5.107   6.150
 6482POPC   GL241870  23.847   5.105   6.150
 6482POPC   C1A41871  23.668   5.070   6.450
 6482POPC   D2A41872  23.668   5.123   6.750
 6482POPC   C3A41873  23.712   5.131   7.050
 6482POPC   C4A41874  23.717   5.113   7.350
 6482POPC   C1B41875  23.979   5.134   6.450
 6482POPC   C2B41876  23.987   5.125   6.750
 6482POPC   C3B41877  23.947   5.118   7.050
 6482POPC   C4B41878  23.912   5.142   7.350
 6483POPC   NC341879  35.310  10.524   5.550
 6483POPC   PO441880  35.388  10.554   5.850
 6483POPC   GL141881  35.389  10.482   6.150
 6483POPC   GL241882  35.433  10.510   6.150
 6483POPC   C1A41883  35.308  10.497   6.450
 6483POPC   D2A41884  35.365  10.536   6.750
 6483POPC   C3A41885  35.368  10.572   7.050
 6483POPC   C4A41886  35.337  10.501   7.350
 6483POPC   C1B41887  35.578  10.560   6.450
 6483POPC   C2B41888  35.615  10.497   6.750
 6483POPC   C3B41889  35.625  10.504   7.050
 6483POPC   C4B41890  35.570  10.474   7.350
 6484POPC   NC341891  13.598   3.521   5.550
 6484POPC   PO441892  13.607   3.554   5.850
 6484POPC   GL141893  13.592   3.511   6.150
 6484POPC   GL241894  13.718   3.432   6.150
 6484POPC   C1A41895  13.651   3.522   6.450
 6484POPC   D2A41896  13.621   3.527   6.750
 6484POPC   C3A41897  13.648   3.525   7.050
 6484POPC   C4A41898  13.673   3.517   7.350
 6484POPC   C1B41899  13.854   3.386   6.450
 6484POPC   C2B41900  13.839   3.401   6.750
 6484POPC   C3B41901  13.849   3.353   7.050
 6484POPC   C4B41902  13.840   3.365   7.350
 6485POPC   NC341903   8.951  21.417   5.550
 6485POPC   PO441904   8.998  21.423   5.850
 6485POPC   GL141905   8.976  21.372   6.150
 6485POPC   GL241906   9.069  21.455   6.150
 6485POPC   C1A41907   8.968  21.435   6.450
 6485POPC   D2A41908   8.981  21.379   6.750
 6485POPC   C3A41909   8.996  21.420   7.050
 6485POPC   C4A41910   8.963  21.384   7.350
 6485POPC   C1B41911   9.160  21.548   6.450
 6485POPC   C2B41912   9.138  21.555   6.750
 6485POPC   C3B41913   9.148  21.604   7.050
 6485POPC   C4B41914   9.202  21.519   7.350
 6486POPC   NC341915  15.947  18.302   5.550
 6486POPC   PO441916  15.917  18.291   5.850
 6486POPC   GL141917  15.945  18.309   6.150
 6486POPC   GL241918  16.009  18.369   6.150
 6486POPC   C1A41919  15.953  18.289   6.450
 6486POPC   D2A41920  15.988  18.255   6.750
 6486POPC   C3A41921  15.985  18.302   7.050
 6486POPC   C4A41922  15.923  18.277   7.350
 6486POPC   C1B41923  16.079  18.499   6.450
 6486POPC   C2B41924  16.041  18.469   6.750
 6486POPC   C3B41925  16.099  18.469   7.050
 6486POPC   C4B41926  16.089  18.505   7.350
 6487POPC   NC341927   5.049  41.526   5.550
 6487POPC   PO441928   5.061  41.554   5.850
 6487POPC   GL141929   5.084  41.511   6.150
 6487POPC   GL241930   5.208  41.531   6.150
 6487POPC   C1A41931   5.045  41.554   6.450
 6487POPC   D2A41932   5.131  41.599   6.750
 6487POPC   C3A41933   5.082  41.510   7.050
 6487POPC   C4A41934   5.137  41.602   7.350
 6487POPC   C1B41935   5.301  41.528   6.450
 6487POPC   C2B41936   5.364  41.495   6.750
 6487POPC   C3B41937   5.376  41.522   7.050
 6487POPC   C4B41938   5.323  41.540   7.350
 6488POPC   NC341939  15.906  39.192   5.550
 6488POPC   PO441940  15.957  39.206   5.850
 6488POPC   GL141941  15.985  39.270   6.150
 6488POPC   GL241942  16.080  39.226   6.150
 6488POPC   C1A41943  15.923  39.264   6.450
 6488POPC   D2A41944  15.994  39.190   6.750
 6488POPC   C3A41945  15.975  39.212   7.050
 6488POPC   C4A41946  15.985  39.244   7.350
 6488POPC   C1B41947  16.248  39.270   6.450
 6488POPC   C2B41948  16.186  39.259   6.750
 6488POPC   C3B41949  16.154  39.260   7.050
 6488POPC   C4B41950  16.186  39.279   7.350
 6489POPC   NC341951  22.187   5.123   5.550
 6489POPC   PO441952  22.124   5.133   5.850
 6489POPC   GL141953  22.139   5.069   6.150
 6489POPC   GL241954  22.111   5.177   6.150
 6489POPC   C1A41955  22.143   5.058   6.450
 6489POPC   D2A41956  22.138   5.120   6.750
 6489POPC   C3A41957  22.180   5.123   7.050
 6489POPC   C4A41958  22.114   5.051   7.350
 6489POPC   C1B41959  21.988   5.253   6.450
 6489POPC   C2B41960  21.963   5.270   6.750
 6489POPC   C3B41961  21.964   5.276   7.050
 6489POPC   C4B41962  22.019   5.294   7.350
 6490POPC   NC341963  17.469  23.758   5.550
 6490POPC   PO441964  17.480  23.717   5.850
 6490POPC   GL141965  17.507  23.718   6.150
 6490POPC   GL241966  17.437  23.621   6.150
 6490POPC   C1A41967  17.476  23.714   6.450
 6490POPC   D2A41968  17.551  23.669   6.750
 6490POPC   C3A41969  17.540  23.685   7.050
 6490POPC   C4A41970  17.492  23.750   7.350
 6490POPC   C1B41971  17.403  23.424   6.450
 6490POPC   C2B41972  17.398  23.460   6.750
 6490POPC   C3B41973  17.397  23.480   7.050
 6490POPC   C4B41974  17.426  23.451   7.350
 6491POPC   NC341975  22.958  10.573   5.550
 6491POPC   PO441976  22.920  10.504   5.850
 6491POPC   GL141977  22.945  10.476   6.150
 6491POPC   GL241978  23.085  10.606   6.150
 6491POPC   C1A41979  22.899  10.533   6.450
 6491POPC   D2A41980  22.903  10.535   6.750
 6491POPC   C3A41981  22.902  10.555   7.050
 6491POPC   C4A41982  22.910  10.481   7.350
 6491POPC   C1B41983  23.131  10.606   6.450
 6491POPC   C2B41984  23.144  10.553   6.750
 6491POPC   C3B41985  23.176  10.565   7.050
 6491POPC   C4B41986  23.157  10.588   7.350
 6492POPC   NC341987  23.726  12.885   5.550
 6492POPC   PO441988  23.723  12.883   5.850
 6492POPC   GL141989  23.715  12.857   6.150
 6492POPC   GL241990  23.721  12.738   6.150
 6492POPC   C1A41991  23.735  12.880   6.450
 6492POPC   D2A41992  23.712  12.815   6.750
 6492POPC   C3A41993  23.713  12.864   7.050
 6492POPC   C4A41994  23.738  12.804   7.350
 6492POPC   C1B41995  23.798  12.672   6.450
 6492POPC   C2B41996  23.797  12.606   6.750
 6492POPC   C3B41997  23.799  12.659   7.050
 6492POPC   C4B41998  23.802  12.644   7.350
 6493POPC   NC341999   2.005   8.206   5.550
 6493POPC   PO442000   1.962   8.196   5.850
 6493POPC   GL142001   1.990   8.204   6.150
 6493POPC   GL242002   1.975   8.055   6.150
 6493POPC   C1A42003   1.949   8.204   6.450
 6493POPC   D2A42004   1.958   8.236   6.750
 6493POPC   C3A42005   1.992   8.239   7.050
 6493POPC   C4A42006   2.019   8.163   7.350
 6493POPC   C1B42007   1.895   7.925   6.450
 6493POPC   C2B42008   1.920   7.965   6.750
 6493POPC   C3B42009   1.938   7.965   7.050
 6493POPC   C4B42010   1.875   7.967   7.350
 6494POPC   NC342011  19.078  16.726   5.550
 6494POPC   PO442012  19.082  16.697   5.850
 6494POPC   GL142013  19.012  16.700   6.150
 6494POPC   GL242014  18.920  16.758   6.150
 6494POPC   C1A42015  19.010  16.735   6.450
 6494POPC   D2A42016  19.102  16.681   6.750
 6494POPC   C3A42017  19.097  16.735   7.050
 6494POPC   C4A42018  19.044  16.729   7.350
 6494POPC   C1B42019  18.836  16.752   6.450
 6494POPC   C2B42020  18.861  16.826   6.750
 6494POPC   C3B42021  18.777  16.831   7.050
 6494POPC   C4B42022  18.798  16.819   7.350
 6495POPC   NC342023   7.444  19.010   5.550
 6495POPC   PO442024   7.406  19.012   5.850
 6495POPC   GL142025   7.404  19.040   6.150
 6495POPC   GL242026   7.502  19.030   6.150
 6495POPC   C1A42027   7.420  19.010   6.450
 6495POPC   D2A42028   7.393  19.045   6.750
 6495POPC   C3A42029   7.448  19.016   7.050
 6495POPC   C4A42030   7.428  19.079   7.350
 6495POPC   C1B42031   7.666  19.094   6.450
 6495POPC   C2B42032   7.709  19.028   6.750
 6495POPC   C3B42033   7.631  19.101   7.050
 6495POPC   C4B42034   7.660  19.030   7.350
 6496POPC   NC342035  39.215  39.245   5.550
 6496POPC   PO442036  39.241  39.251   5.850
 6496POPC   GL142037  39.198  39.221   6.150
 6496POPC   GL242038  39.349  39.090   6.150
 6496POPC   C1A42039  39.203  39.248   6.450
 6496POPC   D2A42040  39.268  39.212   6.750
 6496POPC   C3A42041  39.219  39.187   7.050
 6496POPC   C4A42042  39.261  39.225   7.350
 6496POPC   C1B42043  39.413  39.024   6.450
 6496POPC   C2B42044  39.370  39.075   6.750
 6496POPC   C3B42045  39.341  39.002   7.050
 6496POPC   C4B42046  39.422  39.072   7.350
 6497POPC   NC342047   4.298  18.306   5.550
 6497POPC   PO442048   4.309  18.239   5.850
 6497POPC   GL142049   4.359  18.309   6.150
 6497POPC   GL242050   4.449  18.247   6.150
 6497POPC   C1A42051   4.284  18.249   6.450
 6497POPC   D2A42052   4.318  18.312   6.750
 6497POPC   C3A42053   4.282  18.325   7.050
 6497POPC   C4A42054   4.296  18.254   7.350
 6497POPC   C1B42055   4.600  18.301   6.450
 6497POPC   C2B42056   4.566  18.253   6.750
 6497POPC   C3B42057   4.608  18.250   7.050
 6497POPC   C4B42058   4.615  18.277   7.350
 6498POPC   NC342059  25.262   7.374   5.550
 6498POPC   PO442060  25.266   7.392   5.850
 6498POPC   GL142061  25.248   7.404   6.150
 6498POPC   GL242062  25.163   7.335   6.150
 6498POPC   C1A42063  25.254   7.453   6.450
 6498POPC   D2A42064  25.244   7.429   6.750
 6498POPC   C3A42065  25.315   7.406   7.050
 6498POPC   C4A42066  25.305   7.450   7.350
 6498POPC   C1B42067  25.109   7.230   6.450
 6498POPC   C2B42068  25.104   7.284   6.750
 6498POPC   C3B42069  25.088   7.228   7.050
 6498POPC   C4B42070  25.110   7.262   7.350
 6499POPC   NC342071   8.924   8.197   5.550
 6499POPC   PO442072   9.005   8.243   5.850
 6499POPC   GL142073   9.012   8.222   6.150
 6499POPC   GL242074   8.954   8.081   6.150
 6499POPC   C1A42075   8.974   8.241   6.450
 6499POPC   D2A42076   8.939   8.246   6.750
 6499POPC   C3A42077   8.981   8.165   7.050
 6499POPC   C4A42078   8.978   8.157   7.350
 6499POPC   C1B42079   8.897   7.973   6.450
 6499POPC   C2B42080   8.960   7.987   6.750
 6499POPC   C3B42081   8.920   7.940   7.050
 6499POPC   C4B42082   8.882   7.966   7.350
 6500POPC   NC342083   8.200  40.819   5.550
 6500POPC   PO442084   8.152  40.824   5.850
 6500POPC   GL142085   8.153  40.754   6.150
 6500POPC   GL242086   8.177  40.904   6.150
 6500POPC   C1A42087   8.173  40.775   6.450
 6500POPC   D2A42088   8.151  40.771   6.750
 6500POPC   C3A42089   8.164  40.746   7.050
 6500POPC   C4A42090   8.160  40.737   7.350
 6500POPC   C1B42091   8.099  40.972   6.450
 6500POPC   C2B42092   8.045  41.046   6.750
 6500POPC   C3B42093   8.028  40.968   7.050
 6500POPC   C4B42094   8.057  40.966   7.350
 6501POPC   NC342095  38.492  21.388   5.550
 6501POPC   PO442096  38.503  21.408   5.850
 6501POPC   GL142097  38.468  21.402   6.150
 6501POPC   GL242098  38.572  21.465   6.150
 6501POPC   C1A42099  38.503  21.373   6.450
 6501POPC   D2A42100  38.438  21.397   6.750
 6501POPC   C3A42101  38.466  21.356   7.050
 6501POPC   C4A42102  38.436  21.394   7.350
 6501POPC   C1B42103  38.627  21.597   6.450
 6501POPC   C2B42104  38.590  21.606   6.750
 6501POPC   C3B42105  38.611  21.587   7.050
 6501POPC   C4B42106  38.649  21.569   7.350
 6502POPC   NC342107  31.481  30.737   5.550
 6502POPC   PO442108  31.448  30.660   5.850
 6502POPC   GL142109  31.467  30.683   6.150
 6502POPC   GL242110  31.373  30.669   6.150
 6502POPC   C1A42111  31.452  30.648   6.450
 6502POPC   D2A42112  31.481  30.669   6.750
 6502POPC   C3A42113  31.487  30.706   7.050
 6502POPC   C4A42114  31.470  30.730   7.350
 6502POPC   C1B42115  31.201  30.669   6.450
 6502POPC   C2B42116  31.182  30.666   6.750
 6502POPC   C3B42117  31.206  30.726   7.050
 6502POPC   C4B42118  31.203  30.701   7.350
 6503POPC   NC342119  43.919  18.245   5.550
 6503POPC   PO442120  43.898  18.282   5.850
 6503POPC   GL142121  43.859  18.242   6.150
 6503POPC   GL242122  43.748  18.283   6.150
 6503POPC   C1A42123  43.932  18.314   6.450
 6503POPC   D2A42124  43.871  18.249   6.750
 6503POPC   C3A42125  43.867  18.238   7.050
 6503POPC   C4A42126  43.929  18.243   7.350
 6503POPC   C1B42127  43.629  18.328   6.450
 6503POPC   C2B42128  43.654  18.360   6.750
 6503POPC   C3B42129  43.639  18.326   7.050
 6503POPC   C4B42130  43.655  18.377   7.350
 6504POPC   NC342131  31.460  36.090   5.550
 6504POPC   PO442132  31.442  36.172   5.850
 6504POPC   GL142133  31.427  36.080   6.150
 6504POPC   GL242134  31.438  36.241   6.150
 6504POPC   C1A42135  31.521  36.147   6.450
 6504POPC   D2A42136  31.438  36.160   6.750
 6504POPC   C3A42137  31.492  36.101   7.050
 6504POPC   C4A42138  31.431  36.146   7.350
 6504POPC   C1B42139  31.541  36.399   6.450
 6504POPC   C2B42140  31.531  36.352   6.750
 6504POPC   C3B42141  31.496  36.421   7.050
 6504POPC   C4B42142  31.485  36.327   7.350
 6505POPC   NC342143   2.036  43.893   5.550
 6505POPC   PO442144   1.996  43.886   5.850
 6505POPC   GL142145   1.998  43.868   6.150
 6505POPC   GL242146   2.129  43.922   6.150
 6505POPC   C1A42147   1.957  43.869   6.450
 6505POPC   D2A42148   1.990  43.935   6.750
 6505POPC   C3A42149   2.009  43.896   7.050
 6505POPC   C4A42150   2.001  43.897   7.350
 6505POPC   C1B42151   2.219  44.035   6.450
 6505POPC   C2B42152   2.182  44.081   6.750
 6505POPC   C3B42153   2.205  44.056   7.050
 6505POPC   C4B42154   2.201  43.990   7.350
 6506POPC   NC342155  19.025  19.788   5.550
 6506POPC   PO442156  19.098  19.789   5.850
 6506POPC   GL142157  19.033  19.826   6.150
 6506POPC   GL242158  19.130  19.994   6.150
 6506POPC   C1A42159  19.103  19.801   6.450
 6506POPC   D2A42160  19.046  19.878   6.750
 6506POPC   C3A42161  19.028  19.808   7.050
 6506POPC   C4A42162  19.076  19.793   7.350
 6506POPC   C1B42163  19.171  20.013   6.450
 6506POPC   C2B42164  19.174  20.064   6.750
 6506POPC   C3B42165  19.161  20.110   7.050
 6506POPC   C4B42166  19.118  20.074   7.350
 6507POPC   NC342167   8.999  33.042   5.550
 6507POPC   PO442168   8.933  33.063   5.850
 6507POPC   GL142169   8.944  32.994   6.150
 6507POPC   GL242170   9.026  33.124   6.150
 6507POPC   C1A42171   8.960  32.998   6.450
 6507POPC   D2A42172   8.998  32.986   6.750
 6507POPC   C3A42173   9.019  33.039   7.050
 6507POPC   C4A42174   8.996  32.982   7.350
 6507POPC   C1B42175   9.123  33.163   6.450
 6507POPC   C2B42176   9.189  33.180   6.750
 6507POPC   C3B42177   9.132  33.164   7.050
 6507POPC   C4B42178   9.181  33.186   7.350
 6508POPC   NC342179   6.636  20.643   5.550
 6508POPC   PO442180   6.618  20.565   5.850
 6508POPC   GL142181   6.615  20.643   6.150
 6508POPC   GL242182   6.658  20.752   6.150
 6508POPC   C1A42183   6.616  20.642   6.450
 6508POPC   D2A42184   6.622  20.603   6.750
 6508POPC   C3A42185   6.624  20.566   7.050
 6508POPC   C4A42186   6.617  20.581   7.350
 6508POPC   C1B42187   6.590  20.889   6.450
 6508POPC   C2B42188   6.612  20.843   6.750
 6508POPC   C3B42189   6.566  20.867   7.050
 6508POPC   C4B42190   6.582  20.832   7.350
 6509POPC   NC342191  12.898  10.498   5.550
 6509POPC   PO442192  12.804  10.538   5.850
 6509POPC   GL142193  12.811  10.573   6.150
 6509POPC   GL242194  12.791  10.419   6.150
 6509POPC   C1A42195  12.895  10.518   6.450
 6509POPC   D2A42196  12.877  10.555   6.750
 6509POPC   C3A42197  12.817  10.532   7.050
 6509POPC   C4A42198  12.834  10.481   7.350
 6509POPC   C1B42199  12.650  10.414   6.450
 6509POPC   C2B42200  12.610  10.362   6.750
 6509POPC   C3B42201  12.671  10.397   7.050
 6509POPC   C4B42202  12.634  10.385   7.350
 6510POPC   NC342203  32.281   3.528   5.550
 6510POPC   PO442204  32.296   3.505   5.850
 6510POPC   GL142205  32.260   3.514   6.150
 6510POPC   GL242206  32.191   3.644   6.150
 6510POPC   C1A42207  32.212   3.552   6.450
 6510POPC   D2A42208  32.218   3.514   6.750
 6510POPC   C3A42209  32.231   3.536   7.050
 6510POPC   C4A42210  32.204   3.508   7.350
 6510POPC   C1B42211  32.144   3.768   6.450
 6510POPC   C2B42212  32.124   3.769   6.750
 6510POPC   C3B42213  32.120   3.706   7.050
 6510POPC   C4B42214  32.103   3.783   7.350
 6511POPC   NC342215  14.364  13.674   5.550
 6511POPC   PO442216  14.378  13.628   5.850
 6511POPC   GL142217  14.429  13.607   6.150
 6511POPC   GL242218  14.528  13.552   6.150
 6511POPC   C1A42219  14.398  13.592   6.450
 6511POPC   D2A42220  14.443  13.663   6.750
 6511POPC   C3A42221  14.391  13.579   7.050
 6511POPC   C4A42222  14.435  13.617   7.350
 6511POPC   C1B42223  14.519  13.476   6.450
 6511POPC   C2B42224  14.604  13.418   6.750
 6511POPC   C3B42225  14.614  13.411   7.050
 6511POPC   C4B42226  14.536  13.487   7.350
 6512POPC   NC342227   8.970  15.202   5.550
 6512POPC   PO442228   9.016  15.134   5.850
 6512POPC   GL142229   9.018  15.223   6.150
 6512POPC   GL242230   9.083  15.207   6.150
 6512POPC   C1A42231   9.006  15.187   6.450
 6512POPC   D2A42232   8.956  15.222   6.750
 6512POPC   C3A42233   8.995  15.176   7.050
 6512POPC   C4A42234   8.954  15.194   7.350
 6512POPC   C1B42235   9.241  15.185   6.450
 6512POPC   C2B42236   9.190  15.240   6.750
 6512POPC   C3B42237   9.256  15.208   7.050
 6512POPC   C4B42238   9.265  15.228   7.350
 6513POPC   NC342239  18.301  33.067   5.550
 6513POPC   PO442240  18.254  32.992   5.850
 6513POPC   GL142241  18.269  33.074   6.150
 6513POPC   GL242242  18.212  33.168   6.150
 6513POPC   C1A42243  18.245  33.018   6.450
 6513POPC   D2A42244  18.330  33.048   6.750
 6513POPC   C3A42245  18.293  33.060   7.050
 6513POPC   C4A42246  18.325  33.000   7.350
 6513POPC   C1B42247  18.178  33.227   6.450
 6513POPC   C2B42248  18.136  33.257   6.750
 6513POPC   C3B42249  18.108  33.232   7.050
 6513POPC   C4B42250  18.139  33.228   7.350
 6514POPC   NC342251  40.757  37.661   5.550
 6514POPC   PO442252  40.825  37.659   5.850
 6514POPC   GL142253  40.758  37.661   6.150
 6514POPC   GL242254  40.817  37.773   6.150
 6514POPC   C1A42255  40.819  37.655   6.450
 6514POPC   D2A42256  40.797  37.650   6.750
 6514POPC   C3A42257  40.766  37.689   7.050
 6514POPC   C4A42258  40.740  37.729   7.350
 6514POPC   C1B42259  40.721  37.931   6.450
 6514POPC   C2B42260  40.788  37.893   6.750
 6514POPC   C3B42261  40.783  37.947   7.050
 6514POPC   C4B42262  40.722  37.955   7.350
 6515POPC   NC342263  33.759  18.253   5.550
 6515POPC   PO442264  33.798  18.313   5.850
 6515POPC   GL142265  33.774  18.265   6.150
 6515POPC   GL242266  33.881  18.355   6.150
 6515POPC   C1A42267  33.822  18.311   6.450
 6515POPC   D2A42268  33.784  18.268   6.750
 6515POPC   C3A42269  33.753  18.287   7.050
 6515POPC   C4A42270  33.766  18.312   7.350
 6515POPC   C1B42271  34.027  18.452   6.450
 6515POPC   C2B42272  34.029  18.489   6.750
 6515POPC   C3B42273  33.968  18.436   7.050
 6515POPC   C4B42274  33.958  18.449   7.350
 6516POPC   NC342275  12.856  19.084   5.550
 6516POPC   PO442276  12.829  19.101   5.850
 6516POPC   GL142277  12.824  19.100   6.150
 6516POPC   GL242278  12.962  19.125   6.150
 6516POPC   C1A42279  12.815  19.047   6.450
 6516POPC   D2A42280  12.872  19.058   6.750
 6516POPC   C3A42281  12.851  19.056   7.050
 6516POPC   C4A42282  12.824  19.098   7.350
 6516POPC   C1B42283  13.020  19.220   6.450
 6516POPC   C2B42284  13.003  19.201   6.750
 6516POPC   C3B42285  13.067  19.259   7.050
 6516POPC   C4B42286  13.061  19.193   7.350
 6517POPC   NC342287  24.501   8.938   5.550
 6517POPC   PO442288  24.467   8.939   5.850
 6517POPC   GL142289  24.501   8.981   6.150
 6517POPC   GL242290  24.335   9.017   6.150
 6517POPC   C1A42291  24.464   8.937   6.450
 6517POPC   D2A42292  24.451   8.941   6.750
 6517POPC   C3A42293  24.462   8.977   7.050
 6517POPC   C4A42294  24.475   8.925   7.350
 6517POPC   C1B42295  24.299   9.010   6.450
 6517POPC   C2B42296  24.204   9.015   6.750
 6517POPC   C3B42297  24.239   9.032   7.050
 6517POPC   C4B42298  24.227   9.073   7.350
 6518POPC   NC342299   9.763  36.161   5.550
 6518POPC   PO442300   9.723  36.173   5.850
 6518POPC   GL142301   9.717  36.167   6.150
 6518POPC   GL242302   9.677  36.143   6.150
 6518POPC   C1A42303   9.755  36.102   6.450
 6518POPC   D2A42304   9.733  36.102   6.750
 6518POPC   C3A42305   9.757  36.093   7.050
 6518POPC   C4A42306   9.752  36.147   7.350
 6518POPC   C1B42307   9.547  36.247   6.450
 6518POPC   C2B42308   9.547  36.210   6.750
 6518POPC   C3B42309   9.482  36.173   7.050
 6518POPC   C4B42310   9.529  36.237   7.350
 6519POPC   NC342311  16.707   6.619   5.550
 6519POPC   PO442312  16.755   6.599   5.850
 6519POPC   GL142313  16.780   6.676   6.150
 6519POPC   GL242314  16.837   6.680   6.150
 6519POPC   C1A42315  16.772   6.674   6.450
 6519POPC   D2A42316  16.750   6.654   6.750
 6519POPC   C3A42317  16.705   6.688   7.050
 6519POPC   C4A42318  16.733   6.658   7.350
 6519POPC   C1B42319  16.919   6.734   6.450
 6519POPC   C2B42320  16.967   6.739   6.750
 6519POPC   C3B42321  16.941   6.682   7.050
 6519POPC   C4B42322  17.002   6.736   7.350
 6520POPC   NC342323  13.585  30.695   5.550
 6520POPC   PO442324  13.584  30.684   5.850
 6520POPC   GL142325  13.599  30.743   6.150
 6520POPC   GL242326  13.792  30.728   6.150
 6520POPC   C1A42327  13.625  30.736   6.450
 6520POPC   D2A42328  13.621  30.694   6.750
 6520POPC   C3A42329  13.625  30.650   7.050
 6520POPC   C4A42330  13.649  30.733   7.350
 6520POPC   C1B42331  13.895  30.712   6.450
 6520POPC   C2B42332  13.857  30.788   6.750
 6520POPC   C3B42333  13.913  30.786   7.050
 6520POPC   C4B42334  13.846  30.770   7.350
 6521POPC   NC342335   8.989   4.300   5.550
 6521POPC   PO442336   9.000   4.327   5.850
 6521POPC   GL142337   8.994   4.309   6.150
 6521POPC   GL242338   8.827   4.289   6.150
 6521POPC   C1A42339   9.021   4.337   6.450
 6521POPC   D2A42340   8.974   4.338   6.750
 6521POPC   C3A42341   8.940   4.362   7.050
 6521POPC   C4A42342   8.932   4.318   7.350
 6521POPC   C1B42343   8.755   4.259   6.450
 6521POPC   C2B42344   8.765   4.284   6.750
 6521POPC   C3B42345   8.676   4.255   7.050
 6521POPC   C4B42346   8.706   4.261   7.350
 6522POPC   NC342347  18.271  41.512   5.550
 6522POPC   PO442348  18.304  41.532   5.850
 6522POPC   GL142349  18.302  41.584   6.150
 6522POPC   GL242350  18.239  41.482   6.150
 6522POPC   C1A42351  18.316  41.516   6.450
 6522POPC   D2A42352  18.295  41.520   6.750
 6522POPC   C3A42353  18.296  41.549   7.050
 6522POPC   C4A42354  18.322  41.535   7.350
 6522POPC   C1B42355  18.166  41.381   6.450
 6522POPC   C2B42356  18.111  41.314   6.750
 6522POPC   C3B42357  18.110  41.383   7.050
 6522POPC   C4B42358  18.196  41.387   7.350
 6523POPC   NC342359  36.090  10.544   5.550
 6523POPC   PO442360  36.143  10.518   5.850
 6523POPC   GL142361  36.081  10.571   6.150
 6523POPC   GL242362  36.053  10.605   6.150
 6523POPC   C1A42363  36.128  10.524   6.450
 6523POPC   D2A42364  36.145  10.550   6.750
 6523POPC   C3A42365  36.119  10.484   7.050
 6523POPC   C4A42366  36.142  10.543   7.350
 6523POPC   C1B42367  35.944  10.684   6.450
 6523POPC   C2B42368  35.867  10.672   6.750
 6523POPC   C3B42369  35.872  10.603   7.050
 6523POPC   C4B42370  35.938  10.610   7.350
 6524POPC   NC342371  21.390  19.801   5.550
 6524POPC   PO442372  21.379  19.856   5.850
 6524POPC   GL142373  21.426  19.855   6.150
 6524POPC   GL242374  21.257  19.885   6.150
 6524POPC   C1A42375  21.383  19.800   6.450
 6524POPC   D2A42376  21.396  19.794   6.750
 6524POPC   C3A42377  21.413  19.855   7.050
 6524POPC   C4A42378  21.428  19.850   7.350
 6524POPC   C1B42379  21.220  19.997   6.450
 6524POPC   C2B42380  21.214  20.007   6.750
 6524POPC   C3B42381  21.173  19.948   7.050
 6524POPC   C4B42382  21.168  19.972   7.350
 6525POPC   NC342383   4.353  22.121   5.550
 6525POPC   PO442384   4.283  22.132   5.850
 6525POPC   GL142385   4.334  22.191   6.150
 6525POPC   GL242386   4.326  22.077   6.150
 6525POPC   C1A42387   4.268  22.135   6.450
 6525POPC   D2A42388   4.297  22.206   6.750
 6525POPC   C3A42389   4.303  22.176   7.050
 6525POPC   C4A42390   4.365  22.199   7.350
 6525POPC   C1B42391   4.306  21.878   6.450
 6525POPC   C2B42392   4.336  21.954   6.750
 6525POPC   C3B42393   4.323  21.885   7.050
 6525POPC   C4B42394   4.345  21.920   7.350
 6526POPC   NC342395  39.976  39.962   5.550
 6526POPC   PO442396  40.036  40.010   5.850
 6526POPC   GL142397  39.982  39.969   6.150
 6526POPC   GL242398  39.880  39.995   6.150
 6526POPC   C1A42399  40.022  40.035   6.450
 6526POPC   D2A42400  39.983  39.997   6.750
 6526POPC   C3A42401  40.010  39.992   7.050
 6526POPC   C4A42402  39.965  40.049   7.350
 6526POPC   C1B42403  39.779  39.905   6.450
 6526POPC   C2B42404  39.741  39.878   6.750
 6526POPC   C3B42405  39.777  39.949   7.050
 6526POPC   C4B42406  39.725  39.938   7.350
 6527POPC   NC342407  44.612  26.011   5.550
 6527POPC   PO442408  44.708  26.087   5.850
 6527POPC   GL142409  44.633  26.080   6.150
 6527POPC   GL242410  44.587  26.133   6.150
 6527POPC   C1A42411  44.710  26.076   6.450
 6527POPC   D2A42412  44.655  26.022   6.750
 6527POPC   C3A42413  44.639  26.083   7.050
 6527POPC   C4A42414  44.627  26.010   7.350
 6527POPC   C1B42415  44.587  26.292   6.450
 6527POPC   C2B42416  44.554  26.241   6.750
 6527POPC   C3B42417  44.494  26.226   7.050
 6527POPC   C4B42418  44.570  26.295   7.350
 6528POPC   NC342419   7.416   5.106   5.550
 6528POPC   PO442420   7.429   5.086   5.850
 6528POPC   GL142421   7.395   5.077   6.150
 6528POPC   GL242422   7.545   5.050   6.150
 6528POPC   C1A42423   7.464   5.131   6.450
 6528POPC   D2A42424   7.460   5.047   6.750
 6528POPC   C3A42425   7.398   5.111   7.050
 6528POPC   C4A42426   7.439   5.114   7.350
 6528POPC   C1B42427   7.590   4.950   6.450
 6528POPC   C2B42428   7.577   4.922   6.750
 6528POPC   C3B42429   7.610   4.925   7.050
 6528POPC   C4B42430   7.629   4.911   7.350
 6529POPC   NC342431  37.724  41.564   5.550
 6529POPC   PO442432  37.640  41.550   5.850
 6529POPC   GL142433  37.632  41.526   6.150
 6529POPC   GL242434  37.805  41.604   6.150
 6529POPC   C1A42435  37.655  41.576   6.450
 6529POPC   D2A42436  37.650  41.545   6.750
 6529POPC   C3A42437  37.721  41.551   7.050
 6529POPC   C4A42438  37.720  41.573   7.350
 6529POPC   C1B42439  37.929  41.739   6.450
 6529POPC   C2B42440  37.877  41.680   6.750
 6529POPC   C3B42441  37.926  41.683   7.050
 6529POPC   C4B42442  37.889  41.747   7.350
 6530POPC   NC342443  21.418   4.270   5.550
 6530POPC   PO442444  21.390   4.350   5.850
 6530POPC   GL142445  21.394   4.302   6.150
 6530POPC   GL242446  21.392   4.181   6.150
 6530POPC   C1A42447  21.359   4.292   6.450
 6530POPC   D2A42448  21.398   4.331   6.750
 6530POPC   C3A42449  21.418   4.287   7.050
 6530POPC   C4A42450  21.373   4.361   7.350
 6530POPC   C1B42451  21.460   4.103   6.450
 6530POPC   C2B42452  21.525   4.117   6.750
 6530POPC   C3B42453  21.490   4.125   7.050
 6530POPC   C4B42454  21.488   4.140   7.350
 6531POPC   NC342455  17.471  15.980   5.550
 6531POPC   PO442456  17.463  15.928   5.850
 6531POPC   GL142457  17.460  16.005   6.150
 6531POPC   GL242458  17.425  16.081   6.150
 6531POPC   C1A42459  17.502  15.927   6.450
 6531POPC   D2A42460  17.533  15.989   6.750
 6531POPC   C3A42461  17.546  15.946   7.050
 6531POPC   C4A42462  17.524  15.956   7.350
 6531POPC   C1B42463  17.336  16.143   6.450
 6531POPC   C2B42464  17.357  16.103   6.750
 6531POPC   C3B42465  17.350  16.100   7.050
 6531POPC   C4B42466  17.332  16.125   7.350
 6532POPC   NC342467  34.572   1.990   5.550
 6532POPC   PO442468  34.566   2.035   5.850
 6532POPC   GL142469  34.614   1.964   6.150
 6532POPC   GL242470  34.653   1.927   6.150
 6532POPC   C1A42471  34.596   2.021   6.450
 6532POPC   D2A42472  34.527   1.945   6.750
 6532POPC   C3A42473  34.540   1.958   7.050
 6532POPC   C4A42474  34.605   1.958   7.350
 6532POPC   C1B42475  34.761   1.814   6.450
 6532POPC   C2B42476  34.746   1.779   6.750
 6532POPC   C3B42477  34.781   1.768   7.050
 6532POPC   C4B42478  34.723   1.822   7.350
 6533POPC   NC342479  44.655   1.261   5.550
 6533POPC   PO442480  44.701   1.194   5.850
 6533POPC   GL142481  44.629   1.242   6.150
 6533POPC   GL242482  44.717   1.247   6.150
 6533POPC   C1A42483  44.669   1.219   6.450
 6533POPC   D2A42484  44.622   1.253   6.750
 6533POPC   C3A42485  44.634   1.225   7.050
 6533POPC   C4A42486  44.679   1.217   7.350
 6533POPC   C1B42487  44.845   1.388   6.450
 6533POPC   C2B42488  44.877   1.350   6.750
 6533POPC   C3B42489  44.857   1.324   7.050
 6533POPC   C4B42490  44.860   1.329   7.350
 6534POPC   NC342491  40.788  28.340   5.550
 6534POPC   PO442492  40.759  28.359   5.850
 6534POPC   GL142493  40.735  28.389   6.150
 6534POPC   GL242494  40.691  28.319   6.150
 6534POPC   C1A42495  40.743  28.407   6.450
 6534POPC   D2A42496  40.810  28.415   6.750
 6534POPC   C3A42497  40.751  28.327   7.050
 6534POPC   C4A42498  40.777  28.332   7.350
 6534POPC   C1B42499  40.612  28.193   6.450
 6534POPC   C2B42500  40.596  28.172   6.750
 6534POPC   C3B42501  40.627  28.231   7.050
 6534POPC   C4B42502  40.554  28.228   7.350
 6535POPC   NC342503   9.702  41.531   5.550
 6535POPC   PO442504   9.708  41.516   5.850
 6535POPC   GL142505   9.700  41.542   6.150
 6535POPC   GL242506   9.894  41.635   6.150
 6535POPC   C1A42507   9.760  41.579   6.450
 6535POPC   D2A42508   9.795  41.534   6.750
 6535POPC   C3A42509   9.762  41.593   7.050
 6535POPC   C4A42510   9.751  41.550   7.350
 6535POPC   C1B42511   9.966  41.588   6.450
 6535POPC   C2B42512   9.968  41.632   6.750
 6535POPC   C3B42513   9.957  41.614   7.050
 6535POPC   C4B42514   9.952  41.604   7.350
 6536POPC   NC342515  25.281  44.702   5.550
 6536POPC   PO442516  25.315  44.706   5.850
 6536POPC   GL142517  25.311  44.696   6.150
 6536POPC   GL242518  25.289  44.755   6.150
 6536POPC   C1A42519  25.293  44.671   6.450
 6536POPC   D2A42520  25.278  44.658   6.750
 6536POPC   C3A42521  25.240  44.696   7.050
 6536POPC   C4A42522  25.247  44.695   7.350
 6536POPC   C1B42523  25.348  44.897   6.450
 6536POPC   C2B42524  25.368  44.880   6.750
 6536POPC   C3B42525  25.369  44.904   7.050
 6536POPC   C4B42526  25.348  44.906   7.350
 6537POPC   NC342527   1.224  15.220   5.550
 6537POPC   PO442528   1.230  15.173   5.850
 6537POPC   GL142529   1.250  15.200   6.150
 6537POPC   GL242530   1.214  15.029   6.150
 6537POPC   C1A42531   1.221  15.198   6.450
 6537POPC   D2A42532   1.183  15.218   6.750
 6537POPC   C3A42533   1.188  15.185   7.050
 6537POPC   C4A42534   1.245  15.210   7.350
 6537POPC   C1B42535   1.170  14.962   6.450
 6537POPC   C2B42536   1.171  14.939   6.750
 6537POPC   C3B42537   1.257  14.966   7.050
 6537POPC   C4B42538   1.200  14.914   7.350
 6538POPC   NC342539  10.563  27.545   5.550
 6538POPC   PO442540  10.523  27.609   5.850
 6538POPC   GL142541  10.483  27.557   6.150
 6538POPC   GL242542  10.509  27.436   6.150
 6538POPC   C1A42543  10.540  27.570   6.450
 6538POPC   D2A42544  10.527  27.554   6.750
 6538POPC   C3A42545  10.516  27.622   7.050
 6538POPC   C4A42546  10.499  27.567   7.350
 6538POPC   C1B42547  10.493  27.399   6.450
 6538POPC   C2B42548  10.419  27.326   6.750
 6538POPC   C3B42549  10.398  27.320   7.050
 6538POPC   C4B42550  10.486  27.344   7.350
 6539POPC   NC342551  23.712  41.579   5.550
 6539POPC   PO442552  23.665  41.606   5.850
 6539POPC   GL142553  23.752  41.597   6.150
 6539POPC   GL242554  23.756  41.705   6.150
 6539POPC   C1A42555  23.704  41.544   6.450
 6539POPC   D2A42556  23.721  41.588   6.750
 6539POPC   C3A42557  23.701  41.569   7.050
 6539POPC   C4A42558  23.666  41.562   7.350
 6539POPC   C1B42559  23.719  41.800   6.450
 6539POPC   C2B42560  23.729  41.794   6.750
 6539POPC   C3B42561  23.704  41.772   7.050
 6539POPC   C4B42562  23.682  41.808   7.350
 6540POPC   NC342563  29.932  23.689   5.550
 6540POPC   PO442564  29.912  23.669   5.850
 6540POPC   GL142565  29.885  23.725   6.150
 6540POPC   GL242566  30.012  23.725   6.150
 6540POPC   C1A42567  29.902  23.708   6.450
 6540POPC   D2A42568  29.914  23.751   6.750
 6540POPC   C3A42569  29.882  23.699   7.050
 6540POPC   C4A42570  29.885  23.671   7.350
 6540POPC   C1B42571  30.196  23.603   6.450
 6540POPC   C2B42572  30.148  23.641   6.750
 6540POPC   C3B42573  30.135  23.630   7.050
 6540POPC   C4B42574  30.148  23.618   7.350
 6541POPC   NC342575  27.550  13.636   5.550
 6541POPC   PO442576  27.562  13.648   5.850
 6541POPC   GL142577  27.593  13.582   6.150
 6541POPC   GL242578  27.530  13.759   6.150
 6541POPC   C1A42579  27.576  13.636   6.450
 6541POPC   D2A42580  27.622  13.667   6.750
 6541POPC   C3A42581  27.564  13.662   7.050
 6541POPC   C4A42582  27.632  13.621   7.350
 6541POPC   C1B42583  27.414  13.801   6.450
 6541POPC   C2B42584  27.490  13.849   6.750
 6541POPC   C3B42585  27.493  13.832   7.050
 6541POPC   C4B42586  27.421  13.852   7.350
 6542POPC   NC342587   2.010  10.528   5.550
 6542POPC   PO442588   2.021  10.566   5.850
 6542POPC   GL142589   2.019  10.476   6.150
 6542POPC   GL242590   1.884  10.580   6.150
 6542POPC   C1A42591   2.033  10.486   6.450
 6542POPC   D2A42592   1.983  10.521   6.750
 6542POPC   C3A42593   1.951  10.565   7.050
 6542POPC   C4A42594   1.952  10.563   7.350
 6542POPC   C1B42595   1.811  10.712   6.450
 6542POPC   C2B42596   1.852  10.691   6.750
 6542POPC   C3B42597   1.764  10.696   7.050
 6542POPC   C4B42598   1.786  10.723   7.350
 6543POPC   NC342599   5.138  43.155   5.550
 6543POPC   PO442600   5.134  43.126   5.850
 6543POPC   GL142601   5.065  43.110   6.150
 6543POPC   GL242602   5.158  43.000   6.150
 6543POPC   C1A42603   5.129  43.068   6.450
 6543POPC   D2A42604   5.062  43.143   6.750
 6543POPC   C3A42605   5.090  43.084   7.050
 6543POPC   C4A42606   5.133  43.064   7.350
 6543POPC   C1B42607   5.184  42.925   6.450
 6543POPC   C2B42608   5.265  42.860   6.750
 6543POPC   C3B42609   5.175  42.892   7.050
 6543POPC   C4B42610   5.232  42.931   7.350
 6544POPC   NC342611   3.525  38.428   5.550
 6544POPC   PO442612   3.517  38.475   5.850
 6544POPC   GL142613   3.507  38.441   6.150
 6544POPC   GL242614   3.504  38.378   6.150
 6544POPC   C1A42615   3.536  38.453   6.450
 6544POPC   D2A42616   3.517  38.440   6.750
 6544POPC   C3A42617   3.561  38.420   7.050
 6544POPC   C4A42618   3.532  38.491   7.350
 6544POPC   C1B42619   3.372  38.288   6.450
 6544POPC   C2B42620   3.380  38.270   6.750
 6544POPC   C3B42621   3.387  38.301   7.050
 6544POPC   C4B42622   3.357  38.231   7.350
 6545POPC   NC342623  31.477  26.022   5.550
 6545POPC   PO442624  31.485  26.042   5.850
 6545POPC   GL142625  31.455  26.048   6.150
 6545POPC   GL242626  31.578  26.149   6.150
 6545POPC   C1A42627  31.438  26.031   6.450
 6545POPC   D2A42628  31.441  26.014   6.750
 6545POPC   C3A42629  31.521  26.049   7.050
 6545POPC   C4A42630  31.469  26.023   7.350
 6545POPC   C1B42631  31.623  26.196   6.450
 6545POPC   C2B42632  31.586  26.265   6.750
 6545POPC   C3B42633  31.611  26.211   7.050
 6545POPC   C4B42634  31.627  26.263   7.350
 6546POPC   NC342635  28.338  18.326   5.550
 6546POPC   PO442636  28.341  18.287   5.850
 6546POPC   GL142637  28.367  18.294   6.150
 6546POPC   GL242638  28.253  18.254   6.150
 6546POPC   C1A42639  28.400  18.295   6.450
 6546POPC   D2A42640  28.350  18.315   6.750
 6546POPC   C3A42641  28.396  18.238   7.050
 6546POPC   C4A42642  28.400  18.298   7.350
 6546POPC   C1B42643  28.109  18.231   6.450
 6546POPC   C2B42644  28.110  18.291   6.750
 6546POPC   C3B42645  28.124  18.244   7.050
 6546POPC   C4B42646  28.133  18.275   7.350
 6547POPC   NC342647  10.506   8.166   5.550
 6547POPC   PO442648  10.484   8.196   5.850
 6547POPC   GL142649  10.517   8.157   6.150
 6547POPC   GL242650  10.627   8.261   6.150
 6547POPC   C1A42651  10.564   8.208   6.450
 6547POPC   D2A42652  10.492   8.183   6.750
 6547POPC   C3A42653  10.557   8.235   7.050
 6547POPC   C4A42654  10.515   8.176   7.350
 6547POPC   C1B42655  10.804   8.323   6.450
 6547POPC   C2B42656  10.788   8.275   6.750
 6547POPC   C3B42657  10.758   8.334   7.050
 6547POPC   C4B42658  10.761   8.265   7.350
 6548POPC   NC342659  38.428  14.402   5.550
 6548POPC   PO442660  38.443  14.376   5.850
 6548POPC   GL142661  38.476  14.400   6.150
 6548POPC   GL242662  38.568  14.278   6.150
 6548POPC   C1A42663  38.420  14.389   6.450
 6548POPC   D2A42664  38.499  14.451   6.750
 6548POPC   C3A42665  38.487  14.438   7.050
 6548POPC   C4A42666  38.474  14.385   7.350
 6548POPC   C1B42667  38.630  14.199   6.450
 6548POPC   C2B42668  38.618  14.243   6.750
 6548POPC   C3B42669  38.656  14.223   7.050
 6548POPC   C4B42670  38.611  14.234   7.350
 6549POPC   NC342671  27.612   2.727   5.550
 6549POPC   PO442672  27.587   2.765   5.850
 6549POPC   GL142673  27.547   2.729   6.150
 6549POPC   GL242674  27.638   2.848   6.150
 6549POPC   C1A42675  27.560   2.789   6.450
 6549POPC   D2A42676  27.610   2.766   6.750
 6549POPC   C3A42677  27.575   2.786   7.050
 6549POPC   C4A42678  27.594   2.721   7.350
 6549POPC   C1B42679  27.780   2.965   6.450
 6549POPC   C2B42680  27.775   2.949   6.750
 6549POPC   C3B42681  27.790   2.937   7.050
 6549POPC   C4B42682  27.770   2.994   7.350
 6550POPC   NC342683   8.976  13.590   5.550
 6550POPC   PO442684   8.949  13.591   5.850
 6550POPC   GL142685   8.923  13.600   6.150
 6550POPC   GL242686   9.024  13.760   6.150
 6550POPC   C1A42687   8.998  13.631   6.450
 6550POPC   D2A42688   8.929  13.635   6.750
 6550POPC   C3A42689   8.927  13.586   7.050
 6550POPC   C4A42690   8.988  13.625   7.350
 6550POPC   C1B42691   9.137  13.878   6.450
 6550POPC   C2B42692   9.094  13.858   6.750
 6550POPC   C3B42693   9.152  13.841   7.050
 6550POPC   C4B42694   9.064  13.796   7.350
 6551POPC   NC342695  33.073  39.181   5.550
 6551POPC   PO442696  32.977  39.181   5.850
 6551POPC   GL142697  33.010  39.207   6.150
 6551POPC   GL242698  33.003  39.388   6.150
 6551POPC   C1A42699  33.058  39.228   6.450
 6551POPC   D2A42700  33.062  39.248   6.750
 6551POPC   C3A42701  32.995  39.218   7.050
 6551POPC   C4A42702  33.024  39.257   7.350
 6551POPC   C1B42703  33.028  39.492   6.450
 6551POPC   C2B42704  32.984  39.492   6.750
 6551POPC   C3B42705  33.008  39.466   7.050
 6551POPC   C4B42706  32.984  39.450   7.350
 6552POPC   NC342707  27.612  29.951   5.550
 6552POPC   PO442708  27.575  29.925   5.850
 6552POPC   GL142709  27.591  29.937   6.150
 6552POPC   GL242710  27.725  29.885   6.150
 6552POPC   C1A42711  27.626  29.876   6.450
 6552POPC   D2A42712  27.579  29.887   6.750
 6552POPC   C3A42713  27.626  29.964   7.050
 6552POPC   C4A42714  27.589  29.941   7.350
 6552POPC   C1B42715  27.867  29.935   6.450
 6552POPC   C2B42716  27.853  29.911   6.750
 6552POPC   C3B42717  27.884  29.962   7.050
 6552POPC   C4B42718  27.834  29.912   7.350
 6553POPC   NC342719  23.713  29.922   5.550
 6553POPC   PO442720  23.687  29.929   5.850
 6553POPC   GL142721  23.696  29.889   6.150
 6553POPC   GL242722  23.700  30.094   6.150
 6553POPC   C1A42723  23.755  29.908   6.450
 6553POPC   D2A42724  23.700  29.956   6.750
 6553POPC   C3A42725  23.703  29.886   7.050
 6553POPC   C4A42726  23.743  29.956   7.350
 6553POPC   C1B42727  23.710  30.125   6.450
 6553POPC   C2B42728  23.656  30.197   6.750
 6553POPC   C3B42729  23.704  30.161   7.050
 6553POPC   C4B42730  23.726  30.171   7.350
 6554POPC   NC342731  44.650  35.401   5.550
 6554POPC   PO442732  44.706  35.370   5.850
 6554POPC   GL142733  44.708  35.364   6.150
 6554POPC   GL242734  44.588  35.414   6.150
 6554POPC   C1A42735  44.652  35.374   6.450
 6554POPC   D2A42736  44.705  35.335   6.750
 6554POPC   C3A42737  44.645  35.338   7.050
 6554POPC   C4A42738  44.712  35.352   7.350
 6554POPC   C1B42739  44.490  35.476   6.450
 6554POPC   C2B42740  44.468  35.500   6.750
 6554POPC   C3B42741  44.426  35.540   7.050
 6554POPC   C4B42742  44.486  35.508   7.350
 6555POPC   NC342743  39.966  43.861   5.550
 6555POPC   PO442744  39.999  43.879   5.850
 6555POPC   GL142745  40.018  43.876   6.150
 6555POPC   GL242746  40.075  43.776   6.150
 6555POPC   C1A42747  40.011  43.900   6.450
 6555POPC   D2A42748  39.988  43.932   6.750
 6555POPC   C3A42749  39.996  43.857   7.050
 6555POPC   C4A42750  40.046  43.843   7.350
 6555POPC   C1B42751  40.162  43.706   6.450
 6555POPC   C2B42752  40.208  43.744   6.750
 6555POPC   C3B42753  40.187  43.761   7.050
 6555POPC   C4B42754  40.175  43.699   7.350
 6556POPC   NC342755  44.672   5.053   5.550
 6556POPC   PO442756  44.646   5.047   5.850
 6556POPC   GL142757  44.653   5.048   6.150
 6556POPC   GL242758  44.809   5.103   6.150
 6556POPC   C1A42759  44.640   5.082   6.450
 6556POPC   D2A42760  44.685   5.060   6.750
 6556POPC   C3A42761  44.635   5.057   7.050
 6556POPC   C4A42762  44.677   5.119   7.350
 6556POPC   C1B42763  44.870   5.076   6.450
 6556POPC   C2B42764  44.944   5.053   6.750
 6556POPC   C3B42765  44.864   5.077   7.050
 6556POPC   C4B42766  44.886   5.056   7.350
 6557POPC   NC342767  43.069  25.995   5.550
 6557POPC   PO442768  43.106  26.081   5.850
 6557POPC   GL142769  43.129  26.067   6.150
 6557POPC   GL242770  43.014  25.904   6.150
 6557POPC   C1A42771  43.156  25.998   6.450
 6557POPC   D2A42772  43.158  26.032   6.750
 6557POPC   C3A42773  43.075  26.066   7.050
 6557POPC   C4A42774  43.137  26.026   7.350
 6557POPC   C1B42775  42.996  25.802   6.450
 6557POPC   C2B42776  42.956  25.776   6.750
 6557POPC   C3B42777  43.026  25.813   7.050
 6557POPC   C4B42778  43.027  25.845   7.350
 6558POPC   NC342779  22.897   1.217   5.550
 6558POPC   PO442780  22.920   1.227   5.850
 6558POPC   GL142781  22.910   1.209   6.150
 6558POPC   GL242782  22.935   1.074   6.150
 6558POPC   C1A42783  22.961   1.216   6.450
 6558POPC   D2A42784  22.964   1.226   6.750
 6558POPC   C3A42785  22.973   1.164   7.050
 6558POPC   C4A42786  22.927   1.213   7.350
 6558POPC   C1B42787  22.905   0.929   6.450
 6558POPC   C2B42788  22.936   0.982   6.750
 6558POPC   C3B42789  22.845   0.972   7.050
 6558POPC   C4B42790  22.859   0.996   7.350
 6559POPC   NC342791  29.169  42.381   5.550
 6559POPC   PO442792  29.106  42.293   5.850
 6559POPC   GL142793  29.190  42.359   6.150
 6559POPC   GL242794  29.307  42.294   6.150
 6559POPC   C1A42795  29.144  42.331   6.450
 6559POPC   D2A42796  29.142  42.382   6.750
 6559POPC   C3A42797  29.170  42.353   7.050
 6559POPC   C4A42798  29.147  42.377   7.350
 6559POPC   C1B42799  29.368  42.358   6.450
 6559POPC   C2B42800  29.439  42.288   6.750
 6559POPC   C3B42801  29.395  42.354   7.050
 6559POPC   C4B42802  29.435  42.356   7.350
 6560POPC   NC342803  11.297  33.030   5.550
 6560POPC   PO442804  11.316  33.039   5.850
 6560POPC   GL142805  11.267  33.055   6.150
 6560POPC   GL242806  11.342  32.949   6.150
 6560POPC   C1A42807  11.279  33.042   6.450
 6560POPC   D2A42808  11.265  33.051   6.750
 6560POPC   C3A42809  11.251  33.057   7.050
 6560POPC   C4A42810  11.350  33.066   7.350
 6560POPC   C1B42811  11.389  32.826   6.450
 6560POPC   C2B42812  11.384  32.770   6.750
 6560POPC   C3B42813  11.320  32.830   7.050
 6560POPC   C4B42814  11.331  32.790   7.350
 6561POPC   NC342815   5.045   2.788   5.550
 6561POPC   PO442816   5.118   2.758   5.850
 6561POPC   GL142817   5.057   2.813   6.150
 6561POPC   GL242818   5.208   2.686   6.150
 6561POPC   C1A42819   5.132   2.724   6.450
 6561POPC   D2A42820   5.063   2.738   6.750
 6561POPC   C3A42821   5.130   2.812   7.050
 6561POPC   C4A42822   5.136   2.724   7.350
 6561POPC   C1B42823   5.294   2.593   6.450
 6561POPC   C2B42824   5.270   2.648   6.750
 6561POPC   C3B42825   5.351   2.620   7.050
 6561POPC   C4B42826   5.305   2.603   7.350
 6562POPC   NC342827  29.159  29.120   5.550
 6562POPC   PO442828  29.112  29.180   5.850
 6562POPC   GL142829  29.123  29.105   6.150
 6562POPC   GL242830  29.222  29.252   6.150
 6562POPC   C1A42831  29.162  29.158   6.450
 6562POPC   D2A42832  29.159  29.175   6.750
 6562POPC   C3A42833  29.108  29.152   7.050
 6562POPC   C4A42834  29.098  29.096   7.350
 6562POPC   C1B42835  29.334  29.305   6.450
 6562POPC   C2B42836  29.310  29.307   6.750
 6562POPC   C3B42837  29.324  29.249   7.050
 6562POPC   C4B42838  29.403  29.277   7.350
 6563POPC   NC342839  19.833  27.615   5.550
 6563POPC   PO442840  19.863  27.615   5.850
 6563POPC   GL142841  19.882  27.545   6.150
 6563POPC   GL242842  19.729  27.616   6.150
 6563POPC   C1A42843  19.861  27.577   6.450
 6563POPC   D2A42844  19.830  27.551   6.750
 6563POPC   C3A42845  19.850  27.631   7.050
 6563POPC   C4A42846  19.795  27.575   7.350
 6563POPC   C1B42847  19.593  27.690   6.450
 6563POPC   C2B42848  19.605  27.735   6.750
 6563POPC   C3B42849  19.661  27.738   7.050
 6563POPC   C4B42850  19.667  27.683   7.350
 6564POPC   NC342851   8.996  40.010   5.550
 6564POPC   PO442852   8.966  39.971   5.850
 6564POPC   GL142853   8.939  39.964   6.150
 6564POPC   GL242854   8.917  39.909   6.150
 6564POPC   C1A42855   8.962  39.991   6.450
 6564POPC   D2A42856   8.994  40.002   6.750
 6564POPC   C3A42857   9.017  39.963   7.050
 6564POPC   C4A42858   8.956  40.004   7.350
 6564POPC   C1B42859   8.766  39.803   6.450
 6564POPC   C2B42860   8.785  39.844   6.750
 6564POPC   C3B42861   8.772  39.860   7.050
 6564POPC   C4B42862   8.780  39.798   7.350
 6565POPC   NC342863  36.894  19.824   5.550
 6565POPC   PO442864  36.883  19.852   5.850
 6565POPC   GL142865  36.945  19.858   6.150
 6565POPC   GL242866  36.790  19.783   6.150
 6565POPC   C1A42867  36.943  19.843   6.450
 6565POPC   D2A42868  36.914  19.822   6.750
 6565POPC   C3A42869  36.941  19.821   7.050
 6565POPC   C4A42870  36.916  19.801   7.350
 6565POPC   C1B42871  36.674  19.792   6.450
 6565POPC   C2B42872  36.642  19.817   6.750
 6565POPC   C3B42873  36.609  19.775   7.050
 6565POPC   C4B42874  36.692  19.789   7.350
 6566POPC   NC342875   5.899  15.229   5.550
 6566POPC   PO442876   5.835  15.189   5.850
 6566POPC   GL142877   5.880  15.148   6.150
 6566POPC   GL242878   5.880  15.032   6.150
 6566POPC   C1A42879   5.858  15.151   6.450
 6566POPC   D2A42880   5.852  15.206   6.750
 6566POPC   C3A42881   5.831  15.220   7.050
 6566POPC   C4A42882   5.874  15.152   7.350
 6566POPC   C1B42883   5.918  14.925   6.450
 6566POPC   C2B42884   5.936  14.979   6.750
 6566POPC   C3B42885   5.891  14.939   7.050
 6566POPC   C4B42886   5.977  14.972   7.350
 6567POPC   NC342887   5.824  13.629   5.550
 6567POPC   PO442888   5.898  13.606   5.850
 6567POPC   GL142889   5.862  13.609   6.150
 6567POPC   GL242890   5.978  13.609   6.150
 6567POPC   C1A42891   5.895  13.665   6.450
 6567POPC   D2A42892   5.892  13.605   6.750
 6567POPC   C3A42893   5.881  13.637   7.050
 6567POPC   C4A42894   5.899  13.636   7.350
 6567POPC   C1B42895   6.059  13.567   6.450
 6567POPC   C2B42896   6.067  13.537   6.750
 6567POPC   C3B42897   6.097  13.564   7.050
 6567POPC   C4B42898   6.054  13.530   7.350
 6568POPC   NC342899  38.431  12.126   5.550
 6568POPC   PO442900  38.485  12.066   5.850
 6568POPC   GL142901  38.439  12.114   6.150
 6568POPC   GL242902  38.437  12.220   6.150
 6568POPC   C1A42903  38.474  12.070   6.450
 6568POPC   D2A42904  38.475  12.094   6.750
 6568POPC   C3A42905  38.427  12.040   7.050
 6568POPC   C4A42906  38.484  12.069   7.350
 6568POPC   C1B42907  38.436  12.360   6.450
 6568POPC   C2B42908  38.380  12.272   6.750
 6568POPC   C3B42909  38.402  12.317   7.050
 6568POPC   C4B42910  38.392  12.288   7.350
 6569POPC   NC342911  40.827  25.246   5.550
 6569POPC   PO442912  40.768  25.255   5.850
 6569POPC   GL142913  40.781  25.267   6.150
 6569POPC   GL242914  40.907  25.364   6.150
 6569POPC   C1A42915  40.747  25.221   6.450
 6569POPC   D2A42916  40.755  25.235   6.750
 6569POPC   C3A42917  40.775  25.287   7.050
 6569POPC   C4A42918  40.738  25.236   7.350
 6569POPC   C1B42919  40.916  25.411   6.450
 6569POPC   C2B42920  40.945  25.392   6.750
 6569POPC   C3B42921  40.919  25.402   7.050
 6569POPC   C4B42922  40.956  25.449   7.350
 6570POPC   NC342923  20.580   5.830   5.550
 6570POPC   PO442924  20.638   5.882   5.850
 6570POPC   GL142925  20.642   5.912   6.150
 6570POPC   GL242926  20.743   5.863   6.150
 6570POPC   C1A42927  20.620   5.907   6.450
 6570POPC   D2A42928  20.631   5.882   6.750
 6570POPC   C3A42929  20.638   5.905   7.050
 6570POPC   C4A42930  20.629   5.831   7.350
 6570POPC   C1B42931  20.908   5.933   6.450
 6570POPC   C2B42932  20.836   5.905   6.750
 6570POPC   C3B42933  20.886   5.901   7.050
 6570POPC   C4B42934  20.838   5.858   7.350
 6571POPC   NC342935  16.757   8.230   5.550
 6571POPC   PO442936  16.699   8.217   5.850
 6571POPC   GL142937  16.686   8.181   6.150
 6571POPC   GL242938  16.688   8.343   6.150
 6571POPC   C1A42939  16.742   8.163   6.450
 6571POPC   D2A42940  16.715   8.152   6.750
 6571POPC   C3A42941  16.704   8.205   7.050
 6571POPC   C4A42942  16.775   8.190   7.350
 6571POPC   C1B42943  16.655   8.441   6.450
 6571POPC   C2B42944  16.575   8.394   6.750
 6571POPC   C3B42945  16.587   8.436   7.050
 6571POPC   C4B42946  16.647   8.402   7.350
 6572POPC   NC342947   3.494  31.516   5.550
 6572POPC   PO442948   3.532  31.497   5.850
 6572POPC   GL142949   3.510  31.463   6.150
 6572POPC   GL242950   3.637  31.533   6.150
 6572POPC   C1A42951   3.544  31.511   6.450
 6572POPC   D2A42952   3.553  31.446   6.750
 6572POPC   C3A42953   3.587  31.507   7.050
 6572POPC   C4A42954   3.589  31.454   7.350
 6572POPC   C1B42955   3.720  31.680   6.450
 6572POPC   C2B42956   3.709  31.642   6.750
 6572POPC   C3B42957   3.717  31.673   7.050
 6572POPC   C4B42958   3.696  31.692   7.350
 6573POPC   NC342959  33.771  30.682   5.550
 6573POPC   PO442960  33.753  30.710   5.850
 6573POPC   GL142961  33.798  30.728   6.150
 6573POPC   GL242962  33.958  30.706   6.150
 6573POPC   C1A42963  33.821  30.717   6.450
 6573POPC   D2A42964  33.844  30.687   6.750
 6573POPC   C3A42965  33.756  30.719   7.050
 6573POPC   C4A42966  33.752  30.695   7.350
 6573POPC   C1B42967  34.066  30.705   6.450
 6573POPC   C2B42968  34.091  30.748   6.750
 6573POPC   C3B42969  34.032  30.725   7.050
 6573POPC   C4B42970  34.060  30.766   7.350
 6574POPC   NC342971  17.491  34.575   5.550
 6574POPC   PO442972  17.501  34.550   5.850
 6574POPC   GL142973  17.547  34.585   6.150
 6574POPC   GL242974  17.591  34.475   6.150
 6574POPC   C1A42975  17.490  34.562   6.450
 6574POPC   D2A42976  17.480  34.618   6.750
 6574POPC   C3A42977  17.498  34.600   7.050
 6574POPC   C4A42978  17.514  34.526   7.350
 6574POPC   C1B42979  17.556  34.391   6.450
 6574POPC   C2B42980  17.615  34.313   6.750
 6574POPC   C3B42981  17.599  34.349   7.050
 6574POPC   C4B42982  17.587  34.323   7.350
 6575POPC   NC342983  18.266  15.987   5.550
 6575POPC   PO442984  18.273  15.955   5.850
 6575POPC   GL142985  18.241  16.003   6.150
 6575POPC   GL242986  18.191  16.020   6.150
 6575POPC   C1A42987  18.300  15.943   6.450
 6575POPC   D2A42988  18.234  16.004   6.750
 6575POPC   C3A42989  18.307  15.926   7.050
 6575POPC   C4A42990  18.290  15.971   7.350
 6575POPC   C1B42991  18.135  16.176   6.450
 6575POPC   C2B42992  18.105  16.217   6.750
 6575POPC   C3B42993  18.113  16.214   7.050
 6575POPC   C4B42994  18.157  16.195   7.350
 6576POPC   NC342995   0.401   0.472   5.550
 6576POPC   PO442996   0.423   0.479   5.850
 6576POPC   GL142997   0.461   0.402   6.150
 6576POPC   GL242998   0.345   0.378   6.150
 6576POPC   C1A42999   0.430   0.437   6.450
 6576POPC   D2A43000   0.468   0.419   6.750
 6576POPC   C3A43001   0.402   0.427   7.050
 6576POPC   C4A43002   0.468   0.438   7.350
 6576POPC   C1B43003   0.236   0.389   6.450
 6576POPC   C2B43004   0.220   0.369   6.750
 6576POPC   C3B43005   0.178   0.363   7.050
 6576POPC   C4B43006   0.145   0.358   7.350
 6577POPC   NC343007  11.290  10.564   5.550
 6577POPC   PO443008  11.337  10.531   5.850
 6577POPC   GL143009  11.344  10.543   6.150
 6577POPC   GL243010  11.242  10.646   6.150
 6577POPC   C1A43011  11.254  10.538   6.450
 6577POPC   D2A43012  11.320  10.518   6.750
 6577POPC   C3A43013  11.332  10.491   7.050
 6577POPC   C4A43014  11.264  10.507   7.350
 6577POPC   C1B43015  11.266  10.798   6.450
 6577POPC   C2B43016  11.264  10.754   6.750
 6577POPC   C3B43017  11.244  10.791   7.050
 6577POPC   C4B43018  11.254  10.813   7.350
 6578POPC   NC343019  16.758  44.707   5.550
 6578POPC   PO443020  16.731  44.659   5.850
 6578POPC   GL143021  16.746  44.646   6.150
 6578POPC   GL243022  16.879  44.724   6.150
 6578POPC   C1A43023  16.699  44.672   6.450
 6578POPC   D2A43024  16.728  44.622   6.750
 6578POPC   C3A43025  16.769  44.663   7.050
 6578POPC   C4A43026  16.768  44.625   7.350
 6578POPC   C1B43027  16.965  44.774   6.450
 6578POPC   C2B43028  16.901  44.813   6.750
 6578POPC   C3B43029  16.888  44.776   7.050
 6578POPC   C4B43030  16.980  44.814   7.350
 6579POPC   NC343031  44.678  41.509   5.550
 6579POPC   PO443032  44.708  41.583   5.850
 6579POPC   GL143033  44.632  41.537   6.150
 6579POPC   GL243034  44.705  41.700   6.150
 6579POPC   C1A43035  44.691  41.566   6.450
 6579POPC   D2A43036  44.619  41.583   6.750
 6579POPC   C3A43037  44.645  41.520   7.050
 6579POPC   C4A43038  44.632  41.509   7.350
 6579POPC   C1B43039  44.773  41.799   6.450
 6579POPC   C2B43040  44.813  41.782   6.750
 6579POPC   C3B43041  44.807  41.779   7.050
 6579POPC   C4B43042  44.798  41.795   7.350
 6580POPC   NC343043  41.575  33.789   5.550
 6580POPC   PO443044  41.547  33.829   5.850
 6580POPC   GL143045  41.517  33.816   6.150
 6580POPC   GL243046  41.484  33.932   6.150
 6580POPC   C1A43047  41.536  33.801   6.450
 6580POPC   D2A43048  41.558  33.839   6.750
 6580POPC   C3A43049  41.537  33.776   7.050
 6580POPC   C4A43050  41.570  33.838   7.350
 6580POPC   C1B43051  41.391  33.976   6.450
 6580POPC   C2B43052  41.394  34.000   6.750
 6580POPC   C3B43053  41.352  34.016   7.050
 6580POPC   C4B43054  41.395  33.955   7.350
 6581POPC   NC343055  41.511   0.444   5.550
 6581POPC   PO443056  41.608   0.459   5.850
 6581POPC   GL143057  41.545   0.442   6.150
 6581POPC   GL243058  41.558   0.580   6.150
 6581POPC   C1A43059  41.536   0.420   6.450
 6581POPC   D2A43060  41.515   0.454   6.750
 6581POPC   C3A43061  41.575   0.451   7.050
 6581POPC   C4A43062  41.518   0.404   7.350
 6581POPC   C1B43063  41.523   0.659   6.450
 6581POPC   C2B43064  41.490   0.667   6.750
 6581POPC   C3B43065  41.507   0.642   7.050
 6581POPC   C4B43066  41.527   0.693   7.350
 6582POPC   NC343067   1.959  33.018   5.550
 6582POPC   PO443068   2.026  33.064   5.850
 6582POPC   GL143069   2.002  33.016   6.150
 6582POPC   GL243070   1.868  32.963   6.150
 6582POPC   C1A43071   2.002  32.978   6.450
 6582POPC   D2A43072   1.985  33.068   6.750
 6582POPC   C3A43073   1.944  33.038   7.050
 6582POPC   C4A43074   2.038  33.049   7.350
 6582POPC   C1B43075   1.695  32.973   6.450
 6582POPC   C2B43076   1.743  33.016   6.750
 6582POPC   C3B43077   1.755  33.024   7.050
 6582POPC   C4B43078   1.776  33.011   7.350
 6583POPC   NC343079   8.236   3.515   5.550
 6583POPC   PO443080   8.231   3.563   5.850
 6583POPC   GL143081   8.216   3.550   6.150
 6583POPC   GL243082   8.308   3.480   6.150
 6583POPC   C1A43083   8.199   3.492   6.450
 6583POPC   D2A43084   8.210   3.492   6.750
 6583POPC   C3A43085   8.192   3.499   7.050
 6583POPC   C4A43086   8.224   3.512   7.350
 6583POPC   C1B43087   8.428   3.496   6.450
 6583POPC   C2B43088   8.457   3.431   6.750
 6583POPC   C3B43089   8.459   3.451   7.050
 6583POPC   C4B43090   8.486   3.434   7.350
 6584POPC   NC343091   1.233   5.867   5.550
 6584POPC   PO443092   1.168   5.821   5.850
 6584POPC   GL143093   1.211   5.825   6.150
 6584POPC   GL243094   1.168   5.743   6.150
 6584POPC   C1A43095   1.184   5.848   6.450
 6584POPC   D2A43096   1.181   5.883   6.750
 6584POPC   C3A43097   1.227   5.893   7.050
 6584POPC   C4A43098   1.211   5.916   7.350
 6584POPC   C1B43099   1.076   5.660   6.450
 6584POPC   C2B43100   1.113   5.610   6.750
 6584POPC   C3B43101   1.078   5.668   7.050
 6584POPC   C4B43102   1.097   5.667   7.350
 6585POPC   NC343103  19.029  24.510   5.550
 6585POPC   PO443104  19.031  24.517   5.850
 6585POPC   GL143105  19.084  24.476   6.150
 6585POPC   GL243106  18.977  24.420   6.150
 6585POPC   C1A43107  19.013  24.475   6.450
 6585POPC   D2A43108  19.061  24.455   6.750
 6585POPC   C3A43109  19.103  24.538   7.050
 6585POPC   C4A43110  19.055  24.482   7.350
 6585POPC   C1B43111  18.912  24.252   6.450
 6585POPC   C2B43112  18.964  24.274   6.750
 6585POPC   C3B43113  18.974  24.292   7.050
 6585POPC   C4B43114  18.962  24.251   7.350
 6586POPC   NC343115   8.198  16.762   5.550
 6586POPC   PO443116   8.205  16.770   5.850
 6586POPC   GL143117   8.240  16.757   6.150
 6586POPC   GL243118   8.165  16.654   6.150
 6586POPC   C1A43119   8.149  16.686   6.450
 6586POPC   D2A43120   8.182  16.756   6.750
 6586POPC   C3A43121   8.149  16.701   7.050
 6586POPC   C4A43122   8.236  16.732   7.350
 6586POPC   C1B43123   8.201  16.476   6.450
 6586POPC   C2B43124   8.246  16.489   6.750
 6586POPC   C3B43125   8.160  16.518   7.050
 6586POPC   C4B43126   8.180  16.434   7.350
 6587POPC   NC343127  34.534  42.316   5.550
 6587POPC   PO443128  34.611  42.321   5.850
 6587POPC   GL143129  34.543  42.324   6.150
 6587POPC   GL243130  34.506  42.207   6.150
 6587POPC   C1A43131  34.565  42.331   6.450
 6587POPC   D2A43132  34.558  42.299   6.750
 6587POPC   C3A43133  34.536  42.355   7.050
 6587POPC   C4A43134  34.598  42.367   7.350
 6587POPC   C1B43135  34.474  42.157   6.450
 6587POPC   C2B43136  34.446  42.079   6.750
 6587POPC   C3B43137  34.405  42.150   7.050
 6587POPC   C4B43138  34.468  42.152   7.350
 6588POPC   NC343139   8.238  14.372   5.550
 6588POPC   PO443140   8.222  14.421   5.850
 6588POPC   GL143141   8.231  14.449   6.150
 6588POPC   GL243142   8.263  14.469   6.150
 6588POPC   C1A43143   8.147  14.374   6.450
 6588POPC   D2A43144   8.214  14.377   6.750
 6588POPC   C3A43145   8.172  14.437   7.050
 6588POPC   C4A43146   8.155  14.389   7.350
 6588POPC   C1B43147   8.379  14.585   6.450
 6588POPC   C2B43148   8.408  14.572   6.750
 6588POPC   C3B43149   8.413  14.516   7.050
 6588POPC   C4B43150   8.421  14.541   7.350
 6589POPC   NC343151  39.232   2.000   5.550
 6589POPC   PO443152  39.194   1.942   5.850
 6589POPC   GL143153  39.209   1.999   6.150
 6589POPC   GL243154  39.304   2.079   6.150
 6589POPC   C1A43155  39.270   2.031   6.450
 6589POPC   D2A43156  39.260   2.014   6.750
 6589POPC   C3A43157  39.260   2.035   7.050
 6589POPC   C4A43158  39.250   2.034   7.350
 6589POPC   C1B43159  39.360   2.210   6.450
 6589POPC   C2B43160  39.340   2.171   6.750
 6589POPC   C3B43161  39.329   2.170   7.050
 6589POPC   C4B43162  39.398   2.211   7.350
 6590POPC   NC343163  30.669  37.688   5.550
 6590POPC   PO443164  30.671  37.688   5.850
 6590POPC   GL143165  30.714  37.698   6.150
 6590POPC   GL243166  30.764  37.551   6.150
 6590POPC   C1A43167  30.670  37.681   6.450
 6590POPC   D2A43168  30.696  37.696   6.750
 6590POPC   C3A43169  30.693  37.654   7.050
 6590POPC   C4A43170  30.728  37.670   7.350
 6590POPC   C1B43171  30.843  37.476   6.450
 6590POPC   C2B43172  30.868  37.443   6.750
 6590POPC   C3B43173  30.810  37.474   7.050
 6590POPC   C4B43174  30.875  37.471   7.350
 6591POPC   NC343175  19.853  26.829   5.550
 6591POPC   PO443176  19.793  26.854   5.850
 6591POPC   GL143177  19.871  26.770   6.150
 6591POPC   GL243178  19.785  26.879   6.150
 6591POPC   C1A43179  19.827  26.834   6.450
 6591POPC   D2A43180  19.846  26.834   6.750
 6591POPC   C3A43181  19.831  26.852   7.050
 6591POPC   C4A43182  19.838  26.836   7.350
 6591POPC   C1B43183  19.698  26.968   6.450
 6591POPC   C2B43184  19.637  26.982   6.750
 6591POPC   C3B43185  19.682  27.023   7.050
 6591POPC   C4B43186  19.670  26.989   7.350
 6592POPC   NC343187  36.115   3.524   5.550
 6592POPC   PO443188  36.166   3.543   5.850
 6592POPC   GL143189  36.132   3.572   6.150
 6592POPC   GL243190  36.144   3.669   6.150
 6592POPC   C1A43191  36.115   3.576   6.450
 6592POPC   D2A43192  36.123   3.569   6.750
 6592POPC   C3A43193  36.142   3.587   7.050
 6592POPC   C4A43194  36.097   3.564   7.350
 6592POPC   C1B43195  36.111   3.751   6.450
 6592POPC   C2B43196  36.110   3.792   6.750
 6592POPC   C3B43197  36.126   3.783   7.050
 6592POPC   C4B43198  36.149   3.774   7.350
 6593POPC   NC343199  41.517   6.680   5.550
 6593POPC   PO443200  41.570   6.676   5.850
 6593POPC   GL143201  41.585   6.638   6.150
 6593POPC   GL243202  41.432   6.706   6.150
 6593POPC   C1A43203  41.542   6.691   6.450
 6593POPC   D2A43204  41.545   6.624   6.750
 6593POPC   C3A43205  41.601   6.631   7.050
 6593POPC   C4A43206  41.541   6.671   7.350
 6593POPC   C1B43207  41.325   6.800   6.450
 6593POPC   C2B43208  41.347   6.723   6.750
 6593POPC   C3B43209  41.309   6.763   7.050
 6593POPC   C4B43210  41.341   6.758   7.350
 6594POPC   NC343211  23.717  26.863   5.550
 6594POPC   PO443212  23.714  26.826   5.850
 6594POPC   GL143213  23.735  26.794   6.150
 6594POPC   GL243214  23.815  26.847   6.150
 6594POPC   C1A43215  23.747  26.825   6.450
 6594POPC   D2A43216  23.721  26.865   6.750
 6594POPC   C3A43217  23.734  26.781   7.050
 6594POPC   C4A43218  23.739  26.827   7.350
 6594POPC   C1B43219  23.983  26.833   6.450
 6594POPC   C2B43220  23.959  26.857   6.750
 6594POPC   C3B43221  23.992  26.886   7.050
 6594POPC   C4B43222  23.967  26.808   7.350
 6595POPC   NC343223  36.878  35.366   5.550
 6595POPC   PO443224  36.894  35.334   5.850
 6595POPC   GL143225  36.935  35.352   6.150
 6595POPC   GL243226  36.995  35.457   6.150
 6595POPC   C1A43227  36.912  35.304   6.450
 6595POPC   D2A43228  36.863  35.320   6.750
 6595POPC   C3A43229  36.927  35.331   7.050
 6595POPC   C4A43230  36.950  35.369   7.350
 6595POPC   C1B43231  37.069  35.562   6.450
 6595POPC   C2B43232  37.074  35.568   6.750
 6595POPC   C3B43233  37.108  35.504   7.050
 6595POPC   C4B43234  37.076  35.511   7.350
 6596POPC   NC343235   9.708   5.890   5.550
 6596POPC   PO443236   9.737   5.906   5.850
 6596POPC   GL143237   9.781   5.838   6.150
 6596POPC   GL243238   9.873   5.871   6.150
 6596POPC   C1A43239   9.750   5.879   6.450
 6596POPC   D2A43240   9.754   5.876   6.750
 6596POPC   C3A43241   9.727   5.868   7.050
 6596POPC   C4A43242   9.720   5.822   7.350
 6596POPC   C1B43243   9.975   5.933   6.450
 6596POPC   C2B43244   9.975   5.846   6.750
 6596POPC   C3B43245  10.032   5.858   7.050
 6596POPC   C4B43246   9.962   5.924   7.350
 6597POPC   NC343247  15.211  15.219   5.550
 6597POPC   PO443248  15.140  15.136   5.850
 6597POPC   GL143249  15.147  15.169   6.150
 6597POPC   GL243250  15.114  15.079   6.150
 6597POPC   C1A43251  15.201  15.130   6.450
 6597POPC   D2A43252  15.134  15.183   6.750
 6597POPC   C3A43253  15.224  15.173   7.050
 6597POPC   C4A43254  15.159  15.226   7.350
 6597POPC   C1B43255  15.008  15.002   6.450
 6597POPC   C2B43256  14.984  14.989   6.750
 6597POPC   C3B43257  15.069  15.018   7.050
 6597POPC   C4B43258  15.018  14.955   7.350
 6598POPC   NC343259  33.058   9.710   5.550
 6598POPC   PO443260  33.030   9.749   5.850
 6598POPC   GL143261  33.066   9.722   6.150
 6598POPC   GL243262  32.962   9.905   6.150
 6598POPC   C1A43263  33.048   9.730   6.450
 6598POPC   D2A43264  33.072   9.729   6.750
 6598POPC   C3A43265  33.062   9.763   7.050
 6598POPC   C4A43266  33.039   9.785   7.350
 6598POPC   C1B43267  32.920   9.945   6.450
 6598POPC   C2B43268  32.938   9.974   6.750
 6598POPC   C3B43269  32.925   9.973   7.050
 6598POPC   C4B43270  32.950   9.993   7.350
 6599POPC   NC343271  39.247  22.176   5.550
 6599POPC   PO443272  39.235  22.198   5.850
 6599POPC   GL143273  39.220  22.160   6.150
 6599POPC   GL243274  39.147  22.138   6.150
 6599POPC   C1A43275  39.193  22.179   6.450
 6599POPC   D2A43276  39.255  22.142   6.750
 6599POPC   C3A43277  39.259  22.123   7.050
 6599POPC   C4A43278  39.203  22.143   7.350
 6599POPC   C1B43279  38.974  22.216   6.450
 6599POPC   C2B43280  38.971  22.223   6.750
 6599POPC   C3B43281  38.984  22.226   7.050
 6599POPC   C4B43282  38.972  22.197   7.350
 6600POPC   NC343283  33.782  15.917   5.550
 6600POPC   PO443284  33.804  15.932   5.850
 6600POPC   GL143285  33.829  15.981   6.150
 6600POPC   GL243286  33.719  16.065   6.150
 6600POPC   C1A43287  33.769  15.933   6.450
 6600POPC   D2A43288  33.819  15.919   6.750
 6600POPC   C3A43289  33.809  15.958   7.050
 6600POPC   C4A43290  33.759  15.952   7.350
 6600POPC   C1B43291  33.602  16.062   6.450
 6600POPC   C2B43292  33.604  16.135   6.750
 6600POPC   C3B43293  33.619  16.112   7.050
 6600POPC   C4B43294  33.571  16.136   7.350
 6601POPC   NC343295  36.904  42.347   5.550
 6601POPC   PO443296  36.873  42.296   5.850
 6601POPC   GL143297  36.904  42.323   6.150
 6601POPC   GL243298  36.958  42.408   6.150
 6601POPC   C1A43299  36.942  42.294   6.450
 6601POPC   D2A43300  36.872  42.331   6.750
 6601POPC   C3A43301  36.899  42.347   7.050
 6601POPC   C4A43302  36.939  42.325   7.350
 6601POPC   C1B43303  36.924  42.557   6.450
 6601POPC   C2B43304  36.930  42.570   6.750
 6601POPC   C3B43305  36.946  42.558   7.050
 6601POPC   C4B43306  36.974  42.627   7.350
 6602POPC   NC343307  35.364  15.926   5.550
 6602POPC   PO443308  35.354  15.931   5.850
 6602POPC   GL143309  35.329  15.991   6.150
 6602POPC   GL243310  35.433  15.973   6.150
 6602POPC   C1A43311  35.377  15.936   6.450
 6602POPC   D2A43312  35.370  15.912   6.750
 6602POPC   C3A43313  35.302  15.993   7.050
 6602POPC   C4A43314  35.309  16.005   7.350
 6602POPC   C1B43315  35.614  16.024   6.450
 6602POPC   C2B43316  35.523  16.068   6.750
 6602POPC   C3B43317  35.550  16.087   7.050
 6602POPC   C4B43318  35.551  16.075   7.350
 6603POPC   NC343319  24.470  28.353   5.550
 6603POPC   PO443320  24.474  28.376   5.850
 6603POPC   GL143321  24.505  28.409   6.150
 6603POPC   GL243322  24.587  28.293   6.150
 6603POPC   C1A43323  24.517  28.382   6.450
 6603POPC   D2A43324  24.536  28.392   6.750
 6603POPC   C3A43325  24.470  28.397   7.050
 6603POPC   C4A43326  24.528  28.374   7.350
 6603POPC   C1B43327  24.637  28.199   6.450
 6603POPC   C2B43328  24.682  28.185   6.750
 6603POPC   C3B43329  24.653  28.162   7.050
 6603POPC   C4B43330  24.697  28.202   7.350
 6604POPC   NC343331  15.130  29.898   5.550
 6604POPC   PO443332  15.206  29.966   5.850
 6604POPC   GL143333  15.178  29.890   6.150
 6604POPC   GL243334  15.163  30.030   6.150
 6604POPC   C1A43335  15.227  29.933   6.450
 6604POPC   D2A43336  15.135  29.871   6.750
 6604POPC   C3A43337  15.154  29.892   7.050
 6604POPC   C4A43338  15.222  29.932   7.350
 6604POPC   C1B43339  15.179  30.146   6.450
 6604POPC   C2B43340  15.196  30.125   6.750
 6604POPC   C3B43341  15.155  30.181   7.050
 6604POPC   C4B43342  15.221  30.187   7.350
 6605POPC   NC343343   1.197   0.433   5.550
 6605POPC   PO443344   1.220   0.480   5.850
 6605POPC   GL143345   1.164   0.420   6.150
 6605POPC   GL243346   1.129   0.471   6.150
 6605POPC   C1A43347   1.216   0.468   6.450
 6605POPC   D2A43348   1.191   0.483   6.750
 6605POPC   C3A43349   1.218   0.442   7.050
 6605POPC   C4A43350   1.235   0.464   7.350
 6605POPC   C1B43351   0.973   0.432   6.450
 6605POPC   C2B43352   0.940   0.457   6.750
 6605POPC   C3B43353   0.988   0.420   7.050
 6605POPC   C4B43354   0.994   0.457   7.350
 6606POPC   NC343355  12.807   2.742   5.550
 6606POPC   PO443356  12.832   2.790   5.850
 6606POPC   GL143357  12.840   2.743   6.150
 6606POPC   GL243358  12.880   2.892   6.150
 6606POPC   C1A43359  12.887   2.783   6.450
 6606POPC   D2A43360  12.844   2.780   6.750
 6606POPC   C3A43361  12.863   2.733   7.050
 6606POPC   C4A43362  12.823   2.787   7.350
 6606POPC   C1B43363  12.929   3.032   6.450
 6606POPC   C2B43364  13.013   2.957   6.750
 6606POPC   C3B43365  13.020   2.976   7.050
 6606POPC   C4B43366  12.951   2.990   7.350
 6607POPC   NC343367  17.481  36.909   5.550
 6607POPC   PO443368  17.498  36.855   5.850
 6607POPC   GL143369  17.460  36.930   6.150
 6607POPC   GL243370  17.402  36.966   6.150
 6607POPC   C1A43371  17.468  36.935   6.450
 6607POPC   D2A43372  17.496  36.925   6.750
 6607POPC   C3A43373  17.521  36.854   7.050
 6607POPC   C4A43374  17.467  36.887   7.350
 6607POPC   C1B43375  17.423  37.094   6.450
 6607POPC   C2B43376  17.438  37.162   6.750
 6607POPC   C3B43377  17.418  37.135   7.050
 6607POPC   C4B43378  17.427  37.134   7.350
 6608POPC   NC343379  39.265  14.378   5.550
 6608POPC   PO443380  39.224  14.385   5.850
 6608POPC   GL143381  39.269  14.439   6.150
 6608POPC   GL243382  39.323  14.293   6.150
 6608POPC   C1A43383  39.240  14.366   6.450
 6608POPC   D2A43384  39.267  14.422   6.750
 6608POPC   C3A43385  39.206  14.396   7.050
 6608POPC   C4A43386  39.186  14.375   7.350
 6608POPC   C1B43387  39.433  14.230   6.450
 6608POPC   C2B43388  39.402  14.205   6.750
 6608POPC   C3B43389  39.379  14.236   7.050
 6608POPC   C4B43390  39.369  14.252   7.350
 6609POPC   NC343391  28.346  22.967   5.550
 6609POPC   PO443392  28.371  22.921   5.850
 6609POPC   GL143393  28.346  22.897   6.150
 6609POPC   GL243394  28.363  22.804   6.150
 6609POPC   C1A43395  28.410  22.904   6.450
 6609POPC   D2A43396  28.417  22.961   6.750
 6609POPC   C3A43397  28.338  22.954   7.050
 6609POPC   C4A43398  28.396  22.977   7.350
 6609POPC   C1B43399  28.308  22.754   6.450
 6609POPC   C2B43400  28.306  22.700   6.750
 6609POPC   C3B43401  28.321  22.674   7.050
 6609POPC   C4B43402  28.230  22.707   7.350
 6610POPC   NC343403  22.147   2.761   5.550
 6610POPC   PO443404  22.132   2.747   5.850
 6610POPC   GL143405  22.211   2.807   6.150
 6610POPC   GL243406  22.202   2.901   6.150
 6610POPC   C1A43407  22.127   2.779   6.450
 6610POPC   D2A43408  22.174   2.811   6.750
 6610POPC   C3A43409  22.138   2.720   7.050
 6610POPC   C4A43410  22.162   2.747   7.350
 6610POPC   C1B43411  22.185   3.049   6.450
 6610POPC   C2B43412  22.227   3.049   6.750
 6610POPC   C3B43413  22.183   3.049   7.050
 6610POPC   C4B43414  22.214   3.049   7.350
 6611POPC   NC343415   5.068  33.043   5.550
 6611POPC   PO443416   5.105  33.021   5.850
 6611POPC   GL143417   5.075  33.038   6.150
 6611POPC   GL243418   5.131  32.886   6.150
 6611POPC   C1A43419   5.127  32.986   6.450
 6611POPC   D2A43420   5.138  32.996   6.750
 6611POPC   C3A43421   5.076  33.070   7.050
 6611POPC   C4A43422   5.131  33.014   7.350
 6611POPC   C1B43423   5.138  32.817   6.450
 6611POPC   C2B43424   5.070  32.786   6.750
 6611POPC   C3B43425   5.136  32.813   7.050
 6611POPC   C4B43426   5.155  32.823   7.350
 6612POPC   NC343427   8.925  29.945   5.550
 6612POPC   PO443428   8.930  29.948   5.850
 6612POPC   GL143429   8.945  29.928   6.150
 6612POPC   GL243430   8.889  29.873   6.150
 6612POPC   C1A43431   8.985  29.956   6.450
 6612POPC   D2A43432   8.966  29.898   6.750
 6612POPC   C3A43433   8.925  29.921   7.050
 6612POPC   C4A43434   9.004  29.926   7.350
 6612POPC   C1B43435   8.705  29.834   6.450
 6612POPC   C2B43436   8.726  29.796   6.750
 6612POPC   C3B43437   8.742  29.771   7.050
 6612POPC   C4B43438   8.793  29.798   7.350
 6613POPC   NC343439  44.650  43.068   5.550
 6613POPC   PO443440  44.634  43.080   5.850
 6613POPC   GL143441  44.712  43.090   6.150
 6613POPC   GL243442  44.699  42.990   6.150
 6613POPC   C1A43443  44.664  43.071   6.450
 6613POPC   D2A43444  44.667  43.093   6.750
 6613POPC   C3A43445  44.658  43.102   7.050
 6613POPC   C4A43446  44.628  43.138   7.350
 6613POPC   C1B43447  44.833  42.919   6.450
 6613POPC   C2B43448  44.871  42.958   6.750
 6613POPC   C3B43449  44.784  42.956   7.050
 6613POPC   C4B43450  44.814  42.884   7.350
 6614POPC   NC343451  24.487  39.220   5.550
 6614POPC   PO443452  24.519  39.277   5.850
 6614POPC   GL143453  24.478  39.191   6.150
 6614POPC   GL243454  24.361  39.225   6.150
 6614POPC   C1A43455  24.504  39.245   6.450
 6614POPC   D2A43456  24.509  39.183   6.750
 6614POPC   C3A43457  24.485  39.275   7.050
 6614POPC   C4A43458  24.511  39.227   7.350
 6614POPC   C1B43459  24.244  39.198   6.450
 6614POPC   C2B43460  24.228  39.234   6.750
 6614POPC   C3B43461  24.283  39.166   7.050
 6614POPC   C4B43462  24.288  39.180   7.350
 6615POPC   NC343463   0.481   5.837   5.550
 6615POPC   PO443464   0.405   5.881   5.850
 6615POPC   GL143465   0.449   5.825   6.150
 6615POPC   GL243466   0.509   5.974   6.150
 6615POPC   C1A43467   0.405   5.883   6.450
 6615POPC   D2A43468   0.456   5.898   6.750
 6615POPC   C3A43469   0.468   5.823   7.050
 6615POPC   C4A43470   0.404   5.828   7.350
 6615POPC   C1B43471   0.683   5.956   6.450
 6615POPC   C2B43472   0.640   5.974   6.750
 6615POPC   C3B43473   0.681   6.022   7.050
 6615POPC   C4B43474   0.697   5.959   7.350
 6616POPC   NC343475  30.674   3.586   5.550
 6616POPC   PO443476  30.683   3.540   5.850
 6616POPC   GL143477  30.728   3.540   6.150
 6616POPC   GL243478  30.844   3.552   6.150
 6616POPC   C1A43479  30.649   3.496   6.450
 6616POPC   D2A43480  30.732   3.494   6.750
 6616POPC   C3A43481  30.681   3.496   7.050
 6616POPC   C4A43482  30.711   3.541   7.350
 6616POPC   C1B43483  30.905   3.631   6.450
 6616POPC   C2B43484  30.942   3.664   6.750
 6616POPC   C3B43485  30.919   3.607   7.050
 6616POPC   C4B43486  30.914   3.648   7.350
 6617POPC   NC343487   7.467  29.880   5.550
 6617POPC   PO443488   7.389  29.901   5.850
 6617POPC   GL143489   7.460  29.923   6.150
 6617POPC   GL243490   7.532  29.983   6.150
 6617POPC   C1A43491   7.469  29.966   6.450
 6617POPC   D2A43492   7.469  29.936   6.750
 6617POPC   C3A43493   7.458  29.874   7.050
 6617POPC   C4A43494   7.428  29.942   7.350
 6617POPC   C1B43495   7.623  29.991   6.450
 6617POPC   C2B43496   7.613  30.027   6.750
 6617POPC   C3B43497   7.658  30.025   7.050
 6617POPC   C4B43498   7.633  29.971   7.350
 6618POPC   NC343499  43.063   1.181   5.550
 6618POPC   PO443500  43.144   1.222   5.850
 6618POPC   GL143501  43.095   1.224   6.150
 6618POPC   GL243502  43.198   1.245   6.150
 6618POPC   C1A43503  43.131   1.225   6.450
 6618POPC   D2A43504  43.149   1.188   6.750
 6618POPC   C3A43505  43.110   1.227   7.050
 6618POPC   C4A43506  43.101   1.169   7.350
 6618POPC   C1B43507  43.383   1.238   6.450
 6618POPC   C2B43508  43.386   1.242   6.750
 6618POPC   C3B43509  43.310   1.258   7.050
 6618POPC   C4B43510  43.363   1.302   7.350
 6619POPC   NC343511  39.265  43.861   5.550
 6619POPC   PO443512  39.206  43.920   5.850
 6619POPC   GL143513  39.235  43.912   6.150
 6619POPC   GL243514  39.348  44.001   6.150
 6619POPC   C1A43515  39.273  43.879   6.450
 6619POPC   D2A43516  39.197  43.864   6.750
 6619POPC   C3A43517  39.214  43.865   7.050
 6619POPC   C4A43518  39.256  43.931   7.350
 6619POPC   C1B43519  39.445  44.074   6.450
 6619POPC   C2B43520  39.409  44.019   6.750
 6619POPC   C3B43521  39.447  44.079   7.050
 6619POPC   C4B43522  39.357  44.083   7.350
 6620POPC   NC343523  28.364  19.024   5.550
 6620POPC   PO443524  28.347  19.085   5.850
 6620POPC   GL143525  28.332  19.036   6.150
 6620POPC   GL243526  28.266  19.024   6.150
 6620POPC   C1A43527  28.399  19.030   6.450
 6620POPC   D2A43528  28.405  19.037   6.750
 6620POPC   C3A43529  28.384  19.036   7.050
 6620POPC   C4A43530  28.400  19.054   7.350
 6620POPC   C1B43531  28.187  18.981   6.450
 6620POPC   C2B43532  28.194  18.978   6.750
 6620POPC   C3B43533  28.176  18.969   7.050
 6620POPC   C4B43534  28.132  18.885   7.350
 6621POPC   NC343535  13.630   2.753   5.550
 6621POPC   PO443536  13.620   2.811   5.850
 6621POPC   GL143537  13.676   2.739   6.150
 6621POPC   GL243538  13.664   2.854   6.150
 6621POPC   C1A43539  13.586   2.759   6.450
 6621POPC   D2A43540  13.623   2.763   6.750
 6621POPC   C3A43541  13.666   2.780   7.050
 6621POPC   C4A43542  13.614   2.742   7.350
 6621POPC   C1B43543  13.656   2.970   6.450
 6621POPC   C2B43544  13.695   3.053   6.750
 6621POPC   C3B43545  13.717   3.034   7.050
 6621POPC   C4B43546  13.705   2.977   7.350
 6622POPC   NC343547  44.688  23.666   5.550
 6622POPC   PO443548  44.705  23.705   5.850
 6622POPC   GL143549  44.631  23.715   6.150
 6622POPC   GL243550  44.634  23.567   6.150
 6622POPC   C1A43551  44.705  23.695   6.450
 6622POPC   D2A43552  44.619  23.707   6.750
 6622POPC   C3A43553  44.650  23.716   7.050
 6622POPC   C4A43554  44.669  23.673   7.350
 6622POPC   C1B43555  44.585  23.458   6.450
 6622POPC   C2B43556  44.566  23.478   6.750
 6622POPC   C3B43557  44.633  23.432   7.050
 6622POPC   C4B43558  44.608  23.438   7.350
 6623POPC   NC343559  24.448  44.707   5.550
 6623POPC   PO443560  24.510  44.673   5.850
 6623POPC   GL143561  24.496  44.647   6.150
 6623POPC   GL243562  24.383  44.689   6.150
 6623POPC   C1A43563  24.529  44.683   6.450
 6623POPC   D2A43564  24.453  44.615   6.750
 6623POPC   C3A43565  24.486  44.677   7.050
 6623POPC   C4A43566  24.509  44.702   7.350
 6623POPC   C1B43567  24.206  44.670   6.450
 6623POPC   C2B43568  24.222  44.602   6.750
 6623POPC   C3B43569  24.268  44.624   7.050
 6623POPC   C4B43570  24.251  44.606   7.350
 6624POPC   NC343571  18.257  38.445   5.550
 6624POPC   PO443572  18.235  38.501   5.850
 6624POPC   GL143573  18.323  38.500   6.150
 6624POPC   GL243574  18.381  38.376   6.150
 6624POPC   C1A43575  18.312  38.427   6.450
 6624POPC   D2A43576  18.295  38.493   6.750
 6624POPC   C3A43577  18.311  38.498   7.050
 6624POPC   C4A43578  18.239  38.457   7.350
 6624POPC   C1B43579  18.469  38.228   6.450
 6624POPC   C2B43580  18.481  38.238   6.750
 6624POPC   C3B43581  18.494  38.231   7.050
 6624POPC   C4B43582  18.471  38.299   7.350
 6625POPC   NC343583   1.222  34.577   5.550
 6625POPC   PO443584   1.249  34.625   5.850
 6625POPC   GL143585   1.215  34.537   6.150
 6625POPC   GL243586   1.099  34.580   6.150
 6625POPC   C1A43587   1.258  34.537   6.450
 6625POPC   D2A43588   1.237  34.542   6.750
 6625POPC   C3A43589   1.249  34.588   7.050
 6625POPC   C4A43590   1.176  34.613   7.350
 6625POPC   C1B43591   0.954  34.455   6.450
 6625POPC   C2B43592   0.988  34.473   6.750
 6625POPC   C3B43593   1.020  34.531   7.050
 6625POPC   C4B43594   1.021  34.457   7.350
 6626POPC   NC343595  18.249  19.081   5.550
 6626POPC   PO443596  18.260  19.025   5.850
 6626POPC   GL143597  18.256  19.018   6.150
 6626POPC   GL243598  18.380  19.048   6.150
 6626POPC   C1A43599  18.235  19.086   6.450
 6626POPC   D2A43600  18.293  19.062   6.750
 6626POPC   C3A43601  18.285  19.016   7.050
 6626POPC   C4A43602  18.283  19.010   7.350
 6626POPC   C1B43603  18.561  19.123   6.450
 6626POPC   C2B43604  18.544  19.148   6.750
 6626POPC   C3B43605  18.542  19.128   7.050
 6626POPC   C4B43606  18.496  19.112   7.350
 6627POPC   NC343607  40.813  33.787   5.550
 6627POPC   PO443608  40.791  33.782   5.850
 6627POPC   GL143609  40.756  33.795   6.150
 6627POPC   GL243610  40.614  33.761   6.150
 6627POPC   C1A43611  40.739  33.786   6.450
 6627POPC   D2A43612  40.744  33.757   6.750
 6627POPC   C3A43613  40.830  33.826   7.050
 6627POPC   C4A43614  40.808  33.798   7.350
 6627POPC   C1B43615  40.511  33.764   6.450
 6627POPC   C2B43616  40.563  33.737   6.750
 6627POPC   C3B43617  40.533  33.768   7.050
 6627POPC   C4B43618  40.538  33.782   7.350
 6628POPC   NC343619   0.435  23.758   5.550
 6628POPC   PO443620   0.396  23.704   5.850
 6628POPC   GL143621   0.392  23.673   6.150
 6628POPC   GL243622   0.544  23.659   6.150
 6628POPC   C1A43623   0.420  23.725   6.450
 6628POPC   D2A43624   0.430  23.700   6.750
 6628POPC   C3A43625   0.469  23.685   7.050
 6628POPC   C4A43626   0.442  23.667   7.350
 6628POPC   C1B43627   0.720  23.626   6.450
 6628POPC   C2B43628   0.653  23.677   6.750
 6628POPC   C3B43629   0.650  23.662   7.050
 6628POPC   C4B43630   0.670  23.654   7.350
 6629POPC   NC343631  23.727  28.342   5.550
 6629POPC   PO443632  23.759  28.335   5.850
 6629POPC   GL143633  23.722  28.384   6.150
 6629POPC   GL243634  23.567  28.456   6.150
 6629POPC   C1A43635  23.692  28.407   6.450
 6629POPC   D2A43636  23.726  28.349   6.750
 6629POPC   C3A43637  23.702  28.329   7.050
 6629POPC   C4A43638  23.665  28.348   7.350
 6629POPC   C1B43639  23.544  28.545   6.450
 6629POPC   C2B43640  23.513  28.524   6.750
 6629POPC   C3B43641  23.522  28.519   7.050
 6629POPC   C4B43642  23.487  28.488   7.350
 6630POPC   NC343643  15.956  12.864   5.550
 6630POPC   PO443644  15.952  12.826   5.850
 6630POPC   GL143645  15.990  12.822   6.150
 6630POPC   GL243646  16.093  12.959   6.150
 6630POPC   C1A43647  15.977  12.826   6.450
 6630POPC   D2A43648  16.001  12.886   6.750
 6630POPC   C3A43649  15.939  12.900   7.050
 6630POPC   C4A43650  15.919  12.841   7.350
 6630POPC   C1B43651  16.156  13.072   6.450
 6630POPC   C2B43652  16.172  13.066   6.750
 6630POPC   C3B43653  16.186  13.061   7.050
 6630POPC   C4B43654  16.168  13.064   7.350
 6631POPC   NC343655  39.225   4.274   5.550
 6631POPC   PO443656  39.238   4.334   5.850
 6631POPC   GL143657  39.221   4.305   6.150
 6631POPC   GL243658  39.161   4.213   6.150
 6631POPC   C1A43659  39.265   4.301   6.450
 6631POPC   D2A43660  39.270   4.365   6.750
 6631POPC   C3A43661  39.235   4.329   7.050
 6631POPC   C4A43662  39.215   4.311   7.350
 6631POPC   C1B43663  39.160   4.043   6.450
 6631POPC   C2B43664  39.133   4.109   6.750
 6631POPC   C3B43665  39.175   4.075   7.050
 6631POPC   C4B43666  39.127   4.109   7.350
 6632POPC   NC343667   8.163   8.174   5.550
 6632POPC   PO443668   8.233   8.210   5.850
 6632POPC   GL143669   8.213   8.152   6.150
 6632POPC   GL243670   8.178   8.285   6.150
 6632POPC   C1A43671   8.149   8.214   6.450
 6632POPC   D2A43672   8.204   8.239   6.750
 6632POPC   C3A43673   8.194   8.174   7.050
 6632POPC   C4A43674   8.147   8.158   7.350
 6632POPC   C1B43675   8.229   8.477   6.450
 6632POPC   C2B43676   8.265   8.416   6.750
 6632POPC   C3B43677   8.204   8.425   7.050
 6632POPC   C4B43678   8.242   8.489   7.350
 6633POPC   NC343679  12.089  40.042   5.550
 6633POPC   PO443680  12.107  40.046   5.850
 6633POPC   GL143681  12.076  40.043   6.150
 6633POPC   GL243682  11.963  39.992   6.150
 6633POPC   C1A43683  12.089  40.038   6.450
 6633POPC   D2A43684  12.116  39.984   6.750
 6633POPC   C3A43685  12.070  40.010   7.050
 6633POPC   C4A43686  12.034  39.986   7.350
 6633POPC   C1B43687  11.825  39.849   6.450
 6633POPC   C2B43688  11.897  39.878   6.750
 6633POPC   C3B43689  11.876  39.872   7.050
 6633POPC   C4B43690  11.846  39.937   7.350
 6634POPC   NC343691  32.275  19.877   5.550
 6634POPC   PO443692  32.239  19.854   5.850
 6634POPC   GL143693  32.288  19.860   6.150
 6634POPC   GL243694  32.115  19.837   6.150
 6634POPC   C1A43695  32.235  19.835   6.450
 6634POPC   D2A43696  32.231  19.799   6.750
 6634POPC   C3A43697  32.249  19.827   7.050
 6634POPC   C4A43698  32.286  19.852   7.350
 6634POPC   C1B43699  31.952  19.905   6.450
 6634POPC   C2B43700  31.984  19.827   6.750
 6634POPC   C3B43701  31.976  19.840   7.050
 6634POPC   C4B43702  31.987  19.857   7.350
 6635POPC   NC343703   0.476  41.588   5.550
 6635POPC   PO443704   0.389  41.518   5.850
 6635POPC   GL143705   0.427  41.526   6.150
 6635POPC   GL243706   0.601  41.493   6.150
 6635POPC   C1A43707   0.442  41.595   6.450
 6635POPC   D2A43708   0.399  41.513   6.750
 6635POPC   C3A43709   0.396  41.530   7.050
 6635POPC   C4A43710   0.445  41.543   7.350
 6635POPC   C1B43711   0.678  41.515   6.450
 6635POPC   C2B43712   0.648  41.467   6.750
 6635POPC   C3B43713   0.716  41.434   7.050
 6635POPC   C4B43714   0.659  41.494   7.350
 6636POPC   NC343715  41.524   5.835   5.550
 6636POPC   PO443716  41.519   5.905   5.850
 6636POPC   GL143717  41.544   5.879   6.150
 6636POPC   GL243718  41.648   5.878   6.150
 6636POPC   C1A43719  41.569   5.881   6.450
 6636POPC   D2A43720  41.587   5.876   6.750
 6636POPC   C3A43721  41.586   5.865   7.050
 6636POPC   C4A43722  41.540   5.859   7.350
 6636POPC   C1B43723  41.816   5.992   6.450
 6636POPC   C2B43724  41.753   6.015   6.750
 6636POPC   C3B43725  41.786   5.982   7.050
 6636POPC   C4B43726  41.766   6.007   7.350
 6637POPC   NC343727  38.503  39.977   5.550
 6637POPC   PO443728  38.437  40.048   5.850
 6637POPC   GL143729  38.445  40.036   6.150
 6637POPC   GL243730  38.483  39.859   6.150
 6637POPC   C1A43731  38.456  40.056   6.450
 6637POPC   D2A43732  38.411  39.995   6.750
 6637POPC   C3A43733  38.489  40.037   7.050
 6637POPC   C4A43734  38.446  40.037   7.350
 6637POPC   C1B43735  38.473  39.744   6.450
 6637POPC   C2B43736  38.453  39.803   6.750
 6637POPC   C3B43737  38.508  39.753   7.050
 6637POPC   C4B43738  38.470  39.793   7.350
 6638POPC   NC343739   1.180  22.186   5.550
 6638POPC   PO443740   1.198  22.161   5.850
 6638POPC   GL143741   1.210  22.205   6.150
 6638POPC   GL243742   1.125  22.229   6.150
 6638POPC   C1A43743   1.233  22.149   6.450
 6638POPC   D2A43744   1.219  22.167   6.750
 6638POPC   C3A43745   1.185  22.186   7.050
 6638POPC   C4A43746   1.166  22.120   7.350
 6638POPC   C1B43747   1.067  22.311   6.450
 6638POPC   C2B43748   0.985  22.296   6.750
 6638POPC   C3B43749   1.046  22.355   7.050
 6638POPC   C4B43750   1.006  22.358   7.350
 6639POPC   NC343751  25.245  39.263   5.550
 6639POPC   PO443752  25.223  39.277   5.850
 6639POPC   GL143753  25.285  39.189   6.150
 6639POPC   GL243754  25.123  39.277   6.150
 6639POPC   C1A43755  25.306  39.263   6.450
 6639POPC   D2A43756  25.259  39.209   6.750
 6639POPC   C3A43757  25.218  39.210   7.050
 6639POPC   C4A43758  25.286  39.256   7.350
 6639POPC   C1B43759  25.010  39.249   6.450
 6639POPC   C2B43760  24.996  39.302   6.750
 6639POPC   C3B43761  25.012  39.276   7.050
 6639POPC   C4B43762  25.021  39.223   7.350
 6640POPC   NC343763  42.347  17.520   5.550
 6640POPC   PO443764  42.357  17.518   5.850
 6640POPC   GL143765  42.322  17.552   6.150
 6640POPC   GL243766  42.256  17.621   6.150
 6640POPC   C1A43767  42.365  17.487   6.450
 6640POPC   D2A43768  42.307  17.469   6.750
 6640POPC   C3A43769  42.352  17.528   7.050
 6640POPC   C4A43770  42.369  17.462   7.350
 6640POPC   C1B43771  42.196  17.731   6.450
 6640POPC   C2B43772  42.123  17.657   6.750
 6640POPC   C3B43773  42.139  17.665   7.050
 6640POPC   C4B43774  42.156  17.740   7.350
 6641POPC   NC343775   3.570   0.404   5.550
 6641POPC   PO443776   3.587   0.452   5.850
 6641POPC   GL143777   3.555   0.406   6.150
 6641POPC   GL243778   3.618   0.349   6.150
 6641POPC   C1A43779   3.510   0.479   6.450
 6641POPC   D2A43780   3.562   0.485   6.750
 6641POPC   C3A43781   3.585   0.441   7.050
 6641POPC   C4A43782   3.530   0.485   7.350
 6641POPC   C1B43783   3.623   0.256   6.450
 6641POPC   C2B43784   3.685   0.229   6.750
 6641POPC   C3B43785   3.686   0.186   7.050
 6641POPC   C4B43786   3.705   0.259   7.350
 6642POPC   NC343787   5.139   0.432   5.550
 6642POPC   PO443788   5.066   0.414   5.850
 6642POPC   GL143789   5.089   0.462   6.150
 6642POPC   GL243790   4.927   0.475   6.150
 6642POPC   C1A43791   5.102   0.446   6.450
 6642POPC   D2A43792   5.096   0.407   6.750
 6642POPC   C3A43793   5.089   0.468   7.050
 6642POPC   C4A43794   5.081   0.416   7.350
 6642POPC   C1B43795   4.836   0.398   6.450
 6642POPC   C2B43796   4.797   0.447   6.750
 6642POPC   C3B43797   4.866   0.449   7.050
 6642POPC   C4B43798   4.867   0.406   7.350
 6643POPC   NC343799  28.347   2.790   5.550
 6643POPC   PO443800  28.398   2.767   5.850
 6643POPC   GL143801  28.364   2.775   6.150
 6643POPC   GL243802  28.312   2.687   6.150
 6643POPC   C1A43803  28.388   2.783   6.450
 6643POPC   D2A43804  28.411   2.763   6.750
 6643POPC   C3A43805  28.360   2.727   7.050
 6643POPC   C4A43806  28.343   2.743   7.350
 6643POPC   C1B43807  28.263   2.589   6.450
 6643POPC   C2B43808  28.245   2.602   6.750
 6643POPC   C3B43809  28.265   2.510   7.050
 6643POPC   C4B43810  28.213   2.505   7.350
 6644POPC   NC343811   2.791   5.869   5.550
 6644POPC   PO443812   2.751   5.839   5.850
 6644POPC   GL143813   2.762   5.871   6.150
 6644POPC   GL243814   2.935   5.835   6.150
 6644POPC   C1A43815   2.716   5.880   6.450
 6644POPC   D2A43816   2.805   5.830   6.750
 6644POPC   C3A43817   2.752   5.852   7.050
 6644POPC   C4A43818   2.777   5.866   7.350
 6644POPC   C1B43819   3.044   5.855   6.450
 6644POPC   C2B43820   3.023   5.887   6.750
 6644POPC   C3B43821   2.982   5.891   7.050
 6644POPC   C4B43822   3.050   5.832   7.350
 6645POPC   NC343823  15.213  21.366   5.550
 6645POPC   PO443824  15.140  21.347   5.850
 6645POPC   GL143825  15.159  21.395   6.150
 6645POPC   GL243826  15.088  21.464   6.150
 6645POPC   C1A43827  15.223  21.351   6.450
 6645POPC   D2A43828  15.153  21.362   6.750
 6645POPC   C3A43829  15.217  21.359   7.050
 6645POPC   C4A43830  15.227  21.412   7.350
 6645POPC   C1B43831  15.110  21.610   6.450
 6645POPC   C2B43832  15.026  21.614   6.750
 6645POPC   C3B43833  15.059  21.588   7.050
 6645POPC   C4B43834  15.042  21.587   7.350
 6646POPC   NC343835  18.260  12.121   5.550
 6646POPC   PO443836  18.331  12.125   5.850
 6646POPC   GL143837  18.311  12.114   6.150
 6646POPC   GL243838  18.369  12.220   6.150
 6646POPC   C1A43839  18.252  12.079   6.450
 6646POPC   D2A43840  18.328  12.069   6.750
 6646POPC   C3A43841  18.295  12.033   7.050
 6646POPC   C4A43842  18.284  12.114   7.350
 6646POPC   C1B43843  18.456  12.260   6.450
 6646POPC   C2B43844  18.452  12.330   6.750
 6646POPC   C3B43845  18.383  12.285   7.050
 6646POPC   C4B43846  18.405  12.274   7.350
 6647POPC   NC343847  29.887  28.391   5.550
 6647POPC   PO443848  29.896  28.419   5.850
 6647POPC   GL143849  29.897  28.325   6.150
 6647POPC   GL243850  29.901  28.267   6.150
 6647POPC   C1A43851  29.902  28.349   6.450
 6647POPC   D2A43852  29.908  28.415   6.750
 6647POPC   C3A43853  29.884  28.417   7.050
 6647POPC   C4A43854  29.944  28.338   7.350
 6647POPC   C1B43855  29.931  28.076   6.450
 6647POPC   C2B43856  29.989  28.095   6.750
 6647POPC   C3B43857  29.935  28.131   7.050
 6647POPC   C4B43858  29.953  28.122   7.350
 6648POPC   NC343859  31.465  27.641   5.550
 6648POPC   PO443860  31.499  27.557   5.850
 6648POPC   GL143861  31.492  27.623   6.150
 6648POPC   GL243862  31.489  27.508   6.150
 6648POPC   C1A43863  31.466  27.596   6.450
 6648POPC   D2A43864  31.508  27.614   6.750
 6648POPC   C3A43865  31.459  27.580   7.050
 6648POPC   C4A43866  31.475  27.551   7.350
 6648POPC   C1B43867  31.501  27.348   6.450
 6648POPC   C2B43868  31.585  27.369   6.750
 6648POPC   C3B43869  31.572  27.326   7.050
 6648POPC   C4B43870  31.570  27.328   7.350
 6649POPC   NC343871  37.680   2.812   5.550
 6649POPC   PO443872  37.670   2.727   5.850
 6649POPC   GL143873  37.697   2.741   6.150
 6649POPC   GL243874  37.547   2.868   6.150
 6649POPC   C1A43875  37.638   2.722   6.450
 6649POPC   D2A43876  37.668   2.752   6.750
 6649POPC   C3A43877  37.694   2.755   7.050
 6649POPC   C4A43878  37.728   2.746   7.350
 6649POPC   C1B43879  37.468   2.969   6.450
 6649POPC   C2B43880  37.522   2.933   6.750
 6649POPC   C3B43881  37.469   2.942   7.050
 6649POPC   C4B43882  37.505   2.880   7.350
 6650POPC   NC343883   2.787  33.829   5.550
 6650POPC   PO443884   2.780  33.787   5.850
 6650POPC   GL143885   2.789  33.792   6.150
 6650POPC   GL243886   2.803  33.667   6.150
 6650POPC   C1A43887   2.758  33.840   6.450
 6650POPC   D2A43888   2.718  33.826   6.750
 6650POPC   C3A43889   2.793  33.756   7.050
 6650POPC   C4A43890   2.724  33.818   7.350
 6650POPC   C1B43891   2.814  33.572   6.450
 6650POPC   C2B43892   2.798  33.603   6.750
 6650POPC   C3B43893   2.766  33.546   7.050
 6650POPC   C4B43894   2.775  33.509   7.350
 6651POPC   NC343895  37.685  38.493   5.550
 6651POPC   PO443896  37.707  38.498   5.850
 6651POPC   GL143897  37.654  38.413   6.150
 6651POPC   GL243898  37.828  38.503   6.150
 6651POPC   C1A43899  37.698  38.461   6.450
 6651POPC   D2A43900  37.705  38.497   6.750
 6651POPC   C3A43901  37.717  38.473   7.050
 6651POPC   C4A43902  37.680  38.416   7.350
 6651POPC   C1B43903  37.868  38.600   6.450
 6651POPC   C2B43904  37.863  38.593   6.750
 6651POPC   C3B43905  37.891  38.605   7.050
 6651POPC   C4B43906  37.886  38.576   7.350
 6652POPC   NC343907  28.371  10.485   5.550
 6652POPC   PO443908  28.322  10.556   5.850
 6652POPC   GL143909  28.370  10.500   6.150
 6652POPC   GL243910  28.445  10.588   6.150
 6652POPC   C1A43911  28.383  10.553   6.450
 6652POPC   D2A43912  28.418  10.526   6.750
 6652POPC   C3A43913  28.355  10.513   7.050
 6652POPC   C4A43914  28.417  10.567   7.350
 6652POPC   C1B43915  28.495  10.726   6.450
 6652POPC   C2B43916  28.482  10.786   6.750
 6652POPC   C3B43917  28.470  10.698   7.050
 6652POPC   C4B43918  28.551  10.711   7.350
 6653POPC   NC343919  19.013  37.659   5.550
 6653POPC   PO443920  19.062  37.683   5.850
 6653POPC   GL143921  19.103  37.654   6.150
 6653POPC   GL243922  18.973  37.703   6.150
 6653POPC   C1A43923  19.018  37.676   6.450
 6653POPC   D2A43924  19.021  37.715   6.750
 6653POPC   C3A43925  19.052  37.647   7.050
 6653POPC   C4A43926  19.105  37.724   7.350
 6653POPC   C1B43927  18.854  37.699   6.450
 6653POPC   C2B43928  18.774  37.692   6.750
 6653POPC   C3B43929  18.777  37.627   7.050
 6653POPC   C4B43930  18.810  37.718   7.350
 6654POPC   NC343931  16.737  39.193   5.550
 6654POPC   PO443932  16.682  39.190   5.850
 6654POPC   GL143933  16.726  39.225   6.150
 6654POPC   GL243934  16.880  39.266   6.150
 6654POPC   C1A43935  16.741  39.253   6.450
 6654POPC   D2A43936  16.711  39.230   6.750
 6654POPC   C3A43937  16.717  39.280   7.050
 6654POPC   C4A43938  16.777  39.230   7.350
 6654POPC   C1B43939  16.964  39.307   6.450
 6654POPC   C2B43940  17.004  39.332   6.750
 6654POPC   C3B43941  16.959  39.249   7.050
 6654POPC   C4B43942  16.966  39.277   7.350
 6655POPC   NC343943  34.599  12.888   5.550
 6655POPC   PO443944  34.534  12.863   5.850
 6655POPC   GL143945  34.555  12.838   6.150
 6655POPC   GL243946  34.437  12.795   6.150
 6655POPC   C1A43947  34.598  12.836   6.450
 6655POPC   D2A43948  34.539  12.866   6.750
 6655POPC   C3A43949  34.596  12.878   7.050
 6655POPC   C4A43950  34.616  12.833   7.350
 6655POPC   C1B43951  34.334  12.774   6.450
 6655POPC   C2B43952  34.388  12.736   6.750
 6655POPC   C3B43953  34.384  12.734   7.050
 6655POPC   C4B43954  34.329  12.716   7.350
 6656POPC   NC343955  43.899  42.383   5.550
 6656POPC   PO443956  43.921  42.293   5.850
 6656POPC   GL143957  43.911  42.360   6.150
 6656POPC   GL243958  43.989  42.369   6.150
 6656POPC   C1A43959  43.853  42.312   6.450
 6656POPC   D2A43960  43.855  42.355   6.750
 6656POPC   C3A43961  43.910  42.361   7.050
 6656POPC   C4A43962  43.876  42.313   7.350
 6656POPC   C1B43963  44.103  42.308   6.450
 6656POPC   C2B43964  44.142  42.338   6.750
 6656POPC   C3B43965  44.145  42.296   7.050
 6656POPC   C4B43966  44.137  42.309   7.350
 6657POPC   NC343967   5.080  29.172   5.550
 6657POPC   PO443968   5.102  29.139   5.850
 6657POPC   GL143969   5.094  29.178   6.150
 6657POPC   GL243970   5.186  29.202   6.150
 6657POPC   C1A43971   5.084  29.133   6.450
 6657POPC   D2A43972   5.103  29.182   6.750
 6657POPC   C3A43973   5.136  29.129   7.050
 6657POPC   C4A43974   5.092  29.191   7.350
 6657POPC   C1B43975   5.246  29.291   6.450
 6657POPC   C2B43976   5.246  29.319   6.750
 6657POPC   C3B43977   5.229  29.280   7.050
 6657POPC   C4B43978   5.271  29.290   7.350
 6658POPC   NC343979   7.415   5.918   5.550
 6658POPC   PO443980   7.375   5.823   5.850
 6658POPC   GL143981   7.444   5.852   6.150
 6658POPC   GL243982   7.321   5.913   6.150
 6658POPC   C1A43983   7.458   5.911   6.450
 6658POPC   D2A43984   7.406   5.890   6.750
 6658POPC   C3A43985   7.399   5.819   7.050
 6658POPC   C4A43986   7.408   5.842   7.350
 6658POPC   C1B43987   7.231   6.004   6.450
 6658POPC   C2B43988   7.233   6.018   6.750
 6658POPC   C3B43989   7.197   5.997   7.050
 6658POPC   C4B43990   7.199   5.991   7.350
 6659POPC   NC343991  37.676  23.664   5.550
 6659POPC   PO443992  37.660  23.666   5.850
 6659POPC   GL143993  37.641  23.762   6.150
 6659POPC   GL243994  37.567  23.690   6.150
 6659POPC   C1A43995  37.646  23.688   6.450
 6659POPC   D2A43996  37.637  23.719   6.750
 6659POPC   C3A43997  37.700  23.708   7.050
 6659POPC   C4A43998  37.664  23.691   7.350
 6659POPC   C1B43999  37.417  23.647   6.450
 6659POPC   C2B44000  37.473  23.683   6.750
 6659POPC   C3B44001  37.412  23.653   7.050
 6659POPC   C4B44002  37.468  23.645   7.350
 6660POPC   NC344003  34.562   5.912   5.550
 6660POPC   PO444004  34.569   5.843   5.850
 6660POPC   GL144005  34.553   5.861   6.150
 6660POPC   GL244006  34.564   5.721   6.150
 6660POPC   C1A44007  34.553   5.856   6.450
 6660POPC   D2A44008  34.613   5.909   6.750
 6660POPC   C3A44009  34.549   5.901   7.050
 6660POPC   C4A44010  34.606   5.885   7.350
 6660POPC   C1B44011  34.634   5.589   6.450
 6660POPC   C2B44012  34.568   5.669   6.750
 6660POPC   C3B44013  34.566   5.643   7.050
 6660POPC   C4B44014  34.625   5.646   7.350
 6661POPC   NC344015  32.274  38.449   5.550
 6661POPC   PO444016  32.259  38.439   5.850
 6661POPC   GL144017  32.270  38.474   6.150
 6661POPC   GL244018  32.373  38.558   6.150
 6661POPC   C1A44019  32.225  38.411   6.450
 6661POPC   D2A44020  32.215  38.411   6.750
 6661POPC   C3A44021  32.265  38.419   7.050
 6661POPC   C4A44022  32.282  38.490   7.350
 6661POPC   C1B44023  32.419  38.658   6.450
 6661POPC   C2B44024  32.439  38.663   6.750
 6661POPC   C3B44025  32.421  38.626   7.050
 6661POPC   C4B44026  32.446  38.637   7.350
 6662POPC   NC344027  43.926  33.003   5.550
 6662POPC   PO444028  43.906  32.994   5.850
 6662POPC   GL144029  43.860  32.978   6.150
 6662POPC   GL244030  43.815  33.167   6.150
 6662POPC   C1A44031  43.883  32.999   6.450
 6662POPC   D2A44032  43.881  33.023   6.750
 6662POPC   C3A44033  43.897  33.041   7.050
 6662POPC   C4A44034  43.896  33.030   7.350
 6662POPC   C1B44035  43.724  33.211   6.450
 6662POPC   C2B44036  43.801  33.224   6.750
 6662POPC   C3B44037  43.739  33.288   7.050
 6662POPC   C4B44038  43.739  33.240   7.350
 6663POPC   NC344039   6.663  40.775   5.550
 6663POPC   PO444040   6.645  40.773   5.850
 6663POPC   GL144041   6.599  40.752   6.150
 6663POPC   GL244042   6.711  40.654   6.150
 6663POPC   C1A44043   6.630  40.740   6.450
 6663POPC   D2A44044   6.606  40.785   6.750
 6663POPC   C3A44045   6.680  40.759   7.050
 6663POPC   C4A44046   6.663  40.806   7.350
 6663POPC   C1B44047   6.808  40.586   6.450
 6663POPC   C2B44048   6.841  40.615   6.750
 6663POPC   C3B44049   6.784  40.565   7.050
 6663POPC   C4B44050   6.834  40.614   7.350
 6664POPC   NC344051  40.035  35.305   5.550
 6664POPC   PO444052  39.960  35.360   5.850
 6664POPC   GL144053  39.998  35.354   6.150
 6664POPC   GL244054  39.937  35.455   6.150
 6664POPC   C1A44055  39.958  35.365   6.450
 6664POPC   D2A44056  40.034  35.315   6.750
 6664POPC   C3A44057  40.056  35.303   7.050
 6664POPC   C4A44058  39.994  35.343   7.350
 6664POPC   C1B44059  39.844  35.575   6.450
 6664POPC   C2B44060  39.871  35.570   6.750
 6664POPC   C3B44061  39.806  35.497   7.050
 6664POPC   C4B44062  39.834  35.533   7.350
 6665POPC   NC344063  33.759   1.250   5.550
 6665POPC   PO444064  33.769   1.214   5.850
 6665POPC   GL144065  33.845   1.253   6.150
 6665POPC   GL244066  33.819   1.099   6.150
 6665POPC   C1A44067  33.790   1.232   6.450
 6665POPC   D2A44068  33.750   1.174   6.750
 6665POPC   C3A44069  33.803   1.224   7.050
 6665POPC   C4A44070  33.773   1.231   7.350
 6665POPC   C1B44071  33.772   0.931   6.450
 6665POPC   C2B44072  33.701   0.974   6.750
 6665POPC   C3B44073  33.758   1.013   7.050
 6665POPC   C4B44074  33.710   0.936   7.350
 6666POPC   NC344075  43.135   8.191   5.550
 6666POPC   PO444076  43.143   8.184   5.850
 6666POPC   GL144077  43.073   8.241   6.150
 6666POPC   GL244078  43.015   8.167   6.150
 6666POPC   C1A44079  43.152   8.153   6.450
 6666POPC   D2A44080  43.147   8.151   6.750
 6666POPC   C3A44081  43.113   8.166   7.050
 6666POPC   C4A44082  43.132   8.150   7.350
 6666POPC   C1B44083  42.902   8.257   6.450
 6666POPC   C2B44084  42.911   8.226   6.750
 6666POPC   C3B44085  42.852   8.229   7.050
 6666POPC   C4B44086  42.844   8.256   7.350
 6667POPC   NC344087  40.026  16.752   5.550
 6667POPC   PO444088  39.979  16.748   5.850
 6667POPC   GL144089  40.046  16.771   6.150
 6667POPC   GL244090  39.897  16.809   6.150
 6667POPC   C1A44091  39.994  16.703   6.450
 6667POPC   D2A44092  40.019  16.686   6.750
 6667POPC   C3A44093  40.024  16.693   7.050
 6667POPC   C4A44094  40.043  16.728   7.350
 6667POPC   C1B44095  39.791  16.961   6.450
 6667POPC   C2B44096  39.864  16.908   6.750
 6667POPC   C3B44097  39.865  16.945   7.050
 6667POPC   C4B44098  39.812  16.882   7.350
 6668POPC   NC344099   2.751  30.719   5.550
 6668POPC   PO444100   2.799  30.715   5.850
 6668POPC   GL144101   2.728  30.728   6.150
 6668POPC   GL244102   2.733  30.567   6.150
 6668POPC   C1A44103   2.740  30.738   6.450
 6668POPC   D2A44104   2.803  30.649   6.750
 6668POPC   C3A44105   2.811  30.688   7.050
 6668POPC   C4A44106   2.777  30.658   7.350
 6668POPC   C1B44107   2.769  30.426   6.450
 6668POPC   C2B44108   2.751  30.460   6.750
 6668POPC   C3B44109   2.814  30.460   7.050
 6668POPC   C4B44110   2.823  30.487   7.350
 6669POPC   NC344111   5.893   1.984   5.550
 6669POPC   PO444112   5.824   1.989   5.850
 6669POPC   GL144113   5.915   2.015   6.150
 6669POPC   GL244114   5.908   2.150   6.150
 6669POPC   C1A44115   5.893   2.013   6.450
 6669POPC   D2A44116   5.839   2.033   6.750
 6669POPC   C3A44117   5.823   2.006   7.050
 6669POPC   C4A44118   5.876   1.964   7.350
 6669POPC   C1B44119   5.975   2.214   6.450
 6669POPC   C2B44120   5.955   2.203   6.750
 6669POPC   C3B44121   5.946   2.190   7.050
 6669POPC   C4B44122   6.018   2.221   7.350
 6670POPC   NC344123  39.224   6.685   5.550
 6670POPC   PO444124  39.279   6.664   5.850
 6670POPC   GL144125  39.243   6.614   6.150
 6670POPC   GL244126  39.263   6.530   6.150
 6670POPC   C1A44127  39.224   6.630   6.450
 6670POPC   D2A44128  39.215   6.655   6.750
 6670POPC   C3A44129  39.211   6.603   7.050
 6670POPC   C4A44130  39.213   6.687   7.350
 6670POPC   C1B44131  39.422   6.435   6.450
 6670POPC   C2B44132  39.344   6.417   6.750
 6670POPC   C3B44133  39.396   6.418   7.050
 6670POPC   C4B44134  39.421   6.419   7.350
 6671POPC   NC344135  30.701  13.611   5.550
 6671POPC   PO444136  30.657  13.650   5.850
 6671POPC   GL144137  30.745  13.660   6.150
 6671POPC   GL244138  30.718  13.798   6.150
 6671POPC   C1A44139  30.730  13.656   6.450
 6671POPC   D2A44140  30.731  13.675   6.750
 6671POPC   C3A44141  30.679  13.590   7.050
 6671POPC   C4A44142  30.745  13.637   7.350
 6671POPC   C1B44143  30.677  13.899   6.450
 6671POPC   C2B44144  30.667  13.857   6.750
 6671POPC   C3B44145  30.678  13.837   7.050
 6671POPC   C4B44146  30.716  13.842   7.350
 6672POPC   NC344147  26.843  29.950   5.550
 6672POPC   PO444148  26.773  29.925   5.850
 6672POPC   GL144149  26.803  29.940   6.150
 6672POPC   GL244150  26.785  29.815   6.150
 6672POPC   C1A44151  26.802  29.953   6.450
 6672POPC   D2A44152  26.835  29.879   6.750
 6672POPC   C3A44153  26.816  29.924   7.050
 6672POPC   C4A44154  26.815  29.933   7.350
 6672POPC   C1B44155  26.647  29.750   6.450
 6672POPC   C2B44156  26.677  29.681   6.750
 6672POPC   C3B44157  26.726  29.716   7.050
 6672POPC   C4B44158  26.696  29.718   7.350
 6673POPC   NC344159   2.765  42.316   5.550
 6673POPC   PO444160   2.785  42.373   5.850
 6673POPC   GL144161   2.808  42.373   6.150
 6673POPC   GL244162   2.638  42.359   6.150
 6673POPC   C1A44163   2.791  42.368   6.450
 6673POPC   D2A44164   2.735  42.376   6.750
 6673POPC   C3A44165   2.776  42.369   7.050
 6673POPC   C4A44166   2.751  42.380   7.350
 6673POPC   C1B44167   2.561  42.413   6.450
 6673POPC   C2B44168   2.508  42.413   6.750
 6673POPC   C3B44169   2.506  42.344   7.050
 6673POPC   C4B44170   2.476  42.338   7.350
 6674POPC   NC344171   9.785  27.626   5.550
 6674POPC   PO444172   9.707  27.615   5.850
 6674POPC   GL144173   9.720  27.627   6.150
 6674POPC   GL244174   9.769  27.509   6.150
 6674POPC   C1A44175   9.714  27.620   6.450
 6674POPC   D2A44176   9.738  27.549   6.750
 6674POPC   C3A44177   9.743  27.605   7.050
 6674POPC   C4A44178   9.753  27.560   7.350
 6674POPC   C1B44179   9.787  27.295   6.450
 6674POPC   C2B44180   9.766  27.300   6.750
 6674POPC   C3B44181   9.759  27.393   7.050
 6674POPC   C4B44182   9.726  27.384   7.350
 6675POPC   NC344183   1.202  23.762   5.550
 6675POPC   PO444184   1.240  23.723   5.850
 6675POPC   GL144185   1.232  23.706   6.150
 6675POPC   GL244186   1.338  23.801   6.150
 6675POPC   C1A44187   1.214  23.706   6.450
 6675POPC   D2A44188   1.243  23.690   6.750
 6675POPC   C3A44189   1.205  23.748   7.050
 6675POPC   C4A44190   1.171  23.728   7.350
 6675POPC   C1B44191   1.375  23.887   6.450
 6675POPC   C2B44192   1.406  23.925   6.750
 6675POPC   C3B44193   1.407  23.945   7.050
 6675POPC   C4B44194   1.364  23.914   7.350
 6676POPC   NC344195  10.487   0.448   5.550
 6676POPC   PO444196  10.559   0.421   5.850
 6676POPC   GL144197  10.561   0.460   6.150
 6676POPC   GL244198  10.453   0.505   6.150
 6676POPC   C1A44199  10.497   0.479   6.450
 6676POPC   D2A44200  10.486   0.463   6.750
 6676POPC   C3A44201  10.533   0.460   7.050
 6676POPC   C4A44202  10.528   0.476   7.350
 6676POPC   C1B44203  10.373   0.633   6.450
 6676POPC   C2B44204  10.396   0.655   6.750
 6676POPC   C3B44205  10.375   0.624   7.050
 6676POPC   C4B44206  10.311   0.606   7.350
 6677POPC   NC344207  41.530  26.801   5.550
 6677POPC   PO444208  41.533  26.825   5.850
 6677POPC   GL144209  41.530  26.803   6.150
 6677POPC   GL244210  41.539  26.707   6.150
 6677POPC   C1A44211  41.524  26.825   6.450
 6677POPC   D2A44212  41.597  26.790   6.750
 6677POPC   C3A44213  41.530  26.779   7.050
 6677POPC   C4A44214  41.536  26.798   7.350
 6677POPC   C1B44215  41.533  26.526   6.450
 6677POPC   C2B44216  41.519  26.544   6.750
 6677POPC   C3B44217  41.508  26.541   7.050
 6677POPC   C4B44218  41.486  26.599   7.350
 6678POPC   NC344219   8.147  29.961   5.550
 6678POPC   PO444220   8.183  29.953   5.850
 6678POPC   GL144221   8.238  29.903   6.150
 6678POPC   GL244222   8.360  29.922   6.150
 6678POPC   C1A44223   8.190  29.924   6.450
 6678POPC   D2A44224   8.246  29.931   6.750
 6678POPC   C3A44225   8.157  29.964   7.050
 6678POPC   C4A44226   8.223  29.876   7.350
 6678POPC   C1B44227   8.474  29.829   6.450
 6678POPC   C2B44228   8.434  29.889   6.750
 6678POPC   C3B44229   8.403  29.868   7.050
 6678POPC   C4B44230   8.414  29.896   7.350
 6679POPC   NC344231  42.355  29.923   5.550
 6679POPC   PO444232  42.336  29.930   5.850
 6679POPC   GL144233  42.306  29.961   6.150
 6679POPC   GL244234  42.333  29.998   6.150
 6679POPC   C1A44235  42.383  29.891   6.450
 6679POPC   D2A44236  42.365  29.924   6.750
 6679POPC   C3A44237  42.379  29.897   7.050
 6679POPC   C4A44238  42.299  29.939   7.350
 6679POPC   C1B44239  42.381  30.185   6.450
 6679POPC   C2B44240  42.371  30.174   6.750
 6679POPC   C3B44241  42.386  30.136   7.050
 6679POPC   C4B44242  42.378  30.153   7.350
 6680POPC   NC344243  28.342  40.803   5.550
 6680POPC   PO444244  28.328  40.826   5.850
 6680POPC   GL144245  28.357  40.787   6.150
 6680POPC   GL244246  28.224  40.764   6.150
 6680POPC   C1A44247  28.353  40.779   6.450
 6680POPC   D2A44248  28.419  40.813   6.750
 6680POPC   C3A44249  28.402  40.824   7.050
 6680POPC   C4A44250  28.419  40.762   7.350
 6680POPC   C1B44251  28.144  40.812   6.450
 6680POPC   C2B44252  28.167  40.775   6.750
 6680POPC   C3B44253  28.129  40.758   7.050
 6680POPC   C4B44254  28.122  40.781   7.350
 6681POPC   NC344255  19.019   3.558   5.550
 6681POPC   PO444256  19.106   3.539   5.850
 6681POPC   GL144257  19.016   3.502   6.150
 6681POPC   GL244258  19.126   3.462   6.150
 6681POPC   C1A44259  19.069   3.502   6.450
 6681POPC   D2A44260  19.041   3.520   6.750
 6681POPC   C3A44261  19.075   3.566   7.050
 6681POPC   C4A44262  19.081   3.492   7.350
 6681POPC   C1B44263  19.187   3.394   6.450
 6681POPC   C2B44264  19.258   3.390   6.750
 6681POPC   C3B44265  19.233   3.352   7.050
 6681POPC   C4B44266  19.182   3.352   7.350
 6682POPC   NC344267  15.993  16.756   5.550
 6682POPC   PO444268  15.982  16.714   5.850
 6682POPC   GL144269  15.989  16.749   6.150
 6682POPC   GL244270  16.070  16.746   6.150
 6682POPC   C1A44271  15.923  16.692   6.450
 6682POPC   D2A44272  15.967  16.702   6.750
 6682POPC   C3A44273  15.935  16.696   7.050
 6682POPC   C4A44274  15.985  16.707   7.350
 6682POPC   C1B44275  16.191  16.688   6.450
 6682POPC   C2B44276  16.254  16.751   6.750
 6682POPC   C3B44277  16.170  16.702   7.050
 6682POPC   C4B44278  16.175  16.734   7.350
 6683POPC   NC344279  33.765   3.535   5.550
 6683POPC   PO444280  33.767   3.507   5.850
 6683POPC   GL144281  33.788   3.514   6.150
 6683POPC   GL244282  33.675   3.542   6.150
 6683POPC   C1A44283  33.753   3.525   6.450
 6683POPC   D2A44284  33.843   3.507   6.750
 6683POPC   C3A44285  33.768   3.573   7.050
 6683POPC   C4A44286  33.816   3.585   7.350
 6683POPC   C1B44287  33.600   3.412   6.450
 6683POPC   C2B44288  33.521   3.444   6.750
 6683POPC   C3B44289  33.533   3.476   7.050
 6683POPC   C4B44290  33.608   3.421   7.350
 6684POPC   NC344291  13.672   8.979   5.550
 6684POPC   PO444292  13.624   8.994   5.850
 6684POPC   GL144293  13.677   8.978   6.150
 6684POPC   GL244294  13.709   9.054   6.150
 6684POPC   C1A44295  13.619   8.991   6.450
 6684POPC   D2A44296  13.586   8.964   6.750
 6684POPC   C3A44297  13.578   8.933   7.050
 6684POPC   C4A44298  13.585   8.950   7.350
 6684POPC   C1B44299  13.820   9.019   6.450
 6684POPC   C2B44300  13.886   9.042   6.750
 6684POPC   C3B44301  13.834   9.042   7.050
 6684POPC   C4B44302  13.890   9.030   7.350
 6685POPC   NC344303  19.787  42.323   5.550
 6685POPC   PO444304  19.792  42.345   5.850
 6685POPC   GL144305  19.795  42.375   6.150
 6685POPC   GL244306  19.807  42.246   6.150
 6685POPC   C1A44307  19.798  42.321   6.450
 6685POPC   D2A44308  19.806  42.304   6.750
 6685POPC   C3A44309  19.869  42.364   7.050
 6685POPC   C4A44310  19.873  42.306   7.350
 6685POPC   C1B44311  19.680  42.078   6.450
 6685POPC   C2B44312  19.740  42.070   6.750
 6685POPC   C3B44313  19.731  42.164   7.050
 6685POPC   C4B44314  19.749  42.133   7.350
 6686POPC   NC344315   0.397  35.395   5.550
 6686POPC   PO444316   0.462  35.382   5.850
 6686POPC   GL144317   0.452  35.355   6.150
 6686POPC   GL244318   0.387  35.460   6.150
 6686POPC   C1A44319   0.421  35.337   6.450
 6686POPC   D2A44320   0.393  35.327   6.750
 6686POPC   C3A44321   0.471  35.369   7.050
 6686POPC   C4A44322   0.417  35.327   7.350
 6686POPC   C1B44323   0.321  35.610   6.450
 6686POPC   C2B44324   0.343  35.574   6.750
 6686POPC   C3B44325   0.293  35.588   7.050
 6686POPC   C4B44326   0.332  35.620   7.350
 6687POPC   NC344327  12.082  26.779   5.550
 6687POPC   PO444328  12.038  26.778   5.850
 6687POPC   GL144329  12.102  26.837   6.150
 6687POPC   GL244330  12.111  26.949   6.150
 6687POPC   C1A44331  12.099  26.818   6.450
 6687POPC   D2A44332  12.114  26.862   6.750
 6687POPC   C3A44333  12.062  26.848   7.050
 6687POPC   C4A44334  12.039  26.775   7.350
 6687POPC   C1B44335  12.176  27.087   6.450
 6687POPC   C2B44336  12.128  27.064   6.750
 6687POPC   C3B44337  12.149  27.093   7.050
 6687POPC   C4B44338  12.168  27.043   7.350
 6688POPC   NC344339   7.410   0.388   5.550
 6688POPC   PO444340   7.402   0.439   5.850
 6688POPC   GL144341   7.438   0.437   6.150
 6688POPC   GL244342   7.307   0.466   6.150
 6688POPC   C1A44343   7.383   0.469   6.450
 6688POPC   D2A44344   7.376   0.451   6.750
 6688POPC   C3A44345   7.382   0.484   7.050
 6688POPC   C4A44346   7.390   0.421   7.350
 6688POPC   C1B44347   7.208   0.556   6.450
 6688POPC   C2B44348   7.221   0.618   6.750
 6688POPC   C3B44349   7.240   0.595   7.050
 6688POPC   C4B44350   7.224   0.536   7.350
 6689POPC   NC344351  15.936   1.187   5.550
 6689POPC   PO444352  15.930   1.248   5.850
 6689POPC   GL144353  15.975   1.223   6.150
 6689POPC   GL244354  16.060   1.248   6.150
 6689POPC   C1A44355  15.952   1.177   6.450
 6689POPC   D2A44356  15.990   1.249   6.750
 6689POPC   C3A44357  15.978   1.186   7.050
 6689POPC   C4A44358  15.932   1.259   7.350
 6689POPC   C1B44359  16.212   1.204   6.450
 6689POPC   C2B44360  16.186   1.215   6.750
 6689POPC   C3B44361  16.229   1.198   7.050
 6689POPC   C4B44362  16.204   1.215   7.350
 6690POPC   NC344363  36.120  26.813   5.550
 6690POPC   PO444364  36.086  26.813   5.850
 6690POPC   GL144365  36.138  26.795   6.150
 6690POPC   GL244366  36.199  26.914   6.150
 6690POPC   C1A44367  36.155  26.769   6.450
 6690POPC   D2A44368  36.110  26.778   6.750
 6690POPC   C3A44369  36.148  26.805   7.050
 6690POPC   C4A44370  36.086  26.858   7.350
 6690POPC   C1B44371  36.364  26.911   6.450
 6690POPC   C2B44372  36.356  26.882   6.750
 6690POPC   C3B44373  36.401  26.915   7.050
 6690POPC   C4B44374  36.331  26.943   7.350
 6691POPC   NC344375  24.537   5.916   5.550
 6691POPC   PO444376  24.531   5.899   5.850
 6691POPC   GL144377  24.481   5.898   6.150
 6691POPC   GL244378  24.371   5.863   6.150
 6691POPC   C1A44379  24.517   5.917   6.450
 6691POPC   D2A44380  24.472   5.877   6.750
 6691POPC   C3A44381  24.497   5.880   7.050
 6691POPC   C4A44382  24.464   5.904   7.350
 6691POPC   C1B44383  24.228   5.765   6.450
 6691POPC   C2B44384  24.243   5.731   6.750
 6691POPC   C3B44385  24.258   5.791   7.050
 6691POPC   C4B44386  24.281   5.767   7.350
 6692POPC   NC344387  13.663  23.718   5.550
 6692POPC   PO444388  13.666  23.721   5.850
 6692POPC   GL144389  13.652  23.692   6.150
 6692POPC   GL244390  13.556  23.836   6.150
 6692POPC   C1A44391  13.578  23.738   6.450
 6692POPC   D2A44392  13.665  23.678   6.750
 6692POPC   C3A44393  13.653  23.748   7.050
 6692POPC   C4A44394  13.597  23.729   7.350
 6692POPC   C1B44395  13.456  23.907   6.450
 6692POPC   C2B44396  13.469  23.877   6.750
 6692POPC   C3B44397  13.393  23.867   7.050
 6692POPC   C4B44398  13.375  23.878   7.350
 6693POPC   NC344399  26.055  29.109   5.550
 6693POPC   PO444400  26.008  29.121   5.850
 6693POPC   GL144401  26.061  29.146   6.150
 6693POPC   GL244402  26.202  29.091   6.150
 6693POPC   C1A44403  25.997  29.175   6.450
 6693POPC   D2A44404  26.042  29.097   6.750
 6693POPC   C3A44405  26.016  29.170   7.050
 6693POPC   C4A44406  25.991  29.190   7.350
 6693POPC   C1B44407  26.297  29.109   6.450
 6693POPC   C2B44408  26.251  29.125   6.750
 6693POPC   C3B44409  26.272  29.080   7.050
 6693POPC   C4B44410  26.272  29.091   7.350
 6694POPC   NC344411  17.536  20.640   5.550
 6694POPC   PO444412  17.474  20.574   5.850
 6694POPC   GL144413  17.555  20.601   6.150
 6694POPC   GL244414  17.477  20.468   6.150
 6694POPC   C1A44415  17.515  20.642   6.450
 6694POPC   D2A44416  17.464  20.598   6.750
 6694POPC   C3A44417  17.468  20.586   7.050
 6694POPC   C4A44418  17.481  20.584   7.350
 6694POPC   C1B44419  17.394  20.403   6.450
 6694POPC   C2B44420  17.440  20.393   6.750
 6694POPC   C3B44421  17.385  20.365   7.050
 6694POPC   C4B44422  17.374  20.367   7.350
 6695POPC   NC344423  21.401   9.723   5.550
 6695POPC   PO444424  21.360   9.733   5.850
 6695POPC   GL144425  21.434   9.704   6.150
 6695POPC   GL244426  21.444   9.623   6.150
 6695POPC   C1A44427  21.427   9.708   6.450
 6695POPC   D2A44428  21.372   9.740   6.750
 6695POPC   C3A44429  21.357   9.781   7.050
 6695POPC   C4A44430  21.415   9.794   7.350
 6695POPC   C1B44431  21.533   9.544   6.450
 6695POPC   C2B44432  21.532   9.541   6.750
 6695POPC   C3B44433  21.541   9.496   7.050
 6695POPC   C4B44434  21.504   9.571   7.350
 6696POPC   NC344435  13.583  15.213   5.550
 6696POPC   PO444436  13.578  15.168   5.850
 6696POPC   GL144437  13.620  15.192   6.150
 6696POPC   GL244438  13.736  15.148   6.150
 6696POPC   C1A44439  13.658  15.217   6.450
 6696POPC   D2A44440  13.630  15.151   6.750
 6696POPC   C3A44441  13.631  15.216   7.050
 6696POPC   C4A44442  13.593  15.157   7.350
 6696POPC   C1B44443  13.924  15.231   6.450
 6696POPC   C2B44444  13.900  15.195   6.750
 6696POPC   C3B44445  13.841  15.209   7.050
 6696POPC   C4B44446  13.909  15.222   7.350
 6697POPC   NC344447  11.257  32.289   5.550
 6697POPC   PO444448  11.295  32.216   5.850
 6697POPC   GL144449  11.308  32.277   6.150
 6697POPC   GL244450  11.210  32.324   6.150
 6697POPC   C1A44451  11.272  32.270   6.450
 6697POPC   D2A44452  11.252  32.255   6.750
 6697POPC   C3A44453  11.290  32.271   7.050
 6697POPC   C4A44454  11.335  32.258   7.350
 6697POPC   C1B44455  11.175  32.496   6.450
 6697POPC   C2B44456  11.130  32.407   6.750
 6697POPC   C3B44457  11.203  32.485   7.050
 6697POPC   C4B44458  11.125  32.443   7.350
 6698POPC   NC344459  34.570  15.204   5.550
 6698POPC   PO444460  34.584  15.158   5.850
 6698POPC   GL144461  34.567  15.183   6.150
 6698POPC   GL244462  34.604  15.317   6.150
 6698POPC   C1A44463  34.617  15.135   6.450
 6698POPC   D2A44464  34.614  15.141   6.750
 6698POPC   C3A44465  34.546  15.228   7.050
 6698POPC   C4A44466  34.550  15.130   7.350
 6698POPC   C1B44467  34.644  15.440   6.450
 6698POPC   C2B44468  34.712  15.391   6.750
 6698POPC   C3B44469  34.636  15.381   7.050
 6698POPC   C4B44470  34.706  15.408   7.350
 6699POPC   NC344471  27.576  10.478   5.550
 6699POPC   PO444472  27.610  10.491   5.850
 6699POPC   GL144473  27.563  10.519   6.150
 6699POPC   GL244474  27.734  10.520   6.150
 6699POPC   C1A44475  27.613  10.512   6.450
 6699POPC   D2A44476  27.564  10.488   6.750
 6699POPC   C3A44477  27.563  10.523   7.050
 6699POPC   C4A44478  27.597  10.476   7.350
 6699POPC   C1B44479  27.851  10.554   6.450
 6699POPC   C2B44480  27.818  10.465   6.750
 6699POPC   C3B44481  27.865  10.531   7.050
 6699POPC   C4B44482  27.870  10.559   7.350
 6700POPC   NC344483   7.401   8.171   5.550
 6700POPC   PO444484   7.463   8.238   5.850
 6700POPC   GL144485   7.423   8.168   6.150
 6700POPC   GL244486   7.517   8.135   6.150
 6700POPC   C1A44487   7.462   8.206   6.450
 6700POPC   D2A44488   7.442   8.167   6.750
 6700POPC   C3A44489   7.400   8.150   7.050
 6700POPC   C4A44490   7.469   8.155   7.350
 6700POPC   C1B44491   7.662   8.135   6.450
 6700POPC   C2B44492   7.630   8.073   6.750
 6700POPC   C3B44493   7.694   8.102   7.050
 6700POPC   C4B44494   7.663   8.143   7.350
 6701POPC   NC344495  30.731  28.373   5.550
 6701POPC   PO444496  30.688  28.370   5.850
 6701POPC   GL144497  30.717  28.342   6.150
 6701POPC   GL244498  30.610  28.399   6.150
 6701POPC   C1A44499  30.661  28.406   6.450
 6701POPC   D2A44500  30.679  28.406   6.750
 6701POPC   C3A44501  30.694  28.320   7.050
 6701POPC   C4A44502  30.664  28.374   7.350
 6701POPC   C1B44503  30.500  28.532   6.450
 6701POPC   C2B44504  30.433  28.525   6.750
 6701POPC   C3B44505  30.425  28.479   7.050
 6701POPC   C4B44506  30.446  28.448   7.350
 6702POPC   NC344507  38.408  29.126   5.550
 6702POPC   PO444508  38.462  29.146   5.850
 6702POPC   GL144509  38.472  29.164   6.150
 6702POPC   GL244510  38.316  29.067   6.150
 6702POPC   C1A44511  38.472  29.147   6.450
 6702POPC   D2A44512  38.427  29.106   6.750
 6702POPC   C3A44513  38.470  29.145   7.050
 6702POPC   C4A44514  38.432  29.131   7.350
 6702POPC   C1B44515  38.286  28.973   6.450
 6702POPC   C2B44516  38.284  29.023   6.750
 6702POPC   C3B44517  38.305  28.968   7.050
 6702POPC   C4B44518  38.304  29.011   7.350
 6703POPC   NC344519  26.824   3.501   5.550
 6703POPC   PO444520  26.823   3.547   5.850
 6703POPC   GL144521  26.807   3.547   6.150
 6703POPC   GL244522  26.808   3.455   6.150
 6703POPC   C1A44523  26.844   3.495   6.450
 6703POPC   D2A44524  26.804   3.501   6.750
 6703POPC   C3A44525  26.769   3.526   7.050
 6703POPC   C4A44526  26.828   3.559   7.350
 6703POPC   C1B44527  26.797   3.303   6.450
 6703POPC   C2B44528  26.777   3.287   6.750
 6703POPC   C3B44529  26.859   3.249   7.050
 6703POPC   C4B44530  26.799   3.314   7.350
 6704POPC   NC344531  19.807   7.454   5.550
 6704POPC   PO444532  19.813   7.461   5.850
 6704POPC   GL144533  19.843   7.375   6.150
 6704POPC   GL244534  19.951   7.493   6.150
 6704POPC   C1A44535  19.824   7.379   6.450
 6704POPC   D2A44536  19.875   7.436   6.750
 6704POPC   C3A44537  19.880   7.390   7.050
 6704POPC   C4A44538  19.792   7.454   7.350
 6704POPC   C1B44539  20.122   7.474   6.450
 6704POPC   C2B44540  20.033   7.453   6.750
 6704POPC   C3B44541  20.090   7.481   7.050
 6704POPC   C4B44542  20.064   7.499   7.350
 6705POPC   NC344543   4.296  22.935   5.550
 6705POPC   PO444544   4.297  22.890   5.850
 6705POPC   GL144545   4.297  22.979   6.150
 6705POPC   GL244546   4.448  22.839   6.150
 6705POPC   C1A44547   4.289  22.973   6.450
 6705POPC   D2A44548   4.305  22.931   6.750
 6705POPC   C3A44549   4.365  22.933   7.050
 6705POPC   C4A44550   4.312  22.916   7.350
 6705POPC   C1B44551   4.550  22.827   6.450
 6705POPC   C2B44552   4.550  22.812   6.750
 6705POPC   C3B44553   4.527  22.754   7.050
 6705POPC   C4B44554   4.528  22.763   7.350
 6706POPC   NC344555  28.324   3.506   5.550
 6706POPC   PO444556  28.402   3.505   5.850
 6706POPC   GL144557  28.342   3.569   6.150
 6706POPC   GL244558  28.343   3.666   6.150
 6706POPC   C1A44559  28.385   3.514   6.450
 6706POPC   D2A44560  28.354   3.529   6.750
 6706POPC   C3A44561  28.381   3.499   7.050
 6706POPC   C4A44562  28.361   3.523   7.350
 6706POPC   C1B44563  28.290   3.787   6.450
 6706POPC   C2B44564  28.204   3.780   6.750
 6706POPC   C3B44565  28.208   3.745   7.050
 6706POPC   C4B44566  28.285   3.737   7.350
 6707POPC   NC344567  25.247   0.408   5.550
 6707POPC   PO444568  25.295   0.390   5.850
 6707POPC   GL144569  25.243   0.439   6.150
 6707POPC   GL244570  25.357   0.344   6.150
 6707POPC   C1A44571  25.226   0.392   6.450
 6707POPC   D2A44572  25.246   0.443   6.750
 6707POPC   C3A44573  25.306   0.390   7.050
 6707POPC   C4A44574  25.252   0.469   7.350
 6707POPC   C1B44575  25.482   0.291   6.450
 6707POPC   C2B44576  25.475   0.245   6.750
 6707POPC   C3B44577  25.421   0.292   7.050
 6707POPC   C4B44578  25.505   0.267   7.350
 6708POPC   NC344579  35.393   5.907   5.550
 6708POPC   PO444580  35.333   5.824   5.850
 6708POPC   GL144581  35.355   5.857   6.150
 6708POPC   GL244582  35.317   6.002   6.150
 6708POPC   C1A44583  35.302   5.825   6.450
 6708POPC   D2A44584  35.368   5.848   6.750
 6708POPC   C3A44585  35.368   5.886   7.050
 6708POPC   C4A44586  35.339   5.862   7.350
 6708POPC   C1B44587  35.299   6.122   6.450
 6708POPC   C2B44588  35.307   6.147   6.750
 6708POPC   C3B44589  35.355   6.155   7.050
 6708POPC   C4B44590  35.332   6.155   7.350
 6709POPC   NC344591  40.789  15.932   5.550
 6709POPC   PO444592  40.791  15.990   5.850
 6709POPC   GL144593  40.793  16.000   6.150
 6709POPC   GL244594  40.746  15.870   6.150
 6709POPC   C1A44595  40.772  15.917   6.450
 6709POPC   D2A44596  40.828  15.932   6.750
 6709POPC   C3A44597  40.827  15.946   7.050
 6709POPC   C4A44598  40.735  15.986   7.350
 6709POPC   C1B44599  40.653  15.779   6.450
 6709POPC   C2B44600  40.621  15.738   6.750
 6709POPC   C3B44601  40.670  15.747   7.050
 6709POPC   C4B44602  40.664  15.732   7.350
 6710POPC   NC344603  24.530   7.445   5.550
 6710POPC   PO444604  24.482   7.448   5.850
 6710POPC   GL144605  24.524   7.454   6.150
 6710POPC   GL244606  24.502   7.524   6.150
 6710POPC   C1A44607  24.442   7.385   6.450
 6710POPC   D2A44608  24.485   7.415   6.750
 6710POPC   C3A44609  24.513   7.378   7.050
 6710POPC   C4A44610  24.487   7.437   7.350
 6710POPC   C1B44611  24.507   7.674   6.450
 6710POPC   C2B44612  24.493   7.700   6.750
 6710POPC   C3B44613  24.465   7.647   7.050
 6710POPC   C4B44614  24.435   7.704   7.350
 6711POPC   NC344615  39.216  29.151   5.550
 6711POPC   PO444616  39.238  29.113   5.850
 6711POPC   GL144617  39.222  29.129   6.150
 6711POPC   GL244618  39.282  29.012   6.150
 6711POPC   C1A44619  39.250  29.125   6.450
 6711POPC   D2A44620  39.200  29.138   6.750
 6711POPC   C3A44621  39.253  29.182   7.050
 6711POPC   C4A44622  39.270  29.159   7.350
 6711POPC   C1B44623  39.329  28.901   6.450
 6711POPC   C2B44624  39.308  28.868   6.750
 6711POPC   C3B44625  39.307  28.893   7.050
 6711POPC   C4B44626  39.315  28.943   7.350
 6712POPC   NC344627   9.730  14.364   5.550
 6712POPC   PO444628   9.758  14.368   5.850
 6712POPC   GL144629   9.710  14.413   6.150
 6712POPC   GL244630   9.608  14.516   6.150
 6712POPC   C1A44631   9.750  14.432   6.450
 6712POPC   D2A44632   9.763  14.390   6.750
 6712POPC   C3A44633   9.795  14.385   7.050
 6712POPC   C4A44634   9.704  14.377   7.350
 6712POPC   C1B44635   9.484  14.505   6.450
 6712POPC   C2B44636   9.573  14.484   6.750
 6712POPC   C3B44637   9.501  14.565   7.050
 6712POPC   C4B44638   9.529  14.540   7.350
 6713POPC   NC344639  44.685  27.554   5.550
 6713POPC   PO444640  44.683  27.595   5.850
 6713POPC   GL144641  44.638  27.642   6.150
 6713POPC   GL244642  44.742  27.527   6.150
 6713POPC   C1A44643  44.675  27.553   6.450
 6713POPC   D2A44644  44.681  27.607   6.750
 6713POPC   C3A44645  44.650  27.636   7.050
 6713POPC   C4A44646  44.652  27.643   7.350
 6713POPC   C1B44647  44.813  27.339   6.450
 6713POPC   C2B44648  44.806  27.419   6.750
 6713POPC   C3B44649  44.794  27.375   7.050
 6713POPC   C4B44650  44.761  27.373   7.350
 6714POPC   NC344651  42.383  21.370   5.550
 6714POPC   PO444652  42.359  21.339   5.850
 6714POPC   GL144653  42.366  21.432   6.150
 6714POPC   GL244654  42.352  21.470   6.150
 6714POPC   C1A44655  42.359  21.422   6.450
 6714POPC   D2A44656  42.363  21.413   6.750
 6714POPC   C3A44657  42.311  21.356   7.050
 6714POPC   C4A44658  42.366  21.370   7.350
 6714POPC   C1B44659  42.459  21.563   6.450
 6714POPC   C2B44660  42.467  21.622   6.750
 6714POPC   C3B44661  42.438  21.562   7.050
 6714POPC   C4B44662  42.449  21.604   7.350
 6715POPC   NC344663  32.992  21.375   5.550
 6715POPC   PO444664  33.036  21.397   5.850
 6715POPC   GL144665  33.001  21.381   6.150
 6715POPC   GL244666  33.125  21.386   6.150
 6715POPC   C1A44667  33.005  21.426   6.450
 6715POPC   D2A44668  33.038  21.421   6.750
 6715POPC   C3A44669  32.988  21.382   7.050
 6715POPC   C4A44670  33.037  21.431   7.350
 6715POPC   C1B44671  33.249  21.500   6.450
 6715POPC   C2B44672  33.283  21.487   6.750
 6715POPC   C3B44673  33.293  21.409   7.050
 6715POPC   C4B44674  33.248  21.409   7.350
 6716POPC   NC344675  36.159  40.809   5.550
 6716POPC   PO444676  36.155  40.833   5.850
 6716POPC   GL144677  36.094  40.801   6.150
 6716POPC   GL244678  36.055  40.906   6.150
 6716POPC   C1A44679  36.151  40.805   6.450
 6716POPC   D2A44680  36.156  40.739   6.750
 6716POPC   C3A44681  36.160  40.803   7.050
 6716POPC   C4A44682  36.105  40.759   7.350
 6716POPC   C1B44683  36.032  41.039   6.450
 6716POPC   C2B44684  36.085  41.052   6.750
 6716POPC   C3B44685  35.998  40.991   7.050
 6716POPC   C4B44686  36.062  40.974   7.350
 6717POPC   NC344687  23.711  35.363   5.550
 6717POPC   PO444688  23.748  35.348   5.850
 6717POPC   GL144689  23.725  35.364   6.150
 6717POPC   GL244690  23.618  35.327   6.150
 6717POPC   C1A44691  23.716  35.399   6.450
 6717POPC   D2A44692  23.705  35.371   6.750
 6717POPC   C3A44693  23.681  35.327   7.050
 6717POPC   C4A44694  23.703  35.333   7.350
 6717POPC   C1B44695  23.512  35.335   6.450
 6717POPC   C2B44696  23.487  35.328   6.750
 6717POPC   C3B44697  23.511  35.302   7.050
 6717POPC   C4B44698  23.485  35.322   7.350
 6718POPC   NC344699  26.074   4.281   5.550
 6718POPC   PO444700  26.076   4.357   5.850
 6718POPC   GL144701  26.026   4.273   6.150
 6718POPC   GL244702  26.168   4.308   6.150
 6718POPC   C1A44703  26.080   4.333   6.450
 6718POPC   D2A44704  26.024   4.355   6.750
 6718POPC   C3A44705  26.075   4.326   7.050
 6718POPC   C4A44706  26.073   4.308   7.350
 6718POPC   C1B44707  26.307   4.177   6.450
 6718POPC   C2B44708  26.292   4.228   6.750
 6718POPC   C3B44709  26.241   4.196   7.050
 6718POPC   C4B44710  26.234   4.203   7.350
 6719POPC   NC344711  15.155  17.480   5.550
 6719POPC   PO444712  15.168  17.478   5.850
 6719POPC   GL144713  15.139  17.537   6.150
 6719POPC   GL244714  15.209  17.368   6.150
 6719POPC   C1A44715  15.133  17.460   6.450
 6719POPC   D2A44716  15.139  17.485   6.750
 6719POPC   C3A44717  15.226  17.474   7.050
 6719POPC   C4A44718  15.203  17.517   7.350
 6719POPC   C1B44719  15.295  17.270   6.450
 6719POPC   C2B44720  15.353  17.285   6.750
 6719POPC   C3B44721  15.294  17.326   7.050
 6719POPC   C4B44722  15.348  17.305   7.350
 6720POPC   NC344723  32.239  32.215   5.550
 6720POPC   PO444724  32.223  32.264   5.850
 6720POPC   GL144725  32.253  32.255   6.150
 6720POPC   GL244726  32.355  32.141   6.150
 6720POPC   C1A44727  32.259  32.230   6.450
 6720POPC   D2A44728  32.220  32.294   6.750
 6720POPC   C3A44729  32.245  32.227   7.050
 6720POPC   C4A44730  32.277  32.238   7.350
 6720POPC   C1B44731  32.429  32.110   6.450
 6720POPC   C2B44732  32.424  32.146   6.750
 6720POPC   C3B44733  32.431  32.117   7.050
 6720POPC   C4B44734  32.418  32.125   7.350
 6721POPC   NC344735  14.412   2.780   5.550
 6721POPC   PO444736  14.392   2.767   5.850
 6721POPC   GL144737  14.426   2.741   6.150
 6721POPC   GL244738  14.518   2.715   6.150
 6721POPC   C1A44739  14.448   2.719   6.450
 6721POPC   D2A44740  14.416   2.773   6.750
 6721POPC   C3A44741  14.418   2.797   7.050
 6721POPC   C4A44742  14.434   2.750   7.350
 6721POPC   C1B44743  14.615   2.691   6.450
 6721POPC   C2B44744  14.693   2.759   6.750
 6721POPC   C3B44745  14.623   2.785   7.050
 6721POPC   C4B44746  14.627   2.698   7.350
 6722POPC   NC344747   2.728  33.071   5.550
 6722POPC   PO444748   2.770  33.061   5.850
 6722POPC   GL144749   2.800  33.015   6.150
 6722POPC   GL244750   2.777  32.943   6.150
 6722POPC   C1A44751   2.782  33.019   6.450
 6722POPC   D2A44752   2.745  33.069   6.750
 6722POPC   C3A44753   2.726  33.013   7.050
 6722POPC   C4A44754   2.734  33.008   7.350
 6722POPC   C1B44755   2.807  32.811   6.450
 6722POPC   C2B44756   2.788  32.791   6.750
 6722POPC   C3B44757   2.773  32.813   7.050
 6722POPC   C4B44758   2.826  32.736   7.350
 6723POPC   NC344759  21.377  36.152   5.550
 6723POPC   PO444760  21.426  36.108   5.850
 6723POPC   GL144761  21.406  36.133   6.150
 6723POPC   GL244762  21.355  36.028   6.150
 6723POPC   C1A44763  21.346  36.122   6.450
 6723POPC   D2A44764  21.341  36.137   6.750
 6723POPC   C3A44765  21.397  36.125   7.050
 6723POPC   C4A44766  21.380  36.078   7.350
 6723POPC   C1B44767  21.241  35.933   6.450
 6723POPC   C2B44768  21.277  35.940   6.750
 6723POPC   C3B44769  21.271  35.929   7.050
 6723POPC   C4B44770  21.210  35.948   7.350
 6724POPC   NC344771  34.581   4.325   5.550
 6724POPC   PO444772  34.592   4.296   5.850
 6724POPC   GL144773  34.617   4.267   6.150
 6724POPC   GL244774  34.597   4.403   6.150
 6724POPC   C1A44775  34.601   4.314   6.450
 6724POPC   D2A44776  34.540   4.358   6.750
 6724POPC   C3A44777  34.549   4.358   7.050
 6724POPC   C4A44778  34.576   4.276   7.350
 6724POPC   C1B44779  34.556   4.528   6.450
 6724POPC   C2B44780  34.573   4.581   6.750
 6724POPC   C3B44781  34.511   4.565   7.050
 6724POPC   C4B44782  34.505   4.609   7.350
 6725POPC   NC344783   7.373  43.931   5.550
 6725POPC   PO444784   7.397  43.905   5.850
 6725POPC   GL144785   7.375  43.868   6.150
 6725POPC   GL244786   7.331  43.811   6.150
 6725POPC   C1A44787   7.446  43.883   6.450
 6725POPC   D2A44788   7.381  43.892   6.750
 6725POPC   C3A44789   7.393  43.912   7.050
 6725POPC   C4A44790   7.407  43.909   7.350
 6725POPC   C1B44791   7.295  43.720   6.450
 6725POPC   C2B44792   7.298  43.702   6.750
 6725POPC   C3B44793   7.210  43.685   7.050
 6725POPC   C4B44794   7.279  43.697   7.350
 6726POPC   NC344795  29.157  40.799   5.550
 6726POPC   PO444796  29.192  40.737   5.850
 6726POPC   GL144797  29.095  40.813   6.150
 6726POPC   GL244798  29.198  40.688   6.150
 6726POPC   C1A44799  29.170  40.829   6.450
 6726POPC   D2A44800  29.106  40.754   6.750
 6726POPC   C3A44801  29.144  40.769   7.050
 6726POPC   C4A44802  29.183  40.746   7.350
 6726POPC   C1B44803  29.342  40.640   6.450
 6726POPC   C2B44804  29.351  40.624   6.750
 6726POPC   C3B44805  29.303  40.624   7.050
 6726POPC   C4B44806  29.399  40.638   7.350
 6727POPC   NC344807  30.699  33.766   5.550
 6727POPC   PO444808  30.677  33.846   5.850
 6727POPC   GL144809  30.666  33.766   6.150
 6727POPC   GL244810  30.730  33.890   6.150
 6727POPC   C1A44811  30.686  33.799   6.450
 6727POPC   D2A44812  30.669  33.812   6.750
 6727POPC   C3A44813  30.668  33.791   7.050
 6727POPC   C4A44814  30.682  33.780   7.350
 6727POPC   C1B44815  30.786  34.070   6.450
 6727POPC   C2B44816  30.803  33.982   6.750
 6727POPC   C3B44817  30.838  34.063   7.050
 6727POPC   C4B44818  30.826  34.036   7.350
 6728POPC   NC344819  36.143  19.862   5.550
 6728POPC   PO444820  36.168  19.870   5.850
 6728POPC   GL144821  36.140  19.864   6.150
 6728POPC   GL244822  36.037  19.954   6.150
 6728POPC   C1A44823  36.176  19.827   6.450
 6728POPC   D2A44824  36.141  19.834   6.750
 6728POPC   C3A44825  36.086  19.849   7.050
 6728POPC   C4A44826  36.086  19.816   7.350
 6728POPC   C1B44827  36.027  20.087   6.450
 6728POPC   C2B44828  36.012  20.077   6.750
 6728POPC   C3B44829  36.003  20.064   7.050
 6728POPC   C4B44830  36.012  20.001   7.350
 6729POPC   NC344831   7.438  32.280   5.550
 6729POPC   PO444832   7.460  32.199   5.850
 6729POPC   GL144833   7.448  32.207   6.150
 6729POPC   GL244834   7.507  32.329   6.150
 6729POPC   C1A44835   7.467  32.275   6.450
 6729POPC   D2A44836   7.467  32.264   6.750
 6729POPC   C3A44837   7.421  32.277   7.050
 6729POPC   C4A44838   7.375  32.268   7.350
 6729POPC   C1B44839   7.540  32.476   6.450
 6729POPC   C2B44840   7.540  32.453   6.750
 6729POPC   C3B44841   7.493  32.432   7.050
 6729POPC   C4B44842   7.539  32.519   7.350
 6730POPC   NC344843  19.829  26.029   5.550
 6730POPC   PO444844  19.864  26.010   5.850
 6730POPC   GL144845  19.845  26.025   6.150
 6730POPC   GL244846  19.902  26.102   6.150
 6730POPC   C1A44847  19.793  26.070   6.450
 6730POPC   D2A44848  19.840  26.009   6.750
 6730POPC   C3A44849  19.815  26.085   7.050
 6730POPC   C4A44850  19.827  26.063   7.350
 6730POPC   C1B44851  19.975  26.264   6.450
 6730POPC   C2B44852  19.954  26.259   6.750
 6730POPC   C3B44853  19.953  26.226   7.050
 6730POPC   C4B44854  20.014  26.232   7.350
 6731POPC   NC344855  37.716  12.106   5.550
 6731POPC   PO444856  37.697  12.034   5.850
 6731POPC   GL144857  37.676  12.122   6.150
 6731POPC   GL244858  37.635  12.005   6.150
 6731POPC   C1A44859  37.712  12.044   6.450
 6731POPC   D2A44860  37.640  12.061   6.750
 6731POPC   C3A44861  37.651  12.073   7.050
 6731POPC   C4A44862  37.679  12.099   7.350
 6731POPC   C1B44863  37.577  11.902   6.450
 6731POPC   C2B44864  37.522  11.853   6.750
 6731POPC   C3B44865  37.526  11.914   7.050
 6731POPC   C4B44866  37.508  11.865   7.350
 6732POPC   NC344867   4.309  15.985   5.550
 6732POPC   PO444868   4.356  15.999   5.850
 6732POPC   GL144869   4.302  15.994   6.150
 6732POPC   GL244870   4.347  15.830   6.150
 6732POPC   C1A44871   4.356  15.907   6.450
 6732POPC   D2A44872   4.269  15.933   6.750
 6732POPC   C3A44873   4.301  15.949   7.050
 6732POPC   C4A44874   4.357  15.948   7.350
 6732POPC   C1B44875   4.326  15.697   6.450
 6732POPC   C2B44876   4.383  15.696   6.750
 6732POPC   C3B44877   4.346  15.752   7.050
 6732POPC   C4B44878   4.388  15.696   7.350
 6733POPC   NC344879  32.982  22.894   5.550
 6733POPC   PO444880  33.025  22.961   5.850
 6733POPC   GL144881  33.039  22.971   6.150
 6733POPC   GL244882  33.039  23.018   6.150
 6733POPC   C1A44883  33.069  22.900   6.450
 6733POPC   D2A44884  32.994  22.915   6.750
 6733POPC   C3A44885  33.064  22.928   7.050
 6733POPC   C4A44886  33.022  22.958   7.350
 6733POPC   C1B44887  33.094  23.162   6.450
 6733POPC   C2B44888  33.140  23.202   6.750
 6733POPC   C3B44889  33.107  23.160   7.050
 6733POPC   C4B44890  33.152  23.118   7.350
 6734POPC   NC344891  27.638  12.122   5.550
 6734POPC   PO444892  27.614  12.106   5.850
 6734POPC   GL144893  27.635  12.124   6.150
 6734POPC   GL244894  27.468  12.190   6.150
 6734POPC   C1A44895  27.607  12.049   6.450
 6734POPC   D2A44896  27.610  12.037   6.750
 6734POPC   C3A44897  27.568  12.094   7.050
 6734POPC   C4A44898  27.581  12.087   7.350
 6734POPC   C1B44899  27.379  12.291   6.450
 6734POPC   C2B44900  27.445  12.303   6.750
 6734POPC   C3B44901  27.452  12.245   7.050
 6734POPC   C4B44902  27.416  12.235   7.350
 6735POPC   NC344903  43.125  28.345   5.550
 6735POPC   PO444904  43.108  28.349   5.850
 6735POPC   GL144905  43.081  28.362   6.150
 6735POPC   GL244906  43.089  28.195   6.150
 6735POPC   C1A44907  43.081  28.396   6.450
 6735POPC   D2A44908  43.098  28.392   6.750
 6735POPC   C3A44909  43.149  28.401   7.050
 6735POPC   C4A44910  43.122  28.372   7.350
 6735POPC   C1B44911  43.098  28.086   6.450
 6735POPC   C2B44912  43.123  28.156   6.750
 6735POPC   C3B44913  43.093  28.126   7.050
 6735POPC   C4B44914  43.149  28.133   7.350
 6736POPC   NC344915   1.216  20.561   5.550
 6736POPC   PO444916   1.219  20.623   5.850
 6736POPC   GL144917   1.251  20.627   6.150
 6736POPC   GL244918   1.308  20.573   6.150
 6736POPC   C1A44919   1.229  20.659   6.450
 6736POPC   D2A44920   1.183  20.576   6.750
 6736POPC   C3A44921   1.208  20.618   7.050
 6736POPC   C4A44922   1.218  20.596   7.350
 6736POPC   C1B44923   1.457  20.471   6.450
 6736POPC   C2B44924   1.424  20.514   6.750
 6736POPC   C3B44925   1.463  20.520   7.050
 6736POPC   C4B44926   1.387  20.472   7.350
 6737POPC   NC344927  26.820  38.430   5.550
 6737POPC   PO444928  26.777  38.405   5.850
 6737POPC   GL144929  26.777  38.438   6.150
 6737POPC   GL244930  26.811  38.581   6.150
 6737POPC   C1A44931  26.800  38.499   6.450
 6737POPC   D2A44932  26.832  38.489   6.750
 6737POPC   C3A44933  26.795  38.497   7.050
 6737POPC   C4A44934  26.799  38.482   7.350
 6737POPC   C1B44935  26.805  38.687   6.450
 6737POPC   C2B44936  26.820  38.671   6.750
 6737POPC   C3B44937  26.786  38.706   7.050
 6737POPC   C4B44938  26.758  38.666   7.350
 6738POPC   NC344939   5.106   1.251   5.550
 6738POPC   PO444940   5.113   1.241   5.850
 6738POPC   GL144941   5.109   1.247   6.150
 6738POPC   GL244942   4.950   1.250   6.150
 6738POPC   C1A44943   5.134   1.220   6.450
 6738POPC   D2A44944   5.137   1.191   6.750
 6738POPC   C3A44945   5.056   1.213   7.050
 6738POPC   C4A44946   5.044   1.231   7.350
 6738POPC   C1B44947   4.880   1.388   6.450
 6738POPC   C2B44948   4.880   1.368   6.750
 6738POPC   C3B44949   4.882   1.324   7.050
 6738POPC   C4B44950   4.875   1.333   7.350
 6739POPC   NC344951  18.329  12.828   5.550
 6739POPC   PO444952  18.311  12.842   5.850
 6739POPC   GL144953  18.328  12.820   6.150
 6739POPC   GL244954  18.185  12.995   6.150
 6739POPC   C1A44955  18.273  12.835   6.450
 6739POPC   D2A44956  18.245  12.845   6.750
 6739POPC   C3A44957  18.260  12.873   7.050
 6739POPC   C4A44958  18.321  12.841   7.350
 6739POPC   C1B44959  18.186  13.025   6.450
 6739POPC   C2B44960  18.143  13.055   6.750
 6739POPC   C3B44961  18.165  13.064   7.050
 6739POPC   C4B44962  18.205  13.049   7.350
 6740POPC   NC344963  26.050  32.212   5.550
 6740POPC   PO444964  26.005  32.229   5.850
 6740POPC   GL144965  26.041  32.288   6.150
 6740POPC   GL244966  25.932  32.204   6.150
 6740POPC   C1A44967  26.069  32.286   6.450
 6740POPC   D2A44968  26.040  32.287   6.750
 6740POPC   C3A44969  26.045  32.241   7.050
 6740POPC   C4A44970  26.027  32.232   7.350
 6740POPC   C1B44971  25.832  32.143   6.450
 6740POPC   C2B44972  25.781  32.118   6.750
 6740POPC   C3B44973  25.810  32.155   7.050
 6740POPC   C4B44974  25.827  32.081   7.350
 6741POPC   NC344975  36.887  22.124   5.550
 6741POPC   PO444976  36.939  22.132   5.850
 6741POPC   GL144977  36.878  22.138   6.150
 6741POPC   GL244978  36.751  22.173   6.150
 6741POPC   C1A44979  36.874  22.139   6.450
 6741POPC   D2A44980  36.902  22.151   6.750
 6741POPC   C3A44981  36.942  22.160   7.050
 6741POPC   C4A44982  36.860  22.130   7.350
 6741POPC   C1B44983  36.673  22.217   6.450
 6741POPC   C2B44984  36.617  22.248   6.750
 6741POPC   C3B44985  36.634  22.266   7.050
 6741POPC   C4B44986  36.655  22.219   7.350
 6742POPC   NC344987  40.759   5.885   5.550
 6742POPC   PO444988  40.779   5.914   5.850
 6742POPC   GL144989  40.801   5.891   6.150
 6742POPC   GL244990  40.691   5.941   6.150
 6742POPC   C1A44991  40.807   5.896   6.450
 6742POPC   D2A44992  40.799   5.838   6.750
 6742POPC   C3A44993  40.807   5.847   7.050
 6742POPC   C4A44994  40.829   5.856   7.350
 6742POPC   C1B44995  40.691   6.151   6.450
 6742POPC   C2B44996  40.673   6.085   6.750
 6742POPC   C3B44997  40.727   6.074   7.050
 6742POPC   C4B44998  40.673   6.132   7.350
 6743POPC   NC344999   8.192  38.498   5.550
 6743POPC   PO445000   8.185  38.483   5.850
 6743POPC   GL145001   8.184  38.427   6.150
 6743POPC   GL245002   8.126  38.357   6.150
 6743POPC   C1A45003   8.184  38.430   6.450
 6743POPC   D2A45004   8.235  38.483   6.750
 6743POPC   C3A45005   8.238  38.414   7.050
 6743POPC   C4A45006   8.205  38.408   7.350
 6743POPC   C1B45007   8.046  38.278   6.450
 6743POPC   C2B45008   8.051  38.292   6.750
 6743POPC   C3B45009   8.059  38.272   7.050
 6743POPC   C4B45010   8.063  38.265   7.350
 6744POPC   NC345011  41.520  41.543   5.550
 6744POPC   PO445012  41.554  41.532   5.850
 6744POPC   GL145013  41.595  41.584   6.150
 6744POPC   GL245014  41.655  41.628   6.150
 6744POPC   C1A45015  41.526  41.520   6.450
 6744POPC   D2A45016  41.604  41.576   6.750
 6744POPC   C3A45017  41.521  41.519   7.050
 6744POPC   C4A45018  41.568  41.588   7.350
 6744POPC   C1B45019  41.783  41.644   6.450
 6744POPC   C2B45020  41.802  41.589   6.750
 6744POPC   C3B45021  41.823  41.657   7.050
 6744POPC   C4B45022  41.811  41.632   7.350
 6745POPC   NC345023   6.684  23.736   5.550
 6745POPC   PO445024   6.616  23.737   5.850
 6745POPC   GL145025   6.640  23.712   6.150
 6745POPC   GL245026   6.731  23.764   6.150
 6745POPC   C1A45027   6.663  23.763   6.450
 6745POPC   D2A45028   6.669  23.727   6.750
 6745POPC   C3A45029   6.672  23.699   7.050
 6745POPC   C4A45030   6.622  23.667   7.350
 6745POPC   C1B45031   6.848  23.805   6.450
 6745POPC   C2B45032   6.858  23.798   6.750
 6745POPC   C3B45033   6.870  23.815   7.050
 6745POPC   C4B45034   6.840  23.839   7.350
 6746POPC   NC345035  43.890   6.622   5.550
 6746POPC   PO445036  43.887   6.607   5.850
 6746POPC   GL145037  43.909   6.674   6.150
 6746POPC   GL245038  43.792   6.595   6.150
 6746POPC   C1A45039  43.881   6.680   6.450
 6746POPC   D2A45040  43.862   6.687   6.750
 6746POPC   C3A45041  43.875   6.600   7.050
 6746POPC   C4A45042  43.928   6.675   7.350
 6746POPC   C1B45043  43.664   6.576   6.450
 6746POPC   C2B45044  43.677   6.587   6.750
 6746POPC   C3B45045  43.621   6.538   7.050
 6746POPC   C4B45046  43.689   6.545   7.350
 6747POPC   NC345047  35.363  14.399   5.550
 6747POPC   PO445048  35.385  14.440   5.850
 6747POPC   GL145049  35.340  14.358   6.150
 6747POPC   GL245050  35.476  14.371   6.150
 6747POPC   C1A45051  35.390  14.420   6.450
 6747POPC   D2A45052  35.381  14.429   6.750
 6747POPC   C3A45053  35.305  14.396   7.050
 6747POPC   C4A45054  35.361  14.426   7.350
 6747POPC   C1B45055  35.544  14.240   6.450
 6747POPC   C2B45056  35.561  14.279   6.750
 6747POPC   C3B45057  35.507  14.266   7.050
 6747POPC   C4B45058  35.540  14.285   7.350
 6748POPC   NC345059  16.727  40.004   5.550
 6748POPC   PO445060  16.697  40.030   5.850
 6748POPC   GL145061  16.755  39.958   6.150
 6748POPC   GL245062  16.822  39.931   6.150
 6748POPC   C1A45063  16.753  40.052   6.450
 6748POPC   D2A45064  16.762  40.056   6.750
 6748POPC   C3A45065  16.777  40.023   7.050
 6748POPC   C4A45066  16.728  39.999   7.350
 6748POPC   C1B45067  16.840  39.760   6.450
 6748POPC   C2B45068  16.850  39.795   6.750
 6748POPC   C3B45069  16.815  39.789   7.050
 6748POPC   C4B45070  16.835  39.745   7.350
 6749POPC   NC345071  22.139  41.593   5.550
 6749POPC   PO445072  22.207  41.549   5.850
 6749POPC   GL145073  22.157  41.598   6.150
 6749POPC   GL245074  22.031  41.603   6.150
 6749POPC   C1A45075  22.196  41.561   6.450
 6749POPC   D2A45076  22.197  41.553   6.750
 6749POPC   C3A45077  22.147  41.540   7.050
 6749POPC   C4A45078  22.118  41.548   7.350
 6749POPC   C1B45079  21.967  41.672   6.450
 6749POPC   C2B45080  21.912  41.660   6.750
 6749POPC   C3B45081  21.971  41.685   7.050
 6749POPC   C4B45082  21.979  41.730   7.350
 6750POPC   NC345083  13.614  20.619   5.550
 6750POPC   PO445084  13.623  20.620   5.850
 6750POPC   GL145085  13.642  20.561   6.150
 6750POPC   GL245086  13.460  20.625   6.150
 6750POPC   C1A45087  13.648  20.564   6.450
 6750POPC   D2A45088  13.640  20.636   6.750
 6750POPC   C3A45089  13.666  20.605   7.050
 6750POPC   C4A45090  13.614  20.566   7.350
 6750POPC   C1B45091  13.382  20.624   6.450
 6750POPC   C2B45092  13.424  20.598   6.750
 6750POPC   C3B45093  13.429  20.611   7.050
 6750POPC   C4B45094  13.362  20.689   7.350
 6751POPC   NC345095   1.176  33.760   5.550
 6751POPC   PO445096   1.249  33.795   5.850
 6751POPC   GL145097   1.233  33.796   6.150
 6751POPC   GL245098   1.328  33.666   6.150
 6751POPC   C1A45099   1.213  33.833   6.450
 6751POPC   D2A45100   1.194  33.777   6.750
 6751POPC   C3A45101   1.253  33.783   7.050
 6751POPC   C4A45102   1.203  33.796   7.350
 6751POPC   C1B45103   1.341  33.585   6.450
 6751POPC   C2B45104   1.419  33.609   6.750
 6751POPC   C3B45105   1.382  33.630   7.050
 6751POPC   C4B45106   1.430  33.585   7.350
 6752POPC   NC345107  25.272  35.344   5.550
 6752POPC   PO445108  25.304  35.394   5.850
 6752POPC   GL145109  25.284  35.400   6.150
 6752POPC   GL245110  25.252  35.439   6.150
 6752POPC   C1A45111  25.284  35.354   6.450
 6752POPC   D2A45112  25.240  35.363   6.750
 6752POPC   C3A45113  25.264  35.307   7.050
 6752POPC   C4A45114  25.230  35.396   7.350
 6752POPC   C1B45115  25.245  35.634   6.450
 6752POPC   C2B45116  25.235  35.614   6.750
 6752POPC   C3B45117  25.284  35.581   7.050
 6752POPC   C4B45118  25.263  35.602   7.350
 6753POPC   NC345119   3.509   5.913   5.550
 6753POPC   PO445120   3.520   5.877   5.850
 6753POPC   GL145121   3.578   5.847   6.150
 6753POPC   GL245122   3.545   6.022   6.150
 6753POPC   C1A45123   3.499   5.857   6.450
 6753POPC   D2A45124   3.517   5.842   6.750
 6753POPC   C3A45125   3.579   5.834   7.050
 6753POPC   C4A45126   3.574   5.888   7.350
 6753POPC   C1B45127   3.488   6.074   6.450
 6753POPC   C2B45128   3.416   6.139   6.750
 6753POPC   C3B45129   3.498   6.065   7.050
 6753POPC   C4B45130   3.447   6.124   7.350
 6754POPC   NC345131  36.172  27.583   5.550
 6754POPC   PO445132  36.169  27.554   5.850
 6754POPC   GL145133  36.122  27.602   6.150
 6754POPC   GL245134  36.128  27.467   6.150
 6754POPC   C1A45135  36.160  27.575   6.450
 6754POPC   D2A45136  36.158  27.559   6.750
 6754POPC   C3A45137  36.104  27.627   7.050
 6754POPC   C4A45138  36.168  27.593   7.350
 6754POPC   C1B45139  36.023  27.398   6.450
 6754POPC   C2B45140  36.038  27.334   6.750
 6754POPC   C3B45141  36.103  27.332   7.050
 6754POPC   C4B45142  36.049  27.339   7.350
 6755POPC   NC345143  36.871   7.373   5.550
 6755POPC   PO445144  36.861   7.440   5.850
 6755POPC   GL145145  36.949   7.390   6.150
 6755POPC   GL245146  37.053   7.449   6.150
 6755POPC   C1A45147  36.872   7.408   6.450
 6755POPC   D2A45148  36.919   7.463   6.750
 6755POPC   C3A45149  36.951   7.373   7.050
 6755POPC   C4A45150  36.944   7.386   7.350
 6755POPC   C1B45151  37.123   7.445   6.450
 6755POPC   C2B45152  37.102   7.496   6.750
 6755POPC   C3B45153  37.196   7.490   7.050
 6755POPC   C4B45154  37.130   7.437   7.350
 6756POPC   NC345155   1.180  38.441   5.550
 6756POPC   PO445156   1.176  38.439   5.850
 6756POPC   GL145157   1.190  38.410   6.150
 6756POPC   GL245158   1.056  38.557   6.150
 6756POPC   C1A45159   1.165  38.413   6.450
 6756POPC   D2A45160   1.178  38.431   6.750
 6756POPC   C3A45161   1.188  38.498   7.050
 6756POPC   C4A45162   1.226  38.441   7.350
 6756POPC   C1B45163   0.982  38.540   6.450
 6756POPC   C2B45164   1.004  38.548   6.750
 6756POPC   C3B45165   0.941  38.543   7.050
 6756POPC   C4B45166   0.987  38.546   7.350
 6757POPC   NC345167  31.428  28.382   5.550
 6757POPC   PO445168  31.501  28.385   5.850
 6757POPC   GL145169  31.458  28.350   6.150
 6757POPC   GL245170  31.566  28.330   6.150
 6757POPC   C1A45171  31.450  28.412   6.450
 6757POPC   D2A45172  31.488  28.331   6.750
 6757POPC   C3A45173  31.483  28.326   7.050
 6757POPC   C4A45174  31.454  28.322   7.350
 6757POPC   C1B45175  31.650  28.256   6.450
 6757POPC   C2B45176  31.691  28.272   6.750
 6757POPC   C3B45177  31.661  28.275   7.050
 6757POPC   C4B45178  31.719  28.222   7.350
 6758POPC   NC345179   5.064  28.328   5.550
 6758POPC   PO445180   5.067  28.383   5.850
 6758POPC   GL145181   5.074  28.363   6.150
 6758POPC   GL245182   5.016  28.495   6.150
 6758POPC   C1A45183   5.110  28.377   6.450
 6758POPC   D2A45184   5.117  28.381   6.750
 6758POPC   C3A45185   5.137  28.329   7.050
 6758POPC   C4A45186   5.062  28.375   7.350
 6758POPC   C1B45187   4.900  28.509   6.450
 6758POPC   C2B45188   4.900  28.501   6.750
 6758POPC   C3B45189   4.963  28.522   7.050
 6758POPC   C4B45190   4.936  28.577   7.350
 6759POPC   NC345191  24.523  23.683   5.550
 6759POPC   PO445192  24.447  23.692   5.850
 6759POPC   GL145193  24.526  23.748   6.150
 6759POPC   GL245194  24.513  23.860   6.150
 6759POPC   C1A45195  24.457  23.758   6.450
 6759POPC   D2A45196  24.467  23.670   6.750
 6759POPC   C3A45197  24.488  23.689   7.050
 6759POPC   C4A45198  24.520  23.748   7.350
 6759POPC   C1B45199  24.461  24.006   6.450
 6759POPC   C2B45200  24.465  24.003   6.750
 6759POPC   C3B45201  24.492  23.925   7.050
 6759POPC   C4B45202  24.494  23.975   7.350
 6760POPC   NC345203  18.243  39.198   5.550
 6760POPC   PO445204  18.254  39.236   5.850
 6760POPC   GL145205  18.320  39.250   6.150
 6760POPC   GL245206  18.192  39.265   6.150
 6760POPC   C1A45207  18.297  39.274   6.450
 6760POPC   D2A45208  18.240  39.230   6.750
 6760POPC   C3A45209  18.263  39.198   7.050
 6760POPC   C4A45210  18.294  39.256   7.350
 6760POPC   C1B45211  18.028  39.285   6.450
 6760POPC   C2B45212  17.992  39.277   6.750
 6760POPC   C3B45213  17.996  39.305   7.050
 6760POPC   C4B45214  17.988  39.274   7.350
 6761POPC   NC345215  34.530  15.973   5.550
 6761POPC   PO445216  34.566  15.935   5.850
 6761POPC   GL145217  34.601  15.983   6.150
 6761POPC   GL245218  34.414  15.871   6.150
 6761POPC   C1A45219  34.624  15.938   6.450
 6761POPC   D2A45220  34.578  15.921   6.750
 6761POPC   C3A45221  34.568  15.974   7.050
 6761POPC   C4A45222  34.543  15.948   7.350
 6761POPC   C1B45223  34.359  15.846   6.450
 6761POPC   C2B45224  34.337  15.863   6.750
 6761POPC   C3B45225  34.387  15.855   7.050
 6761POPC   C4B45226  34.368  15.864   7.350
 6762POPC   NC345227  40.766  14.410   5.550
 6762POPC   PO445228  40.738  14.394   5.850
 6762POPC   GL145229  40.739  14.392   6.150
 6762POPC   GL245230  40.675  14.508   6.150
 6762POPC   C1A45231  40.776  14.368   6.450
 6762POPC   D2A45232  40.817  14.451   6.750
 6762POPC   C3A45233  40.785  14.429   7.050
 6762POPC   C4A45234  40.803  14.394   7.350
 6762POPC   C1B45235  40.626  14.571   6.450
 6762POPC   C2B45236  40.581  14.632   6.750
 6762POPC   C3B45237  40.607  14.586   7.050
 6762POPC   C4B45238  40.570  14.606   7.350
 6763POPC   NC345239   2.039  19.051   5.550
 6763POPC   PO445240   2.005  19.048   5.850
 6763POPC   GL145241   2.000  19.033   6.150
 6763POPC   GL245242   1.920  19.162   6.150
 6763POPC   C1A45243   1.941  19.101   6.450
 6763POPC   D2A45244   2.006  19.033   6.750
 6763POPC   C3A45245   1.946  19.057   7.050
 6763POPC   C4A45246   2.004  19.032   7.350
 6763POPC   C1B45247   1.878  19.235   6.450
 6763POPC   C2B45248   1.846  19.261   6.750
 6763POPC   C3B45249   1.858  19.251   7.050
 6763POPC   C4B45250   1.869  19.237   7.350
 6764POPC   NC345251  27.581  14.418   5.550
 6764POPC   PO445252  27.632  14.365   5.850
 6764POPC   GL145253  27.590  14.419   6.150
 6764POPC   GL245254  27.737  14.471   6.150
 6764POPC   C1A45255  27.566  14.406   6.450
 6764POPC   D2A45256  27.549  14.382   6.750
 6764POPC   C3A45257  27.569  14.412   7.050
 6764POPC   C4A45258  27.606  14.415   7.350
 6764POPC   C1B45259  27.782  14.481   6.450
 6764POPC   C2B45260  27.847  14.534   6.750
 6764POPC   C3B45261  27.775  14.558   7.050
 6764POPC   C4B45262  27.834  14.553   7.350
 6765POPC   NC345263  26.050   8.241   5.550
 6765POPC   PO445264  26.072   8.165   5.850
 6765POPC   GL145265  26.089   8.236   6.150
 6765POPC   GL245266  25.903   8.291   6.150
 6765POPC   C1A45267  26.044   8.175   6.450
 6765POPC   D2A45268  26.008   8.231   6.750
 6765POPC   C3A45269  26.013   8.192   7.050
 6765POPC   C4A45270  25.995   8.232   7.350
 6765POPC   C1B45271  25.830   8.311   6.450
 6765POPC   C2B45272  25.852   8.268   6.750
 6765POPC   C3B45273  25.785   8.260   7.050
 6765POPC   C4B45274  25.778   8.348   7.350
 6766POPC   NC345275  29.879  38.418   5.550
 6766POPC   PO445276  29.876  38.471   5.850
 6766POPC   GL145277  29.929  38.487   6.150
 6766POPC   GL245278  29.848  38.415   6.150
 6766POPC   C1A45279  29.959  38.407   6.450
 6766POPC   D2A45280  29.881  38.483   6.750
 6766POPC   C3A45281  29.933  38.449   7.050
 6766POPC   C4A45282  29.960  38.438   7.350
 6766POPC   C1B45283  29.649  38.368   6.450
 6766POPC   C2B45284  29.709  38.424   6.750
 6766POPC   C3B45285  29.639  38.337   7.050
 6766POPC   C4B45286  29.663  38.409   7.350
 6767POPC   NC345287  27.592  40.042   5.550
 6767POPC   PO445288  27.554  39.998   5.850
 6767POPC   GL145289  27.552  40.055   6.150
 6767POPC   GL245290  27.695  39.925   6.150
 6767POPC   C1A45291  27.570  40.034   6.450
 6767POPC   D2A45292  27.638  39.983   6.750
 6767POPC   C3A45293  27.634  40.033   7.050
 6767POPC   C4A45294  27.587  40.018   7.350
 6767POPC   C1B45295  27.742  39.776   6.450
 6767POPC   C2B45296  27.673  39.765   6.750
 6767POPC   C3B45297  27.753  39.750   7.050
 6767POPC   C4B45298  27.713  39.803   7.350
 6768POPC   NC345299  36.928  26.788   5.550
 6768POPC   PO445300  36.872  26.839   5.850
 6768POPC   GL145301  36.919  26.800   6.150
 6768POPC   GL245302  36.807  26.951   6.150
 6768POPC   C1A45303  36.942  26.787   6.450
 6768POPC   D2A45304  36.915  26.768   6.750
 6768POPC   C3A45305  36.916  26.820   7.050
 6768POPC   C4A45306  36.859  26.849   7.350
 6768POPC   C1B45307  36.718  26.992   6.450
 6768POPC   C2B45308  36.691  26.976   6.750
 6768POPC   C3B45309  36.733  26.966   7.050
 6768POPC   C4B45310  36.685  27.041   7.350
 6769POPC   NC345311  34.598  26.849   5.550
 6769POPC   PO445312  34.576  26.778   5.850
 6769POPC   GL145313  34.617  26.784   6.150
 6769POPC   GL245314  34.460  26.679   6.150
 6769POPC   C1A45315  34.561  26.788   6.450
 6769POPC   D2A45316  34.572  26.808   6.750
 6769POPC   C3A45317  34.610  26.821   7.050
 6769POPC   C4A45318  34.609  26.784   7.350
 6769POPC   C1B45319  34.470  26.633   6.450
 6769POPC   C2B45320  34.424  26.603   6.750
 6769POPC   C3B45321  34.399  26.591   7.050
 6769POPC   C4B45322  34.434  26.650   7.350
 6770POPC   NC345323  31.478  33.829   5.550
 6770POPC   PO445324  31.451  33.784   5.850
 6770POPC   GL145325  31.505  33.829   6.150
 6770POPC   GL245326  31.428  33.709   6.150
 6770POPC   C1A45327  31.436  33.836   6.450
 6770POPC   D2A45328  31.464  33.786   6.750
 6770POPC   C3A45329  31.495  33.835   7.050
 6770POPC   C4A45330  31.461  33.812   7.350
 6770POPC   C1B45331  31.434  33.529   6.450
 6770POPC   C2B45332  31.444  33.529   6.750
 6770POPC   C3B45333  31.433  33.555   7.050
 6770POPC   C4B45334  31.360  33.607   7.350
 6771POPC   NC345335  29.183  29.941   5.550
 6771POPC   PO445336  29.163  29.948   5.850
 6771POPC   GL145337  29.193  29.878   6.150
 6771POPC   GL245338  29.181  29.847   6.150
 6771POPC   C1A45339  29.110  29.914   6.450
 6771POPC   D2A45340  29.114  29.894   6.750
 6771POPC   C3A45341  29.105  29.899   7.050
 6771POPC   C4A45342  29.149  29.904   7.350
 6771POPC   C1B45343  29.315  29.722   6.450
 6771POPC   C2B45344  29.253  29.693   6.750
 6771POPC   C3B45345  29.260  29.710   7.050
 6771POPC   C4B45346  29.341  29.759   7.350
 6772POPC   NC345347  43.159  24.480   5.550
 6772POPC   PO445348  43.127  24.498   5.850
 6772POPC   GL145349  43.155  24.487   6.150
 6772POPC   GL245350  43.038  24.365   6.150
 6772POPC   C1A45351  43.117  24.499   6.450
 6772POPC   D2A45352  43.147  24.522   6.750
 6772POPC   C3A45353  43.153  24.488   7.050
 6772POPC   C4A45354  43.137  24.497   7.350
 6772POPC   C1B45355  42.990  24.318   6.450
 6772POPC   C2B45356  42.985  24.320   6.750
 6772POPC   C3B45357  42.978  24.300   7.050
 6772POPC   C4B45358  42.958  24.327   7.350
 6773POPC   NC345359   7.394  35.337   5.550
 6773POPC   PO445360   7.379  35.378   5.850
 6773POPC   GL145361   7.470  35.340   6.150
 6773POPC   GL245362   7.341  35.225   6.150
 6773POPC   C1A45363   7.465  35.310   6.450
 6773POPC   D2A45364   7.379  35.387   6.750
 6773POPC   C3A45365   7.391  35.333   7.050
 6773POPC   C4A45366   7.429  35.365   7.350
 6773POPC   C1B45367   7.329  35.103   6.450
 6773POPC   C2B45368   7.318  35.158   6.750
 6773POPC   C3B45369   7.307  35.122   7.050
 6773POPC   C4B45370   7.341  35.102   7.350
 6774POPC   NC345371   6.684  22.892   5.550
 6774POPC   PO445372   6.685  22.986   5.850
 6774POPC   GL145373   6.635  22.968   6.150
 6774POPC   GL245374   6.796  22.910   6.150
 6774POPC   C1A45375   6.604  22.909   6.450
 6774POPC   D2A45376   6.607  22.923   6.750
 6774POPC   C3A45377   6.664  22.932   7.050
 6774POPC   C4A45378   6.671  22.983   7.350
 6774POPC   C1B45379   6.881  23.003   6.450
 6774POPC   C2B45380   6.887  22.933   6.750
 6774POPC   C3B45381   6.887  22.962   7.050
 6774POPC   C4B45382   6.927  22.931   7.350
 6775POPC   NC345383  22.129  28.396   5.550
 6775POPC   PO445384  22.189  28.332   5.850
 6775POPC   GL145385  22.197  28.370   6.150
 6775POPC   GL245386  22.077  28.384   6.150
 6775POPC   C1A45387  22.144  28.330   6.450
 6775POPC   D2A45388  22.116  28.400   6.750
 6775POPC   C3A45389  22.151  28.385   7.050
 6775POPC   C4A45390  22.114  28.326   7.350
 6775POPC   C1B45391  21.953  28.429   6.450
 6775POPC   C2B45392  21.935  28.415   6.750
 6775POPC   C3B45393  21.892  28.376   7.050
 6775POPC   C4B45394  21.945  28.458   7.350
 6776POPC   NC345395  28.331  41.556   5.550
 6776POPC   PO445396  28.364  41.599   5.850
 6776POPC   GL145397  28.346  41.583   6.150
 6776POPC   GL245398  28.314  41.708   6.150
 6776POPC   C1A45399  28.385  41.592   6.450
 6776POPC   D2A45400  28.383  41.550   6.750
 6776POPC   C3A45401  28.368  41.519   7.050
 6776POPC   C4A45402  28.332  41.543   7.350
 6776POPC   C1B45403  28.232  41.785   6.450
 6776POPC   C2B45404  28.225  41.788   6.750
 6776POPC   C3B45405  28.272  41.752   7.050
 6776POPC   C4B45406  28.228  41.769   7.350
 6777POPC   NC345407  12.894  26.015   5.550
 6777POPC   PO445408  12.815  26.089   5.850
 6777POPC   GL145409  12.844  26.091   6.150
 6777POPC   GL245410  12.949  25.974   6.150
 6777POPC   C1A45411  12.824  26.018   6.450
 6777POPC   D2A45412  12.892  26.049   6.750
 6777POPC   C3A45413  12.865  26.082   7.050
 6777POPC   C4A45414  12.805  26.010   7.350
 6777POPC   C1B45415  13.085  25.951   6.450
 6777POPC   C2B45416  13.128  25.959   6.750
 6777POPC   C3B45417  13.127  25.968   7.050
 6777POPC   C4B45418  13.084  25.971   7.350
 6778POPC   NC345419  33.836  23.672   5.550
 6778POPC   PO445420  33.803  23.728   5.850
 6778POPC   GL145421  33.776  23.700   6.150
 6778POPC   GL245422  33.792  23.807   6.150
 6778POPC   C1A45423  33.812  23.750   6.450
 6778POPC   D2A45424  33.768  23.711   6.750
 6778POPC   C3A45425  33.771  23.724   7.050
 6778POPC   C4A45426  33.837  23.725   7.350
 6778POPC   C1B45427  33.831  23.934   6.450
 6778POPC   C2B45428  33.771  24.000   6.750
 6778POPC   C3B45429  33.833  24.009   7.050
 6778POPC   C4B45430  33.753  23.979   7.350
 6779POPC   NC345431  15.964  19.091   5.550
 6779POPC   PO445432  15.956  19.055   5.850
 6779POPC   GL145433  15.948  19.105   6.150
 6779POPC   GL245434  15.909  18.907   6.150
 6779POPC   C1A45435  15.929  19.059   6.450
 6779POPC   D2A45436  15.944  19.057   6.750
 6779POPC   C3A45437  15.967  19.043   7.050
 6779POPC   C4A45438  15.985  19.028   7.350
 6779POPC   C1B45439  15.888  18.787   6.450
 6779POPC   C2B45440  15.874  18.818   6.750
 6779POPC   C3B45441  15.911  18.852   7.050
 6779POPC   C4B45442  15.906  18.849   7.350
 6780POPC   NC345443  32.225  35.306   5.550
 6780POPC   PO445444  32.216  35.306   5.850
 6780POPC   GL145445  32.241  35.355   6.150
 6780POPC   GL245446  32.201  35.267   6.150
 6780POPC   C1A45447  32.241  35.399   6.450
 6780POPC   D2A45448  32.293  35.304   6.750
 6780POPC   C3A45449  32.246  35.342   7.050
 6780POPC   C4A45450  32.221  35.378   7.350
 6780POPC   C1B45451  32.174  35.122   6.450
 6780POPC   C2B45452  32.147  35.118   6.750
 6780POPC   C3B45453  32.148  35.098   7.050
 6780POPC   C4B45454  32.163  35.130   7.350
 6781POPC   NC345455   8.220  10.552   5.550
 6781POPC   PO445456   8.187  10.565   5.850
 6781POPC   GL145457   8.224  10.491   6.150
 6781POPC   GL245458   8.324  10.482   6.150
 6781POPC   C1A45459   8.205  10.550   6.450
 6781POPC   D2A45460   8.193  10.480   6.750
 6781POPC   C3A45461   8.151  10.536   7.050
 6781POPC   C4A45462   8.242  10.493   7.350
 6781POPC   C1B45463   8.417  10.347   6.450
 6781POPC   C2B45464   8.432  10.421   6.750
 6781POPC   C3B45465   8.377  10.440   7.050
 6781POPC   C4B45466   8.392  10.389   7.350
 6782POPC   NC345467  33.809  19.821   5.550
 6782POPC   PO445468  33.841  19.829   5.850
 6782POPC   GL145469  33.789  19.880   6.150
 6782POPC   GL245470  33.951  19.791   6.150
 6782POPC   C1A45471  33.751  19.819   6.450
 6782POPC   D2A45472  33.838  19.878   6.750
 6782POPC   C3A45473  33.838  19.880   7.050
 6782POPC   C4A45474  33.824  19.836   7.350
 6782POPC   C1B45475  34.061  19.863   6.450
 6782POPC   C2B45476  34.087  19.825   6.750
 6782POPC   C3B45477  34.045  19.783   7.050
 6782POPC   C4B45478  34.064  19.847   7.350
 6783POPC   NC345479  43.854  38.416   5.550
 6783POPC   PO445480  43.908  38.499   5.850
 6783POPC   GL145481  43.909  38.453   6.150
 6783POPC   GL245482  43.909  38.604   6.150
 6783POPC   C1A45483  43.843  38.448   6.450
 6783POPC   D2A45484  43.857  38.503   6.750
 6783POPC   C3A45485  43.901  38.426   7.050
 6783POPC   C4A45486  43.860  38.481   7.350
 6783POPC   C1B45487  43.923  38.684   6.450
 6783POPC   C2B45488  43.918  38.698   6.750
 6783POPC   C3B45489  43.999  38.686   7.050
 6783POPC   C4B45490  44.010  38.709   7.350
 6784POPC   NC345491  43.102  33.776   5.550
 6784POPC   PO445492  43.074  33.766   5.850
 6784POPC   GL145493  43.063  33.805   6.150
 6784POPC   GL245494  43.021  33.893   6.150
 6784POPC   C1A45495  43.102  33.780   6.450
 6784POPC   D2A45496  43.147  33.754   6.750
 6784POPC   C3A45497  43.119  33.830   7.050
 6784POPC   C4A45498  43.134  33.829   7.350
 6784POPC   C1B45499  42.982  33.978   6.450
 6784POPC   C2B45500  42.929  34.006   6.750
 6784POPC   C3B45501  42.978  33.990   7.050
 6784POPC   C4B45502  42.908  33.943   7.350
 6785POPC   NC345503  18.310  25.283   5.550
 6785POPC   PO445504  18.242  25.239   5.850
 6785POPC   GL145505  18.272  25.314   6.150
 6785POPC   GL245506  18.233  25.139   6.150
 6785POPC   C1A45507  18.318  25.227   6.450
 6785POPC   D2A45508  18.320  25.261   6.750
 6785POPC   C3A45509  18.247  25.275   7.050
 6785POPC   C4A45510  18.293  25.270   7.350
 6785POPC   C1B45511  18.277  25.005   6.450
 6785POPC   C2B45512  18.287  25.064   6.750
 6785POPC   C3B45513  18.265  25.050   7.050
 6785POPC   C4B45514  18.263  25.061   7.350
 6786POPC   NC345515  16.758  35.311   5.550
 6786POPC   PO445516  16.687  35.373   5.850
 6786POPC   GL145517  16.752  35.341   6.150
 6786POPC   GL245518  16.835  35.284   6.150
 6786POPC   C1A45519  16.772  35.336   6.450
 6786POPC   D2A45520  16.774  35.386   6.750
 6786POPC   C3A45521  16.738  35.316   7.050
 6786POPC   C4A45522  16.699  35.379   7.350
 6786POPC   C1B45523  16.997  35.294   6.450
 6786POPC   C2B45524  16.998  35.283   6.750
 6786POPC   C3B45525  16.920  35.232   7.050
 6786POPC   C4B45526  16.928  35.263   7.350
 6787POPC   NC345527  11.325  40.040   5.550
 6787POPC   PO445528  11.318  39.997   5.850
 6787POPC   GL145529  11.328  39.959   6.150
 6787POPC   GL245530  11.296  39.840   6.150
 6787POPC   C1A45531  11.271  40.047   6.450
 6787POPC   D2A45532  11.310  40.048   6.750
 6787POPC   C3A45533  11.308  40.012   7.050
 6787POPC   C4A45534  11.300  40.008   7.350
 6787POPC   C1B45535  11.295  39.797   6.450
 6787POPC   C2B45536  11.232  39.787   6.750
 6787POPC   C3B45537  11.245  39.806   7.050
 6787POPC   C4B45538  11.198  39.776   7.350
 6788POPC   NC345539  39.265  40.794   5.550
 6788POPC   PO445540  39.268  40.826   5.850
 6788POPC   GL145541  39.226  40.798   6.150
 6788POPC   GL245542  39.121  40.875   6.150
 6788POPC   C1A45543  39.237  40.767   6.450
 6788POPC   D2A45544  39.271  40.808   6.750
 6788POPC   C3A45545  39.181  40.790   7.050
 6788POPC   C4A45546  39.258  40.829   7.350
 6788POPC   C1B45547  39.035  40.866   6.450
 6788POPC   C2B45548  38.989  40.920   6.750
 6788POPC   C3B45549  38.986  40.847   7.050
 6788POPC   C4B45550  38.995  40.843   7.350
 6789POPC   NC345551  13.634  43.850   5.550
 6789POPC   PO445552  13.671  43.883   5.850
 6789POPC   GL145553  13.672  43.932   6.150
 6789POPC   GL245554  13.598  43.716   6.150
 6789POPC   C1A45555  13.589  43.871   6.450
 6789POPC   D2A45556  13.641  43.915   6.750
 6789POPC   C3A45557  13.610  43.867   7.050
 6789POPC   C4A45558  13.649  43.920   7.350
 6789POPC   C1B45559  13.696  43.600   6.450
 6789POPC   C2B45560  13.677  43.669   6.750
 6789POPC   C3B45561  13.656  43.600   7.050
 6789POPC   C4B45562  13.618  43.638   7.350
 6790POPC   NC345563  35.314  13.581   5.550
 6790POPC   PO445564  35.354  13.609   5.850
 6790POPC   GL145565  35.387  13.654   6.150
 6790POPC   GL245566  35.280  13.693   6.150
 6790POPC   C1A45567  35.346  13.618   6.450
 6790POPC   D2A45568  35.374  13.600   6.750
 6790POPC   C3A45569  35.379  13.587   7.050
 6790POPC   C4A45570  35.321  13.602   7.350
 6790POPC   C1B45571  35.203  13.799   6.450
 6790POPC   C2B45572  35.238  13.880   6.750
 6790POPC   C3B45573  35.223  13.888   7.050
 6790POPC   C4B45574  35.241  13.808   7.350
 6791POPC   NC345575   5.103   4.275   5.550
 6791POPC   PO445576   5.095   4.302   5.850
 6791POPC   GL145577   5.124   4.321   6.150
 6791POPC   GL245578   4.985   4.304   6.150
 6791POPC   C1A45579   5.061   4.314   6.450
 6791POPC   D2A45580   5.065   4.304   6.750
 6791POPC   C3A45581   5.105   4.364   7.050
 6791POPC   C4A45582   5.069   4.286   7.350
 6791POPC   C1B45583   4.846   4.365   6.450
 6791POPC   C2B45584   4.864   4.295   6.750
 6791POPC   C3B45585   4.890   4.296   7.050
 6791POPC   C4B45586   4.859   4.346   7.350
 6792POPC   NC345587  32.219  36.864   5.550
 6792POPC   PO445588  32.251  36.880   5.850
 6792POPC   GL145589  32.246  36.915   6.150
 6792POPC   GL245590  32.272  36.785   6.150
 6792POPC   C1A45591  32.277  36.905   6.450
 6792POPC   D2A45592  32.267  36.936   6.750
 6792POPC   C3A45593  32.213  36.939   7.050
 6792POPC   C4A45594  32.285  36.922   7.350
 6792POPC   C1B45595  32.350  36.660   6.450
 6792POPC   C2B45596  32.416  36.692   6.750
 6792POPC   C3B45597  32.385  36.721   7.050
 6792POPC   C4B45598  32.377  36.680   7.350
 6793POPC   NC345599  33.783  26.025   5.550
 6793POPC   PO445600  33.757  26.040   5.850
 6793POPC   GL145601  33.787  26.064   6.150
 6793POPC   GL245602  33.727  25.928   6.150
 6793POPC   C1A45603  33.754  26.077   6.450
 6793POPC   D2A45604  33.831  26.028   6.750
 6793POPC   C3A45605  33.803  26.085   7.050
 6793POPC   C4A45606  33.841  26.014   7.350
 6793POPC   C1B45607  33.653  25.822   6.450
 6793POPC   C2B45608  33.729  25.856   6.750
 6793POPC   C3B45609  33.713  25.810   7.050
 6793POPC   C4B45610  33.704  25.825   7.350
 6794POPC   NC345611   5.095  30.723   5.550
 6794POPC   PO445612   5.118  30.685   5.850
 6794POPC   GL145613   5.063  30.672   6.150
 6794POPC   GL245614   5.206  30.825   6.150
 6794POPC   C1A45615   5.142  30.655   6.450
 6794POPC   D2A45616   5.125  30.745   6.750
 6794POPC   C3A45617   5.060  30.662   7.050
 6794POPC   C4A45618   5.137  30.703   7.350
 6794POPC   C1B45619   5.281  30.861   6.450
 6794POPC   C2B45620   5.201  30.889   6.750
 6794POPC   C3B45621   5.277  30.913   7.050
 6794POPC   C4B45622   5.274  30.920   7.350
 6795POPC   NC345623  22.118  33.820   5.550
 6795POPC   PO445624  22.123  33.751   5.850
 6795POPC   GL145625  22.208  33.808   6.150
 6795POPC   GL245626  22.037  33.859   6.150
 6795POPC   C1A45627  22.127  33.763   6.450
 6795POPC   D2A45628  22.189  33.800   6.750
 6795POPC   C3A45629  22.148  33.823   7.050
 6795POPC   C4A45630  22.188  33.847   7.350
 6795POPC   C1B45631  21.897  33.900   6.450
 6795POPC   C2B45632  21.886  33.898   6.750
 6795POPC   C3B45633  21.896  33.901   7.050
 6795POPC   C4B45634  21.899  33.897   7.350
 6796POPC   NC345635   1.255  33.003   5.550
 6796POPC   PO445636   1.194  33.005   5.850
 6796POPC   GL145637   1.259  33.026   6.150
 6796POPC   GL245638   1.258  32.971   6.150
 6796POPC   C1A45639   1.178  33.031   6.450
 6796POPC   D2A45640   1.218  33.061   6.750
 6796POPC   C3A45641   1.197  32.999   7.050
 6796POPC   C4A45642   1.214  33.067   7.350
 6796POPC   C1B45643   1.409  32.815   6.450
 6796POPC   C2B45644   1.371  32.808   6.750
 6796POPC   C3B45645   1.399  32.850   7.050
 6796POPC   C4B45646   1.429  32.897   7.350
 6797POPC   NC345647  34.537   8.234   5.550
 6797POPC   PO445648  34.596   8.183   5.850
 6797POPC   GL145649  34.576   8.173   6.150
 6797POPC   GL245650  34.660   8.290   6.150
 6797POPC   C1A45651  34.613   8.233   6.450
 6797POPC   D2A45652  34.614   8.167   6.750
 6797POPC   C3A45653  34.613   8.175   7.050
 6797POPC   C4A45654  34.549   8.232   7.350
 6797POPC   C1B45655  34.791   8.351   6.450
 6797POPC   C2B45656  34.803   8.361   6.750
 6797POPC   C3B45657  34.831   8.296   7.050
 6797POPC   C4B45658  34.822   8.367   7.350
 6798POPC   NC345659  39.186  23.754   5.550
 6798POPC   PO445660  39.274  23.756   5.850
 6798POPC   GL145661  39.215  23.670   6.150
 6798POPC   GL245662  39.118  23.589   6.150
 6798POPC   C1A45663  39.206  23.719   6.450
 6798POPC   D2A45664  39.228  23.736   6.750
 6798POPC   C3A45665  39.183  23.744   7.050
 6798POPC   C4A45666  39.206  23.759   7.350
 6798POPC   C1B45667  39.038  23.531   6.450
 6798POPC   C2B45668  39.039  23.571   6.750
 6798POPC   C3B45669  39.088  23.486   7.050
 6798POPC   C4B45670  39.022  23.538   7.350
 6799POPC   NC345671  43.862  29.159   5.550
 6799POPC   PO445672  43.873  29.149   5.850
 6799POPC   GL145673  43.934  29.103   6.150
 6799POPC   GL245674  43.979  29.187   6.150
 6799POPC   C1A45675  43.897  29.155   6.450
 6799POPC   D2A45676  43.916  29.106   6.750
 6799POPC   C3A45677  43.898  29.096   7.050
 6799POPC   C4A45678  43.839  29.180   7.350
 6799POPC   C1B45679  44.127  29.120   6.450
 6799POPC   C2B45680  44.140  29.132   6.750
 6799POPC   C3B45681  44.108  29.130   7.050
 6799POPC   C4B45682  44.142  29.125   7.350
 6800POPC   NC345683   3.547  12.117   5.550
 6800POPC   PO445684   3.536  12.058   5.850
 6800POPC   GL145685   3.558  12.114   6.150
 6800POPC   GL245686   3.526  12.198   6.150
 6800POPC   C1A45687   3.505  12.030   6.450
 6800POPC   D2A45688   3.528  12.106   6.750
 6800POPC   C3A45689   3.506  12.100   7.050
 6800POPC   C4A45690   3.493  12.074   7.350
 6800POPC   C1B45691   3.552  12.301   6.450
 6800POPC   C2B45692   3.488  12.371   6.750
 6800POPC   C3B45693   3.562  12.368   7.050
 6800POPC   C4B45694   3.539  12.327   7.350
 6801POPC   NC345695  19.814  13.645   5.550
 6801POPC   PO445696  19.834  13.579   5.850
 6801POPC   GL145697  19.811  13.617   6.150
 6801POPC   GL245698  19.833  13.468   6.150
 6801POPC   C1A45699  19.794  13.595   6.450
 6801POPC   D2A45700  19.858  13.660   6.750
 6801POPC   C3A45701  19.786  13.600   7.050
 6801POPC   C4A45702  19.856  13.675   7.350
 6801POPC   C1B45703  19.699  13.417   6.450
 6801POPC   C2B45704  19.757  13.359   6.750
 6801POPC   C3B45705  19.702  13.384   7.050
 6801POPC   C4B45706  19.718  13.373   7.350
 6802POPC   NC345707  28.354  40.008   5.550
 6802POPC   PO445708  28.378  40.035   5.850
 6802POPC   GL145709  28.369  40.016   6.150
 6802POPC   GL245710  28.441  40.152   6.150
 6802POPC   C1A45711  28.414  39.984   6.450
 6802POPC   D2A45712  28.419  40.053   6.750
 6802POPC   C3A45713  28.408  40.043   7.050
 6802POPC   C4A45714  28.327  39.983   7.350
 6802POPC   C1B45715  28.487  40.233   6.450
 6802POPC   C2B45716  28.447  40.234   6.750
 6802POPC   C3B45717  28.458  40.222   7.050
 6802POPC   C4B45718  28.457  40.254   7.350
 6803POPC   NC345719  12.111  11.330   5.550
 6803POPC   PO445720  12.066  11.323   5.850
 6803POPC   GL145721  12.032  11.318   6.150
 6803POPC   GL245722  12.225  11.193   6.150
 6803POPC   C1A45723  12.033  11.274   6.450
 6803POPC   D2A45724  12.088  11.255   6.750
 6803POPC   C3A45725  12.088  11.262   7.050
 6803POPC   C4A45726  12.118  11.302   7.350
 6803POPC   C1B45727  12.298  11.151   6.450
 6803POPC   C2B45728  12.283  11.150   6.750
 6803POPC   C3B45729  12.286  11.194   7.050
 6803POPC   C4B45730  12.248  11.137   7.350
 6804POPC   NC345731  41.551  26.087   5.550
 6804POPC   PO445732  41.522  26.085   5.850
 6804POPC   GL145733  41.524  26.028   6.150
 6804POPC   GL245734  41.565  26.162   6.150
 6804POPC   C1A45735  41.591  26.043   6.450
 6804POPC   D2A45736  41.571  26.079   6.750
 6804POPC   C3A45737  41.550  26.078   7.050
 6804POPC   C4A45738  41.574  26.026   7.350
 6804POPC   C1B45739  41.626  26.249   6.450
 6804POPC   C2B45740  41.565  26.276   6.750
 6804POPC   C3B45741  41.599  26.242   7.050
 6804POPC   C4B45742  41.587  26.269   7.350
 6805POPC   NC345743  43.111  15.936   5.550
 6805POPC   PO445744  43.097  15.992   5.850
 6805POPC   GL145745  43.067  15.956   6.150
 6805POPC   GL245746  42.993  15.914   6.150
 6805POPC   C1A45747  43.108  15.983   6.450
 6805POPC   D2A45748  43.148  15.908   6.750
 6805POPC   C3A45749  43.128  15.955   7.050
 6805POPC   C4A45750  43.073  15.946   7.350
 6805POPC   C1B45751  42.899  15.814   6.450
 6805POPC   C2B45752  42.922  15.822   6.750
 6805POPC   C3B45753  42.937  15.755   7.050
 6805POPC   C4B45754  42.914  15.763   7.350
 6806POPC   NC345755  15.974  27.614   5.550
 6806POPC   PO445756  15.929  27.557   5.850
 6806POPC   GL145757  15.935  27.642   6.150
 6806POPC   GL245758  16.074  27.568   6.150
 6806POPC   C1A45759  15.937  27.560   6.450
 6806POPC   D2A45760  15.945  27.565   6.750
 6806POPC   C3A45761  15.934  27.568   7.050
 6806POPC   C4A45762  15.926  27.573   7.350
 6806POPC   C1B45763  16.155  27.493   6.450
 6806POPC   C2B45764  16.208  27.504   6.750
 6806POPC   C3B45765  16.136  27.408   7.050
 6806POPC   C4B45766  16.154  27.428   7.350
 6807POPC   NC345767  39.995  10.515   5.550
 6807POPC   PO445768  40.026  10.536   5.850
 6807POPC   GL145769  39.993  10.512   6.150
 6807POPC   GL245770  39.985  10.665   6.150
 6807POPC   C1A45771  39.978  10.520   6.450
 6807POPC   D2A45772  40.028  10.489   6.750
 6807POPC   C3A45773  39.957  10.492   7.050
 6807POPC   C4A45774  39.977  10.555   7.350
 6807POPC   C1B45775  39.939  10.802   6.450
 6807POPC   C2B45776  39.908  10.719   6.750
 6807POPC   C3B45777  39.944  10.766   7.050
 6807POPC   C4B45778  39.910  10.794   7.350
 6808POPC   NC345779   1.198  42.355   5.550
 6808POPC   PO445780   1.174  42.366   5.850
 6808POPC   GL145781   1.215  42.315   6.150
 6808POPC   GL245782   1.092  42.299   6.150
 6808POPC   C1A45783   1.185  42.343   6.450
 6808POPC   D2A45784   1.261  42.336   6.750
 6808POPC   C3A45785   1.244  42.322   7.050
 6808POPC   C4A45786   1.226  42.304   7.350
 6808POPC   C1B45787   1.011  42.169   6.450
 6808POPC   C2B45788   1.034  42.242   6.750
 6808POPC   C3B45789   0.999  42.190   7.050
 6808POPC   C4B45790   0.951  42.170   7.350
 6809POPC   NC345791  34.594  39.984   5.550
 6809POPC   PO445792  34.622  40.013   5.850
 6809POPC   GL145793  34.570  40.047   6.150
 6809POPC   GL245794  34.611  39.933   6.150
 6809POPC   C1A45795  34.602  39.970   6.450
 6809POPC   D2A45796  34.551  40.024   6.750
 6809POPC   C3A45797  34.610  40.026   7.050
 6809POPC   C4A45798  34.559  40.014   7.350
 6809POPC   C1B45799  34.635  39.761   6.450
 6809POPC   C2B45800  34.588  39.786   6.750
 6809POPC   C3B45801  34.623  39.792   7.050
 6809POPC   C4B45802  34.634  39.810   7.350
 6810POPC   NC345803  39.248  16.749   5.550
 6810POPC   PO445804  39.221  16.690   5.850
 6810POPC   GL145805  39.280  16.751   6.150
 6810POPC   GL245806  39.313  16.690   6.150
 6810POPC   C1A45807  39.274  16.759   6.450
 6810POPC   D2A45808  39.227  16.722   6.750
 6810POPC   C3A45809  39.233  16.718   7.050
 6810POPC   C4A45810  39.195  16.682   7.350
 6810POPC   C1B45811  39.490  16.663   6.450
 6810POPC   C2B45812  39.505  16.696   6.750
 6810POPC   C3B45813  39.493  16.699   7.050
 6810POPC   C4B45814  39.499  16.614   7.350
 6811POPC   NC345815  24.499  12.122   5.550
 6811POPC   PO445816  24.499  12.043   5.850
 6811POPC   GL145817  24.537  12.038   6.150
 6811POPC   GL245818  24.636  12.128   6.150
 6811POPC   C1A45819  24.461  12.124   6.450
 6811POPC   D2A45820  24.446  12.052   6.750
 6811POPC   C3A45821  24.495  12.076   7.050
 6811POPC   C4A45822  24.520  12.036   7.350
 6811POPC   C1B45823  24.712  12.122   6.450
 6811POPC   C2B45824  24.761  12.151   6.750
 6811POPC   C3B45825  24.695  12.122   7.050
 6811POPC   C4B45826  24.752  12.175   7.350
 6812POPC   NC345827  40.018  43.064   5.550
 6812POPC   PO445828  40.038  43.116   5.850
 6812POPC   GL145829  40.034  43.137   6.150
 6812POPC   GL245830  40.012  42.943   6.150
 6812POPC   C1A45831  40.025  43.155   6.450
 6812POPC   D2A45832  39.997  43.084   6.750
 6812POPC   C3A45833  39.969  43.112   7.050
 6812POPC   C4A45834  39.991  43.112   7.350
 6812POPC   C1B45835  40.039  42.820   6.450
 6812POPC   C2B45836  40.017  42.904   6.750
 6812POPC   C3B45837  40.005  42.823   7.050
 6812POPC   C4B45838  40.006  42.851   7.350
 6813POPC   NC345839   5.913  22.193   5.550
 6813POPC   PO445840   5.825  22.153   5.850
 6813POPC   GL145841   5.897  22.171   6.150
 6813POPC   GL245842   5.881  22.328   6.150
 6813POPC   C1A45843   5.884  22.132   6.450
 6813POPC   D2A45844   5.871  22.181   6.750
 6813POPC   C3A45845   5.880  22.152   7.050
 6813POPC   C4A45846   5.875  22.141   7.350
 6813POPC   C1B45847   5.918  22.454   6.450
 6813POPC   C2B45848   5.925  22.412   6.750
 6813POPC   C3B45849   5.871  22.396   7.050
 6813POPC   C4B45850   5.848  22.453   7.350
 6814POPC   NC345851   7.375  37.676   5.550
 6814POPC   PO445852   7.451  37.658   5.850
 6814POPC   GL145853   7.402  37.704   6.150
 6814POPC   GL245854   7.464  37.559   6.150
 6814POPC   C1A45855   7.459  37.675   6.450
 6814POPC   D2A45856   7.396  37.715   6.750
 6814POPC   C3A45857   7.451  37.644   7.050
 6814POPC   C4A45858   7.457  37.698   7.350
 6814POPC   C1B45859   7.516  37.471   6.450
 6814POPC   C2B45860   7.520  37.424   6.750
 6814POPC   C3B45861   7.468  37.415   7.050
 6814POPC   C4B45862   7.433  37.445   7.350
 6815POPC   NC345863  15.147   8.937   5.550
 6815POPC   PO445864  15.203   8.965   5.850
 6815POPC   GL145865  15.189   8.943   6.150
 6815POPC   GL245866  15.066   9.008   6.150
 6815POPC   C1A45867  15.203   8.938   6.450
 6815POPC   D2A45868  15.157   8.996   6.750
 6815POPC   C3A45869  15.196   8.957   7.050
 6815POPC   C4A45870  15.163   8.976   7.350
 6815POPC   C1B45871  14.925   8.961   6.450
 6815POPC   C2B45872  14.957   8.968   6.750
 6815POPC   C3B45873  14.915   9.017   7.050
 6815POPC   C4B45874  14.897   8.978   7.350
 6816POPC   NC345875   1.207  12.822   5.550
 6816POPC   PO445876   1.201  12.804   5.850
 6816POPC   GL145877   1.169  12.878   6.150
 6816POPC   GL245878   1.242  12.966   6.150
 6816POPC   C1A45879   1.248  12.889   6.450
 6816POPC   D2A45880   1.232  12.833   6.750
 6816POPC   C3A45881   1.226  12.822   7.050
 6816POPC   C4A45882   1.199  12.852   7.350
 6816POPC   C1B45883   1.271  13.059   6.450
 6816POPC   C2B45884   1.283  13.071   6.750
 6816POPC   C3B45885   1.303  13.101   7.050
 6816POPC   C4B45886   1.310  13.133   7.350
 6817POPC   NC345887  14.359  11.284   5.550
 6817POPC   PO445888  14.357  11.332   5.850
 6817POPC   GL145889  14.389  11.338   6.150
 6817POPC   GL245890  14.262  11.367   6.150
 6817POPC   C1A45891  14.423  11.257   6.450
 6817POPC   D2A45892  14.416  11.324   6.750
 6817POPC   C3A45893  14.439  11.288   7.050
 6817POPC   C4A45894  14.449  11.299   7.350
 6817POPC   C1B45895  14.114  11.395   6.450
 6817POPC   C2B45896  14.125  11.399   6.750
 6817POPC   C3B45897  14.207  11.348   7.050
 6817POPC   C4B45898  14.199  11.401   7.350
 6818POPC   NC345899  14.377  34.554   5.550
 6818POPC   PO445900  14.392  34.555   5.850
 6818POPC   GL145901  14.421  34.584   6.150
 6818POPC   GL245902  14.292  34.579   6.150
 6818POPC   C1A45903  14.442  34.528   6.450
 6818POPC   D2A45904  14.406  34.617   6.750
 6818POPC   C3A45905  14.360  34.528   7.050
 6818POPC   C4A45906  14.386  34.548   7.350
 6818POPC   C1B45907  14.158  34.507   6.450
 6818POPC   C2B45908  14.120  34.560   6.750
 6818POPC   C3B45909  14.109  34.525   7.050
 6818POPC   C4B45910  14.160  34.562   7.350
 6819POPC   NC345911  29.160  37.642   5.550
 6819POPC   PO445912  29.102  37.677   5.850
 6819POPC   GL145913  29.100  37.703   6.150
 6819POPC   GL245914  29.134  37.525   6.150
 6819POPC   C1A45915  29.147  37.728   6.450
 6819POPC   D2A45916  29.140  37.668   6.750
 6819POPC   C3A45917  29.143  37.678   7.050
 6819POPC   C4A45918  29.106  37.698   7.350
 6819POPC   C1B45919  29.022  37.436   6.450
 6819POPC   C2B45920  29.024  37.424   6.750
 6819POPC   C3B45921  29.051  37.498   7.050
 6819POPC   C4B45922  29.068  37.465   7.350
 6820POPC   NC345923  38.413   8.201   5.550
 6820POPC   PO445924  38.432   8.185   5.850
 6820POPC   GL145925  38.429   8.202   6.150
 6820POPC   GL245926  38.432   8.351   6.150
 6820POPC   C1A45927  38.434   8.152   6.450
 6820POPC   D2A45928  38.407   8.166   6.750
 6820POPC   C3A45929  38.451   8.204   7.050
 6820POPC   C4A45930  38.428   8.227   7.350
 6820POPC   C1B45931  38.458   8.463   6.450
 6820POPC   C2B45932  38.465   8.429   6.750
 6820POPC   C3B45933  38.471   8.438   7.050
 6820POPC   C4B45934  38.545   8.404   7.350
 6821POPC   NC345935  44.621  19.086   5.550
 6821POPC   PO445936  44.652  19.065   5.850
 6821POPC   GL145937  44.633  19.059   6.150
 6821POPC   GL245938  44.771  18.957   6.150
 6821POPC   C1A45939  44.663  19.107   6.450
 6821POPC   D2A45940  44.637  19.086   6.750
 6821POPC   C3A45941  44.648  19.061   7.050
 6821POPC   C4A45942  44.631  19.053   7.350
 6821POPC   C1B45943  44.907  18.923   6.450
 6821POPC   C2B45944  44.872  18.973   6.750
 6821POPC   C3B45945  44.913  18.903   7.050
 6821POPC   C4B45946  44.910  18.909   7.350
 6822POPC   NC345947  36.078   5.050   5.550
 6822POPC   PO445948  36.086   5.085   5.850
 6822POPC   GL145949  36.089   5.067   6.150
 6822POPC   GL245950  36.232   5.056   6.150
 6822POPC   C1A45951  36.136   5.127   6.450
 6822POPC   D2A45952  36.111   5.048   6.750
 6822POPC   C3A45953  36.079   5.113   7.050
 6822POPC   C4A45954  36.082   5.123   7.350
 6822POPC   C1B45955  36.317   4.983   6.450
 6822POPC   C2B45956  36.345   4.978   6.750
 6822POPC   C3B45957  36.405   5.017   7.050
 6822POPC   C4B45958  36.389   5.018   7.350
 6823POPC   NC345959  41.531  39.970   5.550
 6823POPC   PO445960  41.546  39.969   5.850
 6823POPC   GL145961  41.518  40.035   6.150
 6823POPC   GL245962  41.483  40.124   6.150
 6823POPC   C1A45963  41.545  40.003   6.450
 6823POPC   D2A45964  41.513  40.042   6.750
 6823POPC   C3A45965  41.536  39.987   7.050
 6823POPC   C4A45966  41.520  40.031   7.350
 6823POPC   C1B45967  41.358  40.109   6.450
 6823POPC   C2B45968  41.325  40.162   6.750
 6823POPC   C3B45969  41.378  40.158   7.050
 6823POPC   C4B45970  41.381  40.145   7.350
 6824POPC   NC345971   6.618   2.729   5.550
 6824POPC   PO445972   6.596   2.731   5.850
 6824POPC   GL145973   6.686   2.763   6.150
 6824POPC   GL245974   6.473   2.785   6.150
 6824POPC   C1A45975   6.610   2.802   6.450
 6824POPC   D2A45976   6.614   2.783   6.750
 6824POPC   C3A45977   6.638   2.730   7.050
 6824POPC   C4A45978   6.677   2.781   7.350
 6824POPC   C1B45979   6.398   2.782   6.450
 6824POPC   C2B45980   6.381   2.754   6.750
 6824POPC   C3B45981   6.441   2.775   7.050
 6824POPC   C4B45982   6.444   2.776   7.350
 6825POPC   NC345983  41.597  21.363   5.550
 6825POPC   PO445984  41.511  21.341   5.850
 6825POPC   GL145985  41.527  21.370   6.150
 6825POPC   GL245986  41.463  21.484   6.150
 6825POPC   C1A45987  41.568  21.363   6.450
 6825POPC   D2A45988  41.601  21.434   6.750
 6825POPC   C3A45989  41.561  21.342   7.050
 6825POPC   C4A45990  41.593  21.383   7.350
 6825POPC   C1B45991  41.495  21.580   6.450
 6825POPC   C2B45992  41.463  21.635   6.750
 6825POPC   C3B45993  41.442  21.591   7.050
 6825POPC   C4B45994  41.413  21.656   7.350
 6826POPC   NC345995  22.191  22.942   5.550
 6826POPC   PO445996  22.127  22.965   5.850
 6826POPC   GL145997  22.178  22.925   6.150
 6826POPC   GL245998  22.270  23.007   6.150
 6826POPC   C1A45999  22.156  22.936   6.450
 6826POPC   D2A46000  22.143  22.901   6.750
 6826POPC   C3A46001  22.195  22.984   7.050
 6826POPC   C4A46002  22.133  22.940   7.350
 6826POPC   C1B46003  22.441  23.020   6.450
 6826POPC   C2B46004  22.350  22.987   6.750
 6826POPC   C3B46005  22.363  23.025   7.050
 6826POPC   C4B46006  22.401  23.036   7.350
 6827POPC   NC346007  19.837  15.919   5.550
 6827POPC   PO446008  19.825  15.950   5.850
 6827POPC   GL146009  19.825  15.954   6.150
 6827POPC   GL246010  19.868  15.798   6.150
 6827POPC   C1A46011  19.804  15.997   6.450
 6827POPC   D2A46012  19.818  15.907   6.750
 6827POPC   C3A46013  19.874  15.917   7.050
 6827POPC   C4A46014  19.841  15.993   7.350
 6827POPC   C1B46015  19.878  15.713   6.450
 6827POPC   C2B46016  19.924  15.727   6.750
 6827POPC   C3B46017  19.926  15.762   7.050
 6827POPC   C4B46018  19.911  15.670   7.350
 6828POPC   NC346019  22.166  12.028   5.550
 6828POPC   PO446020  22.204  12.030   5.850
 6828POPC   GL146021  22.200  12.047   6.150
 6828POPC   GL246022  22.276  12.136   6.150
 6828POPC   C1A46023  22.206  12.101   6.450
 6828POPC   D2A46024  22.209  12.058   6.750
 6828POPC   C3A46025  22.143  12.090   7.050
 6828POPC   C4A46026  22.167  12.094   7.350
 6828POPC   C1B46027  22.377  12.218   6.450
 6828POPC   C2B46028  22.369  12.232   6.750
 6828POPC   C3B46029  22.312  12.267   7.050
 6828POPC   C4B46030  22.343  12.298   7.350
 6829POPC   NC346031  12.106  15.185   5.550
 6829POPC   PO446032  12.032  15.170   5.850
 6829POPC   GL146033  12.111  15.165   6.150
 6829POPC   GL246034  11.978  15.164   6.150
 6829POPC   C1A46035  12.051  15.159   6.450
 6829POPC   D2A46036  12.118  15.140   6.750
 6829POPC   C3A46037  12.112  15.165   7.050
 6829POPC   C4A46038  12.125  15.176   7.350
 6829POPC   C1B46039  11.846  15.137   6.450
 6829POPC   C2B46040  11.841  15.153   6.750
 6829POPC   C3B46041  11.854  15.149   7.050
 6829POPC   C4B46042  11.827  15.157   7.350
 6830POPC   NC346043   3.587  39.271   5.550
 6830POPC   PO446044   3.545  39.243   5.850
 6830POPC   GL146045   3.538  39.202   6.150
 6830POPC   GL246046   3.387  39.233   6.150
 6830POPC   C1A46047   3.590  39.208   6.450
 6830POPC   D2A46048   3.491  39.237   6.750
 6830POPC   C3A46049   3.502  39.184   7.050
 6830POPC   C4A46050   3.531  39.205   7.350
 6830POPC   C1B46051   3.317  39.352   6.450
 6830POPC   C2B46052   3.307  39.371   6.750
 6830POPC   C3B46053   3.313  39.345   7.050
 6830POPC   C4B46054   3.278  39.310   7.350
 6831POPC   NC346055   5.083  37.668   5.550
 6831POPC   PO446056   5.062  37.664   5.850
 6831POPC   GL146057   5.123  37.727   6.150
 6831POPC   GL246058   5.103  37.579   6.150
 6831POPC   C1A46059   5.100  37.651   6.450
 6831POPC   D2A46060   5.061  37.722   6.750
 6831POPC   C3A46061   5.080  37.648   7.050
 6831POPC   C4A46062   5.059  37.657   7.350
 6831POPC   C1B46063   5.163  37.470   6.450
 6831POPC   C2B46064   5.116  37.467   6.750
 6831POPC   C3B46065   5.144  37.413   7.050
 6831POPC   C4B46066   5.137  37.404   7.350
 6832POPC   NC346067   7.399  39.238   5.550
 6832POPC   PO446068   7.461  39.276   5.850
 6832POPC   GL146069   7.408  39.208   6.150
 6832POPC   GL246070   7.314  39.352   6.150
 6832POPC   C1A46071   7.438  39.268   6.450
 6832POPC   D2A46072   7.395  39.182   6.750
 6832POPC   C3A46073   7.432  39.218   7.050
 6832POPC   C4A46074   7.387  39.209   7.350
 6832POPC   C1B46075   7.217  39.410   6.450
 6832POPC   C2B46076   7.210  39.335   6.750
 6832POPC   C3B46077   7.188  39.397   7.050
 6832POPC   C4B46078   7.202  39.420   7.350
 6833POPC   NC346079  10.527  43.924   5.550
 6833POPC   PO446080  10.538  43.909   5.850
 6833POPC   GL146081  10.520  43.866   6.150
 6833POPC   GL246082  10.599  44.028   6.150
 6833POPC   C1A46083  10.480  43.929   6.450
 6833POPC   D2A46084  10.518  43.850   6.750
 6833POPC   C3A46085  10.523  43.924   7.050
 6833POPC   C4A46086  10.486  43.914   7.350
 6833POPC   C1B46087  10.624  44.158   6.450
 6833POPC   C2B46088  10.651  44.144   6.750
 6833POPC   C3B46089  10.577  44.102   7.050
 6833POPC   C4B46090  10.574  44.089   7.350
 6834POPC   NC346091  27.631  36.132   5.550
 6834POPC   PO446092  27.560  36.088   5.850
 6834POPC   GL146093  27.582  36.111   6.150
 6834POPC   GL246094  27.505  36.192   6.150
 6834POPC   C1A46095  27.548  36.159   6.450
 6834POPC   D2A46096  27.589  36.172   6.750
 6834POPC   C3A46097  27.590  36.083   7.050
 6834POPC   C4A46098  27.556  36.172   7.350
 6834POPC   C1B46099  27.408  36.297   6.450
 6834POPC   C2B46100  27.446  36.334   6.750
 6834POPC   C3B46101  27.431  36.350   7.050
 6834POPC   C4B46102  27.444  36.335   7.350
 6835POPC   NC346103  15.986   9.014   5.550
 6835POPC   PO446104  15.954   8.977   5.850
 6835POPC   GL146105  15.961   8.973   6.150
 6835POPC   GL246106  16.021   9.065   6.150
 6835POPC   C1A46107  15.909   8.989   6.450
 6835POPC   D2A46108  15.917   8.949   6.750
 6835POPC   C3A46109  15.996   8.942   7.050
 6835POPC   C4A46110  15.976   9.004   7.350
 6835POPC   C1B46111  16.191   9.095   6.450
 6835POPC   C2B46112  16.146   9.130   6.750
 6835POPC   C3B46113  16.160   9.155   7.050
 6835POPC   C4B46114  16.190   9.113   7.350
 6836POPC   NC346115  11.347  38.410   5.550
 6836POPC   PO446116  11.282  38.428   5.850
 6836POPC   GL146117  11.322  38.471   6.150
 6836POPC   GL246118  11.249  38.318   6.150
 6836POPC   C1A46119  11.349  38.485   6.450
 6836POPC   D2A46120  11.299  38.435   6.750
 6836POPC   C3A46121  11.347  38.450   7.050
 6836POPC   C4A46122  11.251  38.438   7.350
 6836POPC   C1B46123  11.172  38.228   6.450
 6836POPC   C2B46124  11.117  38.234   6.750
 6836POPC   C3B46125  11.105  38.209   7.050
 6836POPC   C4B46126  11.166  38.260   7.350
 6837POPC   NC346127  25.289  33.820   5.550
 6837POPC   PO446128  25.251  33.830   5.850
 6837POPC   GL146129  25.240  33.780   6.150
 6837POPC   GL246130  25.390  33.753   6.150
 6837POPC   C1A46131  25.220  33.841   6.450
 6837POPC   D2A46132  25.222  33.812   6.750
 6837POPC   C3A46133  25.238  33.778   7.050
 6837POPC   C4A46134  25.241  33.806   7.350
 6837POPC   C1B46135  25.532  33.725   6.450
 6837POPC   C2B46136  25.508  33.721   6.750
 6837POPC   C3B46137  25.524  33.760   7.050
 6837POPC   C4B46138  25.548  33.769   7.350
 6838POPC   NC346139  10.501   7.421   5.550
 6838POPC   PO446140  10.536   7.437   5.850
 6838POPC   GL146141  10.564   7.455   6.150
 6838POPC   GL246142  10.670   7.443   6.150
 6838POPC   C1A46143  10.482   7.408   6.450
 6838POPC   D2A46144  10.567   7.444   6.750
 6838POPC   C3A46145  10.542   7.429   7.050
 6838POPC   C4A46146  10.476   7.471   7.350
 6838POPC   C1B46147  10.737   7.492   6.450
 6838POPC   C2B46148  10.782   7.522   6.750
 6838POPC   C3B46149  10.730   7.544   7.050
 6838POPC   C4B46150  10.759   7.505   7.350
 6839POPC   NC346151  39.206  24.449   5.550
 6839POPC   PO446152  39.244  24.440   5.850
 6839POPC   GL146153  39.279  24.538   6.150
 6839POPC   GL246154  39.345  24.474   6.150
 6839POPC   C1A46155  39.241  24.472   6.450
 6839POPC   D2A46156  39.218  24.445   6.750
 6839POPC   C3A46157  39.257  24.537   7.050
 6839POPC   C4A46158  39.268  24.447   7.350
 6839POPC   C1B46159  39.493  24.453   6.450
 6839POPC   C2B46160  39.446  24.438   6.750
 6839POPC   C3B46161  39.442  24.428   7.050
 6839POPC   C4B46162  39.497  24.447   7.350
 6840POPC   NC346163  33.756  29.886   5.550
 6840POPC   PO446164  33.804  29.921   5.850
 6840POPC   GL146165  33.771  29.948   6.150
 6840POPC   GL246166  33.657  29.906   6.150
 6840POPC   C1A46167  33.751  29.894   6.450
 6840POPC   D2A46168  33.822  29.941   6.750
 6840POPC   C3A46169  33.756  29.953   7.050
 6840POPC   C4A46170  33.795  29.922   7.350
 6840POPC   C1B46171  33.548  29.951   6.450
 6840POPC   C2B46172  33.501  29.969   6.750
 6840POPC   C3B46173  33.532  29.964   7.050
 6840POPC   C4B46174  33.537  29.959   7.350
 6841POPC   NC346175  23.761  29.130   5.550
 6841POPC   PO446176  23.739  29.146   5.850
 6841POPC   GL146177  23.747  29.153   6.150
 6841POPC   GL246178  23.845  29.092   6.150
 6841POPC   C1A46179  23.731  29.121   6.450
 6841POPC   D2A46180  23.685  29.167   6.750
 6841POPC   C3A46181  23.751  29.176   7.050
 6841POPC   C4A46182  23.738  29.112   7.350
 6841POPC   C1B46183  23.935  29.056   6.450
 6841POPC   C2B46184  23.921  29.075   6.750
 6841POPC   C3B46185  23.918  29.049   7.050
 6841POPC   C4B46186  23.959  29.034   7.350
 6842POPC   NC346187  22.896  14.416   5.550
 6842POPC   PO446188  22.981  14.415   5.850
 6842POPC   GL146189  22.979  14.388   6.150
 6842POPC   GL246190  22.826  14.443   6.150
 6842POPC   C1A46191  22.961  14.389   6.450
 6842POPC   D2A46192  22.951  14.358   6.750
 6842POPC   C3A46193  22.947  14.380   7.050
 6842POPC   C4A46194  22.944  14.407   7.350
 6842POPC   C1B46195  22.642  14.406   6.450
 6842POPC   C2B46196  22.725  14.419   6.750
 6842POPC   C3B46197  22.683  14.444   7.050
 6842POPC   C4B46198  22.718  14.404   7.350
 6843POPC   NC346199  41.563  14.439   5.550
 6843POPC   PO446200  41.589  14.432   5.850
 6843POPC   GL146201  41.581  14.370   6.150
 6843POPC   GL246202  41.607  14.478   6.150
 6843POPC   C1A46203  41.577  14.447   6.450
 6843POPC   D2A46204  41.556  14.429   6.750
 6843POPC   C3A46205  41.526  14.403   7.050
 6843POPC   C4A46206  41.531  14.396   7.350
 6843POPC   C1B46207  41.590  14.653   6.450
 6843POPC   C2B46208  41.564  14.691   6.750
 6843POPC   C3B46209  41.613  14.620   7.050
 6843POPC   C4B46210  41.652  14.638   7.350
 6844POPC   NC346211  30.744  11.277   5.550
 6844POPC   PO446212  30.684  11.309   5.850
 6844POPC   GL146213  30.732  11.287   6.150
 6844POPC   GL246214  30.787  11.257   6.150
 6844POPC   C1A46215  30.697  11.284   6.450
 6844POPC   D2A46216  30.744  11.328   6.750
 6844POPC   C3A46217  30.677  11.290   7.050
 6844POPC   C4A46218  30.651  11.326   7.350
 6844POPC   C1B46219  30.890  11.187   6.450
 6844POPC   C2B46220  30.938  11.234   6.750
 6844POPC   C3B46221  30.914  11.183   7.050
 6844POPC   C4B46222  30.951  11.223   7.350
 6845POPC   NC346223   6.611   3.506   5.550
 6845POPC   PO446224   6.647   3.558   5.850
 6845POPC   GL146225   6.626   3.555   6.150
 6845POPC   GL246226   6.667   3.379   6.150
 6845POPC   C1A46227   6.667   3.583   6.450
 6845POPC   D2A46228   6.647   3.527   6.750
 6845POPC   C3A46229   6.682   3.555   7.050
 6845POPC   C4A46230   6.602   3.507   7.350
 6845POPC   C1B46231   6.685   3.316   6.450
 6845POPC   C2B46232   6.714   3.290   6.750
 6845POPC   C3B46233   6.720   3.296   7.050
 6845POPC   C4B46234   6.700   3.323   7.350
 6846POPC   NC346235  29.876  29.906   5.550
 6846POPC   PO446236  29.969  29.924   5.850
 6846POPC   GL146237  29.947  29.871   6.150
 6846POPC   GL246238  29.876  29.782   6.150
 6846POPC   C1A46239  29.937  29.953   6.450
 6846POPC   D2A46240  29.897  29.959   6.750
 6846POPC   C3A46241  29.892  29.938   7.050
 6846POPC   C4A46242  29.935  29.914   7.350
 6846POPC   C1B46243  29.894  29.630   6.450
 6846POPC   C2B46244  29.863  29.683   6.750
 6846POPC   C3B46245  29.869  29.650   7.050
 6846POPC   C4B46246  29.888  29.686   7.350
 6847POPC   NC346247  30.723  12.062   5.550
 6847POPC   PO446248  30.746  12.055   5.850
 6847POPC   GL146249  30.666  12.102   6.150
 6847POPC   GL246250  30.834  12.169   6.150
 6847POPC   C1A46251  30.712  12.035   6.450
 6847POPC   D2A46252  30.651  12.089   6.750
 6847POPC   C3A46253  30.725  12.044   7.050
 6847POPC   C4A46254  30.648  12.119   7.350
 6847POPC   C1B46255  30.888  12.187   6.450
 6847POPC   C2B46256  30.922  12.139   6.750
 6847POPC   C3B46257  30.952  12.153   7.050
 6847POPC   C4B46258  30.872  12.162   7.350
 6848POPC   NC346259  16.759  42.314   5.550
 6848POPC   PO446260  16.709  42.381   5.850
 6848POPC   GL146261  16.739  42.326   6.150
 6848POPC   GL246262  16.714  42.235   6.150
 6848POPC   C1A46263  16.749  42.298   6.450
 6848POPC   D2A46264  16.686  42.299   6.750
 6848POPC   C3A46265  16.726  42.356   7.050
 6848POPC   C4A46266  16.708  42.343   7.350
 6848POPC   C1B46267  16.637  42.116   6.450
 6848POPC   C2B46268  16.674  42.095   6.750
 6848POPC   C3B46269  16.627  42.043   7.050
 6848POPC   C4B46270  16.701  42.047   7.350
 6849POPC   NC346271  22.134  14.436   5.550
 6849POPC   PO446272  22.124  14.373   5.850
 6849POPC   GL146273  22.138  14.374   6.150
 6849POPC   GL246274  22.336  14.359   6.150
 6849POPC   C1A46275  22.160  14.360   6.450
 6849POPC   D2A46276  22.166  14.362   6.750
 6849POPC   C3A46277  22.134  14.400   7.050
 6849POPC   C4A46278  22.135  14.362   7.350
 6849POPC   C1B46279  22.423  14.337   6.450
 6849POPC   C2B46280  22.413  14.414   6.750
 6849POPC   C3B46281  22.371  14.390   7.050
 6849POPC   C4B46282  22.379  14.392   7.350
 6850POPC   NC346283  42.312  43.064   5.550
 6850POPC   PO446284  42.349  43.127   5.850
 6850POPC   GL146285  42.305  43.114   6.150
 6850POPC   GL246286  42.312  43.032   6.150
 6850POPC   C1A46287  42.372  43.108   6.450
 6850POPC   D2A46288  42.335  43.069   6.750
 6850POPC   C3A46289  42.297  43.119   7.050
 6850POPC   C4A46290  42.285  43.104   7.350
 6850POPC   C1B46291  42.272  42.864   6.450
 6850POPC   C2B46292  42.349  42.826   6.750
 6850POPC   C3B46293  42.362  42.909   7.050
 6850POPC   C4B46294  42.274  42.872   7.350
 6851POPC   NC346295  25.297  24.518   5.550
 6851POPC   PO446296  25.234  24.443   5.850
 6851POPC   GL146297  25.294  24.524   6.150
 6851POPC   GL246298  25.406  24.469   6.150
 6851POPC   C1A46299  25.306  24.506   6.450
 6851POPC   D2A46300  25.268  24.456   6.750
 6851POPC   C3A46301  25.244  24.534   7.050
 6851POPC   C4A46302  25.266  24.467   7.350
 6851POPC   C1B46303  25.534  24.366   6.450
 6851POPC   C2B46304  25.453  24.366   6.750
 6851POPC   C3B46305  25.498  24.417   7.050
 6851POPC   C4B46306  25.530  24.391   7.350
 6852POPC   NC346307  43.150   5.110   5.550
 6852POPC   PO446308  43.088   5.127   5.850
 6852POPC   GL146309  43.078   5.099   6.150
 6852POPC   GL246310  43.182   5.055   6.150
 6852POPC   C1A46311  43.109   5.137   6.450
 6852POPC   D2A46312  43.103   5.116   6.750
 6852POPC   C3A46313  43.080   5.139   7.050
 6852POPC   C4A46314  43.112   5.140   7.350
 6852POPC   C1B46315  43.351   4.972   6.450
 6852POPC   C2B46316  43.335   5.010   6.750
 6852POPC   C3B46317  43.373   5.014   7.050
 6852POPC   C4B46318  43.321   4.995   7.350
 6853POPC   NC346319   8.237  21.367   5.550
 6853POPC   PO446320   8.181  21.342   5.850
 6853POPC   GL146321   8.239  21.366   6.150
 6853POPC   GL246322   8.067  21.333   6.150
 6853POPC   C1A46323   8.224  21.426   6.450
 6853POPC   D2A46324   8.203  21.341   6.750
 6853POPC   C3A46325   8.196  21.382   7.050
 6853POPC   C4A46326   8.194  21.418   7.350
 6853POPC   C1B46327   8.052  21.259   6.450
 6853POPC   C2B46328   7.967  21.207   6.750
 6853POPC   C3B46329   7.993  21.197   7.050
 6853POPC   C4B46330   7.961  21.201   7.350
 6854POPC   NC346331  23.750  13.652   5.550
 6854POPC   PO446332  23.738  13.672   5.850
 6854POPC   GL146333  23.692  13.668   6.150
 6854POPC   GL246334  23.628  13.534   6.150
 6854POPC   C1A46335  23.704  13.633   6.450
 6854POPC   D2A46336  23.679  13.617   6.750
 6854POPC   C3A46337  23.729  13.615   7.050
 6854POPC   C4A46338  23.669  13.626   7.350
 6854POPC   C1B46339  23.529  13.427   6.450
 6854POPC   C2B46340  23.519  13.488   6.750
 6854POPC   C3B46341  23.570  13.440   7.050
 6854POPC   C4B46342  23.522  13.453   7.350
 6855POPC   NC346343  42.370   3.560   5.550
 6855POPC   PO446344  42.372   3.544   5.850
 6855POPC   GL146345  42.332   3.528   6.150
 6855POPC   GL246346  42.418   3.530   6.150
 6855POPC   C1A46347  42.341   3.520   6.450
 6855POPC   D2A46348  42.375   3.524   6.750
 6855POPC   C3A46349  42.377   3.573   7.050
 6855POPC   C4A46350  42.347   3.521   7.350
 6855POPC   C1B46351  42.552   3.555   6.450
 6855POPC   C2B46352  42.592   3.628   6.750
 6855POPC   C3B46353  42.531   3.553   7.050
 6855POPC   C4B46354  42.584   3.580   7.350
 6856POPC   NC346355  13.639  21.435   5.550
 6856POPC   PO446356  13.639  21.433   5.850
 6856POPC   GL146357  13.588  21.427   6.150
 6856POPC   GL246358  13.723  21.528   6.150
 6856POPC   C1A46359  13.667  21.395   6.450
 6856POPC   D2A46360  13.593  21.349   6.750
 6856POPC   C3A46361  13.606  21.358   7.050
 6856POPC   C4A46362  13.650  21.425   7.350
 6856POPC   C1B46363  13.700  21.614   6.450
 6856POPC   C2B46364  13.736  21.643   6.750
 6856POPC   C3B46365  13.728  21.576   7.050
 6856POPC   C4B46366  13.772  21.590   7.350
 6857POPC   NC346367   7.448  22.912   5.550
 6857POPC   PO446368   7.420  22.968   5.850
 6857POPC   GL146369   7.376  22.926   6.150
 6857POPC   GL246370   7.387  22.850   6.150
 6857POPC   C1A46371   7.396  22.975   6.450
 6857POPC   D2A46372   7.407  22.982   6.750
 6857POPC   C3A46373   7.444  22.935   7.050
 6857POPC   C4A46374   7.396  22.949   7.350
 6857POPC   C1B46375   7.226  22.726   6.450
 6857POPC   C2B46376   7.293  22.782   6.750
 6857POPC   C3B46377   7.281  22.699   7.050
 6857POPC   C4B46378   7.260  22.708   7.350
 6858POPC   NC346379  35.339  12.074   5.550
 6858POPC   PO446380  35.333  12.028   5.850
 6858POPC   GL146381  35.322  12.037   6.150
 6858POPC   GL246382  35.444  12.180   6.150
 6858POPC   C1A46383  35.367  12.046   6.450
 6858POPC   D2A46384  35.396  12.058   6.750
 6858POPC   C3A46385  35.369  12.035   7.050
 6858POPC   C4A46386  35.382  12.075   7.350
 6858POPC   C1B46387  35.550  12.208   6.450
 6858POPC   C2B46388  35.547  12.257   6.750
 6858POPC   C3B46389  35.536  12.278   7.050
 6858POPC   C4B46390  35.490  12.278   7.350
 6859POPC   NC346391  21.426  31.454   5.550
 6859POPC   PO446392  21.406  31.503   5.850
 6859POPC   GL146393  21.373  31.470   6.150
 6859POPC   GL246394  21.290  31.571   6.150
 6859POPC   C1A46395  21.415  31.474   6.450
 6859POPC   D2A46396  21.377  31.448   6.750
 6859POPC   C3A46397  21.415  31.453   7.050
 6859POPC   C4A46398  21.426  31.429   7.350
 6859POPC   C1B46399  21.245  31.695   6.450
 6859POPC   C2B46400  21.240  31.628   6.750
 6859POPC   C3B46401  21.273  31.623   7.050
 6859POPC   C4B46402  21.272  31.702   7.350
 6860POPC   NC346403   5.858  16.733   5.550
 6860POPC   PO446404   5.916  16.769   5.850
 6860POPC   GL146405   5.892  16.746   6.150
 6860POPC   GL246406   5.844  16.612   6.150
 6860POPC   C1A46407   5.879  16.776   6.450
 6860POPC   D2A46408   5.894  16.693   6.750
 6860POPC   C3A46409   5.859  16.741   7.050
 6860POPC   C4A46410   5.918  16.756   7.350
 6860POPC   C1B46411   5.733  16.460   6.450
 6860POPC   C2B46412   5.805  16.525   6.750
 6860POPC   C3B46413   5.743  16.507   7.050
 6860POPC   C4B46414   5.760  16.463   7.350
 6861POPC   NC346415  22.112  39.183   5.550
 6861POPC   PO446416  22.157  39.272   5.850
 6861POPC   GL146417  22.193  39.192   6.150
 6861POPC   GL246418  22.102  39.272   6.150
 6861POPC   C1A46419  22.204  39.238   6.450
 6861POPC   D2A46420  22.115  39.228   6.750
 6861POPC   C3A46421  22.187  39.275   7.050
 6861POPC   C4A46422  22.198  39.216   7.350
 6861POPC   C1B46423  21.999  39.455   6.450
 6861POPC   C2B46424  21.988  39.426   6.750
 6861POPC   C3B46425  22.013  39.380   7.050
 6861POPC   C4B46426  21.942  39.398   7.350
 6862POPC   NC346427   1.962   3.532   5.550
 6862POPC   PO446428   2.011   3.587   5.850
 6862POPC   GL146429   2.013   3.552   6.150
 6862POPC   GL246430   1.887   3.476   6.150
 6862POPC   C1A46431   1.993   3.500   6.450
 6862POPC   D2A46432   1.956   3.550   6.750
 6862POPC   C3A46433   1.988   3.563   7.050
 6862POPC   C4A46434   1.993   3.497   7.350
 6862POPC   C1B46435   1.702   3.553   6.450
 6862POPC   C2B46436   1.758   3.543   6.750
 6862POPC   C3B46437   1.754   3.527   7.050
 6862POPC   C4B46438   1.779   3.527   7.350
 6863POPC   NC346439  25.276   5.097   5.550
 6863POPC   PO446440  25.219   5.132   5.850
 6863POPC   GL146441  25.253   5.052   6.150
 6863POPC   GL246442  25.409   5.193   6.150
 6863POPC   C1A46443  25.235   5.051   6.450
 6863POPC   D2A46444  25.225   5.092   6.750
 6863POPC   C3A46445  25.240   5.107   7.050
 6863POPC   C4A46446  25.257   5.104   7.350
 6863POPC   C1B46447  25.470   5.222   6.450
 6863POPC   C2B46448  25.463   5.237   6.750
 6863POPC   C3B46449  25.502   5.251   7.050
 6863POPC   C4B46450  25.446   5.226   7.350
 6864POPC   NC346451  40.804  36.863   5.550
 6864POPC   PO446452  40.738  36.909   5.850
 6864POPC   GL146453  40.770  36.859   6.150
 6864POPC   GL246454  40.903  37.005   6.150
 6864POPC   C1A46455  40.754  36.859   6.450
 6864POPC   D2A46456  40.823  36.923   6.750
 6864POPC   C3A46457  40.778  36.934   7.050
 6864POPC   C4A46458  40.750  36.921   7.350
 6864POPC   C1B46459  40.898  37.073   6.450
 6864POPC   C2B46460  40.946  37.133   6.750
 6864POPC   C3B46461  40.925  37.116   7.050
 6864POPC   C4B46462  40.956  37.152   7.350
 6865POPC   NC346463   8.206   8.966   5.550
 6865POPC   PO446464   8.166   9.004   5.850
 6865POPC   GL146465   8.204   9.005   6.150
 6865POPC   GL246466   8.080   9.031   6.150
 6865POPC   C1A46467   8.173   8.990   6.450
 6865POPC   D2A46468   8.240   8.982   6.750
 6865POPC   C3A46469   8.193   8.965   7.050
 6865POPC   C4A46470   8.221   8.987   7.350
 6865POPC   C1B46471   7.988   9.006   6.450
 6865POPC   C2B46472   7.983   9.037   6.750
 6865POPC   C3B46473   7.927   9.064   7.050
 6865POPC   C4B46474   7.908   9.078   7.350
 6866POPC   NC346475  35.310  31.489   5.550
 6866POPC   PO446476  35.323  31.482   5.850
 6866POPC   GL146477  35.380  31.505   6.150
 6866POPC   GL246478  35.351  31.395   6.150
 6866POPC   C1A46479  35.396  31.470   6.450
 6866POPC   D2A46480  35.346  31.479   6.750
 6866POPC   C3A46481  35.357  31.463   7.050
 6866POPC   C4A46482  35.314  31.510   7.350
 6866POPC   C1B46483  35.375  31.208   6.450
 6866POPC   C2B46484  35.389  31.198   6.750
 6866POPC   C3B46485  35.343  31.224   7.050
 6866POPC   C4B46486  35.398  31.191   7.350
 6867POPC   NC346487  27.635   3.501   5.550
 6867POPC   PO446488  27.575   3.538   5.850
 6867POPC   GL146489  27.586   3.561   6.150
 6867POPC   GL246490  27.677   3.623   6.150
 6867POPC   C1A46491  27.556   3.500   6.450
 6867POPC   D2A46492  27.577   3.551   6.750
 6867POPC   C3A46493  27.589   3.536   7.050
 6867POPC   C4A46494  27.617   3.495   7.350
 6867POPC   C1B46495  27.632   3.771   6.450
 6867POPC   C2B46496  27.658   3.782   6.750
 6867POPC   C3B46497  27.638   3.816   7.050
 6867POPC   C4B46498  27.689   3.791   7.350
 6868POPC   NC346499  34.595   3.516   5.550
 6868POPC   PO446500  34.532   3.548   5.850
 6868POPC   GL146501  34.612   3.576   6.150
 6868POPC   GL246502  34.637   3.423   6.150
 6868POPC   C1A46503  34.598   3.553   6.450
 6868POPC   D2A46504  34.552   3.558   6.750
 6868POPC   C3A46505  34.553   3.552   7.050
 6868POPC   C4A46506  34.578   3.577   7.350
 6868POPC   C1B46507  34.700   3.374   6.450
 6868POPC   C2B46508  34.768   3.353   6.750
 6868POPC   C3B46509  34.763   3.328   7.050
 6868POPC   C4B46510  34.701   3.393   7.350
 6869POPC   NC346511  16.688  34.612   5.550
 6869POPC   PO446512  16.714  34.583   5.850
 6869POPC   GL146513  16.685  34.528   6.150
 6869POPC   GL246514  16.592  34.573   6.150
 6869POPC   C1A46515  16.695  34.548   6.450
 6869POPC   D2A46516  16.749  34.578   6.750
 6869POPC   C3A46517  16.769  34.528   7.050
 6869POPC   C4A46518  16.716  34.610   7.350
 6869POPC   C1B46519  16.465  34.523   6.450
 6869POPC   C2B46520  16.491  34.469   6.750
 6869POPC   C3B46521  16.458  34.496   7.050
 6869POPC   C4B46522  16.503  34.535   7.350
 6870POPC   NC346523  22.148   9.738   5.550
 6870POPC   PO446524  22.144   9.780   5.850
 6870POPC   GL146525  22.140   9.748   6.150
 6870POPC   GL246526  22.211   9.880   6.150
 6870POPC   C1A46527  22.199   9.703   6.450
 6870POPC   D2A46528  22.152   9.782   6.750
 6870POPC   C3A46529  22.114   9.738   7.050
 6870POPC   C4A46530  22.115   9.766   7.350
 6870POPC   C1B46531  22.268  10.009   6.450
 6870POPC   C2B46532  22.327   9.936   6.750
 6870POPC   C3B46533  22.262   9.926   7.050
 6870POPC   C4B46534  22.259   9.966   7.350
 6871POPC   NC346535  39.972  14.382   5.550
 6871POPC   PO446536  39.958  14.395   5.850
 6871POPC   GL146537  40.017  14.421   6.150
 6871POPC   GL246538  40.017  14.325   6.150
 6871POPC   C1A46539  39.992  14.434   6.450
 6871POPC   D2A46540  40.007  14.425   6.750
 6871POPC   C3A46541  39.966  14.449   7.050
 6871POPC   C4A46542  40.003  14.417   7.350
 6871POPC   C1B46543  40.069  14.205   6.450
 6871POPC   C2B46544  40.111  14.206   6.750
 6871POPC   C3B46545  40.068  14.181   7.050
 6871POPC   C4B46546  40.143  14.138   7.350
 6872POPC   NC346547  39.237  36.935   5.550
 6872POPC   PO446548  39.275  36.888   5.850
 6872POPC   GL146549  39.184  36.893   6.150
 6872POPC   GL246550  39.124  36.839   6.150
 6872POPC   C1A46551  39.219  36.906   6.450
 6872POPC   D2A46552  39.244  36.917   6.750
 6872POPC   C3A46553  39.198  36.948   7.050
 6872POPC   C4A46554  39.273  36.925   7.350
 6872POPC   C1B46555  39.077  36.736   6.450
 6872POPC   C2B46556  39.081  36.686   6.750
 6872POPC   C3B46557  39.118  36.663   7.050
 6872POPC   C4B46558  39.129  36.651   7.350
 6873POPC   NC346559  22.906   5.100   5.550
 6873POPC   PO446560  22.978   5.118   5.850
 6873POPC   GL146561  22.946   5.086   6.150
 6873POPC   GL246562  22.889   4.972   6.150
 6873POPC   C1A46563  22.921   5.140   6.450
 6873POPC   D2A46564  22.982   5.096   6.750
 6873POPC   C3A46565  22.926   5.078   7.050
 6873POPC   C4A46566  22.962   5.105   7.350
 6873POPC   C1B46567  22.857   4.836   6.450
 6873POPC   C2B46568  22.843   4.904   6.750
 6873POPC   C3B46569  22.860   4.810   7.050
 6873POPC   C4B46570  22.831   4.889   7.350
 6874POPC   NC346571  39.980  20.571   5.550
 6874POPC   PO446572  39.994  20.615   5.850
 6874POPC   GL146573  40.013  20.629   6.150
 6874POPC   GL246574  39.881  20.541   6.150
 6874POPC   C1A46575  39.963  20.643   6.450
 6874POPC   D2A46576  40.043  20.577   6.750
 6874POPC   C3A46577  40.035  20.632   7.050
 6874POPC   C4A46578  39.978  20.563   7.350
 6874POPC   C1B46579  39.762  20.577   6.450
 6874POPC   C2B46580  39.791  20.558   6.750
 6874POPC   C3B46581  39.809  20.481   7.050
 6874POPC   C4B46582  39.779  20.535   7.350
 6875POPC   NC346583   0.390  18.299   5.550
 6875POPC   PO446584   0.458  18.306   5.850
 6875POPC   GL146585   0.433  18.233   6.150
 6875POPC   GL246586   0.479  18.174   6.150
 6875POPC   C1A46587   0.423  18.253   6.450
 6875POPC   D2A46588   0.392  18.236   6.750
 6875POPC   C3A46589   0.451  18.262   7.050
 6875POPC   C4A46590   0.471  18.273   7.350
 6875POPC   C1B46591   0.620  18.039   6.450
 6875POPC   C2B46592   0.568  18.087   6.750
 6875POPC   C3B46593   0.602  18.101   7.050
 6875POPC   C4B46594   0.601  18.136   7.350
 6876POPC   NC346595   2.739  17.507   5.550
 6876POPC   PO446596   2.807  17.525   5.850
 6876POPC   GL146597   2.781  17.497   6.150
 6876POPC   GL246598   2.791  17.563   6.150
 6876POPC   C1A46599   2.790  17.538   6.450
 6876POPC   D2A46600   2.764  17.525   6.750
 6876POPC   C3A46601   2.795  17.495   7.050
 6876POPC   C4A46602   2.737  17.507   7.350
 6876POPC   C1B46603   2.921  17.758   6.450
 6876POPC   C2B46604   2.950  17.686   6.750
 6876POPC   C3B46605   2.859  17.690   7.050
 6876POPC   C4B46606   2.919  17.669   7.350
 6877POPC   NC346607   4.327   5.820   5.550
 6877POPC   PO446608   4.347   5.885   5.850
 6877POPC   GL146609   4.293   5.833   6.150
 6877POPC   GL246610   4.143   5.918   6.150
 6877POPC   C1A46611   4.288   5.841   6.450
 6877POPC   D2A46612   4.362   5.868   6.750
 6877POPC   C3A46613   4.311   5.845   7.050
 6877POPC   C4A46614   4.347   5.829   7.350
 6877POPC   C1B46615   4.101   5.847   6.450
 6877POPC   C2B46616   4.085   5.934   6.750
 6877POPC   C3B46617   4.063   5.906   7.050
 6877POPC   C4B46618   4.029   5.879   7.350
 6878POPC   NC346619  22.909  12.889   5.550
 6878POPC   PO446620  22.925  12.860   5.850
 6878POPC   GL146621  22.952  12.897   6.150
 6878POPC   GL246622  22.861  12.761   6.150
 6878POPC   C1A46623  22.918  12.898   6.450
 6878POPC   D2A46624  22.904  12.837   6.750
 6878POPC   C3A46625  22.981  12.869   7.050
 6878POPC   C4A46626  22.920  12.900   7.350
 6878POPC   C1B46627  22.711  12.732   6.450
 6878POPC   C2B46628  22.670  12.715   6.750
 6878POPC   C3B46629  22.663  12.791   7.050
 6878POPC   C4B46630  22.717  12.790   7.350
 6879POPC   NC346631  20.590  35.353   5.550
 6879POPC   PO446632  20.616  35.337   5.850
 6879POPC   GL146633  20.566  35.346   6.150
 6879POPC   GL246634  20.661  35.266   6.150
 6879POPC   C1A46635  20.572  35.319   6.450
 6879POPC   D2A46636  20.562  35.304   6.750
 6879POPC   C3A46637  20.561  35.302   7.050
 6879POPC   C4A46638  20.587  35.326   7.350
 6879POPC   C1B46639  20.669  35.124   6.450
 6879POPC   C2B46640  20.748  35.111   6.750
 6879POPC   C3B46641  20.668  35.109   7.050
 6879POPC   C4B46642  20.660  35.094   7.350
 6880POPC   NC346643  31.483  33.015   5.550
 6880POPC   PO446644  31.507  33.040   5.850
 6880POPC   GL146645  31.475  33.042   6.150
 6880POPC   GL246646  31.548  32.951   6.150
 6880POPC   C1A46647  31.500  33.035   6.450
 6880POPC   D2A46648  31.501  33.017   6.750
 6880POPC   C3A46649  31.496  33.024   7.050
 6880POPC   C4A46650  31.430  33.051   7.350
 6880POPC   C1B46651  31.566  32.790   6.450
 6880POPC   C2B46652  31.586  32.850   6.750
 6880POPC   C3B46653  31.570  32.824   7.050
 6880POPC   C4B46654  31.548  32.791   7.350
 6881POPC   NC346655  19.081  31.521   5.550
 6881POPC   PO446656  19.089  31.493   5.850
 6881POPC   GL146657  19.102  31.463   6.150
 6881POPC   GL246658  18.984  31.471   6.150
 6881POPC   C1A46659  19.026  31.476   6.450
 6881POPC   D2A46660  19.083  31.459   6.750
 6881POPC   C3A46661  19.059  31.443   7.050
 6881POPC   C4A46662  19.096  31.520   7.350
 6881POPC   C1B46663  18.788  31.444   6.450
 6881POPC   C2B46664  18.799  31.467   6.750
 6881POPC   C3B46665  18.780  31.436   7.050
 6881POPC   C4B46666  18.789  31.413   7.350
 6882POPC   NC346667  43.069  40.792   5.550
 6882POPC   PO446668  43.107  40.802   5.850
 6882POPC   GL146669  43.159  40.815   6.150
 6882POPC   GL246670  43.235  40.884   6.150
 6882POPC   C1A46671  43.154  40.817   6.450
 6882POPC   D2A46672  43.127  40.796   6.750
 6882POPC   C3A46673  43.139  40.790   7.050
 6882POPC   C4A46674  43.108  40.817   7.350
 6882POPC   C1B46675  43.345  40.894   6.450
 6882POPC   C2B46676  43.301  40.968   6.750
 6882POPC   C3B46677  43.330  40.938   7.050
 6882POPC   C4B46678  43.321  40.925   7.350
 6883POPC   NC346679  26.090  13.670   5.550
 6883POPC   PO446680  26.025  13.632   5.850
 6883POPC   GL146681  26.089  13.596   6.150
 6883POPC   GL246682  26.046  13.472   6.150
 6883POPC   C1A46683  26.072  13.660   6.450
 6883POPC   D2A46684  26.071  13.609   6.750
 6883POPC   C3A46685  26.064  13.591   7.050
 6883POPC   C4A46686  26.087  13.580   7.350
 6883POPC   C1B46687  26.088  13.379   6.450
 6883POPC   C2B46688  26.159  13.429   6.750
 6883POPC   C3B46689  26.066  13.376   7.050
 6883POPC   C4B46690  26.151  13.417   7.350
 6884POPC   NC346691  42.365  43.923   5.550
 6884POPC   PO446692  42.365  43.931   5.850
 6884POPC   GL146693  42.370  43.906   6.150
 6884POPC   GL246694  42.213  43.878   6.150
 6884POPC   C1A46695  42.300  43.888   6.450
 6884POPC   D2A46696  42.326  43.912   6.750
 6884POPC   C3A46697  42.372  43.889   7.050
 6884POPC   C4A46698  42.307  43.836   7.350
 6884POPC   C1B46699  42.134  43.956   6.450
 6884POPC   C2B46700  42.066  43.935   6.750
 6884POPC   C3B46701  42.117  43.958   7.050
 6884POPC   C4B46702  42.096  43.928   7.350
 6885POPC   NC346703   4.336   7.414   5.550
 6885POPC   PO446704   4.351   7.434   5.850
 6885POPC   GL146705   4.284   7.394   6.150
 6885POPC   GL246706   4.237   7.300   6.150
 6885POPC   C1A46707   4.286   7.431   6.450
 6885POPC   D2A46708   4.294   7.407   6.750
 6885POPC   C3A46709   4.326   7.451   7.050
 6885POPC   C4A46710   4.321   7.427   7.350
 6885POPC   C1B46711   4.239   7.143   6.450
 6885POPC   C2B46712   4.183   7.144   6.750
 6885POPC   C3B46713   4.190   7.241   7.050
 6885POPC   C4B46714   4.207   7.230   7.350
 6886POPC   NC346715  43.866  35.395   5.550
 6886POPC   PO446716  43.933  35.377   5.850
 6886POPC   GL146717  43.931  35.339   6.150
 6886POPC   GL246718  44.044  35.341   6.150
 6886POPC   C1A46719  43.868  35.401   6.450
 6886POPC   D2A46720  43.849  35.395   6.750
 6886POPC   C3A46721  43.873  35.302   7.050
 6886POPC   C4A46722  43.928  35.381   7.350
 6886POPC   C1B46723  44.146  35.365   6.450
 6886POPC   C2B46724  44.141  35.324   6.750
 6886POPC   C3B46725  44.135  35.299   7.050
 6886POPC   C4B46726  44.129  35.346   7.350
 6887POPC   NC346727  29.889  31.510   5.550
 6887POPC   PO446728  29.946  31.438   5.850
 6887POPC   GL146729  29.938  31.467   6.150
 6887POPC   GL246730  30.034  31.563   6.150
 6887POPC   C1A46731  29.894  31.424   6.450
 6887POPC   D2A46732  29.925  31.459   6.750
 6887POPC   C3A46733  29.879  31.445   7.050
 6887POPC   C4A46734  29.968  31.496   7.350
 6887POPC   C1B46735  30.067  31.613   6.450
 6887POPC   C2B46736  30.125  31.599   6.750
 6887POPC   C3B46737  30.081  31.607   7.050
 6887POPC   C4B46738  30.055  31.659   7.350
 6888POPC   NC346739  27.549   8.976   5.550
 6888POPC   PO446740  27.546   9.014   5.850
 6888POPC   GL146741  27.638   8.938   6.150
 6888POPC   GL246742  27.548   9.095   6.150
 6888POPC   C1A46743  27.555   8.982   6.450
 6888POPC   D2A46744  27.558   8.941   6.750
 6888POPC   C3A46745  27.580   9.000   7.050
 6888POPC   C4A46746  27.571   8.976   7.350
 6888POPC   C1B46747  27.440   9.172   6.450
 6888POPC   C2B46748  27.458   9.231   6.750
 6888POPC   C3B46749  27.486   9.181   7.050
 6888POPC   C4B46750  27.418   9.158   7.350
 6889POPC   NC346751  41.540   5.134   5.550
 6889POPC   PO446752  41.556   5.081   5.850
 6889POPC   GL146753  41.554   5.130   6.150
 6889POPC   GL246754  41.400   5.063   6.150
 6889POPC   C1A46755  41.558   5.112   6.450
 6889POPC   D2A46756  41.573   5.045   6.750
 6889POPC   C3A46757  41.574   5.065   7.050
 6889POPC   C4A46758  41.606   5.078   7.350
 6889POPC   C1B46759  41.265   5.036   6.450
 6889POPC   C2B46760  41.344   5.033   6.750
 6889POPC   C3B46761  41.316   5.008   7.050
 6889POPC   C4B46762  41.352   5.076   7.350
 6890POPC   NC346763  10.484  24.442   5.550
 6890POPC   PO446764  10.533  24.497   5.850
 6890POPC   GL146765  10.533  24.494   6.150
 6890POPC   GL246766  10.602  24.562   6.150
 6890POPC   C1A46767  10.483  24.478   6.450
 6890POPC   D2A46768  10.539  24.480   6.750
 6890POPC   C3A46769  10.523  24.527   7.050
 6890POPC   C4A46770  10.516  24.527   7.350
 6890POPC   C1B46771  10.704  24.611   6.450
 6890POPC   C2B46772  10.760  24.701   6.750
 6890POPC   C3B46773  10.740  24.669   7.050
 6890POPC   C4B46774  10.692  24.632   7.350
 6891POPC   NC346775  11.270  43.859   5.550
 6891POPC   PO446776  11.339  43.850   5.850
 6891POPC   GL146777  11.348  43.920   6.150
 6891POPC   GL246778  11.259  43.739   6.150
 6891POPC   C1A46779  11.253  43.891   6.450
 6891POPC   D2A46780  11.296  43.857   6.750
 6891POPC   C3A46781  11.267  43.890   7.050
 6891POPC   C4A46782  11.266  43.866   7.350
 6891POPC   C1B46783  11.243  43.684   6.450
 6891POPC   C2B46784  11.219  43.635   6.750
 6891POPC   C3B46785  11.250  43.670   7.050
 6891POPC   C4B46786  11.232  43.667   7.350
 6892POPC   NC346787  42.308  30.663   5.550
 6892POPC   PO446788  42.331  30.713   5.850
 6892POPC   GL146789  42.333  30.680   6.150
 6892POPC   GL246790  42.290  30.818   6.150
 6892POPC   C1A46791  42.316  30.671   6.450
 6892POPC   D2A46792  42.364  30.668   6.750
 6892POPC   C3A46793  42.286  30.668   7.050
 6892POPC   C4A46794  42.377  30.686   7.350
 6892POPC   C1B46795  42.234  30.865   6.450
 6892POPC   C2B46796  42.170  30.869   6.750
 6892POPC   C3B46797  42.242  30.860   7.050
 6892POPC   C4B46798  42.182  30.941   7.350
 6893POPC   NC346799  12.051  26.016   5.550
 6893POPC   PO446800  12.032  26.032   5.850
 6893POPC   GL146801  12.083  26.005   6.150
 6893POPC   GL246802  11.958  26.089   6.150
 6893POPC   C1A46803  12.072  26.045   6.450
 6893POPC   D2A46804  12.098  26.083   6.750
 6893POPC   C3A46805  12.040  26.010   7.050
 6893POPC   C4A46806  12.093  26.047   7.350
 6893POPC   C1B46807  11.877  26.114   6.450
 6893POPC   C2B46808  11.889  26.131   6.750
 6893POPC   C3B46809  11.843  26.185   7.050
 6893POPC   C4B46810  11.895  26.113   7.350
 6894POPC   NC346811  33.042  26.817   5.550
 6894POPC   PO446812  32.975  26.783   5.850
 6894POPC   GL146813  33.065  26.773   6.150
 6894POPC   GL246814  33.063  26.924   6.150
 6894POPC   C1A46815  33.071  26.818   6.450
 6894POPC   D2A46816  32.999  26.807   6.750
 6894POPC   C3A46817  32.996  26.785   7.050
 6894POPC   C4A46818  33.000  26.830   7.350
 6894POPC   C1B46819  33.160  27.040   6.450
 6894POPC   C2B46820  33.172  26.979   6.750
 6894POPC   C3B46821  33.247  27.031   7.050
 6894POPC   C4B46822  33.179  27.028   7.350
 6895POPC   NC346823  40.049   5.870   5.550
 6895POPC   PO446824  40.039   5.916   5.850
 6895POPC   GL146825  40.044   5.833   6.150
 6895POPC   GL246826  40.116   5.847   6.150
 6895POPC   C1A46827  40.034   5.848   6.450
 6895POPC   D2A46828  40.018   5.845   6.750
 6895POPC   C3A46829  40.001   5.872   7.050
 6895POPC   C4A46830  39.971   5.834   7.350
 6895POPC   C1B46831  40.245   5.900   6.450
 6895POPC   C2B46832  40.297   5.902   6.750
 6895POPC   C3B46833  40.280   5.873   7.050
 6895POPC   C4B46834  40.287   5.888   7.350
 6896POPC   NC346835   1.252   4.358   5.550
 6896POPC   PO446836   1.247   4.346   5.850
 6896POPC   GL146837   1.239   4.345   6.150
 6896POPC   GL246838   1.241   4.223   6.150
 6896POPC   C1A46839   1.244   4.268   6.450
 6896POPC   D2A46840   1.191   4.330   6.750
 6896POPC   C3A46841   1.188   4.317   7.050
 6896POPC   C4A46842   1.172   4.352   7.350
 6896POPC   C1B46843   1.154   4.087   6.450
 6896POPC   C2B46844   1.234   4.098   6.750
 6896POPC   C3B46845   1.163   4.085   7.050
 6896POPC   C4B46846   1.172   4.111   7.350
 6897POPC   NC346847  43.882  39.218   5.550
 6897POPC   PO446848  43.846  39.248   5.850
 6897POPC   GL146849  43.857  39.228   6.150
 6897POPC   GL246850  43.803  39.140   6.150
 6897POPC   C1A46851  43.925  39.203   6.450
 6897POPC   D2A46852  43.916  39.184   6.750
 6897POPC   C3A46853  43.917  39.212   7.050
 6897POPC   C4A46854  43.846  39.206   7.350
 6897POPC   C1B46855  43.626  39.113   6.450
 6897POPC   C2B46856  43.668  39.056   6.750
 6897POPC   C3B46857  43.660  39.078   7.050
 6897POPC   C4B46858  43.671  39.064   7.350
 6898POPC   NC346859  22.899  27.570   5.550
 6898POPC   PO446860  22.913  27.636   5.850
 6898POPC   GL146861  22.979  27.578   6.150
 6898POPC   GL246862  22.871  27.657   6.150
 6898POPC   C1A46863  22.981  27.637   6.450
 6898POPC   D2A46864  22.960  27.596   6.750
 6898POPC   C3A46865  22.914  27.566   7.050
 6898POPC   C4A46866  22.950  27.609   7.350
 6898POPC   C1B46867  22.842  27.778   6.450
 6898POPC   C2B46868  22.812  27.762   6.750
 6898POPC   C3B46869  22.842  27.826   7.050
 6898POPC   C4B46870  22.840  27.786   7.350
 6899POPC   NC346871  11.273   5.890   5.550
 6899POPC   PO446872  11.337   5.848   5.850
 6899POPC   GL146873  11.276   5.892   6.150
 6899POPC   GL246874  11.395   5.878   6.150
 6899POPC   C1A46875  11.344   5.835   6.450
 6899POPC   D2A46876  11.285   5.880   6.750
 6899POPC   C3A46877  11.347   5.840   7.050
 6899POPC   C4A46878  11.251   5.902   7.350
 6899POPC   C1B46879  11.551   5.914   6.450
 6899POPC   C2B46880  11.580   5.913   6.750
 6899POPC   C3B46881  11.492   5.961   7.050
 6899POPC   C4B46882  11.501   5.948   7.350
 6900POPC   NC346883   6.623  19.787   5.550
 6900POPC   PO446884   6.681  19.837   5.850
 6900POPC   GL146885   6.678  19.809   6.150
 6900POPC   GL246886   6.708  19.919   6.150
 6900POPC   C1A46887   6.616  19.829   6.450
 6900POPC   D2A46888   6.635  19.880   6.750
 6900POPC   C3A46889   6.640  19.821   7.050
 6900POPC   C4A46890   6.667  19.847   7.350
 6900POPC   C1B46891   6.801  20.049   6.450
 6900POPC   C2B46892   6.813  20.004   6.750
 6900POPC   C3B46893   6.798  20.006   7.050
 6900POPC   C4B46894   6.820  20.068   7.350
 6901POPC   NC346895  29.192  43.072   5.550
 6901POPC   PO446896  29.104  43.112   5.850
 6901POPC   GL146897  29.166  43.146   6.150
 6901POPC   GL246898  29.126  43.190   6.150
 6901POPC   C1A46899  29.193  43.073   6.450
 6901POPC   D2A46900  29.096  43.147   6.750
 6901POPC   C3A46901  29.191  43.122   7.050
 6901POPC   C4A46902  29.116  43.101   7.350
 6901POPC   C1B46903  29.074  43.325   6.450
 6901POPC   C2B46904  29.037  43.353   6.750
 6901POPC   C3B46905  29.093  43.312   7.050
 6901POPC   C4B46906  29.031  43.381   7.350
 6902POPC   NC346907   4.346  34.598   5.550
 6902POPC   PO446908   4.362  34.623   5.850
 6902POPC   GL146909   4.297  34.623   6.150
 6902POPC   GL246910   4.228  34.460   6.150
 6902POPC   C1A46911   4.358  34.593   6.450
 6902POPC   D2A46912   4.351  34.602   6.750
 6902POPC   C3A46913   4.296  34.610   7.050
 6902POPC   C4A46914   4.306  34.529   7.350
 6902POPC   C1B46915   4.212  34.418   6.450
 6902POPC   C2B46916   4.160  34.350   6.750
 6902POPC   C3B46917   4.142  34.321   7.050
 6902POPC   C4B46918   4.200  34.382   7.350
 6903POPC   NC346919  40.817  17.473   5.550
 6903POPC   PO446920  40.776  17.539   5.850
 6903POPC   GL146921  40.770  17.462   6.150
 6903POPC   GL246922  40.719  17.382   6.150
 6903POPC   C1A46923  40.743  17.512   6.450
 6903POPC   D2A46924  40.745  17.540   6.750
 6903POPC   C3A46925  40.767  17.517   7.050
 6903POPC   C4A46926  40.828  17.527   7.350
 6903POPC   C1B46927  40.617  17.268   6.450
 6903POPC   C2B46928  40.658  17.346   6.750
 6903POPC   C3B46929  40.606  17.283   7.050
 6903POPC   C4B46930  40.633  17.290   7.350
 6904POPC   NC346931   5.864  29.097   5.550
 6904POPC   PO446932   5.870  29.165   5.850
 6904POPC   GL146933   5.910  29.121   6.150
 6904POPC   GL246934   5.925  29.232   6.150
 6904POPC   C1A46935   5.918  29.096   6.450
 6904POPC   D2A46936   5.832  29.180   6.750
 6904POPC   C3A46937   5.847  29.121   7.050
 6904POPC   C4A46938   5.880  29.130   7.350
 6904POPC   C1B46939   5.939  29.388   6.450
 6904POPC   C2B46940   5.962  29.325   6.750
 6904POPC   C3B46941   6.023  29.339   7.050
 6904POPC   C4B46942   5.937  29.392   7.350
 6905POPC   NC346943   1.950  36.119   5.550
 6905POPC   PO446944   1.977  36.174   5.850
 6905POPC   GL146945   1.980  36.146   6.150
 6905POPC   GL246946   1.877  36.179   6.150
 6905POPC   C1A46947   1.989  36.149   6.450
 6905POPC   D2A46948   2.002  36.132   6.750
 6905POPC   C3A46949   1.966  36.102   7.050
 6905POPC   C4A46950   1.943  36.144   7.350
 6905POPC   C1B46951   1.770  36.277   6.450
 6905POPC   C2B46952   1.799  36.195   6.750
 6905POPC   C3B46953   1.777  36.244   7.050
 6905POPC   C4B46954   1.804  36.248   7.350
 6906POPC   NC346955  25.266  27.613   5.550
 6906POPC   PO446956  25.240  27.635   5.850
 6906POPC   GL146957  25.305  27.637   6.150
 6906POPC   GL246958  25.207  27.529   6.150
 6906POPC   C1A46959  25.289  27.640   6.450
 6906POPC   D2A46960  25.223  27.548   6.750
 6906POPC   C3A46961  25.237  27.624   7.050
 6906POPC   C4A46962  25.256  27.555   7.350
 6906POPC   C1B46963  25.047  27.461   6.450
 6906POPC   C2B46964  25.112  27.412   6.750
 6906POPC   C3B46965  25.056  27.439   7.050
 6906POPC   C4B46966  25.102  27.429   7.350
 6907POPC   NC346967  25.270  17.462   5.550
 6907POPC   PO446968  25.240  17.464   5.850
 6907POPC   GL146969  25.312  17.487   6.150
 6907POPC   GL246970  25.164  17.445   6.150
 6907POPC   C1A46971  25.271  17.546   6.450
 6907POPC   D2A46972  25.225  17.493   6.750
 6907POPC   C3A46973  25.250  17.471   7.050
 6907POPC   C4A46974  25.253  17.487   7.350
 6907POPC   C1B46975  25.033  17.437   6.450
 6907POPC   C2B46976  25.074  17.460   6.750
 6907POPC   C3B46977  25.044  17.393   7.050
 6907POPC   C4B46978  25.043  17.418   7.350
 6908POPC   NC346979  24.527  35.315   5.550
 6908POPC   PO446980  24.485  35.326   5.850
 6908POPC   GL146981  24.446  35.338   6.150
 6908POPC   GL246982  24.396  35.241   6.150
 6908POPC   C1A46983  24.446  35.339   6.450
 6908POPC   D2A46984  24.479  35.352   6.750
 6908POPC   C3A46985  24.489  35.391   7.050
 6908POPC   C4A46986  24.501  35.374   7.350
 6908POPC   C1B46987  24.318  35.243   6.450
 6908POPC   C2B46988  24.249  35.203   6.750
 6908POPC   C3B46989  24.276  35.203   7.050
 6908POPC   C4B46990  24.279  35.239   7.350
 6909POPC   NC346991  36.857   2.774   5.550
 6909POPC   PO446992  36.944   2.773   5.850
 6909POPC   GL146993  36.909   2.814   6.150
 6909POPC   GL246994  36.983   2.648   6.150
 6909POPC   C1A46995  36.899   2.754   6.450
 6909POPC   D2A46996  36.877   2.719   6.750
 6909POPC   C3A46997  36.933   2.771   7.050
 6909POPC   C4A46998  36.860   2.781   7.350
 6909POPC   C1B46999  37.024   2.554   6.450
 6909POPC   C2B47000  37.012   2.560   6.750
 6909POPC   C3B47001  37.032   2.520   7.050
 6909POPC   C4B47002  37.030   2.548   7.350
 6910POPC   NC347003   4.348  40.778   5.550
 6910POPC   PO447004   4.281  40.795   5.850
 6910POPC   GL147005   4.333  40.817   6.150
 6910POPC   GL247006   4.410  40.784   6.150
 6910POPC   C1A47007   4.366  40.748   6.450
 6910POPC   D2A47008   4.316  40.807   6.750
 6910POPC   C3A47009   4.319  40.768   7.050
 6910POPC   C4A47010   4.355  40.741   7.350
 6910POPC   C1B47011   4.533  40.759   6.450
 6910POPC   C2B47012   4.571  40.764   6.750
 6910POPC   C3B47013   4.584  40.750   7.050
 6910POPC   C4B47014   4.580  40.767   7.350
 6911POPC   NC347015  12.901   8.188   5.550
 6911POPC   PO447016  12.849   8.175   5.850
 6911POPC   GL147017  12.854   8.223   6.150
 6911POPC   GL247018  12.833   8.038   6.150
 6911POPC   C1A47019  12.877   8.228   6.450
 6911POPC   D2A47020  12.862   8.179   6.750
 6911POPC   C3A47021  12.831   8.195   7.050
 6911POPC   C4A47022  12.829   8.169   7.350
 6911POPC   C1B47023  12.744   7.974   6.450
 6911POPC   C2B47024  12.782   7.977   6.750
 6911POPC   C3B47025  12.756   8.004   7.050
 6911POPC   C4B47026  12.762   7.938   7.350
 6912POPC   NC347027  33.827   2.757   5.550
 6912POPC   PO447028  33.786   2.721   5.850
 6912POPC   GL147029  33.817   2.767   6.150
 6912POPC   GL247030  33.947   2.833   6.150
 6912POPC   C1A47031  33.827   2.799   6.450
 6912POPC   D2A47032  33.840   2.743   6.750
 6912POPC   C3A47033  33.829   2.771   7.050
 6912POPC   C4A47034  33.839   2.786   7.350
 6912POPC   C1B47035  34.022   2.822   6.450
 6912POPC   C2B47036  33.989   2.858   6.750
 6912POPC   C3B47037  34.079   2.903   7.050
 6912POPC   C4B47038  33.991   2.858   7.350
 6913POPC   NC347039  37.632  26.012   5.550
 6913POPC   PO447040  37.715  26.011   5.850
 6913POPC   GL147041  37.712  26.060   6.150
 6913POPC   GL247042  37.706  25.891   6.150
 6913POPC   C1A47043  37.728  26.057   6.450
 6913POPC   D2A47044  37.636  26.013   6.750
 6913POPC   C3A47045  37.699  26.047   7.050
 6913POPC   C4A47046  37.721  26.090   7.350
 6913POPC   C1B47047  37.614  25.791   6.450
 6913POPC   C2B47048  37.631  25.795   6.750
 6913POPC   C3B47049  37.623  25.839   7.050
 6913POPC   C4B47050  37.591  25.846   7.350
 6914POPC   NC347051  22.206  27.588   5.550
 6914POPC   PO447052  22.121  27.593   5.850
 6914POPC   GL147053  22.136  27.634   6.150
 6914POPC   GL247054  22.243  27.640   6.150
 6914POPC   C1A47055  22.204  27.597   6.450
 6914POPC   D2A47056  22.140  27.547   6.750
 6914POPC   C3A47057  22.151  27.620   7.050
 6914POPC   C4A47058  22.180  27.589   7.350
 6914POPC   C1B47059  22.440  27.680   6.450
 6914POPC   C2B47060  22.434  27.632   6.750
 6914POPC   C3B47061  22.373  27.702   7.050
 6914POPC   C4B47062  22.364  27.657   7.350
 6915POPC   NC347063  31.473  22.154   5.550
 6915POPC   PO447064  31.435  22.166   5.850
 6915POPC   GL147065  31.491  22.131   6.150
 6915POPC   GL247066  31.411  22.026   6.150
 6915POPC   C1A47067  31.508  22.176   6.450
 6915POPC   D2A47068  31.517  22.199   6.750
 6915POPC   C3A47069  31.507  22.160   7.050
 6915POPC   C4A47070  31.427  22.197   7.350
 6915POPC   C1B47071  31.416  21.958   6.450
 6915POPC   C2B47072  31.442  21.890   6.750
 6915POPC   C3B47073  31.443  21.968   7.050
 6915POPC   C4B47074  31.406  21.899   7.350
 6916POPC   NC347075   8.940  37.666   5.550
 6916POPC   PO447076   9.020  37.712   5.850
 6916POPC   GL147077   8.924  37.654   6.150
 6916POPC   GL247078   8.816  37.723   6.150
 6916POPC   C1A47079   9.011  37.665   6.450
 6916POPC   D2A47080   8.983  37.720   6.750
 6916POPC   C3A47081   8.931  37.694   7.050
 6916POPC   C4A47082   8.989  37.664   7.350
 6916POPC   C1B47083   8.694  37.743   6.450
 6916POPC   C2B47084   8.768  37.780   6.750
 6916POPC   C3B47085   8.739  37.788   7.050
 6916POPC   C4B47086   8.764  37.751   7.350
 6917POPC   NC347087  26.043  17.528   5.550
 6917POPC   PO447088  26.028  17.549   5.850
 6917POPC   GL147089  26.016  17.556   6.150
 6917POPC   GL247090  25.895  17.433   6.150
 6917POPC   C1A47091  26.009  17.479   6.450
 6917POPC   D2A47092  26.010  17.548   6.750
 6917POPC   C3A47093  25.999  17.516   7.050
 6917POPC   C4A47094  26.080  17.466   7.350
 6917POPC   C1B47095  25.812  17.480   6.450
 6917POPC   C2B47096  25.838  17.405   6.750
 6917POPC   C3B47097  25.817  17.389   7.050
 6917POPC   C4B47098  25.782  17.444   7.350
 6918POPC   NC347099  14.409  15.942   5.550
 6918POPC   PO447100  14.450  15.998   5.850
 6918POPC   GL147101  14.358  15.949   6.150
 6918POPC   GL247102  14.398  16.075   6.150
 6918POPC   C1A47103  14.441  15.932   6.450
 6918POPC   D2A47104  14.437  15.940   6.750
 6918POPC   C3A47105  14.414  15.948   7.050
 6918POPC   C4A47106  14.432  15.990   7.350
 6918POPC   C1B47107  14.431  16.169   6.450
 6918POPC   C2B47108  14.381  16.233   6.750
 6918POPC   C3B47109  14.363  16.223   7.050
 6918POPC   C4B47110  14.379  16.242   7.350
 6919POPC   NC347111  16.000  10.564   5.550
 6919POPC   PO447112  15.998  10.501   5.850
 6919POPC   GL147113  15.993  10.496   6.150
 6919POPC   GL247114  15.932  10.429   6.150
 6919POPC   C1A47115  15.927  10.483   6.450
 6919POPC   D2A47116  15.977  10.497   6.750
 6919POPC   C3A47117  15.976  10.513   7.050
 6919POPC   C4A47118  16.004  10.565   7.350
 6919POPC   C1B47119  15.901  10.287   6.450
 6919POPC   C2B47120  15.919  10.310   6.750
 6919POPC   C3B47121  15.830  10.258   7.050
 6919POPC   C4B47122  15.841  10.271   7.350
 6920POPC   NC347123  43.107  37.632   5.550
 6920POPC   PO447124  43.073  37.667   5.850
 6920POPC   GL147125  43.072  37.680   6.150
 6920POPC   GL247126  43.117  37.845   6.150
 6920POPC   C1A47127  43.119  37.718   6.450
 6920POPC   D2A47128  43.071  37.631   6.750
 6920POPC   C3A47129  43.095  37.669   7.050
 6920POPC   C4A47130  43.113  37.726   7.350
 6920POPC   C1B47131  43.047  37.911   6.450
 6920POPC   C2B47132  43.037  37.910   6.750
 6920POPC   C3B47133  43.054  37.915   7.050
 6920POPC   C4B47134  43.091  37.951   7.350
 6921POPC   NC347135  40.017  41.535   5.550
 6921POPC   PO447136  39.995  41.588   5.850
 6921POPC   GL147137  40.052  41.548   6.150
 6921POPC   GL247138  39.891  41.559   6.150
 6921POPC   C1A47139  40.005  41.577   6.450
 6921POPC   D2A47140  40.014  41.565   6.750
 6921POPC   C3A47141  40.055  41.573   7.050
 6921POPC   C4A47142  39.967  41.568   7.350
 6921POPC   C1B47143  39.740  41.584   6.450
 6921POPC   C2B47144  39.792  41.577   6.750
 6921POPC   C3B47145  39.711  41.549   7.050
 6921POPC   C4B47146  39.797  41.581   7.350
 6922POPC   NC347147  18.262   7.419   5.550
 6922POPC   PO447148  18.309   7.410   5.850
 6922POPC   GL147149  18.234   7.391   6.150
 6922POPC   GL247150  18.300   7.545   6.150
 6922POPC   C1A47151  18.274   7.428   6.450
 6922POPC   D2A47152  18.277   7.377   6.750
 6922POPC   C3A47153  18.285   7.466   7.050
 6922POPC   C4A47154  18.288   7.445   7.350
 6922POPC   C1B47155  18.398   7.676   6.450
 6922POPC   C2B47156  18.347   7.612   6.750
 6922POPC   C3B47157  18.386   7.600   7.050
 6922POPC   C4B47158  18.377   7.604   7.350
 6923POPC   NC347159   2.757  29.934   5.550
 6923POPC   PO447160   2.757  29.937   5.850
 6923POPC   GL147161   2.794  29.926   6.150
 6923POPC   GL247162   2.864  29.995   6.150
 6923POPC   C1A47163   2.771  29.887   6.450
 6923POPC   D2A47164   2.811  29.893   6.750
 6923POPC   C3A47165   2.745  29.896   7.050
 6923POPC   C4A47166   2.793  29.966   7.350
 6923POPC   C1B47167   2.958  30.060   6.450
 6923POPC   C2B47168   3.032  30.006   6.750
 6923POPC   C3B47169   3.016  30.001   7.050
 6923POPC   C4B47170   3.001  30.042   7.350
 6924POPC   NC347171  35.396  17.517   5.550
 6924POPC   PO447172  35.360  17.458   5.850
 6924POPC   GL147173  35.322  17.525   6.150
 6924POPC   GL247174  35.240  17.368   6.150
 6924POPC   C1A47175  35.393  17.543   6.450
 6924POPC   D2A47176  35.364  17.486   6.750
 6924POPC   C3A47177  35.362  17.466   7.050
 6924POPC   C4A47178  35.393  17.499   7.350
 6924POPC   C1B47179  35.173  17.331   6.450
 6924POPC   C2B47180  35.146  17.297   6.750
 6924POPC   C3B47181  35.163  17.307   7.050
 6924POPC   C4B47182  35.191  17.372   7.350
 6925POPC   NC347183  10.529  43.082   5.550
 6925POPC   PO447184  10.478  43.106   5.850
 6925POPC   GL147185  10.479  43.092   6.150
 6925POPC   GL247186  10.579  43.211   6.150
 6925POPC   C1A47187  10.564  43.065   6.450
 6925POPC   D2A47188  10.501  43.139   6.750
 6925POPC   C3A47189  10.567  43.061   7.050
 6925POPC   C4A47190  10.552  43.135   7.350
 6925POPC   C1B47191  10.690  43.271   6.450
 6925POPC   C2B47192  10.712  43.231   6.750
 6925POPC   C3B47193  10.719  43.249   7.050
 6925POPC   C4B47194  10.714  43.293   7.350
 6926POPC   NC347195  34.566  27.587   5.550
 6926POPC   PO447196  34.562  27.603   5.850
 6926POPC   GL147197  34.533  27.567   6.150
 6926POPC   GL247198  34.409  27.635   6.150
 6926POPC   C1A47199  34.552  27.620   6.450
 6926POPC   D2A47200  34.562  27.627   6.750
 6926POPC   C3A47201  34.587  27.610   7.050
 6926POPC   C4A47202  34.572  27.551   7.350
 6926POPC   C1B47203  34.334  27.620   6.450
 6926POPC   C2B47204  34.328  27.607   6.750
 6926POPC   C3B47205  34.303  27.617   7.050
 6926POPC   C4B47206  34.322  27.566   7.350
 6927POPC   NC347207   8.972  44.623   5.550
 6927POPC   PO447208   9.012  44.708   5.850
 6927POPC   GL147209   8.942  44.624   6.150
 6927POPC   GL247210   8.933  44.588   6.150
 6927POPC   C1A47211   9.002  44.647   6.450
 6927POPC   D2A47212   8.976  44.663   6.750
 6927POPC   C3A47213   8.928  44.660   7.050
 6927POPC   C4A47214   8.984  44.614   7.350
 6927POPC   C1B47215   8.840  44.442   6.450
 6927POPC   C2B47216   8.769  44.505   6.750
 6927POPC   C3B47217   8.815  44.465   7.050
 6927POPC   C4B47218   8.858  44.478   7.350
 6928POPC   NC347219   0.476  10.485   5.550
 6928POPC   PO447220   0.430  10.518   5.850
 6928POPC   GL147221   0.403  10.477   6.150
 6928POPC   GL247222   0.321  10.643   6.150
 6928POPC   C1A47223   0.442  10.494   6.450
 6928POPC   D2A47224   0.425  10.481   6.750
 6928POPC   C3A47225   0.474  10.566   7.050
 6928POPC   C4A47226   0.411  10.553   7.350
 6928POPC   C1B47227   0.249  10.751   6.450
 6928POPC   C2B47228   0.231  10.710   6.750
 6928POPC   C3B47229   0.243  10.728   7.050
 6928POPC   C4B47230   0.293  10.738   7.350
 6929POPC   NC347231  22.972  31.518   5.550
 6929POPC   PO447232  22.956  31.466   5.850
 6929POPC   GL147233  22.932  31.433   6.150
 6929POPC   GL247234  22.826  31.534   6.150
 6929POPC   C1A47235  22.921  31.459   6.450
 6929POPC   D2A47236  22.976  31.476   6.750
 6929POPC   C3A47237  22.899  31.423   7.050
 6929POPC   C4A47238  22.911  31.490   7.350
 6929POPC   C1B47239  22.659  31.584   6.450
 6929POPC   C2B47240  22.712  31.489   6.750
 6929POPC   C3B47241  22.689  31.571   7.050
 6929POPC   C4B47242  22.683  31.496   7.350
 6930POPC   NC347243  33.830  27.641   5.550
 6930POPC   PO447244  33.760  27.563   5.850
 6930POPC   GL147245  33.846  27.595   6.150
 6930POPC   GL247246  33.661  27.528   6.150
 6930POPC   C1A47247  33.751  27.624   6.450
 6930POPC   D2A47248  33.847  27.550   6.750
 6930POPC   C3A47249  33.848  27.573   7.050
 6930POPC   C4A47250  33.780  27.584   7.350
 6930POPC   C1B47251  33.555  27.551   6.450
 6930POPC   C2B47252  33.537  27.496   6.750
 6930POPC   C3B47253  33.508  27.569   7.050
 6930POPC   C4B47254  33.511  27.571   7.350
 6931POPC   NC347255  11.290  42.358   5.550
 6931POPC   PO447256  11.317  42.303   5.850
 6931POPC   GL147257  11.280  42.340   6.150
 6931POPC   GL247258  11.304  42.484   6.150
 6931POPC   C1A47259  11.276  42.344   6.450
 6931POPC   D2A47260  11.252  42.352   6.750
 6931POPC   C3A47261  11.341  42.357   7.050
 6931POPC   C4A47262  11.263  42.320   7.350
 6931POPC   C1B47263  11.245  42.565   6.450
 6931POPC   C2B47264  11.303  42.569   6.750
 6931POPC   C3B47265  11.254  42.560   7.050
 6931POPC   C4B47266  11.293  42.626   7.350
 6932POPC   NC347267  15.153   1.172   5.550
 6932POPC   PO447268  15.162   1.264   5.850
 6932POPC   GL147269  15.203   1.264   6.150
 6932POPC   GL247270  15.078   1.121   6.150
 6932POPC   C1A47271  15.182   1.225   6.450
 6932POPC   D2A47272  15.219   1.260   6.750
 6932POPC   C3A47273  15.227   1.180   7.050
 6932POPC   C4A47274  15.201   1.197   7.350
 6932POPC   C1B47275  14.930   1.128   6.450
 6932POPC   C2B47276  14.921   1.048   6.750
 6932POPC   C3B47277  15.013   1.045   7.050
 6932POPC   C4B47278  14.922   1.057   7.350
 6933POPC   NC347279   4.343  10.533   5.550
 6933POPC   PO447280   4.300  10.514   5.850
 6933POPC   GL147281   4.325  10.538   6.150
 6933POPC   GL247282   4.156  10.437   6.150
 6933POPC   C1A47283   4.342  10.524   6.450
 6933POPC   D2A47284   4.293  10.503   6.750
 6933POPC   C3A47285   4.296  10.551   7.050
 6933POPC   C4A47286   4.365  10.511   7.350
 6933POPC   C1B47287   4.129  10.406   6.450
 6933POPC   C2B47288   4.066  10.404   6.750
 6933POPC   C3B47289   4.060  10.415   7.050
 6933POPC   C4B47290   4.079  10.375   7.350
 6934POPC   NC347291   5.835  36.864   5.550
 6934POPC   PO447292   5.901  36.872   5.850
 6934POPC   GL147293   5.838  36.917   6.150
 6934POPC   GL247294   5.782  36.797   6.150
 6934POPC   C1A47295   5.910  36.948   6.450
 6934POPC   D2A47296   5.916  36.855   6.750
 6934POPC   C3A47297   5.914  36.910   7.050
 6934POPC   C4A47298   5.865  36.921   7.350
 6934POPC   C1B47299   5.717  36.638   6.450
 6934POPC   C2B47300   5.784  36.712   6.750
 6934POPC   C3B47301   5.721  36.671   7.050
 6934POPC   C4B47302   5.783  36.678   7.350
 6935POPC   NC347303   2.742  38.447   5.550
 6935POPC   PO447304   2.783  38.448   5.850
 6935POPC   GL147305   2.767  38.464   6.150
 6935POPC   GL247306   2.843  38.568   6.150
 6935POPC   C1A47307   2.719  38.412   6.450
 6935POPC   D2A47308   2.722  38.462   6.750
 6935POPC   C3A47309   2.788  38.460   7.050
 6935POPC   C4A47310   2.793  38.417   7.350
 6935POPC   C1B47311   2.840  38.679   6.450
 6935POPC   C2B47312   2.817  38.673   6.750
 6935POPC   C3B47313   2.890  38.712   7.050
 6935POPC   C4B47314   2.883  38.696   7.350
 6936POPC   NC347315  15.210  10.481   5.550
 6936POPC   PO447316  15.228  10.541   5.850
 6936POPC   GL147317  15.211  10.530   6.150
 6936POPC   GL247318  15.305  10.472   6.150
 6936POPC   C1A47319  15.218  10.564   6.450
 6936POPC   D2A47320  15.181  10.565   6.750
 6936POPC   C3A47321  15.208  10.514   7.050
 6936POPC   C4A47322  15.137  10.550   7.350
 6936POPC   C1B47323  15.357  10.385   6.450
 6936POPC   C2B47324  15.326  10.390   6.750
 6936POPC   C3B47325  15.384  10.337   7.050
 6936POPC   C4B47326  15.398  10.390   7.350
 6937POPC   NC347327  25.247  34.604   5.550
 6937POPC   PO447328  25.302  34.526   5.850
 6937POPC   GL147329  25.254  34.579   6.150
 6937POPC   GL247330  25.345  34.475   6.150
 6937POPC   C1A47331  25.222  34.579   6.450
 6937POPC   D2A47332  25.266  34.589   6.750
 6937POPC   C3A47333  25.277  34.563   7.050
 6937POPC   C4A47334  25.262  34.585   7.350
 6937POPC   C1B47335  25.427  34.386   6.450
 6937POPC   C2B47336  25.445  34.425   6.750
 6937POPC   C3B47337  25.434  34.365   7.050
 6937POPC   C4B47338  25.410  34.348   7.350
 6938POPC   NC347339   2.731  24.537   5.550
 6938POPC   PO447340   2.761  24.483   5.850
 6938POPC   GL147341   2.780  24.482   6.150
 6938POPC   GL247342   2.660  24.533   6.150
 6938POPC   C1A47343   2.773  24.509   6.450
 6938POPC   D2A47344   2.733  24.464   6.750
 6938POPC   C3A47345   2.739  24.454   7.050
 6938POPC   C4A47346   2.761  24.473   7.350
 6938POPC   C1B47347   2.539  24.602   6.450
 6938POPC   C2B47348   2.508  24.593   6.750
 6938POPC   C3B47349   2.598  24.617   7.050
 6938POPC   C4B47350   2.595  24.581   7.350
 6939POPC   NC347351  36.157  29.129   5.550
 6939POPC   PO447352  36.094  29.118   5.850
 6939POPC   GL147353  36.153  29.180   6.150
 6939POPC   GL247354  36.284  29.203   6.150
 6939POPC   C1A47355  36.119  29.149   6.450
 6939POPC   D2A47356  36.099  29.099   6.750
 6939POPC   C3A47357  36.130  29.171   7.050
 6939POPC   C4A47358  36.165  29.182   7.350
 6939POPC   C1B47359  36.381  29.294   6.450
 6939POPC   C2B47360  36.377  29.252   6.750
 6939POPC   C3B47361  36.314  29.253   7.050
 6939POPC   C4B47362  36.390  29.318   7.350
 6940POPC   NC347363  32.261  14.390   5.550
 6940POPC   PO447364  32.244  14.409   5.850
 6940POPC   GL147365  32.200  14.446   6.150
 6940POPC   GL247366  32.265  14.248   6.150
 6940POPC   C1A47367  32.204  14.402   6.450
 6940POPC   D2A47368  32.288  14.365   6.750
 6940POPC   C3A47369  32.230  14.365   7.050
 6940POPC   C4A47370  32.229  14.396   7.350
 6940POPC   C1B47371  32.349  14.141   6.450
 6940POPC   C2B47372  32.350  14.146   6.750
 6940POPC   C3B47373  32.307  14.128   7.050
 6940POPC   C4B47374  32.385  14.139   7.350
 6941POPC   NC347375   5.877  15.970   5.550
 6941POPC   PO447376   5.867  15.981   5.850
 6941POPC   GL147377   5.876  15.962   6.150
 6941POPC   GL247378   5.787  16.014   6.150
 6941POPC   C1A47379   5.839  15.957   6.450
 6941POPC   D2A47380   5.871  15.997   6.750
 6941POPC   C3A47381   5.843  15.970   7.050
 6941POPC   C4A47382   5.829  15.922   7.350
 6941POPC   C1B47383   5.697  16.075   6.450
 6941POPC   C2B47384   5.633  16.035   6.750
 6941POPC   C3B47385   5.688  16.075   7.050
 6941POPC   C4B47386   5.680  16.097   7.350
 6942POPC   NC347387  29.911  20.655   5.550
 6942POPC   PO447388  29.917  20.609   5.850
 6942POPC   GL147389  29.945  20.644   6.150
 6942POPC   GL247390  29.949  20.774   6.150
 6942POPC   C1A47391  29.902  20.651   6.450
 6942POPC   D2A47392  29.968  20.569   6.750
 6942POPC   C3A47393  29.934  20.571   7.050
 6942POPC   C4A47394  29.960  20.572   7.350
 6942POPC   C1B47395  29.952  20.868   6.450
 6942POPC   C2B47396  29.882  20.895   6.750
 6942POPC   C3B47397  29.949  20.819   7.050
 6942POPC   C4B47398  29.914  20.836   7.350
 6943POPC   NC347399   3.545  21.436   5.550
 6943POPC   PO447400   3.554  21.348   5.850
 6943POPC   GL147401   3.513  21.378   6.150
 6943POPC   GL247402   3.650  21.484   6.150
 6943POPC   C1A47403   3.565  21.429   6.450
 6943POPC   D2A47404   3.581  21.433   6.750
 6943POPC   C3A47405   3.589  21.398   7.050
 6943POPC   C4A47406   3.512  21.386   7.350
 6943POPC   C1B47407   3.781  21.550   6.450
 6943POPC   C2B47408   3.745  21.478   6.750
 6943POPC   C3B47409   3.715  21.511   7.050
 6943POPC   C4B47410   3.774  21.563   7.350
 6944POPC   NC347411  17.521   2.036   5.550
 6944POPC   PO447412  17.527   1.976   5.850
 6944POPC   GL147413  17.519   1.943   6.150
 6944POPC   GL247414  17.503   2.085   6.150
 6944POPC   C1A47415  17.508   2.014   6.450
 6944POPC   D2A47416  17.504   2.004   6.750
 6944POPC   C3A47417  17.487   2.035   7.050
 6944POPC   C4A47418  17.511   1.972   7.350
 6944POPC   C1B47419  17.495   2.250   6.450
 6944POPC   C2B47420  17.482   2.204   6.750
 6944POPC   C3B47421  17.488   2.284   7.050
 6944POPC   C4B47422  17.451   2.200   7.350
 6945POPC   NC347423  36.162  21.403   5.550
 6945POPC   PO447424  36.144  21.399   5.850
 6945POPC   GL147425  36.085  21.394   6.150
 6945POPC   GL247426  35.991  21.438   6.150
 6945POPC   C1A47427  36.142  21.383   6.450
 6945POPC   D2A47428  36.176  21.364   6.750
 6945POPC   C3A47429  36.157  21.430   7.050
 6945POPC   C4A47430  36.124  21.417   7.350
 6945POPC   C1B47431  35.914  21.498   6.450
 6945POPC   C2B47432  35.899  21.501   6.750
 6945POPC   C3B47433  35.929  21.491   7.050
 6945POPC   C4B47434  35.884  21.563   7.350
 6946POPC   NC347435  27.623  19.083   5.550
 6946POPC   PO447436  27.554  19.033   5.850
 6946POPC   GL147437  27.592  19.087   6.150
 6946POPC   GL247438  27.515  18.986   6.150
 6946POPC   C1A47439  27.549  19.057   6.450
 6946POPC   D2A47440  27.574  19.049   6.750
 6946POPC   C3A47441  27.612  19.029   7.050
 6946POPC   C4A47442  27.571  19.099   7.350
 6946POPC   C1B47443  27.370  18.970   6.450
 6946POPC   C2B47444  27.329  18.981   6.750
 6946POPC   C3B47445  27.423  18.936   7.050
 6946POPC   C4B47446  27.365  18.931   7.350
 6947POPC   NC347447  26.859  12.858   5.550
 6947POPC   PO447448  26.789  12.825   5.850
 6947POPC   GL147449  26.867  12.832   6.150
 6947POPC   GL247450  26.784  12.736   6.150
 6947POPC   C1A47451  26.787  12.882   6.450
 6947POPC   D2A47452  26.774  12.879   6.750
 6947POPC   C3A47453  26.854  12.898   7.050
 6947POPC   C4A47454  26.864  12.815   7.350
 6947POPC   C1B47455  26.781  12.633   6.450
 6947POPC   C2B47456  26.809  12.605   6.750
 6947POPC   C3B47457  26.829  12.621   7.050
 6947POPC   C4B47458  26.803  12.633   7.350
 6948POPC   NC347459  40.019  18.331   5.550
 6948POPC   PO447460  39.958  18.328   5.850
 6948POPC   GL147461  39.960  18.281   6.150
 6948POPC   GL247462  39.981  18.128   6.150
 6948POPC   C1A47463  40.028  18.264   6.450
 6948POPC   D2A47464  40.048  18.299   6.750
 6948POPC   C3A47465  40.003  18.237   7.050
 6948POPC   C4A47466  40.008  18.303   7.350
 6948POPC   C1B47467  39.923  18.051   6.450
 6948POPC   C2B47468  39.934  18.030   6.750
 6948POPC   C3B47469  39.990  18.003   7.050
 6948POPC   C4B47470  39.921  18.052   7.350
 6949POPC   NC347471  32.997  12.892   5.550
 6949POPC   PO447472  32.983  12.870   5.850
 6949POPC   GL147473  32.989  12.884   6.150
 6949POPC   GL247474  32.906  12.756   6.150
 6949POPC   C1A47475  33.065  12.839   6.450
 6949POPC   D2A47476  33.066  12.828   6.750
 6949POPC   C3A47477  33.018  12.811   7.050
 6949POPC   C4A47478  33.065  12.840   7.350
 6949POPC   C1B47479  32.792  12.692   6.450
 6949POPC   C2B47480  32.839  12.719   6.750
 6949POPC   C3B47481  32.842  12.696   7.050
 6949POPC   C4B47482  32.846  12.671   7.350
 6950POPC   NC347483  28.376  22.131   5.550
 6950POPC   PO447484  28.346  22.121   5.850
 6950POPC   GL147485  28.391  22.115   6.150
 6950POPC   GL247486  28.528  22.075   6.150
 6950POPC   C1A47487  28.347  22.145   6.450
 6950POPC   D2A47488  28.390  22.156   6.750
 6950POPC   C3A47489  28.378  22.197   7.050
 6950POPC   C4A47490  28.360  22.163   7.350
 6950POPC   C1B47491  28.615  22.022   6.450
 6950POPC   C2B47492  28.576  22.077   6.750
 6950POPC   C3B47493  28.571  22.058   7.050
 6950POPC   C4B47494  28.551  22.035   7.350
 6951POPC   NC347495  36.086  22.930   5.550
 6951POPC   PO447496  36.110  22.924   5.850
 6951POPC   GL147497  36.092  22.890   6.150
 6951POPC   GL247498  36.048  22.901   6.150
 6951POPC   C1A47499  36.119  22.950   6.450
 6951POPC   D2A47500  36.079  22.925   6.750
 6951POPC   C3A47501  36.119  22.972   7.050
 6951POPC   C4A47502  36.108  22.977   7.350
 6951POPC   C1B47503  35.907  22.813   6.450
 6951POPC   C2B47504  35.962  22.716   6.750
 6951POPC   C3B47505  35.899  22.738   7.050
 6951POPC   C4B47506  35.994  22.776   7.350
 6952POPC   NC347507  29.953  12.808   5.550
 6952POPC   PO447508  29.932  12.862   5.850
 6952POPC   GL147509  29.960  12.848   6.150
 6952POPC   GL247510  30.003  12.918   6.150
 6952POPC   C1A47511  29.929  12.881   6.450
 6952POPC   D2A47512  29.943  12.819   6.750
 6952POPC   C3A47513  29.896  12.881   7.050
 6952POPC   C4A47514  29.921  12.880   7.350
 6952POPC   C1B47515  30.113  13.016   6.450
 6952POPC   C2B47516  30.113  13.082   6.750
 6952POPC   C3B47517  30.072  13.025   7.050
 6952POPC   C4B47518  30.047  13.028   7.350
 6953POPC   NC347519  26.813  35.372   5.550
 6953POPC   PO447520  26.862  35.401   5.850
 6953POPC   GL147521  26.805  35.330   6.150
 6953POPC   GL247522  26.934  35.340   6.150
 6953POPC   C1A47523  26.803  35.340   6.450
 6953POPC   D2A47524  26.806  35.308   6.750
 6953POPC   C3A47525  26.856  35.380   7.050
 6953POPC   C4A47526  26.809  35.370   7.350
 6953POPC   C1B47527  27.094  35.375   6.450
 6953POPC   C2B47528  27.083  35.371   6.750
 6953POPC   C3B47529  27.062  35.378   7.050
 6953POPC   C4B47530  27.062  35.364   7.350
 6954POPC   NC347531  22.961  36.873   5.550
 6954POPC   PO447532  22.935  36.863   5.850
 6954POPC   GL147533  22.904  36.886   6.150
 6954POPC   GL247534  22.826  36.968   6.150
 6954POPC   C1A47535  22.982  36.875   6.450
 6954POPC   D2A47536  22.961  36.872   6.750
 6954POPC   C3A47537  22.946  36.879   7.050
 6954POPC   C4A47538  22.914  36.890   7.350
 6954POPC   C1B47539  22.795  37.130   6.450
 6954POPC   C2B47540  22.822  37.142   6.750
 6954POPC   C3B47541  22.742  37.075   7.050
 6954POPC   C4B47542  22.755  37.093   7.350
 6955POPC   NC347543  15.955   2.775   5.550
 6955POPC   PO447544  15.953   2.802   5.850
 6955POPC   GL147545  15.958   2.790   6.150
 6955POPC   GL247546  15.819   2.701   6.150
 6955POPC   C1A47547  15.924   2.792   6.450
 6955POPC   D2A47548  15.960   2.730   6.750
 6955POPC   C3A47549  15.920   2.755   7.050
 6955POPC   C4A47550  15.958   2.806   7.350
 6955POPC   C1B47551  15.682   2.636   6.450
 6955POPC   C2B47552  15.680   2.711   6.750
 6955POPC   C3B47553  15.729   2.636   7.050
 6955POPC   C4B47554  15.702   2.646   7.350
 6956POPC   NC347555  22.916  23.710   5.550
 6956POPC   PO447556  22.952  23.700   5.850
 6956POPC   GL147557  22.889  23.733   6.150
 6956POPC   GL247558  23.066  23.792   6.150
 6956POPC   C1A47559  22.923  23.664   6.450
 6956POPC   D2A47560  22.955  23.709   6.750
 6956POPC   C3A47561  22.922  23.696   7.050
 6956POPC   C4A47562  22.984  23.666   7.350
 6956POPC   C1B47563  23.103  23.939   6.450
 6956POPC   C2B47564  23.124  23.876   6.750
 6956POPC   C3B47565  23.091  23.945   7.050
 6956POPC   C4B47566  23.095  23.915   7.350
 6957POPC   NC347567   5.870  14.427   5.550
 6957POPC   PO447568   5.843  14.438   5.850
 6957POPC   GL147569   5.825  14.433   6.150
 6957POPC   GL247570   5.711  14.388   6.150
 6957POPC   C1A47571   5.868  14.358   6.450
 6957POPC   D2A47572   5.905  14.426   6.750
 6957POPC   C3A47573   5.864  14.375   7.050
 6957POPC   C4A47574   5.837  14.386   7.350
 6957POPC   C1B47575   5.619  14.369   6.450
 6957POPC   C2B47576   5.679  14.317   6.750
 6957POPC   C3B47577   5.667  14.354   7.050
 6957POPC   C4B47578   5.658  14.374   7.350
 6958POPC   NC347579  20.630  37.644   5.550
 6958POPC   PO447580  20.636  37.650   5.850
 6958POPC   GL147581  20.642  37.636   6.150
 6958POPC   GL247582  20.541  37.571   6.150
 6958POPC   C1A47583  20.632  37.659   6.450
 6958POPC   D2A47584  20.567  37.725   6.750
 6958POPC   C3A47585  20.593  37.723   7.050
 6958POPC   C4A47586  20.640  37.719   7.350
 6958POPC   C1B47587  20.455  37.477   6.450
 6958POPC   C2B47588  20.468  37.443   6.750
 6958POPC   C3B47589  20.449  37.479   7.050
 6958POPC   C4B47590  20.477  37.488   7.350
 6959POPC   NC347591  36.099  34.566   5.550
 6959POPC   PO447592  36.096  34.560   5.850
 6959POPC   GL147593  36.164  34.536   6.150
 6959POPC   GL247594  36.072  34.421   6.150
 6959POPC   C1A47595  36.150  34.619   6.450
 6959POPC   D2A47596  36.099  34.609   6.750
 6959POPC   C3A47597  36.173  34.601   7.050
 6959POPC   C4A47598  36.129  34.618   7.350
 6959POPC   C1B47599  36.087  34.367   6.450
 6959POPC   C2B47600  36.105  34.295   6.750
 6959POPC   C3B47601  36.064  34.367   7.050
 6959POPC   C4B47602  36.090  34.297   7.350
 6960POPC   NC347603  33.824  26.842   5.550
 6960POPC   PO447604  33.808  26.840   5.850
 6960POPC   GL147605  33.817  26.840   6.150
 6960POPC   GL247606  33.707  26.891   6.150
 6960POPC   C1A47607  33.814  26.771   6.450
 6960POPC   D2A47608  33.765  26.864   6.750
 6960POPC   C3A47609  33.802  26.770   7.050
 6960POPC   C4A47610  33.836  26.860   7.350
 6960POPC   C1B47611  33.522  26.907   6.450
 6960POPC   C2B47612  33.590  26.941   6.750
 6960POPC   C3B47613  33.616  26.903   7.050
 6960POPC   C4B47614  33.568  26.958   7.350
 6961POPC   NC347615  43.907  27.612   5.550
 6961POPC   PO447616  43.879  27.580   5.850
 6961POPC   GL147617  43.907  27.582   6.150
 6961POPC   GL247618  44.012  27.636   6.150
 6961POPC   C1A47619  43.922  27.642   6.450
 6961POPC   D2A47620  43.891  27.562   6.750
 6961POPC   C3A47621  43.857  27.637   7.050
 6961POPC   C4A47622  43.839  27.549   7.350
 6961POPC   C1B47623  44.131  27.692   6.450
 6961POPC   C2B47624  44.158  27.665   6.750
 6961POPC   C3B47625  44.116  27.659   7.050
 6961POPC   C4B47626  44.068  27.693   7.350
 6962POPC   NC347627  27.610  35.375   5.550
 6962POPC   PO447628  27.622  35.309   5.850
 6962POPC   GL147629  27.543  35.302   6.150
 6962POPC   GL247630  27.695  35.238   6.150
 6962POPC   C1A47631  27.547  35.393   6.450
 6962POPC   D2A47632  27.562  35.401   6.750
 6962POPC   C3A47633  27.573  35.358   7.050
 6962POPC   C4A47634  27.566  35.374   7.350
 6962POPC   C1B47635  27.766  35.240   6.450
 6962POPC   C2B47636  27.804  35.167   6.750
 6962POPC   C3B47637  27.792  35.230   7.050
 6962POPC   C4B47638  27.748  35.159   7.350
 6963POPC   NC347639  20.602  25.255   5.550
 6963POPC   PO447640  20.567  25.311   5.850
 6963POPC   GL147641  20.581  25.281   6.150
 6963POPC   GL247642  20.532  25.312   6.150
 6963POPC   C1A47643  20.659  25.315   6.450
 6963POPC   D2A47644  20.634  25.278   6.750
 6963POPC   C3A47645  20.625  25.303   7.050
 6963POPC   C4A47646  20.600  25.309   7.350
 6963POPC   C1B47647  20.364  25.318   6.450
 6963POPC   C2B47648  20.417  25.370   6.750
 6963POPC   C3B47649  20.341  25.382   7.050
 6963POPC   C4B47650  20.322  25.387   7.350
 6964POPC   NC347651  29.107  15.170   5.550
 6964POPC   PO447652  29.147  15.206   5.850
 6964POPC   GL147653  29.151  15.220   6.150
 6964POPC   GL247654  29.076  15.086   6.150
 6964POPC   C1A47655  29.193  15.151   6.450
 6964POPC   D2A47656  29.184  15.144   6.750
 6964POPC   C3A47657  29.168  15.172   7.050
 6964POPC   C4A47658  29.120  15.187   7.350
 6964POPC   C1B47659  29.127  14.927   6.450
 6964POPC   C2B47660  29.051  14.982   6.750
 6964POPC   C3B47661  29.104  14.931   7.050
 6964POPC   C4B47662  29.039  14.988   7.350
 6965POPC   NC347663   8.179  15.947   5.550
 6965POPC   PO447664   8.153  15.925   5.850
 6965POPC   GL147665   8.231  15.968   6.150
 6965POPC   GL247666   8.166  16.043   6.150
 6965POPC   C1A47667   8.223  15.917   6.450
 6965POPC   D2A47668   8.188  15.970   6.750
 6965POPC   C3A47669   8.185  15.949   7.050
 6965POPC   C4A47670   8.207  15.905   7.350
 6965POPC   C1B47671   8.146  16.202   6.450
 6965POPC   C2B47672   8.222  16.244   6.750
 6965POPC   C3B47673   8.181  16.155   7.050
 6965POPC   C4B47674   8.154  16.169   7.350
 6966POPC   NC347675  42.373  41.578   5.550
 6966POPC   PO447676  42.376  41.538   5.850
 6966POPC   GL147677  42.348  41.532   6.150
 6966POPC   GL247678  42.306  41.663   6.150
 6966POPC   C1A47679  42.352  41.511   6.450
 6966POPC   D2A47680  42.346  41.607   6.750
 6966POPC   C3A47681  42.302  41.519   7.050
 6966POPC   C4A47682  42.288  41.555   7.350
 6966POPC   C1B47683  42.402  41.818   6.450
 6966POPC   C2B47684  42.393  41.827   6.750
 6966POPC   C3B47685  42.363  41.761   7.050
 6966POPC   C4B47686  42.360  41.765   7.350
 6967POPC   NC347687  28.342  33.792   5.550
 6967POPC   PO447688  28.389  33.776   5.850
 6967POPC   GL147689  28.372  33.759   6.150
 6967POPC   GL247690  28.352  33.919   6.150
 6967POPC   C1A47691  28.361  33.787   6.450
 6967POPC   D2A47692  28.404  33.826   6.750
 6967POPC   C3A47693  28.351  33.790   7.050
 6967POPC   C4A47694  28.327  33.754   7.350
 6967POPC   C1B47695  28.342  34.046   6.450
 6967POPC   C2B47696  28.302  34.036   6.750
 6967POPC   C3B47697  28.333  34.050   7.050
 6967POPC   C4B47698  28.342  33.997   7.350
 6968POPC   NC347699  15.165  19.060   5.550
 6968POPC   PO447700  15.158  19.082   5.850
 6968POPC   GL147701  15.213  19.045   6.150
 6968POPC   GL247702  15.077  19.088   6.150
 6968POPC   C1A47703  15.134  19.031   6.450
 6968POPC   D2A47704  15.208  19.054   6.750
 6968POPC   C3A47705  15.163  19.021   7.050
 6968POPC   C4A47706  15.215  19.053   7.350
 6968POPC   C1B47707  14.922  19.143   6.450
 6968POPC   C2B47708  14.982  19.211   6.750
 6968POPC   C3B47709  14.974  19.119   7.050
 6968POPC   C4B47710  14.937  19.165   7.350
 6969POPC   NC347711  39.234  35.352   5.550
 6969POPC   PO447712  39.255  35.332   5.850
 6969POPC   GL147713  39.182  35.356   6.150
 6969POPC   GL247714  39.201  35.273   6.150
 6969POPC   C1A47715  39.255  35.314   6.450
 6969POPC   D2A47716  39.257  35.315   6.750
 6969POPC   C3A47717  39.190  35.372   7.050
 6969POPC   C4A47718  39.240  35.364   7.350
 6969POPC   C1B47719  39.135  35.168   6.450
 6969POPC   C2B47720  39.117  35.102   6.750
 6969POPC   C3B47721  39.136  35.111   7.050
 6969POPC   C4B47722  39.119  35.123   7.350
 6970POPC   NC347723  22.193  15.931   5.550
 6970POPC   PO447724  22.170  15.911   5.850
 6970POPC   GL147725  22.125  15.912   6.150
 6970POPC   GL247726  22.259  16.080   6.150
 6970POPC   C1A47727  22.182  15.931   6.450
 6970POPC   D2A47728  22.208  15.955   6.750
 6970POPC   C3A47729  22.170  15.967   7.050
 6970POPC   C4A47730  22.132  15.935   7.350
 6970POPC   C1B47731  22.227  16.153   6.450
 6970POPC   C2B47732  22.226  16.151   6.750
 6970POPC   C3B47733  22.245  16.182   7.050
 6970POPC   C4B47734  22.236  16.188   7.350
 6971POPC   NC347735  39.276  38.449   5.550
 6971POPC   PO447736  39.257  38.485   5.850
 6971POPC   GL147737  39.198  38.494   6.150
 6971POPC   GL247738  39.109  38.490   6.150
 6971POPC   C1A47739  39.208  38.495   6.450
 6971POPC   D2A47740  39.209  38.459   6.750
 6971POPC   C3A47741  39.221  38.470   7.050
 6971POPC   C4A47742  39.242  38.410   7.350
 6971POPC   C1B47743  39.005  38.537   6.450
 6971POPC   C2B47744  39.023  38.481   6.750
 6971POPC   C3B47745  39.000  38.559   7.050
 6971POPC   C4B47746  38.962  38.477   7.350
 6972POPC   NC347747  12.895  15.130   5.550
 6972POPC   PO447748  12.831  15.191   5.850
 6972POPC   GL147749  12.803  15.178   6.150
 6972POPC   GL247750  12.705  15.150   6.150
 6972POPC   C1A47751  12.805  15.134   6.450
 6972POPC   D2A47752  12.830  15.141   6.750
 6972POPC   C3A47753  12.888  15.136   7.050
 6972POPC   C4A47754  12.889  15.148   7.350
 6972POPC   C1B47755  12.672  15.045   6.450
 6972POPC   C2B47756  12.680  15.001   6.750
 6972POPC   C3B47757  12.669  15.083   7.050
 6972POPC   C4B47758  12.619  15.005   7.350
 6973POPC   NC347759  12.051  33.070   5.550
 6973POPC   PO447760  12.036  32.985   5.850
 6973POPC   GL147761  12.034  33.066   6.150
 6973POPC   GL247762  12.171  32.932   6.150
 6973POPC   C1A47763  12.122  32.994   6.450
 6973POPC   D2A47764  12.103  33.017   6.750
 6973POPC   C3A47765  12.030  32.981   7.050
 6973POPC   C4A47766  12.122  33.073   7.350
 6973POPC   C1B47767  12.296  32.858   6.450
 6973POPC   C2B47768  12.249  32.897   6.750
 6973POPC   C3B47769  12.316  32.830   7.050
 6973POPC   C4B47770  12.288  32.854   7.350
 6974POPC   NC347771   8.951  42.355   5.550
 6974POPC   PO447772   8.934  42.372   5.850
 6974POPC   GL147773   8.936  42.320   6.150
 6974POPC   GL247774   8.995  42.229   6.150
 6974POPC   C1A47775   8.933  42.308   6.450
 6974POPC   D2A47776   8.948  42.343   6.750
 6974POPC   C3A47777   8.986  42.344   7.050
 6974POPC   C4A47778   8.990  42.369   7.350
 6974POPC   C1B47779   9.161  42.088   6.450
 6974POPC   C2B47780   9.158  42.124   6.750
 6974POPC   C3B47781   9.132  42.161   7.050
 6974POPC   C4B47782   9.132  42.097   7.350
 6975POPC   NC347783  36.112  23.681   5.550
 6975POPC   PO447784  36.170  23.709   5.850
 6975POPC   GL147785  36.150  23.688   6.150
 6975POPC   GL247786  36.224  23.670   6.150
 6975POPC   C1A47787  36.106  23.739   6.450
 6975POPC   D2A47788  36.148  23.677   6.750
 6975POPC   C3A47789  36.163  23.743   7.050
 6975POPC   C4A47790  36.132  23.694   7.350
 6975POPC   C1B47791  36.333  23.617   6.450
 6975POPC   C2B47792  36.394  23.624   6.750
 6975POPC   C3B47793  36.362  23.674   7.050
 6975POPC   C4B47794  36.369  23.606   7.350
 6976POPC   NC347795  41.509  10.567   5.550
 6976POPC   PO447796  41.578  10.545   5.850
 6976POPC   GL147797  41.597  10.487   6.150
 6976POPC   GL247798  41.710  10.546   6.150
 6976POPC   C1A47799  41.592  10.517   6.450
 6976POPC   D2A47800  41.557  10.547   6.750
 6976POPC   C3A47801  41.539  10.558   7.050
 6976POPC   C4A47802  41.539  10.483   7.350
 6976POPC   C1B47803  41.758  10.629   6.450
 6976POPC   C2B47804  41.811  10.630   6.750
 6976POPC   C3B47805  41.810  10.626   7.050
 6976POPC   C4B47806  41.825  10.605   7.350
 6977POPC   NC347807   7.417  28.395   5.550
 6977POPC   PO447808   7.436  28.383   5.850
 6977POPC   GL147809   7.398  28.389   6.150
 6977POPC   GL247810   7.261  28.420   6.150
 6977POPC   C1A47811   7.434  28.396   6.450
 6977POPC   D2A47812   7.410  28.413   6.750
 6977POPC   C3A47813   7.372  28.353   7.050
 6977POPC   C4A47814   7.448  28.335   7.350
 6977POPC   C1B47815   7.185  28.527   6.450
 6977POPC   C2B47816   7.188  28.455   6.750
 6977POPC   C3B47817   7.153  28.489   7.050
 6977POPC   C4B47818   7.188  28.471   7.350
 6978POPC   NC347819  29.154  32.240   5.550
 6978POPC   PO447820  29.156  32.256   5.850
 6978POPC   GL147821  29.169  32.266   6.150
 6978POPC   GL247822  29.233  32.192   6.150
 6978POPC   C1A47823  29.113  32.248   6.450
 6978POPC   D2A47824  29.153  32.282   6.750
 6978POPC   C3A47825  29.140  32.226   7.050
 6978POPC   C4A47826  29.140  32.274   7.350
 6978POPC   C1B47827  29.317  32.026   6.450
 6978POPC   C2B47828  29.276  32.005   6.750
 6978POPC   C3B47829  29.315  32.047   7.050
 6978POPC   C4B47830  29.312  32.037   7.350
 6979POPC   NC347831  25.999   9.729   5.550
 6979POPC   PO447832  26.080   9.761   5.850
 6979POPC   GL147833  26.042   9.736   6.150
 6979POPC   GL247834  26.135   9.649   6.150
 6979POPC   C1A47835  26.002   9.758   6.450
 6979POPC   D2A47836  26.042   9.756   6.750
 6979POPC   C3A47837  26.044   9.748   7.050
 6979POPC   C4A47838  26.089   9.780   7.350
 6979POPC   C1B47839  26.104   9.533   6.450
 6979POPC   C2B47840  26.134   9.555   6.750
 6979POPC   C3B47841  26.103   9.516   7.050
 6979POPC   C4B47842  26.092   9.541   7.350
 6980POPC   NC347843  39.197  12.872   5.550
 6980POPC   PO447844  39.260  12.839   5.850
 6980POPC   GL147845  39.264  12.901   6.150
 6980POPC   GL247846  39.305  12.765   6.150
 6980POPC   C1A47847  39.227  12.842   6.450
 6980POPC   D2A47848  39.278  12.815   6.750
 6980POPC   C3A47849  39.214  12.832   7.050
 6980POPC   C4A47850  39.267  12.883   7.350
 6980POPC   C1B47851  39.442  12.750   6.450
 6980POPC   C2B47852  39.439  12.815   6.750
 6980POPC   C3B47853  39.421  12.825   7.050
 6980POPC   C4B47854  39.500  12.785   7.350
 6981POPC   NC347855  27.633  30.734   5.550
 6981POPC   PO447856  27.623  30.653   5.850
 6981POPC   GL147857  27.600  30.667   6.150
 6981POPC   GL247858  27.681  30.641   6.150
 6981POPC   C1A47859  27.554  30.699   6.450
 6981POPC   D2A47860  27.619  30.683   6.750
 6981POPC   C3A47861  27.625  30.742   7.050
 6981POPC   C4A47862  27.598  30.661   7.350
 6981POPC   C1B47863  27.801  30.687   6.450
 6981POPC   C2B47864  27.843  30.708   6.750
 6981POPC   C3B47865  27.875  30.668   7.050
 6981POPC   C4B47866  27.874  30.695   7.350
 6982POPC   NC347867  11.333  36.167   5.550
 6982POPC   PO447868  11.320  36.115   5.850
 6982POPC   GL147869  11.294  36.171   6.150
 6982POPC   GL247870  11.247  36.038   6.150
 6982POPC   C1A47871  11.330  36.118   6.450
 6982POPC   D2A47872  11.291  36.089   6.750
 6982POPC   C3A47873  11.338  36.175   7.050
 6982POPC   C4A47874  11.295  36.092   7.350
 6982POPC   C1B47875  11.200  35.924   6.450
 6982POPC   C2B47876  11.131  35.879   6.750
 6982POPC   C3B47877  11.149  35.916   7.050
 6982POPC   C4B47878  11.193  35.915   7.350
 6983POPC   NC347879  11.297   9.745   5.550
 6983POPC   PO447880  11.278   9.775   5.850
 6983POPC   GL147881  11.312   9.712   6.150
 6983POPC   GL247882  11.144   9.803   6.150
 6983POPC   C1A47883  11.268   9.712   6.450
 6983POPC   D2A47884  11.258   9.726   6.750
 6983POPC   C3A47885  11.313   9.793   7.050
 6983POPC   C4A47886  11.311   9.740   7.350
 6983POPC   C1B47887  11.047   9.858   6.450
 6983POPC   C2B47888  11.012   9.811   6.750
 6983POPC   C3B47889  11.027   9.828   7.050
 6983POPC   C4B47890  11.077   9.813   7.350
 6984POPC   NC347891  26.828   5.048   5.550
 6984POPC   PO447892  26.854   5.113   5.850
 6984POPC   GL147893  26.810   5.063   6.150
 6984POPC   GL247894  26.794   5.015   6.150
 6984POPC   C1A47895  26.803   5.129   6.450
 6984POPC   D2A47896  26.805   5.076   6.750
 6984POPC   C3A47897  26.782   5.065   7.050
 6984POPC   C4A47898  26.792   5.127   7.350
 6984POPC   C1B47899  26.671   4.887   6.450
 6984POPC   C2B47900  26.717   4.885   6.750
 6984POPC   C3B47901  26.681   4.830   7.050
 6984POPC   C4B47902  26.704   4.881   7.350
 6985POPC   NC347903  14.369   7.390   5.550
 6985POPC   PO447904  14.376   7.385   5.850
 6985POPC   GL147905  14.391   7.386   6.150
 6985POPC   GL247906  14.380   7.570   6.150
 6985POPC   C1A47907  14.435   7.382   6.450
 6985POPC   D2A47908  14.366   7.456   6.750
 6985POPC   C3A47909  14.364   7.402   7.050
 6985POPC   C4A47910  14.437   7.458   7.350
 6985POPC   C1B47911  14.391   7.689   6.450
 6985POPC   C2B47912  14.380   7.680   6.750
 6985POPC   C3B47913  14.361   7.687   7.050
 6985POPC   C4B47914  14.372   7.680   7.350
 6986POPC   NC347915  32.283  44.615   5.550
 6986POPC   PO447916  32.231  44.648   5.850
 6986POPC   GL147917  32.232  44.710   6.150
 6986POPC   GL247918  32.158  44.748   6.150
 6986POPC   C1A47919  32.265  44.697   6.450
 6986POPC   D2A47920  32.230  44.667   6.750
 6986POPC   C3A47921  32.284  44.698   7.050
 6986POPC   C4A47922  32.280  44.633   7.350
 6986POPC   C1B47923  32.030  44.779   6.450
 6986POPC   C2B47924  31.993  44.752   6.750
 6986POPC   C3B47925  31.997  44.695   7.050
 6986POPC   C4B47926  31.996  44.710   7.350
 6987POPC   NC347927   2.755  14.402   5.550
 6987POPC   PO447928   2.806  14.395   5.850
 6987POPC   GL147929   2.757  14.414   6.150
 6987POPC   GL247930   2.904  14.369   6.150
 6987POPC   C1A47931   2.787  14.400   6.450
 6987POPC   D2A47932   2.794  14.432   6.750
 6987POPC   C3A47933   2.736  14.399   7.050
 6987POPC   C4A47934   2.727  14.445   7.350
 6987POPC   C1B47935   2.998  14.374   6.450
 6987POPC   C2B47936   3.033  14.359   6.750
 6987POPC   C3B47937   2.969  14.371   7.050
 6987POPC   C4B47938   2.965  14.339   7.350
 6988POPC   NC347939  44.638  39.188   5.550
 6988POPC   PO447940  44.686  39.230   5.850
 6988POPC   GL147941  44.678  39.269   6.150
 6988POPC   GL247942  44.587  39.214   6.150
 6988POPC   C1A47943  44.702  39.246   6.450
 6988POPC   D2A47944  44.628  39.188   6.750
 6988POPC   C3A47945  44.628  39.217   7.050
 6988POPC   C4A47946  44.681  39.224   7.350
 6988POPC   C1B47947  44.445  39.151   6.450
 6988POPC   C2B47948  44.394  39.153   6.750
 6988POPC   C3B47949  44.396  39.096   7.050
 6988POPC   C4B47950  44.392  39.135   7.350
 6989POPC   NC347951  11.253  12.066   5.550
 6989POPC   PO447952  11.302  12.117   5.850
 6989POPC   GL147953  11.260  12.070   6.150
 6989POPC   GL247954  11.156  12.077   6.150
 6989POPC   C1A47955  11.272  12.041   6.450
 6989POPC   D2A47956  11.258  12.071   6.750
 6989POPC   C3A47957  11.273  12.121   7.050
 6989POPC   C4A47958  11.258  12.049   7.350
 6989POPC   C1B47959  11.034  12.127   6.450
 6989POPC   C2B47960  11.043  12.173   6.750
 6989POPC   C3B47961  11.025  12.112   7.050
 6989POPC   C4B47962  11.059  12.176   7.350
 6990POPC   NC347963   0.426  42.377   5.550
 6990POPC   PO447964   0.455  42.360   5.850
 6990POPC   GL147965   0.418  42.376   6.150
 6990POPC   GL247966   0.541  42.412   6.150
 6990POPC   C1A47967   0.426  42.318   6.450
 6990POPC   D2A47968   0.469  42.309   6.750
 6990POPC   C3A47969   0.406  42.308   7.050
 6990POPC   C4A47970   0.439  42.319   7.350
 6990POPC   C1B47971   0.565  42.522   6.450
 6990POPC   C2B47972   0.599  42.534   6.750
 6990POPC   C3B47973   0.580  42.572   7.050
 6990POPC   C4B47974   0.613  42.479   7.350
 6991POPC   NC347975  41.546  19.050   5.550
 6991POPC   PO447976  41.525  19.031   5.850
 6991POPC   GL147977  41.520  19.029   6.150
 6991POPC   GL247978  41.598  18.914   6.150
 6991POPC   C1A47979  41.533  19.063   6.450
 6991POPC   D2A47980  41.540  19.033   6.750
 6991POPC   C3A47981  41.512  19.067   7.050
 6991POPC   C4A47982  41.579  19.071   7.350
 6991POPC   C1B47983  41.654  18.815   6.450
 6991POPC   C2B47984  41.683  18.873   6.750
 6991POPC   C3B47985  41.687  18.857   7.050
 6991POPC   C4B47986  41.685  18.793   7.350
 6992POPC   NC347987  32.290   1.237   5.550
 6992POPC   PO447988  32.274   1.211   5.850
 6992POPC   GL147989  32.290   1.263   6.150
 6992POPC   GL247990  32.301   1.372   6.150
 6992POPC   C1A47991  32.222   1.249   6.450
 6992POPC   D2A47992  32.220   1.184   6.750
 6992POPC   C3A47993  32.234   1.184   7.050
 6992POPC   C4A47994  32.210   1.193   7.350
 6992POPC   C1B47995  32.384   1.401   6.450
 6992POPC   C2B47996  32.325   1.397   6.750
 6992POPC   C3B47997  32.372   1.397   7.050
 6992POPC   C4B47998  32.332   1.415   7.350
 6993POPC   NC347999  40.022  17.468   5.550
 6993POPC   PO448000  39.984  17.479   5.850
 6993POPC   GL148001  40.033  17.526   6.150
 6993POPC   GL248002  39.992  17.398   6.150
 6993POPC   C1A48003  40.043  17.529   6.450
 6993POPC   D2A48004  39.969  17.485   6.750
 6993POPC   C3A48005  40.004  17.493   7.050
 6993POPC   C4A48006  40.011  17.540   7.350
 6993POPC   C1B48007  39.997  17.233   6.450
 6993POPC   C2B48008  40.044  17.281   6.750
 6993POPC   C3B48009  40.062  17.242   7.050
 6993POPC   C4B48010  40.038  17.250   7.350
 6994POPC   NC348011  14.355  30.666   5.550
 6994POPC   PO448012  14.414  30.726   5.850
 6994POPC   GL148013  14.393  30.650   6.150
 6994POPC   GL248014  14.389  30.625   6.150
 6994POPC   C1A48015  14.423  30.662   6.450
 6994POPC   D2A48016  14.427  30.720   6.750
 6994POPC   C3A48017  14.404  30.731   7.050
 6994POPC   C4A48018  14.357  30.680   7.350
 6994POPC   C1B48019  14.279  30.414   6.450
 6994POPC   C2B48020  14.320  30.480   6.750
 6994POPC   C3B48021  14.342  30.454   7.050
 6994POPC   C4B48022  14.310  30.485   7.350
 6995POPC   NC348023  24.519  29.939   5.550
 6995POPC   PO448024  24.488  29.889   5.850
 6995POPC   GL148025  24.521  29.884   6.150
 6995POPC   GL248026  24.592  29.969   6.150
 6995POPC   C1A48027  24.539  29.889   6.450
 6995POPC   D2A48028  24.506  29.922   6.750
 6995POPC   C3A48029  24.528  29.874   7.050
 6995POPC   C4A48030  24.483  29.934   7.350
 6995POPC   C1B48031  24.757  30.019   6.450
 6995POPC   C2B48032  24.745  30.012   6.750
 6995POPC   C3B48033  24.715  30.016   7.050
 6995POPC   C4B48034  24.685  30.076   7.350
 6996POPC   NC348035   1.959  34.622   5.550
 6996POPC   PO448036   1.948  34.562   5.850
 6996POPC   GL148037   2.022  34.565   6.150
 6996POPC   GL248038   1.883  34.693   6.150
 6996POPC   C1A48039   1.953  34.599   6.450
 6996POPC   D2A48040   1.960  34.536   6.750
 6996POPC   C3A48041   1.967  34.568   7.050
 6996POPC   C4A48042   1.967  34.612   7.350
 6996POPC   C1B48043   1.842  34.725   6.450
 6996POPC   C2B48044   1.851  34.753   6.750
 6996POPC   C3B48045   1.865  34.813   7.050
 6996POPC   C4B48046   1.879  34.742   7.350
 6997POPC   NC348047  10.538  41.584   5.550
 6997POPC   PO448048  10.523  41.599   5.850
 6997POPC   GL148049  10.574  41.555   6.150
 6997POPC   GL248050  10.626  41.595   6.150
 6997POPC   C1A48051  10.500  41.548   6.450
 6997POPC   D2A48052  10.520  41.520   6.750
 6997POPC   C3A48053  10.493  41.532   7.050
 6997POPC   C4A48054  10.549  41.526   7.350
 6997POPC   C1B48055  10.732  41.680   6.450
 6997POPC   C2B48056  10.789  41.654   6.750
 6997POPC   C3B48057  10.793  41.674   7.050
 6997POPC   C4B48058  10.717  41.622   7.350
 6998POPC   NC348059  33.046  26.036   5.550
 6998POPC   PO448060  33.059  26.029   5.850
 6998POPC   GL148061  33.064  26.083   6.150
 6998POPC   GL248062  33.004  25.976   6.150
 6998POPC   C1A48063  33.049  26.027   6.450
 6998POPC   D2A48064  32.982  26.076   6.750
 6998POPC   C3A48065  33.013  26.034   7.050
 6998POPC   C4A48066  32.980  26.084   7.350
 6998POPC   C1B48067  32.858  25.817   6.450
 6998POPC   C2B48068  32.935  25.834   6.750
 6998POPC   C3B48069  32.890  25.871   7.050
 6998POPC   C4B48070  32.920  25.799   7.350
 6999POPC   NC348071  20.576  36.871   5.550
 6999POPC   PO448072  20.655  36.928   5.850
 6999POPC   GL148073  20.622  36.887   6.150
 6999POPC   GL248074  20.759  36.918   6.150
 6999POPC   C1A48075  20.624  36.903   6.450
 6999POPC   D2A48076  20.635  36.865   6.750
 6999POPC   C3A48077  20.604  36.917   7.050
 6999POPC   C4A48078  20.617  36.869   7.350
 6999POPC   C1B48079  20.856  36.983   6.450
 6999POPC   C2B48080  20.812  36.971   6.750
 6999POPC   C3B48081  20.828  36.938   7.050
 6999POPC   C4B48082  20.819  37.004   7.350
 7000POPC   NC348083  43.843  37.700   5.550
 7000POPC   PO448084  43.916  37.657   5.850
 7000POPC   GL148085  43.917  37.706   6.150
 7000POPC   GL248086  43.878  37.764   6.150
 7000POPC   C1A48087  43.889  37.662   6.450
 7000POPC   D2A48088  43.861  37.654   6.750
 7000POPC   C3A48089  43.849  37.648   7.050
 7000POPC   C4A48090  43.914  37.700   7.350
 7000POPC   C1B48091  44.003  37.955   6.450
 7000POPC   C2B48092  43.924  37.947   6.750
 7000POPC   C3B48093  43.978  37.912   7.050
 7000POPC   C4B48094  43.998  37.963   7.350
 7001POPC   NC348095  24.468   1.249   5.550
 7001POPC   PO448096  24.505   1.234   5.850
 7001POPC   GL148097  24.466   1.216   6.150
 7001POPC   GL248098  24.657   1.227   6.150
 7001POPC   C1A48099  24.466   1.260   6.450
 7001POPC   D2A48100  24.449   1.169   6.750
 7001POPC   C3A48101  24.464   1.203   7.050
 7001POPC   C4A48102  24.502   1.212   7.350
 7001POPC   C1B48103  24.732   1.242   6.450
 7001POPC   C2B48104  24.715   1.296   6.750
 7001POPC   C3B48105  24.746   1.258   7.050
 7001POPC   C4B48106  24.721   1.244   7.350
 7002POPC   NC348107  19.022   6.663   5.550
 7002POPC   PO448108  19.024   6.633   5.850
 7002POPC   GL148109  19.023   6.693   6.150
 7002POPC   GL248110  18.992   6.601   6.150
 7002POPC   C1A48111  19.011   6.661   6.450
 7002POPC   D2A48112  19.048   6.638   6.750
 7002POPC   C3A48113  19.054   6.603   7.050
 7002POPC   C4A48114  19.088   6.635   7.350
 7002POPC   C1B48115  18.821   6.492   6.450
 7002POPC   C2B48116  18.847   6.489   6.750
 7002POPC   C3B48117  18.849   6.579   7.050
 7002POPC   C4B48118  18.807   6.512   7.350
 7003POPC   NC348119   6.685  33.073   5.550
 7003POPC   PO448120   6.612  33.005   5.850
 7003POPC   GL148121   6.648  33.049   6.150
 7003POPC   GL248122   6.607  33.149   6.150
 7003POPC   C1A48123   6.635  33.069   6.450
 7003POPC   D2A48124   6.617  33.000   6.750
 7003POPC   C3A48125   6.687  33.036   7.050
 7003POPC   C4A48126   6.600  33.065   7.350
 7003POPC   C1B48127   6.503  33.193   6.450
 7003POPC   C2B48128   6.496  33.176   6.750
 7003POPC   C3B48129   6.474  33.208   7.050
 7003POPC   C4B48130   6.467  33.220   7.350
 7004POPC   NC348131  43.928  44.621   5.550
 7004POPC   PO448132  43.858  44.637   5.850
 7004POPC   GL148133  43.870  44.645   6.150
 7004POPC   GL248134  43.968  44.788   6.150
 7004POPC   C1A48135  43.908  44.630   6.450
 7004POPC   D2A48136  43.880  44.700   6.750
 7004POPC   C3A48137  43.911  44.616   7.050
 7004POPC   C4A48138  43.882  44.617   7.350
 7004POPC   C1B48139  44.001  44.855   6.450
 7004POPC   C2B48140  43.964  44.916   6.750
 7004POPC   C3B48141  44.016  44.861   7.050
 7004POPC   C4B48142  43.951  44.866   7.350
 7005POPC   NC348143  10.551   1.223   5.550
 7005POPC   PO448144  10.520   1.223   5.850
 7005POPC   GL148145  10.524   1.222   6.150
 7005POPC   GL248146  10.689   1.218   6.150
 7005POPC   C1A48147  10.508   1.165   6.450
 7005POPC   D2A48148  10.501   1.186   6.750
 7005POPC   C3A48149  10.500   1.239   7.050
 7005POPC   C4A48150  10.516   1.255   7.350
 7005POPC   C1B48151  10.726   1.261   6.450
 7005POPC   C2B48152  10.737   1.264   6.750
 7005POPC   C3B48153  10.737   1.191   7.050
 7005POPC   C4B48154  10.801   1.229   7.350
 7006POPC   NC348155  41.581   2.806   5.550
 7006POPC   PO448156  41.598   2.745   5.850
 7006POPC   GL148157  41.543   2.744   6.150
 7006POPC   GL248158  41.409   2.786   6.150
 7006POPC   C1A48159  41.545   2.777   6.450
 7006POPC   D2A48160  41.607   2.777   6.750
 7006POPC   C3A48161  41.561   2.800   7.050
 7006POPC   C4A48162  41.602   2.723   7.350
 7006POPC   C1B48163  41.350   2.812   6.450
 7006POPC   C2B48164  41.334   2.787   6.750
 7006POPC   C3B48165  41.274   2.786   7.050
 7006POPC   C4B48166  41.357   2.788   7.350
 7007POPC   NC348167   5.917   0.411   5.550
 7007POPC   PO448168   5.872   0.474   5.850
 7007POPC   GL148169   5.837   0.391   6.150
 7007POPC   GL248170   5.880   0.354   6.150
 7007POPC   C1A48171   5.907   0.400   6.450
 7007POPC   D2A48172   5.846   0.398   6.750
 7007POPC   C3A48173   5.905   0.397   7.050
 7007POPC   C4A48174   5.825   0.393   7.350
 7007POPC   C1B48175   5.860   0.170   6.450
 7007POPC   C2B48176   5.882   0.161   6.750
 7007POPC   C3B48177   5.818   0.199   7.050
 7007POPC   C4B48178   5.836   0.225   7.350
 7008POPC   NC348179  33.762  10.489   5.550
 7008POPC   PO448180  33.822  10.527   5.850
 7008POPC   GL148181  33.766  10.550   6.150
 7008POPC   GL248182  33.772  10.687   6.150
 7008POPC   C1A48183  33.844  10.491   6.450
 7008POPC   D2A48184  33.846  10.498   6.750
 7008POPC   C3A48185  33.789  10.477   7.050
 7008POPC   C4A48186  33.781  10.508   7.350
 7008POPC   C1B48187  33.695  10.739   6.450
 7008POPC   C2B48188  33.750  10.791   6.750
 7008POPC   C3B48189  33.747  10.799   7.050
 7008POPC   C4B48190  33.743  10.724   7.350
 7009POPC   NC348191  36.142  24.501   5.550
 7009POPC   PO448192  36.129  24.466   5.850
 7009POPC   GL148193  36.103  24.533   6.150
 7009POPC   GL248194  36.259  24.520   6.150
 7009POPC   C1A48195  36.135  24.497   6.450
 7009POPC   D2A48196  36.121  24.525   6.750
 7009POPC   C3A48197  36.095  24.539   7.050
 7009POPC   C4A48198  36.125  24.508   7.350
 7009POPC   C1B48199  36.382  24.587   6.450
 7009POPC   C2B48200  36.343  24.601   6.750
 7009POPC   C3B48201  36.336  24.604   7.050
 7009POPC   C4B48202  36.372  24.630   7.350
 7010POPC   NC348203  24.511  15.908   5.550
 7010POPC   PO448204  24.476  15.977   5.850
 7010POPC   GL148205  24.473  15.973   6.150
 7010POPC   GL248206  24.383  15.940   6.150
 7010POPC   C1A48207  24.506  15.992   6.450
 7010POPC   D2A48208  24.527  15.950   6.750
 7010POPC   C3A48209  24.532  15.905   7.050
 7010POPC   C4A48210  24.499  15.929   7.350
 7010POPC   C1B48211  24.219  15.944   6.450
 7010POPC   C2B48212  24.232  15.935   6.750
 7010POPC   C3B48213  24.207  15.895   7.050
 7010POPC   C4B48214  24.204  15.941   7.350
 7011POPC   NC348215   9.772  11.276   5.550
 7011POPC   PO448216   9.747  11.268   5.850
 7011POPC   GL148217   9.756  11.259   6.150
 7011POPC   GL248218   9.748  11.149   6.150
 7011POPC   C1A48219   9.715  11.262   6.450
 7011POPC   D2A48220   9.748  11.341   6.750
 7011POPC   C3A48221   9.714  11.294   7.050
 7011POPC   C4A48222   9.732  11.299   7.350
 7011POPC   C1B48223   9.660  11.020   6.450
 7011POPC   C2B48224   9.684  11.043   6.750
 7011POPC   C3B48225   9.666  11.017   7.050
 7011POPC   C4B48226   9.733  11.092   7.350
 7012POPC   NC348227   4.336  12.062   5.550
 7012POPC   PO448228   4.326  12.048   5.850
 7012POPC   GL148229   4.307  12.042   6.150
 7012POPC   GL248230   4.267  12.195   6.150
 7012POPC   C1A48231   4.278  12.026   6.450
 7012POPC   D2A48232   4.294  12.119   6.750
 7012POPC   C3A48233   4.292  12.122   7.050
 7012POPC   C4A48234   4.322  12.031   7.350
 7012POPC   C1B48235   4.200  12.281   6.450
 7012POPC   C2B48236   4.193  12.303   6.750
 7012POPC   C3B48237   4.251  12.361   7.050
 7012POPC   C4B48238   4.233  12.270   7.350
 7013POPC   NC348239   5.905  12.062   5.550
 7013POPC   PO448240   5.875  12.043   5.850
 7013POPC   GL148241   5.867  12.030   6.150
 7013POPC   GL248242   5.978  11.962   6.150
 7013POPC   C1A48243   5.887  12.088   6.450
 7013POPC   D2A48244   5.828  12.090   6.750
 7013POPC   C3A48245   5.824  12.123   7.050
 7013POPC   C4A48246   5.886  12.056   7.350
 7013POPC   C1B48247   6.121  11.985   6.450
 7013POPC   C2B48248   6.071  11.976   6.750
 7013POPC   C3B48249   6.123  11.939   7.050
 7013POPC   C4B48250   6.070  11.909   7.350
 7014POPC   NC348251  40.762   0.481   5.550
 7014POPC   PO448252  40.759   0.413   5.850
 7014POPC   GL148253  40.777   0.412   6.150
 7014POPC   GL248254  40.786   0.563   6.150
 7014POPC   C1A48255  40.736   0.451   6.450
 7014POPC   D2A48256  40.754   0.408   6.750
 7014POPC   C3A48257  40.808   0.466   7.050
 7014POPC   C4A48258  40.791   0.428   7.350
 7014POPC   C1B48259  40.844   0.706   6.450
 7014POPC   C2B48260  40.922   0.713   6.750
 7014POPC   C3B48261  40.890   0.641   7.050
 7014POPC   C4B48262  40.842   0.650   7.350
 7015POPC   NC348263  32.976  35.314   5.550
 7015POPC   PO448264  33.020  35.369   5.850
 7015POPC   GL148265  32.996  35.319   6.150
 7015POPC   GL248266  32.946  35.252   6.150
 7015POPC   C1A48267  33.007  35.396   6.450
 7015POPC   D2A48268  33.036  35.332   6.750
 7015POPC   C3A48269  33.062  35.374   7.050
 7015POPC   C4A48270  33.040  35.303   7.350
 7015POPC   C1B48271  32.848  35.217   6.450
 7015POPC   C2B48272  32.829  35.198   6.750
 7015POPC   C3B48273  32.810  35.242   7.050
 7015POPC   C4B48274  32.759  35.197   7.350
 7016POPC   NC348275  19.806  21.394   5.550
 7016POPC   PO448276  19.859  21.381   5.850
 7016POPC   GL148277  19.854  21.371   6.150
 7016POPC   GL248278  19.805  21.250   6.150
 7016POPC   C1A48279  19.849  21.397   6.450
 7016POPC   D2A48280  19.876  21.396   6.750
 7016POPC   C3A48281  19.824  21.421   7.050
 7016POPC   C4A48282  19.846  21.336   7.350
 7016POPC   C1B48283  19.761  21.182   6.450
 7016POPC   C2B48284  19.769  21.135   6.750
 7016POPC   C3B48285  19.817  21.130   7.050
 7016POPC   C4B48286  19.755  21.169   7.350
 7017POPC   NC348287  12.095  33.784   5.550
 7017POPC   PO448288  12.122  33.812   5.850
 7017POPC   GL148289  12.105  33.780   6.150
 7017POPC   GL248290  12.208  33.822   6.150
 7017POPC   C1A48291  12.103  33.758   6.450
 7017POPC   D2A48292  12.108  33.774   6.750
 7017POPC   C3A48293  12.079  33.759   7.050
 7017POPC   C4A48294  12.066  33.828   7.350
 7017POPC   C1B48295  12.276  33.753   6.450
 7017POPC   C2B48296  12.338  33.789   6.750
 7017POPC   C3B48297  12.297  33.833   7.050
 7017POPC   C4B48298  12.360  33.770   7.350
 7018POPC   NC348299   2.013  32.211   5.550
 7018POPC   PO448300   1.988  32.204   5.850
 7018POPC   GL148301   1.967  32.267   6.150
 7018POPC   GL248302   2.134  32.200   6.150
 7018POPC   C1A48303   1.970  32.221   6.450
 7018POPC   D2A48304   2.039  32.294   6.750
 7018POPC   C3A48305   1.984  32.226   7.050
 7018POPC   C4A48306   1.950  32.243   7.350
 7018POPC   C1B48307   2.192  32.098   6.450
 7018POPC   C2B48308   2.160  32.085   6.750
 7018POPC   C3B48309   2.160  32.120   7.050
 7018POPC   C4B48310   2.164  32.111   7.350
 7019POPC   NC348311  10.509  40.745   5.550
 7019POPC   PO448312  10.529  40.776   5.850
 7019POPC   GL148313  10.483  40.821   6.150
 7019POPC   GL248314  10.405  40.693   6.150
 7019POPC   C1A48315  10.524  40.813   6.450
 7019POPC   D2A48316  10.562  40.758   6.750
 7019POPC   C3A48317  10.521  40.813   7.050
 7019POPC   C4A48318  10.534  40.776   7.350
 7019POPC   C1B48319  10.402  40.555   6.450
 7019POPC   C2B48320  10.365  40.558   6.750
 7019POPC   C3B48321  10.333  40.579   7.050
 7019POPC   C4B48322  10.360  40.629   7.350
 7020POPC   NC348323  43.095  16.714   5.550
 7020POPC   PO448324  43.061  16.707   5.850
 7020POPC   GL148325  43.086  16.769   6.150
 7020POPC   GL248326  43.137  16.820   6.150
 7020POPC   C1A48327  43.089  16.741   6.450
 7020POPC   D2A48328  43.096  16.756   6.750
 7020POPC   C3A48329  43.086  16.711   7.050
 7020POPC   C4A48330  43.086  16.779   7.350
 7020POPC   C1B48331  43.195  16.967   6.450
 7020POPC   C2B48332  43.201  16.936   6.750
 7020POPC   C3B48333  43.249  16.995   7.050
 7020POPC   C4B48334  43.230  16.905   7.350
 7021POPC   NC348335   9.711  21.432   5.550
 7021POPC   PO448336   9.746  21.374   5.850
 7021POPC   GL148337   9.718  21.406   6.150
 7021POPC   GL248338   9.839  21.268   6.150
 7021POPC   C1A48339   9.756  21.374   6.450
 7021POPC   D2A48340   9.763  21.419   6.750
 7021POPC   C3A48341   9.713  21.376   7.050
 7021POPC   C4A48342   9.755  21.420   7.350
 7021POPC   C1B48343   9.959  21.271   6.450
 7021POPC   C2B48344   9.922  21.234   6.750
 7021POPC   C3B48345   9.900  21.207   7.050
 7021POPC   C4B48346   9.929  21.206   7.350
 7022POPC   NC348347  29.106  19.873   5.550
 7022POPC   PO448348  29.159  19.857   5.850
 7022POPC   GL148349  29.171  19.795   6.150
 7022POPC   GL248350  29.225  19.752   6.150
 7022POPC   C1A48351  29.146  19.882   6.450
 7022POPC   D2A48352  29.169  19.807   6.750
 7022POPC   C3A48353  29.111  19.808   7.050
 7022POPC   C4A48354  29.124  19.835   7.350
 7022POPC   C1B48355  29.390  19.705   6.450
 7022POPC   C2B48356  29.384  19.727   6.750
 7022POPC   C3B48357  29.391  19.656   7.050
 7022POPC   C4B48358  29.390  19.731   7.350
 7023POPC   NC348359  26.794   6.672   5.550
 7023POPC   PO448360  26.772   6.669   5.850
 7023POPC   GL148361  26.773   6.602   6.150
 7023POPC   GL248362  26.889   6.536   6.150
 7023POPC   C1A48363  26.856   6.644   6.450
 7023POPC   D2A48364  26.769   6.653   6.750
 7023POPC   C3A48365  26.838   6.640   7.050
 7023POPC   C4A48366  26.813   6.598   7.350
 7023POPC   C1B48367  27.064   6.519   6.450
 7023POPC   C2B48368  27.074   6.477   6.750
 7023POPC   C3B48369  27.046   6.503   7.050
 7023POPC   C4B48370  26.979   6.560   7.350
 7024POPC   NC348371  43.136  17.500   5.550
 7024POPC   PO448372  43.144  17.501   5.850
 7024POPC   GL148373  43.159  17.517   6.150
 7024POPC   GL248374  42.992  17.454   6.150
 7024POPC   C1A48375  43.156  17.533   6.450
 7024POPC   D2A48376  43.130  17.544   6.750
 7024POPC   C3A48377  43.110  17.477   7.050
 7024POPC   C4A48378  43.117  17.504   7.350
 7024POPC   C1B48379  42.854  17.418   6.450
 7024POPC   C2B48380  42.895  17.371   6.750
 7024POPC   C3B48381  42.922  17.382   7.050
 7024POPC   C4B48382  42.900  17.427   7.350
 7025POPC   NC348383  14.375  18.252   5.550
 7025POPC   PO448384  14.380  18.303   5.850
 7025POPC   GL148385  14.426  18.303   6.150
 7025POPC   GL248386  14.398  18.188   6.150
 7025POPC   C1A48387  14.399  18.287   6.450
 7025POPC   D2A48388  14.420  18.279   6.750
 7025POPC   C3A48389  14.429  18.306   7.050
 7025POPC   C4A48390  14.449  18.274   7.350
 7025POPC   C1B48391  14.435  18.027   6.450
 7025POPC   C2B48392  14.519  18.055   6.750
 7025POPC   C3B48393  14.440  18.011   7.050
 7025POPC   C4B48394  14.517  18.005   7.350
 7026POPC   NC348395  44.666  17.509   5.550
 7026POPC   PO448396  44.637  17.462   5.850
 7026POPC   GL148397  44.678  17.550   6.150
 7026POPC   GL248398  44.572  17.437   6.150
 7026POPC   C1A48399  44.649  17.520   6.450
 7026POPC   D2A48400  44.690  17.489   6.750
 7026POPC   C3A48401  44.624  17.477   7.050
 7026POPC   C4A48402  44.632  17.489   7.350
 7026POPC   C1B48403  44.386  17.489   6.450
 7026POPC   C2B48404  44.458  17.413   6.750
 7026POPC   C3B48405  44.449  17.424   7.050
 7026POPC   C4B48406  44.441  17.449   7.350
 7027POPC   NC348407  19.837  33.830   5.550
 7027POPC   PO448408  19.792  33.812   5.850
 7027POPC   GL148409  19.827  33.842   6.150
 7027POPC   GL248410  19.705  33.836   6.150
 7027POPC   C1A48411  19.805  33.838   6.450
 7027POPC   D2A48412  19.835  33.808   6.750
 7027POPC   C3A48413  19.850  33.830   7.050
 7027POPC   C4A48414  19.818  33.803   7.350
 7027POPC   C1B48415  19.626  33.967   6.450
 7027POPC   C2B48416  19.619  33.958   6.750
 7027POPC   C3B48417  19.622  33.932   7.050
 7027POPC   C4B48418  19.687  33.951   7.350
 7028POPC   NC348419  14.382  10.505   5.550
 7028POPC   PO448420  14.359  10.550   5.850
 7028POPC   GL148421  14.363  10.520   6.150
 7028POPC   GL248422  14.366  10.428   6.150
 7028POPC   C1A48423  14.419  10.551   6.450
 7028POPC   D2A48424  14.406  10.519   6.750
 7028POPC   C3A48425  14.450  10.572   7.050
 7028POPC   C4A48426  14.413  10.495   7.350
 7028POPC   C1B48427  14.370  10.319   6.450
 7028POPC   C2B48428  14.322  10.308   6.750
 7028POPC   C3B48429  14.318  10.256   7.050
 7028POPC   C4B48430  14.319  10.323   7.350
 7029POPC   NC348431  40.788   8.226   5.550
 7029POPC   PO448432  40.807   8.179   5.850
 7029POPC   GL148433  40.737   8.223   6.150
 7029POPC   GL248434  40.793   8.033   6.150
 7029POPC   C1A48435  40.807   8.176   6.450
 7029POPC   D2A48436  40.790   8.177   6.750
 7029POPC   C3A48437  40.781   8.242   7.050
 7029POPC   C4A48438  40.794   8.224   7.350
 7029POPC   C1B48439  40.771   7.920   6.450
 7029POPC   C2B48440  40.805   7.977   6.750
 7029POPC   C3B48441  40.737   7.951   7.050
 7029POPC   C4B48442  40.762   7.996   7.350
 7030POPC   NC348443  41.581   3.588   5.550
 7030POPC   PO448444  41.602   3.572   5.850
 7030POPC   GL148445  41.530   3.537   6.150
 7030POPC   GL248446  41.487   3.493   6.150
 7030POPC   C1A48447  41.596   3.590   6.450
 7030POPC   D2A48448  41.550   3.567   6.750
 7030POPC   C3A48449  41.531   3.588   7.050
 7030POPC   C4A48450  41.572   3.551   7.350
 7030POPC   C1B48451  41.333   3.395   6.450
 7030POPC   C2B48452  41.363   3.367   6.750
 7030POPC   C3B48453  41.309   3.397   7.050
 7030POPC   C4B48454  41.337   3.410   7.350
 7031POPC   NC348455  18.235  34.619   5.550
 7031POPC   PO448456  18.287  34.529   5.850
 7031POPC   GL148457  18.280  34.593   6.150
 7031POPC   GL248458  18.166  34.649   6.150
 7031POPC   C1A48459  18.248  34.536   6.450
 7031POPC   D2A48460  18.245  34.564   6.750
 7031POPC   C3A48461  18.251  34.619   7.050
 7031POPC   C4A48462  18.238  34.601   7.350
 7031POPC   C1B48463  18.110  34.739   6.450
 7031POPC   C2B48464  18.045  34.684   6.750
 7031POPC   C3B48465  18.060  34.654   7.050
 7031POPC   C4B48466  18.106  34.725   7.350
 7032POPC   NC348467  10.498  12.814   5.550
 7032POPC   PO448468  10.500  12.897   5.850
 7032POPC   GL148469  10.495  12.852   6.150
 7032POPC   GL248470  10.408  12.926   6.150
 7032POPC   C1A48471  10.494  12.885   6.450
 7032POPC   D2A48472  10.481  12.890   6.750
 7032POPC   C3A48473  10.539  12.860   7.050
 7032POPC   C4A48474  10.539  12.843   7.350
 7032POPC   C1B48475  10.312  12.991   6.450
 7032POPC   C2B48476  10.325  12.913   6.750
 7032POPC   C3B48477  10.282  12.992   7.050
 7032POPC   C4B48478  10.259  12.953   7.350
 7033POPC   NC348479  26.058  19.069   5.550
 7033POPC   PO448480  26.066  19.024   5.850
 7033POPC   GL148481  26.085  19.089   6.150
 7033POPC   GL248482  26.177  19.082   6.150
 7033POPC   C1A48483  26.054  19.058   6.450
 7033POPC   D2A48484  26.046  19.045   6.750
 7033POPC   C3A48485  26.069  19.037   7.050
 7033POPC   C4A48486  26.045  19.102   7.350
 7033POPC   C1B48487  26.292  19.115   6.450
 7033POPC   C2B48488  26.259  19.081   6.750
 7033POPC   C3B48489  26.248  19.115   7.050
 7033POPC   C4B48490  26.328  19.111   7.350
 7034POPC   NC348491   4.346  33.760   5.550
 7034POPC   PO448492   4.304  33.766   5.850
 7034POPC   GL148493   4.325  33.817   6.150
 7034POPC   GL248494   4.438  33.857   6.150
 7034POPC   C1A48495   4.275  33.799   6.450
 7034POPC   D2A48496   4.300  33.780   6.750
 7034POPC   C3A48497   4.267  33.849   7.050
 7034POPC   C4A48498   4.301  33.785   7.350
 7034POPC   C1B48499   4.453  34.042   6.450
 7034POPC   C2B48500   4.503  33.966   6.750
 7034POPC   C3B48501   4.486  33.997   7.050
 7034POPC   C4B48502   4.507  33.967   7.350
 7035POPC   NC348503  32.211  12.121   5.550
 7035POPC   PO448504  32.216  12.069   5.850
 7035POPC   GL148505  32.273  12.097   6.150
 7035POPC   GL248506  32.120  12.081   6.150
 7035POPC   C1A48507  32.204  12.070   6.450
 7035POPC   D2A48508  32.228  12.112   6.750
 7035POPC   C3A48509  32.209  12.041   7.050
 7035POPC   C4A48510  32.272  12.095   7.350
 7035POPC   C1B48511  31.954  12.068   6.450
 7035POPC   C2B48512  31.985  12.084   6.750
 7035POPC   C3B48513  32.040  12.126   7.050
 7035POPC   C4B48514  32.020  12.146   7.350
 7036POPC   NC348515  35.372   5.065   5.550
 7036POPC   PO448516  35.374   5.129   5.850
 7036POPC   GL148517  35.376   5.110   6.150
 7036POPC   GL248518  35.477   5.007   6.150
 7036POPC   C1A48519  35.327   5.131   6.450
 7036POPC   D2A48520  35.319   5.094   6.750
 7036POPC   C3A48521  35.350   5.105   7.050
 7036POPC   C4A48522  35.351   5.067   7.350
 7036POPC   C1B48523  35.637   4.982   6.450
 7036POPC   C2B48524  35.571   5.018   6.750
 7036POPC   C3B48525  35.615   5.043   7.050
 7036POPC   C4B48526  35.552   4.968   7.350
 7037POPC   NC348527  39.197  10.482   5.550
 7037POPC   PO448528  39.185  10.547   5.850
 7037POPC   GL148529  39.196  10.541   6.150
 7037POPC   GL248530  39.266  10.652   6.150
 7037POPC   C1A48531  39.257  10.508   6.450
 7037POPC   D2A48532  39.256  10.572   6.750
 7037POPC   C3A48533  39.222  10.496   7.050
 7037POPC   C4A48534  39.235  10.511   7.350
 7037POPC   C1B48535  39.301  10.808   6.450
 7037POPC   C2B48536  39.230  10.792   6.750
 7037POPC   C3B48537  39.262  10.787   7.050
 7037POPC   C4B48538  39.306  10.753   7.350
 7038POPC   NC348539  15.193  42.337   5.550
 7038POPC   PO448540  15.225  42.378   5.850
 7038POPC   GL148541  15.168  42.349   6.150
 7038POPC   GL248542  15.104  42.468   6.150
 7038POPC   C1A48543  15.165  42.331   6.450
 7038POPC   D2A48544  15.172  42.351   6.750
 7038POPC   C3A48545  15.180  42.347   7.050
 7038POPC   C4A48546  15.163  42.294   7.350
 7038POPC   C1B48547  14.987  42.512   6.450
 7038POPC   C2B48548  15.053  42.577   6.750
 7038POPC   C3B48549  14.993  42.523   7.050
 7038POPC   C4B48550  14.989  42.561   7.350
 7039POPC   NC348551  30.700  22.203   5.550
 7039POPC   PO448552  30.739  22.172   5.850
 7039POPC   GL148553  30.744  22.169   6.150
 7039POPC   GL248554  30.754  22.105   6.150
 7039POPC   C1A48555  30.694  22.138   6.450
 7039POPC   D2A48556  30.690  22.153   6.750
 7039POPC   C3A48557  30.732  22.142   7.050
 7039POPC   C4A48558  30.705  22.123   7.350
 7039POPC   C1B48559  30.821  21.968   6.450
 7039POPC   C2B48560  30.819  21.979   6.750
 7039POPC   C3B48561  30.833  21.974   7.050
 7039POPC   C4B48562  30.887  21.944   7.350
 7040POPC   NC348563  41.571  12.036   5.550
 7040POPC   PO448564  41.579  12.090   5.850
 7040POPC   GL148565  41.593  12.116   6.150
 7040POPC   GL248566  41.733  12.038   6.150
 7040POPC   C1A48567  41.546  12.112   6.450
 7040POPC   D2A48568  41.535  12.078   6.750
 7040POPC   C3A48569  41.520  12.077   7.050
 7040POPC   C4A48570  41.510  12.069   7.350
 7040POPC   C1B48571  41.766  12.132   6.450
 7040POPC   C2B48572  41.773  12.078   6.750
 7040POPC   C3B48573  41.775  12.074   7.050
 7040POPC   C4B48574  41.803  12.098   7.350
 7041POPC   NC348575  28.339   1.996   5.550
 7041POPC   PO448576  28.412   1.973   5.850
 7041POPC   GL148577  28.414   2.028   6.150
 7041POPC   GL248578  28.428   2.085   6.150
 7041POPC   C1A48579  28.397   1.976   6.450
 7041POPC   D2A48580  28.357   1.953   6.750
 7041POPC   C3A48581  28.380   2.036   7.050
 7041POPC   C4A48582  28.353   2.026   7.350
 7041POPC   C1B48583  28.540   2.142   6.450
 7041POPC   C2B48584  28.549   2.162   6.750
 7041POPC   C3B48585  28.486   2.198   7.050
 7041POPC   C4B48586  28.538   2.161   7.350
 7042POPC   NC348587  24.459   3.526   5.550
 7042POPC   PO448588  24.516   3.523   5.850
 7042POPC   GL148589  24.445   3.581   6.150
 7042POPC   GL248590  24.327   3.537   6.150
 7042POPC   C1A48591  24.479   3.515   6.450
 7042POPC   D2A48592  24.465   3.507   6.750
 7042POPC   C3A48593  24.511   3.513   7.050
 7042POPC   C4A48594  24.460   3.521   7.350
 7042POPC   C1B48595  24.201   3.539   6.450
 7042POPC   C2B48596  24.289   3.529   6.750
 7042POPC   C3B48597  24.254   3.517   7.050
 7042POPC   C4B48598  24.209   3.519   7.350
 7043POPC   NC348599   5.116  40.018   5.550
 7043POPC   PO448600   5.050  39.968   5.850
 7043POPC   GL148601   5.129  39.985   6.150
 7043POPC   GL248602   4.972  40.033   6.150
 7043POPC   C1A48603   5.126  40.001   6.450
 7043POPC   D2A48604   5.069  39.987   6.750
 7043POPC   C3A48605   5.082  40.023   7.050
 7043POPC   C4A48606   5.071  39.969   7.350
 7043POPC   C1B48607   4.846  40.078   6.450
 7043POPC   C2B48608   4.856  40.061   6.750
 7043POPC   C3B48609   4.892  40.016   7.050
 7043POPC   C4B48610   4.863  40.050   7.350
 7044POPC   NC348611  37.638   1.981   5.550
 7044POPC   PO448612  37.711   2.024   5.850
 7044POPC   GL148613  37.680   1.959   6.150
 7044POPC   GL248614  37.842   1.936   6.150
 7044POPC   C1A48615  37.695   2.017   6.450
 7044POPC   D2A48616  37.674   1.995   6.750
 7044POPC   C3A48617  37.720   2.025   7.050
 7044POPC   C4A48618  37.636   1.960   7.350
 7044POPC   C1B48619  37.961   1.936   6.450
 7044POPC   C2B48620  37.904   1.852   6.750
 7044POPC   C3B48621  37.920   1.868   7.050
 7044POPC   C4B48622  37.938   1.852   7.350
 7045POPC   NC348623   9.715   7.469   5.550
 7045POPC   PO448624   9.707   7.405   5.850
 7045POPC   GL148625   9.745   7.404   6.150
 7045POPC   GL248626   9.643   7.405   6.150
 7045POPC   C1A48627   9.755   7.434   6.450
 7045POPC   D2A48628   9.798   7.456   6.750
 7045POPC   C3A48629   9.747   7.406   7.050
 7045POPC   C4A48630   9.766   7.380   7.350
 7045POPC   C1B48631   9.493   7.267   6.450
 7045POPC   C2B48632   9.505   7.305   6.750
 7045POPC   C3B48633   9.523   7.252   7.050
 7045POPC   C4B48634   9.570   7.310   7.350
 7046POPC   NC348635   5.897  19.090   5.550
 7046POPC   PO448636   5.896  19.067   5.850
 7046POPC   GL148637   5.875  19.056   6.150
 7046POPC   GL248638   5.800  19.186   6.150
 7046POPC   C1A48639   5.842  19.049   6.450
 7046POPC   D2A48640   5.840  19.062   6.750
 7046POPC   C3A48641   5.854  19.074   7.050
 7046POPC   C4A48642   5.836  19.095   7.350
 7046POPC   C1B48643   5.656  19.208   6.450
 7046POPC   C2B48644   5.713  19.248   6.750
 7046POPC   C3B48645   5.698  19.204   7.050
 7046POPC   C4B48646   5.652  19.220   7.350
 7047POPC   NC348647  17.508  33.057   5.550
 7047POPC   PO448648  17.475  33.067   5.850
 7047POPC   GL148649  17.507  32.977   6.150
 7047POPC   GL248650  17.591  32.992   6.150
 7047POPC   C1A48651  17.474  33.043   6.450
 7047POPC   D2A48652  17.461  33.042   6.750
 7047POPC   C3A48653  17.523  33.021   7.050
 7047POPC   C4A48654  17.467  33.049   7.350
 7047POPC   C1B48655  17.694  32.959   6.450
 7047POPC   C2B48656  17.723  32.923   6.750
 7047POPC   C3B48657  17.777  32.905   7.050
 7047POPC   C4B48658  17.775  32.959   7.350
 7048POPC   NC348659   6.644  29.115   5.550
 7048POPC   PO448660   6.596  29.181   5.850
 7048POPC   GL148661   6.639  29.192   6.150
 7048POPC   GL248662   6.798  29.135   6.150
 7048POPC   C1A48663   6.666  29.158   6.450
 7048POPC   D2A48664   6.633  29.149   6.750
 7048POPC   C3A48665   6.603  29.188   7.050
 7048POPC   C4A48666   6.647  29.188   7.350
 7048POPC   C1B48667   6.873  29.037   6.450
 7048POPC   C2B48668   6.896  29.044   6.750
 7048POPC   C3B48669   6.896  29.000   7.050
 7048POPC   C4B48670   6.838  29.070   7.350
 7049POPC   NC348671  40.037  30.677   5.550
 7049POPC   PO448672  39.995  30.656   5.850
 7049POPC   GL148673  40.023  30.668   6.150
 7049POPC   GL248674  40.093  30.717   6.150
 7049POPC   C1A48675  40.052  30.656   6.450
 7049POPC   D2A48676  40.056  30.723   6.750
 7049POPC   C3A48677  39.974  30.737   7.050
 7049POPC   C4A48678  39.977  30.698   7.350
 7049POPC   C1B48679  40.211  30.682   6.450
 7049POPC   C2B48680  40.213  30.603   6.750
 7049POPC   C3B48681  40.208  30.649   7.050
 7049POPC   C4B48682  40.242  30.667   7.350
 7050POPC   NC348683  37.699  11.302   5.550
 7050POPC   PO448684  37.717  11.259   5.850
 7050POPC   GL148685  37.722  11.292   6.150
 7050POPC   GL248686  37.645  11.447   6.150
 7050POPC   C1A48687  37.632  11.286   6.450
 7050POPC   D2A48688  37.691  11.255   6.750
 7050POPC   C3A48689  37.697  11.295   7.050
 7050POPC   C4A48690  37.640  11.255   7.350
 7050POPC   C1B48691  37.566  11.487   6.450
 7050POPC   C2B48692  37.613  11.518   6.750
 7050POPC   C3B48693  37.584  11.526   7.050
 7050POPC   C4B48694  37.612  11.509   7.350
 7051POPC   NC348695  43.148  41.572   5.550
 7051POPC   PO448696  43.154  41.602   5.850
 7051POPC   GL148697  43.158  41.548   6.150
 7051POPC   GL248698  43.137  41.385   6.150
 7051POPC   C1A48699  43.125  41.579   6.450
 7051POPC   D2A48700  43.148  41.561   6.750
 7051POPC   C3A48701  43.064  41.608   7.050
 7051POPC   C4A48702  43.069  41.557   7.350
 7051POPC   C1B48703  43.194  41.353   6.450
 7051POPC   C2B48704  43.184  41.338   6.750
 7051POPC   C3B48705  43.139  41.306   7.050
 7051POPC   C4B48706  43.153  41.347   7.350
 7052POPC   NC348707   1.990  38.452   5.550
 7052POPC   PO448708   1.945  38.433   5.850
 7052POPC   GL148709   1.989  38.492   6.150
 7052POPC   GL248710   1.948  38.329   6.150
 7052POPC   C1A48711   2.002  38.474   6.450
 7052POPC   D2A48712   2.023  38.420   6.750
 7052POPC   C3A48713   1.967  38.458   7.050
 7052POPC   C4A48714   2.009  38.423   7.350
 7052POPC   C1B48715   2.016  38.188   6.450
 7052POPC   C2B48716   1.934  38.217   6.750
 7052POPC   C3B48717   1.944  38.252   7.050
 7052POPC   C4B48718   1.965  38.196   7.350
 7053POPC   NC348719  15.929  34.539   5.550
 7053POPC   PO448720  15.943  34.609   5.850
 7053POPC   GL148721  15.935  34.567   6.150
 7053POPC   GL248722  15.786  34.646   6.150
 7053POPC   C1A48723  15.984  34.608   6.450
 7053POPC   D2A48724  15.953  34.601   6.750
 7053POPC   C3A48725  15.941  34.559   7.050
 7053POPC   C4A48726  15.968  34.532   7.350
 7053POPC   C1B48727  15.685  34.668   6.450
 7053POPC   C2B48728  15.762  34.682   6.750
 7053POPC   C3B48729  15.686  34.628   7.050
 7053POPC   C4B48730  15.762  34.630   7.350
 7054POPC   NC348731  30.661  43.133   5.550
 7054POPC   PO448732  30.660  43.068   5.850
 7054POPC   GL148733  30.657  43.072   6.150
 7054POPC   GL248734  30.823  43.112   6.150
 7054POPC   C1A48735  30.720  43.122   6.450
 7054POPC   D2A48736  30.737  43.083   6.750
 7054POPC   C3A48737  30.708  43.115   7.050
 7054POPC   C4A48738  30.652  43.142   7.350
 7054POPC   C1B48739  30.964  43.171   6.450
 7054POPC   C2B48740  30.948  43.168   6.750
 7054POPC   C3B48741  30.956  43.113   7.050
 7054POPC   C4B48742  30.915  43.197   7.350
 7055POPC   NC348743  39.183  26.073   5.550
 7055POPC   PO448744  39.222  26.058   5.850
 7055POPC   GL148745  39.241  26.048   6.150
 7055POPC   GL248746  39.192  25.926   6.150
 7055POPC   C1A48747  39.256  26.056   6.450
 7055POPC   D2A48748  39.238  26.012   6.750
 7055POPC   C3A48749  39.218  26.052   7.050
 7055POPC   C4A48750  39.182  26.057   7.350
 7055POPC   C1B48751  39.004  25.900   6.450
 7055POPC   C2B48752  39.088  25.862   6.750
 7055POPC   C3B48753  39.032  25.829   7.050
 7055POPC   C4B48754  39.059  25.892   7.350
 7056POPC   NC348755  43.081  36.130   5.550
 7056POPC   PO448756  43.150  36.096   5.850
 7056POPC   GL148757  43.087  36.095   6.150
 7056POPC   GL248758  43.228  36.113   6.150
 7056POPC   C1A48759  43.151  36.143   6.450
 7056POPC   D2A48760  43.072  36.100   6.750
 7056POPC   C3A48761  43.157  36.163   7.050
 7056POPC   C4A48762  43.155  36.139   7.350
 7056POPC   C1B48763  43.311  36.011   6.450
 7056POPC   C2B48764  43.379  36.106   6.750
 7056POPC   C3B48765  43.343  36.021   7.050
 7056POPC   C4B48766  43.377  36.059   7.350
 7057POPC   NC348767  11.320  26.091   5.550
 7057POPC   PO448768  11.268  26.015   5.850
 7057POPC   GL148769  11.288  26.010   6.150
 7057POPC   GL248770  11.254  25.887   6.150
 7057POPC   C1A48771  11.279  26.050   6.450
 7057POPC   D2A48772  11.282  25.992   6.750
 7057POPC   C3A48773  11.298  26.055   7.050
 7057POPC   C4A48774  11.335  26.025   7.350
 7057POPC   C1B48775  11.173  25.837   6.450
 7057POPC   C2B48776  11.174  25.784   6.750
 7057POPC   C3B48777  11.209  25.854   7.050
 7057POPC   C4B48778  11.133  25.781   7.350
 7058POPC   NC348779   7.384  41.547   5.550
 7058POPC   PO448780   7.374  41.608   5.850
 7058POPC   GL148781   7.456  41.533   6.150
 7058POPC   GL248782   7.544  41.588   6.150
 7058POPC   C1A48783   7.405  41.553   6.450
 7058POPC   D2A48784   7.396  41.534   6.750
 7058POPC   C3A48785   7.385  41.573   7.050
 7058POPC   C4A48786   7.373  41.521   7.350
 7058POPC   C1B48787   7.635  41.584   6.450
 7058POPC   C2B48788   7.684  41.670   6.750
 7058POPC   C3B48789   7.661  41.665   7.050
 7058POPC   C4B48790   7.669  41.627   7.350
 7059POPC   NC348791  33.820  33.007   5.550
 7059POPC   PO448792  33.828  33.021   5.850
 7059POPC   GL148793  33.790  33.026   6.150
 7059POPC   GL248794  33.656  33.088   6.150
 7059POPC   C1A48795  33.777  33.041   6.450
 7059POPC   D2A48796  33.830  32.998   6.750
 7059POPC   C3A48797  33.822  33.009   7.050
 7059POPC   C4A48798  33.836  33.070   7.350
 7059POPC   C1B48799  33.514  33.076   6.450
 7059POPC   C2B48800  33.599  33.064   6.750
 7059POPC   C3B48801  33.507  33.016   7.050
 7059POPC   C4B48802  33.572  33.025   7.350
 7060POPC   NC348803  22.987  22.915   5.550
 7060POPC   PO448804  22.954  22.929   5.850
 7060POPC   GL148805  22.959  22.952   6.150
 7060POPC   GL248806  22.802  22.982   6.150
 7060POPC   C1A48807  22.922  22.943   6.450
 7060POPC   D2A48808  22.894  22.893   6.750
 7060POPC   C3A48809  22.927  22.937   7.050
 7060POPC   C4A48810  22.928  22.976   7.350
 7060POPC   C1B48811  22.663  23.084   6.450
 7060POPC   C2B48812  22.728  22.996   6.750
 7060POPC   C3B48813  22.729  23.076   7.050
 7060POPC   C4B48814  22.757  23.009   7.350
 7061POPC   NC348815   4.360  36.871   5.550
 7061POPC   PO448816   4.354  36.872   5.850
 7061POPC   GL148817   4.304  36.878   6.150
 7061POPC   GL248818   4.184  36.797   6.150
 7061POPC   C1A48819   4.318  36.912   6.450
 7061POPC   D2A48820   4.278  36.879   6.750
 7061POPC   C3A48821   4.366  36.885   7.050
 7061POPC   C4A48822   4.335  36.874   7.350
 7061POPC   C1B48823   4.193  36.715   6.450
 7061POPC   C2B48824   4.182  36.764   6.750
 7061POPC   C3B48825   4.184  36.676   7.050
 7061POPC   C4B48826   4.137  36.690   7.350
 7062POPC   NC348827  31.506  44.621   5.550
 7062POPC   PO448828  31.479  44.659   5.850
 7062POPC   GL148829  31.447  44.708   6.150
 7062POPC   GL248830  31.594  44.604   6.150
 7062POPC   C1A48831  31.515  44.712   6.450
 7062POPC   D2A48832  31.457  44.712   6.750
 7062POPC   C3A48833  31.508  44.656   7.050
 7062POPC   C4A48834  31.487  44.624   7.350
 7062POPC   C1B48835  31.713  44.531   6.450
 7062POPC   C2B48836  31.689  44.466   6.750
 7062POPC   C3B48837  31.661  44.544   7.050
 7062POPC   C4B48838  31.670  44.480   7.350
 7063POPC   NC348839  30.706  22.955   5.550
 7063POPC   PO448840  30.738  22.988   5.850
 7063POPC   GL148841  30.729  22.964   6.150
 7063POPC   GL248842  30.615  22.950   6.150
 7063POPC   C1A48843  30.737  22.980   6.450
 7063POPC   D2A48844  30.707  22.912   6.750
 7063POPC   C3A48845  30.686  22.913   7.050
 7063POPC   C4A48846  30.674  22.922   7.350
 7063POPC   C1B48847  30.480  22.987   6.450
 7063POPC   C2B48848  30.449  23.001   6.750
 7063POPC   C3B48849  30.407  22.971   7.050
 7063POPC   C4B48850  30.469  22.986   7.350
 7064POPC   NC348851  34.561  39.210   5.550
 7064POPC   PO448852  34.547  39.278   5.850
 7064POPC   GL148853  34.533  39.208   6.150
 7064POPC   GL248854  34.602  39.327   6.150
 7064POPC   C1A48855  34.563  39.183   6.450
 7064POPC   D2A48856  34.554  39.258   6.750
 7064POPC   C3A48857  34.568  39.266   7.050
 7064POPC   C4A48858  34.606  39.181   7.350
 7064POPC   C1B48859  34.757  39.431   6.450
 7064POPC   C2B48860  34.744  39.415   6.750
 7064POPC   C3B48861  34.739  39.479   7.050
 7064POPC   C4B48862  34.729  39.436   7.350
 7065POPC   NC348863  34.579  43.915   5.550
 7065POPC   PO448864  34.607  43.843   5.850
 7065POPC   GL148865  34.610  43.888   6.150
 7065POPC   GL248866  34.539  44.027   6.150
 7065POPC   C1A48867  34.547  43.889   6.450
 7065POPC   D2A48868  34.554  43.877   6.750
 7065POPC   C3A48869  34.537  43.844   7.050
 7065POPC   C4A48870  34.621  43.890   7.350
 7065POPC   C1B48871  34.508  44.083   6.450
 7065POPC   C2B48872  34.435  44.084   6.750
 7065POPC   C3B48873  34.448  44.069   7.050
 7065POPC   C4B48874  34.455  44.153   7.350
 7066POPC   NC348875  34.615  19.101   5.550
 7066POPC   PO448876  34.532  19.098   5.850
 7066POPC   GL148877  34.553  19.019   6.150
 7066POPC   GL248878  34.640  18.965   6.150
 7066POPC   C1A48879  34.602  19.046   6.450
 7066POPC   D2A48880  34.542  19.030   6.750
 7066POPC   C3A48881  34.568  19.091   7.050
 7066POPC   C4A48882  34.582  19.089   7.350
 7066POPC   C1B48883  34.631  18.848   6.450
 7066POPC   C2B48884  34.614  18.815   6.750
 7066POPC   C3B48885  34.651  18.787   7.050
 7066POPC   C4B48886  34.638  18.806   7.350
 7067POPC   NC348887  22.938   7.393   5.550
 7067POPC   PO448888  22.940   7.425   5.850
 7067POPC   GL148889  22.959   7.467   6.150
 7067POPC   GL248890  23.021   7.333   6.150
 7067POPC   C1A48891  22.956   7.426   6.450
 7067POPC   D2A48892  22.902   7.470   6.750
 7067POPC   C3A48893  22.976   7.408   7.050
 7067POPC   C4A48894  22.952   7.387   7.350
 7067POPC   C1B48895  23.110   7.211   6.450
 7067POPC   C2B48896  23.084   7.218   6.750
 7067POPC   C3B48897  23.127   7.200   7.050
 7067POPC   C4B48898  23.090   7.230   7.350
 7068POPC   NC348899  19.016  25.290   5.550
 7068POPC   PO448900  19.025  25.265   5.850
 7068POPC   GL148901  19.107  25.312   6.150
 7068POPC   GL248902  19.008  25.174   6.150
 7068POPC   C1A48903  19.095  25.248   6.450
 7068POPC   D2A48904  19.025  25.265   6.750
 7068POPC   C3A48905  19.053  25.252   7.050
 7068POPC   C4A48906  19.065  25.236   7.350
 7068POPC   C1B48907  18.915  25.043   6.450
 7068POPC   C2B48908  18.937  25.012   6.750
 7068POPC   C3B48909  18.998  25.046   7.050
 7068POPC   C4B48910  18.917  25.050   7.350
 7069POPC   NC348911   5.123  43.883   5.550
 7069POPC   PO448912   5.056  43.891   5.850
 7069POPC   GL148913   5.060  43.841   6.150
 7069POPC   GL248914   5.052  43.988   6.150
 7069POPC   C1A48915   5.055  43.881   6.450
 7069POPC   D2A48916   5.114  43.926   6.750
 7069POPC   C3A48917   5.054  43.891   7.050
 7069POPC   C4A48918   5.044  43.916   7.350
 7069POPC   C1B48919   5.020  44.102   6.450
 7069POPC   C2B48920   5.007  44.141   6.750
 7069POPC   C3B48921   5.059  44.158   7.050
 7069POPC   C4B48922   5.070  44.164   7.350
 7070POPC   NC348923   3.563   3.519   5.550
 7070POPC   PO448924   3.567   3.565   5.850
 7070POPC   GL148925   3.525   3.552   6.150
 7070POPC   GL248926   3.626   3.469   6.150
 7070POPC   C1A48927   3.538   3.565   6.450
 7070POPC   D2A48928   3.537   3.509   6.750
 7070POPC   C3A48929   3.551   3.493   7.050
 7070POPC   C4A48930   3.496   3.582   7.350
 7070POPC   C1B48931   3.781   3.455   6.450
 7070POPC   C2B48932   3.751   3.513   6.750
 7070POPC   C3B48933   3.801   3.501   7.050
 7070POPC   C4B48934   3.786   3.510   7.350
 7071POPC   NC348935  27.564  12.808   5.550
 7071POPC   PO448936  27.600  12.849   5.850
 7071POPC   GL148937  27.612  12.832   6.150
 7071POPC   GL248938  27.491  12.855   6.150
 7071POPC   C1A48939  27.571  12.831   6.450
 7071POPC   D2A48940  27.548  12.814   6.750
 7071POPC   C3A48941  27.579  12.824   7.050
 7071POPC   C4A48942  27.557  12.872   7.350
 7071POPC   C1B48943  27.327  12.777   6.450
 7071POPC   C2B48944  27.316  12.801   6.750
 7071POPC   C3B48945  27.343  12.773   7.050
 7071POPC   C4B48946  27.359  12.771   7.350
 7072POPC   NC348947   2.813  40.790   5.550
 7072POPC   PO448948   2.774  40.761   5.850
 7072POPC   GL148949   2.724  40.753   6.150
 7072POPC   GL248950   2.828  40.898   6.150
 7072POPC   C1A48951   2.781  40.805   6.450
 7072POPC   D2A48952   2.771  40.776   6.750
 7072POPC   C3A48953   2.736  40.813   7.050
 7072POPC   C4A48954   2.752  40.793   7.350
 7072POPC   C1B48955   2.888  40.973   6.450
 7072POPC   C2B48956   2.951  40.976   6.750
 7072POPC   C3B48957   2.894  40.939   7.050
 7072POPC   C4B48958   2.895  40.997   7.350
 7073POPC   NC348959  26.809   5.914   5.550
 7073POPC   PO448960  26.770   5.838   5.850
 7073POPC   GL148961  26.825   5.919   6.150
 7073POPC   GL248962  26.696   5.880   6.150
 7073POPC   C1A48963  26.861   5.850   6.450
 7073POPC   D2A48964  26.835   5.852   6.750
 7073POPC   C3A48965  26.780   5.913   7.050
 7073POPC   C4A48966  26.808   5.899   7.350
 7073POPC   C1B48967  26.605   5.923   6.450
 7073POPC   C2B48968  26.528   5.853   6.750
 7073POPC   C3B48969  26.614   5.881   7.050
 7073POPC   C4B48970  26.537   5.829   7.350
 7074POPC   NC348971  24.489   6.647   5.550
 7074POPC   PO448972  24.480   6.682   5.850
 7074POPC   GL148973  24.448   6.662   6.150
 7074POPC   GL248974  24.428   6.774   6.150
 7074POPC   C1A48975  24.463   6.605   6.450
 7074POPC   D2A48976  24.512   6.681   6.750
 7074POPC   C3A48977  24.443   6.622   7.050
 7074POPC   C4A48978  24.506   6.669   7.350
 7074POPC   C1B48979  24.395   6.873   6.450
 7074POPC   C2B48980  24.484   6.855   6.750
 7074POPC   C3B48981  24.466   6.871   7.050
 7074POPC   C4B48982  24.404   6.928   7.350
 7075POPC   NC348983  26.040  29.913   5.550
 7075POPC   PO448984  26.013  29.953   5.850
 7075POPC   GL148985  26.049  29.958   6.150
 7075POPC   GL248986  26.109  29.757   6.150
 7075POPC   C1A48987  26.035  29.875   6.450
 7075POPC   D2A48988  26.009  29.940   6.750
 7075POPC   C3A48989  26.071  29.902   7.050
 7075POPC   C4A48990  26.049  29.930   7.350
 7075POPC   C1B48991  26.168  29.719   6.450
 7075POPC   C2B48992  26.148  29.657   6.750
 7075POPC   C3B48993  26.143  29.698   7.050
 7075POPC   C4B48994  26.128  29.741   7.350
 7076POPC   NC348995   1.217  40.780   5.550
 7076POPC   PO448996   1.167  40.745   5.850
 7076POPC   GL148997   1.255  40.757   6.150
 7076POPC   GL248998   1.139  40.649   6.150
 7076POPC   C1A48999   1.195  40.783   6.450
 7076POPC   D2A49000   1.213  40.755   6.750
 7076POPC   C3A49001   1.166  40.801   7.050
 7076POPC   C4A49002   1.200  40.833   7.350
 7076POPC   C1B49003   1.040  40.615   6.450
 7076POPC   C2B49004   1.047  40.570   6.750
 7076POPC   C3B49005   1.074  40.558   7.050
 7076POPC   C4B49006   1.045  40.607   7.350
 7077POPC   NC349007  30.693  41.561   5.550
 7077POPC   PO449008  30.743  41.602   5.850
 7077POPC   GL149009  30.661  41.523   6.150
 7077POPC   GL249010  30.722  41.437   6.150
 7077POPC   C1A49011  30.664  41.559   6.450
 7077POPC   D2A49012  30.715  41.525   6.750
 7077POPC   C3A49013  30.673  41.567   7.050
 7077POPC   C4A49014  30.682  41.512   7.350
 7077POPC   C1B49015  30.842  41.339   6.450
 7077POPC   C2B49016  30.832  41.330   6.750
 7077POPC   C3B49017  30.851  41.298   7.050
 7077POPC   C4B49018  30.813  41.298   7.350
 7078POPC   NC349019  26.865  27.554   5.550
 7078POPC   PO449020  26.854  27.574   5.850
 7078POPC   GL149021  26.823  27.553   6.150
 7078POPC   GL249022  26.727  27.597   6.150
 7078POPC   C1A49023  26.844  27.619   6.450
 7078POPC   D2A49024  26.857  27.583   6.750
 7078POPC   C3A49025  26.823  27.638   7.050
 7078POPC   C4A49026  26.787  27.588   7.350
 7078POPC   C1B49027  26.529  27.664   6.450
 7078POPC   C2B49028  26.532  27.583   6.750
 7078POPC   C3B49029  26.604  27.675   7.050
 7078POPC   C4B49030  26.613  27.636   7.350
 7079POPC   NC349031  16.772  31.452   5.550
 7079POPC   PO449032  16.775  31.476   5.850
 7079POPC   GL149033  16.715  31.449   6.150
 7079POPC   GL249034  16.878  31.468   6.150
 7079POPC   C1A49035  16.740  31.465   6.450
 7079POPC   D2A49036  16.701  31.483   6.750
 7079POPC   C3A49037  16.743  31.427   7.050
 7079POPC   C4A49038  16.722  31.518   7.350
 7079POPC   C1B49039  16.921  31.414   6.450
 7079POPC   C2B49040  17.006  31.392   6.750
 7079POPC   C3B49041  16.922  31.417   7.050
 7079POPC   C4B49042  16.986  31.416   7.350
 7080POPC   NC349043  31.440  39.265   5.550
 7080POPC   PO449044  31.489  39.215   5.850
 7080POPC   GL149045  31.490  39.258   6.150
 7080POPC   GL249046  31.532  39.311   6.150
 7080POPC   C1A49047  31.441  39.231   6.450
 7080POPC   D2A49048  31.518  39.277   6.750
 7080POPC   C3A49049  31.451  39.200   7.050
 7080POPC   C4A49050  31.494  39.200   7.350
 7080POPC   C1B49051  31.569  39.457   6.450
 7080POPC   C2B49052  31.570  39.446   6.750
 7080POPC   C3B49053  31.603  39.446   7.050
 7080POPC   C4B49054  31.575  39.431   7.350
 7081POPC   NC349055   3.529  22.172   5.550
 7081POPC   PO449056   3.545  22.138   5.850
 7081POPC   GL149057   3.496  22.122   6.150
 7081POPC   GL249058   3.479  22.129   6.150
 7081POPC   C1A49059   3.507  22.131   6.450
 7081POPC   D2A49060   3.499  22.186   6.750
 7081POPC   C3A49061   3.499  22.158   7.050
 7081POPC   C4A49062   3.559  22.124   7.350
 7081POPC   C1B49063   3.307  22.055   6.450
 7081POPC   C2B49064   3.329  22.086   6.750
 7081POPC   C3B49065   3.316  22.061   7.050
 7081POPC   C4B49066   3.308  22.025   7.350
 7082POPC   NC349067  33.829  16.766   5.550
 7082POPC   PO449068  33.776  16.727   5.850
 7082POPC   GL149069  33.779  16.692   6.150
 7082POPC   GL249070  33.762  16.837   6.150
 7082POPC   C1A49071  33.848  16.763   6.450
 7082POPC   D2A49072  33.788  16.694   6.750
 7082POPC   C3A49073  33.838  16.742   7.050
 7082POPC   C4A49074  33.777  16.685   7.350
 7082POPC   C1B49075  33.736  16.957   6.450
 7082POPC   C2B49076  33.773  16.996   6.750
 7082POPC   C3B49077  33.766  16.943   7.050
 7082POPC   C4B49078  33.724  16.998   7.350
 7083POPC   NC349079  29.122  26.792   5.550
 7083POPC   PO449080  29.110  26.849   5.850
 7083POPC   GL149081  29.171  26.854   6.150
 7083POPC   GL249082  29.014  26.849   6.150
 7083POPC   C1A49083  29.189  26.768   6.450
 7083POPC   D2A49084  29.105  26.775   6.750
 7083POPC   C3A49085  29.116  26.834   7.050
 7083POPC   C4A49086  29.121  26.775   7.350
 7083POPC   C1B49087  28.947  26.894   6.450
 7083POPC   C2B49088  28.905  26.873   6.750
 7083POPC   C3B49089  28.860  26.924   7.050
 7083POPC   C4B49090  28.877  26.925   7.350
 7084POPC   NC349091  38.503  42.323   5.550
 7084POPC   PO449092  38.411  42.376   5.850
 7084POPC   GL149093  38.446  42.325   6.150
 7084POPC   GL249094  38.291  42.329   6.150
 7084POPC   C1A49095  38.471  42.297   6.450
 7084POPC   D2A49096  38.413  42.369   6.750
 7084POPC   C3A49097  38.429  42.358   7.050
 7084POPC   C4A49098  38.421  42.349   7.350
 7084POPC   C1B49099  38.235  42.382   6.450
 7084POPC   C2B49100  38.170  42.407   6.750
 7084POPC   C3B49101  38.255  42.353   7.050
 7084POPC   C4B49102  38.159  42.410   7.350
 7085POPC   NC349103  14.423  12.898   5.550
 7085POPC   PO449104  14.383  12.894   5.850
 7085POPC   GL149105  14.365  12.829   6.150
 7085POPC   GL249106  14.460  12.731   6.150
 7085POPC   C1A49107  14.438  12.863   6.450
 7085POPC   D2A49108  14.354  12.817   6.750
 7085POPC   C3A49109  14.421  12.814   7.050
 7085POPC   C4A49110  14.362  12.893   7.350
 7085POPC   C1B49111  14.529  12.608   6.450
 7085POPC   C2B49112  14.460  12.580   6.750
 7085POPC   C3B49113  14.495  12.634   7.050
 7085POPC   C4B49114  14.514  12.612   7.350
 7086POPC   NC349115  12.837  36.149   5.550
 7086POPC   PO449116  12.868  36.097   5.850
 7086POPC   GL149117  12.866  36.102   6.150
 7086POPC   GL249118  12.951  36.144   6.150
 7086POPC   C1A49119  12.855  36.174   6.450
 7086POPC   D2A49120  12.870  36.088   6.750
 7086POPC   C3A49121  12.817  36.150   7.050
 7086POPC   C4A49122  12.852  36.096   7.350
 7086POPC   C1B49123  13.055  36.142   6.450
 7086POPC   C2B49124  13.062  36.138   6.750
 7086POPC   C3B49125  13.060  36.162   7.050
 7086POPC   C4B49126  13.066  36.107   7.350
 7087POPC   NC349127  22.201  25.289   5.550
 7087POPC   PO449128  22.198  25.261   5.850
 7087POPC   GL149129  22.186  25.282   6.150
 7087POPC   GL249130  22.129  25.355   6.150
 7087POPC   C1A49131  22.206  25.249   6.450
 7087POPC   D2A49132  22.184  25.281   6.750
 7087POPC   C3A49133  22.206  25.295   7.050
 7087POPC   C4A49134  22.145  25.230   7.350
 7087POPC   C1B49135  21.998  25.497   6.450
 7087POPC   C2B49136  22.039  25.420   6.750
 7087POPC   C3B49137  21.978  25.444   7.050
 7087POPC   C4B49138  22.055  25.452   7.350
 7088POPC   NC349139  34.555  38.405   5.550
 7088POPC   PO449140  34.538  38.504   5.850
 7088POPC   GL149141  34.568  38.413   6.150
 7088POPC   GL249142  34.737  38.447   6.150
 7088POPC   C1A49143  34.595  38.443   6.450
 7088POPC   D2A49144  34.539  38.479   6.750
 7088POPC   C3A49145  34.598  38.453   7.050
 7088POPC   C4A49146  34.552  38.415   7.350
 7088POPC   C1B49147  34.873  38.479   6.450
 7088POPC   C2B49148  34.874  38.416   6.750
 7088POPC   C3B49149  34.844  38.461   7.050
 7088POPC   C4B49150  34.805  38.498   7.350
 7089POPC   NC349151  15.147   5.089   5.550
 7089POPC   PO449152  15.222   5.066   5.850
 7089POPC   GL149153  15.171   5.072   6.150
 7089POPC   GL249154  15.171   5.242   6.150
 7089POPC   C1A49155  15.222   5.135   6.450
 7089POPC   D2A49156  15.132   5.137   6.750
 7089POPC   C3A49157  15.152   5.077   7.050
 7089POPC   C4A49158  15.203   5.126   7.350
 7089POPC   C1B49159  15.128   5.309   6.450
 7089POPC   C2B49160  15.153   5.292   6.750
 7089POPC   C3B49161  15.101   5.313   7.050
 7089POPC   C4B49162  15.126   5.336   7.350
 7090POPC   NC349163  41.537  43.148   5.550
 7090POPC   PO449164  41.525  43.076   5.850
 7090POPC   GL149165  41.526  43.156   6.150
 7090POPC   GL249166  41.416  43.074   6.150
 7090POPC   C1A49167  41.530  43.068   6.450
 7090POPC   D2A49168  41.604  43.097   6.750
 7090POPC   C3A49169  41.591  43.142   7.050
 7090POPC   C4A49170  41.522  43.128   7.350
 7090POPC   C1B49171  41.289  43.010   6.450
 7090POPC   C2B49172  41.327  43.006   6.750
 7090POPC   C3B49173  41.315  43.009   7.050
 7090POPC   C4B49174  41.370  43.008   7.350
 7091POPC   NC349175  36.940  12.820   5.550
 7091POPC   PO449176  36.872  12.888   5.850
 7091POPC   GL149177  36.927  12.823   6.150
 7091POPC   GL249178  36.963  12.734   6.150
 7091POPC   C1A49179  36.942  12.868   6.450
 7091POPC   D2A49180  36.880  12.879   6.750
 7091POPC   C3A49181  36.890  12.822   7.050
 7091POPC   C4A49182  36.859  12.883   7.350
 7091POPC   C1B49183  37.081  12.651   6.450
 7091POPC   C2B49184  37.114  12.687   6.750
 7091POPC   C3B49185  37.098  12.691   7.050
 7091POPC   C4B49186  37.131  12.649   7.350
 7092POPC   NC349187  30.650  19.810   5.550
 7092POPC   PO449188  30.673  19.836   5.850
 7092POPC   GL149189  30.743  19.881   6.150
 7092POPC   GL249190  30.709  19.703   6.150
 7092POPC   C1A49191  30.705  19.825   6.450
 7092POPC   D2A49192  30.692  19.879   6.750
 7092POPC   C3A49193  30.728  19.870   7.050
 7092POPC   C4A49194  30.699  19.826   7.350
 7092POPC   C1B49195  30.640  19.565   6.450
 7092POPC   C2B49196  30.607  19.619   6.750
 7092POPC   C3B49197  30.671  19.619   7.050
 7092POPC   C4B49198  30.644  19.596   7.350
 7093POPC   NC349199  29.182  30.746   5.550
 7093POPC   PO449200  29.123  30.705   5.850
 7093POPC   GL149201  29.162  30.738   6.150
 7093POPC   GL249202  29.170  30.790   6.150
 7093POPC   C1A49203  29.185  30.675   6.450
 7093POPC   D2A49204  29.155  30.732   6.750
 7093POPC   C3A49205  29.105  30.704   7.050
 7093POPC   C4A49206  29.179  30.734   7.350
 7093POPC   C1B49207  29.269  30.937   6.450
 7093POPC   C2B49208  29.191  30.942   6.750
 7093POPC   C3B49209  29.231  30.891   7.050
 7093POPC   C4B49210  29.255  30.954   7.350
 7094POPC   NC349211  36.911  32.264   5.550
 7094POPC   PO449212  36.920  32.231   5.850
 7094POPC   GL149213  36.878  32.239   6.150
 7094POPC   GL249214  36.947  32.419   6.150
 7094POPC   C1A49215  36.922  32.234   6.450
 7094POPC   D2A49216  36.924  32.262   6.750
 7094POPC   C3A49217  36.943  32.266   7.050
 7094POPC   C4A49218  36.937  32.217   7.350
 7094POPC   C1B49219  36.958  32.500   6.450
 7094POPC   C2B49220  36.913  32.501   6.750
 7094POPC   C3B49221  36.902  32.522   7.050
 7094POPC   C4B49222  36.899  32.462   7.350
 7095POPC   NC349223   2.759  21.384   5.550
 7095POPC   PO449224   2.734  21.399   5.850
 7095POPC   GL149225   2.773  21.380   6.150
 7095POPC   GL249226   2.909  21.316   6.150
 7095POPC   C1A49227   2.770  21.407   6.450
 7095POPC   D2A49228   2.744  21.432   6.750
 7095POPC   C3A49229   2.773  21.390   7.050
 7095POPC   C4A49230   2.767  21.366   7.350
 7095POPC   C1B49231   3.039  21.337   6.450
 7095POPC   C2B49232   2.969  21.352   6.750
 7095POPC   C3B49233   2.984  21.337   7.050
 7095POPC   C4B49234   3.005  21.325   7.350
 7096POPC   NC349235  16.780  27.628   5.550
 7096POPC   PO449236  16.709  27.573   5.850
 7096POPC   GL149237  16.691  27.571   6.150
 7096POPC   GL249238  16.672  27.732   6.150
 7096POPC   C1A49239  16.760  27.610   6.450
 7096POPC   D2A49240  16.728  27.599   6.750
 7096POPC   C3A49241  16.703  27.602   7.050
 7096POPC   C4A49242  16.725  27.628   7.350
 7096POPC   C1B49243  16.536  27.815   6.450
 7096POPC   C2B49244  16.605  27.759   6.750
 7096POPC   C3B49245  16.532  27.820   7.050
 7096POPC   C4B49246  16.531  27.786   7.350
 7097POPC   NC349247  28.321  17.544   5.550
 7097POPC   PO449248  28.320  17.478   5.850
 7097POPC   GL149249  28.379  17.461   6.150
 7097POPC   GL249250  28.281  17.583   6.150
 7097POPC   C1A49251  28.396  17.484   6.450
 7097POPC   D2A49252  28.327  17.507   6.750
 7097POPC   C3A49253  28.391  17.554   7.050
 7097POPC   C4A49254  28.322  17.549   7.350
 7097POPC   C1B49255  28.250  17.748   6.450
 7097POPC   C2B49256  28.241  17.700   6.750
 7097POPC   C3B49257  28.223  17.740   7.050
 7097POPC   C4B49258  28.251  17.666   7.350
 7098POPC   NC349259  26.817   4.273   5.550
 7098POPC   PO449260  26.852   4.340   5.850
 7098POPC   GL149261  26.817   4.305   6.150
 7098POPC   GL249262  26.784   4.388   6.150
 7098POPC   C1A49263  26.789   4.310   6.450
 7098POPC   D2A49264  26.772   4.329   6.750
 7098POPC   C3A49265  26.782   4.332   7.050
 7098POPC   C4A49266  26.810   4.288   7.350
 7098POPC   C1B49267  26.723   4.587   6.450
 7098POPC   C2B49268  26.776   4.581   6.750
 7098POPC   C3B49269  26.749   4.537   7.050
 7098POPC   C4B49270  26.776   4.590   7.350
 7099POPC   NC349271  22.906  37.686   5.550
 7099POPC   PO449272  22.941  37.661   5.850
 7099POPC   GL149273  22.985  37.700   6.150
 7099POPC   GL249274  22.912  37.782   6.150
 7099POPC   C1A49275  22.909  37.656   6.450
 7099POPC   D2A49276  22.958  37.683   6.750
 7099POPC   C3A49277  22.916  37.662   7.050
 7099POPC   C4A49278  22.904  37.671   7.350
 7099POPC   C1B49279  22.898  37.950   6.450
 7099POPC   C2B49280  22.892  37.943   6.750
 7099POPC   C3B49281  22.893  37.974   7.050
 7099POPC   C4B49282  22.886  37.953   7.350
 7100POPC   NC349283  29.172  39.205   5.550
 7100POPC   PO449284  29.190  39.191   5.850
 7100POPC   GL149285  29.132  39.277   6.150
 7100POPC   GL249286  29.161  39.388   6.150
 7100POPC   C1A49287  29.129  39.221   6.450
 7100POPC   D2A49288  29.161  39.205   6.750
 7100POPC   C3A49289  29.194  39.279   7.050
 7100POPC   C4A49290  29.189  39.249   7.350
 7100POPC   C1B49291  29.247  39.465   6.450
 7100POPC   C2B49292  29.231  39.482   6.750
 7100POPC   C3B49293  29.182  39.486   7.050
 7100POPC   C4B49294  29.176  39.512   7.350
 7101POPC   NC349295  35.323  26.017   5.550
 7101POPC   PO449296  35.305  26.061   5.850
 7101POPC   GL149297  35.356  26.081   6.150
 7101POPC   GL249298  35.325  25.940   6.150
 7101POPC   C1A49299  35.357  26.077   6.450
 7101POPC   D2A49300  35.371  26.019   6.750
 7101POPC   C3A49301  35.312  26.030   7.050
 7101POPC   C4A49302  35.350  26.082   7.350
 7101POPC   C1B49303  35.264  25.781   6.450
 7101POPC   C2B49304  35.272  25.790   6.750
 7101POPC   C3B49305  35.286  25.769   7.050
 7101POPC   C4B49306  35.258  25.814   7.350
 7102POPC   NC349307  17.523   6.659   5.550
 7102POPC   PO449308  17.544   6.637   5.850
 7102POPC   GL149309  17.510   6.676   6.150
 7102POPC   GL249310  17.593   6.633   6.150
 7102POPC   C1A49311  17.503   6.632   6.450
 7102POPC   D2A49312  17.518   6.616   6.750
 7102POPC   C3A49313  17.470   6.663   7.050
 7102POPC   C4A49314  17.557   6.657   7.350
 7102POPC   C1B49315  17.759   6.530   6.450
 7102POPC   C2B49316  17.720   6.539   6.750
 7102POPC   C3B49317  17.703   6.516   7.050
 7102POPC   C4B49318  17.683   6.512   7.350
 7103POPC   NC349319   1.203  15.966   5.550
 7103POPC   PO449320   1.170  15.967   5.850
 7103POPC   GL149321   1.256  15.912   6.150
 7103POPC   GL249322   1.315  16.051   6.150
 7103POPC   C1A49323   1.236  15.928   6.450
 7103POPC   D2A49324   1.201  15.996   6.750
 7103POPC   C3A49325   1.188  15.906   7.050
 7103POPC   C4A49326   1.246  15.989   7.350
 7103POPC   C1B49327   1.380  16.178   6.450
 7103POPC   C2B49328   1.427  16.092   6.750
 7103POPC   C3B49329   1.409  16.169   7.050
 7103POPC   C4B49330   1.380  16.104   7.350
 7104POPC   NC349331   1.169   3.496   5.550
 7104POPC   PO449332   1.188   3.549   5.850
 7104POPC   GL149333   1.174   3.563   6.150
 7104POPC   GL249334   1.216   3.619   6.150
 7104POPC   C1A49335   1.219   3.539   6.450
 7104POPC   D2A49336   1.246   3.575   6.750
 7104POPC   C3A49337   1.194   3.526   7.050
 7104POPC   C4A49338   1.232   3.508   7.350
 7104POPC   C1B49339   1.164   3.767   6.450
 7104POPC   C2B49340   1.209   3.785   6.750
 7104POPC   C3B49341   1.205   3.783   7.050
 7104POPC   C4B49342   1.176   3.777   7.350
 7105POPC   NC349343   9.786   3.496   5.550
 7105POPC   PO449344   9.784   3.589   5.850
 7105POPC   GL149345   9.757   3.543   6.150
 7105POPC   GL249346   9.687   3.433   6.150
 7105POPC   C1A49347   9.772   3.509   6.450
 7105POPC   D2A49348   9.731   3.536   6.750
 7105POPC   C3A49349   9.759   3.502   7.050
 7105POPC   C4A49350   9.713   3.545   7.350
 7105POPC   C1B49351   9.744   3.306   6.450
 7105POPC   C2B49352   9.734   3.253   6.750
 7105POPC   C3B49353   9.739   3.276   7.050
 7105POPC   C4B49354   9.676   3.321   7.350
 7106POPC   NC349355   1.241   7.403   5.550
 7106POPC   PO449356   1.235   7.453   5.850
 7106POPC   GL149357   1.226   7.420   6.150
 7106POPC   GL249358   1.296   7.313   6.150
 7106POPC   C1A49359   1.221   7.409   6.450
 7106POPC   D2A49360   1.201   7.386   6.750
 7106POPC   C3A49361   1.189   7.430   7.050
 7106POPC   C4A49362   1.171   7.414   7.350
 7106POPC   C1B49363   1.362   7.262   6.450
 7106POPC   C2B49364   1.350   7.207   6.750
 7106POPC   C3B49365   1.436   7.208   7.050
 7106POPC   C4B49366   1.375   7.224   7.350
 7107POPC   NC349367   9.707  13.605   5.550
 7107POPC   PO449368   9.750  13.582   5.850
 7107POPC   GL149369   9.776  13.648   6.150
 7107POPC   GL249370   9.672  13.548   6.150
 7107POPC   C1A49371   9.730  13.615   6.450
 7107POPC   D2A49372   9.760  13.594   6.750
 7107POPC   C3A49373   9.760  13.590   7.050
 7107POPC   C4A49374   9.761  13.650   7.350
 7107POPC   C1B49375   9.567  13.466   6.450
 7107POPC   C2B49376   9.577  13.439   6.750
 7107POPC   C3B49377   9.614  13.449   7.050
 7107POPC   C4B49378   9.601  13.434   7.350
 7108POPC   NC349379   8.245  37.693   5.550
 7108POPC   PO449380   8.210  37.721   5.850
 7108POPC   GL149381   8.211  37.666   6.150
 7108POPC   GL249382   8.087  37.545   6.150
 7108POPC   C1A49383   8.219  37.669   6.450
 7108POPC   D2A49384   8.228  37.721   6.750
 7108POPC   C3A49385   8.229  37.694   7.050
 7108POPC   C4A49386   8.208  37.671   7.350
 7108POPC   C1B49387   7.992  37.460   6.450
 7108POPC   C2B49388   7.984  37.518   6.750
 7108POPC   C3B49389   7.991  37.471   7.050
 7108POPC   C4B49390   7.996  37.464   7.350
 7109POPC   NC349391  13.601  17.484   5.550
 7109POPC   PO449392  13.599  17.480   5.850
 7109POPC   GL149393  13.659  17.553   6.150
 7109POPC   GL249394  13.738  17.405   6.150
 7109POPC   C1A49395  13.653  17.472   6.450
 7109POPC   D2A49396  13.628  17.492   6.750
 7109POPC   C3A49397  13.659  17.514   7.050
 7109POPC   C4A49398  13.632  17.516   7.350
 7109POPC   C1B49399  13.765  17.264   6.450
 7109POPC   C2B49400  13.736  17.323   6.750
 7109POPC   C3B49401  13.760  17.294   7.050
 7109POPC   C4B49402  13.735  17.285   7.350
 7110POPC   NC349403  40.749   2.813   5.550
 7110POPC   PO449404  40.784   2.739   5.850
 7110POPC   GL149405  40.765   2.718   6.150
 7110POPC   GL249406  40.882   2.779   6.150
 7110POPC   C1A49407  40.778   2.776   6.450
 7110POPC   D2A49408  40.796   2.754   6.750
 7110POPC   C3A49409  40.769   2.752   7.050
 7110POPC   C4A49410  40.821   2.719   7.350
 7110POPC   C1B49411  41.000   2.880   6.450
 7110POPC   C2B49412  41.034   2.912   6.750
 7110POPC   C3B49413  40.997   2.826   7.050
 7110POPC   C4B49414  41.021   2.835   7.350
 7111POPC   NC349415  22.966  28.332   5.550
 7111POPC   PO449416  22.983  28.333   5.850
 7111POPC   GL149417  22.936  28.373   6.150
 7111POPC   GL249418  23.008  28.473   6.150
 7111POPC   C1A49419  22.937  28.339   6.450
 7111POPC   D2A49420  22.898  28.353   6.750
 7111POPC   C3A49421  22.967  28.332   7.050
 7111POPC   C4A49422  22.933  28.405   7.350
 7111POPC   C1B49423  23.030  28.619   6.450
 7111POPC   C2B49424  23.049  28.590   6.750
 7111POPC   C3B49425  23.019  28.605   7.050
 7111POPC   C4B49426  23.066  28.636   7.350
 7112POPC   NC349427   1.223  35.349   5.550
 7112POPC   PO449428   1.215  35.369   5.850
 7112POPC   GL149429   1.169  35.353   6.150
 7112POPC   GL249430   1.103  35.268   6.150
 7112POPC   C1A49431   1.190  35.322   6.450
 7112POPC   D2A49432   1.191  35.325   6.750
 7112POPC   C3A49433   1.235  35.394   7.050
 7112POPC   C4A49434   1.169  35.343   7.350
 7112POPC   C1B49435   0.990  35.161   6.450
 7112POPC   C2B49436   1.029  35.205   6.750
 7112POPC   C3B49437   1.012  35.164   7.050
 7112POPC   C4B49438   1.004  35.158   7.350
 7113POPC   NC349439  23.730  34.610   5.550
 7113POPC   PO449440  23.680  34.558   5.850
 7113POPC   GL149441  23.755  34.617   6.150
 7113POPC   GL249442  23.839  34.473   6.150
 7113POPC   C1A49443  23.665  34.576   6.450
 7113POPC   D2A49444  23.686  34.618   6.750
 7113POPC   C3A49445  23.711  34.613   7.050
 7113POPC   C4A49446  23.752  34.579   7.350
 7113POPC   C1B49447  23.881  34.342   6.450
 7113POPC   C2B49448  23.870  34.375   6.750
 7113POPC   C3B49449  23.873  34.364   7.050
 7113POPC   C4B49450  23.891  34.417   7.350
 7114POPC   NC349451  33.767  24.472   5.550
 7114POPC   PO449452  33.830  24.526   5.850
 7114POPC   GL149453  33.789  24.446   6.150
 7114POPC   GL249454  33.844  24.612   6.150
 7114POPC   C1A49455  33.760  24.478   6.450
 7114POPC   D2A49456  33.824  24.466   6.750
 7114POPC   C3A49457  33.795  24.535   7.050
 7114POPC   C4A49458  33.818  24.478   7.350
 7114POPC   C1B49459  33.979  24.720   6.450
 7114POPC   C2B49460  33.990  24.678   6.750
 7114POPC   C3B49461  33.942  24.641   7.050
 7114POPC   C4B49462  33.990  24.713   7.350
 7115POPC   NC349463  12.040  36.944   5.550
 7115POPC   PO449464  12.061  36.918   5.850
 7115POPC   GL149465  12.092  36.881   6.150
 7115POPC   GL249466  12.150  36.806   6.150
 7115POPC   C1A49467  12.107  36.948   6.450
 7115POPC   D2A49468  12.032  36.892   6.750
 7115POPC   C3A49469  12.109  36.875   7.050
 7115POPC   C4A49470  12.112  36.901   7.350
 7115POPC   C1B49471  12.200  36.685   6.450
 7115POPC   C2B49472  12.227  36.699   6.750
 7115POPC   C3B49473  12.180  36.712   7.050
 7115POPC   C4B49474  12.147  36.682   7.350
 7116POPC   NC349475  42.314  22.907   5.550
 7116POPC   PO449476  42.310  22.977   5.850
 7116POPC   GL149477  42.356  22.925   6.150
 7116POPC   GL249478  42.271  23.006   6.150
 7116POPC   C1A49479  42.318  22.904   6.450
 7116POPC   D2A49480  42.317  22.979   6.750
 7116POPC   C3A49481  42.366  22.907   7.050
 7116POPC   C4A49482  42.383  22.914   7.350
 7116POPC   C1B49483  42.129  23.122   6.450
 7116POPC   C2B49484  42.133  23.118   6.750
 7116POPC   C3B49485  42.182  23.149   7.050
 7116POPC   C4B49486  42.118  23.097   7.350
 7117POPC   NC349487  25.221  31.492   5.550
 7117POPC   PO449488  25.240  31.494   5.850
 7117POPC   GL149489  25.237  31.431   6.150
 7117POPC   GL249490  25.128  31.483   6.150
 7117POPC   C1A49491  25.221  31.481   6.450
 7117POPC   D2A49492  25.260  31.498   6.750
 7117POPC   C3A49493  25.294  31.424   7.050
 7117POPC   C4A49494  25.223  31.458   7.350
 7117POPC   C1B49495  25.044  31.467   6.450
 7117POPC   C2B49496  25.001  31.375   6.750
 7117POPC   C3B49497  24.981  31.466   7.050
 7117POPC   C4B49498  25.031  31.411   7.350
 7118POPC   NC349499  38.458  25.302   5.550
 7118POPC   PO449500  38.426  25.229   5.850
 7118POPC   GL149501  38.484  25.239   6.150
 7118POPC   GL249502  38.325  25.147   6.150
 7118POPC   C1A49503  38.456  25.242   6.450
 7118POPC   D2A49504  38.449  25.274   6.750
 7118POPC   C3A49505  38.482  25.300   7.050
 7118POPC   C4A49506  38.455  25.265   7.350
 7118POPC   C1B49507  38.240  25.131   6.450
 7118POPC   C2B49508  38.250  25.122   6.750
 7118POPC   C3B49509  38.303  25.074   7.050
 7118POPC   C4B49510  38.288  25.121   7.350
 7119POPC   NC349511   9.013  40.774   5.550
 7119POPC   PO449512   8.926  40.812   5.850
 7119POPC   GL149513   9.019  40.790   6.150
 7119POPC   GL249514   8.951  40.705   6.150
 7119POPC   C1A49515   8.930  40.755   6.450
 7119POPC   D2A49516   8.956  40.810   6.750
 7119POPC   C3A49517   8.966  40.752   7.050
 7119POPC   C4A49518   8.990  40.762   7.350
 7119POPC   C1B49519   8.938  40.539   6.450
 7119POPC   C2B49520   8.907  40.573   6.750
 7119POPC   C3B49521   8.882  40.521   7.050
 7119POPC   C4B49522   8.912  40.514   7.350
 7120POPC   NC349523  43.908  22.929   5.550
 7120POPC   PO449524  43.859  22.973   5.850
 7120POPC   GL149525  43.903  22.973   6.150
 7120POPC   GL249526  43.961  23.023   6.150
 7120POPC   C1A49527  43.915  22.902   6.450
 7120POPC   D2A49528  43.914  22.944   6.750
 7120POPC   C3A49529  43.895  22.957   7.050
 7120POPC   C4A49530  43.898  22.976   7.350
 7120POPC   C1B49531  44.137  23.018   6.450
 7120POPC   C2B49532  44.128  23.054   6.750
 7120POPC   C3B49533  44.101  23.049   7.050
 7120POPC   C4B49534  44.057  23.082   7.350
 7121POPC   NC349535   6.666  27.627   5.550
 7121POPC   PO449536   6.675  27.568   5.850
 7121POPC   GL149537   6.654  27.546   6.150
 7121POPC   GL249538   6.678  27.736   6.150
 7121POPC   C1A49539   6.632  27.572   6.450
 7121POPC   D2A49540   6.674  27.627   6.750
 7121POPC   C3A49541   6.624  27.637   7.050
 7121POPC   C4A49542   6.691  27.611   7.350
 7121POPC   C1B49543   6.739  27.791   6.450
 7121POPC   C2B49544   6.724  27.882   6.750
 7121POPC   C3B49545   6.677  27.836   7.050
 7121POPC   C4B49546   6.693  27.851   7.350
 7122POPC   NC349547  29.122   0.472   5.550
 7122POPC   PO449548  29.152   0.415   5.850
 7122POPC   GL149549  29.112   0.460   6.150
 7122POPC   GL249550  29.048   0.344   6.150
 7122POPC   C1A49551  29.110   0.442   6.450
 7122POPC   D2A49552  29.122   0.453   6.750
 7122POPC   C3A49553  29.143   0.408   7.050
 7122POPC   C4A49554  29.105   0.456   7.350
 7122POPC   C1B49555  28.972   0.268   6.450
 7122POPC   C2B49556  28.973   0.261   6.750
 7122POPC   C3B49557  28.956   0.232   7.050
 7122POPC   C4B49558  28.995   0.290   7.350
 7123POPC   NC349559  41.585  29.933   5.550
 7123POPC   PO449560  41.593  29.944   5.850
 7123POPC   GL149561  41.534  29.945   6.150
 7123POPC   GL249562  41.402  29.906   6.150
 7123POPC   C1A49563  41.576  29.878   6.450
 7123POPC   D2A49564  41.530  29.931   6.750
 7123POPC   C3A49565  41.580  29.948   7.050
 7123POPC   C4A49566  41.582  29.937   7.350
 7123POPC   C1B49567  41.323  29.904   6.450
 7123POPC   C2B49568  41.289  29.849   6.750
 7123POPC   C3B49569  41.288  29.850   7.050
 7123POPC   C4B49570  41.293  29.886   7.350
 7124POPC   NC349571  38.495   5.835   5.550
 7124POPC   PO449572  38.413   5.852   5.850
 7124POPC   GL149573  38.457   5.883   6.150
 7124POPC   GL249574  38.568   5.798   6.150
 7124POPC   C1A49575  38.421   5.897   6.450
 7124POPC   D2A49576  38.481   5.831   6.750
 7124POPC   C3A49577  38.405   5.892   7.050
 7124POPC   C4A49578  38.464   5.869   7.350
 7124POPC   C1B49579  38.646   5.728   6.450
 7124POPC   C2B49580  38.590   5.645   6.750
 7124POPC   C3B49581  38.623   5.678   7.050
 7124POPC   C4B49582  38.586   5.656   7.350
 7125POPC   NC349583  16.761  28.350   5.550
 7125POPC   PO449584  16.709  28.418   5.850
 7125POPC   GL149585  16.754  28.344   6.150
 7125POPC   GL249586  16.628  28.310   6.150
 7125POPC   C1A49587  16.685  28.415   6.450
 7125POPC   D2A49588  16.716  28.338   6.750
 7125POPC   C3A49589  16.716  28.383   7.050
 7125POPC   C4A49590  16.732  28.366   7.350
 7125POPC   C1B49591  16.518  28.340   6.450
 7125POPC   C2B49592  16.450  28.271   6.750
 7125POPC   C3B49593  16.458  28.316   7.050
 7125POPC   C4B49594  16.495  28.285   7.350
 7126POPC   NC349595  33.801   9.788   5.550
 7126POPC   PO449596  33.791   9.714   5.850
 7126POPC   GL149597  33.812   9.781   6.150
 7126POPC   GL249598  33.752   9.676   6.150
 7126POPC   C1A49599  33.801   9.774   6.450
 7126POPC   D2A49600  33.794   9.745   6.750
 7126POPC   C3A49601  33.841   9.751   7.050
 7126POPC   C4A49602  33.769   9.723   7.350
 7126POPC   C1B49603  33.643   9.522   6.450
 7126POPC   C2B49604  33.641   9.561   6.750
 7126POPC   C3B49605  33.636   9.509   7.050
 7126POPC   C4B49606  33.676   9.533   7.350
 7127POPC   NC349607  16.709   9.004   5.550
 7127POPC   PO449608  16.718   8.955   5.850
 7127POPC   GL149609  16.724   8.924   6.150
 7127POPC   GL249610  16.829   8.994   6.150
 7127POPC   C1A49611  16.698   8.932   6.450
 7127POPC   D2A49612  16.696   9.019   6.750
 7127POPC   C3A49613  16.726   8.969   7.050
 7127POPC   C4A49614  16.738   8.970   7.350
 7127POPC   C1B49615  16.927   9.118   6.450
 7127POPC   C2B49616  16.986   9.090   6.750
 7127POPC   C3B49617  16.927   9.132   7.050
 7127POPC   C4B49618  16.915   9.063   7.350
 7128POPC   NC349619   1.217  24.496   5.550
 7128POPC   PO449620   1.230  24.502   5.850
 7128POPC   GL149621   1.204  24.493   6.150
 7128POPC   GL249622   1.315  24.377   6.150
 7128POPC   C1A49623   1.232  24.458   6.450
 7128POPC   D2A49624   1.250  24.520   6.750
 7128POPC   C3A49625   1.263  24.539   7.050
 7128POPC   C4A49626   1.243  24.451   7.350
 7128POPC   C1B49627   1.410  24.354   6.450
 7128POPC   C2B49628   1.432  24.341   6.750
 7128POPC   C3B49629   1.367  24.374   7.050
 7128POPC   C4B49630   1.448  24.366   7.350
 7129POPC   NC349631  30.718  14.439   5.550
 7129POPC   PO449632  30.683  14.410   5.850
 7129POPC   GL149633  30.716  14.395   6.150
 7129POPC   GL249634  30.556  14.508   6.150
 7129POPC   C1A49635  30.671  14.378   6.450
 7129POPC   D2A49636  30.706  14.437   6.750
 7129POPC   C3A49637  30.708  14.354   7.050
 7129POPC   C4A49638  30.683  14.380   7.350
 7129POPC   C1B49639  30.513  14.563   6.450
 7129POPC   C2B49640  30.543  14.529   6.750
 7129POPC   C3B49641  30.542  14.579   7.050
 7129POPC   C4B49642  30.522  14.564   7.350
 7130POPC   NC349643  42.381   8.926   5.550
 7130POPC   PO449644  42.374   8.981   5.850
 7130POPC   GL149645  42.378   8.985   6.150
 7130POPC   GL249646  42.475   9.079   6.150
 7130POPC   C1A49647  42.320   9.022   6.450
 7130POPC   D2A49648  42.293   8.952   6.750
 7130POPC   C3A49649  42.299   9.011   7.050
 7130POPC   C4A49650  42.322   9.004   7.350
 7130POPC   C1B49651  42.539   9.148   6.450
 7130POPC   C2B49652  42.509   9.116   6.750
 7130POPC   C3B49653  42.559   9.106   7.050
 7130POPC   C4B49654  42.496   9.094   7.350
 7131POPC   NC349655  44.673  33.073   5.550
 7131POPC   PO449656  44.668  32.992   5.850
 7131POPC   GL149657  44.623  33.022   6.150
 7131POPC   GL249658  44.593  33.170   6.150
 7131POPC   C1A49659  44.617  32.980   6.450
 7131POPC   D2A49660  44.663  33.043   6.750
 7131POPC   C3A49661  44.641  33.044   7.050
 7131POPC   C4A49662  44.691  33.061   7.350
 7131POPC   C1B49663  44.472  33.236   6.450
 7131POPC   C2B49664  44.549  33.264   6.750
 7131POPC   C3B49665  44.493  33.260   7.050
 7131POPC   C4B49666  44.522  33.191   7.350
 7132POPC   NC349667  22.907  20.563   5.550
 7132POPC   PO449668  22.970  20.566   5.850
 7132POPC   GL149669  22.969  20.604   6.150
 7132POPC   GL249670  22.992  20.782   6.150
 7132POPC   C1A49671  22.972  20.591   6.450
 7132POPC   D2A49672  22.976  20.622   6.750
 7132POPC   C3A49673  22.983  20.575   7.050
 7132POPC   C4A49674  22.924  20.567   7.350
 7132POPC   C1B49675  22.960  20.829   6.450
 7132POPC   C2B49676  22.938  20.841   6.750
 7132POPC   C3B49677  22.963  20.893   7.050
 7132POPC   C4B49678  22.927  20.822   7.350
 7133POPC   NC349679   0.451  14.377   5.550
 7133POPC   PO449680   0.453  14.371   5.850
 7133POPC   GL149681   0.456  14.397   6.150
 7133POPC   GL249682   0.379  14.516   6.150
 7133POPC   C1A49683   0.408  14.440   6.450
 7133POPC   D2A49684   0.488  14.409   6.750
 7133POPC   C3A49685   0.472  14.372   7.050
 7133POPC   C4A49686   0.458  14.395   7.350
 7133POPC   C1B49687   0.262  14.608   6.450
 7133POPC   C2B49688   0.272  14.622   6.750
 7133POPC   C3B49689   0.262  14.570   7.050
 7133POPC   C4B49690   0.221  14.546   7.350
 7134POPC   NC349691  43.132  33.058   5.550
 7134POPC   PO449692  43.152  33.026   5.850
 7134POPC   GL149693  43.132  33.031   6.150
 7134POPC   GL249694  43.195  32.969   6.150
 7134POPC   C1A49695  43.108  32.978   6.450
 7134POPC   D2A49696  43.085  33.008   6.750
 7134POPC   C3A49697  43.138  33.021   7.050
 7134POPC   C4A49698  43.138  32.983   7.350
 7134POPC   C1B49699  43.261  32.920   6.450
 7134POPC   C2B49700  43.289  32.904   6.750
 7134POPC   C3B49701  43.339  32.913   7.050
 7134POPC   C4B49702  43.319  32.912   7.350
 7135POPC   NC349703   6.675  35.400   5.550
 7135POPC   PO449704   6.661  35.383   5.850
 7135POPC   GL149705   6.684  35.363   6.150
 7135POPC   GL249706   6.673  35.469   6.150
 7135POPC   C1A49707   6.657  35.368   6.450
 7135POPC   D2A49708   6.668  35.310   6.750
 7135POPC   C3A49709   6.660  35.378   7.050
 7135POPC   C4A49710   6.626  35.365   7.350
 7135POPC   C1B49711   6.788  35.549   6.450
 7135POPC   C2B49712   6.751  35.535   6.750
 7135POPC   C3B49713   6.802  35.532   7.050
 7135POPC   C4B49714   6.761  35.583   7.350
 7136POPC   NC349715   0.433  29.918   5.550
 7136POPC   PO449716   0.486  29.954   5.850
 7136POPC   GL149717   0.481  29.916   6.150
 7136POPC   GL249718   0.417  30.038   6.150
 7136POPC   C1A49719   0.474  29.907   6.450
 7136POPC   D2A49720   0.439  29.966   6.750
 7136POPC   C3A49721   0.468  29.962   7.050
 7136POPC   C4A49722   0.432  29.872   7.350
 7136POPC   C1B49723   0.456  30.172   6.450
 7136POPC   C2B49724   0.398  30.165   6.750
 7136POPC   C3B49725   0.428  30.178   7.050
 7136POPC   C4B49726   0.427  30.135   7.350
 7137POPC   NC349727  29.180  36.857   5.550
 7137POPC   PO449728  29.097  36.922   5.850
 7137POPC   GL149729  29.128  36.864   6.150
 7137POPC   GL249730  29.302  36.960   6.150
 7137POPC   C1A49731  29.096  36.868   6.450
 7137POPC   D2A49732  29.117  36.912   6.750
 7137POPC   C3A49733  29.132  36.931   7.050
 7137POPC   C4A49734  29.173  36.953   7.350
 7137POPC   C1B49735  29.427  36.930   6.450
 7137POPC   C2B49736  29.390  36.895   6.750
 7137POPC   C3B49737  29.362  36.916   7.050
 7137POPC   C4B49738  29.416  36.881   7.350
 7138POPC   NC349739  44.616  30.717   5.550
 7138POPC   PO449740  44.621  30.738   5.850
 7138POPC   GL149741  44.623  30.682   6.150
 7138POPC   GL249742  44.726  30.546   6.150
 7138POPC   C1A49743  44.681  30.653   6.450
 7138POPC   D2A49744  44.677  30.700   6.750
 7138POPC   C3A49745  44.650  30.650   7.050
 7138POPC   C4A49746  44.629  30.718   7.350
 7138POPC   C1B49747  44.811  30.526   6.450
 7138POPC   C2B49748  44.777  30.442   6.750
 7138POPC   C3B49749  44.779  30.532   7.050
 7138POPC   C4B49750  44.756  30.443   7.350
 7139POPC   NC349751  15.200  18.253   5.550
 7139POPC   PO449752  15.184  18.251   5.850
 7139POPC   GL149753  15.193  18.286   6.150
 7139POPC   GL249754  15.318  18.366   6.150
 7139POPC   C1A49755  15.158  18.315   6.450
 7139POPC   D2A49756  15.229  18.275   6.750
 7139POPC   C3A49757  15.161  18.295   7.050
 7139POPC   C4A49758  15.149  18.293   7.350
 7139POPC   C1B49759  15.355  18.410   6.450
 7139POPC   C2B49760  15.392  18.485   6.750
 7139POPC   C3B49761  15.352  18.501   7.050
 7139POPC   C4B49762  15.314  18.463   7.350
 7140POPC   NC349763  21.337  43.110   5.550
 7140POPC   PO449764  21.421  43.102   5.850
 7140POPC   GL149765  21.395  43.125   6.150
 7140POPC   GL249766  21.416  43.275   6.150
 7140POPC   C1A49767  21.371  43.083   6.450
 7140POPC   D2A49768  21.415  43.068   6.750
 7140POPC   C3A49769  21.340  43.114   7.050
 7140POPC   C4A49770  21.412  43.081   7.350
 7140POPC   C1B49771  21.464  43.351   6.450
 7140POPC   C2B49772  21.494  43.354   6.750
 7140POPC   C3B49773  21.473  43.374   7.050
 7140POPC   C4B49774  21.505  43.310   7.350
 7141POPC   NC349775   7.432  33.814   5.550
 7141POPC   PO449776   7.466  33.849   5.850
 7141POPC   GL149777   7.451  33.786   6.150
 7141POPC   GL249778   7.554  33.710   6.150
 7141POPC   C1A49779   7.412  33.764   6.450
 7141POPC   D2A49780   7.470  33.819   6.750
 7141POPC   C3A49781   7.415  33.817   7.050
 7141POPC   C4A49782   7.433  33.838   7.350
 7141POPC   C1B49783   7.633  33.747   6.450
 7141POPC   C2B49784   7.620  33.737   6.750
 7141POPC   C3B49785   7.642  33.663   7.050
 7141POPC   C4B49786   7.645  33.718   7.350
 7142POPC   NC349787   3.549  26.088   5.550
 7142POPC   PO449788   3.506  26.045   5.850
 7142POPC   GL149789   3.577  26.026   6.150
 7142POPC   GL249790   3.496  25.888   6.150
 7142POPC   C1A49791   3.555  26.091   6.450
 7142POPC   D2A49792   3.586  26.040   6.750
 7142POPC   C3A49793   3.499  26.029   7.050
 7142POPC   C4A49794   3.546  26.061   7.350
 7142POPC   C1B49795   3.481  25.832   6.450
 7142POPC   C2B49796   3.464  25.813   6.750
 7142POPC   C3B49797   3.456  25.770   7.050
 7142POPC   C4B49798   3.544  25.811   7.350
 7143POPC   NC349799  13.603  33.757   5.550
 7143POPC   PO449800  13.622  33.826   5.850
 7143POPC   GL149801  13.587  33.776   6.150
 7143POPC   GL249802  13.715  33.876   6.150
 7143POPC   C1A49803  13.650  33.849   6.450
 7143POPC   D2A49804  13.626  33.811   6.750
 7143POPC   C3A49805  13.651  33.805   7.050
 7143POPC   C4A49806  13.636  33.800   7.350
 7143POPC   C1B49807  13.886  33.971   6.450
 7143POPC   C2B49808  13.813  33.899   6.750
 7143POPC   C3B49809  13.788  33.888   7.050
 7143POPC   C4B49810  13.867  33.987   7.350
 7144POPC   NC349811  16.694  38.490   5.550
 7144POPC   PO449812  16.738  38.443   5.850
 7144POPC   GL149813  16.779  38.428   6.150
 7144POPC   GL249814  16.883  38.369   6.150
 7144POPC   C1A49815  16.761  38.451   6.450
 7144POPC   D2A49816  16.766  38.435   6.750
 7144POPC   C3A49817  16.720  38.492   7.050
 7144POPC   C4A49818  16.701  38.417   7.350
 7144POPC   C1B49819  17.002  38.336   6.450
 7144POPC   C2B49820  16.949  38.379   6.750
 7144POPC   C3B49821  16.937  38.320   7.050
 7144POPC   C4B49822  16.965  38.338   7.350
 7145POPC   NC349823  19.818  17.476   5.550
 7145POPC   PO449824  19.822  17.491   5.850
 7145POPC   GL149825  19.815  17.518   6.150
 7145POPC   GL249826  19.833  17.669   6.150
 7145POPC   C1A49827  19.873  17.477   6.450
 7145POPC   D2A49828  19.872  17.502   6.750
 7145POPC   C3A49829  19.849  17.521   7.050
 7145POPC   C4A49830  19.881  17.507   7.350
 7145POPC   C1B49831  19.708  17.722   6.450
 7145POPC   C2B49832  19.756  17.736   6.750
 7145POPC   C3B49833  19.735  17.727   7.050
 7145POPC   C4B49834  19.730  17.769   7.350
 7146POPC   NC349835  10.556  12.059   5.550
 7146POPC   PO449836  10.486  12.032   5.850
 7146POPC   GL149837  10.537  12.078   6.150
 7146POPC   GL249838  10.447  11.990   6.150
 7146POPC   C1A49839  10.485  12.066   6.450
 7146POPC   D2A49840  10.538  12.084   6.750
 7146POPC   C3A49841  10.506  12.042   7.050
 7146POPC   C4A49842  10.498  12.115   7.350
 7146POPC   C1B49843  10.416  11.849   6.450
 7146POPC   C2B49844  10.413  11.836   6.750
 7146POPC   C3B49845  10.341  11.838   7.050
 7146POPC   C4B49846  10.379  11.872   7.350
 7147POPC   NC349847  11.278  40.816   5.550
 7147POPC   PO449848  11.321  40.780   5.850
 7147POPC   GL149849  11.319  40.814   6.150
 7147POPC   GL249850  11.322  40.621   6.150
 7147POPC   C1A49851  11.333  40.777   6.450
 7147POPC   D2A49852  11.282  40.803   6.750
 7147POPC   C3A49853  11.317  40.829   7.050
 7147POPC   C4A49854  11.305  40.816   7.350
 7147POPC   C1B49855  11.324  40.556   6.450
 7147POPC   C2B49856  11.361  40.527   6.750
 7147POPC   C3B49857  11.345  40.548   7.050
 7147POPC   C4B49858  11.348  40.556   7.350
 7148POPC   NC349859   9.720  37.659   5.550
 7148POPC   PO449860   9.769  37.696   5.850
 7148POPC   GL149861   9.711  37.635   6.150
 7148POPC   GL249862   9.634  37.722   6.150
 7148POPC   C1A49863   9.733  37.646   6.450
 7148POPC   D2A49864   9.757  37.716   6.750
 7148POPC   C3A49865   9.759  37.689   7.050
 7148POPC   C4A49866   9.782  37.718   7.350
 7148POPC   C1B49867   9.521  37.855   6.450
 7148POPC   C2B49868   9.523  37.859   6.750
 7148POPC   C3B49869   9.523  37.806   7.050
 7148POPC   C4B49870   9.537  37.825   7.350
 7149POPC   NC349871  13.629  43.157   5.550
 7149POPC   PO449872  13.666  43.103   5.850
 7149POPC   GL149873  13.634  43.061   6.150
 7149POPC   GL249874  13.549  43.219   6.150
 7149POPC   C1A49875  13.594  43.122   6.450
 7149POPC   D2A49876  13.653  43.088   6.750
 7149POPC   C3A49877  13.595  43.148   7.050
 7149POPC   C4A49878  13.601  43.116   7.350
 7149POPC   C1B49879  13.530  43.282   6.450
 7149POPC   C2B49880  13.489  43.338   6.750
 7149POPC   C3B49881  13.479  43.347   7.050
 7149POPC   C4B49882  13.507  43.288   7.350
 7150POPC   NC349883  26.003  12.091   5.550
 7150POPC   PO449884  26.088  12.085   5.850
 7150POPC   GL149885  26.051  12.082   6.150
 7150POPC   GL249886  25.991  11.971   6.150
 7150POPC   C1A49887  26.038  12.092   6.450
 7150POPC   D2A49888  26.019  12.124   6.750
 7150POPC   C3A49889  26.049  12.103   7.050
 7150POPC   C4A49890  26.050  12.053   7.350
 7150POPC   C1B49891  25.942  11.897   6.450
 7150POPC   C2B49892  25.909  11.850   6.750
 7150POPC   C3B49893  25.958  11.817   7.050
 7150POPC   C4B49894  25.929  11.814   7.350
 7151POPC   NC349895  25.307  22.935   5.550
 7151POPC   PO449896  25.254  22.936   5.850
 7151POPC   GL149897  25.303  22.952   6.150
 7151POPC   GL249898  25.131  22.909   6.150
 7151POPC   C1A49899  25.298  22.978   6.450
 7151POPC   D2A49900  25.266  22.899   6.750
 7151POPC   C3A49901  25.275  22.961   7.050
 7151POPC   C4A49902  25.297  22.986   7.350
 7151POPC   C1B49903  25.060  22.758   6.450
 7151POPC   C2B49904  25.012  22.807   6.750
 7151POPC   C3B49905  25.018  22.819   7.050
 7151POPC   C4B49906  25.045  22.841   7.350
 7152POPC   NC349907  40.826  39.205   5.550
 7152POPC   PO449908  40.796  39.239   5.850
 7152POPC   GL149909  40.772  39.243   6.150
 7152POPC   GL249910  40.735  39.088   6.150
 7152POPC   C1A49911  40.794  39.205   6.450
 7152POPC   D2A49912  40.754  39.233   6.750
 7152POPC   C3A49913  40.783  39.263   7.050
 7152POPC   C4A49914  40.769  39.245   7.350
 7152POPC   C1B49915  40.688  39.040   6.450
 7152POPC   C2B49916  40.699  39.016   6.750
 7152POPC   C3B49917  40.716  39.039   7.050
 7152POPC   C4B49918  40.716  39.022   7.350
 7153POPC   NC349919   5.887  37.685   5.550
 7153POPC   PO449920   5.889  37.662   5.850
 7153POPC   GL149921   5.887  37.642   6.150
 7153POPC   GL249922   6.004  37.721   6.150
 7153POPC   C1A49923   5.896  37.655   6.450
 7153POPC   D2A49924   5.898  37.665   6.750
 7153POPC   C3A49925   5.859  37.664   7.050
 7153POPC   C4A49926   5.908  37.653   7.350
 7153POPC   C1B49927   6.058  37.869   6.450
 7153POPC   C2B49928   6.040  37.867   6.750
 7153POPC   C3B49929   6.013  37.840   7.050
 7153POPC   C4B49930   5.999  37.906   7.350
 7154POPC   NC349931   1.229  26.033   5.550
 7154POPC   PO449932   1.239  26.067   5.850
 7154POPC   GL149933   1.185  26.038   6.150
 7154POPC   GL249934   1.334  26.066   6.150
 7154POPC   C1A49935   1.243  26.024   6.450
 7154POPC   D2A49936   1.247  26.035   6.750
 7154POPC   C3A49937   1.205  26.001   7.050
 7154POPC   C4A49938   1.183  26.035   7.350
 7154POPC   C1B49939   1.424  26.158   6.450
 7154POPC   C2B49940   1.410  26.177   6.750
 7154POPC   C3B49941   1.461  26.167   7.050
 7154POPC   C4B49942   1.414  26.174   7.350
 7155POPC   NC349943  37.648  18.297   5.550
 7155POPC   PO449944  37.657  18.327   5.850
 7155POPC   GL149945  37.701  18.255   6.150
 7155POPC   GL249946  37.824  18.302   6.150
 7155POPC   C1A49947  37.672  18.325   6.450
 7155POPC   D2A49948  37.646  18.245   6.750
 7155POPC   C3A49949  37.710  18.285   7.050
 7155POPC   C4A49950  37.702  18.253   7.350
 7155POPC   C1B49951  37.959  18.256   6.450
 7155POPC   C2B49952  37.948  18.301   6.750
 7155POPC   C3B49953  37.977  18.269   7.050
 7155POPC   C4B49954  37.883  18.312   7.350
 7156POPC   NC349955  40.794  13.656   5.550
 7156POPC   PO449956  40.736  13.638   5.850
 7156POPC   GL149957  40.800  13.644   6.150
 7156POPC   GL249958  40.683  13.669   6.150
 7156POPC   C1A49959  40.785  13.593   6.450
 7156POPC   D2A49960  40.803  13.582   6.750
 7156POPC   C3A49961  40.817  13.674   7.050
 7156POPC   C4A49962  40.773  13.676   7.350
 7156POPC   C1B49963  40.540  13.661   6.450
 7156POPC   C2B49964  40.492  13.611   6.750
 7156POPC   C3B49965  40.574  13.638   7.050
 7156POPC   C4B49966  40.524  13.695   7.350
 7157POPC   NC349967  26.074  37.697   5.550
 7157POPC   PO449968  26.032  37.668   5.850
 7157POPC   GL149969  25.994  37.698   6.150
 7157POPC   GL249970  26.051  37.606   6.150
 7157POPC   C1A49971  26.056  37.723   6.450
 7157POPC   D2A49972  26.050  37.641   6.750
 7157POPC   C3A49973  26.069  37.670   7.050
 7157POPC   C4A49974  25.995  37.656   7.350
 7157POPC   C1B49975  26.143  37.484   6.450
 7157POPC   C2B49976  26.102  37.478   6.750
 7157POPC   C3B49977  26.173  37.477   7.050
 7157POPC   C4B49978  26.127  37.449   7.350
 7158POPC   NC349979  29.927  37.641   5.550
 7158POPC   PO449980  29.956  37.659   5.850
 7158POPC   GL149981  29.960  37.676   6.150
 7158POPC   GL249982  29.844  37.578   6.150
 7158POPC   C1A49983  29.952  37.672   6.450
 7158POPC   D2A49984  29.879  37.646   6.750
 7158POPC   C3A49985  29.886  37.681   7.050
 7158POPC   C4A49986  29.874  37.726   7.350
 7158POPC   C1B49987  29.837  37.457   6.450
 7158POPC   C2B49988  29.841  37.439   6.750
 7158POPC   C3B49989  29.885  37.422   7.050
 7158POPC   C4B49990  29.830  37.466   7.350
 7159POPC   NC349991   5.070   9.018   5.550
 7159POPC   PO449992   5.106   8.979   5.850
 7159POPC   GL149993   5.063   8.981   6.150
 7159POPC   GL249994   5.114   8.806   6.150
 7159POPC   C1A49995   5.049   9.022   6.450
 7159POPC   D2A49996   5.090   8.977   6.750
 7159POPC   C3A49997   5.078   8.994   7.050
 7159POPC   C4A49998   5.073   8.990   7.350
 7159POPC   C1B49999   5.206   8.733   6.450
 7159POPC   C2B50000   5.161   8.708   6.750
 7159POPC   C3B50001   5.189   8.783   7.050
 7159POPC   C4B50002   5.215   8.735   7.350
 7160POPC   NC350003  41.515  12.851   5.550
 7160POPC   PO450004  41.599  12.804   5.850
 7160POPC   GL150005  41.605  12.879   6.150
 7160POPC   GL250006  41.579  12.939   6.150
 7160POPC   C1A50007  41.597  12.877   6.450
 7160POPC   D2A50008  41.572  12.821   6.750
 7160POPC   C3A50009  41.589  12.871   7.050
 7160POPC   C4A50010  41.533  12.835   7.350
 7160POPC   C1B50011  41.561  13.112   6.450
 7160POPC   C2B50012  41.583  13.098   6.750
 7160POPC   C3B50013  41.552  13.099   7.050
 7160POPC   C4B50014  41.513  13.051   7.350
 7161POPC   NC350015   8.209  19.026   5.550
 7161POPC   PO450016   8.223  19.083   5.850
 7161POPC   GL150017   8.212  19.038   6.150
 7161POPC   GL250018   8.164  18.924   6.150
 7161POPC   C1A50019   8.150  19.054   6.450
 7161POPC   D2A50020   8.182  19.067   6.750
 7161POPC   C3A50021   8.192  19.087   7.050
 7161POPC   C4A50022   8.195  19.043   7.350
 7161POPC   C1B50023   8.122  18.835   6.450
 7161POPC   C2B50024   8.055  18.836   6.750
 7161POPC   C3B50025   8.124  18.852   7.050
 7161POPC   C4B50026   8.110  18.854   7.350
 7162POPC   NC350027   4.269  35.360   5.550
 7162POPC   PO450028   4.357  35.315   5.850
 7162POPC   GL150029   4.323  35.327   6.150
 7162POPC   GL250030   4.192  35.327   6.150
 7162POPC   C1A50031   4.296  35.357   6.450
 7162POPC   D2A50032   4.271  35.384   6.750
 7162POPC   C3A50033   4.313  35.378   7.050
 7162POPC   C4A50034   4.367  35.329   7.350
 7162POPC   C1B50035   4.151  35.262   6.450
 7162POPC   C2B50036   4.121  35.230   6.750
 7162POPC   C3B50037   4.149  35.195   7.050
 7162POPC   C4B50038   4.072  35.232   7.350
 7163POPC   NC350039   1.950  16.773   5.550
 7163POPC   PO450040   2.036  16.716   5.850
 7163POPC   GL150041   1.975  16.738   6.150
 7163POPC   GL250042   1.923  16.575   6.150
 7163POPC   C1A50043   1.979  16.742   6.450
 7163POPC   D2A50044   2.024  16.682   6.750
 7163POPC   C3A50045   2.038  16.739   7.050
 7163POPC   C4A50046   2.035  16.693   7.350
 7163POPC   C1B50047   1.905  16.453   6.450
 7163POPC   C2B50048   1.956  16.509   6.750
 7163POPC   C3B50049   1.889  16.473   7.050
 7163POPC   C4B50050   1.923  16.479   7.350
 7164POPC   NC350051  26.055  21.416   5.550
 7164POPC   PO450052  26.022  21.354   5.850
 7164POPC   GL150053  25.992  21.369   6.150
 7164POPC   GL250054  26.010  21.549   6.150
 7164POPC   C1A50055  26.034  21.367   6.450
 7164POPC   D2A50056  26.036  21.421   6.750
 7164POPC   C3A50057  26.019  21.396   7.050
 7164POPC   C4A50058  26.081  21.343   7.350
 7164POPC   C1B50059  25.943  21.592   6.450
 7164POPC   C2B50060  25.933  21.568   6.750
 7164POPC   C3B50061  25.942  21.593   7.050
 7164POPC   C4B50062  25.922  21.624   7.350
 7165POPC   NC350063  22.964   3.582   5.550
 7165POPC   PO450064  22.925   3.506   5.850
 7165POPC   GL150065  22.892   3.559   6.150
 7165POPC   GL250066  22.947   3.402   6.150
 7165POPC   C1A50067  22.978   3.586   6.450
 7165POPC   D2A50068  22.905   3.502   6.750
 7165POPC   C3A50069  22.952   3.503   7.050
 7165POPC   C4A50070  22.932   3.514   7.350
 7165POPC   C1B50071  23.069   3.314   6.450
 7165POPC   C2B50072  23.087   3.343   6.750
 7165POPC   C3B50073  23.070   3.290   7.050
 7165POPC   C4B50074  23.047   3.343   7.350
 7166POPC   NC350075  29.136  38.492   5.550
 7166POPC   PO450076  29.148  38.504   5.850
 7166POPC   GL150077  29.133  38.447   6.150
 7166POPC   GL250078  29.232  38.459   6.150
 7166POPC   C1A50079  29.101  38.406   6.450
 7166POPC   D2A50080  29.110  38.481   6.750
 7166POPC   C3A50081  29.122  38.441   7.050
 7166POPC   C4A50082  29.114  38.442   7.350
 7166POPC   C1B50083  29.346  38.388   6.450
 7166POPC   C2B50084  29.386  38.432   6.750
 7166POPC   C3B50085  29.367  38.434   7.050
 7166POPC   C4B50086  29.432  38.336   7.350
 7167POPC   NC350087  40.020   6.626   5.550
 7167POPC   PO450088  39.966   6.611   5.850
 7167POPC   GL150089  40.007   6.608   6.150
 7167POPC   GL250090  39.932   6.605   6.150
 7167POPC   C1A50091  39.964   6.671   6.450
 7167POPC   D2A50092  40.019   6.621   6.750
 7167POPC   C3A50093  40.001   6.641   7.050
 7167POPC   C4A50094  39.963   6.602   7.350
 7167POPC   C1B50095  39.809   6.518   6.450
 7167POPC   C2B50096  39.835   6.509   6.750
 7167POPC   C3B50097  39.822   6.477   7.050
 7167POPC   C4B50098  39.777   6.543   7.350
 7168POPC   NC350099  19.084  36.877   5.550
 7168POPC   PO450100  19.100  36.911   5.850
 7168POPC   GL150101  19.038  36.939   6.150
 7168POPC   GL250102  19.195  36.986   6.150
 7168POPC   C1A50103  19.065  36.857   6.450
 7168POPC   D2A50104  19.108  36.890   6.750
 7168POPC   C3A50105  19.036  36.948   7.050
 7168POPC   C4A50106  19.025  36.876   7.350
 7168POPC   C1B50107  19.324  37.064   6.450
 7168POPC   C2B50108  19.238  37.052   6.750
 7168POPC   C3B50109  19.319  37.065   7.050
 7168POPC   C4B50110  19.322  37.062   7.350
 7169POPC   NC350111   4.319  25.308   5.550
 7169POPC   PO450112   4.352  25.261   5.850
 7169POPC   GL150113   4.304  25.286   6.150
 7169POPC   GL250114   4.230  25.143   6.150
 7169POPC   C1A50115   4.294  25.274   6.450
 7169POPC   D2A50116   4.350  25.265   6.750
 7169POPC   C3A50117   4.319  25.267   7.050
 7169POPC   C4A50118   4.280  25.233   7.350
 7169POPC   C1B50119   4.213  25.017   6.450
 7169POPC   C2B50120   4.152  25.023   6.750
 7169POPC   C3B50121   4.221  25.055   7.050
 7169POPC   C4B50122   4.164  25.036   7.350
 7170POPC   NC350123   5.871  38.502   5.550
 7170POPC   PO450124   5.909  38.487   5.850
 7170POPC   GL150125   5.889  38.502   6.150
 7170POPC   GL250126   5.729  38.459   6.150
 7170POPC   C1A50127   5.912  38.433   6.450
 7170POPC   D2A50128   5.849  38.496   6.750
 7170POPC   C3A50129   5.866  38.445   7.050
 7170POPC   C4A50130   5.824  38.435   7.350
 7170POPC   C1B50131   5.619  38.423   6.450
 7170POPC   C2B50132   5.570  38.481   6.750
 7170POPC   C3B50133   5.655  38.482   7.050
 7170POPC   C4B50134   5.652  38.446   7.350
 7171POPC   NC350135   8.194  30.733   5.550
 7171POPC   PO450136   8.235  30.725   5.850
 7171POPC   GL150137   8.154  30.730   6.150
 7171POPC   GL250138   8.365  30.732   6.150
 7171POPC   C1A50139   8.246  30.689   6.450
 7171POPC   D2A50140   8.209  30.719   6.750
 7171POPC   C3A50141   8.149  30.684   7.050
 7171POPC   C4A50142   8.177  30.688   7.350
 7171POPC   C1B50143   8.451  30.724   6.450
 7171POPC   C2B50144   8.425  30.721   6.750
 7171POPC   C3B50145   8.420  30.703   7.050
 7171POPC   C4B50146   8.487  30.686   7.350
 7172POPC   NC350147  44.630  13.583   5.550
 7172POPC   PO450148  44.706  13.617   5.850
 7172POPC   GL150149  44.640  13.622   6.150
 7172POPC   GL250150  44.557  13.659   6.150
 7172POPC   C1A50151  44.689  13.630   6.450
 7172POPC   D2A50152  44.647  13.645   6.750
 7172POPC   C3A50153  44.654  13.594   7.050
 7172POPC   C4A50154  44.676  13.623   7.350
 7172POPC   C1B50155  44.472  13.749   6.450
 7172POPC   C2B50156  44.498  13.796   6.750
 7172POPC   C3B50157  44.424  13.726   7.050
 7172POPC   C4B50158  44.456  13.779   7.350
 7173POPC   NC350159  41.523   2.034   5.550
 7173POPC   PO450160  41.594   1.982   5.850
 7173POPC   GL150161  41.577   1.952   6.150
 7173POPC   GL250162  41.488   1.843   6.150
 7173POPC   C1A50163  41.584   2.028   6.450
 7173POPC   D2A50164  41.572   1.995   6.750
 7173POPC   C3A50165  41.578   1.971   7.050
 7173POPC   C4A50166  41.604   1.988   7.350
 7173POPC   C1B50167  41.476   1.755   6.450
 7173POPC   C2B50168  41.521   1.752   6.750
 7173POPC   C3B50169  41.501   1.766   7.050
 7173POPC   C4B50170  41.550   1.743   7.350
 7174POPC   NC350171   5.051  31.491   5.550
 7174POPC   PO450172   5.096  31.451   5.850
 7174POPC   GL150173   5.092  31.456   6.150
 7174POPC   GL250174   5.168  31.432   6.150
 7174POPC   C1A50175   5.114  31.506   6.450
 7174POPC   D2A50176   5.132  31.505   6.750
 7174POPC   C3A50177   5.051  31.464   7.050
 7174POPC   C4A50178   5.103  31.431   7.350
 7174POPC   C1B50179   5.243  31.281   6.450
 7174POPC   C2B50180   5.276  31.283   6.750
 7174POPC   C3B50181   5.269  31.275   7.050
 7174POPC   C4B50182   5.280  31.261   7.350
 7175POPC   NC350183  40.741   6.640   5.550
 7175POPC   PO450184  40.829   6.670   5.850
 7175POPC   GL150185  40.771   6.625   6.150
 7175POPC   GL250186  40.819   6.552   6.150
 7175POPC   C1A50187  40.822   6.633   6.450
 7175POPC   D2A50188  40.736   6.667   6.750
 7175POPC   C3A50189  40.815   6.658   7.050
 7175POPC   C4A50190  40.797   6.616   7.350
 7175POPC   C1B50191  40.839   6.400   6.450
 7175POPC   C2B50192  40.847   6.437   6.750
 7175POPC   C3B50193  40.827   6.353   7.050
 7175POPC   C4B50194  40.837   6.400   7.350
 7176POPC   NC350195  19.829  36.917   5.550
 7176POPC   PO450196  19.859  36.874   5.850
 7176POPC   GL150197  19.830  36.877   6.150
 7176POPC   GL250198  19.705  36.855   6.150
 7176POPC   C1A50199  19.823  36.884   6.450
 7176POPC   D2A50200  19.876  36.868   6.750
 7176POPC   C3A50201  19.853  36.864   7.050
 7176POPC   C4A50202  19.803  36.855   7.350
 7176POPC   C1B50203  19.582  36.929   6.450
 7176POPC   C2B50204  19.611  36.917   6.750
 7176POPC   C3B50205  19.584  36.890   7.050
 7176POPC   C4B50206  19.631  36.941   7.350
 7177POPC   NC350207   5.863  21.417   5.550
 7177POPC   PO450208   5.830  21.401   5.850
 7177POPC   GL150209   5.890  21.364   6.150
 7177POPC   GL250210   5.868  21.307   6.150
 7177POPC   C1A50211   5.893  21.399   6.450
 7177POPC   D2A50212   5.864  21.363   6.750
 7177POPC   C3A50213   5.848  21.428   7.050
 7177POPC   C4A50214   5.874  21.428   7.350
 7177POPC   C1B50215   5.835  21.171   6.450
 7177POPC   C2B50216   5.806  21.109   6.750
 7177POPC   C3B50217   5.752  21.198   7.050
 7177POPC   C4B50218   5.797  21.184   7.350
 7178POPC   NC350219  29.958  42.302   5.550
 7178POPC   PO450220  29.932  42.367   5.850
 7178POPC   GL150221  29.910  42.351   6.150
 7178POPC   GL250222  30.012  42.288   6.150
 7178POPC   C1A50223  29.925  42.365   6.450
 7178POPC   D2A50224  29.897  42.334   6.750
 7178POPC   C3A50225  29.900  42.337   7.050
 7178POPC   C4A50226  29.905  42.369   7.350
 7178POPC   C1B50227  30.121  42.167   6.450
 7178POPC   C2B50228  30.062  42.137   6.750
 7178POPC   C3B50229  30.114  42.120   7.050
 7178POPC   C4B50230  30.109  42.147   7.350
 7179POPC   NC350231  37.701  19.065   5.550
 7179POPC   PO450232  37.673  19.104   5.850
 7179POPC   GL150233  37.670  19.019   6.150
 7179POPC   GL250234  37.579  19.170   6.150
 7179POPC   C1A50235  37.709  19.047   6.450
 7179POPC   D2A50236  37.668  19.059   6.750
 7179POPC   C3A50237  37.709  19.101   7.050
 7179POPC   C4A50238  37.727  19.044   7.350
 7179POPC   C1B50239  37.502  19.244   6.450
 7179POPC   C2B50240  37.491  19.198   6.750
 7179POPC   C3B50241  37.504  19.196   7.050
 7179POPC   C4B50242  37.469  19.218   7.350
 7180POPC   NC350243  31.501   5.120   5.550
 7180POPC   PO450244  31.463   5.141   5.850
 7180POPC   GL150245  31.510   5.078   6.150
 7180POPC   GL250246  31.428   5.028   6.150
 7180POPC   C1A50247  31.451   5.112   6.450
 7180POPC   D2A50248  31.438   5.066   6.750
 7180POPC   C3A50249  31.440   5.118   7.050
 7180POPC   C4A50250  31.474   5.118   7.350
 7180POPC   C1B50251  31.290   4.936   6.450
 7180POPC   C2B50252  31.292   4.875   6.750
 7180POPC   C3B50253  31.345   4.885   7.050
 7180POPC   C4B50254  31.287   4.921   7.350
 7181POPC   NC350255  36.916  33.837   5.550
 7181POPC   PO450256  36.938  33.778   5.850
 7181POPC   GL150257  36.915  33.782   6.150
 7181POPC   GL250258  36.827  33.830   6.150
 7181POPC   C1A50259  36.919  33.761   6.450
 7181POPC   D2A50260  36.872  33.849   6.750
 7181POPC   C3A50261  36.922  33.844   7.050
 7181POPC   C4A50262  36.862  33.815   7.350
 7181POPC   C1B50263  36.692  33.836   6.450
 7181POPC   C2B50264  36.678  33.849   6.750
 7181POPC   C3B50265  36.652  33.805   7.050
 7181POPC   C4B50266  36.644  33.852   7.350
 7182POPC   NC350267   8.980  23.723   5.550
 7182POPC   PO450268   9.000  23.759   5.850
 7182POPC   GL150269   8.983  23.708   6.150
 7182POPC   GL250270   9.061  23.656   6.150
 7182POPC   C1A50271   9.011  23.718   6.450
 7182POPC   D2A50272   8.935  23.704   6.750
 7182POPC   C3A50273   9.008  23.753   7.050
 7182POPC   C4A50274   8.971  23.680   7.350
 7182POPC   C1B50275   9.237  23.630   6.450
 7182POPC   C2B50276   9.199  23.620   6.750
 7182POPC   C3B50277   9.195  23.619   7.050
 7182POPC   C4B50278   9.201  23.545   7.350
 7183POPC   NC350279  31.520  11.300   5.550
 7183POPC   PO450280  31.512  11.291   5.850
 7183POPC   GL150281  31.482  11.296   6.150
 7183POPC   GL250282  31.483  11.469   6.150
 7183POPC   C1A50283  31.520  11.343   6.450
 7183POPC   D2A50284  31.457  11.333   6.750
 7183POPC   C3A50285  31.521  11.349   7.050
 7183POPC   C4A50286  31.436  11.322   7.350
 7183POPC   C1B50287  31.507  11.547   6.450
 7183POPC   C2B50288  31.525  11.531   6.750
 7183POPC   C3B50289  31.516  11.573   7.050
 7183POPC   C4B50290  31.501  11.586   7.350
 7184POPC   NC350291  22.159  31.490   5.550
 7184POPC   PO450292  22.164  31.494   5.850
 7184POPC   GL150293  22.180  31.504   6.150
 7184POPC   GL250294  22.303  31.481   6.150
 7184POPC   C1A50295  22.139  31.507   6.450
 7184POPC   D2A50296  22.139  31.500   6.750
 7184POPC   C3A50297  22.158  31.478   7.050
 7184POPC   C4A50298  22.127  31.501   7.350
 7184POPC   C1B50299  22.349  31.356   6.450
 7184POPC   C2B50300  22.411  31.436   6.750
 7184POPC   C3B50301  22.412  31.387   7.050
 7184POPC   C4B50302  22.362  31.363   7.350
 7185POPC   NC350303  38.421  22.163   5.550
 7185POPC   PO450304  38.408  22.125   5.850
 7185POPC   GL150305  38.420  22.153   6.150
 7185POPC   GL250306  38.523  22.186   6.150
 7185POPC   C1A50307  38.453  22.180   6.450
 7185POPC   D2A50308  38.476  22.148   6.750
 7185POPC   C3A50309  38.424  22.196   7.050
 7185POPC   C4A50310  38.460  22.210   7.350
 7185POPC   C1B50311  38.675  22.261   6.450
 7185POPC   C2B50312  38.646  22.262   6.750
 7185POPC   C3B50313  38.636  22.328   7.050
 7185POPC   C4B50314  38.715  22.280   7.350
 7186POPC   NC350315  35.337  25.260   5.550
 7186POPC   PO450316  35.331  25.240   5.850
 7186POPC   GL150317  35.344  25.269   6.150
 7186POPC   GL250318  35.263  25.272   6.150
 7186POPC   C1A50319  35.355  25.250   6.450
 7186POPC   D2A50320  35.379  25.220   6.750
 7186POPC   C3A50321  35.390  25.259   7.050
 7186POPC   C4A50322  35.382  25.257   7.350
 7186POPC   C1B50323  35.091  25.357   6.450
 7186POPC   C2B50324  35.164  25.331   6.750
 7186POPC   C3B50325  35.120  25.407   7.050
 7186POPC   C4B50326  35.163  25.360   7.350
 7187POPC   NC350327  31.458  35.331   5.550
 7187POPC   PO450328  31.486  35.372   5.850
 7187POPC   GL150329  31.490  35.367   6.150
 7187POPC   GL250330  31.388  35.466   6.150
 7187POPC   C1A50331  31.515  35.377   6.450
 7187POPC   D2A50332  31.454  35.396   6.750
 7187POPC   C3A50333  31.454  35.396   7.050
 7187POPC   C4A50334  31.495  35.369   7.350
 7187POPC   C1B50335  31.245  35.477   6.450
 7187POPC   C2B50336  31.257  35.502   6.750
 7187POPC   C3B50337  31.270  35.461   7.050
 7187POPC   C4B50338  31.311  35.469   7.350
 7188POPC   NC350339  41.532  42.352   5.550
 7188POPC   PO450340  41.520  42.356   5.850
 7188POPC   GL150341  41.602  42.359   6.150
 7188POPC   GL250342  41.580  42.244   6.150
 7188POPC   C1A50343  41.542  42.351   6.450
 7188POPC   D2A50344  41.521  42.338   6.750
 7188POPC   C3A50345  41.607  42.356   7.050
 7188POPC   C4A50346  41.598  42.338   7.350
 7188POPC   C1B50347  41.609  42.131   6.450
 7188POPC   C2B50348  41.631  42.066   6.750
 7188POPC   C3B50349  41.639  42.062   7.050
 7188POPC   C4B50350  41.691  42.116   7.350
 7189POPC   NC350351  29.168   1.221   5.550
 7189POPC   PO450352  29.105   1.178   5.850
 7189POPC   GL150353  29.165   1.229   6.150
 7189POPC   GL250354  29.140   1.301   6.150
 7189POPC   C1A50355  29.109   1.218   6.450
 7189POPC   D2A50356  29.154   1.201   6.750
 7189POPC   C3A50357  29.158   1.219   7.050
 7189POPC   C4A50358  29.123   1.166   7.350
 7189POPC   C1B50359  29.170   1.492   6.450
 7189POPC   C2B50360  29.226   1.458   6.750
 7189POPC   C3B50361  29.194   1.442   7.050
 7189POPC   C4B50362  29.192   1.498   7.350
 7190POPC   NC350363  33.016  43.081   5.550
 7190POPC   PO450364  33.066  43.158   5.850
 7190POPC   GL150365  33.010  43.155   6.150
 7190POPC   GL250366  33.065  42.988   6.150
 7190POPC   C1A50367  32.976  43.066   6.450
 7190POPC   D2A50368  32.981  43.062   6.750
 7190POPC   C3A50369  33.067  43.063   7.050
 7190POPC   C4A50370  33.036  43.102   7.350
 7190POPC   C1B50371  33.149  42.886   6.450
 7190POPC   C2B50372  33.115  42.909   6.750
 7190POPC   C3B50373  33.157  42.883   7.050
 7190POPC   C4B50374  33.159  42.886   7.350
 7191POPC   NC350375  41.553  40.823   5.550
 7191POPC   PO450376  41.514  40.796   5.850
 7191POPC   GL150377  41.511  40.828   6.150
 7191POPC   GL250378  41.481  40.867   6.150
 7191POPC   C1A50379  41.601  40.826   6.450
 7191POPC   D2A50380  41.593  40.766   6.750
 7191POPC   C3A50381  41.603  40.784   7.050
 7191POPC   C4A50382  41.558  40.761   7.350
 7191POPC   C1B50383  41.455  40.949   6.450
 7191POPC   C2B50384  41.435  41.020   6.750
 7191POPC   C3B50385  41.409  41.028   7.050
 7191POPC   C4B50386  41.442  41.039   7.350
 7192POPC   NC350387  13.656   5.045   5.550
 7192POPC   PO450388  13.674   5.094   5.850
 7192POPC   GL150389  13.584   5.059   6.150
 7192POPC   GL250390  13.461   5.095   6.150
 7192POPC   C1A50391  13.632   5.096   6.450
 7192POPC   D2A50392  13.594   5.126   6.750
 7192POPC   C3A50393  13.665   5.055   7.050
 7192POPC   C4A50394  13.666   5.062   7.350
 7192POPC   C1B50395  13.418   5.226   6.450
 7192POPC   C2B50396  13.371   5.178   6.750
 7192POPC   C3B50397  13.427   5.192   7.050
 7192POPC   C4B50398  13.346   5.186   7.350
 7193POPC   NC350399  27.601  44.615   5.550
 7193POPC   PO450400  27.582  44.616   5.850
 7193POPC   GL150401  27.588  44.667   6.150
 7193POPC   GL250402  27.506  44.797   6.150
 7193POPC   C1A50403  27.560  44.657   6.450
 7193POPC   D2A50404  27.622  44.677   6.750
 7193POPC   C3A50405  27.545  44.707   7.050
 7193POPC   C4A50406  27.617  44.673   7.350
 7193POPC   C1B50407  27.474  44.831   6.450
 7193POPC   C2B50408  27.492  44.907   6.750
 7193POPC   C3B50409  27.408  44.851   7.050
 7193POPC   C4B50410  27.485  44.896   7.350
 7194POPC   NC350411  19.061  42.349   5.550
 7194POPC   PO450412  19.037  42.320   5.850
 7194POPC   GL150413  19.091  42.371   6.150
 7194POPC   GL250414  18.970  42.479   6.150
 7194POPC   C1A50415  19.084  42.293   6.450
 7194POPC   D2A50416  19.032  42.374   6.750
 7194POPC   C3A50417  19.040  42.292   7.050
 7194POPC   C4A50418  19.028  42.315   7.350
 7194POPC   C1B50419  18.936  42.586   6.450
 7194POPC   C2B50420  18.900  42.584   6.750
 7194POPC   C3B50421  18.884  42.572   7.050
 7194POPC   C4B50422  18.956  42.491   7.350
 7195POPC   NC350423   2.724  36.887   5.550
 7195POPC   PO450424   2.763  36.898   5.850
 7195POPC   GL150425   2.742  36.944   6.150
 7195POPC   GL250426   2.897  36.953   6.150
 7195POPC   C1A50427   2.799  36.902   6.450
 7195POPC   D2A50428   2.792  36.855   6.750
 7195POPC   C3A50429   2.814  36.907   7.050
 7195POPC   C4A50430   2.783  36.890   7.350
 7195POPC   C1B50431   3.046  36.964   6.450
 7195POPC   C2B50432   3.059  36.911   6.750
 7195POPC   C3B50433   3.052  36.982   7.050
 7195POPC   C4B50434   3.005  36.933   7.350
 7196POPC   NC350435  40.051  21.434   5.550
 7196POPC   PO450436  39.976  21.416   5.850
 7196POPC   GL150437  39.972  21.383   6.150
 7196POPC   GL250438  40.093  21.350   6.150
 7196POPC   C1A50439  39.991  21.423   6.450
 7196POPC   D2A50440  40.002  21.352   6.750
 7196POPC   C3A50441  40.043  21.402   7.050
 7196POPC   C4A50442  39.993  21.403   7.350
 7196POPC   C1B50443  40.209  21.355   6.450
 7196POPC   C2B50444  40.212  21.360   6.750
 7196POPC   C3B50445  40.201  21.288   7.050
 7196POPC   C4B50446  40.222  21.339   7.350
 7197POPC   NC350447  23.697  15.161   5.550
 7197POPC   PO450448  23.737  15.209   5.850
 7197POPC   GL150449  23.703  15.158   6.150
 7197POPC   GL250450  23.737  15.095   6.150
 7197POPC   C1A50451  23.688  15.204   6.450
 7197POPC   D2A50452  23.741  15.223   6.750
 7197POPC   C3A50453  23.690  15.163   7.050
 7197POPC   C4A50454  23.678  15.195   7.350
 7197POPC   C1B50455  23.813  14.945   6.450
 7197POPC   C2B50456  23.823  14.949   6.750
 7197POPC   C3B50457  23.816  14.988   7.050
 7197POPC   C4B50458  23.863  14.940   7.350
 7198POPC   NC350459   5.894  41.563   5.550
 7198POPC   PO450460   5.878  41.571   5.850
 7198POPC   GL150461   5.850  41.603   6.150
 7198POPC   GL250462   5.732  41.608   6.150
 7198POPC   C1A50463   5.840  41.594   6.450
 7198POPC   D2A50464   5.907  41.579   6.750
 7198POPC   C3A50465   5.899  41.533   7.050
 7198POPC   C4A50466   5.905  41.512   7.350
 7198POPC   C1B50467   5.624  41.645   6.450
 7198POPC   C2B50468   5.591  41.564   6.750
 7198POPC   C3B50469   5.574  41.559   7.050
 7198POPC   C4B50470   5.635  41.562   7.350
 7199POPC   NC350471  24.530  39.982   5.550
 7199POPC   PO450472  24.532  40.030   5.850
 7199POPC   GL150473  24.530  39.976   6.150
 7199POPC   GL250474  24.406  40.053   6.150
 7199POPC   C1A50475  24.444  39.996   6.450
 7199POPC   D2A50476  24.451  39.957   6.750
 7199POPC   C3A50477  24.450  40.025   7.050
 7199POPC   C4A50478  24.506  40.056   7.350
 7199POPC   C1B50479  24.280  40.140   6.450
 7199POPC   C2B50480  24.279  40.127   6.750
 7199POPC   C3B50481  24.319  40.131   7.050
 7199POPC   C4B50482  24.335  40.133   7.350
 7200POPC   NC350483   3.559  15.182   5.550
 7200POPC   PO450484   3.549  15.132   5.850
 7200POPC   GL150485   3.517  15.130   6.150
 7200POPC   GL250486   3.659  15.068   6.150
 7200POPC   C1A50487   3.509  15.167   6.450
 7200POPC   D2A50488   3.538  15.219   6.750
 7200POPC   C3A50489   3.522  15.144   7.050
 7200POPC   C4A50490   3.504  15.188   7.350
 7200POPC   C1B50491   3.760  15.003   6.450
 7200POPC   C2B50492   3.739  14.978   6.750
 7200POPC   C3B50493   3.716  15.044   7.050
 7200POPC   C4B50494   3.742  15.003   7.350
 7201POPC   NC350495   9.734  20.638   5.550
 7201POPC   PO450496   9.749  20.615   5.850
 7201POPC   GL150497   9.753  20.624   6.150
 7201POPC   GL250498   9.829  20.563   6.150
 7201POPC   C1A50499   9.761  20.572   6.450
 7201POPC   D2A50500   9.740  20.657   6.750
 7201POPC   C3A50501   9.714  20.584   7.050
 7201POPC   C4A50502   9.787  20.635   7.350
 7201POPC   C1B50503   9.962  20.546   6.450
 7201POPC   C2B50504  10.004  20.548   6.750
 7201POPC   C3B50505  10.006  20.457   7.050
 7201POPC   C4B50506   9.951  20.471   7.350
 7202POPC   NC350507  38.450  24.534   5.550
 7202POPC   PO450508  38.494  24.453   5.850
 7202POPC   GL150509  38.476  24.511   6.150
 7202POPC   GL250510  38.481  24.638   6.150
 7202POPC   C1A50511  38.446  24.517   6.450
 7202POPC   D2A50512  38.482  24.485   6.750
 7202POPC   C3A50513  38.419  24.488   7.050
 7202POPC   C4A50514  38.414  24.484   7.350
 7202POPC   C1B50515  38.485  24.783   6.450
 7202POPC   C2B50516  38.458  24.764   6.750
 7202POPC   C3B50517  38.435  24.750   7.050
 7202POPC   C4B50518  38.446  24.698   7.350
 7203POPC   NC350519  22.123  15.197   5.550
 7203POPC   PO450520  22.206  15.157   5.850
 7203POPC   GL150521  22.182  15.191   6.150
 7203POPC   GL250522  22.004  15.199   6.150
 7203POPC   C1A50523  22.149  15.137   6.450
 7203POPC   D2A50524  22.191  15.164   6.750
 7203POPC   C3A50525  22.121  15.208   7.050
 7203POPC   C4A50526  22.120  15.147   7.350
 7203POPC   C1B50527  21.947  15.181   6.450
 7203POPC   C2B50528  21.959  15.149   6.750
 7203POPC   C3B50529  21.931  15.153   7.050
 7203POPC   C4B50530  21.894  15.194   7.350
 7204POPC   NC350531  33.058  24.440   5.550
 7204POPC   PO450532  33.074  24.490   5.850
 7204POPC   GL150533  33.028  24.511   6.150
 7204POPC   GL250534  32.912  24.597   6.150
 7204POPC   C1A50535  33.069  24.515   6.450
 7204POPC   D2A50536  32.990  24.513   6.750
 7204POPC   C3A50537  33.051  24.449   7.050
 7204POPC   C4A50538  33.001  24.508   7.350
 7204POPC   C1B50539  32.877  24.648   6.450
 7204POPC   C2B50540  32.891  24.697   6.750
 7204POPC   C3B50541  32.845  24.685   7.050
 7204POPC   C4B50542  32.845  24.614   7.350
 7205POPC   NC350543  19.051  40.785   5.550
 7205POPC   PO450544  19.031  40.755   5.850
 7205POPC   GL150545  19.017  40.765   6.150
 7205POPC   GL250546  19.046  40.901   6.150
 7205POPC   C1A50547  19.017  40.798   6.450
 7205POPC   D2A50548  19.051  40.769   6.750
 7205POPC   C3A50549  19.046  40.752   7.050
 7205POPC   C4A50550  19.062  40.818   7.350
 7205POPC   C1B50551  19.054  41.051   6.450
 7205POPC   C2B50552  19.008  40.983   6.750
 7205POPC   C3B50553  19.038  41.078   7.050
 7205POPC   C4B50554  19.062  41.045   7.350
 7206POPC   NC350555   9.726  12.839   5.550
 7206POPC   PO450556   9.765  12.900   5.850
 7206POPC   GL150557   9.698  12.884   6.150
 7206POPC   GL250558   9.647  12.877   6.150
 7206POPC   C1A50559   9.701  12.838   6.450
 7206POPC   D2A50560   9.714  12.833   6.750
 7206POPC   C3A50561   9.750  12.869   7.050
 7206POPC   C4A50562   9.750  12.871   7.350
 7206POPC   C1B50563   9.522  12.788   6.450
 7206POPC   C2B50564   9.460  12.805   6.750
 7206POPC   C3B50565   9.449  12.846   7.050
 7206POPC   C4B50566   9.496  12.875   7.350
 7207POPC   NC350567   5.901  20.641   5.550
 7207POPC   PO450568   5.822  20.650   5.850
 7207POPC   GL150569   5.833  20.614   6.150
 7207POPC   GL250570   5.930  20.501   6.150
 7207POPC   C1A50571   5.901  20.574   6.450
 7207POPC   D2A50572   5.882  20.570   6.750
 7207POPC   C3A50573   5.834  20.610   7.050
 7207POPC   C4A50574   5.835  20.650   7.350
 7207POPC   C1B50575   6.047  20.394   6.450
 7207POPC   C2B50576   5.961  20.451   6.750
 7207POPC   C3B50577   6.004  20.443   7.050
 7207POPC   C4B50578   6.041  20.406   7.350
 7208POPC   NC350579  22.160  11.318   5.550
 7208POPC   PO450580  22.201  11.341   5.850
 7208POPC   GL150581  22.166  11.335   6.150
 7208POPC   GL250582  22.264  11.364   6.150
 7208POPC   C1A50583  22.182  11.300   6.450
 7208POPC   D2A50584  22.141  11.318   6.750
 7208POPC   C3A50585  22.162  11.307   7.050
 7208POPC   C4A50586  22.135  11.309   7.350
 7208POPC   C1B50587  22.344  11.451   6.450
 7208POPC   C2B50588  22.313  11.500   6.750
 7208POPC   C3B50589  22.347  11.457   7.050
 7208POPC   C4B50590  22.340  11.436   7.350
 7209POPC   NC350591  42.293  33.780   5.550
 7209POPC   PO450592  42.297  33.843   5.850
 7209POPC   GL150593  42.305  33.774   6.150
 7209POPC   GL250594  42.223  33.730   6.150
 7209POPC   C1A50595  42.286  33.803   6.450
 7209POPC   D2A50596  42.336  33.816   6.750
 7209POPC   C3A50597  42.347  33.785   7.050
 7209POPC   C4A50598  42.377  33.765   7.350
 7209POPC   C1B50599  42.119  33.767   6.450
 7209POPC   C2B50600  42.119  33.728   6.750
 7209POPC   C3B50601  42.057  33.766   7.050
 7209POPC   C4B50602  42.069  33.711   7.350
 7210POPC   NC350603  26.071  36.117   5.550
 7210POPC   PO450604  25.997  36.157   5.850
 7210POPC   GL150605  26.029  36.099   6.150
 7210POPC   GL250606  26.174  36.043   6.150
 7210POPC   C1A50607  26.064  36.123   6.450
 7210POPC   D2A50608  26.007  36.177   6.750
 7210POPC   C3A50609  26.052  36.137   7.050
 7210POPC   C4A50610  25.992  36.176   7.350
 7210POPC   C1B50611  26.235  35.941   6.450
 7210POPC   C2B50612  26.197  35.944   6.750
 7210POPC   C3B50613  26.177  35.914   7.050
 7210POPC   C4B50614  26.247  35.926   7.350
 7211POPC   NC350615   7.371   8.994   5.550
 7211POPC   PO450616   7.416   9.008   5.850
 7211POPC   GL150617   7.415   8.960   6.150
 7211POPC   GL250618   7.509   9.064   6.150
 7211POPC   C1A50619   7.373   8.932   6.450
 7211POPC   D2A50620   7.438   8.987   6.750
 7211POPC   C3A50621   7.451   8.972   7.050
 7211POPC   C4A50622   7.398   8.976   7.350
 7211POPC   C1B50623   7.632   9.168   6.450
 7211POPC   C2B50624   7.582   9.158   6.750
 7211POPC   C3B50625   7.614   9.126   7.050
 7211POPC   C4B50626   7.613   9.143   7.350
 7212POPC   NC350627  43.869  43.126   5.550
 7212POPC   PO450628  43.890  43.088   5.850
 7212POPC   GL150629  43.935  43.130   6.150
 7212POPC   GL250630  43.997  43.142   6.150
 7212POPC   C1A50631  43.868  43.144   6.450
 7212POPC   D2A50632  43.898  43.141   6.750
 7212POPC   C3A50633  43.926  43.078   7.050
 7212POPC   C4A50634  43.932  43.103   7.350
 7212POPC   C1B50635  44.131  43.170   6.450
 7212POPC   C2B50636  44.093  43.164   6.750
 7212POPC   C3B50637  44.136  43.113   7.050
 7212POPC   C4B50638  44.109  43.194   7.350
 7213POPC   NC350639  25.261  29.193   5.550
 7213POPC   PO450640  25.264  29.162   5.850
 7213POPC   GL150641  25.244  29.140   6.150
 7213POPC   GL250642  25.391  29.275   6.150
 7213POPC   C1A50643  25.231  29.148   6.450
 7213POPC   D2A50644  25.273  29.176   6.750
 7213POPC   C3A50645  25.267  29.160   7.050
 7213POPC   C4A50646  25.286  29.126   7.350
 7213POPC   C1B50647  25.429  29.295   6.450
 7213POPC   C2B50648  25.474  29.353   6.750
 7213POPC   C3B50649  25.419  29.373   7.050
 7213POPC   C4B50650  25.462  29.324   7.350
 7214POPC   NC350651  18.259  19.808   5.550
 7214POPC   PO450652  18.295  19.825   5.850
 7214POPC   GL150653  18.332  19.824   6.150
 7214POPC   GL250654  18.297  19.704   6.150
 7214POPC   C1A50655  18.258  19.833   6.450
 7214POPC   D2A50656  18.241  19.791   6.750
 7214POPC   C3A50657  18.330  19.839   7.050
 7214POPC   C4A50658  18.286  19.859   7.350
 7214POPC   C1B50659  18.324  19.553   6.450
 7214POPC   C2B50660  18.336  19.606   6.750
 7214POPC   C3B50661  18.350  19.614   7.050
 7214POPC   C4B50662  18.373  19.637   7.350
 7215POPC   NC350663  19.881  31.459   5.550
 7215POPC   PO450664  19.802  31.423   5.850
 7215POPC   GL150665  19.863  31.447   6.150
 7215POPC   GL250666  19.931  31.447   6.150
 7215POPC   C1A50667  19.841  31.490   6.450
 7215POPC   D2A50668  19.865  31.441   6.750
 7215POPC   C3A50669  19.792  31.428   7.050
 7215POPC   C4A50670  19.841  31.481   7.350
 7215POPC   C1B50671  20.122  31.452   6.450
 7215POPC   C2B50672  20.039  31.523   6.750
 7215POPC   C3B50673  20.123  31.472   7.050
 7215POPC   C4B50674  20.091  31.450   7.350
 7216POPC   NC350675  22.975  39.223   5.550
 7216POPC   PO450676  22.893  39.247   5.850
 7216POPC   GL150677  22.955  39.219   6.150
 7216POPC   GL250678  22.809  39.143   6.150
 7216POPC   C1A50679  22.943  39.252   6.450
 7216POPC   D2A50680  22.900  39.277   6.750
 7216POPC   C3A50681  22.902  39.249   7.050
 7216POPC   C4A50682  22.932  39.248   7.350
 7216POPC   C1B50683  22.792  39.094   6.450
 7216POPC   C2B50684  22.735  39.056   6.750
 7216POPC   C3B50685  22.752  39.060   7.050
 7216POPC   C4B50686  22.781  39.003   7.350
 7217POPC   NC350687  42.333  15.982   5.550
 7217POPC   PO450688  42.338  15.950   5.850
 7217POPC   GL150689  42.285  15.923   6.150
 7217POPC   GL250690  42.455  15.890   6.150
 7217POPC   C1A50691  42.309  16.005   6.450
 7217POPC   D2A50692  42.293  15.934   6.750
 7217POPC   C3A50693  42.363  15.963   7.050
 7217POPC   C4A50694  42.317  15.959   7.350
 7217POPC   C1B50695  42.450  15.756   6.450
 7217POPC   C2B50696  42.469  15.800   6.750
 7217POPC   C3B50697  42.460  15.761   7.050
 7217POPC   C4B50698  42.450  15.754   7.350
 7218POPC   NC350699  25.286  33.050   5.550
 7218POPC   PO450700  25.235  33.051   5.850
 7218POPC   GL150701  25.313  33.016   6.150
 7218POPC   GL250702  25.311  33.108   6.150
 7218POPC   C1A50703  25.229  33.064   6.450
 7218POPC   D2A50704  25.304  33.017   6.750
 7218POPC   C3A50705  25.279  33.023   7.050
 7218POPC   C4A50706  25.303  32.992   7.350
 7218POPC   C1B50707  25.344  33.268   6.450
 7218POPC   C2B50708  25.289  33.300   6.750
 7218POPC   C3B50709  25.317  33.238   7.050
 7218POPC   C4B50710  25.273  33.254   7.350
 7219POPC   NC350711  12.095  25.278   5.550
 7219POPC   PO450712  12.094  25.300   5.850
 7219POPC   GL150713  12.077  25.311   6.150
 7219POPC   GL250714  12.123  25.145   6.150
 7219POPC   C1A50715  12.029  25.282   6.450
 7219POPC   D2A50716  12.052  25.285   6.750
 7219POPC   C3A50717  12.080  25.275   7.050
 7219POPC   C4A50718  12.056  25.237   7.350
 7219POPC   C1B50719  12.170  25.029   6.450
 7219POPC   C2B50720  12.145  25.065   6.750
 7219POPC   C3B50721  12.193  25.008   7.050
 7219POPC   C4B50722  12.222  25.059   7.350
 7220POPC   NC350723  29.164  44.615   5.550
 7220POPC   PO450724  29.106  44.696   5.850
 7220POPC   GL150725  29.189  44.645   6.150
 7220POPC   GL250726  29.115  44.738   6.150
 7220POPC   C1A50727  29.131  44.703   6.450
 7220POPC   D2A50728  29.098  44.658   6.750
 7220POPC   C3A50729  29.105  44.617   7.050
 7220POPC   C4A50730  29.160  44.683   7.350
 7220POPC   C1B50731  29.064  44.859   6.450
 7220POPC   C2B50732  29.008  44.908   6.750
 7220POPC   C3B50733  29.010  44.908   7.050
 7220POPC   C4B50734  29.061  44.915   7.350
 7221POPC   NC350735   3.567  27.611   5.550
 7221POPC   PO450736   3.530  27.553   5.850
 7221POPC   GL150737   3.588  27.581   6.150
 7221POPC   GL250738   3.607  27.623   6.150
 7221POPC   C1A50739   3.591  27.577   6.450
 7221POPC   D2A50740   3.561  27.569   6.750
 7221POPC   C3A50741   3.508  27.567   7.050
 7221POPC   C4A50742   3.517  27.620   7.350
 7221POPC   C1B50743   3.808  27.720   6.450
 7221POPC   C2B50744   3.775  27.743   6.750
 7221POPC   C3B50745   3.762  27.696   7.050
 7221POPC   C4B50746   3.787  27.682   7.350
 7222POPC   NC350747  43.152  13.645   5.550
 7222POPC   PO450748  43.092  13.677   5.850
 7222POPC   GL150749  43.136  13.628   6.150
 7222POPC   GL250750  43.051  13.693   6.150
 7222POPC   C1A50751  43.076  13.593   6.450
 7222POPC   D2A50752  43.085  13.632   6.750
 7222POPC   C3A50753  43.140  13.660   7.050
 7222POPC   C4A50754  43.109  13.620   7.350
 7222POPC   C1B50755  42.938  13.841   6.450
 7222POPC   C2B50756  42.912  13.797   6.750
 7222POPC   C3B50757  42.921  13.784   7.050
 7222POPC   C4B50758  42.933  13.784   7.350
 7223POPC   NC350759  32.276   4.330   5.550
 7223POPC   PO450760  32.277   4.328   5.850
 7223POPC   GL150761  32.276   4.339   6.150
 7223POPC   GL250762  32.257   4.181   6.150
 7223POPC   C1A50763  32.209   4.329   6.450
 7223POPC   D2A50764  32.227   4.358   6.750
 7223POPC   C3A50765  32.217   4.307   7.050
 7223POPC   C4A50766  32.265   4.323   7.350
 7223POPC   C1B50767  32.226   4.065   6.450
 7223POPC   C2B50768  32.236   4.094   6.750
 7223POPC   C3B50769  32.260   4.106   7.050
 7223POPC   C4B50770  32.290   4.076   7.350
 7224POPC   NC350771  43.859  26.041   5.550
 7224POPC   PO450772  43.931  26.067   5.850
 7224POPC   GL150773  43.864  26.021   6.150
 7224POPC   GL250774  43.899  25.895   6.150
 7224POPC   C1A50775  43.879  26.050   6.450
 7224POPC   D2A50776  43.928  26.011   6.750
 7224POPC   C3A50777  43.872  26.086   7.050
 7224POPC   C4A50778  43.852  26.051   7.350
 7224POPC   C1B50779  43.982  25.830   6.450
 7224POPC   C2B50780  43.915  25.771   6.750
 7224POPC   C3B50781  43.910  25.769   7.050
 7224POPC   C4B50782  43.930  25.769   7.350
 7225POPC   NC350783  10.567  36.158   5.550
 7225POPC   PO450784  10.550  36.107   5.850
 7225POPC   GL150785  10.554  36.155   6.150
 7225POPC   GL250786  10.581  36.026   6.150
 7225POPC   C1A50787  10.545  36.084   6.450
 7225POPC   D2A50788  10.548  36.080   6.750
 7225POPC   C3A50789  10.493  36.163   7.050
 7225POPC   C4A50790  10.514  36.087   7.350
 7225POPC   C1B50791  10.708  35.947   6.450
 7225POPC   C2B50792  10.663  35.890   6.750
 7225POPC   C3B50793  10.630  35.898   7.050
 7225POPC   C4B50794  10.699  35.894   7.350
 7226POPC   NC350795   4.357  44.640   5.550
 7226POPC   PO450796   4.282  44.635   5.850
 7226POPC   GL150797   4.272  44.618   6.150
 7226POPC   GL250798   4.152  44.645   6.150
 7226POPC   C1A50799   4.363  44.703   6.450
 7226POPC   D2A50800   4.349  44.686   6.750
 7226POPC   C3A50801   4.367  44.636   7.050
 7226POPC   C4A50802   4.340  44.705   7.350
 7226POPC   C1B50803   4.039  44.647   6.450
 7226POPC   C2B50804   4.043  44.603   6.750
 7226POPC   C3B50805   4.118  44.610   7.050
 7226POPC   C4B50806   4.057  44.579   7.350
 7227POPC   NC350807  13.592  22.171   5.550
 7227POPC   PO450808  13.664  22.203   5.850
 7227POPC   GL150809  13.591  22.135   6.150
 7227POPC   GL250810  13.740  22.060   6.150
 7227POPC   C1A50811  13.677  22.136   6.450
 7227POPC   D2A50812  13.658  22.158   6.750
 7227POPC   C3A50813  13.612  22.156   7.050
 7227POPC   C4A50814  13.677  22.146   7.350
 7227POPC   C1B50815  13.763  22.000   6.450
 7227POPC   C2B50816  13.857  21.943   6.750
 7227POPC   C3B50817  13.847  21.984   7.050
 7227POPC   C4B50818  13.797  21.971   7.350
 7228POPC   NC350819  26.078  20.643   5.550
 7228POPC   PO450820  26.076  20.621   5.850
 7228POPC   GL150821  26.062  20.658   6.150
 7228POPC   GL250822  26.175  20.526   6.150
 7228POPC   C1A50823  25.997  20.657   6.450
 7228POPC   D2A50824  26.060  20.659   6.750
 7228POPC   C3A50825  26.017  20.649   7.050
 7228POPC   C4A50826  26.029  20.593   7.350
 7228POPC   C1B50827  26.188  20.491   6.450
 7228POPC   C2B50828  26.242  20.475   6.750
 7228POPC   C3B50829  26.193  20.434   7.050
 7228POPC   C4B50830  26.231  20.474   7.350
 7229POPC   NC350831  13.596   7.415   5.550
 7229POPC   PO450832  13.600   7.451   5.850
 7229POPC   GL150833  13.625   7.373   6.150
 7229POPC   GL250834  13.761   7.334   6.150
 7229POPC   C1A50835  13.667   7.409   6.450
 7229POPC   D2A50836  13.639   7.397   6.750
 7229POPC   C3A50837  13.653   7.417   7.050
 7229POPC   C4A50838  13.581   7.446   7.350
 7229POPC   C1B50839  13.832   7.321   6.450
 7229POPC   C2B50840  13.840   7.276   6.750
 7229POPC   C3B50841  13.835   7.260   7.050
 7229POPC   C4B50842  13.844   7.268   7.350
 7230POPC   NC350843  21.391  23.670   5.550
 7230POPC   PO450844  21.370  23.712   5.850
 7230POPC   GL150845  21.405  23.665   6.150
 7230POPC   GL250846  21.320  23.780   6.150
 7230POPC   C1A50847  21.388  23.676   6.450
 7230POPC   D2A50848  21.339  23.734   6.750
 7230POPC   C3A50849  21.400  23.667   7.050
 7230POPC   C4A50850  21.406  23.755   7.350
 7230POPC   C1B50851  21.306  23.967   6.450
 7230POPC   C2B50852  21.285  23.953   6.750
 7230POPC   C3B50853  21.293  23.928   7.050
 7230POPC   C4B50854  21.307  23.901   7.350
 7231POPC   NC350855  12.812  43.087   5.550
 7231POPC   PO450856  12.829  43.151   5.850
 7231POPC   GL150857  12.823  43.138   6.150
 7231POPC   GL250858  12.901  43.196   6.150
 7231POPC   C1A50859  12.895  43.079   6.450
 7231POPC   D2A50860  12.849  43.155   6.750
 7231POPC   C3A50861  12.834  43.095   7.050
 7231POPC   C4A50862  12.874  43.129   7.350
 7231POPC   C1B50863  13.022  43.320   6.450
 7231POPC   C2B50864  13.063  43.330   6.750
 7231POPC   C3B50865  13.036  43.277   7.050
 7231POPC   C4B50866  12.988  43.292   7.350
 7232POPC   NC350867  15.939   3.561   5.550
 7232POPC   PO450868  15.918   3.539   5.850
 7232POPC   GL150869  15.957   3.589   6.150
 7232POPC   GL250870  15.824   3.633   6.150
 7232POPC   C1A50871  15.996   3.588   6.450
 7232POPC   D2A50872  15.971   3.540   6.750
 7232POPC   C3A50873  15.929   3.552   7.050
 7232POPC   C4A50874  15.953   3.544   7.350
 7232POPC   C1B50875  15.728   3.706   6.450
 7232POPC   C2B50876  15.724   3.631   6.750
 7232POPC   C3B50877  15.695   3.642   7.050
 7232POPC   C4B50878  15.740   3.719   7.350
 7233POPC   NC350879  39.250  18.323   5.550
 7233POPC   PO450880  39.181  18.240   5.850
 7233POPC   GL150881  39.231  18.277   6.150
 7233POPC   GL250882  39.102  18.243   6.150
 7233POPC   C1A50883  39.243  18.319   6.450
 7233POPC   D2A50884  39.271  18.304   6.750
 7233POPC   C3A50885  39.197  18.258   7.050
 7233POPC   C4A50886  39.193  18.245   7.350
 7233POPC   C1B50887  39.031  18.240   6.450
 7233POPC   C2B50888  38.944  18.270   6.750
 7233POPC   C3B50889  38.998  18.296   7.050
 7233POPC   C4B50890  38.956  18.264   7.350
 7234POPC   NC350891  20.652  15.961   5.550
 7234POPC   PO450892  20.611  15.930   5.850
 7234POPC   GL150893  20.616  15.927   6.150
 7234POPC   GL250894  20.553  16.039   6.150
 7234POPC   C1A50895  20.650  15.972   6.450
 7234POPC   D2A50896  20.614  15.950   6.750
 7234POPC   C3A50897  20.636  15.980   7.050
 7234POPC   C4A50898  20.658  15.962   7.350
 7234POPC   C1B50899  20.424  16.159   6.450
 7234POPC   C2B50900  20.455  16.115   6.750
 7234POPC   C3B50901  20.408  16.063   7.050
 7234POPC   C4B50902  20.368  16.102   7.350
 7235POPC   NC350903   8.245  18.321   5.550
 7235POPC   PO450904   8.167  18.287   5.850
 7235POPC   GL150905   8.166  18.261   6.150
 7235POPC   GL250906   8.304  18.314   6.150
 7235POPC   C1A50907   8.196  18.266   6.450
 7235POPC   D2A50908   8.224  18.267   6.750
 7235POPC   C3A50909   8.186  18.292   7.050
 7235POPC   C4A50910   8.202  18.303   7.350
 7235POPC   C1B50911   8.436  18.434   6.450
 7235POPC   C2B50912   8.436  18.394   6.750
 7235POPC   C3B50913   8.472  18.361   7.050
 7235POPC   C4B50914   8.398  18.359   7.350
 7236POPC   NC350915  24.502  26.813   5.550
 7236POPC   PO450916  24.462  26.813   5.850
 7236POPC   GL150917  24.524  26.844   6.150
 7236POPC   GL250918  24.391  26.872   6.150
 7236POPC   C1A50919  24.480  26.812   6.450
 7236POPC   D2A50920  24.522  26.846   6.750
 7236POPC   C3A50921  24.458  26.839   7.050
 7236POPC   C4A50922  24.490  26.853   7.350
 7236POPC   C1B50923  24.298  26.902   6.450
 7236POPC   C2B50924  24.239  26.911   6.750
 7236POPC   C3B50925  24.230  26.936   7.050
 7236POPC   C4B50926  24.217  26.945   7.350
 7237POPC   NC350927   5.099  12.106   5.550
 7237POPC   PO450928   5.135  12.119   5.850
 7237POPC   GL150929   5.044  12.043   6.150
 7237POPC   GL250930   5.082  12.214   6.150
 7237POPC   C1A50931   5.131  12.053   6.450
 7237POPC   D2A50932   5.065  12.121   6.750
 7237POPC   C3A50933   5.101  12.059   7.050
 7237POPC   C4A50934   5.134  12.125   7.350
 7237POPC   C1B50935   5.067  12.277   6.450
 7237POPC   C2B50936   5.081  12.354   6.750
 7237POPC   C3B50937   4.997  12.357   7.050
 7237POPC   C4B50938   5.072  12.310   7.350
 7238POPC   NC350939   8.996  38.416   5.550
 7238POPC   PO450940   8.991  38.450   5.850
 7238POPC   GL150941   8.992  38.433   6.150
 7238POPC   GL250942   8.823  38.411   6.150
 7238POPC   C1A50943   8.990  38.448   6.450
 7238POPC   D2A50944   8.994  38.461   6.750
 7238POPC   C3A50945   8.978  38.504   7.050
 7238POPC   C4A50946   8.924  38.446   7.350
 7238POPC   C1B50947   8.696  38.348   6.450
 7238POPC   C2B50948   8.712  38.359   6.750
 7238POPC   C3B50949   8.770  38.375   7.050
 7238POPC   C4B50950   8.710  38.386   7.350
 7239POPC   NC350951   7.468  38.460   5.550
 7239POPC   PO450952   7.451  38.497   5.850
 7239POPC   GL150953   7.455  38.489   6.150
 7239POPC   GL250954   7.275  38.484   6.150
 7239POPC   C1A50955   7.465  38.505   6.450
 7239POPC   D2A50956   7.467  38.431   6.750
 7239POPC   C3A50957   7.394  38.413   7.050
 7239POPC   C4A50958   7.408  38.472   7.350
 7239POPC   C1B50959   7.154  38.513   6.450
 7239POPC   C2B50960   7.220  38.465   6.750
 7239POPC   C3B50961   7.216  38.520   7.050
 7239POPC   C4B50962   7.137  38.559   7.350
 7240POPC   NC350963  12.841   0.475   5.550
 7240POPC   PO450964  12.857   0.400   5.850
 7240POPC   GL150965  12.837   0.446   6.150
 7240POPC   GL250966  12.700   0.485   6.150
 7240POPC   C1A50967  12.816   0.398   6.450
 7240POPC   D2A50968  12.820   0.471   6.750
 7240POPC   C3A50969  12.860   0.435   7.050
 7240POPC   C4A50970  12.830   0.440   7.350
 7240POPC   C1B50971  12.648   0.526   6.450
 7240POPC   C2B50972  12.612   0.534   6.750
 7240POPC   C3B50973  12.609   0.460   7.050
 7240POPC   C4B50974  12.611   0.510   7.350
 7241POPC   NC350975  22.163  30.717   5.550
 7241POPC   PO450976  22.185  30.737   5.850
 7241POPC   GL150977  22.196  30.702   6.150
 7241POPC   GL250978  22.199  30.607   6.150
 7241POPC   C1A50979  22.134  30.659   6.450
 7241POPC   D2A50980  22.184  30.687   6.750
 7241POPC   C3A50981  22.186  30.675   7.050
 7241POPC   C4A50982  22.206  30.692   7.350
 7241POPC   C1B50983  22.218  30.442   6.450
 7241POPC   C2B50984  22.235  30.462   6.750
 7241POPC   C3B50985  22.142  30.410   7.050
 7241POPC   C4B50986  22.190  30.416   7.350
 7242POPC   NC350987  43.139  25.279   5.550
 7242POPC   PO450988  43.131  25.229   5.850
 7242POPC   GL150989  43.159  25.270   6.150
 7242POPC   GL250990  43.018  25.239   6.150
 7242POPC   C1A50991  43.084  25.296   6.450
 7242POPC   D2A50992  43.070  25.263   6.750
 7242POPC   C3A50993  43.153  25.247   7.050
 7242POPC   C4A50994  43.105  25.239   7.350
 7242POPC   C1B50995  42.868  25.178   6.450
 7242POPC   C2B50996  42.835  25.246   6.750
 7242POPC   C3B50997  42.842  25.187   7.050
 7242POPC   C4B50998  42.899  25.259   7.350
 7243POPC   NC350999  26.828   8.935   5.550
 7243POPC   PO451000  26.825   8.953   5.850
 7243POPC   GL151001  26.845   8.973   6.150
 7243POPC   GL251002  26.969   9.022   6.150
 7243POPC   C1A51003  26.847   8.967   6.450
 7243POPC   D2A51004  26.859   8.924   6.750
 7243POPC   C3A51005  26.837   9.012   7.050
 7243POPC   C4A51006  26.780   9.001   7.350
 7243POPC   C1B51007  27.040   9.008   6.450
 7243POPC   C2B51008  27.062   8.935   6.750
 7243POPC   C3B51009  27.095   8.940   7.050
 7243POPC   C4B51010  27.090   8.940   7.350
 7244POPC   NC351011  16.741   4.283   5.550
 7244POPC   PO451012  16.697   4.355   5.850
 7244POPC   GL151013  16.738   4.360   6.150
 7244POPC   GL251014  16.570   4.406   6.150
 7244POPC   C1A51015  16.706   4.275   6.450
 7244POPC   D2A51016  16.707   4.288   6.750
 7244POPC   C3A51017  16.683   4.348   7.050
 7244POPC   C4A51018  16.777   4.343   7.350
 7244POPC   C1B51019  16.474   4.440   6.450
 7244POPC   C2B51020  16.465   4.409   6.750
 7244POPC   C3B51021  16.507   4.410   7.050
 7244POPC   C4B51022  16.529   4.448   7.350
 7245POPC   NC351023   6.603  19.027   5.550
 7245POPC   PO451024   6.635  19.087   5.850
 7245POPC   GL151025   6.646  19.053   6.150
 7245POPC   GL251026   6.528  19.145   6.150
 7245POPC   C1A51027   6.691  19.024   6.450
 7245POPC   D2A51028   6.668  19.092   6.750
 7245POPC   C3A51029   6.638  19.034   7.050
 7245POPC   C4A51030   6.659  19.072   7.350
 7245POPC   C1B51031   6.498  19.273   6.450
 7245POPC   C2B51032   6.535  19.280   6.750
 7245POPC   C3B51033   6.509  19.239   7.050
 7245POPC   C4B51034   6.490  19.295   7.350
 7246POPC   NC351035  19.083  38.482   5.550
 7246POPC   PO451036  19.067  38.468   5.850
 7246POPC   GL151037  19.051  38.447   6.150
 7246POPC   GL251038  18.970  38.481   6.150
 7246POPC   C1A51039  19.065  38.465   6.450
 7246POPC   D2A51040  19.009  38.423   6.750
 7246POPC   C3A51041  19.031  38.466   7.050
 7246POPC   C4A51042  19.043  38.478   7.350
 7246POPC   C1B51043  18.833  38.501   6.450
 7246POPC   C2B51044  18.807  38.561   6.750
 7246POPC   C3B51045  18.869  38.590   7.050
 7246POPC   C4B51046  18.846  38.592   7.350
 7247POPC   NC351047  28.359  21.432   5.550
 7247POPC   PO451048  28.341  21.433   5.850
 7247POPC   GL151049  28.359  21.391   6.150
 7247POPC   GL251050  28.385  21.240   6.150
 7247POPC   C1A51051  28.354  21.348   6.450
 7247POPC   D2A51052  28.331  21.416   6.750
 7247POPC   C3A51053  28.352  21.357   7.050
 7247POPC   C4A51054  28.386  21.424   7.350
 7247POPC   C1B51055  28.488  21.137   6.450
 7247POPC   C2B51056  28.440  21.116   6.750
 7247POPC   C3B51057  28.515  21.194   7.050
 7247POPC   C4B51058  28.450  21.154   7.350
 7248POPC   NC351059   3.589  24.528   5.550
 7248POPC   PO451060   3.546  24.517   5.850
 7248POPC   GL151061   3.501  24.496   6.150
 7248POPC   GL251062   3.496  24.387   6.150
 7248POPC   C1A51063   3.503  24.501   6.450
 7248POPC   D2A51064   3.570  24.447   6.750
 7248POPC   C3A51065   3.584  24.522   7.050
 7248POPC   C4A51066   3.535  24.539   7.350
 7248POPC   C1B51067   3.549  24.219   6.450
 7248POPC   C2B51068   3.571  24.240   6.750
 7248POPC   C3B51069   3.549  24.231   7.050
 7248POPC   C4B51070   3.548  24.264   7.350
 7249POPC   NC351071   0.415  34.601   5.550
 7249POPC   PO451072   0.402  34.591   5.850
 7249POPC   GL151073   0.459  34.584   6.150
 7249POPC   GL251074   0.378  34.708   6.150
 7249POPC   C1A51075   0.409  34.622   6.450
 7249POPC   D2A51076   0.398  34.604   6.750
 7249POPC   C3A51077   0.445  34.549   7.050
 7249POPC   C4A51078   0.480  34.596   7.350
 7249POPC   C1B51079   0.422  34.841   6.450
 7249POPC   C2B51080   0.375  34.801   6.750
 7249POPC   C3B51081   0.408  34.831   7.050
 7249POPC   C4B51082   0.330  34.832   7.350
 7250POPC   NC351083  11.339   7.405   5.550
 7250POPC   PO451084  11.278   7.428   5.850
 7250POPC   GL151085  11.298   7.425   6.150
 7250POPC   GL251086  11.209   7.422   6.150
 7250POPC   C1A51087  11.259   7.385   6.450
 7250POPC   D2A51088  11.345   7.384   6.750
 7250POPC   C3A51089  11.334   7.376   7.050
 7250POPC   C4A51090  11.329   7.420   7.350
 7250POPC   C1B51091  11.044   7.476   6.450
 7250POPC   C2B51092  11.095   7.515   6.750
 7250POPC   C3B51093  11.043   7.542   7.050
 7250POPC   C4B51094  11.079   7.527   7.350
 7251POPC   NC351095  32.221  12.861   5.550
 7251POPC   PO451096  32.236  12.850   5.850
 7251POPC   GL151097  32.290  12.851   6.150
 7251POPC   GL251098  32.179  12.802   6.150
 7251POPC   C1A51099  32.219  12.869   6.450
 7251POPC   D2A51100  32.202  12.807   6.750
 7251POPC   C3A51101  32.226  12.804   7.050
 7251POPC   C4A51102  32.275  12.877   7.350
 7251POPC   C1B51103  32.053  12.783   6.450
 7251POPC   C2B51104  32.054  12.733   6.750
 7251POPC   C3B51105  32.003  12.773   7.050
 7251POPC   C4B51106  31.988  12.750   7.350
 7252POPC   NC351107  43.860  33.772   5.550
 7252POPC   PO451108  43.907  33.774   5.850
 7252POPC   GL151109  43.841  33.796   6.150
 7252POPC   GL251110  44.006  33.856   6.150
 7252POPC   C1A51111  43.906  33.838   6.450
 7252POPC   D2A51112  43.914  33.784   6.750
 7252POPC   C3A51113  43.924  33.793   7.050
 7252POPC   C4A51114  43.881  33.796   7.350
 7252POPC   C1B51115  44.143  33.847   6.450
 7252POPC   C2B51116  44.107  33.861   6.750
 7252POPC   C3B51117  44.129  33.900   7.050
 7252POPC   C4B51118  44.143  33.928   7.350
 7253POPC   NC351119  12.115  34.572   5.550
 7253POPC   PO451120  12.121  34.585   5.850
 7253POPC   GL151121  12.112  34.594   6.150
 7253POPC   GL251122  12.040  34.735   6.150
 7253POPC   C1A51123  12.074  34.597   6.450
 7253POPC   D2A51124  12.124  34.580   6.750
 7253POPC   C3A51125  12.084  34.617   7.050
 7253POPC   C4A51126  12.040  34.568   7.350
 7253POPC   C1B51127  12.031  34.813   6.450
 7253POPC   C2B51128  11.963  34.774   6.750
 7253POPC   C3B51129  12.013  34.789   7.050
 7253POPC   C4B51130  11.969  34.833   7.350
 7254POPC   NC351131  10.499  32.989   5.550
 7254POPC   PO451132  10.572  33.009   5.850
 7254POPC   GL151133  10.482  33.012   6.150
 7254POPC   GL251134  10.530  33.144   6.150
 7254POPC   C1A51135  10.485  33.065   6.450
 7254POPC   D2A51136  10.483  33.013   6.750
 7254POPC   C3A51137  10.569  33.050   7.050
 7254POPC   C4A51138  10.519  33.028   7.350
 7254POPC   C1B51139  10.479  33.276   6.450
 7254POPC   C2B51140  10.481  33.307   6.750
 7254POPC   C3B51141  10.486  33.250   7.050
 7254POPC   C4B51142  10.463  33.225   7.350
 7255POPC   NC351143   9.740  34.569   5.550
 7255POPC   PO451144   9.789  34.612   5.850
 7255POPC   GL151145   9.780  34.561   6.150
 7255POPC   GL251146   9.768  34.462   6.150
 7255POPC   C1A51147   9.740  34.582   6.450
 7255POPC   D2A51148   9.754  34.574   6.750
 7255POPC   C3A51149   9.739  34.567   7.050
 7255POPC   C4A51150   9.735  34.623   7.350
 7255POPC   C1B51151   9.720  34.282   6.450
 7255POPC   C2B51152   9.680  34.369   6.750
 7255POPC   C3B51153   9.703  34.304   7.050
 7255POPC   C4B51154   9.715  34.376   7.350
 7256POPC   NC351155   9.018  19.813   5.550
 7256POPC   PO451156   8.996  19.843   5.850
 7256POPC   GL151157   8.972  19.788   6.150
 7256POPC   GL251158   9.089  19.733   6.150
 7256POPC   C1A51159   8.944  19.844   6.450
 7256POPC   D2A51160   8.979  19.798   6.750
 7256POPC   C3A51161   9.000  19.846   7.050
 7256POPC   C4A51162   8.945  19.873   7.350
 7256POPC   C1B51163   9.149  19.635   6.450
 7256POPC   C2B51164   9.144  19.679   6.750
 7256POPC   C3B51165   9.102  19.607   7.050
 7256POPC   C4B51166   9.152  19.614   7.350
 7257POPC   NC351167  38.408   3.507   5.550
 7257POPC   PO451168  38.439   3.568   5.850
 7257POPC   GL151169  38.454   3.586   6.150
 7257POPC   GL251170  38.329   3.495   6.150
 7257POPC   C1A51171  38.496   3.561   6.450
 7257POPC   D2A51172  38.416   3.585   6.750
 7257POPC   C3A51173  38.489   3.512   7.050
 7257POPC   C4A51174  38.500   3.586   7.350
 7257POPC   C1B51175  38.227   3.379   6.450
 7257POPC   C2B51176  38.288   3.353   6.750
 7257POPC   C3B51177  38.245   3.339   7.050
 7257POPC   C4B51178  38.231   3.399   7.350
 7258POPC   NC351179  34.561  35.400   5.550
 7258POPC   PO451180  34.568  35.355   5.850
 7258POPC   GL151181  34.560  35.317   6.150
 7258POPC   GL251182  34.446  35.415   6.150
 7258POPC   C1A51183  34.550  35.319   6.450
 7258POPC   D2A51184  34.601  35.372   6.750
 7258POPC   C3A51185  34.551  35.355   7.050
 7258POPC   C4A51186  34.560  35.400   7.350
 7258POPC   C1B51187  34.367  35.481   6.450
 7258POPC   C2B51188  34.358  35.499   6.750
 7258POPC   C3B51189  34.390  35.501   7.050
 7258POPC   C4B51190  34.352  35.431   7.350
 7259POPC   NC351191  37.701   5.900   5.550
 7259POPC   PO451192  37.667   5.898   5.850
 7259POPC   GL151193  37.683   5.823   6.150
 7259POPC   GL251194  37.659   5.758   6.150
 7259POPC   C1A51195  37.703   5.828   6.450
 7259POPC   D2A51196  37.638   5.880   6.750
 7259POPC   C3A51197  37.664   5.827   7.050
 7259POPC   C4A51198  37.669   5.841   7.350
 7259POPC   C1B51199  37.749   5.622   6.450
 7259POPC   C2B51200  37.730   5.659   6.750
 7259POPC   C3B51201  37.688   5.571   7.050
 7259POPC   C4B51202  37.660   5.618   7.350
 7260POPC   NC351203  26.030   1.204   5.550
 7260POPC   PO451204  26.083   1.206   5.850
 7260POPC   GL151205  26.090   1.236   6.150
 7260POPC   GL251206  26.149   1.177   6.150
 7260POPC   C1A51207  25.999   1.164   6.450
 7260POPC   D2A51208  26.088   1.238   6.750
 7260POPC   C3A51209  26.006   1.186   7.050
 7260POPC   C4A51210  25.995   1.190   7.350
 7260POPC   C1B51211  26.296   1.137   6.450
 7260POPC   C2B51212  26.303   1.143   6.750
 7260POPC   C3B51213  26.231   1.154   7.050
 7260POPC   C4B51214  26.254   1.147   7.350
 7261POPC   NC351215  16.005  33.770   5.550
 7261POPC   PO451216  15.945  33.811   5.850
 7261POPC   GL151217  15.975  33.786   6.150
 7261POPC   GL251218  16.036  33.835   6.150
 7261POPC   C1A51219  15.929  33.819   6.450
 7261POPC   D2A51220  15.913  33.776   6.750
 7261POPC   C3A51221  15.989  33.776   7.050
 7261POPC   C4A51222  15.918  33.819   7.350
 7261POPC   C1B51223  16.196  33.898   6.450
 7261POPC   C2B51224  16.115  33.968   6.750
 7261POPC   C3B51225  16.146  33.939   7.050
 7261POPC   C4B51226  16.192  33.912   7.350
 7262POPC   NC351227  32.991  33.009   5.550
 7262POPC   PO451228  33.063  33.026   5.850
 7262POPC   GL151229  33.051  32.977   6.150
 7262POPC   GL251230  33.098  32.946   6.150
 7262POPC   C1A51231  32.999  33.020   6.450
 7262POPC   D2A51232  33.070  33.073   6.750
 7262POPC   C3A51233  33.055  33.002   7.050
 7262POPC   C4A51234  32.980  32.983   7.350
 7262POPC   C1B51235  33.262  32.896   6.450
 7262POPC   C2B51236  33.307  32.917   6.750
 7262POPC   C3B51237  33.308  32.981   7.050
 7262POPC   C4B51238  33.234  32.920   7.350
 7263POPC   NC351239  33.849  19.057   5.550
 7263POPC   PO451240  33.838  19.019   5.850
 7263POPC   GL151241  33.768  19.090   6.150
 7263POPC   GL251242  33.905  19.151   6.150
 7263POPC   C1A51243  33.819  19.024   6.450
 7263POPC   D2A51244  33.838  19.049   6.750
 7263POPC   C3A51245  33.761  19.043   7.050
 7263POPC   C4A51246  33.772  19.072   7.350
 7263POPC   C1B51247  33.926  19.272   6.450
 7263POPC   C2B51248  33.879  19.285   6.750
 7263POPC   C3B51249  33.892  19.280   7.050
 7263POPC   C4B51250  33.915  19.295   7.350
 7264POPC   NC351251  12.085  24.476   5.550
 7264POPC   PO451252  12.085  24.524   5.850
 7264POPC   GL151253  12.044  24.451   6.150
 7264POPC   GL251254  12.190  24.595   6.150
 7264POPC   C1A51255  12.043  24.472   6.450
 7264POPC   D2A51256  12.096  24.506   6.750
 7264POPC   C3A51257  12.077  24.445   7.050
 7264POPC   C4A51258  12.072  24.529   7.350
 7264POPC   C1B51259  12.215  24.687   6.450
 7264POPC   C2B51260  12.183  24.639   6.750
 7264POPC   C3B51261  12.222  24.723   7.050
 7264POPC   C4B51262  12.237  24.673   7.350
 7265POPC   NC351263   1.245  28.396   5.550
 7265POPC   PO451264   1.231  28.380   5.850
 7265POPC   GL151265   1.244  28.343   6.150
 7265POPC   GL251266   1.135  28.381   6.150
 7265POPC   C1A51267   1.192  28.338   6.450
 7265POPC   D2A51268   1.168  28.321   6.750
 7265POPC   C3A51269   1.208  28.410   7.050
 7265POPC   C4A51270   1.233  28.328   7.350
 7265POPC   C1B51271   1.009  28.376   6.450
 7265POPC   C2B51272   0.997  28.417   6.750
 7265POPC   C3B51273   0.988  28.413   7.050
 7265POPC   C4B51274   0.918  28.440   7.350
 7266POPC   NC351275  22.206   8.238   5.550
 7266POPC   PO451276  22.202   8.155   5.850
 7266POPC   GL151277  22.119   8.196   6.150
 7266POPC   GL251278  22.139   8.034   6.150
 7266POPC   C1A51279  22.178   8.158   6.450
 7266POPC   D2A51280  22.194   8.232   6.750
 7266POPC   C3A51281  22.134   8.159   7.050
 7266POPC   C4A51282  22.128   8.155   7.350
 7266POPC   C1B51283  22.153   7.932   6.450
 7266POPC   C2B51284  22.122   7.906   6.750
 7266POPC   C3B51285  22.154   7.989   7.050
 7266POPC   C4B51286  22.139   7.979   7.350
 7267POPC   NC351287  20.586  38.478   5.550
 7267POPC   PO451288  20.653  38.476   5.850
 7267POPC   GL151289  20.657  38.503   6.150
 7267POPC   GL251290  20.595  38.529   6.150
 7267POPC   C1A51291  20.648  38.478   6.450
 7267POPC   D2A51292  20.627  38.413   6.750
 7267POPC   C3A51293  20.650  38.458   7.050
 7267POPC   C4A51294  20.621  38.441   7.350
 7267POPC   C1B51295  20.516  38.718   6.450
 7267POPC   C2B51296  20.483  38.696   6.750
 7267POPC   C3B51297  20.511  38.721   7.050
 7267POPC   C4B51298  20.483  38.679   7.350
 7268POPC   NC351299   3.550  33.799   5.550
 7268POPC   PO451300   3.506  33.828   5.850
 7268POPC   GL151301   3.527  33.845   6.150
 7268POPC   GL251302   3.499  33.881   6.150
 7268POPC   C1A51303   3.516  33.843   6.450
 7268POPC   D2A51304   3.561  33.838   6.750
 7268POPC   C3A51305   3.542  33.816   7.050
 7268POPC   C4A51306   3.588  33.809   7.350
 7268POPC   C1B51307   3.334  33.969   6.450
 7268POPC   C2B51308   3.417  33.948   6.750
 7268POPC   C3B51309   3.419  33.959   7.050
 7268POPC   C4B51310   3.385  34.025   7.350
 7269POPC   NC351311  20.658  40.744   5.550
 7269POPC   PO451312  20.627  40.749   5.850
 7269POPC   GL151313  20.576  40.825   6.150
 7269POPC   GL251314  20.468  40.771   6.150
 7269POPC   C1A51315  20.580  40.753   6.450
 7269POPC   D2A51316  20.654  40.784   6.750
 7269POPC   C3A51317  20.590  40.771   7.050
 7269POPC   C4A51318  20.646  40.745   7.350
 7269POPC   C1B51319  20.383  40.775   6.450
 7269POPC   C2B51320  20.400  40.754   6.750
 7269POPC   C3B51321  20.342  40.758   7.050
 7269POPC   C4B51322  20.350  40.783   7.350
 7270POPC   NC351323  22.966  21.361   5.550
 7270POPC   PO451324  22.969  21.391   5.850
 7270POPC   GL151325  22.961  21.416   6.150
 7270POPC   GL251326  22.880  21.247   6.150
 7270POPC   C1A51327  22.978  21.364   6.450
 7270POPC   D2A51328  22.923  21.430   6.750
 7270POPC   C3A51329  22.914  21.415   7.050
 7270POPC   C4A51330  22.950  21.398   7.350
 7270POPC   C1B51331  22.810  21.212   6.450
 7270POPC   C2B51332  22.815  21.215   6.750
 7270POPC   C3B51333  22.838  21.163   7.050
 7270POPC   C4B51334  22.774  21.144   7.350
 7271POPC   NC351335  18.295   8.211   5.550
 7271POPC   PO451336  18.275   8.197   5.850
 7271POPC   GL151337  18.297   8.230   6.150
 7271POPC   GL251338  18.273   8.332   6.150
 7271POPC   C1A51339  18.276   8.236   6.450
 7271POPC   D2A51340  18.310   8.246   6.750
 7271POPC   C3A51341  18.301   8.178   7.050
 7271POPC   C4A51342  18.266   8.243   7.350
 7271POPC   C1B51343  18.349   8.472   6.450
 7271POPC   C2B51344  18.311   8.471   6.750
 7271POPC   C3B51345  18.349   8.443   7.050
 7271POPC   C4B51346  18.320   8.447   7.350
 7272POPC   NC351347  14.358  31.504   5.550
 7272POPC   PO451348  14.426  31.498   5.850
 7272POPC   GL151349  14.364  31.428   6.150
 7272POPC   GL251350  14.447  31.569   6.150
 7272POPC   C1A51351  14.449  31.459   6.450
 7272POPC   D2A51352  14.417  31.513   6.750
 7272POPC   C3A51353  14.445  31.487   7.050
 7272POPC   C4A51354  14.440  31.487   7.350
 7272POPC   C1B51355  14.597  31.630   6.450
 7272POPC   C2B51356  14.528  31.644   6.750
 7272POPC   C3B51357  14.593  31.666   7.050
 7272POPC   C4B51358  14.533  31.692   7.350
 7273POPC   NC351359  11.336  35.401   5.550
 7273POPC   PO451360  11.262  35.319   5.850
 7273POPC   GL151361  11.290  35.303   6.150
 7273POPC   GL251362  11.426  35.333   6.150
 7273POPC   C1A51363  11.329  35.384   6.450
 7273POPC   D2A51364  11.300  35.400   6.750
 7273POPC   C3A51365  11.305  35.385   7.050
 7273POPC   C4A51366  11.346  35.366   7.350
 7273POPC   C1B51367  11.518  35.281   6.450
 7273POPC   C2B51368  11.488  35.225   6.750
 7273POPC   C3B51369  11.539  35.287   7.050
 7273POPC   C4B51370  11.561  35.254   7.350
 7274POPC   NC351371  22.968   9.018   5.550
 7274POPC   PO451372  22.919   9.015   5.850
 7274POPC   GL151373  22.912   8.949   6.150
 7274POPC   GL251374  22.865   8.849   6.150
 7274POPC   C1A51375  22.950   8.975   6.450
 7274POPC   D2A51376  22.984   9.004   6.750
 7274POPC   C3A51377  22.888   8.983   7.050
 7274POPC   C4A51378  22.987   8.956   7.350
 7274POPC   C1B51379  22.827   8.782   6.450
 7274POPC   C2B51380  22.796   8.791   6.750
 7274POPC   C3B51381  22.791   8.748   7.050
 7274POPC   C4B51382  22.807   8.778   7.350
 7275POPC   NC351383  23.730  26.013   5.550
 7275POPC   PO451384  23.676  26.004   5.850
 7275POPC   GL151385  23.687  26.050   6.150
 7275POPC   GL251386  23.752  26.093   6.150
 7275POPC   C1A51387  23.718  26.052   6.450
 7275POPC   D2A51388  23.721  26.061   6.750
 7275POPC   C3A51389  23.683  26.085   7.050
 7275POPC   C4A51390  23.729  26.081   7.350
 7275POPC   C1B51391  23.913  26.213   6.450
 7275POPC   C2B51392  23.845  26.216   6.750
 7275POPC   C3B51393  23.860  26.226   7.050
 7275POPC   C4B51394  23.907  26.250   7.350
 7276POPC   NC351395  44.663   2.764   5.550
 7276POPC   PO451396  44.678   2.792   5.850
 7276POPC   GL151397  44.644   2.787   6.150
 7276POPC   GL251398  44.768   2.818   6.150
 7276POPC   C1A51399  44.647   2.727   6.450
 7276POPC   D2A51400  44.637   2.727   6.750
 7276POPC   C3A51401  44.692   2.811   7.050
 7276POPC   C4A51402  44.703   2.718   7.350
 7276POPC   C1B51403  44.889   2.816   6.450
 7276POPC   C2B51404  44.865   2.802   6.750
 7276POPC   C3B51405  44.917   2.846   7.050
 7276POPC   C4B51406  44.954   2.810   7.350
 7277POPC   NC351407  24.505  33.021   5.550
 7277POPC   PO451408  24.454  33.073   5.850
 7277POPC   GL151409  24.467  32.984   6.150
 7277POPC   GL251410  24.388  32.878   6.150
 7277POPC   C1A51411  24.460  32.991   6.450
 7277POPC   D2A51412  24.507  33.020   6.750
 7277POPC   C3A51413  24.456  33.005   7.050
 7277POPC   C4A51414  24.450  33.015   7.350
 7277POPC   C1B51415  24.406  32.782   6.450
 7277POPC   C2B51416  24.340  32.773   6.750
 7277POPC   C3B51417  24.358  32.837   7.050
 7277POPC   C4B51418  24.407  32.843   7.350
 7278POPC   NC351419  15.913  15.911   5.550
 7278POPC   PO451420  15.968  15.945   5.850
 7278POPC   GL151421  15.917  15.915   6.150
 7278POPC   GL251422  15.864  15.923   6.150
 7278POPC   C1A51423  15.975  16.005   6.450
 7278POPC   D2A51424  15.988  15.917   6.750
 7278POPC   C3A51425  15.905  15.974   7.050
 7278POPC   C4A51426  15.938  15.970   7.350
 7278POPC   C1B51427  15.688  15.938   6.450
 7278POPC   C2B51428  15.704  15.957   6.750
 7278POPC   C3B51429  15.692  15.914   7.050
 7278POPC   C4B51430  15.701  15.978   7.350
 7279POPC   NC351431  25.287   9.752   5.550
 7279POPC   PO451432  25.253   9.724   5.850
 7279POPC   GL151433  25.295   9.738   6.150
 7279POPC   GL251434  25.100   9.746   6.150
 7279POPC   C1A51435  25.259   9.761   6.450
 7279POPC   D2A51436  25.228   9.712   6.750
 7279POPC   C3A51437  25.311   9.768   7.050
 7279POPC   C4A51438  25.263   9.797   7.350
 7279POPC   C1B51439  24.974   9.765   6.450
 7279POPC   C2B51440  24.991   9.676   6.750
 7279POPC   C3B51441  25.008   9.757   7.050
 7279POPC   C4B51442  24.997   9.733   7.350
 7280POPC   NC351443  25.270  40.784   5.550
 7280POPC   PO451444  25.243  40.793   5.850
 7280POPC   GL151445  25.275  40.777   6.150
 7280POPC   GL251446  25.359  40.872   6.150
 7280POPC   C1A51447  25.287  40.765   6.450
 7280POPC   D2A51448  25.247  40.739   6.750
 7280POPC   C3A51449  25.288  40.745   7.050
 7280POPC   C4A51450  25.305  40.754   7.350
 7280POPC   C1B51451  25.502  40.992   6.450
 7280POPC   C2B51452  25.477  40.944   6.750
 7280POPC   C3B51453  25.461  40.915   7.050
 7280POPC   C4B51454  25.492  40.957   7.350
 7281POPC   NC351455  20.565   5.064   5.550
 7281POPC   PO451456  20.601   5.077   5.850
 7281POPC   GL151457  20.646   5.141   6.150
 7281POPC   GL251458  20.705   5.035   6.150
 7281POPC   C1A51459  20.590   5.117   6.450
 7281POPC   D2A51460  20.580   5.120   6.750
 7281POPC   C3A51461  20.659   5.133   7.050
 7281POPC   C4A51462  20.604   5.074   7.350
 7281POPC   C1B51463  20.878   5.006   6.450
 7281POPC   C2B51464  20.829   4.973   6.750
 7281POPC   C3B51465  20.848   4.972   7.050
 7281POPC   C4B51466  20.802   4.942   7.350
 7282POPC   NC351467  12.898  12.814   5.550
 7282POPC   PO451468  12.832  12.895   5.850
 7282POPC   GL151469  12.870  12.833   6.150
 7282POPC   GL251470  12.971  12.838   6.150
 7282POPC   C1A51471  12.876  12.879   6.450
 7282POPC   D2A51472  12.862  12.858   6.750
 7282POPC   C3A51473  12.878  12.854   7.050
 7282POPC   C4A51474  12.847  12.805   7.350
 7282POPC   C1B51475  13.074  12.793   6.450
 7282POPC   C2B51476  13.137  12.745   6.750
 7282POPC   C3B51477  13.085  12.797   7.050
 7282POPC   C4B51478  13.137  12.799   7.350
 7283POPC   NC351479  11.276   2.766   5.550
 7283POPC   PO451480  11.292   2.743   5.850
 7283POPC   GL151481  11.342   2.729   6.150
 7283POPC   GL251482  11.294   2.916   6.150
 7283POPC   C1A51483  11.319   2.756   6.450
 7283POPC   D2A51484  11.254   2.731   6.750
 7283POPC   C3A51485  11.327   2.729   7.050
 7283POPC   C4A51486  11.278   2.797   7.350
 7283POPC   C1B51487  11.249   3.021   6.450
 7283POPC   C2B51488  11.283   3.043   6.750
 7283POPC   C3B51489  11.286   3.019   7.050
 7283POPC   C4B51490  11.267   2.982   7.350
 7284POPC   NC351491  12.099  35.345   5.550
 7284POPC   PO451492  12.083  35.333   5.850
 7284POPC   GL151493  12.027  35.304   6.150
 7284POPC   GL251494  11.998  35.250   6.150
 7284POPC   C1A51495  12.108  35.394   6.450
 7284POPC   D2A51496  12.106  35.401   6.750
 7284POPC   C3A51497  12.053  35.364   7.050
 7284POPC   C4A51498  12.067  35.339   7.350
 7284POPC   C1B51499  11.842  35.218   6.450
 7284POPC   C2B51500  11.875  35.222   6.750
 7284POPC   C3B51501  11.826  35.252   7.050
 7284POPC   C4B51502  11.831  35.158   7.350
 7285POPC   NC351503  39.966  36.121   5.550
 7285POPC   PO451504  39.962  36.122   5.850
 7285POPC   GL151505  39.989  36.151   6.150
 7285POPC   GL251506  40.012  36.050   6.150
 7285POPC   C1A51507  39.982  36.109   6.450
 7285POPC   D2A51508  39.988  36.137   6.750
 7285POPC   C3A51509  39.979  36.145   7.050
 7285POPC   C4A51510  40.053  36.093   7.350
 7285POPC   C1B51511  39.912  35.900   6.450
 7285POPC   C2B51512  39.990  35.833   6.750
 7285POPC   C3B51513  40.004  35.882   7.050
 7285POPC   C4B51514  40.008  35.863   7.350
 7286POPC   NC351515  19.082  22.904   5.550
 7286POPC   PO451516  19.097  22.935   5.850
 7286POPC   GL151517  19.073  22.947   6.150
 7286POPC   GL251518  19.072  23.099   6.150
 7286POPC   C1A51519  19.097  22.919   6.450
 7286POPC   D2A51520  19.030  22.923   6.750
 7286POPC   C3A51521  19.018  22.910   7.050
 7286POPC   C4A51522  19.082  22.970   7.350
 7286POPC   C1B51523  19.062  23.186   6.450
 7286POPC   C2B51524  19.107  23.201   6.750
 7286POPC   C3B51525  19.011  23.218   7.050
 7286POPC   C4B51526  19.044  23.225   7.350
 7287POPC   NC351527  37.637  17.463   5.550
 7287POPC   PO451528  37.672  17.498   5.850
 7287POPC   GL151529  37.706  17.522   6.150
 7287POPC   GL251530  37.511  17.573   6.150
 7287POPC   C1A51531  37.672  17.548   6.450
 7287POPC   D2A51532  37.667  17.532   6.750
 7287POPC   C3A51533  37.689  17.544   7.050
 7287POPC   C4A51534  37.643  17.468   7.350
 7287POPC   C1B51535  37.483  17.595   6.450
 7287POPC   C2B51536  37.445  17.549   6.750
 7287POPC   C3B51537  37.407  17.629   7.050
 7287POPC   C4B51538  37.442  17.635   7.350
 7288POPC   NC351539  13.629  19.095   5.550
 7288POPC   PO451540  13.602  19.027   5.850
 7288POPC   GL151541  13.579  19.069   6.150
 7288POPC   GL251542  13.690  18.990   6.150
 7288POPC   C1A51543  13.619  19.072   6.450
 7288POPC   D2A51544  13.613  19.077   6.750
 7288POPC   C3A51545  13.584  19.014   7.050
 7288POPC   C4A51546  13.621  19.091   7.350
 7288POPC   C1B51547  13.777  18.929   6.450
 7288POPC   C2B51548  13.847  18.859   6.750
 7288POPC   C3B51549  13.856  18.859   7.050
 7288POPC   C4B51550  13.833  18.861   7.350
 7289POPC   NC351551  14.422  43.871   5.550
 7289POPC   PO451552  14.399  43.877   5.850
 7289POPC   GL151553  14.419  43.860   6.150
 7289POPC   GL251554  14.493  43.932   6.150
 7289POPC   C1A51555  14.411  43.904   6.450
 7289POPC   D2A51556  14.356  43.906   6.750
 7289POPC   C3A51557  14.379  43.861   7.050
 7289POPC   C4A51558  14.412  43.889   7.350
 7289POPC   C1B51559  14.620  43.970   6.450
 7289POPC   C2B51560  14.584  43.953   6.750
 7289POPC   C3B51561  14.583  43.964   7.050
 7289POPC   C4B51562  14.623  44.036   7.350
 7290POPC   NC351563  21.340  30.706   5.550
 7290POPC   PO451564  21.344  30.728   5.850
 7290POPC   GL151565  21.350  30.723   6.150
 7290POPC   GL251566  21.551  30.750   6.150
 7290POPC   C1A51567  21.376  30.717   6.450
 7290POPC   D2A51568  21.404  30.716   6.750
 7290POPC   C3A51569  21.363  30.663   7.050
 7290POPC   C4A51570  21.427  30.669   7.350
 7290POPC   C1B51571  21.600  30.735   6.450
 7290POPC   C2B51572  21.623  30.720   6.750
 7290POPC   C3B51573  21.678  30.752   7.050
 7290POPC   C4B51574  21.671  30.736   7.350
 7291POPC   NC351575  42.371   9.716   5.550
 7291POPC   PO451576  42.379   9.713   5.850
 7291POPC   GL151577  42.360   9.777   6.150
 7291POPC   GL251578  42.164   9.709   6.150
 7291POPC   C1A51579  42.318   9.732   6.450
 7291POPC   D2A51580  42.340   9.779   6.750
 7291POPC   C3A51581  42.287   9.773   7.050
 7291POPC   C4A51582  42.348   9.787   7.350
 7291POPC   C1B51583  42.088   9.737   6.450
 7291POPC   C2B51584  42.102   9.765   6.750
 7291POPC   C3B51585  42.081   9.776   7.050
 7291POPC   C4B51586  42.073   9.749   7.350
 7292POPC   NC351587  35.373  30.699   5.550
 7292POPC   PO451588  35.396  30.734   5.850
 7292POPC   GL151589  35.377  30.730   6.150
 7292POPC   GL251590  35.504  30.688   6.150
 7292POPC   C1A51591  35.336  30.730   6.450
 7292POPC   D2A51592  35.304  30.666   6.750
 7292POPC   C3A51593  35.339  30.649   7.050
 7292POPC   C4A51594  35.352  30.684   7.350
 7292POPC   C1B51595  35.643  30.718   6.450
 7292POPC   C2B51596  35.551  30.775   6.750
 7292POPC   C3B51597  35.557  30.691   7.050
 7292POPC   C4B51598  35.639  30.749   7.350
 7293POPC   NC351599   5.884  24.453   5.550
 7293POPC   PO451600   5.910  24.486   5.850
 7293POPC   GL151601   5.851  24.512   6.150
 7293POPC   GL251602   5.963  24.598   6.150
 7293POPC   C1A51603   5.903  24.460   6.450
 7293POPC   D2A51604   5.840  24.479   6.750
 7293POPC   C3A51605   5.859  24.449   7.050
 7293POPC   C4A51606   5.907  24.495   7.350
 7293POPC   C1B51607   6.086  24.596   6.450
 7293POPC   C2B51608   6.072  24.677   6.750
 7293POPC   C3B51609   6.073  24.625   7.050
 7293POPC   C4B51610   6.081  24.603   7.350
 7294POPC   NC351611   2.038  29.188   5.550
 7294POPC   PO451612   1.992  29.123   5.850
 7294POPC   GL151613   2.021  29.171   6.150
 7294POPC   GL251614   2.092  29.087   6.150
 7294POPC   C1A51615   1.992  29.098   6.450
 7294POPC   D2A51616   1.955  29.098   6.750
 7294POPC   C3A51617   1.992  29.116   7.050
 7294POPC   C4A51618   2.003  29.105   7.350
 7294POPC   C1B51619   2.107  28.966   6.450
 7294POPC   C2B51620   2.074  28.978   6.750
 7294POPC   C3B51621   2.107  28.918   7.050
 7294POPC   C4B51622   2.075  28.897   7.350
 7295POPC   NC351623   6.645  15.945   5.550
 7295POPC   PO451624   6.675  15.986   5.850
 7295POPC   GL151625   6.689  15.974   6.150
 7295POPC   GL251626   6.788  16.069   6.150
 7295POPC   C1A51627   6.623  15.957   6.450
 7295POPC   D2A51628   6.665  15.973   6.750
 7295POPC   C3A51629   6.614  15.998   7.050
 7295POPC   C4A51630   6.620  15.958   7.350
 7295POPC   C1B51631   6.829  16.044   6.450
 7295POPC   C2B51632   6.815  16.080   6.750
 7295POPC   C3B51633   6.839  16.127   7.050
 7295POPC   C4B51634   6.894  16.050   7.350
 7296POPC   NC351635  28.358   4.267   5.550
 7296POPC   PO451636  28.391   4.282   5.850
 7296POPC   GL151637  28.384   4.285   6.150
 7296POPC   GL251638  28.456   4.392   6.150
 7296POPC   C1A51639  28.330   4.317   6.450
 7296POPC   D2A51640  28.374   4.279   6.750
 7296POPC   C3A51641  28.382   4.318   7.050
 7296POPC   C4A51642  28.325   4.294   7.350
 7296POPC   C1B51643  28.453   4.494   6.450
 7296POPC   C2B51644  28.475   4.548   6.750
 7296POPC   C3B51645  28.521   4.501   7.050
 7296POPC   C4B51646  28.487   4.495   7.350
 7297POPC   NC351647  13.581  31.496   5.550
 7297POPC   PO451648  13.596  31.471   5.850
 7297POPC   GL151649  13.604  31.500   6.150
 7297POPC   GL251650  13.730  31.446   6.150
 7297POPC   C1A51651  13.614  31.487   6.450
 7297POPC   D2A51652  13.666  31.492   6.750
 7297POPC   C3A51653  13.587  31.492   7.050
 7297POPC   C4A51654  13.642  31.520   7.350
 7297POPC   C1B51655  13.876  31.521   6.450
 7297POPC   C2B51656  13.899  31.473   6.750
 7297POPC   C3B51657  13.830  31.472   7.050
 7297POPC   C4B51658  13.887  31.465   7.350
 7298POPC   NC351659   1.234  37.667   5.550
 7298POPC   PO451660   1.179  37.667   5.850
 7298POPC   GL151661   1.246  37.687   6.150
 7298POPC   GL251662   1.087  37.579   6.150
 7298POPC   C1A51663   1.164  37.653   6.450
 7298POPC   D2A51664   1.221  37.631   6.750
 7298POPC   C3A51665   1.233  37.729   7.050
 7298POPC   C4A51666   1.257  37.650   7.350
 7298POPC   C1B51667   0.967  37.601   6.450
 7298POPC   C2B51668   0.980  37.541   6.750
 7298POPC   C3B51669   0.952  37.533   7.050
 7298POPC   C4B51670   1.034  37.522   7.350
 7299POPC   NC351671  19.056  39.195   5.550
 7299POPC   PO451672  19.080  39.278   5.850
 7299POPC   GL151673  19.082  39.230   6.150
 7299POPC   GL251674  19.198  39.131   6.150
 7299POPC   C1A51675  19.027  39.277   6.450
 7299POPC   D2A51676  19.072  39.279   6.750
 7299POPC   C3A51677  19.099  39.275   7.050
 7299POPC   C4A51678  19.047  39.250   7.350
 7299POPC   C1B51679  19.308  39.069   6.450
 7299POPC   C2B51680  19.302  39.104   6.750
 7299POPC   C3B51681  19.306  39.099   7.050
 7299POPC   C4B51682  19.265  39.070   7.350
 7300POPC   NC351683  43.924  15.184   5.550
 7300POPC   PO451684  43.883  15.206   5.850
 7300POPC   GL151685  43.928  15.184   6.150
 7300POPC   GL251686  43.967  15.051   6.150
 7300POPC   C1A51687  43.854  15.203   6.450
 7300POPC   D2A51688  43.918  15.184   6.750
 7300POPC   C3A51689  43.926  15.158   7.050
 7300POPC   C4A51690  43.881  15.164   7.350
 7300POPC   C1B51691  43.994  14.923   6.450
 7300POPC   C2B51692  43.972  14.963   6.750
 7300POPC   C3B51693  44.041  14.951   7.050
 7300POPC   C4B51694  44.006  14.936   7.350
 7301POPC   NC351695   0.411  22.960   5.550
 7301POPC   PO451696   0.411  22.926   5.850
 7301POPC   GL151697   0.400  22.902   6.150
 7301POPC   GL251698   0.279  22.923   6.150
 7301POPC   C1A51699   0.477  22.913   6.450
 7301POPC   D2A51700   0.426  22.976   6.750
 7301POPC   C3A51701   0.391  22.950   7.050
 7301POPC   C4A51702   0.480  22.945   7.350
 7301POPC   C1B51703   0.191  22.975   6.450
 7301POPC   C2B51704   0.196  22.918   6.750
 7301POPC   C3B51705   0.233  22.895   7.050
 7301POPC   C4B51706   0.175  22.921   7.350
 7302POPC   NC351707   7.380  26.778   5.550
 7302POPC   PO451708   7.404  26.846   5.850
 7302POPC   GL151709   7.429  26.858   6.150
 7302POPC   GL251710   7.427  26.940   6.150
 7302POPC   C1A51711   7.469  26.801   6.450
 7302POPC   D2A51712   7.469  26.813   6.750
 7302POPC   C3A51713   7.464  26.794   7.050
 7302POPC   C4A51714   7.414  26.771   7.350
 7302POPC   C1B51715   7.540  27.093   6.450
 7302POPC   C2B51716   7.496  27.052   6.750
 7302POPC   C3B51717   7.459  27.071   7.050
 7302POPC   C4B51718   7.527  27.066   7.350
 7303POPC   NC351719  12.832  13.582   5.550
 7303POPC   PO451720  12.856  13.593   5.850
 7303POPC   GL151721  12.834  13.622   6.150
 7303POPC   GL251722  12.749  13.692   6.150
 7303POPC   C1A51723  12.898  13.663   6.450
 7303POPC   D2A51724  12.870  13.597   6.750
 7303POPC   C3A51725  12.822  13.623   7.050
 7303POPC   C4A51726  12.877  13.624   7.350
 7303POPC   C1B51727  12.618  13.658   6.450
 7303POPC   C2B51728  12.639  13.661   6.750
 7303POPC   C3B51729  12.573  13.645   7.050
 7303POPC   C4B51730  12.619  13.678   7.350
 7304POPC   NC351731  24.514  15.210   5.550
 7304POPC   PO451732  24.471  15.165   5.850
 7304POPC   GL151733  24.463  15.172   6.150
 7304POPC   GL251734  24.627  15.189   6.150
 7304POPC   C1A51735  24.442  15.182   6.450
 7304POPC   D2A51736  24.456  15.151   6.750
 7304POPC   C3A51737  24.484  15.130   7.050
 7304POPC   C4A51738  24.492  15.186   7.350
 7304POPC   C1B51739  24.783  15.166   6.450
 7304POPC   C2B51740  24.713  15.159   6.750
 7304POPC   C3B51741  24.772  15.149   7.050
 7304POPC   C4B51742  24.767  15.090   7.350
 7305POPC   NC351743  20.574   8.986   5.550
 7305POPC   PO451744  20.620   9.000   5.850
 7305POPC   GL151745  20.651   8.955   6.150
 7305POPC   GL251746  20.511   9.084   6.150
 7305POPC   C1A51747  20.648   9.003   6.450
 7305POPC   D2A51748  20.650   8.955   6.750
 7305POPC   C3A51749  20.622   8.968   7.050
 7305POPC   C4A51750  20.579   9.001   7.350
 7305POPC   C1B51751  20.432   9.139   6.450
 7305POPC   C2B51752  20.400   9.095   6.750
 7305POPC   C3B51753  20.415   9.104   7.050
 7305POPC   C4B51754  20.351   9.086   7.350
 7306POPC   NC351755   6.617  41.516   5.550
 7306POPC   PO451756   6.668  41.521   5.850
 7306POPC   GL151757   6.648  41.511   6.150
 7306POPC   GL251758   6.520  41.620   6.150
 7306POPC   C1A51759   6.642  41.544   6.450
 7306POPC   D2A51760   6.602  41.553   6.750
 7306POPC   C3A51761   6.689  41.585   7.050
 7306POPC   C4A51762   6.694  41.584   7.350
 7306POPC   C1B51763   6.482  41.686   6.450
 7306POPC   C2B51764   6.467  41.755   6.750
 7306POPC   C3B51765   6.453  41.743   7.050
 7306POPC   C4B51766   6.433  41.718   7.350
 7307POPC   NC351767   2.025   4.363   5.550
 7307POPC   PO451768   1.979   4.341   5.850
 7307POPC   GL151769   1.948   4.297   6.150
 7307POPC   GL251770   2.065   4.341   6.150
 7307POPC   C1A51771   1.945   4.290   6.450
 7307POPC   D2A51772   2.023   4.300   6.750
 7307POPC   C3A51773   1.949   4.360   7.050
 7307POPC   C4A51774   2.030   4.284   7.350
 7307POPC   C1B51775   2.231   4.299   6.450
 7307POPC   C2B51776   2.223   4.313   6.750
 7307POPC   C3B51777   2.242   4.228   7.050
 7307POPC   C4B51778   2.219   4.230   7.350
 7308POPC   NC351779  27.595   7.423   5.550
 7308POPC   PO451780  27.565   7.428   5.850
 7308POPC   GL151781  27.558   7.458   6.150
 7308POPC   GL251782  27.506   7.293   6.150
 7308POPC   C1A51783  27.599   7.467   6.450
 7308POPC   D2A51784  27.596   7.443   6.750
 7308POPC   C3A51785  27.607   7.394   7.050
 7308POPC   C4A51786  27.583   7.408   7.350
 7308POPC   C1B51787  27.428   7.187   6.450
 7308POPC   C2B51788  27.443   7.244   6.750
 7308POPC   C3B51789  27.428   7.264   7.050
 7308POPC   C4B51790  27.465   7.205   7.350
 7309POPC   NC351791  32.978  27.546   5.550
 7309POPC   PO451792  33.057  27.603   5.850
 7309POPC   GL151793  33.045  27.610   6.150
 7309POPC   GL251794  33.023  27.517   6.150
 7309POPC   C1A51795  33.006  27.560   6.450
 7309POPC   D2A51796  33.068  27.618   6.750
 7309POPC   C3A51797  32.998  27.604   7.050
 7309POPC   C4A51798  33.027  27.579   7.350
 7309POPC   C1B51799  33.058  27.370   6.450
 7309POPC   C2B51800  33.089  27.344   6.750
 7309POPC   C3B51801  33.128  27.365   7.050
 7309POPC   C4B51802  33.125  27.337   7.350
 7310POPC   NC351803  30.662  23.712   5.550
 7310POPC   PO451804  30.653  23.670   5.850
 7310POPC   GL151805  30.712  23.688   6.150
 7310POPC   GL251806  30.616  23.567   6.150
 7310POPC   C1A51807  30.726  23.704   6.450
 7310POPC   D2A51808  30.731  23.746   6.750
 7310POPC   C3A51809  30.663  23.763   7.050
 7310POPC   C4A51810  30.746  23.712   7.350
 7310POPC   C1B51811  30.596  23.548   6.450
 7310POPC   C2B51812  30.592  23.489   6.750
 7310POPC   C3B51813  30.575  23.459   7.050
 7310POPC   C4B51814  30.551  23.541   7.350
 7311POPC   NC351815  29.179  31.462   5.550
 7311POPC   PO451816  29.191  31.452   5.850
 7311POPC   GL151817  29.136  31.481   6.150
 7311POPC   GL251818  29.132  31.627   6.150
 7311POPC   C1A51819  29.159  31.465   6.450
 7311POPC   D2A51820  29.112  31.513   6.750
 7311POPC   C3A51821  29.156  31.424   7.050
 7311POPC   C4A51822  29.151  31.447   7.350
 7311POPC   C1B51823  28.973  31.659   6.450
 7311POPC   C2B51824  29.066  31.693   6.750
 7311POPC   C3B51825  28.973  31.704   7.050
 7311POPC   C4B51826  29.028  31.715   7.350
 7312POPC   NC351827  39.996  25.305   5.550
 7312POPC   PO451828  40.049  25.279   5.850
 7312POPC   GL151829  39.961  25.226   6.150
 7312POPC   GL251830  40.139  25.245   6.150
 7312POPC   C1A51831  39.979  25.298   6.450
 7312POPC   D2A51832  39.968  25.256   6.750
 7312POPC   C3A51833  39.978  25.229   7.050
 7312POPC   C4A51834  40.047  25.233   7.350
 7312POPC   C1B51835  40.302  25.194   6.450
 7312POPC   C2B51836  40.277  25.221   6.750
 7312POPC   C3B51837  40.238  25.269   7.050
 7312POPC   C4B51838  40.293  25.248   7.350
 7313POPC   NC351839  15.208  25.220   5.550
 7313POPC   PO451840  15.205  25.238   5.850
 7313POPC   GL151841  15.147  25.307   6.150
 7313POPC   GL251842  15.212  25.407   6.150
 7313POPC   C1A51843  15.151  25.313   6.450
 7313POPC   D2A51844  15.221  25.224   6.750
 7313POPC   C3A51845  15.211  25.224   7.050
 7313POPC   C4A51846  15.221  25.220   7.350
 7313POPC   C1B51847  15.328  25.489   6.450
 7313POPC   C2B51848  15.361  25.518   6.750
 7313POPC   C3B51849  15.321  25.494   7.050
 7313POPC   C4B51850  15.285  25.469   7.350
 7314POPC   NC351851  29.872  34.576   5.550
 7314POPC   PO451852  29.883  34.614   5.850
 7314POPC   GL151853  29.958  34.600   6.150
 7314POPC   GL251854  29.914  34.455   6.150
 7314POPC   C1A51855  29.954  34.530   6.450
 7314POPC   D2A51856  29.956  34.593   6.750
 7314POPC   C3A51857  29.970  34.609   7.050
 7314POPC   C4A51858  29.888  34.549   7.350
 7314POPC   C1B51859  29.821  34.310   6.450
 7314POPC   C2B51860  29.759  34.323   6.750
 7314POPC   C3B51861  29.819  34.374   7.050
 7314POPC   C4B51862  29.799  34.401   7.350
 7315POPC   NC351863  42.369  10.510   5.550
 7315POPC   PO451864  42.311  10.505   5.850
 7315POPC   GL151865  42.368  10.526   6.150
 7315POPC   GL251866  42.388  10.625   6.150
 7315POPC   C1A51867  42.300  10.486   6.450
 7315POPC   D2A51868  42.311  10.505   6.750
 7315POPC   C3A51869  42.311  10.495   7.050
 7315POPC   C4A51870  42.311  10.485   7.350
 7315POPC   C1B51871  42.397  10.734   6.450
 7315POPC   C2B51872  42.358  10.814   6.750
 7315POPC   C3B51873  42.404  10.817   7.050
 7315POPC   C4B51874  42.430  10.795   7.350
 7316POPC   NC351875  44.658  22.932   5.550
 7316POPC   PO451876  44.654  22.917   5.850
 7316POPC   GL151877  44.696  22.963   6.150
 7316POPC   GL251878  44.783  22.999   6.150
 7316POPC   C1A51879  44.628  22.963   6.450
 7316POPC   D2A51880  44.700  22.962   6.750
 7316POPC   C3A51881  44.632  22.958   7.050
 7316POPC   C4A51882  44.696  22.970   7.350
 7316POPC   C1B51883  44.919  23.064   6.450
 7316POPC   C2B51884  44.904  23.015   6.750
 7316POPC   C3B51885  44.869  23.105   7.050
 7316POPC   C4B51886  44.893  23.100   7.350
 7317POPC   NC351887  36.120  15.189   5.550
 7317POPC   PO451888  36.158  15.220   5.850
 7317POPC   GL151889  36.122  15.210   6.150
 7317POPC   GL251890  36.240  15.278   6.150
 7317POPC   C1A51891  36.109  15.165   6.450
 7317POPC   D2A51892  36.129  15.177   6.750
 7317POPC   C3A51893  36.144  15.132   7.050
 7317POPC   C4A51894  36.177  15.211   7.350
 7317POPC   C1B51895  36.339  15.284   6.450
 7317POPC   C2B51896  36.314  15.318   6.750
 7317POPC   C3B51897  36.305  15.325   7.050
 7317POPC   C4B51898  36.300  15.321   7.350
 7318POPC   NC351899  43.073   3.500   5.550
 7318POPC   PO451900  43.101   3.506   5.850
 7318POPC   GL151901  43.070   3.537   6.150
 7318POPC   GL251902  43.030   3.479   6.150
 7318POPC   C1A51903  43.158   3.531   6.450
 7318POPC   D2A51904  43.129   3.582   6.750
 7318POPC   C3A51905  43.085   3.527   7.050
 7318POPC   C4A51906  43.079   3.505   7.350
 7318POPC   C1B51907  42.928   3.353   6.450
 7318POPC   C2B51908  43.000   3.342   6.750
 7318POPC   C3B51909  42.963   3.292   7.050
 7318POPC   C4B51910  42.918   3.368   7.350
 7319POPC   NC351911  11.302  13.657   5.550
 7319POPC   PO451912  11.291  13.590   5.850
 7319POPC   GL151913  11.261  13.648   6.150
 7319POPC   GL251914  11.182  13.500   6.150
 7319POPC   C1A51915  11.254  13.585   6.450
 7319POPC   D2A51916  11.313  13.675   6.750
 7319POPC   C3A51917  11.306  13.674   7.050
 7319POPC   C4A51918  11.258  13.663   7.350
 7319POPC   C1B51919  11.112  13.468   6.450
 7319POPC   C2B51920  11.160  13.445   6.750
 7319POPC   C3B51921  11.104  13.487   7.050
 7319POPC   C4B51922  11.174  13.482   7.350
 7320POPC   NC351923  34.610   9.791   5.550
 7320POPC   PO451924  34.606   9.790   5.850
 7320POPC   GL151925  34.533   9.797   6.150
 7320POPC   GL251926  34.582   9.621   6.150
 7320POPC   C1A51927  34.561   9.726   6.450
 7320POPC   D2A51928  34.613   9.731   6.750
 7320POPC   C3A51929  34.583   9.704   7.050
 7320POPC   C4A51930  34.587   9.737   7.350
 7320POPC   C1B51931  34.512   9.523   6.450
 7320POPC   C2B51932  34.526   9.459   6.750
 7320POPC   C3B51933  34.502   9.508   7.050
 7320POPC   C4B51934  34.494   9.554   7.350
 7321POPC   NC351935  34.547  36.868   5.550
 7321POPC   PO451936  34.610  36.948   5.850
 7321POPC   GL151937  34.598  36.882   6.150
 7321POPC   GL251938  34.503  36.763   6.150
 7321POPC   C1A51939  34.613  36.919   6.450
 7321POPC   D2A51940  34.548  36.946   6.750
 7321POPC   C3A51941  34.602  36.903   7.050
 7321POPC   C4A51942  34.550  36.880   7.350
 7321POPC   C1B51943  34.527  36.658   6.450
 7321POPC   C2B51944  34.525  36.614   6.750
 7321POPC   C3B51945  34.517  36.694   7.050
 7321POPC   C4B51946  34.568  36.650   7.350
 7322POPC   NC351947  39.194   2.807   5.550
 7322POPC   PO451948  39.277   2.730   5.850
 7322POPC   GL151949  39.206   2.799   6.150
 7322POPC   GL251950  39.151   2.867   6.150
 7322POPC   C1A51951  39.219   2.796   6.450
 7322POPC   D2A51952  39.247   2.780   6.750
 7322POPC   C3A51953  39.227   2.804   7.050
 7322POPC   C4A51954  39.275   2.717   7.350
 7322POPC   C1B51955  39.103   2.970   6.450
 7322POPC   C2B51956  39.136   3.010   6.750
 7322POPC   C3B51957  39.184   3.012   7.050
 7322POPC   C4B51958  39.091   2.959   7.350
 7323POPC   NC351959  33.786  35.339   5.550
 7323POPC   PO451960  33.782  35.307   5.850
 7323POPC   GL151961  33.849  35.346   6.150
 7323POPC   GL251962  33.711  35.439   6.150
 7323POPC   C1A51963  33.810  35.381   6.450
 7323POPC   D2A51964  33.759  35.400   6.750
 7323POPC   C3A51965  33.824  35.383   7.050
 7323POPC   C4A51966  33.789  35.389   7.350
 7323POPC   C1B51967  33.610  35.499   6.450
 7323POPC   C2B51968  33.618  35.531   6.750
 7323POPC   C3B51969  33.621  35.566   7.050
 7323POPC   C4B51970  33.606  35.554   7.350
 7324POPC   NC351971  35.390  20.565   5.550
 7324POPC   PO451972  35.328  20.566   5.850
 7324POPC   GL151973  35.396  20.632   6.150
 7324POPC   GL251974  35.280  20.604   6.150
 7324POPC   C1A51975  35.382  20.611   6.450
 7324POPC   D2A51976  35.348  20.571   6.750
 7324POPC   C3A51977  35.344  20.584   7.050
 7324POPC   C4A51978  35.315  20.579   7.350
 7324POPC   C1B51979  35.076  20.656   6.450
 7324POPC   C2B51980  35.079  20.745   6.750
 7324POPC   C3B51981  35.145  20.664   7.050
 7324POPC   C4B51982  35.110  20.728   7.350
 7325POPC   NC351983  33.036  38.466   5.550
 7325POPC   PO451984  33.045  38.448   5.850
 7325POPC   GL151985  32.982  38.436   6.150
 7325POPC   GL251986  33.073  38.328   6.150
 7325POPC   C1A51987  32.977  38.467   6.450
 7325POPC   D2A51988  32.981  38.477   6.750
 7325POPC   C3A51989  33.053  38.410   7.050
 7325POPC   C4A51990  33.060  38.480   7.350
 7325POPC   C1B51991  33.150  38.197   6.450
 7325POPC   C2B51992  33.107  38.269   6.750
 7325POPC   C3B51993  33.080  38.182   7.050
 7325POPC   C4B51994  33.121  38.176   7.350
 7326POPC   NC351995  32.294   8.936   5.550
 7326POPC   PO451996  32.208   8.956   5.850
 7326POPC   GL151997  32.286   8.944   6.150
 7326POPC   GL251998  32.199   9.086   6.150
 7326POPC   C1A51999  32.259   9.014   6.450
 7326POPC   D2A52000  32.278   8.996   6.750
 7326POPC   C3A52001  32.282   8.970   7.050
 7326POPC   C4A52002  32.258   8.947   7.350
 7326POPC   C1B52003  32.172   9.252   6.450
 7326POPC   C2B52004  32.212   9.256   6.750
 7326POPC   C3B52005  32.164   9.240   7.050
 7326POPC   C4B52006  32.188   9.251   7.350
 7327POPC   NC352007  36.951  37.688   5.550
 7327POPC   PO452008  36.950  37.695   5.850
 7327POPC   GL152009  36.858  37.686   6.150
 7327POPC   GL252010  36.756  37.730   6.150
 7327POPC   C1A52011  36.879  37.680   6.450
 7327POPC   D2A52012  36.880  37.671   6.750
 7327POPC   C3A52013  36.870  37.690   7.050
 7327POPC   C4A52014  36.922  37.687   7.350
 7327POPC   C1B52015  36.646  37.725   6.450
 7327POPC   C2B52016  36.677  37.741   6.750
 7327POPC   C3B52017  36.638  37.694   7.050
 7327POPC   C4B52018  36.609  37.757   7.350
 7328POPC   NC352019  40.827  40.006   5.550
 7328POPC   PO452020  40.766  39.993   5.850
 7328POPC   GL152021  40.812  39.969   6.150
 7328POPC   GL252022  40.652  40.051   6.150
 7328POPC   C1A52023  40.788  39.958   6.450
 7328POPC   D2A52024  40.767  40.040   6.750
 7328POPC   C3A52025  40.800  40.036   7.050
 7328POPC   C4A52026  40.801  39.979   7.350
 7328POPC   C1B52027  40.554  40.103   6.450
 7328POPC   C2B52028  40.593  40.116   6.750
 7328POPC   C3B52029  40.582  40.117   7.050
 7328POPC   C4B52030  40.563  40.095   7.350
 7329POPC   NC352031  27.586  15.993   5.550
 7329POPC   PO452032  27.584  15.966   5.850
 7329POPC   GL152033  27.583  15.928   6.150
 7329POPC   GL252034  27.601  15.873   6.150
 7329POPC   C1A52035  27.620  15.924   6.450
 7329POPC   D2A52036  27.584  15.908   6.750
 7329POPC   C3A52037  27.545  15.940   7.050
 7329POPC   C4A52038  27.633  15.944   7.350
 7329POPC   C1B52039  27.661  15.734   6.450
 7329POPC   C2B52040  27.740  15.748   6.750
 7329POPC   C3B52041  27.750  15.714   7.050
 7329POPC   C4B52042  27.719  15.700   7.350
 7330POPC   NC352043  29.907  11.311   5.550
 7330POPC   PO452044  29.910  11.265   5.850
 7330POPC   GL152045  29.874  11.276   6.150
 7330POPC   GL252046  30.039  11.308   6.150
 7330POPC   C1A52047  29.889  11.291   6.450
 7330POPC   D2A52048  29.895  11.341   6.750
 7330POPC   C3A52049  29.954  11.270   7.050
 7330POPC   C4A52050  29.913  11.281   7.350
 7330POPC   C1B52051  30.124  11.227   6.450
 7330POPC   C2B52052  30.179  11.211   6.750
 7330POPC   C3B52053  30.171  11.208   7.050
 7330POPC   C4B52054  30.141  11.198   7.350
 7331POPC   NC352055  26.854  32.258   5.550
 7331POPC   PO452056  26.824  32.258   5.850
 7331POPC   GL152057  26.832  32.217   6.150
 7331POPC   GL252058  26.724  32.351   6.150
 7331POPC   C1A52059  26.837  32.289   6.450
 7331POPC   D2A52060  26.806  32.278   6.750
 7331POPC   C3A52061  26.779  32.291   7.050
 7331POPC   C4A52062  26.802  32.298   7.350
 7331POPC   C1B52063  26.762  32.475   6.450
 7331POPC   C2B52064  26.701  32.463   6.750
 7331POPC   C3B52065  26.753  32.522   7.050
 7331POPC   C4B52066  26.741  32.493   7.350
 7332POPC   NC352067   8.169   9.795   5.550
 7332POPC   PO452068   8.225   9.774   5.850
 7332POPC   GL152069   8.160   9.734   6.150
 7332POPC   GL252070   8.306   9.830   6.150
 7332POPC   C1A52071   8.222   9.795   6.450
 7332POPC   D2A52072   8.158   9.712   6.750
 7332POPC   C3A52073   8.227   9.784   7.050
 7332POPC   C4A52074   8.163   9.716   7.350
 7332POPC   C1B52075   8.317   9.959   6.450
 7332POPC   C2B52076   8.333   9.968   6.750
 7332POPC   C3B52077   8.322   9.977   7.050
 7332POPC   C4B52078   8.314   9.909   7.350
 7333POPC   NC352079  14.358  29.938   5.550
 7333POPC   PO452080  14.432  29.935   5.850
 7333POPC   GL152081  14.437  29.876   6.150
 7333POPC   GL252082  14.505  29.844   6.150
 7333POPC   C1A52083  14.371  29.961   6.450
 7333POPC   D2A52084  14.357  29.923   6.750
 7333POPC   C3A52085  14.403  29.963   7.050
 7333POPC   C4A52086  14.438  29.933   7.350
 7333POPC   C1B52087  14.502  29.746   6.450
 7333POPC   C2B52088  14.553  29.749   6.750
 7333POPC   C3B52089  14.502  29.732   7.050
 7333POPC   C4B52090  14.578  29.746   7.350
 7334POPC   NC352091   5.827   4.306   5.550
 7334POPC   PO452092   5.906   4.327   5.850
 7334POPC   GL152093   5.847   4.318   6.150
 7334POPC   GL252094   5.792   4.312   6.150
 7334POPC   C1A52095   5.879   4.353   6.450
 7334POPC   D2A52096   5.909   4.290   6.750
 7334POPC   C3A52097   5.885   4.287   7.050
 7334POPC   C4A52098   5.841   4.357   7.350
 7334POPC   C1B52099   5.651   4.343   6.450
 7334POPC   C2B52100   5.625   4.287   6.750
 7334POPC   C3B52101   5.572   4.306   7.050
 7334POPC   C4B52102   5.601   4.298   7.350
 7335POPC   NC352103  40.809  23.710   5.550
 7335POPC   PO452104  40.798  23.745   5.850
 7335POPC   GL152105  40.781  23.737   6.150
 7335POPC   GL252106  40.777  23.824   6.150
 7335POPC   C1A52107  40.736  23.744   6.450
 7335POPC   D2A52108  40.812  23.742   6.750
 7335POPC   C3A52109  40.813  23.691   7.050
 7335POPC   C4A52110  40.772  23.691   7.350
 7335POPC   C1B52111  40.784  23.991   6.450
 7335POPC   C2B52112  40.836  23.919   6.750
 7335POPC   C3B52113  40.804  23.942   7.050
 7335POPC   C4B52114  40.858  23.997   7.350
 7336POPC   NC352115  21.341   8.238   5.550
 7336POPC   PO452116  21.374   8.161   5.850
 7336POPC   GL152117  21.407   8.214   6.150
 7336POPC   GL252118  21.380   8.090   6.150
 7336POPC   C1A52119  21.379   8.220   6.450
 7336POPC   D2A52120  21.396   8.164   6.750
 7336POPC   C3A52121  21.369   8.193   7.050
 7336POPC   C4A52122  21.385   8.227   7.350
 7336POPC   C1B52123  21.418   7.929   6.450
 7336POPC   C2B52124  21.368   7.926   6.750
 7336POPC   C3B52125  21.454   7.972   7.050
 7336POPC   C4B52126  21.450   7.929   7.350
 7337POPC   NC352127  39.239  37.644   5.550
 7337POPC   PO452128  39.267  37.725   5.850
 7337POPC   GL152129  39.219  37.717   6.150
 7337POPC   GL252130  39.318  37.705   6.150
 7337POPC   C1A52131  39.197  37.673   6.450
 7337POPC   D2A52132  39.254  37.711   6.750
 7337POPC   C3A52133  39.261  37.630   7.050
 7337POPC   C4A52134  39.188  37.663   7.350
 7337POPC   C1B52135  39.499  37.718   6.450
 7337POPC   C2B52136  39.449  37.736   6.750
 7337POPC   C3B52137  39.459  37.698   7.050
 7337POPC   C4B52138  39.503  37.671   7.350
 7338POPC   NC352139  23.678  27.588   5.550
 7338POPC   PO452140  23.744  27.578   5.850
 7338POPC   GL152141  23.714  27.624   6.150
 7338POPC   GL252142  23.553  27.555   6.150
 7338POPC   C1A52143  23.722  27.560   6.450
 7338POPC   D2A52144  23.697  27.618   6.750
 7338POPC   C3A52145  23.675  27.553   7.050
 7338POPC   C4A52146  23.731  27.593   7.350
 7338POPC   C1B52147  23.443  27.507   6.450
 7338POPC   C2B52148  23.475  27.465   6.750
 7338POPC   C3B52149  23.504  27.441   7.050
 7338POPC   C4B52150  23.521  27.473   7.350
 7339POPC   NC352151   4.279  28.325   5.550
 7339POPC   PO452152   4.338  28.324   5.850
 7339POPC   GL152153   4.326  28.400   6.150
 7339POPC   GL252154   4.204  28.334   6.150
 7339POPC   C1A52155   4.362  28.350   6.450
 7339POPC   D2A52156   4.271  28.408   6.750
 7339POPC   C3A52157   4.341  28.389   7.050
 7339POPC   C4A52158   4.328  28.412   7.350
 7339POPC   C1B52159   4.083  28.366   6.450
 7339POPC   C2B52160   4.061  28.414   6.750
 7339POPC   C3B52161   4.115  28.334   7.050
 7339POPC   C4B52162   4.042  28.404   7.350
 7340POPC   NC352163  15.207  43.895   5.550
 7340POPC   PO452164  15.219  43.875   5.850
 7340POPC   GL152165  15.201  43.903   6.150
 7340POPC   GL252166  15.060  43.818   6.150
 7340POPC   C1A52167  15.184  43.851   6.450
 7340POPC   D2A52168  15.177  43.929   6.750
 7340POPC   C3A52169  15.132  43.853   7.050
 7340POPC   C4A52170  15.154  43.928   7.350
 7340POPC   C1B52171  14.917  43.796   6.450
 7340POPC   C2B52172  14.948  43.766   6.750
 7340POPC   C3B52173  14.923  43.803   7.050
 7340POPC   C4B52174  14.924  43.804   7.350
 7341POPC   NC352175  31.439  32.212   5.550
 7341POPC   PO452176  31.462  32.200   5.850
 7341POPC   GL152177  31.465  32.236   6.150
 7341POPC   GL252178  31.629  32.234   6.150
 7341POPC   C1A52179  31.435  32.222   6.450
 7341POPC   D2A52180  31.459  32.286   6.750
 7341POPC   C3A52181  31.460  32.205   7.050
 7341POPC   C4A52182  31.505  32.220   7.350
 7341POPC   C1B52183  31.761  32.324   6.450
 7341POPC   C2B52184  31.729  32.288   6.750
 7341POPC   C3B52185  31.725  32.280   7.050
 7341POPC   C4B52186  31.671  32.300   7.350
 7342POPC   NC352187  28.347  13.619   5.550
 7342POPC   PO452188  28.396  13.612   5.850
 7342POPC   GL152189  28.367  13.613   6.150
 7342POPC   GL252190  28.265  13.536   6.150
 7342POPC   C1A52191  28.350  13.594   6.450
 7342POPC   D2A52192  28.395  13.615   6.750
 7342POPC   C3A52193  28.369  13.667   7.050
 7342POPC   C4A52194  28.356  13.657   7.350
 7342POPC   C1B52195  28.172  13.437   6.450
 7342POPC   C2B52196  28.211  13.421   6.750
 7342POPC   C3B52197  28.236  13.448   7.050
 7342POPC   C4B52198  28.234  13.417   7.350
 7343POPC   NC352199  43.905   5.861   5.550
 7343POPC   PO452200  43.893   5.854   5.850
 7343POPC   GL152201  43.895   5.852   6.150
 7343POPC   GL252202  43.967   5.851   6.150
 7343POPC   C1A52203  43.836   5.883   6.450
 7343POPC   D2A52204  43.888   5.865   6.750
 7343POPC   C3A52205  43.936   5.902   7.050
 7343POPC   C4A52206  43.852   5.826   7.350
 7343POPC   C1B52207  44.142   5.760   6.450
 7343POPC   C2B52208  44.085   5.816   6.750
 7343POPC   C3B52209  44.079   5.763   7.050
 7343POPC   C4B52210  44.149   5.771   7.350
 7344POPC   NC352211   6.661   0.398   5.550
 7344POPC   PO452212   6.612   0.485   5.850
 7344POPC   GL152213   6.622   0.471   6.150
 7344POPC   GL252214   6.699   0.305   6.150
 7344POPC   C1A52215   6.597   0.425   6.450
 7344POPC   D2A52216   6.642   0.472   6.750
 7344POPC   C3A52217   6.609   0.467   7.050
 7344POPC   C4A52218   6.625   0.393   7.350
 7344POPC   C1B52219   6.777   0.212   6.450
 7344POPC   C2B52220   6.776   0.211   6.750
 7344POPC   C3B52221   6.815   0.199   7.050
 7344POPC   C4B52222   6.803   0.216   7.350
 7345POPC   NC352223   0.476   8.220   5.550
 7345POPC   PO452224   0.472   8.244   5.850
 7345POPC   GL152225   0.425   8.236   6.150
 7345POPC   GL252226   0.294   8.112   6.150
 7345POPC   C1A52227   0.415   8.214   6.450
 7345POPC   D2A52228   0.390   8.241   6.750
 7345POPC   C3A52229   0.446   8.189   7.050
 7345POPC   C4A52230   0.459   8.191   7.350
 7345POPC   C1B52231   0.278   8.034   6.450
 7345POPC   C2B52232   0.245   8.075   6.750
 7345POPC   C3B52233   0.273   8.073   7.050
 7345POPC   C4B52234   0.221   8.043   7.350
 7346POPC   NC352235  44.708   5.879   5.550
 7346POPC   PO452236  44.650   5.835   5.850
 7346POPC   GL152237  44.694   5.862   6.150
 7346POPC   GL252238  44.607   5.700   6.150
 7346POPC   C1A52239  44.669   5.822   6.450
 7346POPC   D2A52240  44.666   5.838   6.750
 7346POPC   C3A52241  44.640   5.833   7.050
 7346POPC   C4A52242  44.694   5.886   7.350
 7346POPC   C1B52243  44.561   5.667   6.450
 7346POPC   C2B52244  44.555   5.651   6.750
 7346POPC   C3B52245  44.553   5.621   7.050
 7346POPC   C4B52246  44.583   5.660   7.350
 7347POPC   NC352247   5.834  36.133   5.550
 7347POPC   PO452248   5.865  36.136   5.850
 7347POPC   GL152249   5.855  36.120   6.150
 7347POPC   GL252250   5.961  35.998   6.150
 7347POPC   C1A52251   5.886  36.086   6.450
 7347POPC   D2A52252   5.850  36.115   6.750
 7347POPC   C3A52253   5.869  36.127   7.050
 7347POPC   C4A52254   5.916  36.173   7.350
 7347POPC   C1B52255   6.095  35.938   6.450
 7347POPC   C2B52256   6.037  36.001   6.750
 7347POPC   C3B52257   6.012  35.933   7.050
 7347POPC   C4B52258   6.085  35.914   7.350
 7348POPC   NC352259  43.850  30.647   5.550
 7348POPC   PO452260  43.915  30.672   5.850
 7348POPC   GL152261  43.889  30.677   6.150
 7348POPC   GL252262  44.014  30.727   6.150
 7348POPC   C1A52263  43.923  30.705   6.450
 7348POPC   D2A52264  43.853  30.697   6.750
 7348POPC   C3A52265  43.839  30.675   7.050
 7348POPC   C4A52266  43.906  30.656   7.350
 7348POPC   C1B52267  44.159  30.782   6.450
 7348POPC   C2B52268  44.121  30.793   6.750
 7348POPC   C3B52269  44.126  30.749   7.050
 7348POPC   C4B52270  44.106  30.760   7.350
 7349POPC   NC352271  17.548  29.192   5.550
 7349POPC   PO452272  17.482  29.177   5.850
 7349POPC   GL152273  17.472  29.112   6.150
 7349POPC   GL252274  17.612  29.203   6.150
 7349POPC   C1A52275  17.530  29.162   6.450
 7349POPC   D2A52276  17.536  29.177   6.750
 7349POPC   C3A52277  17.544  29.099   7.050
 7349POPC   C4A52278  17.468  29.194   7.350
 7349POPC   C1B52279  17.647  29.380   6.450
 7349POPC   C2B52280  17.699  29.326   6.750
 7349POPC   C3B52281  17.618  29.298   7.050
 7349POPC   C4B52282  17.670  29.364   7.350
 7350POPC   NC352283   5.132   3.588   5.550
 7350POPC   PO452284   5.130   3.518   5.850
 7350POPC   GL152285   5.117   3.536   6.150
 7350POPC   GL252286   4.967   3.594   6.150
 7350POPC   C1A52287   5.081   3.541   6.450
 7350POPC   D2A52288   5.100   3.540   6.750
 7350POPC   C3A52289   5.140   3.552   7.050
 7350POPC   C4A52290   5.118   3.572   7.350
 7350POPC   C1B52291   4.864   3.577   6.450
 7350POPC   C2B52292   4.843   3.585   6.750
 7350POPC   C3B52293   4.798   3.533   7.050
 7350POPC   C4B52294   4.860   3.574   7.350
 7351POPC   NC352295  15.924  32.981   5.550
 7351POPC   PO452296  16.004  33.024   5.850
 7351POPC   GL152297  15.950  33.019   6.150
 7351POPC   GL252298  16.015  32.961   6.150
 7351POPC   C1A52299  15.986  33.012   6.450
 7351POPC   D2A52300  15.989  33.019   6.750
 7351POPC   C3A52301  15.947  33.026   7.050
 7351POPC   C4A52302  15.974  33.033   7.350
 7351POPC   C1B52303  16.128  32.851   6.450
 7351POPC   C2B52304  16.154  32.820   6.750
 7351POPC   C3B52305  16.151  32.824   7.050
 7351POPC   C4B52306  16.157  32.847   7.350
 7352POPC   NC352307  36.948  19.019   5.550
 7352POPC   PO452308  36.872  19.054   5.850
 7352POPC   GL152309  36.862  19.071   6.150
 7352POPC   GL252310  36.925  18.980   6.150
 7352POPC   C1A52311  36.949  19.079   6.450
 7352POPC   D2A52312  36.908  19.081   6.750
 7352POPC   C3A52313  36.933  19.055   7.050
 7352POPC   C4A52314  36.906  19.097   7.350
 7352POPC   C1B52315  36.959  18.786   6.450
 7352POPC   C2B52316  36.941  18.806   6.750
 7352POPC   C3B52317  36.962  18.824   7.050
 7352POPC   C4B52318  36.979  18.867   7.350
 7353POPC   NC352319  11.291  36.863   5.550
 7353POPC   PO452320  11.284  36.886   5.850
 7353POPC   GL152321  11.296  36.935   6.150
 7353POPC   GL252322  11.413  36.808   6.150
 7353POPC   C1A52323  11.302  36.915   6.450
 7353POPC   D2A52324  11.283  36.914   6.750
 7353POPC   C3A52325  11.308  36.888   7.050
 7353POPC   C4A52326  11.288  36.895   7.350
 7353POPC   C1B52327  11.503  36.795   6.450
 7353POPC   C2B52328  11.481  36.797   6.750
 7353POPC   C3B52329  11.476  36.810   7.050
 7353POPC   C4B52330  11.526  36.799   7.350
 7354POPC   NC352331  40.816   9.754   5.550
 7354POPC   PO452332  40.810   9.706   5.850
 7354POPC   GL152333  40.752   9.752   6.150
 7354POPC   GL252334  40.697   9.836   6.150
 7354POPC   C1A52335  40.739   9.769   6.450
 7354POPC   D2A52336  40.745   9.777   6.750
 7354POPC   C3A52337  40.826   9.701   7.050
 7354POPC   C4A52338  40.829   9.789   7.350
 7354POPC   C1B52339  40.625   9.903   6.450
 7354POPC   C2B52340  40.668   9.913   6.750
 7354POPC   C3B52341  40.674   9.956   7.050
 7354POPC   C4B52342  40.622   9.944   7.350
 7355POPC   NC352343  31.483  39.984   5.550
 7355POPC   PO452344  31.499  40.034   5.850
 7355POPC   GL152345  31.452  40.045   6.150
 7355POPC   GL252346  31.373  40.134   6.150
 7355POPC   C1A52347  31.477  40.027   6.450
 7355POPC   D2A52348  31.522  40.036   6.750
 7355POPC   C3A52349  31.487  39.990   7.050
 7355POPC   C4A52350  31.450  40.053   7.350
 7355POPC   C1B52351  31.273  40.145   6.450
 7355POPC   C2B52352  31.327  40.159   6.750
 7355POPC   C3B52353  31.253  40.193   7.050
 7355POPC   C4B52354  31.311  40.201   7.350
 7356POPC   NC352355   6.596   2.031   5.550
 7356POPC   PO452356   6.674   1.986   5.850
 7356POPC   GL152357   6.669   1.962   6.150
 7356POPC   GL252358   6.638   2.133   6.150
 7356POPC   C1A52359   6.692   1.942   6.450
 7356POPC   D2A52360   6.600   1.979   6.750
 7356POPC   C3A52361   6.694   2.003   7.050
 7356POPC   C4A52362   6.671   1.998   7.350
 7356POPC   C1B52363   6.682   2.248   6.450
 7356POPC   C2B52364   6.772   2.248   6.750
 7356POPC   C3B52365   6.746   2.196   7.050
 7356POPC   C4B52366   6.745   2.234   7.350
 7357POPC   NC352367   8.206  35.390   5.550
 7357POPC   PO452368   8.185  35.387   5.850
 7357POPC   GL152369   8.216  35.377   6.150
 7357POPC   GL252370   8.223  35.225   6.150
 7357POPC   C1A52371   8.215  35.309   6.450
 7357POPC   D2A52372   8.243  35.305   6.750
 7357POPC   C3A52373   8.182  35.344   7.050
 7357POPC   C4A52374   8.243  35.363   7.350
 7357POPC   C1B52375   8.314  35.190   6.450
 7357POPC   C2B52376   8.388  35.134   6.750
 7357POPC   C3B52377   8.339  35.171   7.050
 7357POPC   C4B52378   8.393  35.161   7.350
 7358POPC   NC352379  27.627  21.417   5.550
 7358POPC   PO452380  27.614  21.404   5.850
 7358POPC   GL152381  27.629  21.389   6.150
 7358POPC   GL252382  27.661  21.354   6.150
 7358POPC   C1A52383  27.546  21.386   6.450
 7358POPC   D2A52384  27.593  21.357   6.750
 7358POPC   C3A52385  27.556  21.362   7.050
 7358POPC   C4A52386  27.586  21.387   7.350
 7358POPC   C1B52387  27.855  21.239   6.450
 7358POPC   C2B52388  27.864  21.238   6.750
 7358POPC   C3B52389  27.804  21.251   7.050
 7358POPC   C4B52390  27.783  21.298   7.350
 7359POPC   NC352391  25.260  32.264   5.550
 7359POPC   PO452392  25.237  32.282   5.850
 7359POPC   GL152393  25.281  32.287   6.150
 7359POPC   GL252394  25.192  32.292   6.150
 7359POPC   C1A52395  25.238  32.258   6.450
 7359POPC   D2A52396  25.276  32.295   6.750
 7359POPC   C3A52397  25.227  32.235   7.050
 7359POPC   C4A52398  25.232  32.211   7.350
 7359POPC   C1B52399  24.991  32.319   6.450
 7359POPC   C2B52400  25.082  32.307   6.750
 7359POPC   C3B52401  24.996  32.292   7.050
 7359POPC   C4B52402  24.998  32.303   7.350
 7360POPC   NC352403  35.363   2.756   5.550
 7360POPC   PO452404  35.401   2.749   5.850
 7360POPC   GL152405  35.382   2.759   6.150
 7360POPC   GL252406  35.218   2.840   6.150
 7360POPC   C1A52407  35.336   2.812   6.450
 7360POPC   D2A52408  35.358   2.735   6.750
 7360POPC   C3A52409  35.317   2.782   7.050
 7360POPC   C4A52410  35.379   2.737   7.350
 7360POPC   C1B52411  35.134   2.884   6.450
 7360POPC   C2B52412  35.096   2.902   6.750
 7360POPC   C3B52413  35.141   2.815   7.050
 7360POPC   C4B52414  35.153   2.835   7.350
 7361POPC   NC352415   3.590  33.029   5.550
 7361POPC   PO452416   3.504  32.975   5.850
 7361POPC   GL152417   3.565  33.035   6.150
 7361POPC   GL252418   3.373  33.048   6.150
 7361POPC   C1A52419   3.503  33.014   6.450
 7361POPC   D2A52420   3.504  32.999   6.750
 7361POPC   C3A52421   3.580  33.072   7.050
 7361POPC   C4A52422   3.581  33.045   7.350
 7361POPC   C1B52423   3.323  33.045   6.450
 7361POPC   C2B52424   3.268  33.000   6.750
 7361POPC   C3B52425   3.260  32.968   7.050
 7361POPC   C4B52426   3.305  33.006   7.350
 7362POPC   NC352427   1.962  12.105   5.550
 7362POPC   PO452428   1.952  12.069   5.850
 7362POPC   GL152429   1.971  12.094   6.150
 7362POPC   GL252430   1.838  12.124   6.150
 7362POPC   C1A52431   2.015  12.094   6.450
 7362POPC   D2A52432   1.973  12.035   6.750
 7362POPC   C3A52433   2.016  12.108   7.050
 7362POPC   C4A52434   1.961  12.100   7.350
 7362POPC   C1B52435   1.728  12.218   6.450
 7362POPC   C2B52436   1.721  12.205   6.750
 7362POPC   C3B52437   1.782  12.239   7.050
 7362POPC   C4B52438   1.780  12.237   7.350
 7363POPC   NC352439   5.136  35.320   5.550
 7363POPC   PO452440   5.067  35.356   5.850
 7363POPC   GL152441   5.094  35.392   6.150
 7363POPC   GL252442   5.166  35.426   6.150
 7363POPC   C1A52443   5.100  35.364   6.450
 7363POPC   D2A52444   5.070  35.391   6.750
 7363POPC   C3A52445   5.116  35.389   7.050
 7363POPC   C4A52446   5.088  35.374   7.350
 7363POPC   C1B52447   5.320  35.445   6.450
 7363POPC   C2B52448   5.309  35.454   6.750
 7363POPC   C3B52449   5.267  35.474   7.050
 7363POPC   C4B52450   5.289  35.446   7.350
 7364POPC   NC352451  14.436  40.017   5.550
 7364POPC   PO452452  14.452  39.998   5.850
 7364POPC   GL152453  14.435  39.994   6.150
 7364POPC   GL252454  14.307  40.012   6.150
 7364POPC   C1A52455  14.431  39.973   6.450
 7364POPC   D2A52456  14.376  39.974   6.750
 7364POPC   C3A52457  14.409  39.988   7.050
 7364POPC   C4A52458  14.445  40.024   7.350
 7364POPC   C1B52459  14.192  39.915   6.450
 7364POPC   C2B52460  14.182  39.974   6.750
 7364POPC   C3B52461  14.151  39.885   7.050
 7364POPC   C4B52462  14.185  39.946   7.350
 7365POPC   NC352463  27.632  28.339   5.550
 7365POPC   PO452464  27.612  28.323   5.850
 7365POPC   GL152465  27.630  28.326   6.150
 7365POPC   GL252466  27.521  28.316   6.150
 7365POPC   C1A52467  27.599  28.412   6.450
 7365POPC   D2A52468  27.621  28.419   6.750
 7365POPC   C3A52469  27.642  28.414   7.050
 7365POPC   C4A52470  27.627  28.417   7.350
 7365POPC   C1B52471  27.396  28.201   6.450
 7365POPC   C2B52472  27.412  28.193   6.750
 7365POPC   C3B52473  27.388  28.209   7.050
 7365POPC   C4B52474  27.393  28.200   7.350
 7366POPC   NC352475  23.679   2.798   5.550
 7366POPC   PO452476  23.712   2.779   5.850
 7366POPC   GL152477  23.702   2.801   6.150
 7366POPC   GL252478  23.566   2.730   6.150
 7366POPC   C1A52479  23.736   2.722   6.450
 7366POPC   D2A52480  23.718   2.814   6.750
 7366POPC   C3A52481  23.696   2.800   7.050
 7366POPC   C4A52482  23.688   2.786   7.350
 7366POPC   C1B52483  23.471   2.617   6.450
 7366POPC   C2B52484  23.499   2.600   6.750
 7366POPC   C3B52485  23.536   2.624   7.050
 7366POPC   C4B52486  23.515   2.623   7.350
 7367POPC   NC352487   5.835  10.534   5.550
 7367POPC   PO452488   5.905  10.526   5.850
 7367POPC   GL152489   5.850  10.484   6.150
 7367POPC   GL252490   5.791  10.450   6.150
 7367POPC   C1A52491   5.855  10.492   6.450
 7367POPC   D2A52492   5.909  10.570   6.750
 7367POPC   C3A52493   5.912  10.556   7.050
 7367POPC   C4A52494   5.897  10.531   7.350
 7367POPC   C1B52495   5.611  10.424   6.450
 7367POPC   C2B52496   5.652  10.431   6.750
 7367POPC   C3B52497   5.639  10.467   7.050
 7367POPC   C4B52498   5.592  10.409   7.350
 7368POPC   NC352499  30.711   1.975   5.550
 7368POPC   PO452500  30.677   2.012   5.850
 7368POPC   GL152501  30.683   1.941   6.150
 7368POPC   GL252502  30.556   1.924   6.150
 7368POPC   C1A52503  30.745   1.945   6.450
 7368POPC   D2A52504  30.735   2.037   6.750
 7368POPC   C3A52505  30.681   1.983   7.050
 7368POPC   C4A52506  30.664   2.032   7.350
 7368POPC   C1B52507  30.561   1.864   6.450
 7368POPC   C2B52508  30.498   1.844   6.750
 7368POPC   C3B52509  30.557   1.795   7.050
 7368POPC   C4B52510  30.491   1.822   7.350
 7369POPC   NC352511  19.820  39.255   5.550
 7369POPC   PO452512  19.865  39.247   5.850
 7369POPC   GL152513  19.867  39.260   6.150
 7369POPC   GL252514  19.905  39.350   6.150
 7369POPC   C1A52515  19.816  39.210   6.450
 7369POPC   D2A52516  19.829  39.186   6.750
 7369POPC   C3A52517  19.844  39.215   7.050
 7369POPC   C4A52518  19.800  39.231   7.350
 7369POPC   C1B52519  20.034  39.385   6.450
 7369POPC   C2B52520  19.986  39.383   6.750
 7369POPC   C3B52521  20.073  39.393   7.050
 7369POPC   C4B52522  19.985  39.406   7.350
 7370POPC   NC352523  23.752  15.907   5.550
 7370POPC   PO452524  23.674  15.934   5.850
 7370POPC   GL152525  23.737  15.916   6.150
 7370POPC   GL252526  23.816  16.028   6.150
 7370POPC   C1A52527  23.670  15.980   6.450
 7370POPC   D2A52528  23.739  15.958   6.750
 7370POPC   C3A52529  23.754  15.914   7.050
 7370POPC   C4A52530  23.680  15.979   7.350
 7370POPC   C1B52531  23.875  16.160   6.450
 7370POPC   C2B52532  23.891  16.177   6.750
 7370POPC   C3B52533  23.871  16.160   7.050
 7370POPC   C4B52534  23.803  16.153   7.350
 7371POPC   NC352535  41.593  31.518   5.550
 7371POPC   PO452536  41.596  31.453   5.850
 7371POPC   GL152537  41.581  31.521   6.150
 7371POPC   GL252538  41.530  31.610   6.150
 7371POPC   C1A52539  41.588  31.503   6.450
 7371POPC   D2A52540  41.592  31.487   6.750
 7371POPC   C3A52541  41.537  31.506   7.050
 7371POPC   C4A52542  41.581  31.433   7.350
 7371POPC   C1B52543  41.601  31.699   6.450
 7371POPC   C2B52544  41.530  31.726   6.750
 7371POPC   C3B52545  41.526  31.744   7.050
 7371POPC   C4B52546  41.599  31.732   7.350
 7372POPC   NC352547   6.651  24.440   5.550
 7372POPC   PO452548   6.652  24.513   5.850
 7372POPC   GL152549   6.604  24.533   6.150
 7372POPC   GL252550   6.574  24.507   6.150
 7372POPC   C1A52551   6.648  24.474   6.450
 7372POPC   D2A52552   6.680  24.510   6.750
 7372POPC   C3A52553   6.682  24.476   7.050
 7372POPC   C4A52554   6.661  24.463   7.350
 7372POPC   C1B52555   6.445  24.566   6.450
 7372POPC   C2B52556   6.371  24.562   6.750
 7372POPC   C3B52557   6.359  24.522   7.050
 7372POPC   C4B52558   6.452  24.520   7.350
 7373POPC   NC352559  12.095  31.518   5.550
 7373POPC   PO452560  12.116  31.516   5.850
 7373POPC   GL152561  12.105  31.438   6.150
 7373POPC   GL252562  12.144  31.356   6.150
 7373POPC   C1A52563  12.113  31.450   6.450
 7373POPC   D2A52564  12.093  31.467   6.750
 7373POPC   C3A52565  12.039  31.453   7.050
 7373POPC   C4A52566  12.113  31.443   7.350
 7373POPC   C1B52567  12.101  31.262   6.450
 7373POPC   C2B52568  12.144  31.220   6.750
 7373POPC   C3B52569  12.183  31.276   7.050
 7373POPC   C4B52570  12.120  31.258   7.350
 7374POPC   NC352571   4.322  24.441   5.550
 7374POPC   PO452572   4.332  24.447   5.850
 7374POPC   GL152573   4.282  24.472   6.150
 7374POPC   GL252574   4.408  24.488   6.150
 7374POPC   C1A52575   4.345  24.492   6.450
 7374POPC   D2A52576   4.292  24.443   6.750
 7374POPC   C3A52577   4.354  24.520   7.050
 7374POPC   C4A52578   4.339  24.469   7.350
 7374POPC   C1B52579   4.591  24.391   6.450
 7374POPC   C2B52580   4.608  24.457   6.750
 7374POPC   C3B52581   4.596  24.427   7.050
 7374POPC   C4B52582   4.594  24.381   7.350
 7375POPC   NC352583  12.118   7.431   5.550
 7375POPC   PO452584  12.082   7.435   5.850
 7375POPC   GL152585  12.114   7.375   6.150
 7375POPC   GL252586  11.913   7.449   6.150
 7375POPC   C1A52587  12.113   7.415   6.450
 7375POPC   D2A52588  12.081   7.429   6.750
 7375POPC   C3A52589  12.055   7.451   7.050
 7375POPC   C4A52590  12.033   7.407   7.350
 7375POPC   C1B52591  11.796   7.439   6.450
 7375POPC   C2B52592  11.830   7.494   6.750
 7375POPC   C3B52593  11.824   7.425   7.050
 7375POPC   C4B52594  11.865   7.418   7.350
 7376POPC   NC352595  33.774   9.010   5.550
 7376POPC   PO452596  33.779   9.019   5.850
 7376POPC   GL152597  33.794   9.019   6.150
 7376POPC   GL252598  33.931   8.942   6.150
 7376POPC   C1A52599  33.758   8.989   6.450
 7376POPC   D2A52600  33.756   8.997   6.750
 7376POPC   C3A52601  33.820   9.012   7.050
 7376POPC   C4A52602  33.812   8.979   7.350
 7376POPC   C1B52603  34.043   8.983   6.450
 7376POPC   C2B52604  34.059   8.962   6.750
 7376POPC   C3B52605  34.012   8.931   7.050
 7376POPC   C4B52606  34.050   8.978   7.350
 7377POPC   NC352607  41.556  44.648   5.550
 7377POPC   PO452608  41.599  44.673   5.850
 7377POPC   GL152609  41.575  44.682   6.150
 7377POPC   GL252610  41.552  44.500   6.150
 7377POPC   C1A52611  41.512  44.683   6.450
 7377POPC   D2A52612  41.538  44.650   6.750
 7377POPC   C3A52613  41.534  44.687   7.050
 7377POPC   C4A52614  41.552  44.627   7.350
 7377POPC   C1B52615  41.631  44.391   6.450
 7377POPC   C2B52616  41.606  44.394   6.750
 7377POPC   C3B52617  41.620  44.447   7.050
 7377POPC   C4B52618  41.684  44.443   7.350
 7378POPC   NC352619   2.812  40.020   5.550
 7378POPC   PO452620   2.815  40.037   5.850
 7378POPC   GL152621   2.781  40.031   6.150
 7378POPC   GL252622   2.673  40.010   6.150
 7378POPC   C1A52623   2.767  39.967   6.450
 7378POPC   D2A52624   2.814  40.014   6.750
 7378POPC   C3A52625   2.814  40.029   7.050
 7378POPC   C4A52626   2.727  40.044   7.350
 7378POPC   C1B52627   2.530  39.964   6.450
 7378POPC   C2B52628   2.528  40.015   6.750
 7378POPC   C3B52629   2.537  39.943   7.050
 7378POPC   C4B52630   2.473  40.028   7.350
 7379POPC   NC352631   9.737  22.207   5.550
 7379POPC   PO452632   9.780  22.205   5.850
 7379POPC   GL152633   9.757  22.176   6.150
 7379POPC   GL252634   9.782  21.991   6.150
 7379POPC   C1A52635   9.774  22.167   6.450
 7379POPC   D2A52636   9.743  22.170   6.750
 7379POPC   C3A52637   9.726  22.141   7.050
 7379POPC   C4A52638   9.782  22.137   7.350
 7379POPC   C1B52639   9.781  21.963   6.450
 7379POPC   C2B52640   9.731  21.908   6.750
 7379POPC   C3B52641   9.781  21.917   7.050
 7379POPC   C4B52642   9.811  21.913   7.350
 7380POPC   NC352643  32.272  39.227   5.550
 7380POPC   PO452644  32.228  39.201   5.850
 7380POPC   GL152645  32.233  39.189   6.150
 7380POPC   GL252646  32.292  39.291   6.150
 7380POPC   C1A52647  32.280  39.269   6.450
 7380POPC   D2A52648  32.237  39.279   6.750
 7380POPC   C3A52649  32.282  39.193   7.050
 7380POPC   C4A52650  32.279  39.207   7.350
 7380POPC   C1B52651  32.369  39.450   6.450
 7380POPC   C2B52652  32.407  39.426   6.750
 7380POPC   C3B52653  32.340  39.489   7.050
 7380POPC   C4B52654  32.411  39.474   7.350
 7381POPC   NC352655  17.478  39.994   5.550
 7381POPC   PO452656  17.532  39.979   5.850
 7381POPC   GL152657  17.514  39.992   6.150
 7381POPC   GL252658  17.627  39.970   6.150
 7381POPC   C1A52659  17.518  39.996   6.450
 7381POPC   D2A52660  17.539  39.966   6.750
 7381POPC   C3A52661  17.545  39.966   7.050
 7381POPC   C4A52662  17.522  39.972   7.350
 7381POPC   C1B52663  17.718  39.921   6.450
 7381POPC   C2B52664  17.770  39.843   6.750
 7381POPC   C3B52665  17.724  39.897   7.050
 7381POPC   C4B52666  17.694  39.896   7.350
 7382POPC   NC352667   7.448  13.580   5.550
 7382POPC   PO452668   7.430  13.645   5.850
 7382POPC   GL152669   7.375  13.628   6.150
 7382POPC   GL252670   7.326  13.631   6.150
 7382POPC   C1A52671   7.469  13.647   6.450
 7382POPC   D2A52672   7.400  13.582   6.750
 7382POPC   C3A52673   7.403  13.619   7.050
 7382POPC   C4A52674   7.432  13.633   7.350
 7382POPC   C1B52675   7.226  13.687   6.450
 7382POPC   C2B52676   7.239  13.725   6.750
 7382POPC   C3B52677   7.168  13.754   7.050
 7382POPC   C4B52678   7.171  13.763   7.350
 7383POPC   NC352679  14.417   8.999   5.550
 7383POPC   PO452680  14.364   8.933   5.850
 7383POPC   GL152681  14.413   8.951   6.150
 7383POPC   GL252682  14.497   8.987   6.150
 7383POPC   C1A52683  14.355   8.937   6.450
 7383POPC   D2A52684  14.402   8.953   6.750
 7383POPC   C3A52685  14.421   8.982   7.050
 7383POPC   C4A52686  14.431   8.975   7.350
 7383POPC   C1B52687  14.636   8.977   6.450
 7383POPC   C2B52688  14.640   8.973   6.750
 7383POPC   C3B52689  14.635   8.981   7.050
 7383POPC   C4B52690  14.662   8.907   7.350
 7384POPC   NC352691   6.633   5.865   5.550
 7384POPC   PO452692   6.670   5.883   5.850
 7384POPC   GL152693   6.622   5.907   6.150
 7384POPC   GL252694   6.508   5.964   6.150
 7384POPC   C1A52695   6.618   5.836   6.450
 7384POPC   D2A52696   6.641   5.868   6.750
 7384POPC   C3A52697   6.664   5.907   7.050
 7384POPC   C4A52698   6.690   5.912   7.350
 7384POPC   C1B52699   6.450   5.998   6.450
 7384POPC   C2B52700   6.388   5.935   6.750
 7384POPC   C3B52701   6.404   5.943   7.050
 7384POPC   C4B52702   6.434   6.001   7.350
 7385POPC   NC352703  33.825  11.300   5.550
 7385POPC   PO452704  33.835  11.302   5.850
 7385POPC   GL152705  33.843  11.343   6.150
 7385POPC   GL252706  33.771  11.156   6.150
 7385POPC   C1A52707  33.759  11.345   6.450
 7385POPC   D2A52708  33.774  11.307   6.750
 7385POPC   C3A52709  33.799  11.291   7.050
 7385POPC   C4A52710  33.846  11.316   7.350
 7385POPC   C1B52711  33.739  11.043   6.450
 7385POPC   C2B52712  33.747  11.102   6.750
 7385POPC   C3B52713  33.707  11.034   7.050
 7385POPC   C4B52714  33.714  11.012   7.350
 7386POPC   NC352715  28.380  29.923   5.550
 7386POPC   PO452716  28.361  29.928   5.850
 7386POPC   GL152717  28.388  29.922   6.150
 7386POPC   GL252718  28.299  29.861   6.150
 7386POPC   C1A52719  28.401  29.959   6.450
 7386POPC   D2A52720  28.370  29.918   6.750
 7386POPC   C3A52721  28.394  29.875   7.050
 7386POPC   C4A52722  28.385  29.912   7.350
 7386POPC   C1B52723  28.237  29.748   6.450
 7386POPC   C2B52724  28.263  29.667   6.750
 7386POPC   C3B52725  28.200  29.738   7.050
 7386POPC   C4B52726  28.276  29.749   7.350
 7387POPC   NC352727  26.040  12.804   5.550
 7387POPC   PO452728  26.078  12.894   5.850
 7387POPC   GL152729  26.088  12.882   6.150
 7387POPC   GL252730  26.089  12.729   6.150
 7387POPC   C1A52731  26.056  12.831   6.450
 7387POPC   D2A52732  26.091  12.802   6.750
 7387POPC   C3A52733  26.056  12.834   7.050
 7387POPC   C4A52734  26.002  12.897   7.350
 7387POPC   C1B52735  26.124  12.562   6.450
 7387POPC   C2B52736  26.111  12.625   6.750
 7387POPC   C3B52737  26.094  12.592   7.050
 7387POPC   C4B52738  26.089  12.636   7.350
 7388POPC   NC352739  27.632  42.331   5.550
 7388POPC   PO452740  27.617  42.331   5.850
 7388POPC   GL152741  27.633  42.314   6.150
 7388POPC   GL252742  27.485  42.338   6.150
 7388POPC   C1A52743  27.610  42.334   6.450
 7388POPC   D2A52744  27.578  42.346   6.750
 7388POPC   C3A52745  27.568  42.361   7.050
 7388POPC   C4A52746  27.553  42.333   7.350
 7388POPC   C1B52747  27.406  42.237   6.450
 7388POPC   C2B52748  27.338  42.242   6.750
 7388POPC   C3B52749  27.310  42.229   7.050
 7388POPC   C4B52750  27.330  42.218   7.350
 7389POPC   NC352751  35.360   2.008   5.550
 7389POPC   PO452752  35.358   1.974   5.850
 7389POPC   GL152753  35.373   2.007   6.150
 7389POPC   GL252754  35.390   1.823   6.150
 7389POPC   C1A52755  35.343   1.946   6.450
 7389POPC   D2A52756  35.381   1.954   6.750
 7389POPC   C3A52757  35.391   2.026   7.050
 7389POPC   C4A52758  35.396   1.992   7.350
 7389POPC   C1B52759  35.332   1.748   6.450
 7389POPC   C2B52760  35.397   1.734   6.750
 7389POPC   C3B52761  35.356   1.696   7.050
 7389POPC   C4B52762  35.391   1.731   7.350
 7390POPC   NC352763  32.219   5.873   5.550
 7390POPC   PO452764  32.252   5.844   5.850
 7390POPC   GL152765  32.244   5.846   6.150
 7390POPC   GL252766  32.168   5.752   6.150
 7390POPC   C1A52767  32.247   5.859   6.450
 7390POPC   D2A52768  32.215   5.910   6.750
 7390POPC   C3A52769  32.241   5.877   7.050
 7390POPC   C4A52770  32.225   5.882   7.350
 7390POPC   C1B52771  32.064   5.760   6.450
 7390POPC   C2B52772  32.041   5.673   6.750
 7390POPC   C3B52773  32.045   5.690   7.050
 7390POPC   C4B52774  32.008   5.734   7.350
 7391POPC   NC352775   0.446  39.268   5.550
 7391POPC   PO452776   0.401  39.267   5.850
 7391POPC   GL152777   0.423  39.183   6.150
 7391POPC   GL252778   0.419  39.128   6.150
 7391POPC   C1A52779   0.435  39.216   6.450
 7391POPC   D2A52780   0.407  39.198   6.750
 7391POPC   C3A52781   0.444  39.240   7.050
 7391POPC   C4A52782   0.467  39.249   7.350
 7391POPC   C1B52783   0.381  38.970   6.450
 7391POPC   C2B52784   0.397  38.967   6.750
 7391POPC   C3B52785   0.382  38.979   7.050
 7391POPC   C4B52786   0.416  38.976   7.350
 7392POPC   NC352787   0.481   1.261   5.550
 7392POPC   PO452788   0.434   1.170   5.850
 7392POPC   GL152789   0.437   1.218   6.150
 7392POPC   GL252790   0.345   1.216   6.150
 7392POPC   C1A52791   0.404   1.220   6.450
 7392POPC   D2A52792   0.404   1.166   6.750
 7392POPC   C3A52793   0.396   1.178   7.050
 7392POPC   C4A52794   0.479   1.222   7.350
 7392POPC   C1B52795   0.169   1.231   6.450
 7392POPC   C2B52796   0.195   1.264   6.750
 7392POPC   C3B52797   0.217   1.204   7.050
 7392POPC   C4B52798   0.153   1.236   7.350
 7393POPC   NC352799  27.615  17.514   5.550
 7393POPC   PO452800  27.620  17.538   5.850
 7393POPC   GL152801  27.597  17.475   6.150
 7393POPC   GL252802  27.519  17.553   6.150
 7393POPC   C1A52803  27.634  17.461   6.450
 7393POPC   D2A52804  27.555  17.518   6.750
 7393POPC   C3A52805  27.641  17.477   7.050
 7393POPC   C4A52806  27.553  17.492   7.350
 7393POPC   C1B52807  27.401  17.592   6.450
 7393POPC   C2B52808  27.377  17.561   6.750
 7393POPC   C3B52809  27.356  17.584   7.050
 7393POPC   C4B52810  27.386  17.551   7.350
 7394POPC   NC352811  43.920  14.359   5.550
 7394POPC   PO452812  43.837  14.397   5.850
 7394POPC   GL152813  43.915  14.386   6.150
 7394POPC   GL252814  43.872  14.295   6.150
 7394POPC   C1A52815  43.912  14.402   6.450
 7394POPC   D2A52816  43.902  14.381   6.750
 7394POPC   C3A52817  43.936  14.366   7.050
 7394POPC   C4A52818  43.878  14.441   7.350
 7394POPC   C1B52819  43.762  14.185   6.450
 7394POPC   C2B52820  43.758  14.177   6.750
 7394POPC   C3B52821  43.779  14.215   7.050
 7394POPC   C4B52822  43.787  14.182   7.350
 7395POPC   NC352823  43.099   5.860   5.550
 7395POPC   PO452824  43.079   5.850   5.850
 7395POPC   GL152825  43.108   5.826   6.150
 7395POPC   GL252826  43.043   6.006   6.150
 7395POPC   C1A52827  43.090   5.856   6.450
 7395POPC   D2A52828  43.130   5.844   6.750
 7395POPC   C3A52829  43.121   5.904   7.050
 7395POPC   C4A52830  43.147   5.911   7.350
 7395POPC   C1B52831  42.936   6.079   6.450
 7395POPC   C2B52832  42.914   6.054   6.750
 7395POPC   C3B52833  42.964   6.098   7.050
 7395POPC   C4B52834  42.930   6.071   7.350
 7396POPC   NC352835  16.696  30.726   5.550
 7396POPC   PO452836  16.710  30.648   5.850
 7396POPC   GL152837  16.777  30.746   6.150
 7396POPC   GL252838  16.668  30.817   6.150
 7396POPC   C1A52839  16.775  30.662   6.450
 7396POPC   D2A52840  16.734  30.658   6.750
 7396POPC   C3A52841  16.692  30.729   7.050
 7396POPC   C4A52842  16.744  30.673   7.350
 7396POPC   C1B52843  16.538  30.832   6.450
 7396POPC   C2B52844  16.527  30.856   6.750
 7396POPC   C3B52845  16.596  30.869   7.050
 7396POPC   C4B52846  16.520  30.914   7.350
 7397POPC   NC352847  19.046  15.206   5.550
 7397POPC   PO452848  19.084  15.193   5.850
 7397POPC   GL152849  19.069  15.198   6.150
 7397POPC   GL252850  18.984  15.338   6.150
 7397POPC   C1A52851  19.013  15.200   6.450
 7397POPC   D2A52852  19.022  15.148   6.750
 7397POPC   C3A52853  19.091  15.200   7.050
 7397POPC   C4A52854  19.073  15.168   7.350
 7397POPC   C1B52855  18.995  15.422   6.450
 7397POPC   C2B52856  18.956  15.387   6.750
 7397POPC   C3B52857  19.035  15.455   7.050
 7397POPC   C4B52858  19.005  15.458   7.350
 7398POPC   NC352859  40.011   8.991   5.550
 7398POPC   PO452860  40.011   9.022   5.850
 7398POPC   GL152861  39.988   9.000   6.150
 7398POPC   GL252862  40.020   8.810   6.150
 7398POPC   C1A52863  39.973   8.960   6.450
 7398POPC   D2A52864  39.984   8.960   6.750
 7398POPC   C3A52865  40.023   9.007   7.050
 7398POPC   C4A52866  40.009   8.991   7.350
 7398POPC   C1B52867  40.094   8.706   6.450
 7398POPC   C2B52868  40.113   8.689   6.750
 7398POPC   C3B52869  40.062   8.773   7.050
 7398POPC   C4B52870  40.095   8.749   7.350
 7399POPC   NC352871   9.729   9.702   5.550
 7399POPC   PO452872   9.753   9.772   5.850
 7399POPC   GL152873   9.788   9.783   6.150
 7399POPC   GL252874   9.626   9.696   6.150
 7399POPC   C1A52875   9.757   9.736   6.450
 7399POPC   D2A52876   9.770   9.714   6.750
 7399POPC   C3A52877   9.793   9.785   7.050
 7399POPC   C4A52878   9.776   9.719   7.350
 7399POPC   C1B52879   9.590   9.502   6.450
 7399POPC   C2B52880   9.636   9.581   6.750
 7399POPC   C3B52881   9.601   9.550   7.050
 7399POPC   C4B52882   9.630   9.563   7.350
 7400POPC   NC352883  12.811  35.314   5.550
 7400POPC   PO452884  12.810  35.325   5.850
 7400POPC   GL152885  12.806  35.390   6.150
 7400POPC   GL252886  12.888  35.473   6.150
 7400POPC   C1A52887  12.816  35.309   6.450
 7400POPC   D2A52888  12.812  35.344   6.750
 7400POPC   C3A52889  12.855  35.364   7.050
 7400POPC   C4A52890  12.881  35.361   7.350
 7400POPC   C1B52891  12.842  35.617   6.450
 7400POPC   C2B52892  12.872  35.578   6.750
 7400POPC   C3B52893  12.858  35.614   7.050
 7400POPC   C4B52894  12.872  35.596   7.350
 7401POPC   NC352895   2.785  10.486   5.550
 7401POPC   PO452896   2.754  10.479   5.850
 7401POPC   GL152897   2.799  10.508   6.150
 7401POPC   GL252898   2.808  10.444   6.150
 7401POPC   C1A52899   2.785  10.571   6.450
 7401POPC   D2A52900   2.803  10.572   6.750
 7401POPC   C3A52901   2.806  10.565   7.050
 7401POPC   C4A52902   2.729  10.475   7.350
 7401POPC   C1B52903   2.863  10.255   6.450
 7401POPC   C2B52904   2.861  10.273   6.750
 7401POPC   C3B52905   2.810  10.295   7.050
 7401POPC   C4B52906   2.835  10.338   7.350
 7402POPC   NC352907  17.506  42.311   5.550
 7402POPC   PO452908  17.542  42.290   5.850
 7402POPC   GL152909  17.536  42.325   6.150
 7402POPC   GL252910  17.415  42.402   6.150
 7402POPC   C1A52911  17.465  42.286   6.450
 7402POPC   D2A52912  17.527  42.331   6.750
 7402POPC   C3A52913  17.539  42.355   7.050
 7402POPC   C4A52914  17.496  42.339   7.350
 7402POPC   C1B52915  17.259  42.346   6.450
 7402POPC   C2B52916  17.278  42.424   6.750
 7402POPC   C3B52917  17.294  42.411   7.050
 7402POPC   C4B52918  17.282  42.342   7.350
 7403POPC   NC352919  29.114  13.657   5.550
 7403POPC   PO452920  29.150  13.608   5.850
 7403POPC   GL152921  29.158  13.652   6.150
 7403POPC   GL252922  29.113  13.737   6.150
 7403POPC   C1A52923  29.141  13.594   6.450
 7403POPC   D2A52924  29.169  13.607   6.750
 7403POPC   C3A52925  29.100  13.666   7.050
 7403POPC   C4A52926  29.170  13.638   7.350
 7403POPC   C1B52927  29.165  13.857   6.450
 7403POPC   C2B52928  29.100  13.866   6.750
 7403POPC   C3B52929  29.105  13.889   7.050
 7403POPC   C4B52930  29.190  13.896   7.350
 7404POPC   NC352931  33.025  30.683   5.550
 7404POPC   PO452932  32.994  30.676   5.850
 7404POPC   GL152933  33.028  30.678   6.150
 7404POPC   GL252934  33.040  30.828   6.150
 7404POPC   C1A52935  33.041  30.729   6.450
 7404POPC   D2A52936  32.991  30.667   6.750
 7404POPC   C3A52937  33.048  30.744   7.050
 7404POPC   C4A52938  33.041  30.686   7.350
 7404POPC   C1B52939  33.124  30.900   6.450
 7404POPC   C2B52940  33.162  30.878   6.750
 7404POPC   C3B52941  33.165  30.969   7.050
 7404POPC   C4B52942  33.108  30.940   7.350
 7405POPC   NC352943  13.647  16.727   5.550
 7405POPC   PO452944  13.600  16.722   5.850
 7405POPC   GL152945  13.580  16.710   6.150
 7405POPC   GL252946  13.641  16.879   6.150
 7405POPC   C1A52947  13.582  16.752   6.450
 7405POPC   D2A52948  13.621  16.773   6.750
 7405POPC   C3A52949  13.621  16.745   7.050
 7405POPC   C4A52950  13.579  16.774   7.350
 7405POPC   C1B52951  13.621  17.003   6.450
 7405POPC   C2B52952  13.588  16.974   6.750
 7405POPC   C3B52953  13.596  16.946   7.050
 7405POPC   C4B52954  13.650  17.011   7.350
 7406POPC   NC352955  34.545   0.471   5.550
 7406POPC   PO452956  34.561   0.404   5.850
 7406POPC   GL152957  34.545   0.414   6.150
 7406POPC   GL252958  34.687   0.453   6.150
 7406POPC   C1A52959  34.570   0.398   6.450
 7406POPC   D2A52960  34.555   0.419   6.750
 7406POPC   C3A52961  34.540   0.430   7.050
 7406POPC   C4A52962  34.539   0.478   7.350
 7406POPC   C1B52963  34.790   0.433   6.450
 7406POPC   C2B52964  34.798   0.519   6.750
 7406POPC   C3B52965  34.812   0.459   7.050
 7406POPC   C4B52966  34.813   0.460   7.350
 7407POPC   NC352967  17.488  43.080   5.550
 7407POPC   PO452968  17.520  43.126   5.850
 7407POPC   GL152969  17.488  43.095   6.150
 7407POPC   GL252970  17.582  43.247   6.150
 7407POPC   C1A52971  17.501  43.123   6.450
 7407POPC   D2A52972  17.505  43.148   6.750
 7407POPC   C3A52973  17.473  43.119   7.050
 7407POPC   C4A52974  17.463  43.125   7.350
 7407POPC   C1B52975  17.663  43.317   6.450
 7407POPC   C2B52976  17.636  43.288   6.750
 7407POPC   C3B52977  17.627  43.326   7.050
 7407POPC   C4B52978  17.639  43.282   7.350
 7408POPC   NC352979   7.399   1.221   5.550
 7408POPC   PO452980   7.457   1.165   5.850
 7408POPC   GL152981   7.406   1.168   6.150
 7408POPC   GL252982   7.453   1.091   6.150
 7408POPC   C1A52983   7.434   1.244   6.450
 7408POPC   D2A52984   7.430   1.242   6.750
 7408POPC   C3A52985   7.377   1.177   7.050
 7408POPC   C4A52986   7.395   1.232   7.350
 7408POPC   C1B52987   7.462   0.962   6.450
 7408POPC   C2B52988   7.471   0.976   6.750
 7408POPC   C3B52989   7.477   0.979   7.050
 7408POPC   C4B52990   7.520   1.027   7.350
 7409POPC   NC352991  40.015   0.422   5.550
 7409POPC   PO452992  40.046   0.390   5.850
 7409POPC   GL152993  40.056   0.401   6.150
 7409POPC   GL252994  39.966   0.330   6.150
 7409POPC   C1A52995  39.971   0.448   6.450
 7409POPC   D2A52996  40.011   0.477   6.750
 7409POPC   C3A52997  40.009   0.470   7.050
 7409POPC   C4A52998  40.025   0.444   7.350
 7409POPC   C1B52999  39.860   0.194   6.450
 7409POPC   C2B53000  39.930   0.256   6.750
 7409POPC   C3B53001  39.859   0.228   7.050
 7409POPC   C4B53002  39.874   0.180   7.350
 7410POPC   NC353003   9.751  35.348   5.550
 7410POPC   PO453004   9.704  35.304   5.850
 7410POPC   GL153005   9.736  35.303   6.150
 7410POPC   GL253006   9.585  35.422   6.150
 7410POPC   C1A53007   9.724  35.331   6.450
 7410POPC   D2A53008   9.737  35.343   6.750
 7410POPC   C3A53009   9.740  35.366   7.050
 7410POPC   C4A53010   9.775  35.343   7.350
 7410POPC   C1B53011   9.473  35.436   6.450
 7410POPC   C2B53012   9.529  35.415   6.750
 7410POPC   C3B53013   9.462  35.426   7.050
 7410POPC   C4B53014   9.464  35.462   7.350
 7411POPC   NC353015  36.115  29.896   5.550
 7411POPC   PO453016  36.160  29.874   5.850
 7411POPC   GL153017  36.173  29.918   6.150
 7411POPC   GL253018  36.070  29.829   6.150
 7411POPC   C1A53019  36.100  29.940   6.450
 7411POPC   D2A53020  36.111  29.907   6.750
 7411POPC   C3A53021  36.118  29.880   7.050
 7411POPC   C4A53022  36.151  29.942   7.350
 7411POPC   C1B53023  36.094  29.688   6.450
 7411POPC   C2B53024  36.078  29.663   6.750
 7411POPC   C3B53025  36.062  29.690   7.050
 7411POPC   C4B53026  36.094  29.695   7.350
 7412POPC   NC353027  16.684   7.436   5.550
 7412POPC   PO453028  16.703   7.452   5.850
 7412POPC   GL153029  16.691   7.392   6.150
 7412POPC   GL253030  16.818   7.396   6.150
 7412POPC   C1A53031  16.781   7.402   6.450
 7412POPC   D2A53032  16.697   7.389   6.750
 7412POPC   C3A53033  16.778   7.426   7.050
 7412POPC   C4A53034  16.713   7.417   7.350
 7412POPC   C1B53035  16.949   7.420   6.450
 7412POPC   C2B53036  16.989   7.432   6.750
 7412POPC   C3B53037  16.976   7.461   7.050
 7412POPC   C4B53038  17.022   7.406   7.350
 7413POPC   NC353039   0.464  12.876   5.550
 7413POPC   PO453040   0.409  12.900   5.850
 7413POPC   GL153041   0.461  12.876   6.150
 7413POPC   GL253042   0.386  12.996   6.150
 7413POPC   C1A53043   0.392  12.873   6.450
 7413POPC   D2A53044   0.402  12.867   6.750
 7413POPC   C3A53045   0.411  12.883   7.050
 7413POPC   C4A53046   0.469  12.837   7.350
 7413POPC   C1B53047   0.370  13.082   6.450
 7413POPC   C2B53048   0.374  13.147   6.750
 7413POPC   C3B53049   0.353  13.070   7.050
 7413POPC   C4B53050   0.412  13.138   7.350
 7414POPC   NC353051  27.637  29.160   5.550
 7414POPC   PO453052  27.546  29.153   5.850
 7414POPC   GL153053  27.619  29.176   6.150
 7414POPC   GL253054  27.487  29.068   6.150
 7414POPC   C1A53055  27.580  29.110   6.450
 7414POPC   D2A53056  27.636  29.180   6.750
 7414POPC   C3A53057  27.581  29.188   7.050
 7414POPC   C4A53058  27.554  29.151   7.350
 7414POPC   C1B53059  27.473  28.981   6.450
 7414POPC   C2B53060  27.446  28.922   6.750
 7414POPC   C3B53061  27.453  28.953   7.050
 7414POPC   C4B53062  27.381  28.960   7.350
 7415POPC   NC353063  31.438  41.546   5.550
 7415POPC   PO453064  31.450  41.525   5.850
 7415POPC   GL153065  31.469  41.602   6.150
 7415POPC   GL253066  31.555  41.471   6.150
 7415POPC   C1A53067  31.433  41.540   6.450
 7415POPC   D2A53068  31.479  41.556   6.750
 7415POPC   C3A53069  31.519  41.588   7.050
 7415POPC   C4A53070  31.491  41.542   7.350
 7415POPC   C1B53071  31.628  41.368   6.450
 7415POPC   C2B53072  31.586  41.392   6.750
 7415POPC   C3B53073  31.630  41.392   7.050
 7415POPC   C4B53074  31.642  41.328   7.350
 7416POPC   NC353075   1.252  17.496   5.550
 7416POPC   PO453076   1.175  17.523   5.850
 7416POPC   GL153077   1.172  17.476   6.150
 7416POPC   GL253078   1.316  17.405   6.150
 7416POPC   C1A53079   1.226  17.495   6.450
 7416POPC   D2A53080   1.196  17.525   6.750
 7416POPC   C3A53081   1.248  17.463   7.050
 7416POPC   C4A53082   1.245  17.525   7.350
 7416POPC   C1B53083   1.422  17.321   6.450
 7416POPC   C2B53084   1.447  17.405   6.750
 7416POPC   C3B53085   1.436  17.381   7.050
 7416POPC   C4B53086   1.368  17.383   7.350
 7417POPC   NC353087  40.020  19.103   5.550
 7417POPC   PO453088  39.982  19.100   5.850
 7417POPC   GL153089  40.040  19.066   6.150
 7417POPC   GL253090  39.980  19.130   6.150
 7417POPC   C1A53091  39.988  19.056   6.450
 7417POPC   D2A53092  40.042  19.047   6.750
 7417POPC   C3A53093  40.045  19.031   7.050
 7417POPC   C4A53094  39.987  19.108   7.350
 7417POPC   C1B53095  39.947  19.301   6.450
 7417POPC   C2B53096  39.941  19.334   6.750
 7417POPC   C3B53097  39.964  19.281   7.050
 7417POPC   C4B53098  39.888  19.258   7.350
 7418POPC   NC353099  39.238  39.976   5.550
 7418POPC   PO453100  39.230  40.045   5.850
 7418POPC   GL153101  39.207  40.039   6.150
 7418POPC   GL253102  39.127  40.077   6.150
 7418POPC   C1A53103  39.230  40.028   6.450
 7418POPC   D2A53104  39.194  40.041   6.750
 7418POPC   C3A53105  39.216  39.975   7.050
 7418POPC   C4A53106  39.248  39.996   7.350
 7418POPC   C1B53107  38.993  40.154   6.450
 7418POPC   C2B53108  39.017  40.138   6.750
 7418POPC   C3B53109  39.030  40.186   7.050
 7418POPC   C4B53110  39.083  40.115   7.350
 7419POPC   NC353111  21.373  10.524   5.550
 7419POPC   PO453112  21.416  10.563   5.850
 7419POPC   GL153113  21.432  10.547   6.150
 7419POPC   GL253114  21.504  10.524   6.150
 7419POPC   C1A53115  21.349  10.544   6.450
 7419POPC   D2A53116  21.427  10.510   6.750
 7419POPC   C3A53117  21.402  10.570   7.050
 7419POPC   C4A53118  21.355  10.491   7.350
 7419POPC   C1B53119  21.629  10.421   6.450
 7419POPC   C2B53120  21.666  10.389   6.750
 7419POPC   C3B53121  21.662  10.388   7.050
 7419POPC   C4B53122  21.633  10.485   7.350
 7420POPC   NC353123  23.697  40.811   5.550
 7420POPC   PO453124  23.697  40.794   5.850
 7420POPC   GL153125  23.705  40.741   6.150
 7420POPC   GL253126  23.765  40.654   6.150
 7420POPC   C1A53127  23.724  40.772   6.450
 7420POPC   D2A53128  23.703  40.799   6.750
 7420POPC   C3A53129  23.668  40.766   7.050
 7420POPC   C4A53130  23.700  40.745   7.350
 7420POPC   C1B53131  23.878  40.643   6.450
 7420POPC   C2B53132  23.855  40.635   6.750
 7420POPC   C3B53133  23.910  40.604   7.050
 7420POPC   C4B53134  23.864  40.615   7.350
 7421POPC   NC353135  43.142  15.187   5.550
 7421POPC   PO453136  43.063  15.183   5.850
 7421POPC   GL153137  43.075  15.167   6.150
 7421POPC   GL253138  43.209  15.157   6.150
 7421POPC   C1A53139  43.140  15.156   6.450
 7421POPC   D2A53140  43.064  15.155   6.750
 7421POPC   C3A53141  43.128  15.185   7.050
 7421POPC   C4A53142  43.152  15.199   7.350
 7421POPC   C1B53143  43.315  15.088   6.450
 7421POPC   C2B53144  43.323  15.091   6.750
 7421POPC   C3B53145  43.363  15.151   7.050
 7421POPC   C4B53146  43.393  15.098   7.350
 7422POPC   NC353147   2.040  25.314   5.550
 7422POPC   PO453148   2.009  25.289   5.850
 7422POPC   GL153149   1.985  25.226   6.150
 7422POPC   GL253150   1.942  25.098   6.150
 7422POPC   C1A53151   1.961  25.288   6.450
 7422POPC   D2A53152   1.983  25.259   6.750
 7422POPC   C3A53153   2.008  25.265   7.050
 7422POPC   C4A53154   2.019  25.272   7.350
 7422POPC   C1B53155   2.021  25.007   6.450
 7422POPC   C2B53156   1.988  25.004   6.750
 7422POPC   C3B53157   2.000  25.048   7.050
 7422POPC   C4B53158   1.927  25.025   7.350
 7423POPC   NC353159   7.397  10.514   5.550
 7423POPC   PO453160   7.397  10.566   5.850
 7423POPC   GL153161   7.468  10.517   6.150
 7423POPC   GL253162   7.272  10.452   6.150
 7423POPC   C1A53163   7.417  10.498   6.450
 7423POPC   D2A53164   7.465  10.565   6.750
 7423POPC   C3A53165   7.440  10.484   7.050
 7423POPC   C4A53166   7.467  10.572   7.350
 7423POPC   C1B53167   7.255  10.342   6.450
 7423POPC   C2B53168   7.261  10.410   6.750
 7423POPC   C3B53169   7.211  10.425   7.050
 7423POPC   C4B53170   7.266  10.419   7.350
 7424POPC   NC353171  22.143  43.084   5.550
 7424POPC   PO453172  22.184  43.145   5.850
 7424POPC   GL153173  22.211  43.130   6.150
 7424POPC   GL253174  22.285  43.096   6.150
 7424POPC   C1A53175  22.169  43.149   6.450
 7424POPC   D2A53176  22.210  43.146   6.750
 7424POPC   C3A53177  22.185  43.080   7.050
 7424POPC   C4A53178  22.123  43.153   7.350
 7424POPC   C1B53179  22.424  43.165   6.450
 7424POPC   C2B53180  22.363  43.108   6.750
 7424POPC   C3B53181  22.436  43.099   7.050
 7424POPC   C4B53182  22.420  43.142   7.350
 7425POPC   NC353183  40.772  35.336   5.550
 7425POPC   PO453184  40.785  35.365   5.850
 7425POPC   GL153185  40.809  35.393   6.150
 7425POPC   GL253186  40.722  35.408   6.150
 7425POPC   C1A53187  40.815  35.351   6.450
 7425POPC   D2A53188  40.781  35.329   6.750
 7425POPC   C3A53189  40.749  35.312   7.050
 7425POPC   C4A53190  40.784  35.395   7.350
 7425POPC   C1B53191  40.668  35.519   6.450
 7425POPC   C2B53192  40.691  35.565   6.750
 7425POPC   C3B53193  40.691  35.585   7.050
 7425POPC   C4B53194  40.628  35.528   7.350
 7426POPC   NC353195   5.846  34.530   5.550
 7426POPC   PO453196   5.846  34.532   5.850
 7426POPC   GL153197   5.840  34.599   6.150
 7426POPC   GL253198   5.989  34.546   6.150
 7426POPC   C1A53199   5.890  34.610   6.450
 7426POPC   D2A53200   5.880  34.576   6.750
 7426POPC   C3A53201   5.848  34.530   7.050
 7426POPC   C4A53202   5.906  34.614   7.350
 7426POPC   C1B53203   6.021  34.466   6.450
 7426POPC   C2B53204   6.070  34.461   6.750
 7426POPC   C3B53205   6.046  34.474   7.050
 7426POPC   C4B53206   6.025  34.474   7.350
 7427POPC   NC353207   9.722  32.984   5.550
 7427POPC   PO453208   9.755  32.997   5.850
 7427POPC   GL153209   9.725  33.026   6.150
 7427POPC   GL253210   9.868  33.043   6.150
 7427POPC   C1A53211   9.722  33.038   6.450
 7427POPC   D2A53212   9.735  33.060   6.750
 7427POPC   C3A53213   9.708  33.027   7.050
 7427POPC   C4A53214   9.765  33.012   7.350
 7427POPC   C1B53215   9.950  32.963   6.450
 7427POPC   C2B53216  10.041  32.952   6.750
 7427POPC   C3B53217  10.004  32.991   7.050
 7427POPC   C4B53218  10.022  32.971   7.350
 7428POPC   NC353219  33.812  21.433   5.550
 7428POPC   PO453220  33.843  21.390   5.850
 7428POPC   GL153221  33.846  21.385   6.150
 7428POPC   GL253222  33.719  21.307   6.150
 7428POPC   C1A53223  33.844  21.339   6.450
 7428POPC   D2A53224  33.771  21.388   6.750
 7428POPC   C3A53225  33.786  21.366   7.050
 7428POPC   C4A53226  33.827  21.348   7.350
 7428POPC   C1B53227  33.596  21.218   6.450
 7428POPC   C2B53228  33.588  21.230   6.750
 7428POPC   C3B53229  33.597  21.298   7.050
 7428POPC   C4B53230  33.565  21.277   7.350
 7429POPC   NC353231  15.218  36.081   5.550
 7429POPC   PO453232  15.180  36.111   5.850
 7429POPC   GL153233  15.186  36.078   6.150
 7429POPC   GL253234  15.097  36.255   6.150
 7429POPC   C1A53235  15.164  36.114   6.450
 7429POPC   D2A53236  15.130  36.082   6.750
 7429POPC   C3A53237  15.223  36.138   7.050
 7429POPC   C4A53238  15.178  36.137   7.350
 7429POPC   C1B53239  15.143  36.390   6.450
 7429POPC   C2B53240  15.127  36.395   6.750
 7429POPC   C3B53241  15.130  36.360   7.050
 7429POPC   C4B53242  15.069  36.333   7.350
 7430POPC   NC353243  31.503  34.568   5.550
 7430POPC   PO453244  31.511  34.604   5.850
 7430POPC   GL153245  31.426  34.552   6.150
 7430POPC   GL253246  31.376  34.663   6.150
 7430POPC   C1A53247  31.433  34.562   6.450
 7430POPC   D2A53248  31.436  34.563   6.750
 7430POPC   C3A53249  31.444  34.571   7.050
 7430POPC   C4A53250  31.451  34.609   7.350
 7430POPC   C1B53251  31.263  34.743   6.450
 7430POPC   C2B53252  31.257  34.711   6.750
 7430POPC   C3B53253  31.250  34.771   7.050
 7430POPC   C4B53254  31.325  34.754   7.350
 7431POPC   NC353255  29.876  19.080   5.550
 7431POPC   PO453256  29.962  19.095   5.850
 7431POPC   GL153257  29.889  19.108   6.150
 7431POPC   GL253258  29.754  19.023   6.150
 7431POPC   C1A53259  29.909  19.060   6.450
 7431POPC   D2A53260  29.929  19.046   6.750
 7431POPC   C3A53261  29.958  19.056   7.050
 7431POPC   C4A53262  29.932  19.089   7.350
 7431POPC   C1B53263  29.682  19.077   6.450
 7431POPC   C2B53264  29.623  19.043   6.750
 7431POPC   C3B53265  29.649  19.075   7.050
 7431POPC   C4B53266  29.698  19.039   7.350
 7432POPC   NC353267  11.309   8.941   5.550
 7432POPC   PO453268  11.266   8.965   5.850
 7432POPC   GL153269  11.315   9.022   6.150
 7432POPC   GL253270  11.247   9.111   6.150
 7432POPC   C1A53271  11.307   8.931   6.450
 7432POPC   D2A53272  11.262   8.989   6.750
 7432POPC   C3A53273  11.314   8.948   7.050
 7432POPC   C4A53274  11.274   9.009   7.350
 7432POPC   C1B53275  11.158   9.185   6.450
 7432POPC   C2B53276  11.197   9.244   6.750
 7432POPC   C3B53277  11.177   9.180   7.050
 7432POPC   C4B53278  11.164   9.145   7.350
 7433POPC   NC353279  20.598   6.675   5.550
 7433POPC   PO453280  20.639   6.617   5.850
 7433POPC   GL153281  20.596   6.597   6.150
 7433POPC   GL253282  20.738   6.580   6.150
 7433POPC   C1A53283  20.618   6.608   6.450
 7433POPC   D2A53284  20.642   6.674   6.750
 7433POPC   C3A53285  20.652   6.652   7.050
 7433POPC   C4A53286  20.628   6.596   7.350
 7433POPC   C1B53287  20.800   6.520   6.450
 7433POPC   C2B53288  20.774   6.499   6.750
 7433POPC   C3B53289  20.798   6.498   7.050
 7433POPC   C4B53290  20.772   6.472   7.350
 7434POPC   NC353291   7.423  36.167   5.550
 7434POPC   PO453292   7.418  36.117   5.850
 7434POPC   GL153293   7.403  36.118   6.150
 7434POPC   GL253294   7.273  36.151   6.150
 7434POPC   C1A53295   7.416  36.096   6.450
 7434POPC   D2A53296   7.436  36.174   6.750
 7434POPC   C3A53297   7.449  36.151   7.050
 7434POPC   C4A53298   7.386  36.119   7.350
 7434POPC   C1B53299   7.228  36.174   6.450
 7434POPC   C2B53300   7.139  36.203   6.750
 7434POPC   C3B53301   7.216  36.222   7.050
 7434POPC   C4B53302   7.135  36.236   7.350
 7435POPC   NC353303  15.984   8.224   5.550
 7435POPC   PO453304  15.916   8.192   5.850
 7435POPC   GL153305  15.951   8.237   6.150
 7435POPC   GL253306  15.979   8.284   6.150
 7435POPC   C1A53307  15.991   8.196   6.450
 7435POPC   D2A53308  15.961   8.169   6.750
 7435POPC   C3A53309  15.926   8.162   7.050
 7435POPC   C4A53310  15.913   8.153   7.350
 7435POPC   C1B53311  15.940   8.457   6.450
 7435POPC   C2B53312  15.919   8.487   6.750
 7435POPC   C3B53313  15.959   8.428   7.050
 7435POPC   C4B53314  15.956   8.486   7.350
 7436POPC   NC353315  24.514  10.536   5.550
 7436POPC   PO453316  24.470  10.554   5.850
 7436POPC   GL153317  24.482  10.536   6.150
 7436POPC   GL253318  24.328  10.484   6.150
 7436POPC   C1A53319  24.460  10.557   6.450
 7436POPC   D2A53320  24.481  10.550   6.750
 7436POPC   C3A53321  24.442  10.558   7.050
 7436POPC   C4A53322  24.504  10.531   7.350
 7436POPC   C1B53323  24.273  10.542   6.450
 7436POPC   C2B53324  24.217  10.531   6.750
 7436POPC   C3B53325  24.287  10.453   7.050
 7436POPC   C4B53326  24.283  10.477   7.350
 7437POPC   NC353327  16.705  11.258   5.550
 7437POPC   PO453328  16.684  11.347   5.850
 7437POPC   GL153329  16.741  11.308   6.150
 7437POPC   GL253330  16.634  11.220   6.150
 7437POPC   C1A53331  16.779  11.269   6.450
 7437POPC   D2A53332  16.691  11.270   6.750
 7437POPC   C3A53333  16.766  11.325   7.050
 7437POPC   C4A53334  16.729  11.333   7.350
 7437POPC   C1B53335  16.516  11.135   6.450
 7437POPC   C2B53336  16.558  11.110   6.750
 7437POPC   C3B53337  16.576  11.124   7.050
 7437POPC   C4B53338  16.605  11.110   7.350
 7438POPC   NC353339   3.499  37.636   5.550
 7438POPC   PO453340   3.538  37.659   5.850
 7438POPC   GL153341   3.528  37.652   6.150
 7438POPC   GL253342   3.677  37.642   6.150
 7438POPC   C1A53343   3.590  37.645   6.450
 7438POPC   D2A53344   3.585  37.694   6.750
 7438POPC   C3A53345   3.582  37.632   7.050
 7438POPC   C4A53346   3.504  37.707   7.350
 7438POPC   C1B53347   3.816  37.724   6.450
 7438POPC   C2B53348   3.753  37.676   6.750
 7438POPC   C3B53349   3.801  37.709   7.050
 7438POPC   C4B53350   3.833  37.656   7.350
 7439POPC   NC353351  22.961  33.029   5.550
 7439POPC   PO453352  22.962  33.012   5.850
 7439POPC   GL153353  22.972  33.005   6.150
 7439POPC   GL253354  23.090  33.081   6.150
 7439POPC   C1A53355  22.986  32.984   6.450
 7439POPC   D2A53356  22.910  33.049   6.750
 7439POPC   C3A53357  22.959  33.042   7.050
 7439POPC   C4A53358  22.947  33.019   7.350
 7439POPC   C1B53359  23.129  33.140   6.450
 7439POPC   C2B53360  23.189  33.147   6.750
 7439POPC   C3B53361  23.149  33.108   7.050
 7439POPC   C4B53362  23.171  33.126   7.350
 7440POPC   NC353363  35.364  39.252   5.550
 7440POPC   PO453364  35.307  39.268   5.850
 7440POPC   GL153365  35.395  39.228   6.150
 7440POPC   GL253366  35.353  39.341   6.150
 7440POPC   C1A53367  35.343  39.215   6.450
 7440POPC   D2A53368  35.384  39.213   6.750
 7440POPC   C3A53369  35.370  39.215   7.050
 7440POPC   C4A53370  35.379  39.208   7.350
 7440POPC   C1B53371  35.445  39.463   6.450
 7440POPC   C2B53372  35.353  39.461   6.750
 7440POPC   C3B53373  35.361  39.514   7.050
 7440POPC   C4B53374  35.351  39.496   7.350
 7441POPC   NC353375  43.922  23.714   5.550
 7441POPC   PO453376  43.886  23.761   5.850
 7441POPC   GL153377  43.837  23.722   6.150
 7441POPC   GL253378  44.017  23.632   6.150
 7441POPC   C1A53379  43.923  23.702   6.450
 7441POPC   D2A53380  43.874  23.730   6.750
 7441POPC   C3A53381  43.843  23.757   7.050
 7441POPC   C4A53382  43.872  23.754   7.350
 7441POPC   C1B53383  44.110  23.651   6.450
 7441POPC   C2B53384  44.143  23.637   6.750
 7441POPC   C3B53385  44.137  23.603   7.050
 7441POPC   C4B53386  44.079  23.603   7.350
 7442POPC   NC353387  21.364  34.615   5.550
 7442POPC   PO453388  21.428  34.585   5.850
 7442POPC   GL153389  21.378  34.529   6.150
 7442POPC   GL253390  21.295  34.702   6.150
 7442POPC   C1A53391  21.403  34.624   6.450
 7442POPC   D2A53392  21.371  34.538   6.750
 7442POPC   C3A53393  21.416  34.584   7.050
 7442POPC   C4A53394  21.424  34.611   7.350
 7442POPC   C1B53395  21.279  34.804   6.450
 7442POPC   C2B53396  21.264  34.805   6.750
 7442POPC   C3B53397  21.279  34.797   7.050
 7442POPC   C4B53398  21.248  34.781   7.350
 7443POPC   NC353399  19.106  12.896   5.550
 7443POPC   PO453400  19.012  12.882   5.850
 7443POPC   GL153401  19.083  12.879   6.150
 7443POPC   GL253402  18.889  12.885   6.150
 7443POPC   C1A53403  19.094  12.881   6.450
 7443POPC   D2A53404  19.090  12.853   6.750
 7443POPC   C3A53405  19.096  12.834   7.050
 7443POPC   C4A53406  19.021  12.831   7.350
 7443POPC   C1B53407  18.825  12.932   6.450
 7443POPC   C2B53408  18.792  12.881   6.750
 7443POPC   C3B53409  18.808  12.899   7.050
 7443POPC   C4B53410  18.772  12.887   7.350
 7444POPC   NC353411  26.860  39.248   5.550
 7444POPC   PO453412  26.838  39.242   5.850
 7444POPC   GL153413  26.773  39.224   6.150
 7444POPC   GL253414  26.799  39.339   6.150
 7444POPC   C1A53415  26.768  39.229   6.450
 7444POPC   D2A53416  26.784  39.276   6.750
 7444POPC   C3A53417  26.823  39.227   7.050
 7444POPC   C4A53418  26.793  39.185   7.350
 7444POPC   C1B53419  26.785  39.446   6.450
 7444POPC   C2B53420  26.834  39.501   6.750
 7444POPC   C3B53421  26.807  39.500   7.050
 7444POPC   C4B53422  26.800  39.494   7.350
 7445POPC   NC353423  19.863  40.800   5.550
 7445POPC   PO453424  19.837  40.733   5.850
 7445POPC   GL153425  19.836  40.770   6.150
 7445POPC   GL253426  19.766  40.936   6.150
 7445POPC   C1A53427  19.875  40.827   6.450
 7445POPC   D2A53428  19.861  40.812   6.750
 7445POPC   C3A53429  19.882  40.733   7.050
 7445POPC   C4A53430  19.869  40.808   7.350
 7445POPC   C1B53431  19.791  41.019   6.450
 7445POPC   C2B53432  19.768  41.035   6.750
 7445POPC   C3B53433  19.807  41.057   7.050
 7445POPC   C4B53434  19.827  41.061   7.350
 7446POPC   NC353435  32.996  42.324   5.550
 7446POPC   PO453436  33.002  42.360   5.850
 7446POPC   GL153437  33.068  42.363   6.150
 7446POPC   GL253438  33.032  42.478   6.150
 7446POPC   C1A53439  33.059  42.320   6.450
 7446POPC   D2A53440  33.063  42.343   6.750
 7446POPC   C3A53441  33.048  42.314   7.050
 7446POPC   C4A53442  33.011  42.303   7.350
 7446POPC   C1B53443  33.146  42.599   6.450
 7446POPC   C2B53444  33.138  42.544   6.750
 7446POPC   C3B53445  33.118  42.555   7.050
 7446POPC   C4B53446  33.122  42.526   7.350
 7447POPC   NC353447  34.601   2.764   5.550
 7447POPC   PO453448  34.569   2.725   5.850
 7447POPC   GL153449  34.528   2.767   6.150
 7447POPC   GL253450  34.572   2.676   6.150
 7447POPC   C1A53451  34.578   2.808   6.450
 7447POPC   D2A53452  34.612   2.739   6.750
 7447POPC   C3A53453  34.526   2.772   7.050
 7447POPC   C4A53454  34.588   2.716   7.350
 7447POPC   C1B53455  34.603   2.559   6.450
 7447POPC   C2B53456  34.544   2.483   6.750
 7447POPC   C3B53457  34.577   2.473   7.050
 7447POPC   C4B53458  34.623   2.539   7.350
 7448POPC   NC353459   5.886   7.453   5.550
 7448POPC   PO453460   5.821   7.374   5.850
 7448POPC   GL153461   5.903   7.428   6.150
 7448POPC   GL253462   6.000   7.486   6.150
 7448POPC   C1A53463   5.819   7.400   6.450
 7448POPC   D2A53464   5.910   7.375   6.750
 7448POPC   C3A53465   5.863   7.439   7.050
 7448POPC   C4A53466   5.912   7.414   7.350
 7448POPC   C1B53467   6.084   7.544   6.450
 7448POPC   C2B53468   6.078   7.543   6.750
 7448POPC   C3B53469   6.126   7.559   7.050
 7448POPC   C4B53470   6.134   7.505   7.350
 7449POPC   NC353471  37.685  35.356   5.550
 7449POPC   PO453472  37.696  35.358   5.850
 7449POPC   GL153473  37.659  35.401   6.150
 7449POPC   GL253474  37.762  35.281   6.150
 7449POPC   C1A53475  37.704  35.370   6.450
 7449POPC   D2A53476  37.671  35.340   6.750
 7449POPC   C3A53477  37.692  35.335   7.050
 7449POPC   C4A53478  37.719  35.304   7.350
 7449POPC   C1B53479  37.899  35.241   6.450
 7449POPC   C2B53480  37.919  35.266   6.750
 7449POPC   C3B53481  37.868  35.245   7.050
 7449POPC   C4B53482  37.905  35.252   7.350
 7450POPC   NC353483  10.561  39.269   5.550
 7450POPC   PO453484  10.494  39.262   5.850
 7450POPC   GL153485  10.485  39.239   6.150
 7450POPC   GL253486  10.411  39.292   6.150
 7450POPC   C1A53487  10.476  39.194   6.450
 7450POPC   D2A53488  10.495  39.277   6.750
 7450POPC   C3A53489  10.558  39.201   7.050
 7450POPC   C4A53490  10.497  39.191   7.350
 7450POPC   C1B53491  10.253  39.321   6.450
 7450POPC   C2B53492  10.268  39.302   6.750
 7450POPC   C3B53493  10.285  39.326   7.050
 7450POPC   C4B53494  10.314  39.378   7.350
 7451POPC   NC353495  13.675  39.962   5.550
 7451POPC   PO453496  13.673  40.006   5.850
 7451POPC   GL153497  13.625  39.965   6.150
 7451POPC   GL253498  13.619  40.131   6.150
 7451POPC   C1A53499  13.590  39.996   6.450
 7451POPC   D2A53500  13.664  39.976   6.750
 7451POPC   C3A53501  13.631  39.963   7.050
 7451POPC   C4A53502  13.665  40.022   7.350
 7451POPC   C1B53503  13.641  40.299   6.450
 7451POPC   C2B53504  13.644  40.304   6.750
 7451POPC   C3B53505  13.672  40.268   7.050
 7451POPC   C4B53506  13.685  40.299   7.350
 7452POPC   NC353507  44.625  34.526   5.550
 7452POPC   PO453508  44.662  34.558   5.850
 7452POPC   GL153509  44.680  34.586   6.150
 7452POPC   GL253510  44.690  34.432   6.150
 7452POPC   C1A53511  44.705  34.590   6.450
 7452POPC   D2A53512  44.712  34.621   6.750
 7452POPC   C3A53513  44.622  34.566   7.050
 7452POPC   C4A53514  44.673  34.624   7.350
 7452POPC   C1B53515  44.806  34.322   6.450
 7452POPC   C2B53516  44.787  34.364   6.750
 7452POPC   C3B53517  44.810  34.327   7.050
 7452POPC   C4B53518  44.754  34.363   7.350
 7453POPC   NC353519  11.334  14.355   5.550
 7453POPC   PO453520  11.274  14.423   5.850
 7453POPC   GL153521  11.257  14.373   6.150
 7453POPC   GL253522  11.223  14.338   6.150
 7453POPC   C1A53523  11.291  14.452   6.450
 7453POPC   D2A53524  11.317  14.368   6.750
 7453POPC   C3A53525  11.337  14.370   7.050
 7453POPC   C4A53526  11.280  14.414   7.350
 7453POPC   C1B53527  11.090  14.324   6.450
 7453POPC   C2B53528  11.048  14.370   6.750
 7453POPC   C3B53529  11.002  14.344   7.050
 7453POPC   C4B53530  11.064  14.394   7.350
 7454POPC   NC353531   8.935  43.926   5.550
 7454POPC   PO453532   8.944  43.889   5.850
 7454POPC   GL153533   9.015  43.859   6.150
 7454POPC   GL253534   9.027  43.976   6.150
 7454POPC   C1A53535   8.953  43.874   6.450
 7454POPC   D2A53536   8.941  43.862   6.750
 7454POPC   C3A53537   8.925  43.930   7.050
 7454POPC   C4A53538   8.994  43.868   7.350
 7454POPC   C1B53539   9.173  44.061   6.450
 7454POPC   C2B53540   9.164  44.035   6.750
 7454POPC   C3B53541   9.181  44.086   7.050
 7454POPC   C4B53542   9.157  44.023   7.350
 7455POPC   NC353543  32.986  40.049   5.550
 7455POPC   PO453544  33.011  40.009   5.850
 7455POPC   GL153545  33.010  40.044   6.150
 7455POPC   GL253546  33.039  40.142   6.150
 7455POPC   C1A53547  33.070  39.987   6.450
 7455POPC   D2A53548  33.052  40.046   6.750
 7455POPC   C3A53549  32.996  40.019   7.050
 7455POPC   C4A53550  33.040  39.963   7.350
 7455POPC   C1B53551  33.078  40.261   6.450
 7455POPC   C2B53552  33.046  40.237   6.750
 7455POPC   C3B53553  33.134  40.263   7.050
 7455POPC   C4B53554  33.088  40.291   7.350
 7456POPC   NC353555  24.499   2.022   5.550
 7456POPC   PO453556  24.457   1.970   5.850
 7456POPC   GL153557  24.465   2.033   6.150
 7456POPC   GL253558  24.401   1.989   6.150
 7456POPC   C1A53559  24.531   2.036   6.450
 7456POPC   D2A53560  24.519   2.028   6.750
 7456POPC   C3A53561  24.454   1.950   7.050
 7456POPC   C4A53562  24.464   1.942   7.350
 7456POPC   C1B53563  24.268   2.058   6.450
 7456POPC   C2B53564  24.203   2.071   6.750
 7456POPC   C3B53565  24.266   2.117   7.050
 7456POPC   C4B53566  24.274   2.027   7.350
 7457POPC   NC353567   5.874  28.401   5.550
 7457POPC   PO453568   5.893  28.363   5.850
 7457POPC   GL153569   5.861  28.330   6.150
 7457POPC   GL253570   5.994  28.251   6.150
 7457POPC   C1A53571   5.857  28.325   6.450
 7457POPC   D2A53572   5.858  28.330   6.750
 7457POPC   C3A53573   5.862  28.417   7.050
 7457POPC   C4A53574   5.905  28.377   7.350
 7457POPC   C1B53575   6.080  28.158   6.450
 7457POPC   C2B53576   6.029  28.193   6.750
 7457POPC   C3B53577   6.078  28.148   7.050
 7457POPC   C4B53578   6.088  28.141   7.350
 7458POPC   NC353579   0.406  24.469   5.550
 7458POPC   PO453580   0.468  24.463   5.850
 7458POPC   GL153581   0.475  24.491   6.150
 7458POPC   GL253582   0.420  24.379   6.150
 7458POPC   C1A53583   0.413  24.520   6.450
 7458POPC   D2A53584   0.469  24.473   6.750
 7458POPC   C3A53585   0.473  24.463   7.050
 7458POPC   C4A53586   0.410  24.479   7.350
 7458POPC   C1B53587   0.466  24.259   6.450
 7458POPC   C2B53588   0.403  24.265   6.750
 7458POPC   C3B53589   0.434  24.251   7.050
 7458POPC   C4B53590   0.397  24.224   7.350
 7459POPC   NC353591  29.948  21.393   5.550
 7459POPC   PO453592  29.871  21.410   5.850
 7459POPC   GL153593  29.961  21.379   6.150
 7459POPC   GL253594  29.799  21.360   6.150
 7459POPC   C1A53595  29.912  21.339   6.450
 7459POPC   D2A53596  29.934  21.418   6.750
 7459POPC   C3A53597  29.887  21.391   7.050
 7459POPC   C4A53598  29.965  21.416   7.350
 7459POPC   C1B53599  29.680  21.325   6.450
 7459POPC   C2B53600  29.705  21.296   6.750
 7459POPC   C3B53601  29.695  21.275   7.050
 7459POPC   C4B53602  29.719  21.279   7.350
 7460POPC   NC353603   5.883  43.895   5.550
 7460POPC   PO453604   5.835  43.891   5.850
 7460POPC   GL153605   5.853  43.897   6.150
 7460POPC   GL253606   5.710  43.881   6.150
 7460POPC   C1A53607   5.886  43.924   6.450
 7460POPC   D2A53608   5.847  43.866   6.750
 7460POPC   C3A53609   5.909  43.836   7.050
 7460POPC   C4A53610   5.839  43.866   7.350
 7460POPC   C1B53611   5.611  43.790   6.450
 7460POPC   C2B53612   5.623  43.818   6.750
 7460POPC   C3B53613   5.622  43.854   7.050
 7460POPC   C4B53614   5.648  43.874   7.350
 7461POPC   NC353615  33.051  20.580   5.550
 7461POPC   PO453616  33.001  20.638   5.850
 7461POPC   GL153617  33.047  20.629   6.150
 7461POPC   GL253618  33.107  20.494   6.150
 7461POPC   C1A53619  33.049  20.567   6.450
 7461POPC   D2A53620  33.048  20.639   6.750
 7461POPC   C3A53621  33.028  20.604   7.050
 7461POPC   C4A53622  33.003  20.563   7.350
 7461POPC   C1B53623  33.187  20.460   6.450
 7461POPC   C2B53624  33.242  20.486   6.750
 7461POPC   C3B53625  33.274  20.505   7.050
 7461POPC   C4B53626  33.258  20.465   7.350
 7462POPC   NC353627  40.734  26.859   5.550
 7462POPC   PO453628  40.775  26.794   5.850
 7462POPC   GL153629  40.821  26.793   6.150
 7462POPC   GL253630  40.690  26.782   6.150
 7462POPC   C1A53631  40.735  26.771   6.450
 7462POPC   D2A53632  40.772  26.866   6.750
 7462POPC   C3A53633  40.807  26.783   7.050
 7462POPC   C4A53634  40.762  26.798   7.350
 7462POPC   C1B53635  40.558  26.762   6.450
 7462POPC   C2B53636  40.584  26.755   6.750
 7462POPC   C3B53637  40.576  26.742   7.050
 7462POPC   C4B53638  40.492  26.723   7.350
 7463POPC   NC353639   5.057  42.320   5.550
 7463POPC   PO453640   5.104  42.346   5.850
 7463POPC   GL153641   5.135  42.313   6.150
 7463POPC   GL253642   4.991  42.350   6.150
 7463POPC   C1A53643   5.124  42.331   6.450
 7463POPC   D2A53644   5.116  42.327   6.750
 7463POPC   C3A53645   5.140  42.287   7.050
 7463POPC   C4A53646   5.137  42.315   7.350
 7463POPC   C1B53647   4.862  42.500   6.450
 7463POPC   C2B53648   4.890  42.443   6.750
 7463POPC   C3B53649   4.893  42.430   7.050
 7463POPC   C4B53650   4.842  42.462   7.350
 7464POPC   NC353651  43.068   2.807   5.550
 7464POPC   PO453652  43.087   2.776   5.850
 7464POPC   GL153653  43.079   2.718   6.150
 7464POPC   GL253654  43.218   2.690   6.150
 7464POPC   C1A53655  43.069   2.727   6.450
 7464POPC   D2A53656  43.136   2.743   6.750
 7464POPC   C3A53657  43.085   2.743   7.050
 7464POPC   C4A53658  43.148   2.786   7.350
 7464POPC   C1B53659  43.210   2.516   6.450
 7464POPC   C2B53660  43.295   2.522   6.750
 7464POPC   C3B53661  43.239   2.517   7.050
 7464POPC   C4B53662  43.206   2.524   7.350
 7465POPC   NC353663  11.279  41.521   5.550
 7465POPC   PO453664  11.278  41.538   5.850
 7465POPC   GL153665  11.254  41.590   6.150
 7465POPC   GL253666  11.211  41.610   6.150
 7465POPC   C1A53667  11.269  41.568   6.450
 7465POPC   D2A53668  11.275  41.523   6.750
 7465POPC   C3A53669  11.281  41.557   7.050
 7465POPC   C4A53670  11.304  41.564   7.350
 7465POPC   C1B53671  11.115  41.697   6.450
 7465POPC   C2B53672  11.043  41.663   6.750
 7465POPC   C3B53673  11.069  41.688   7.050
 7465POPC   C4B53674  11.094  41.704   7.350
 7466POPC   NC353675  40.781  31.488   5.550
 7466POPC   PO453676  40.814  31.461   5.850
 7466POPC   GL153677  40.830  31.432   6.150
 7466POPC   GL253678  40.868  31.426   6.150
 7466POPC   C1A53679  40.804  31.479   6.450
 7466POPC   D2A53680  40.808  31.518   6.750
 7466POPC   C3A53681  40.753  31.468   7.050
 7466POPC   C4A53682  40.795  31.483   7.350
 7466POPC   C1B53683  41.016  31.310   6.450
 7466POPC   C2B53684  40.995  31.346   6.750
 7466POPC   C3B53685  40.952  31.335   7.050
 7466POPC   C4B53686  41.038  31.349   7.350
 7467POPC   NC353687  23.684  37.661   5.550
 7467POPC   PO453688  23.710  37.694   5.850
 7467POPC   GL153689  23.749  37.705   6.150
 7467POPC   GL253690  23.829  37.576   6.150
 7467POPC   C1A53691  23.719  37.655   6.450
 7467POPC   D2A53692  23.725  37.666   6.750
 7467POPC   C3A53693  23.741  37.716   7.050
 7467POPC   C4A53694  23.725  37.726   7.350
 7467POPC   C1B53695  23.865  37.523   6.450
 7467POPC   C2B53696  23.874  37.456   6.750
 7467POPC   C3B53697  23.858  37.440   7.050
 7467POPC   C4B53698  23.845  37.463   7.350
 7468POPC   NC353699  35.314  43.857   5.550
 7468POPC   PO453700  35.307  43.851   5.850
 7468POPC   GL153701  35.345  43.882   6.150
 7468POPC   GL253702  35.232  43.985   6.150
 7468POPC   C1A53703  35.389  43.935   6.450
 7468POPC   D2A53704  35.311  43.866   6.750
 7468POPC   C3A53705  35.398  43.902   7.050
 7468POPC   C4A53706  35.302  43.845   7.350
 7468POPC   C1B53707  35.205  44.088   6.450
 7468POPC   C2B53708  35.149  44.026   6.750
 7468POPC   C3B53709  35.195  44.042   7.050
 7468POPC   C4B53710  35.174  44.054   7.350
 7469POPC   NC353711  18.247  10.530   5.550
 7469POPC   PO453712  18.242  10.523   5.850
 7469POPC   GL153713  18.252  10.566   6.150
 7469POPC   GL253714  18.309  10.611   6.150
 7469POPC   C1A53715  18.319  10.558   6.450
 7469POPC   D2A53716  18.289  10.495   6.750
 7469POPC   C3A53717  18.235  10.488   7.050
 7469POPC   C4A53718  18.244  10.558   7.350
 7469POPC   C1B53719  18.264  10.807   6.450
 7469POPC   C2B53720  18.321  10.731   6.750
 7469POPC   C3B53721  18.291  10.761   7.050
 7469POPC   C4B53722  18.319  10.748   7.350
 7470POPC   NC353723  16.739  20.614   5.550
 7470POPC   PO453724  16.707  20.605   5.850
 7470POPC   GL153725  16.779  20.621   6.150
 7470POPC   GL253726  16.765  20.720   6.150
 7470POPC   C1A53727  16.729  20.605   6.450
 7470POPC   D2A53728  16.762  20.621   6.750
 7470POPC   C3A53729  16.743  20.648   7.050
 7470POPC   C4A53730  16.755  20.628   7.350
 7470POPC   C1B53731  16.783  20.882   6.450
 7470POPC   C2B53732  16.764  20.838   6.750
 7470POPC   C3B53733  16.750  20.884   7.050
 7470POPC   C4B53734  16.735  20.837   7.350
 7471POPC   NC353735  34.569   7.469   5.550
 7471POPC   PO453736  34.581   7.446   5.850
 7471POPC   GL153737  34.551   7.407   6.150
 7471POPC   GL253738  34.555   7.339   6.150
 7471POPC   C1A53739  34.548   7.438   6.450
 7471POPC   D2A53740  34.530   7.394   6.750
 7471POPC   C3A53741  34.597   7.467   7.050
 7471POPC   C4A53742  34.526   7.447   7.350
 7471POPC   C1B53743  34.489   7.196   6.450
 7471POPC   C2B53744  34.563   7.160   6.750
 7471POPC   C3B53745  34.566   7.173   7.050
 7471POPC   C4B53746  34.556   7.184   7.350
 7472POPC   NC353747  17.516  36.134   5.550
 7472POPC   PO453748  17.517  36.138   5.850
 7472POPC   GL153749  17.550  36.169   6.150
 7472POPC   GL253750  17.557  35.988   6.150
 7472POPC   C1A53751  17.490  36.087   6.450
 7472POPC   D2A53752  17.551  36.136   6.750
 7472POPC   C3A53753  17.555  36.102   7.050
 7472POPC   C4A53754  17.497  36.131   7.350
 7472POPC   C1B53755  17.660  35.935   6.450
 7472POPC   C2B53756  17.637  35.880   6.750
 7472POPC   C3B53757  17.687  35.922   7.050
 7472POPC   C4B53758  17.682  35.920   7.350
 7473POPC   NC353759   6.669  18.292   5.550
 7473POPC   PO453760   6.629  18.288   5.850
 7473POPC   GL153761   6.616  18.271   6.150
 7473POPC   GL253762   6.566  18.325   6.150
 7473POPC   C1A53763   6.650  18.267   6.450
 7473POPC   D2A53764   6.630  18.253   6.750
 7473POPC   C3A53765   6.625  18.238   7.050
 7473POPC   C4A53766   6.690  18.297   7.350
 7473POPC   C1B53767   6.359  18.313   6.450
 7473POPC   C2B53768   6.380  18.280   6.750
 7473POPC   C3B53769   6.364  18.324   7.050
 7473POPC   C4B53770   6.351  18.301   7.350
 7474POPC   NC353771   4.268   3.503   5.550
 7474POPC   PO453772   4.312   3.527   5.850
 7474POPC   GL153773   4.281   3.573   6.150
 7474POPC   GL253774   4.346   3.659   6.150
 7474POPC   C1A53775   4.354   3.518   6.450
 7474POPC   D2A53776   4.269   3.590   6.750
 7474POPC   C3A53777   4.340   3.509   7.050
 7474POPC   C4A53778   4.268   3.567   7.350
 7474POPC   C1B53779   4.290   3.820   6.450
 7474POPC   C2B53780   4.322   3.805   6.750
 7474POPC   C3B53781   4.277   3.776   7.050
 7474POPC   C4B53782   4.330   3.818   7.350
 7475POPC   NC353783  27.569   8.239   5.550
 7475POPC   PO453784  27.566   8.194   5.850
 7475POPC   GL153785  27.604   8.210   6.150
 7475POPC   GL253786  27.496   8.211   6.150
 7475POPC   C1A53787  27.614   8.228   6.450
 7475POPC   D2A53788  27.628   8.220   6.750
 7475POPC   C3A53789  27.544   8.151   7.050
 7475POPC   C4A53790  27.608   8.184   7.350
 7475POPC   C1B53791  27.308   8.214   6.450
 7475POPC   C2B53792  27.300   8.272   6.750
 7475POPC   C3B53793  27.386   8.220   7.050
 7475POPC   C4B53794  27.360   8.238   7.350
 7476POPC   NC353795  12.813  23.759   5.550
 7476POPC   PO453796  12.877  23.715   5.850
 7476POPC   GL153797  12.811  23.691   6.150
 7476POPC   GL253798  12.886  23.830   6.150
 7476POPC   C1A53799  12.867  23.705   6.450
 7476POPC   D2A53800  12.828  23.674   6.750
 7476POPC   C3A53801  12.830  23.695   7.050
 7476POPC   C4A53802  12.879  23.699   7.350
 7476POPC   C1B53803  12.855  23.957   6.450
 7476POPC   C2B53804  12.895  23.921   6.750
 7476POPC   C3B53805  12.866  23.951   7.050
 7476POPC   C4B53806  12.899  23.936   7.350
 7477POPC   NC353807  20.653  17.506   5.550
 7477POPC   PO453808  20.638  17.487   5.850
 7477POPC   GL153809  20.640  17.543   6.150
 7477POPC   GL253810  20.771  17.443   6.150
 7477POPC   C1A53811  20.597  17.555   6.450
 7477POPC   D2A53812  20.598  17.518   6.750
 7477POPC   C3A53813  20.626  17.505   7.050
 7477POPC   C4A53814  20.578  17.544   7.350
 7477POPC   C1B53815  20.858  17.454   6.450
 7477POPC   C2B53816  20.874  17.433   6.750
 7477POPC   C3B53817  20.849  17.414   7.050
 7477POPC   C4B53818  20.887  17.397   7.350
 7478POPC   NC353819  32.228  13.674   5.550
 7478POPC   PO453820  32.235  13.585   5.850
 7478POPC   GL153821  32.283  13.604   6.150
 7478POPC   GL253822  32.334  13.501   6.150
 7478POPC   C1A53823  32.233  13.623   6.450
 7478POPC   D2A53824  32.297  13.582   6.750
 7478POPC   C3A53825  32.263  13.604   7.050
 7478POPC   C4A53826  32.199  13.664   7.350
 7478POPC   C1B53827  32.398  13.360   6.450
 7478POPC   C2B53828  32.353  13.436   6.750
 7478POPC   C3B53829  32.365  13.448   7.050
 7478POPC   C4B53830  32.359  13.423   7.350
 7479POPC   NC353831  23.731   3.585   5.550
 7479POPC   PO453832  23.722   3.493   5.850
 7479POPC   GL153833  23.733   3.512   6.150
 7479POPC   GL253834  23.725   3.654   6.150
 7479POPC   C1A53835  23.751   3.551   6.450
 7479POPC   D2A53836  23.736   3.577   6.750
 7479POPC   C3A53837  23.722   3.572   7.050
 7479POPC   C4A53838  23.675   3.537   7.350
 7479POPC   C1B53839  23.653   3.779   6.450
 7479POPC   C2B53840  23.681   3.792   6.750
 7479POPC   C3B53841  23.719   3.820   7.050
 7479POPC   C4B53842  23.660   3.780   7.350
 7480POPC   NC353843  26.824  12.069   5.550
 7480POPC   PO453844  26.850  12.102   5.850
 7480POPC   GL153845  26.828  12.069   6.150
 7480POPC   GL253846  26.768  11.952   6.150
 7480POPC   C1A53847  26.830  12.069   6.450
 7480POPC   D2A53848  26.791  12.056   6.750
 7480POPC   C3A53849  26.851  12.085   7.050
 7480POPC   C4A53850  26.842  12.072   7.350
 7480POPC   C1B53851  26.598  11.921   6.450
 7480POPC   C2B53852  26.655  11.931   6.750
 7480POPC   C3B53853  26.647  11.889   7.050
 7480POPC   C4B53854  26.629  11.860   7.350
 7481POPC   NC353855   4.296  29.963   5.550
 7481POPC   PO453856   4.321  29.944   5.850
 7481POPC   GL153857   4.315  29.913   6.150
 7481POPC   GL253858   4.183  30.026   6.150
 7481POPC   C1A53859   4.347  29.893   6.450
 7481POPC   D2A53860   4.319  29.942   6.750
 7481POPC   C3A53861   4.326  29.903   7.050
 7481POPC   C4A53862   4.275  29.898   7.350
 7481POPC   C1B53863   4.069  30.042   6.450
 7481POPC   C2B53864   4.138  30.034   6.750
 7481POPC   C3B53865   4.083  30.091   7.050
 7481POPC   C4B53866   4.130  30.089   7.350
 7482POPC   NC353867   8.952  17.474   5.550
 7482POPC   PO453868   8.943  17.486   5.850
 7482POPC   GL153869   9.021  17.507   6.150
 7482POPC   GL253870   9.100  17.506   6.150
 7482POPC   C1A53871   8.997  17.499   6.450
 7482POPC   D2A53872   8.949  17.469   6.750
 7482POPC   C3A53873   8.974  17.524   7.050
 7482POPC   C4A53874   9.014  17.459   7.350
 7482POPC   C1B53875   9.251  17.453   6.450
 7482POPC   C2B53876   9.256  17.478   6.750
 7482POPC   C3B53877   9.227  17.393   7.050
 7482POPC   C4B53878   9.262  17.462   7.350
 7483POPC   NC353879  15.948  11.346   5.550
 7483POPC   PO453880  15.946  11.271   5.850
 7483POPC   GL153881  15.919  11.275   6.150
 7483POPC   GL253882  16.118  11.390   6.150
 7483POPC   C1A53883  15.935  11.287   6.450
 7483POPC   D2A53884  15.936  11.338   6.750
 7483POPC   C3A53885  15.929  11.254   7.050
 7483POPC   C4A53886  15.921  11.290   7.350
 7483POPC   C1B53887  16.193  11.375   6.450
 7483POPC   C2B53888  16.179  11.404   6.750
 7483POPC   C3B53889  16.159  11.428   7.050
 7483POPC   C4B53890  16.165  11.398   7.350
 7484POPC   NC353891  28.407  38.501   5.550
 7484POPC   PO453892  28.358  38.487   5.850
 7484POPC   GL153893  28.384  38.469   6.150
 7484POPC   GL253894  28.339  38.296   6.150
 7484POPC   C1A53895  28.327  38.457   6.450
 7484POPC   D2A53896  28.369  38.486   6.750
 7484POPC   C3A53897  28.336  38.476   7.050
 7484POPC   C4A53898  28.341  38.494   7.350
 7484POPC   C1B53899  28.244  38.241   6.450
 7484POPC   C2B53900  28.254  38.213   6.750
 7484POPC   C3B53901  28.276  38.271   7.050
 7484POPC   C4B53902  28.249  38.258   7.350
 7485POPC   NC353903  33.764  43.929   5.550
 7485POPC   PO453904  33.805  43.891   5.850
 7485POPC   GL153905  33.810  43.864   6.150
 7485POPC   GL253906  33.949  43.947   6.150
 7485POPC   C1A53907  33.848  43.855   6.450
 7485POPC   D2A53908  33.804  43.927   6.750
 7485POPC   C3A53909  33.796  43.852   7.050
 7485POPC   C4A53910  33.785  43.928   7.350
 7485POPC   C1B53911  34.016  44.008   6.450
 7485POPC   C2B53912  34.009  43.935   6.750
 7485POPC   C3B53913  33.995  43.943   7.050
 7485POPC   C4B53914  34.050  44.018   7.350
 7486POPC   NC353915  27.543   5.854   5.550
 7486POPC   PO453916  27.570   5.867   5.850
 7486POPC   GL153917  27.624   5.821   6.150
 7486POPC   GL253918  27.439   5.924   6.150
 7486POPC   C1A53919  27.550   5.917   6.450
 7486POPC   D2A53920  27.550   5.846   6.750
 7486POPC   C3A53921  27.564   5.824   7.050
 7486POPC   C4A53922  27.638   5.878   7.350
 7486POPC   C1B53923  27.346   5.928   6.450
 7486POPC   C2B53924  27.368   5.895   6.750
 7486POPC   C3B53925  27.348   5.921   7.050
 7486POPC   C4B53926  27.381   5.890   7.350
 7487POPC   NC353927  44.619  31.517   5.550
 7487POPC   PO453928  44.702  31.490   5.850
 7487POPC   GL153929  44.643  31.451   6.150
 7487POPC   GL253930  44.594  31.324   6.150
 7487POPC   C1A53931  44.699  31.466   6.450
 7487POPC   D2A53932  44.620  31.477   6.750
 7487POPC   C3A53933  44.625  31.506   7.050
 7487POPC   C4A53934  44.675  31.451   7.350
 7487POPC   C1B53935  44.578  31.207   6.450
 7487POPC   C2B53936  44.543  31.285   6.750
 7487POPC   C3B53937  44.516  31.218   7.050
 7487POPC   C4B53938  44.509  31.229   7.350
 7488POPC   NC353939  24.495  11.259   5.550
 7488POPC   PO453940  24.450  11.253   5.850
 7488POPC   GL153941  24.526  11.310   6.150
 7488POPC   GL253942  24.388  11.433   6.150
 7488POPC   C1A53943  24.485  11.253   6.450
 7488POPC   D2A53944  24.459  11.301   6.750
 7488POPC   C3A53945  24.445  11.350   7.050
 7488POPC   C4A53946  24.462  11.318   7.350
 7488POPC   C1B53947  24.410  11.523   6.450
 7488POPC   C2B53948  24.404  11.563   6.750
 7488POPC   C3B53949  24.411  11.542   7.050
 7488POPC   C4B53950  24.398  11.481   7.350
 7489POPC   NC353951   9.705  19.015   5.550
 7489POPC   PO453952   9.785  19.031   5.850
 7489POPC   GL153953   9.754  19.068   6.150
 7489POPC   GL253954   9.848  19.089   6.150
 7489POPC   C1A53955   9.701  19.082   6.450
 7489POPC   D2A53956   9.793  19.047   6.750
 7489POPC   C3A53957   9.778  19.034   7.050
 7489POPC   C4A53958   9.727  19.017   7.350
 7489POPC   C1B53959   9.948  19.166   6.450
 7489POPC   C2B53960   9.916  19.205   6.750
 7489POPC   C3B53961   9.933  19.245   7.050
 7489POPC   C4B53962  10.001  19.247   7.350
 7490POPC   NC353963  19.047  21.415   5.550
 7490POPC   PO453964  19.017  21.423   5.850
 7490POPC   GL153965  19.047  21.418   6.150
 7490POPC   GL253966  19.004  21.495   6.150
 7490POPC   C1A53967  19.102  21.364   6.450
 7490POPC   D2A53968  19.034  21.423   6.750
 7490POPC   C3A53969  19.093  21.351   7.050
 7490POPC   C4A53970  19.095  21.370   7.350
 7490POPC   C1B53971  19.005  21.626   6.450
 7490POPC   C2B53972  18.924  21.623   6.750
 7490POPC   C3B53973  18.936  21.650   7.050
 7490POPC   C4B53974  19.014  21.627   7.350
 7491POPC   NC353975  44.624  21.395   5.550
 7491POPC   PO453976  44.651  21.356   5.850
 7491POPC   GL153977  44.653  21.379   6.150
 7491POPC   GL253978  44.760  21.309   6.150
 7491POPC   C1A53979  44.639  21.431   6.450
 7491POPC   D2A53980  44.651  21.336   6.750
 7491POPC   C3A53981  44.616  21.396   7.050
 7491POPC   C4A53982  44.644  21.369   7.350
 7491POPC   C1B53983  44.847  21.254   6.450
 7491POPC   C2B53984  44.854  21.259   6.750
 7491POPC   C3B53985  44.876  21.214   7.050
 7491POPC   C4B53986  44.869  21.249   7.350
 7492POPC   NC353987  17.515  30.664   5.550
 7492POPC   PO453988  17.529  30.668   5.850
 7492POPC   GL153989  17.506  30.672   6.150
 7492POPC   GL253990  17.560  30.582   6.150
 7492POPC   C1A53991  17.529  30.728   6.450
 7492POPC   D2A53992  17.515  30.712   6.750
 7492POPC   C3A53993  17.482  30.705   7.050
 7492POPC   C4A53994  17.524  30.664   7.350
 7492POPC   C1B53995  17.692  30.517   6.450
 7492POPC   C2B53996  17.732  30.506   6.750
 7492POPC   C3B53997  17.702  30.558   7.050
 7492POPC   C4B53998  17.710  30.542   7.350
 7493POPC   NC353999  40.761   1.260   5.550
 7493POPC   PO454000  40.810   1.185   5.850
 7493POPC   GL154001  40.796   1.192   6.150
 7493POPC   GL254002  40.670   1.183   6.150
 7493POPC   C1A54003  40.734   1.167   6.450
 7493POPC   D2A54004  40.736   1.181   6.750
 7493POPC   C3A54005  40.815   1.261   7.050
 7493POPC   C4A54006  40.792   1.258   7.350
 7493POPC   C1B54007  40.583   1.225   6.450
 7493POPC   C2B54008  40.493   1.250   6.750
 7493POPC   C3B54009  40.486   1.276   7.050
 7493POPC   C4B54010  40.519   1.186   7.350
 7494POPC   NC354011   5.854   5.068   5.550
 7494POPC   PO454012   5.821   5.140   5.850
 7494POPC   GL154013   5.903   5.058   6.150
 7494POPC   GL254014   5.744   5.043   6.150
 7494POPC   C1A54015   5.897   5.076   6.450
 7494POPC   D2A54016   5.827   5.121   6.750
 7494POPC   C3A54017   5.899   5.140   7.050
 7494POPC   C4A54018   5.895   5.067   7.350
 7494POPC   C1B54019   5.663   4.978   6.450
 7494POPC   C2B54020   5.634   4.994   6.750
 7494POPC   C3B54021   5.635   4.896   7.050
 7494POPC   C4B54022   5.644   4.923   7.350
 7495POPC   NC354023  40.745  38.435   5.550
 7495POPC   PO454024  40.736  38.444   5.850
 7495POPC   GL154025  40.780  38.425   6.150
 7495POPC   GL254026  40.647  38.430   6.150
 7495POPC   C1A54027  40.812  38.449   6.450
 7495POPC   D2A54028  40.757  38.476   6.750
 7495POPC   C3A54029  40.734  38.444   7.050
 7495POPC   C4A54030  40.738  38.501   7.350
 7495POPC   C1B54031  40.578  38.516   6.450
 7495POPC   C2B54032  40.567  38.483   6.750
 7495POPC   C3B54033  40.553  38.525   7.050
 7495POPC   C4B54034  40.490  38.545   7.350
 7496POPC   NC354035  33.071  44.661   5.550
 7496POPC   PO454036  33.007  44.650   5.850
 7496POPC   GL154037  33.060  44.710   6.150
 7496POPC   GL254038  32.890  44.700   6.150
 7496POPC   C1A54039  32.991  44.663   6.450
 7496POPC   D2A54040  33.024  44.709   6.750
 7496POPC   C3A54041  33.034  44.691   7.050
 7496POPC   C4A54042  32.986  44.689   7.350
 7496POPC   C1B54043  32.805  44.734   6.450
 7496POPC   C2B54044  32.823  44.703   6.750
 7496POPC   C3B54045  32.792  44.697   7.050
 7496POPC   C4B54046  32.794  44.731   7.350
 7497POPC   NC354047  12.063  14.400   5.550
 7497POPC   PO454048  12.060  14.433   5.850
 7497POPC   GL154049  12.054  14.399   6.150
 7497POPC   GL254050  12.153  14.388   6.150
 7497POPC   C1A54051  12.095  14.445   6.450
 7497POPC   D2A54052  12.088  14.423   6.750
 7497POPC   C3A54053  12.047  14.405   7.050
 7497POPC   C4A54054  12.057  14.452   7.350
 7497POPC   C1B54055  12.346  14.468   6.450
 7497POPC   C2B54056  12.282  14.423   6.750
 7497POPC   C3B54057  12.298  14.459   7.050
 7497POPC   C4B54058  12.325  14.405   7.350
 7498POPC   NC354059  40.795  43.851   5.550
 7498POPC   PO454060  40.750  43.881   5.850
 7498POPC   GL154061  40.738  43.893   6.150
 7498POPC   GL254062  40.661  43.812   6.150
 7498POPC   C1A54063  40.765  43.919   6.450
 7498POPC   D2A54064  40.763  43.838   6.750
 7498POPC   C3A54065  40.803  43.838   7.050
 7498POPC   C4A54066  40.770  43.899   7.350
 7498POPC   C1B54067  40.553  43.734   6.450
 7498POPC   C2B54068  40.582  43.691   6.750
 7498POPC   C3B54069  40.569  43.738   7.050
 7498POPC   C4B54070  40.543  43.756   7.350
 7499POPC   NC354071   4.349  16.702   5.550
 7499POPC   PO454072   4.367  16.713   5.850
 7499POPC   GL154073   4.325  16.744   6.150
 7499POPC   GL254074   4.387  16.641   6.150
 7499POPC   C1A54075   4.270  16.719   6.450
 7499POPC   D2A54076   4.307  16.779   6.750
 7499POPC   C3A54077   4.316  16.777   7.050
 7499POPC   C4A54078   4.344  16.746   7.350
 7499POPC   C1B54079   4.485  16.532   6.450
 7499POPC   C2B54080   4.518  16.573   6.750
 7499POPC   C3B54081   4.523  16.506   7.050
 7499POPC   C4B54082   4.507  16.560   7.350
 7500POPC   NC354083   4.322  43.895   5.550
 7500POPC   PO454084   4.317  43.890   5.850
 7500POPC   GL154085   4.276  43.892   6.150
 7500POPC   GL254086   4.290  44.036   6.150
 7500POPC   C1A54087   4.347  43.867   6.450
 7500POPC   D2A54088   4.317  43.921   6.750
 7500POPC   C3A54089   4.295  43.911   7.050
 7500POPC   C4A54090   4.276  43.868   7.350
 7500POPC   C1B54091   4.256  44.088   6.450
 7500POPC   C2B54092   4.239  44.123   6.750
 7500POPC   C3B54093   4.273  44.117   7.050
 7500POPC   C4B54094   4.234  44.119   7.350
 7501POPC   NC354095  30.684  30.688   5.550
 7501POPC   PO454096  30.690  30.675   5.850
 7501POPC   GL154097  30.712  30.677   6.150
 7501POPC   GL254098  30.833  30.624   6.150
 7501POPC   C1A54099  30.711  30.674   6.450
 7501POPC   D2A54100  30.745  30.681   6.750
 7501POPC   C3A54101  30.738  30.715   7.050
 7501POPC   C4A54102  30.744  30.711   7.350
 7501POPC   C1B54103  30.891  30.589   6.450
 7501POPC   C2B54104  30.884  30.544   6.750
 7501POPC   C3B54105  30.891  30.632   7.050
 7501POPC   C4B54106  30.886  30.602   7.350
 7502POPC   NC354107  25.242  16.724   5.550
 7502POPC   PO454108  25.313  16.711   5.850
 7502POPC   GL154109  25.311  16.738   6.150
 7502POPC   GL254110  25.381  16.673   6.150
 7502POPC   C1A54111  25.241  16.761   6.450
 7502POPC   D2A54112  25.228  16.756   6.750
 7502POPC   C3A54113  25.243  16.779   7.050
 7502POPC   C4A54114  25.269  16.721   7.350
 7502POPC   C1B54115  25.398  16.492   6.450
 7502POPC   C2B54116  25.453  16.508   6.750
 7502POPC   C3B54117  25.381  16.556   7.050
 7502POPC   C4B54118  25.393  16.542   7.350
 7503POPC   NC354119  16.729   1.228   5.550
 7503POPC   PO454120  16.697   1.240   5.850
 7503POPC   GL154121  16.707   1.225   6.150
 7503POPC   GL254122  16.654   1.248   6.150
 7503POPC   C1A54123  16.703   1.197   6.450
 7503POPC   D2A54124  16.760   1.222   6.750
 7503POPC   C3A54125  16.710   1.244   7.050
 7503POPC   C4A54126  16.706   1.250   7.350
 7503POPC   C1B54127  16.451   1.222   6.450
 7503POPC   C2B54128  16.497   1.200   6.750
 7503POPC   C3B54129  16.489   1.183   7.050
 7503POPC   C4B54130  16.517   1.181   7.350
 7504POPC   NC354131  17.469  31.504   5.550
 7504POPC   PO454132  17.491  31.456   5.850
 7504POPC   GL154133  17.484  31.437   6.150
 7504POPC   GL254134  17.651  31.521   6.150
 7504POPC   C1A54135  17.493  31.519   6.450
 7504POPC   D2A54136  17.497  31.477   6.750
 7504POPC   C3A54137  17.515  31.477   7.050
 7504POPC   C4A54138  17.549  31.424   7.350
 7504POPC   C1B54139  17.730  31.592   6.450
 7504POPC   C2B54140  17.767  31.549   6.750
 7504POPC   C3B54141  17.729  31.560   7.050
 7504POPC   C4B54142  17.705  31.603   7.350
 7505POPC   NC354143  28.406  16.687   5.550
 7505POPC   PO454144  28.377  16.711   5.850
 7505POPC   GL154145  28.384  16.700   6.150
 7505POPC   GL254146  28.378  16.598   6.150
 7505POPC   C1A54147  28.400  16.714   6.450
 7505POPC   D2A54148  28.412  16.771   6.750
 7505POPC   C3A54149  28.411  16.777   7.050
 7505POPC   C4A54150  28.365  16.717   7.350
 7505POPC   C1B54151  28.474  16.453   6.450
 7505POPC   C2B54152  28.428  16.496   6.750
 7505POPC   C3B54153  28.409  16.477   7.050
 7505POPC   C4B54154  28.492  16.518   7.350
 7506POPC   NC354155  33.774   5.848   5.550
 7506POPC   PO454156  33.773   5.917   5.850
 7506POPC   GL154157  33.828   5.868   6.150
 7506POPC   GL254158  33.746   5.973   6.150
 7506POPC   C1A54159  33.793   5.835   6.450
 7506POPC   D2A54160  33.809   5.904   6.750
 7506POPC   C3A54161  33.785   5.827   7.050
 7506POPC   C4A54162  33.806   5.869   7.350
 7506POPC   C1B54163  33.699   6.085   6.450
 7506POPC   C2B54164  33.772   6.094   6.750
 7506POPC   C3B54165  33.721   6.156   7.050
 7506POPC   C4B54166  33.743   6.103   7.350
 7507POPC   NC354167  36.155   9.782   5.550
 7507POPC   PO454168  36.080   9.701   5.850
 7507POPC   GL154169  36.093   9.778   6.150
 7507POPC   GL254170  36.244   9.724   6.150
 7507POPC   C1A54171  36.149   9.705   6.450
 7507POPC   D2A54172  36.132   9.718   6.750
 7507POPC   C3A54173  36.161   9.739   7.050
 7507POPC   C4A54174  36.098   9.777   7.350
 7507POPC   C1B54175  36.378   9.614   6.450
 7507POPC   C2B54176  36.326   9.642   6.750
 7507POPC   C3B54177  36.303   9.638   7.050
 7507POPC   C4B54178  36.360   9.661   7.350
 7508POPC   NC354179  26.037   5.122   5.550
 7508POPC   PO454180  26.002   5.106   5.850
 7508POPC   GL154181  25.992   5.085   6.150
 7508POPC   GL254182  25.884   5.162   6.150
 7508POPC   C1A54183  26.087   5.093   6.450
 7508POPC   D2A54184  26.053   5.119   6.750
 7508POPC   C3A54185  26.015   5.051   7.050
 7508POPC   C4A54186  26.053   5.082   7.350
 7508POPC   C1B54187  25.773   5.155   6.450
 7508POPC   C2B54188  25.814   5.172   6.750
 7508POPC   C3B54189  25.768   5.182   7.050
 7508POPC   C4B54190  25.819   5.121   7.350
 7509POPC   NC354191  29.180   2.741   5.550
 7509POPC   PO454192  29.131   2.800   5.850
 7509POPC   GL154193  29.190   2.794   6.150
 7509POPC   GL254194  29.059   2.698   6.150
 7509POPC   C1A54195  29.119   2.723   6.450
 7509POPC   D2A54196  29.168   2.724   6.750
 7509POPC   C3A54197  29.123   2.753   7.050
 7509POPC   C4A54198  29.192   2.814   7.350
 7509POPC   C1B54199  28.887   2.751   6.450
 7509POPC   C2B54200  28.906   2.726   6.750
 7509POPC   C3B54201  28.892   2.748   7.050
 7509POPC   C4B54202  28.932   2.688   7.350
 7510POPC   NC354203   8.151  32.272   5.550
 7510POPC   PO454204   8.246  32.296   5.850
 7510POPC   GL154205   8.233  32.206   6.150
 7510POPC   GL254206   8.339  32.166   6.150
 7510POPC   C1A54207   8.147  32.249   6.450
 7510POPC   D2A54208   8.203  32.211   6.750
 7510POPC   C3A54209   8.156  32.232   7.050
 7510POPC   C4A54210   8.180  32.294   7.350
 7510POPC   C1B54211   8.455  32.123   6.450
 7510POPC   C2B54212   8.459  32.124   6.750
 7510POPC   C3B54213   8.451  32.162   7.050
 7510POPC   C4B54214   8.411  32.158   7.350
 7511POPC   NC354215  43.893  15.956   5.550
 7511POPC   PO454216  43.914  16.002   5.850
 7511POPC   GL154217  43.867  15.916   6.150
 7511POPC   GL254218  43.998  15.980   6.150
 7511POPC   C1A54219  43.884  15.918   6.450
 7511POPC   D2A54220  43.904  15.948   6.750
 7511POPC   C3A54221  43.911  15.954   7.050
 7511POPC   C4A54222  43.867  15.983   7.350
 7511POPC   C1B54223  44.147  15.960   6.450
 7511POPC   C2B54224  44.148  15.955   6.750
 7511POPC   C3B54225  44.149  15.954   7.050
 7511POPC   C4B54226  44.155  16.002   7.350
 7512POPC   NC354227  12.059   8.243   5.550
 7512POPC   PO454228  12.058   8.197   5.850
 7512POPC   GL154229  12.107   8.149   6.150
 7512POPC   GL254230  12.194   8.257   6.150
 7512POPC   C1A54231  12.064   8.213   6.450
 7512POPC   D2A54232  12.050   8.161   6.750
 7512POPC   C3A54233  12.049   8.150   7.050
 7512POPC   C4A54234  12.059   8.179   7.350
 7512POPC   C1B54235  12.285   8.259   6.450
 7512POPC   C2B54236  12.279   8.261   6.750
 7512POPC   C3B54237  12.300   8.262   7.050
 7512POPC   C4B54238  12.324   8.191   7.350
 7513POPC   NC354239  44.638   7.378   5.550
 7513POPC   PO454240  44.650   7.429   5.850
 7513POPC   GL154241  44.699   7.401   6.150
 7513POPC   GL254242  44.601   7.482   6.150
 7513POPC   C1A54243  44.705   7.397   6.450
 7513POPC   D2A54244  44.666   7.383   6.750
 7513POPC   C3A54245  44.650   7.390   7.050
 7513POPC   C4A54246  44.688   7.399   7.350
 7513POPC   C1B54247  44.443   7.633   6.450
 7513POPC   C2B54248  44.458   7.628   6.750
 7513POPC   C3B54249  44.486   7.559   7.050
 7513POPC   C4B54250  44.453   7.585   7.350
 7514POPC   NC354251  34.560  12.122   5.550
 7514POPC   PO454252  34.594  12.083   5.850
 7514POPC   GL154253  34.537  12.087   6.150
 7514POPC   GL254254  34.682  12.106   6.150
 7514POPC   C1A54255  34.583  12.039   6.450
 7514POPC   D2A54256  34.593  12.089   6.750
 7514POPC   C3A54257  34.624  12.095   7.050
 7514POPC   C4A54258  34.576  12.104   7.350
 7514POPC   C1B54259  34.734  12.212   6.450
 7514POPC   C2B54260  34.800  12.223   6.750
 7514POPC   C3B54261  34.774  12.187   7.050
 7514POPC   C4B54262  34.722  12.268   7.350
 7515POPC   NC354263  22.973  29.878   5.550
 7515POPC   PO454264  22.920  29.961   5.850
 7515POPC   GL154265  22.964  29.872   6.150
 7515POPC   GL254266  23.019  29.955   6.150
 7515POPC   C1A54267  22.921  29.948   6.450
 7515POPC   D2A54268  22.916  29.927   6.750
 7515POPC   C3A54269  22.983  29.962   7.050
 7515POPC   C4A54270  22.939  29.882   7.350
 7515POPC   C1B54271  23.204  29.919   6.450
 7515POPC   C2B54272  23.164  29.900   6.750
 7515POPC   C3B54273  23.191  29.939   7.050
 7515POPC   C4B54274  23.192  29.883   7.350
 7516POPC   NC354275  42.310  18.302   5.550
 7516POPC   PO454276  42.298  18.287   5.850
 7516POPC   GL154277  42.309  18.322   6.150
 7516POPC   GL254278  42.437  18.248   6.150
 7516POPC   C1A54279  42.297  18.237   6.450
 7516POPC   D2A54280  42.342  18.270   6.750
 7516POPC   C3A54281  42.301  18.278   7.050
 7516POPC   C4A54282  42.295  18.269   7.350
 7516POPC   C1B54283  42.513  18.169   6.450
 7516POPC   C2B54284  42.557  18.126   6.750
 7516POPC   C3B54285  42.532  18.094   7.050
 7516POPC   C4B54286  42.527  18.118   7.350
 7517POPC   NC354287  33.071   2.797   5.550
 7517POPC   PO454288  32.987   2.734   5.850
 7517POPC   GL154289  33.052   2.804   6.150
 7517POPC   GL254290  33.065   2.876   6.150
 7517POPC   C1A54291  33.015   2.716   6.450
 7517POPC   D2A54292  33.017   2.737   6.750
 7517POPC   C3A54293  33.052   2.771   7.050
 7517POPC   C4A54294  33.052   2.748   7.350
 7517POPC   C1B54295  33.115   2.951   6.450
 7517POPC   C2B54296  33.187   2.997   6.750
 7517POPC   C3B54297  33.121   3.024   7.050
 7517POPC   C4B54298  33.140   2.983   7.350
 7518POPC   NC354299   5.883   8.924   5.550
 7518POPC   PO454300   5.918   9.014   5.850
 7518POPC   GL154301   5.886   8.932   6.150
 7518POPC   GL254302   5.980   9.044   6.150
 7518POPC   C1A54303   5.857   8.965   6.450
 7518POPC   D2A54304   5.850   8.990   6.750
 7518POPC   C3A54305   5.886   8.988   7.050
 7518POPC   C4A54306   5.876   8.951   7.350
 7518POPC   C1B54307   5.994   9.129   6.450
 7518POPC   C2B54308   5.995   9.160   6.750
 7518POPC   C3B54309   6.050   9.192   7.050
 7518POPC   C4B54310   6.014   9.209   7.350
 7519POPC   NC354311  22.161  22.193   5.550
 7519POPC   PO454312  22.178  22.168   5.850
 7519POPC   GL154313  22.159  22.158   6.150
 7519POPC   GL254314  22.083  22.186   6.150
 7519POPC   C1A54315  22.161  22.127   6.450
 7519POPC   D2A54316  22.137  22.125   6.750
 7519POPC   C3A54317  22.137  22.182   7.050
 7519POPC   C4A54318  22.194  22.141   7.350
 7519POPC   C1B54319  21.985  22.314   6.450
 7519POPC   C2B54320  21.958  22.293   6.750
 7519POPC   C3B54321  21.973  22.259   7.050
 7519POPC   C4B54322  21.976  22.310   7.350
 7520POPC   NC354323  38.468  15.997   5.550
 7520POPC   PO454324  38.428  15.911   5.850
 7520POPC   GL154325  38.426  15.947   6.150
 7520POPC   GL254326  38.317  15.966   6.150
 7520POPC   C1A54327  38.425  15.921   6.450
 7520POPC   D2A54328  38.496  15.983   6.750
 7520POPC   C3A54329  38.495  15.998   7.050
 7520POPC   C4A54330  38.421  15.974   7.350
 7520POPC   C1B54331  38.213  15.879   6.450
 7520POPC   C2B54332  38.161  15.945   6.750
 7520POPC   C3B54333  38.248  15.915   7.050
 7520POPC   C4B54334  38.204  15.894   7.350
 7521POPC   NC354335   8.163   6.666   5.550
 7521POPC   PO454336   8.226   6.640   5.850
 7521POPC   GL154337   8.231   6.609   6.150
 7521POPC   GL254338   8.268   6.712   6.150
 7521POPC   C1A54339   8.196   6.643   6.450
 7521POPC   D2A54340   8.156   6.601   6.750
 7521POPC   C3A54341   8.231   6.619   7.050
 7521POPC   C4A54342   8.196   6.668   7.350
 7521POPC   C1B54343   8.393   6.872   6.450
 7521POPC   C2B54344   8.307   6.888   6.750
 7521POPC   C3B54345   8.374   6.855   7.050
 7521POPC   C4B54346   8.328   6.834   7.350
 7522POPC   NC354347  13.596  26.769   5.550
 7522POPC   PO454348  13.642  26.849   5.850
 7522POPC   GL154349  13.665  26.782   6.150
 7522POPC   GL254350  13.643  26.718   6.150
 7522POPC   C1A54351  13.658  26.813   6.450
 7522POPC   D2A54352  13.618  26.795   6.750
 7522POPC   C3A54353  13.620  26.842   7.050
 7522POPC   C4A54354  13.615  26.835   7.350
 7522POPC   C1B54355  13.616  26.589   6.450
 7522POPC   C2B54356  13.618  26.590   6.750
 7522POPC   C3B54357  13.646  26.562   7.050
 7522POPC   C4B54358  13.638  26.554   7.350
 7523POPC   NC354359  30.696  42.374   5.550
 7523POPC   PO454360  30.738  42.329   5.850
 7523POPC   GL154361  30.703  42.303   6.150
 7523POPC   GL254362  30.601  42.387   6.150
 7523POPC   C1A54363  30.697  42.311   6.450
 7523POPC   D2A54364  30.688  42.335   6.750
 7523POPC   C3A54365  30.739  42.362   7.050
 7523POPC   C4A54366  30.702  42.300   7.350
 7523POPC   C1B54367  30.467  42.438   6.450
 7523POPC   C2B54368  30.492  42.404   6.750
 7523POPC   C3B54369  30.488  42.354   7.050
 7523POPC   C4B54370  30.482  42.449   7.350
 7524POPC   NC354371  15.150   3.517   5.550
 7524POPC   PO454372  15.182   3.566   5.850
 7524POPC   GL154373  15.216   3.516   6.150
 7524POPC   GL254374  15.183   3.635   6.150
 7524POPC   C1A54375  15.214   3.559   6.450
 7524POPC   D2A54376  15.202   3.541   6.750
 7524POPC   C3A54377  15.139   3.521   7.050
 7524POPC   C4A54378  15.147   3.494   7.350
 7524POPC   C1B54379  15.149   3.777   6.450
 7524POPC   C2B54380  15.179   3.806   6.750
 7524POPC   C3B54381  15.236   3.807   7.050
 7524POPC   C4B54382  15.195   3.759   7.350
 7525POPC   NC354383  39.193  33.003   5.550
 7525POPC   PO454384  39.237  32.976   5.850
 7525POPC   GL154385  39.250  33.029   6.150
 7525POPC   GL254386  39.281  32.873   6.150
 7525POPC   C1A54387  39.223  33.050   6.450
 7525POPC   D2A54388  39.204  32.988   6.750
 7525POPC   C3A54389  39.258  33.038   7.050
 7525POPC   C4A54390  39.190  32.977   7.350
 7525POPC   C1B54391  39.313  32.806   6.450
 7525POPC   C2B54392  39.396  32.813   6.750
 7525POPC   C3B54393  39.349  32.848   7.050
 7525POPC   C4B54394  39.360  32.787   7.350
 7526POPC   NC354395   8.245  28.379   5.550
 7526POPC   PO454396   8.156  28.403   5.850
 7526POPC   GL154397   8.170  28.352   6.150
 7526POPC   GL254398   8.279  28.381   6.150
 7526POPC   C1A54399   8.219  28.335   6.450
 7526POPC   D2A54400   8.148  28.381   6.750
 7526POPC   C3A54401   8.179  28.416   7.050
 7526POPC   C4A54402   8.151  28.340   7.350
 7526POPC   C1B54403   8.456  28.459   6.450
 7526POPC   C2B54404   8.444  28.495   6.750
 7526POPC   C3B54405   8.374  28.523   7.050
 7526POPC   C4B54406   8.375  28.460   7.350
 7527POPC   NC354407  13.651   4.355   5.550
 7527POPC   PO454408  13.586   4.288   5.850
 7527POPC   GL154409  13.630   4.280   6.150
 7527POPC   GL254410  13.579   4.447   6.150
 7527POPC   C1A54411  13.598   4.281   6.450
 7527POPC   D2A54412  13.658   4.356   6.750
 7527POPC   C3A54413  13.584   4.285   7.050
 7527POPC   C4A54414  13.662   4.362   7.350
 7527POPC   C1B54415  13.561   4.548   6.450
 7527POPC   C2B54416  13.591   4.546   6.750
 7527POPC   C3B54417  13.559   4.557   7.050
 7527POPC   C4B54418  13.592   4.583   7.350
 7528POPC   NC354419   8.980  22.906   5.550
 7528POPC   PO454420   9.009  22.959   5.850
 7528POPC   GL154421   8.948  22.983   6.150
 7528POPC   GL254422   9.049  22.831   6.150
 7528POPC   C1A54423   8.982  22.954   6.450
 7528POPC   D2A54424   8.923  22.981   6.750
 7528POPC   C3A54425   8.975  22.932   7.050
 7528POPC   C4A54426   9.004  22.892   7.350
 7528POPC   C1B54427   9.096  22.683   6.450
 7528POPC   C2B54428   9.118  22.687   6.750
 7528POPC   C3B54429   9.113  22.746   7.050
 7528POPC   C4B54430   9.070  22.742   7.350
 7529POPC   NC354431  18.323   0.484   5.550
 7529POPC   PO454432  18.282   0.402   5.850
 7529POPC   GL154433  18.326   0.412   6.150
 7529POPC   GL254434  18.308   0.355   6.150
 7529POPC   C1A54435  18.263   0.464   6.450
 7529POPC   D2A54436  18.235   0.408   6.750
 7529POPC   C3A54437  18.258   0.409   7.050
 7529POPC   C4A54438  18.251   0.472   7.350
 7529POPC   C1B54439  18.373   0.194   6.450
 7529POPC   C2B54440  18.386   0.197   6.750
 7529POPC   C3B54441  18.338   0.152   7.050
 7529POPC   C4B54442  18.392   0.149   7.350
 7530POPC   NC354443  21.361   3.573   5.550
 7530POPC   PO454444  21.344   3.516   5.850
 7530POPC   GL154445  21.399   3.537   6.150
 7530POPC   GL254446  21.462   3.579   6.150
 7530POPC   C1A54447  21.400   3.570   6.450
 7530POPC   D2A54448  21.338   3.533   6.750
 7530POPC   C3A54449  21.381   3.574   7.050
 7530POPC   C4A54450  21.400   3.558   7.350
 7530POPC   C1B54451  21.614   3.624   6.450
 7530POPC   C2B54452  21.649   3.656   6.750
 7530POPC   C3B54453  21.636   3.687   7.050
 7530POPC   C4B54454  21.600   3.652   7.350
 7531POPC   NC354455  37.642  39.233   5.550
 7531POPC   PO454456  37.698  39.272   5.850
 7531POPC   GL154457  37.636  39.232   6.150
 7531POPC   GL254458  37.601  39.302   6.150
 7531POPC   C1A54459  37.636  39.211   6.450
 7531POPC   D2A54460  37.679  39.202   6.750
 7531POPC   C3A54461  37.700  39.258   7.050
 7531POPC   C4A54462  37.659  39.191   7.350
 7531POPC   C1B54463  37.448  39.291   6.450
 7531POPC   C2B54464  37.405  39.238   6.750
 7531POPC   C3B54465  37.432  39.301   7.050
 7531POPC   C4B54466  37.398  39.266   7.350
 7532POPC   NC354467  34.575  18.254   5.550
 7532POPC   PO454468  34.614  18.275   5.850
 7532POPC   GL154469  34.530  18.301   6.150
 7532POPC   GL254470  34.538  18.414   6.150
 7532POPC   C1A54471  34.585  18.286   6.450
 7532POPC   D2A54472  34.551  18.294   6.750
 7532POPC   C3A54473  34.560  18.331   7.050
 7532POPC   C4A54474  34.526  18.323   7.350
 7532POPC   C1B54475  34.537  18.530   6.450
 7532POPC   C2B54476  34.553  18.530   6.750
 7532POPC   C3B54477  34.563  18.555   7.050
 7532POPC   C4B54478  34.493  18.509   7.350
 7533POPC   NC354479  26.079  22.170   5.550
 7533POPC   PO454480  26.038  22.201   5.850
 7533POPC   GL154481  26.010  22.164   6.150
 7533POPC   GL254482  26.188  22.067   6.150
 7533POPC   C1A54483  26.049  22.139   6.450
 7533POPC   D2A54484  26.016  22.135   6.750
 7533POPC   C3A54485  26.005  22.190   7.050
 7533POPC   C4A54486  26.090  22.175   7.350
 7533POPC   C1B54487  26.260  22.019   6.450
 7533POPC   C2B54488  26.295  22.046   6.750
 7533POPC   C3B54489  26.283  22.065   7.050
 7533POPC   C4B54490  26.281  22.021   7.350
 7534POPC   NC354491  29.889  33.763   5.550
 7534POPC   PO454492  29.950  33.763   5.850
 7534POPC   GL154493  29.890  33.794   6.150
 7534POPC   GL254494  29.928  33.893   6.150
 7534POPC   C1A54495  29.951  33.849   6.450
 7534POPC   D2A54496  29.948  33.840   6.750
 7534POPC   C3A54497  29.902  33.806   7.050
 7534POPC   C4A54498  29.903  33.757   7.350
 7534POPC   C1B54499  29.859  34.018   6.450
 7534POPC   C2B54500  29.933  34.025   6.750
 7534POPC   C3B54501  29.930  34.080   7.050
 7534POPC   C4B54502  29.934  34.022   7.350
 7535POPC   NC354503  39.183  21.352   5.550
 7535POPC   PO454504  39.182  21.381   5.850
 7535POPC   GL154505  39.237  21.404   6.150
 7535POPC   GL254506  39.321  21.379   6.150
 7535POPC   C1A54507  39.199  21.436   6.450
 7535POPC   D2A54508  39.203  21.426   6.750
 7535POPC   C3A54509  39.200  21.337   7.050
 7535POPC   C4A54510  39.259  21.346   7.350
 7535POPC   C1B54511  39.519  21.389   6.450
 7535POPC   C2B54512  39.440  21.329   6.750
 7535POPC   C3B54513  39.477  21.387   7.050
 7535POPC   C4B54514  39.464  21.358   7.350
 7536POPC   NC354515  29.141   9.781   5.550
 7536POPC   PO454516  29.145   9.781   5.850
 7536POPC   GL154517  29.178   9.770   6.150
 7536POPC   GL254518  29.174   9.585   6.150
 7536POPC   C1A54519  29.156   9.794   6.450
 7536POPC   D2A54520  29.188   9.791   6.750
 7536POPC   C3A54521  29.144   9.716   7.050
 7536POPC   C4A54522  29.178   9.700   7.350
 7536POPC   C1B54523  29.152   9.459   6.450
 7536POPC   C2B54524  29.111   9.496   6.750
 7536POPC   C3B54525  29.162   9.519   7.050
 7536POPC   C4B54526  29.158   9.496   7.350
 7537POPC   NC354527  20.642  26.011   5.550
 7537POPC   PO454528  20.655  26.079   5.850
 7537POPC   GL154529  20.654  26.026   6.150
 7537POPC   GL254530  20.698  25.996   6.150
 7537POPC   C1A54531  20.641  26.019   6.450
 7537POPC   D2A54532  20.594  26.039   6.750
 7537POPC   C3A54533  20.565  26.060   7.050
 7537POPC   C4A54534  20.565  26.010   7.350
 7537POPC   C1B54535  20.860  26.017   6.450
 7537POPC   C2B54536  20.892  25.944   6.750
 7537POPC   C3B54537  20.895  25.970   7.050
 7537POPC   C4B54538  20.857  25.961   7.350
 7538POPC   NC354539  43.913  24.481   5.550
 7538POPC   PO454540  43.870  24.484   5.850
 7538POPC   GL154541  43.918  24.485   6.150
 7538POPC   GL254542  43.830  24.362   6.150
 7538POPC   C1A54543  43.896  24.520   6.450
 7538POPC   D2A54544  43.864  24.529   6.750
 7538POPC   C3A54545  43.923  24.491   7.050
 7538POPC   C4A54546  43.884  24.509   7.350
 7538POPC   C1B54547  43.764  24.217   6.450
 7538POPC   C2B54548  43.784  24.255   6.750
 7538POPC   C3B54549  43.849  24.268   7.050
 7538POPC   C4B54550  43.854  24.258   7.350
 7539POPC   NC354551  34.587   6.641   5.550
 7539POPC   PO454552  34.610   6.603   5.850
 7539POPC   GL154553  34.578   6.613   6.150
 7539POPC   GL254554  34.684   6.703   6.150
 7539POPC   C1A54555  34.527   6.596   6.450
 7539POPC   D2A54556  34.536   6.625   6.750
 7539POPC   C3A54557  34.530   6.675   7.050
 7539POPC   C4A54558  34.619   6.596   7.350
 7539POPC   C1B54559  34.850   6.671   6.450
 7539POPC   C2B54560  34.811   6.706   6.750
 7539POPC   C3B54561  34.842   6.732   7.050
 7539POPC   C4B54562  34.821   6.696   7.350
 7540POPC   NC354563  31.516  31.507   5.550
 7540POPC   PO454564  31.440  31.425   5.850
 7540POPC   GL154565  31.435  31.474   6.150
 7540POPC   GL254566  31.494  31.314   6.150
 7540POPC   C1A54567  31.450  31.459   6.450
 7540POPC   D2A54568  31.502  31.509   6.750
 7540POPC   C3A54569  31.465  31.450   7.050
 7540POPC   C4A54570  31.445  31.440   7.350
 7540POPC   C1B54571  31.579  31.241   6.450
 7540POPC   C2B54572  31.553  31.222   6.750
 7540POPC   C3B54573  31.521  31.200   7.050
 7540POPC   C4B54574  31.488  31.244   7.350
 7541POPC   NC354575  11.344  39.238   5.550
 7541POPC   PO454576  11.315  39.236   5.850
 7541POPC   GL154577  11.311  39.268   6.150
 7541POPC   GL254578  11.222  39.126   6.150
 7541POPC   C1A54579  11.298  39.190   6.450
 7541POPC   D2A54580  11.345  39.243   6.750
 7541POPC   C3A54581  11.266  39.223   7.050
 7541POPC   C4A54582  11.348  39.258   7.350
 7541POPC   C1B54583  11.086  39.104   6.450
 7541POPC   C2B54584  11.109  39.106   6.750
 7541POPC   C3B54585  11.092  39.118   7.050
 7541POPC   C4B54586  11.134  39.131   7.350
 7542POPC   NC354587  13.591  33.040   5.550
 7542POPC   PO454588  13.612  32.984   5.850
 7542POPC   GL154589  13.594  33.050   6.150
 7542POPC   GL254590  13.666  33.102   6.150
 7542POPC   C1A54591  13.582  32.998   6.450
 7542POPC   D2A54592  13.653  32.999   6.750
 7542POPC   C3A54593  13.615  32.989   7.050
 7542POPC   C4A54594  13.619  32.994   7.350
 7542POPC   C1B54595  13.608  33.308   6.450
 7542POPC   C2B54596  13.605  33.241   6.750
 7542POPC   C3B54597  13.650  33.261   7.050
 7542POPC   C4B54598  13.572  33.316   7.350
 7543POPC   NC354599  12.812  20.607   5.550
 7543POPC   PO454600  12.851  20.561   5.850
 7543POPC   GL154601  12.864  20.621   6.150
 7543POPC   GL254602  12.778  20.714   6.150
 7543POPC   C1A54603  12.899  20.638   6.450
 7543POPC   D2A54604  12.865  20.582   6.750
 7543POPC   C3A54605  12.858  20.625   7.050
 7543POPC   C4A54606  12.888  20.624   7.350
 7543POPC   C1B54607  12.643  20.779   6.450
 7543POPC   C2B54608  12.638  20.769   6.750
 7543POPC   C3B54609  12.614  20.727   7.050
 7543POPC   C4B54610  12.646  20.730   7.350
 7544POPC   NC354611  12.089  23.705   5.550
 7544POPC   PO454612  12.038  23.761   5.850
 7544POPC   GL154613  12.044  23.674   6.150
 7544POPC   GL254614  12.156  23.652   6.150
 7544POPC   C1A54615  12.054  23.734   6.450
 7544POPC   D2A54616  12.085  23.709   6.750
 7544POPC   C3A54617  12.078  23.713   7.050
 7544POPC   C4A54618  12.066  23.722   7.350
 7544POPC   C1B54619  12.249  23.588   6.450
 7544POPC   C2B54620  12.282  23.588   6.750
 7544POPC   C3B54621  12.231  23.571   7.050
 7544POPC   C4B54622  12.271  23.568   7.350
 7545POPC   NC354623  26.085  39.996   5.550
 7545POPC   PO454624  26.039  39.972   5.850
 7545POPC   GL154625  26.040  40.003   6.150
 7545POPC   GL254626  26.029  39.939   6.150
 7545POPC   C1A54627  26.024  40.042   6.450
 7545POPC   D2A54628  26.069  40.018   6.750
 7545POPC   C3A54629  26.057  39.960   7.050
 7545POPC   C4A54630  25.998  39.958   7.350
 7545POPC   C1B54631  25.974  39.801   6.450
 7545POPC   C2B54632  25.987  39.744   6.750
 7545POPC   C3B54633  25.967  39.742   7.050
 7545POPC   C4B54634  25.995  39.799   7.350
 7546POPC   NC354635   3.531   7.375   5.550
 7546POPC   PO454636   3.498   7.411   5.850
 7546POPC   GL154637   3.506   7.457   6.150
 7546POPC   GL254638   3.421   7.477   6.150
 7546POPC   C1A54639   3.541   7.378   6.450
 7546POPC   D2A54640   3.534   7.442   6.750
 7546POPC   C3A54641   3.545   7.465   7.050
 7546POPC   C4A54642   3.590   7.442   7.350
 7546POPC   C1B54643   3.361   7.494   6.450
 7546POPC   C2B54644   3.318   7.573   6.750
 7546POPC   C3B54645   3.276   7.546   7.050
 7546POPC   C4B54646   3.363   7.567   7.350
 7547POPC   NC354647  44.646   9.794   5.550
 7547POPC   PO454648  44.710   9.751   5.850
 7547POPC   GL154649  44.672   9.707   6.150
 7547POPC   GL254650  44.534   9.707   6.150
 7547POPC   C1A54651  44.673   9.719   6.450
 7547POPC   D2A54652  44.642   9.732   6.750
 7547POPC   C3A54653  44.614   9.705   7.050
 7547POPC   C4A54654  44.651   9.764   7.350
 7547POPC   C1B54655  44.428   9.687   6.450
 7547POPC   C2B54656  44.452   9.669   6.750
 7547POPC   C3B54657  44.393   9.728   7.050
 7547POPC   C4B54658  44.430   9.715   7.350
 7548POPC   NC354659  22.142   5.869   5.550
 7548POPC   PO454660  22.137   5.885   5.850
 7548POPC   GL154661  22.144   5.825   6.150
 7548POPC   GL254662  22.072   5.929   6.150
 7548POPC   C1A54663  22.208   5.856   6.450
 7548POPC   D2A54664  22.122   5.834   6.750
 7548POPC   C3A54665  22.114   5.847   7.050
 7548POPC   C4A54666  22.190   5.914   7.350
 7548POPC   C1B54667  21.955   6.022   6.450
 7548POPC   C2B54668  22.014   6.042   6.750
 7548POPC   C3B54669  21.932   6.066   7.050
 7548POPC   C4B54670  21.946   6.032   7.350
 7549POPC   NC354671   0.451  16.684   5.550
 7549POPC   PO454672   0.395  16.756   5.850
 7549POPC   GL154673   0.426  16.772   6.150
 7549POPC   GL254674   0.503  16.790   6.150
 7549POPC   C1A54675   0.390  16.684   6.450
 7549POPC   D2A54676   0.458  16.699   6.750
 7549POPC   C3A54677   0.447  16.688   7.050
 7549POPC   C4A54678   0.402  16.771   7.350
 7549POPC   C1B54679   0.549  16.978   6.450
 7549POPC   C2B54680   0.612  16.931   6.750
 7549POPC   C3B54681   0.551  16.965   7.050
 7549POPC   C4B54682   0.578  16.948   7.350
 7550POPC   NC354683  26.816  17.541   5.550
 7550POPC   PO454684  26.768  17.474   5.850
 7550POPC   GL154685  26.794  17.499   6.150
 7550POPC   GL254686  26.878  17.405   6.150
 7550POPC   C1A54687  26.848  17.493   6.450
 7550POPC   D2A54688  26.856  17.478   6.750
 7550POPC   C3A54689  26.808  17.491   7.050
 7550POPC   C4A54690  26.849  17.489   7.350
 7550POPC   C1B54691  26.867  17.224   6.450
 7550POPC   C2B54692  26.841  17.257   6.750
 7550POPC   C3B54693  26.883  17.286   7.050
 7550POPC   C4B54694  26.918  17.300   7.350
 7551POPC   NC354695   2.015  13.671   5.550
 7551POPC   PO454696   1.994  13.656   5.850
 7551POPC   GL154697   2.028  13.672   6.150
 7551POPC   GL254698   1.922  13.630   6.150
 7551POPC   C1A54699   2.029  13.585   6.450
 7551POPC   D2A54700   1.956  13.672   6.750
 7551POPC   C3A54701   1.964  13.653   7.050
 7551POPC   C4A54702   1.974  13.657   7.350
 7551POPC   C1B54703   1.708  13.502   6.450
 7551POPC   C2B54704   1.723  13.569   6.750
 7551POPC   C3B54705   1.766  13.510   7.050
 7551POPC   C4B54706   1.789  13.537   7.350
 7552POPC   NC354707  22.120  13.660   5.550
 7552POPC   PO454708  22.117  13.669   5.850
 7552POPC   GL154709  22.198  13.670   6.150
 7552POPC   GL254710  22.015  13.522   6.150
 7552POPC   C1A54711  22.116  13.599   6.450
 7552POPC   D2A54712  22.117  13.609   6.750
 7552POPC   C3A54713  22.142  13.618   7.050
 7552POPC   C4A54714  22.141  13.581   7.350
 7552POPC   C1B54715  21.901  13.459   6.450
 7552POPC   C2B54716  21.954  13.550   6.750
 7552POPC   C3B54717  21.935  13.481   7.050
 7552POPC   C4B54718  21.946  13.550   7.350
 7553POPC   NC354719   0.480  29.177   5.550
 7553POPC   PO454720   0.444  29.194   5.850
 7553POPC   GL154721   0.433  29.149   6.150
 7553POPC   GL254722   0.408  29.004   6.150
 7553POPC   C1A54723   0.406  29.157   6.450
 7553POPC   D2A54724   0.400  29.180   6.750
 7553POPC   C3A54725   0.464  29.147   7.050
 7553POPC   C4A54726   0.403  29.098   7.350
 7553POPC   C1B54727   0.422  28.868   6.450
 7553POPC   C2B54728   0.485  28.933   6.750
 7553POPC   C3B54729   0.406  28.928   7.050
 7553POPC   C4B54730   0.419  28.866   7.350
 7554POPC   NC354731   7.461   9.769   5.550
 7554POPC   PO454732   7.448   9.791   5.850
 7554POPC   GL154733   7.453   9.777   6.150
 7554POPC   GL254734   7.572   9.660   6.150
 7554POPC   C1A54735   7.438   9.742   6.450
 7554POPC   D2A54736   7.438   9.721   6.750
 7554POPC   C3A54737   7.392   9.780   7.050
 7554POPC   C4A54738   7.428   9.713   7.350
 7554POPC   C1B54739   7.647   9.569   6.450
 7554POPC   C2B54740   7.602   9.561   6.750
 7554POPC   C3B54741   7.633   9.584   7.050
 7554POPC   C4B54742   7.661   9.633   7.350
 7555POPC   NC354743  15.219  20.599   5.550
 7555POPC   PO454744  15.175  20.621   5.850
 7555POPC   GL154745  15.183  20.599   6.150
 7555POPC   GL254746  15.264  20.654   6.150
 7555POPC   C1A54747  15.137  20.622   6.450
 7555POPC   D2A54748  15.161  20.631   6.750
 7555POPC   C3A54749  15.194  20.620   7.050
 7555POPC   C4A54750  15.187  20.655   7.350
 7555POPC   C1B54751  15.345  20.812   6.450
 7555POPC   C2B54752  15.375  20.768   6.750
 7555POPC   C3B54753  15.389  20.773   7.050
 7555POPC   C4B54754  15.327  20.726   7.350
 7556POPC   NC354755  26.067  22.929   5.550
 7556POPC   PO454756  26.069  22.938   5.850
 7556POPC   GL154757  26.079  22.983   6.150
 7556POPC   GL254758  26.123  22.857   6.150
 7556POPC   C1A54759  26.015  22.928   6.450
 7556POPC   D2A54760  26.040  22.959   6.750
 7556POPC   C3A54761  26.023  22.894   7.050
 7556POPC   C4A54762  26.035  22.962   7.350
 7556POPC   C1B54763  26.138  22.713   6.450
 7556POPC   C2B54764  26.119  22.712   6.750
 7556POPC   C3B54765  26.179  22.693   7.050
 7556POPC   C4B54766  26.207  22.696   7.350
 7557POPC   NC354767   0.478  43.113   5.550
 7557POPC   PO454768   0.461  43.151   5.850
 7557POPC   GL154769   0.460  43.103   6.150
 7557POPC   GL254770   0.507  43.062   6.150
 7557POPC   C1A54771   0.460  43.132   6.450
 7557POPC   D2A54772   0.431  43.072   6.750
 7557POPC   C3A54773   0.413  43.143   7.050
 7557POPC   C4A54774   0.413  43.067   7.350
 7557POPC   C1B54775   0.639  42.913   6.450
 7557POPC   C2B54776   0.648  42.957   6.750
 7557POPC   C3B54777   0.633  42.925   7.050
 7557POPC   C4B54778   0.581  42.979   7.350
 7558POPC   NC354779   3.586  16.730   5.550
 7558POPC   PO454780   3.567  16.729   5.850
 7558POPC   GL154781   3.580  16.692   6.150
 7558POPC   GL254782   3.400  16.817   6.150
 7558POPC   C1A54783   3.556  16.768   6.450
 7558POPC   D2A54784   3.523  16.774   6.750
 7558POPC   C3A54785   3.580  16.751   7.050
 7558POPC   C4A54786   3.546  16.742   7.350
 7558POPC   C1B54787   3.392  16.899   6.450
 7558POPC   C2B54788   3.365  16.878   6.750
 7558POPC   C3B54789   3.381  16.909   7.050
 7558POPC   C4B54790   3.331  16.849   7.350
 7559POPC   NC354791  27.560  41.541   5.550
 7559POPC   PO454792  27.626  41.572   5.850
 7559POPC   GL154793  27.605  41.576   6.150
 7559POPC   GL254794  27.523  41.499   6.150
 7559POPC   C1A54795  27.633  41.509   6.450
 7559POPC   D2A54796  27.626  41.510   6.750
 7559POPC   C3A54797  27.610  41.556   7.050
 7559POPC   C4A54798  27.585  41.560   7.350
 7559POPC   C1B54799  27.477  41.363   6.450
 7559POPC   C2B54800  27.462  41.373   6.750
 7559POPC   C3B54801  27.498  41.305   7.050
 7559POPC   C4B54802  27.510  41.306   7.350
 7560POPC   NC354803   1.985   8.923   5.550
 7560POPC   PO454804   1.963   8.929   5.850
 7560POPC   GL154805   1.984   9.007   6.150
 7560POPC   GL254806   1.851   9.010   6.150
 7560POPC   C1A54807   2.027   8.938   6.450
 7560POPC   D2A54808   2.022   9.008   6.750
 7560POPC   C3A54809   2.033   8.933   7.050
 7560POPC   C4A54810   2.031   8.989   7.350
 7560POPC   C1B54811   1.782   9.154   6.450
 7560POPC   C2B54812   1.845   9.191   6.750
 7560POPC   C3B54813   1.815   9.099   7.050
 7560POPC   C4B54814   1.800   9.187   7.350
 7561POPC   NC354815   1.941  18.323   5.550
 7561POPC   PO454816   2.034  18.250   5.850
 7561POPC   GL154817   1.941  18.305   6.150
 7561POPC   GL254818   1.868  18.180   6.150
 7561POPC   C1A54819   2.019  18.286   6.450
 7561POPC   D2A54820   1.966  18.277   6.750
 7561POPC   C3A54821   1.961  18.305   7.050
 7561POPC   C4A54822   2.019  18.262   7.350
 7561POPC   C1B54823   1.789  18.178   6.450
 7561POPC   C2B54824   1.828  18.092   6.750
 7561POPC   C3B54825   1.783  18.164   7.050
 7561POPC   C4B54826   1.778  18.115   7.350
 7562POPC   NC354827  26.858  16.717   5.550
 7562POPC   PO454828  26.826  16.688   5.850
 7562POPC   GL154829  26.818  16.760   6.150
 7562POPC   GL254830  26.710  16.727   6.150
 7562POPC   C1A54831  26.830  16.735   6.450
 7562POPC   D2A54832  26.859  16.745   6.750
 7562POPC   C3A54833  26.777  16.689   7.050
 7562POPC   C4A54834  26.778  16.702   7.350
 7562POPC   C1B54835  26.547  16.721   6.450
 7562POPC   C2B54836  26.561  16.765   6.750
 7562POPC   C3B54837  26.556  16.730   7.050
 7562POPC   C4B54838  26.548  16.734   7.350
 7563POPC   NC354839   4.354  15.225   5.550
 7563POPC   PO454840   4.347  15.137   5.850
 7563POPC   GL154841   4.296  15.154   6.150
 7563POPC   GL254842   4.381  15.063   6.150
 7563POPC   C1A54843   4.358  15.206   6.450
 7563POPC   D2A54844   4.305  15.215   6.750
 7563POPC   C3A54845   4.359  15.173   7.050
 7563POPC   C4A54846   4.268  15.202   7.350
 7563POPC   C1B54847   4.535  15.044   6.450
 7563POPC   C2B54848   4.496  14.973   6.750
 7563POPC   C3B54849   4.508  15.024   7.050
 7563POPC   C4B54850   4.474  15.038   7.350
 7564POPC   NC354851  29.136   2.031   5.550
 7564POPC   PO454852  29.157   1.993   5.850
 7564POPC   GL154853  29.136   1.988   6.150
 7564POPC   GL254854  29.263   2.019   6.150
 7564POPC   C1A54855  29.143   2.006   6.450
 7564POPC   D2A54856  29.152   2.022   6.750
 7564POPC   C3A54857  29.114   2.025   7.050
 7564POPC   C4A54858  29.109   1.951   7.350
 7564POPC   C1B54859  29.355   1.990   6.450
 7564POPC   C2B54860  29.412   2.018   6.750
 7564POPC   C3B54861  29.346   2.048   7.050
 7564POPC   C4B54862  29.403   1.978   7.350
 7565POPC   NC354863  37.685  16.781   5.550
 7565POPC   PO454864  37.641  16.714   5.850
 7565POPC   GL154865  37.711  16.749   6.150
 7565POPC   GL254866  37.569  16.756   6.150
 7565POPC   C1A54867  37.721  16.764   6.450
 7565POPC   D2A54868  37.700  16.761   6.750
 7565POPC   C3A54869  37.710  16.755   7.050
 7565POPC   C4A54870  37.722  16.686   7.350
 7565POPC   C1B54871  37.432  16.874   6.450
 7565POPC   C2B54872  37.517  16.818   6.750
 7565POPC   C3B54873  37.490  16.874   7.050
 7565POPC   C4B54874  37.455  16.833   7.350
 7566POPC   NC354875  14.366  22.981   5.550
 7566POPC   PO454876  14.392  22.911   5.850
 7566POPC   GL154877  14.359  22.889   6.150
 7566POPC   GL254878  14.355  22.829   6.150
 7566POPC   C1A54879  14.449  22.898   6.450
 7566POPC   D2A54880  14.421  22.949   6.750
 7566POPC   C3A54881  14.365  22.935   7.050
 7566POPC   C4A54882  14.438  22.925   7.350
 7566POPC   C1B54883  14.425  22.729   6.450
 7566POPC   C2B54884  14.393  22.644   6.750
 7566POPC   C3B54885  14.408  22.670   7.050
 7566POPC   C4B54886  14.377  22.719   7.350
 7567POPC   NC354887  24.467  37.706   5.550
 7567POPC   PO454888  24.531  37.714   5.850
 7567POPC   GL154889  24.479  37.633   6.150
 7567POPC   GL254890  24.374  37.558   6.150
 7567POPC   C1A54891  24.455  37.659   6.450
 7567POPC   D2A54892  24.538  37.684   6.750
 7567POPC   C3A54893  24.453  37.719   7.050
 7567POPC   C4A54894  24.498  37.698   7.350
 7567POPC   C1B54895  24.323  37.450   6.450
 7567POPC   C2B54896  24.303  37.458   6.750
 7567POPC   C3B54897  24.327  37.446   7.050
 7567POPC   C4B54898  24.354  37.514   7.350
 7568POPC   NC354899  28.336  19.884   5.550
 7568POPC   PO454900  28.329  19.852   5.850
 7568POPC   GL154901  28.324  19.869   6.150
 7568POPC   GL254902  28.323  19.994   6.150
 7568POPC   C1A54903  28.332  19.866   6.450
 7568POPC   D2A54904  28.351  19.854   6.750
 7568POPC   C3A54905  28.400  19.791   7.050
 7568POPC   C4A54906  28.335  19.876   7.350
 7568POPC   C1B54907  28.359  20.073   6.450
 7568POPC   C2B54908  28.385  20.101   6.750
 7568POPC   C3B54909  28.364  20.119   7.050
 7568POPC   C4B54910  28.329  20.075   7.350
 7569POPC   NC354911  32.286  34.554   5.550
 7569POPC   PO454912  32.265  34.621   5.850
 7569POPC   GL154913  32.272  34.599   6.150
 7569POPC   GL254914  32.176  34.469   6.150
 7569POPC   C1A54915  32.203  34.576   6.450
 7569POPC   D2A54916  32.275  34.611   6.750
 7569POPC   C3A54917  32.217  34.613   7.050
 7569POPC   C4A54918  32.262  34.536   7.350
 7569POPC   C1B54919  32.197  34.326   6.450
 7569POPC   C2B54920  32.225  34.364   6.750
 7569POPC   C3B54921  32.186  34.379   7.050
 7569POPC   C4B54922  32.148  34.367   7.350
 7570POPC   NC354923  14.398  22.194   5.550
 7570POPC   PO454924  14.382  22.145   5.850
 7570POPC   GL154925  14.381  22.172   6.150
 7570POPC   GL254926  14.354  22.235   6.150
 7570POPC   C1A54927  14.385  22.187   6.450
 7570POPC   D2A54928  14.442  22.149   6.750
 7570POPC   C3A54929  14.399  22.175   7.050
 7570POPC   C4A54930  14.407  22.149   7.350
 7570POPC   C1B54931  14.217  22.326   6.450
 7570POPC   C2B54932  14.290  22.388   6.750
 7570POPC   C3B54933  14.271  22.411   7.050
 7570POPC   C4B54934  14.288  22.374   7.350
 7571POPC   NC354935  15.223  33.752   5.550
 7571POPC   PO454936  15.147  33.803   5.850
 7571POPC   GL154937  15.181  33.788   6.150
 7571POPC   GL254938  15.025  33.822   6.150
 7571POPC   C1A54939  15.221  33.752   6.450
 7571POPC   D2A54940  15.130  33.797   6.750
 7571POPC   C3A54941  15.184  33.850   7.050
 7571POPC   C4A54942  15.154  33.817   7.350
 7571POPC   C1B54943  14.952  33.819   6.450
 7571POPC   C2B54944  14.929  33.817   6.750
 7571POPC   C3B54945  14.893  33.813   7.050
 7571POPC   C4B54946  14.942  33.859   7.350
 7572POPC   NC354947  26.858   9.767   5.550
 7572POPC   PO454948  26.859   9.731   5.850
 7572POPC   GL154949  26.802   9.720   6.150
 7572POPC   GL254950  26.663   9.794   6.150
 7572POPC   C1A54951  26.771   9.753   6.450
 7572POPC   D2A54952  26.867   9.705   6.750
 7572POPC   C3A54953  26.857   9.786   7.050
 7572POPC   C4A54954  26.786   9.757   7.350
 7572POPC   C1B54955  26.620   9.794   6.450
 7572POPC   C2B54956  26.521   9.821   6.750
 7572POPC   C3B54957  26.584   9.748   7.050
 7572POPC   C4B54958  26.565   9.763   7.350
 7573POPC   NC354959  15.980  42.313   5.550
 7573POPC   PO454960  15.931  42.303   5.850
 7573POPC   GL154961  15.985  42.340   6.150
 7573POPC   GL254962  16.083  42.331   6.150
 7573POPC   C1A54963  15.974  42.306   6.450
 7573POPC   D2A54964  15.999  42.308   6.750
 7573POPC   C3A54965  15.966  42.351   7.050
 7573POPC   C4A54966  15.954  42.317   7.350
 7573POPC   C1B54967  16.219  42.247   6.450
 7573POPC   C2B54968  16.167  42.242   6.750
 7573POPC   C3B54969  16.210  42.249   7.050
 7573POPC   C4B54970  16.175  42.312   7.350
 7574POPC   NC354971  21.361  28.332   5.550
 7574POPC   PO454972  21.392  28.408   5.850
 7574POPC   GL154973  21.362  28.366   6.150
 7574POPC   GL254974  21.293  28.487   6.150
 7574POPC   C1A54975  21.403  28.397   6.450
 7574POPC   D2A54976  21.379  28.362   6.750
 7574POPC   C3A54977  21.340  28.389   7.050
 7574POPC   C4A54978  21.406  28.334   7.350
 7574POPC   C1B54979  21.151  28.551   6.450
 7574POPC   C2B54980  21.152  28.494   6.750
 7574POPC   C3B54981  21.146  28.548   7.050
 7574POPC   C4B54982  21.219  28.480   7.350
 7575POPC   NC354983  12.115  10.515   5.550
 7575POPC   PO454984  12.055  10.522   5.850
 7575POPC   GL154985  12.044  10.505   6.150
 7575POPC   GL254986  11.990  10.456   6.150
 7575POPC   C1A54987  12.053  10.499   6.450
 7575POPC   D2A54988  12.068  10.532   6.750
 7575POPC   C3A54989  12.075  10.551   7.050
 7575POPC   C4A54990  12.098  10.513   7.350
 7575POPC   C1B54991  11.796  10.495   6.450
 7575POPC   C2B54992  11.804  10.499   6.750
 7575POPC   C3B54993  11.810  10.512   7.050
 7575POPC   C4B54994  11.870  10.524   7.350
 7576POPC   NC354995  35.364   8.202   5.550
 7576POPC   PO454996  35.395   8.210   5.850
 7576POPC   GL154997  35.304   8.205   6.150
 7576POPC   GL254998  35.276   8.162   6.150
 7576POPC   C1A54999  35.386   8.181   6.450
 7576POPC   D2A55000  35.325   8.207   6.750
 7576POPC   C3A55001  35.316   8.200   7.050
 7576POPC   C4A55002  35.395   8.231   7.350
 7576POPC   C1B55003  35.115   8.153   6.450
 7576POPC   C2B55004  35.113   8.172   6.750
 7576POPC   C3B55005  35.080   8.113   7.050
 7576POPC   C4B55006  35.140   8.178   7.350
 7577POPC   NC355007  16.707  18.309   5.550
 7577POPC   PO455008  16.701  18.294   5.850
 7577POPC   GL155009  16.733  18.290   6.150
 7577POPC   GL255010  16.610  18.292   6.150
 7577POPC   C1A55011  16.721  18.323   6.450
 7577POPC   D2A55012  16.690  18.300   6.750
 7577POPC   C3A55013  16.746  18.326   7.050
 7577POPC   C4A55014  16.768  18.325   7.350
 7577POPC   C1B55015  16.531  18.363   6.450
 7577POPC   C2B55016  16.495  18.286   6.750
 7577POPC   C3B55017  16.526  18.304   7.050
 7577POPC   C4B55018  16.529  18.289   7.350
 7578POPC   NC355019  39.223  17.470   5.550
 7578POPC   PO455020  39.218  17.516   5.850
 7578POPC   GL155021  39.182  17.553   6.150
 7578POPC   GL255022  39.147  17.504   6.150
 7578POPC   C1A55023  39.260  17.550   6.450
 7578POPC   D2A55024  39.184  17.464   6.750
 7578POPC   C3A55025  39.216  17.500   7.050
 7578POPC   C4A55026  39.233  17.504   7.350
 7578POPC   C1B55027  39.015  17.374   6.450
 7578POPC   C2B55028  38.970  17.378   6.750
 7578POPC   C3B55029  38.992  17.394   7.050
 7578POPC   C4B55030  39.049  17.398   7.350
 7579POPC   NC355031  43.901  16.775   5.550
 7579POPC   PO455032  43.919  16.767   5.850
 7579POPC   GL155033  43.881  16.701   6.150
 7579POPC   GL255034  43.830  16.616   6.150
 7579POPC   C1A55035  43.922  16.738   6.450
 7579POPC   D2A55036  43.919  16.687   6.750
 7579POPC   C3A55037  43.933  16.770   7.050
 7579POPC   C4A55038  43.905  16.729   7.350
 7579POPC   C1B55039  43.781  16.485   6.450
 7579POPC   C2B55040  43.766  16.447   6.750
 7579POPC   C3B55041  43.780  16.473   7.050
 7579POPC   C4B55042  43.795  16.466   7.350
 7580POPC   NC355043  34.605  19.882   5.550
 7580POPC   PO455044  34.577  19.863   5.850
 7580POPC   GL155045  34.553  19.880   6.150
 7580POPC   GL255046  34.629  19.909   6.150
 7580POPC   C1A55047  34.588  19.790   6.450
 7580POPC   D2A55048  34.585  19.837   6.750
 7580POPC   C3A55049  34.599  19.859   7.050
 7580POPC   C4A55050  34.531  19.867   7.350
 7580POPC   C1B55051  34.729  19.947   6.450
 7580POPC   C2B55052  34.768  19.946   6.750
 7580POPC   C3B55053  34.754  19.981   7.050
 7580POPC   C4B55054  34.782  19.948   7.350
 7581POPC   NC355055  36.896  13.604   5.550
 7581POPC   PO455056  36.951  13.650   5.850
 7581POPC   GL155057  36.872  13.632   6.150
 7581POPC   GL255058  36.999  13.580   6.150
 7581POPC   C1A55059  36.930  13.607   6.450
 7581POPC   D2A55060  36.931  13.655   6.750
 7581POPC   C3A55061  36.947  13.626   7.050
 7581POPC   C4A55062  36.855  13.592   7.350
 7581POPC   C1B55063  37.161  13.487   6.450
 7581POPC   C2B55064  37.158  13.530   6.750
 7581POPC   C3B55065  37.086  13.522   7.050
 7581POPC   C4B55066  37.163  13.542   7.350
 7582POPC   NC355067  22.943  12.079   5.550
 7582POPC   PO455068  22.934  12.060   5.850
 7582POPC   GL155069  22.982  12.075   6.150
 7582POPC   GL255070  23.061  12.135   6.150
 7582POPC   C1A55071  22.929  12.031   6.450
 7582POPC   D2A55072  22.889  12.081   6.750
 7582POPC   C3A55073  22.952  12.051   7.050
 7582POPC   C4A55074  22.924  12.120   7.350
 7582POPC   C1B55075  23.209  12.093   6.450
 7582POPC   C2B55076  23.195  12.184   6.750
 7582POPC   C3B55077  23.144  12.112   7.050
 7582POPC   C4B55078  23.139  12.145   7.350
 7583POPC   NC355079  44.626  36.157   5.550
 7583POPC   PO455080  44.659  36.155   5.850
 7583POPC   GL155081  44.680  36.177   6.150
 7583POPC   GL255082  44.795  36.071   6.150
 7583POPC   C1A55083  44.688  36.082   6.450
 7583POPC   D2A55084  44.679  36.110   6.750
 7583POPC   C3A55085  44.624  36.146   7.050
 7583POPC   C4A55086  44.680  36.150   7.350
 7583POPC   C1B55087  44.866  36.106   6.450
 7583POPC   C2B55088  44.929  36.015   6.750
 7583POPC   C3B55089  44.859  36.112   7.050
 7583POPC   C4B55090  44.886  36.108   7.350
 7584POPC   NC355091  41.526  36.135   5.550
 7584POPC   PO455092  41.588  36.111   5.850
 7584POPC   GL155093  41.524  36.100   6.150
 7584POPC   GL255094  41.612  36.240   6.150
 7584POPC   C1A55095  41.594  36.088   6.450
 7584POPC   D2A55096  41.579  36.078   6.750
 7584POPC   C3A55097  41.532  36.171   7.050
 7584POPC   C4A55098  41.588  36.105   7.350
 7584POPC   C1B55099  41.708  36.329   6.450
 7584POPC   C2B55100  41.750  36.333   6.750
 7584POPC   C3B55101  41.741  36.333   7.050
 7584POPC   C4B55102  41.722  36.303   7.350
 7585POPC   NC355103  30.697  29.107   5.550
 7585POPC   PO455104  30.715  29.192   5.850
 7585POPC   GL155105  30.711  29.118   6.150
 7585POPC   GL255106  30.676  29.312   6.150
 7585POPC   C1A55107  30.647  29.118   6.450
 7585POPC   D2A55108  30.721  29.169   6.750
 7585POPC   C3A55109  30.664  29.135   7.050
 7585POPC   C4A55110  30.699  29.131   7.350
 7585POPC   C1B55111  30.758  29.386   6.450
 7585POPC   C2B55112  30.759  29.413   6.750
 7585POPC   C3B55113  30.690  29.358   7.050
 7585POPC   C4B55114  30.678  29.412   7.350
 7586POPC   NC355115  26.850  20.627   5.550
 7586POPC   PO455116  26.821  20.596   5.850
 7586POPC   GL155117  26.775  20.567   6.150
 7586POPC   GL255118  26.810  20.438   6.150
 7586POPC   C1A55119  26.857  20.646   6.450
 7586POPC   D2A55120  26.797  20.605   6.750
 7586POPC   C3A55121  26.864  20.652   7.050
 7586POPC   C4A55122  26.778  20.570   7.350
 7586POPC   C1B55123  26.807  20.382   6.450
 7586POPC   C2B55124  26.866  20.368   6.750
 7586POPC   C3B55125  26.803  20.319   7.050
 7586POPC   C4B55126  26.879  20.383   7.350
 7587POPC   NC355127  34.579  33.755   5.550
 7587POPC   PO455128  34.575  33.769   5.850
 7587POPC   GL155129  34.565  33.846   6.150
 7587POPC   GL255130  34.664  33.686   6.150
 7587POPC   C1A55131  34.543  33.817   6.450
 7587POPC   D2A55132  34.599  33.757   6.750
 7587POPC   C3A55133  34.540  33.846   7.050
 7587POPC   C4A55134  34.600  33.757   7.350
 7587POPC   C1B55135  34.746  33.555   6.450
 7587POPC   C2B55136  34.703  33.571   6.750
 7587POPC   C3B55137  34.728  33.602   7.050
 7587POPC   C4B55138  34.665  33.569   7.350
 7588POPC   NC355139  32.237  36.081   5.550
 7588POPC   PO455140  32.262  36.162   5.850
 7588POPC   GL155141  32.211  36.118   6.150
 7588POPC   GL255142  32.365  36.145   6.150
 7588POPC   C1A55143  32.211  36.126   6.450
 7588POPC   D2A55144  32.222  36.104   6.750
 7588POPC   C3A55145  32.208  36.160   7.050
 7588POPC   C4A55146  32.291  36.122   7.350
 7588POPC   C1B55147  32.545  36.091   6.450
 7588POPC   C2B55148  32.449  36.080   6.750
 7588POPC   C3B55149  32.523  36.126   7.050
 7588POPC   C4B55150  32.488  36.082   7.350
 7589POPC   NC355151  19.077  22.181   5.550
 7589POPC   PO455152  19.061  22.202   5.850
 7589POPC   GL155153  19.105  22.136   6.150
 7589POPC   GL255154  18.975  22.221   6.150
 7589POPC   C1A55155  19.037  22.123   6.450
 7589POPC   D2A55156  19.052  22.158   6.750
 7589POPC   C3A55157  19.012  22.161   7.050
 7589POPC   C4A55158  19.082  22.130   7.350
 7589POPC   C1B55159  18.871  22.332   6.450
 7589POPC   C2B55160  18.799  22.330   6.750
 7589POPC   C3B55161  18.807  22.311   7.050
 7589POPC   C4B55162  18.891  22.313   7.350
 7590POPC   NC355163   1.961  43.153   5.550
 7590POPC   PO455164   1.974  43.084   5.850
 7590POPC   GL155165   2.024  43.106   6.150
 7590POPC   GL255166   1.962  43.262   6.150
 7590POPC   C1A55167   1.952  43.109   6.450
 7590POPC   D2A55168   1.965  43.107   6.750
 7590POPC   C3A55169   2.027  43.126   7.050
 7590POPC   C4A55170   1.941  43.102   7.350
 7590POPC   C1B55171   2.005  43.344   6.450
 7590POPC   C2B55172   2.033  43.329   6.750
 7590POPC   C3B55173   2.023  43.331   7.050
 7590POPC   C4B55174   2.008  43.329   7.350
 7591POPC   NC355175   6.631  33.841   5.550
 7591POPC   PO455176   6.602  33.818   5.850
 7591POPC   GL155177   6.668  33.787   6.150
 7591POPC   GL255178   6.682  33.902   6.150
 7591POPC   C1A55179   6.613  33.757   6.450
 7591POPC   D2A55180   6.660  33.778   6.750
 7591POPC   C3A55181   6.647  33.791   7.050
 7591POPC   C4A55182   6.596  33.823   7.350
 7591POPC   C1B55183   6.687  34.070   6.450
 7591POPC   C2B55184   6.780  34.057   6.750
 7591POPC   C3B55185   6.740  34.047   7.050
 7591POPC   C4B55186   6.701  34.007   7.350
 7592POPC   NC355187  32.281  33.768   5.550
 7592POPC   PO455188  32.282  33.819   5.850
 7592POPC   GL155189  32.276  33.780   6.150
 7592POPC   GL255190  32.172  33.940   6.150
 7592POPC   C1A55191  32.256  33.778   6.450
 7592POPC   D2A55192  32.254  33.812   6.750
 7592POPC   C3A55193  32.203  33.837   7.050
 7592POPC   C4A55194  32.211  33.779   7.350
 7592POPC   C1B55195  32.148  34.005   6.450
 7592POPC   C2B55196  32.185  34.060   6.750
 7592POPC   C3B55197  32.195  34.032   7.050
 7592POPC   C4B55198  32.225  34.088   7.350
 7593POPC   NC355199  43.871  10.516   5.550
 7593POPC   PO455200  43.913  10.543   5.850
 7593POPC   GL155201  43.850  10.497   6.150
 7593POPC   GL255202  43.794  10.488   6.150
 7593POPC   C1A55203  43.869  10.488   6.450
 7593POPC   D2A55204  43.846  10.525   6.750
 7593POPC   C3A55205  43.865  10.512   7.050
 7593POPC   C4A55206  43.851  10.564   7.350
 7593POPC   C1B55207  43.587  10.505   6.450
 7593POPC   C2B55208  43.621  10.572   6.750
 7593POPC   C3B55209  43.672  10.539   7.050
 7593POPC   C4B55210  43.673  10.494   7.350
 7594POPC   NC355211  26.832  10.545   5.550
 7594POPC   PO455212  26.812  10.491   5.850
 7594POPC   GL155213  26.838  10.489   6.150
 7594POPC   GL255214  26.759  10.640   6.150
 7594POPC   C1A55215  26.800  10.547   6.450
 7594POPC   D2A55216  26.855  10.554   6.750
 7594POPC   C3A55217  26.806  10.571   7.050
 7594POPC   C4A55218  26.772  10.565   7.350
 7594POPC   C1B55219  26.632  10.662   6.450
 7594POPC   C2B55220  26.632  10.619   6.750
 7594POPC   C3B55221  26.617  10.705   7.050
 7594POPC   C4B55222  26.564  10.678   7.350
 7595POPC   NC355223  37.723  33.788   5.550
 7595POPC   PO455224  37.670  33.840   5.850
 7595POPC   GL155225  37.688  33.844   6.150
 7595POPC   GL255226  37.658  33.667   6.150
 7595POPC   C1A55227  37.717  33.848   6.450
 7595POPC   D2A55228  37.717  33.833   6.750
 7595POPC   C3A55229  37.720  33.794   7.050
 7595POPC   C4A55230  37.633  33.835   7.350
 7595POPC   C1B55231  37.563  33.555   6.450
 7595POPC   C2B55232  37.609  33.564   6.750
 7595POPC   C3B55233  37.620  33.548   7.050
 7595POPC   C4B55234  37.553  33.524   7.350
 7596POPC   NC355235  37.660  29.117   5.550
 7596POPC   PO455236  37.711  29.156   5.850
 7596POPC   GL155237  37.648  29.176   6.150
 7596POPC   GL255238  37.594  29.268   6.150
 7596POPC   C1A55239  37.662  29.115   6.450
 7596POPC   D2A55240  37.727  29.188   6.750
 7596POPC   C3A55241  37.660  29.098   7.050
 7596POPC   C4A55242  37.691  29.158   7.350
 7596POPC   C1B55243  37.452  29.339   6.450
 7596POPC   C2B55244  37.443  29.314   6.750
 7596POPC   C3B55245  37.447  29.268   7.050
 7596POPC   C4B55246  37.467  29.270   7.350
 7597POPC   NC355247  17.516   9.760   5.550
 7597POPC   PO455248  17.535   9.741   5.850
 7597POPC   GL155249  17.477   9.752   6.150
 7597POPC   GL255250  17.458   9.841   6.150
 7597POPC   C1A55251  17.555   9.736   6.450
 7597POPC   D2A55252  17.532   9.719   6.750
 7597POPC   C3A55253  17.502   9.699   7.050
 7597POPC   C4A55254  17.512   9.757   7.350
 7597POPC   C1B55255  17.332   9.972   6.450
 7597POPC   C2B55256  17.353   9.919   6.750
 7597POPC   C3B55257  17.350   9.900   7.050
 7597POPC   C4B55258  17.337   9.910   7.350
 7598POPC   NC355259   2.717  19.065   5.550
 7598POPC   PO455260   2.718  19.064   5.850
 7598POPC   GL155261   2.812  19.044   6.150
 7598POPC   GL255262   2.833  18.984   6.150
 7598POPC   C1A55263   2.735  19.016   6.450
 7598POPC   D2A55264   2.792  19.064   6.750
 7598POPC   C3A55265   2.801  19.031   7.050
 7598POPC   C4A55266   2.792  19.009   7.350
 7598POPC   C1B55267   2.871  18.885   6.450
 7598POPC   C2B55268   2.887  18.860   6.750
 7598POPC   C3B55269   2.872  18.866   7.050
 7598POPC   C4B55270   2.865  18.874   7.350
 7599POPC   NC355271   0.390  37.654   5.550
 7599POPC   PO455272   0.435  37.714   5.850
 7599POPC   GL155273   0.390  37.651   6.150
 7599POPC   GL255274   0.441  37.832   6.150
 7599POPC   C1A55275   0.458  37.635   6.450
 7599POPC   D2A55276   0.443  37.709   6.750
 7599POPC   C3A55277   0.445  37.670   7.050
 7599POPC   C4A55278   0.484  37.658   7.350
 7599POPC   C1B55279   0.451  37.885   6.450
 7599POPC   C2B55280   0.512  37.891   6.750
 7599POPC   C3B55281   0.450  37.962   7.050
 7599POPC   C4B55282   0.461  37.945   7.350
 7600POPC   NC355283  33.798  12.105   5.550
 7600POPC   PO455284  33.776  12.055   5.850
 7600POPC   GL155285  33.751  12.038   6.150
 7600POPC   GL255286  33.878  12.116   6.150
 7600POPC   C1A55287  33.830  12.065   6.450
 7600POPC   D2A55288  33.821  12.032   6.750
 7600POPC   C3A55289  33.761  12.114   7.050
 7600POPC   C4A55290  33.777  12.088   7.350
 7600POPC   C1B55291  34.043  12.243   6.450
 7600POPC   C2B55292  33.972  12.216   6.750
 7600POPC   C3B55293  34.018  12.216   7.050
 7600POPC   C4B55294  33.987  12.203   7.350
 7601POPC   NC355295  15.970   6.690   5.550
 7601POPC   PO455296  15.957   6.642   5.850
 7601POPC   GL155297  15.956   6.665   6.150
 7601POPC   GL255298  15.845   6.756   6.150
 7601POPC   C1A55299  15.977   6.616   6.450
 7601POPC   D2A55300  15.924   6.597   6.750
 7601POPC   C3A55301  15.936   6.658   7.050
 7601POPC   C4A55302  15.917   6.674   7.350
 7601POPC   C1B55303  15.801   6.763   6.450
 7601POPC   C2B55304  15.743   6.780   6.750
 7601POPC   C3B55305  15.737   6.798   7.050
 7601POPC   C4B55306  15.784   6.808   7.350
 7602POPC   NC355307  20.603  41.512   5.550
 7602POPC   PO455308  20.618  41.518   5.850
 7602POPC   GL155309  20.571  41.527   6.150
 7602POPC   GL255310  20.635  41.412   6.150
 7602POPC   C1A55311  20.620  41.535   6.450
 7602POPC   D2A55312  20.620  41.559   6.750
 7602POPC   C3A55313  20.562  41.554   7.050
 7602POPC   C4A55314  20.656  41.526   7.350
 7602POPC   C1B55315  20.754  41.353   6.450
 7602POPC   C2B55316  20.678  41.325   6.750
 7602POPC   C3B55317  20.756  41.326   7.050
 7602POPC   C4B55318  20.688  41.288   7.350
 7603POPC   NC355319   8.928  15.940   5.550
 7603POPC   PO455320   9.008  15.974   5.850
 7603POPC   GL155321   8.968  15.949   6.150
 7603POPC   GL255322   8.864  15.889   6.150
 7603POPC   C1A55323   9.014  15.988   6.450
 7603POPC   D2A55324   8.985  15.938   6.750
 7603POPC   C3A55325   9.012  15.930   7.050
 7603POPC   C4A55326   8.985  15.931   7.350
 7603POPC   C1B55327   8.796  15.793   6.450
 7603POPC   C2B55328   8.719  15.817   6.750
 7603POPC   C3B55329   8.792  15.825   7.050
 7603POPC   C4B55330   8.796  15.798   7.350
 7604POPC   NC355331  38.465  37.638   5.550
 7604POPC   PO455332  38.472  37.713   5.850
 7604POPC   GL155333  38.494  37.675   6.150
 7604POPC   GL255334  38.383  37.535   6.150
 7604POPC   C1A55335  38.448  37.694   6.450
 7604POPC   D2A55336  38.501  37.662   6.750
 7604POPC   C3A55337  38.421  37.635   7.050
 7604POPC   C4A55338  38.474  37.652   7.350
 7604POPC   C1B55339  38.294  37.426   6.450
 7604POPC   C2B55340  38.369  37.424   6.750
 7604POPC   C3B55341  38.346  37.483   7.050
 7604POPC   C4B55342  38.328  37.438   7.350
 7605POPC   NC355343  41.558  15.922   5.550
 7605POPC   PO455344  41.565  15.937   5.850
 7605POPC   GL155345  41.593  15.977   6.150
 7605POPC   GL255346  41.657  15.871   6.150
 7605POPC   C1A55347  41.593  15.938   6.450
 7605POPC   D2A55348  41.577  15.959   6.750
 7605POPC   C3A55349  41.521  16.001   7.050
 7605POPC   C4A55350  41.522  15.934   7.350
 7605POPC   C1B55351  41.805  15.823   6.450
 7605POPC   C2B55352  41.799  15.832   6.750
 7605POPC   C3B55353  41.739  15.834   7.050
 7605POPC   C4B55354  41.739  15.854   7.350
 7606POPC   NC355355  11.273  19.818   5.550
 7606POPC   PO455356  11.349  19.874   5.850
 7606POPC   GL155357  11.272  19.855   6.150
 7606POPC   GL255358  11.211  19.931   6.150
 7606POPC   C1A55359  11.282  19.828   6.450
 7606POPC   D2A55360  11.302  19.806   6.750
 7606POPC   C3A55361  11.346  19.845   7.050
 7606POPC   C4A55362  11.318  19.814   7.350
 7606POPC   C1B55363  11.073  19.904   6.450
 7606POPC   C2B55364  11.085  19.955   6.750
 7606POPC   C3B55365  11.076  19.914   7.050
 7606POPC   C4B55366  11.090  19.940   7.350
 7607POPC   NC355367  17.506  16.749   5.550
 7607POPC   PO455368  17.481  16.774   5.850
 7607POPC   GL155369  17.472  16.704   6.150
 7607POPC   GL255370  17.631  16.641   6.150
 7607POPC   C1A55371  17.520  16.710   6.450
 7607POPC   D2A55372  17.488  16.709   6.750
 7607POPC   C3A55373  17.512  16.765   7.050
 7607POPC   C4A55374  17.509  16.774   7.350
 7607POPC   C1B55375  17.743  16.680   6.450
 7607POPC   C2B55376  17.688  16.605   6.750
 7607POPC   C3B55377  17.732  16.676   7.050
 7607POPC   C4B55378  17.689  16.599   7.350
 7608POPC   NC355379  22.987  13.610   5.550
 7608POPC   PO455380  22.922  13.621   5.850
 7608POPC   GL155381  22.978  13.589   6.150
 7608POPC   GL255382  23.089  13.587   6.150
 7608POPC   C1A55383  22.977  13.669   6.450
 7608POPC   D2A55384  22.895  13.657   6.750
 7608POPC   C3A55385  22.953  13.594   7.050
 7608POPC   C4A55386  22.891  13.652   7.350
 7608POPC   C1B55387  23.198  13.599   6.450
 7608POPC   C2B55388  23.182  13.613   6.750
 7608POPC   C3B55389  23.176  13.599   7.050
 7608POPC   C4B55390  23.212  13.615   7.350
 7609POPC   NC355391   4.280  43.149   5.550
 7609POPC   PO455392   4.338  43.122   5.850
 7609POPC   GL155393   4.290  43.141   6.150
 7609POPC   GL255394   4.476  43.125   6.150
 7609POPC   C1A55395   4.345  43.107   6.450
 7609POPC   D2A55396   4.364  43.105   6.750
 7609POPC   C3A55397   4.280  43.130   7.050
 7609POPC   C4A55398   4.359  43.125   7.350
 7609POPC   C1B55399   4.595  43.237   6.450
 7609POPC   C2B55400   4.522  43.202   6.750
 7609POPC   C3B55401   4.561  43.187   7.050
 7609POPC   C4B55402   4.579  43.205   7.350
 7610POPC   NC355403  23.676  19.816   5.550
 7610POPC   PO455404  23.699  19.796   5.850
 7610POPC   GL155405  23.761  19.870   6.150
 7610POPC   GL255406  23.835  19.760   6.150
 7610POPC   C1A55407  23.691  19.866   6.450
 7610POPC   D2A55408  23.690  19.805   6.750
 7610POPC   C3A55409  23.754  19.846   7.050
 7610POPC   C4A55410  23.742  19.820   7.350
 7610POPC   C1B55411  23.866  19.655   6.450
 7610POPC   C2B55412  23.942  19.733   6.750
 7610POPC   C3B55413  23.895  19.729   7.050
 7610POPC   C4B55414  23.916  19.694   7.350
 7611POPC   NC355415   1.165  44.671   5.550
 7611POPC   PO455416   1.199  44.708   5.850
 7611POPC   GL155417   1.247  44.671   6.150
 7611POPC   GL255418   1.106  44.651   6.150
 7611POPC   C1A55419   1.217  44.626   6.450
 7611POPC   D2A55420   1.183  44.636   6.750
 7611POPC   C3A55421   1.263  44.650   7.050
 7611POPC   C4A55422   1.194  44.694   7.350
 7611POPC   C1B55423   0.954  44.684   6.450
 7611POPC   C2B55424   0.988  44.653   6.750
 7611POPC   C3B55425   1.004  44.704   7.050
 7611POPC   C4B55426   0.999  44.649   7.350
 7612POPC   NC355427  19.082   2.741   5.550
 7612POPC   PO455428  19.081   2.722   5.850
 7612POPC   GL155429  19.094   2.781   6.150
 7612POPC   GL255430  19.207   2.858   6.150
 7612POPC   C1A55431  19.102   2.782   6.450
 7612POPC   D2A55432  19.055   2.795   6.750
 7612POPC   C3A55433  19.040   2.736   7.050
 7612POPC   C4A55434  19.098   2.728   7.350
 7612POPC   C1B55435  19.253   2.847   6.450
 7612POPC   C2B55436  19.316   2.898   6.750
 7612POPC   C3B55437  19.245   2.807   7.050
 7612POPC   C4B55438  19.306   2.850   7.350
 7613POPC   NC355439  26.019  42.315   5.550
 7613POPC   PO455440  26.070  42.312   5.850
 7613POPC   GL155441  26.069  42.294   6.150
 7613POPC   GL255442  26.128  42.254   6.150
 7613POPC   C1A55443  26.001  42.337   6.450
 7613POPC   D2A55444  26.017  42.305   6.750
 7613POPC   C3A55445  26.039  42.325   7.050
 7613POPC   C4A55446  26.008  42.285   7.350
 7613POPC   C1B55447  26.218  42.167   6.450
 7613POPC   C2B55448  26.167  42.095   6.750
 7613POPC   C3B55449  26.123  42.124   7.050
 7613POPC   C4B55450  26.217  42.140   7.350
 7614POPC   NC355451  26.857  34.555   5.550
 7614POPC   PO455452  26.830  34.585   5.850
 7614POPC   GL155453  26.767  34.546   6.150
 7614POPC   GL255454  26.692  34.482   6.150
 7614POPC   C1A55455  26.769  34.538   6.450
 7614POPC   D2A55456  26.816  34.595   6.750
 7614POPC   C3A55457  26.771  34.586   7.050
 7614POPC   C4A55458  26.828  34.540   7.350
 7614POPC   C1B55459  26.609  34.421   6.450
 7614POPC   C2B55460  26.592  34.397   6.750
 7614POPC   C3B55461  26.609  34.380   7.050
 7614POPC   C4B55462  26.641  34.412   7.350
 7615POPC   NC355463  28.403  28.398   5.550
 7615POPC   PO455464  28.384  28.327   5.850
 7615POPC   GL155465  28.328  28.340   6.150
 7615POPC   GL255466  28.238  28.380   6.150
 7615POPC   C1A55467  28.342  28.391   6.450
 7615POPC   D2A55468  28.352  28.329   6.750
 7615POPC   C3A55469  28.352  28.344   7.050
 7615POPC   C4A55470  28.322  28.376   7.350
 7615POPC   C1B55471  28.150  28.409   6.450
 7615POPC   C2B55472  28.158  28.345   6.750
 7615POPC   C3B55473  28.110  28.390   7.050
 7615POPC   C4B55474  28.141  28.418   7.350
 7616POPC   NC355475   6.610  12.823   5.550
 7616POPC   PO455476   6.670  12.841   5.850
 7616POPC   GL155477   6.596  12.871   6.150
 7616POPC   GL255478   6.699  12.983   6.150
 7616POPC   C1A55479   6.622  12.892   6.450
 7616POPC   D2A55480   6.616  12.891   6.750
 7616POPC   C3A55481   6.662  12.864   7.050
 7616POPC   C4A55482   6.677  12.829   7.350
 7616POPC   C1B55483   6.793  13.062   6.450
 7616POPC   C2B55484   6.764  13.095   6.750
 7616POPC   C3B55485   6.826  13.021   7.050
 7616POPC   C4B55486   6.806  13.020   7.350
 7617POPC   NC355487  26.816  19.043   5.550
 7617POPC   PO455488  26.779  19.017   5.850
 7617POPC   GL155489  26.782  19.095   6.150
 7617POPC   GL255490  26.827  19.141   6.150
 7617POPC   C1A55491  26.795  19.104   6.450
 7617POPC   D2A55492  26.814  19.054   6.750
 7617POPC   C3A55493  26.769  19.043   7.050
 7617POPC   C4A55494  26.788  19.018   7.350
 7617POPC   C1B55495  26.919  19.301   6.450
 7617POPC   C2B55496  26.889  19.296   6.750
 7617POPC   C3B55497  26.874  19.268   7.050
 7617POPC   C4B55498  26.912  19.335   7.350
 7618POPC   NC355499  21.382  26.783   5.550
 7618POPC   PO455500  21.355  26.791   5.850
 7618POPC   GL155501  21.411  26.844   6.150
 7618POPC   GL255502  21.307  26.865   6.150
 7618POPC   C1A55503  21.392  26.834   6.450
 7618POPC   D2A55504  21.400  26.771   6.750
 7618POPC   C3A55505  21.398  26.848   7.050
 7618POPC   C4A55506  21.363  26.866   7.350
 7618POPC   C1B55507  21.097  26.896   6.450
 7618POPC   C2B55508  21.123  26.837   6.750
 7618POPC   C3B55509  21.092  26.873   7.050
 7618POPC   C4B55510  21.180  26.825   7.350
 7619POPC   NC355511  43.103  19.833   5.550
 7619POPC   PO455512  43.074  19.812   5.850
 7619POPC   GL155513  43.100  19.813   6.150
 7619POPC   GL255514  43.188  19.862   6.150
 7619POPC   C1A55515  43.152  19.879   6.450
 7619POPC   D2A55516  43.093  19.817   6.750
 7619POPC   C3A55517  43.082  19.826   7.050
 7619POPC   C4A55518  43.073  19.786   7.350
 7619POPC   C1B55519  43.308  19.938   6.450
 7619POPC   C2B55520  43.380  19.963   6.750
 7619POPC   C3B55521  43.303  19.951   7.050
 7619POPC   C4B55522  43.299  19.904   7.350
 7620POPC   NC355523  28.391   5.113   5.550
 7620POPC   PO455524  28.402   5.056   5.850
 7620POPC   GL155525  28.341   5.130   6.150
 7620POPC   GL255526  28.297   5.005   6.150
 7620POPC   C1A55527  28.369   5.122   6.450
 7620POPC   D2A55528  28.323   5.105   6.750
 7620POPC   C3A55529  28.372   5.043   7.050
 7620POPC   C4A55530  28.392   5.109   7.350
 7620POPC   C1B55531  28.090   5.022   6.450
 7620POPC   C2B55532  28.090   5.029   6.750
 7620POPC   C3B55533  28.169   4.981   7.050
 7620POPC   C4B55534  28.145   4.981   7.350
 7621POPC   NC355535  40.038  40.825   5.550
 7621POPC   PO455536  40.007  40.765   5.850
 7621POPC   GL155537  40.031  40.817   6.150
 7621POPC   GL255538  39.888  40.723   6.150
 7621POPC   C1A55539  40.019  40.769   6.450
 7621POPC   D2A55540  40.016  40.755   6.750
 7621POPC   C3A55541  40.052  40.746   7.050
 7621POPC   C4A55542  39.967  40.788   7.350
 7621POPC   C1B55543  39.759  40.679   6.450
 7621POPC   C2B55544  39.799  40.664   6.750
 7621POPC   C3B55545  39.798  40.632   7.050
 7621POPC   C4B55546  39.797  40.618   7.350
 7622POPC   NC355547  40.827  18.317   5.550
 7622POPC   PO455548  40.756  18.323   5.850
 7622POPC   GL155549  40.825  18.265   6.150
 7622POPC   GL255550  40.713  18.252   6.150
 7622POPC   C1A55551  40.747  18.274   6.450
 7622POPC   D2A55552  40.762  18.281   6.750
 7622POPC   C3A55553  40.762  18.236   7.050
 7622POPC   C4A55554  40.785  18.241   7.350
 7622POPC   C1B55555  40.586  18.165   6.450
 7622POPC   C2B55556  40.557  18.252   6.750
 7622POPC   C3B55557  40.521  18.166   7.050
 7622POPC   C4B55558  40.557  18.247   7.350
 7623POPC   NC355559  40.830  29.911   5.550
 7623POPC   PO455560  40.780  29.956   5.850
 7623POPC   GL155561  40.796  29.900   6.150
 7623POPC   GL255562  40.661  29.953   6.150
 7623POPC   C1A55563  40.766  29.921   6.450
 7623POPC   D2A55564  40.745  29.947   6.750
 7623POPC   C3A55565  40.736  29.895   7.050
 7623POPC   C4A55566  40.806  29.906   7.350
 7623POPC   C1B55567  40.539  30.047   6.450
 7623POPC   C2B55568  40.524  29.995   6.750
 7623POPC   C3B55569  40.502  29.957   7.050
 7623POPC   C4B55570  40.510  29.965   7.350
 7624POPC   NC355571   1.960  28.366   5.550
 7624POPC   PO455572   1.978  28.328   5.850
 7624POPC   GL155573   1.979  28.338   6.150
 7624POPC   GL255574   2.106  28.320   6.150
 7624POPC   C1A55575   1.999  28.357   6.450
 7624POPC   D2A55576   1.974  28.351   6.750
 7624POPC   C3A55577   1.975  28.350   7.050
 7624POPC   C4A55578   1.987  28.379   7.350
 7624POPC   C1B55579   2.174  28.148   6.450
 7624POPC   C2B55580   2.149  28.158   6.750
 7624POPC   C3B55581   2.121  28.138   7.050
 7624POPC   C4B55582   2.120  28.194   7.350
 7625POPC   NC355583  20.653  19.796   5.550
 7625POPC   PO455584  20.627  19.856   5.850
 7625POPC   GL155585  20.611  19.878   6.150
 7625POPC   GL255586  20.527  19.772   6.150
 7625POPC   C1A55587  20.650  19.862   6.450
 7625POPC   D2A55588  20.648  19.873   6.750
 7625POPC   C3A55589  20.567  19.822   7.050
 7625POPC   C4A55590  20.626  19.861   7.350
 7625POPC   C1B55591  20.341  19.775   6.450
 7625POPC   C2B55592  20.343  19.817   6.750
 7625POPC   C3B55593  20.389  19.744   7.050
 7625POPC   C4B55594  20.329  19.776   7.350
 7626POPC   NC355595  39.217  42.355   5.550
 7626POPC   PO455596  39.250  42.329   5.850
 7626POPC   GL155597  39.251  42.319   6.150
 7626POPC   GL255598  39.358  42.219   6.150
 7626POPC   C1A55599  39.190  42.325   6.450
 7626POPC   D2A55600  39.195  42.342   6.750
 7626POPC   C3A55601  39.240  42.366   7.050
 7626POPC   C4A55602  39.234  42.289   7.350
 7626POPC   C1B55603  39.458  42.131   6.450
 7626POPC   C2B55604  39.441  42.142   6.750
 7626POPC   C3B55605  39.416  42.207   7.050
 7626POPC   C4B55606  39.379  42.209   7.350
 7627POPC   NC355607  10.519   5.863   5.550
 7627POPC   PO455608  10.503   5.831   5.850
 7627POPC   GL155609  10.552   5.873   6.150
 7627POPC   GL255610  10.403   5.873   6.150
 7627POPC   C1A55611  10.516   5.831   6.450
 7627POPC   D2A55612  10.574   5.899   6.750
 7627POPC   C3A55613  10.495   5.873   7.050
 7627POPC   C4A55614  10.502   5.837   7.350
 7627POPC   C1B55615  10.231   5.827   6.450
 7627POPC   C2B55616  10.231   5.863   6.750
 7627POPC   C3B55617  10.277   5.803   7.050
 7627POPC   C4B55618  10.284   5.801   7.350
 7628POPC   NC355619  37.646  24.537   5.550
 7628POPC   PO455620  37.727  24.463   5.850
 7628POPC   GL155621  37.656  24.479   6.150
 7628POPC   GL255622  37.765  24.393   6.150
 7628POPC   C1A55623  37.645  24.461   6.450
 7628POPC   D2A55624  37.646  24.498   6.750
 7628POPC   C3A55625  37.702  24.462   7.050
 7628POPC   C4A55626  37.674  24.533   7.350
 7628POPC   C1B55627  37.805  24.241   6.450
 7628POPC   C2B55628  37.736  24.212   6.750
 7628POPC   C3B55629  37.751  24.229   7.050
 7628POPC   C4B55630  37.733  24.285   7.350
 7629POPC   NC355631   0.399  17.463   5.550
 7629POPC   PO455632   0.462  17.555   5.850
 7629POPC   GL155633   0.441  17.502   6.150
 7629POPC   GL255634   0.375  17.559   6.150
 7629POPC   C1A55635   0.485  17.539   6.450
 7629POPC   D2A55636   0.488  17.465   6.750
 7629POPC   C3A55637   0.456  17.553   7.050
 7629POPC   C4A55638   0.434  17.472   7.350
 7629POPC   C1B55639   0.180  17.631   6.450
 7629POPC   C2B55640   0.235  17.613   6.750
 7629POPC   C3B55641   0.238  17.668   7.050
 7629POPC   C4B55642   0.172  17.576   7.350
 7630POPC   NC355643  24.539  27.588   5.550
 7630POPC   PO455644  24.522  27.641   5.850
 7630POPC   GL155645  24.449  27.625   6.150
 7630POPC   GL255646  24.506  27.462   6.150
 7630POPC   C1A55647  24.491  27.604   6.450
 7630POPC   D2A55648  24.535  27.584   6.750
 7630POPC   C3A55649  24.488  27.611   7.050
 7630POPC   C4A55650  24.444  27.572   7.350
 7630POPC   C1B55651  24.492  27.347   6.450
 7630POPC   C2B55652  24.534  27.393   6.750
 7630POPC   C3B55653  24.508  27.344   7.050
 7630POPC   C4B55654  24.474  27.332   7.350
 7631POPC   NC355655  14.439   6.687   5.550
 7631POPC   PO455656  14.429   6.642   5.850
 7631POPC   GL155657  14.387   6.687   6.150
 7631POPC   GL255658  14.286   6.599   6.150
 7631POPC   C1A55659  14.363   6.693   6.450
 7631POPC   D2A55660  14.442   6.600   6.750
 7631POPC   C3A55661  14.432   6.694   7.050
 7631POPC   C4A55662  14.373   6.598   7.350
 7631POPC   C1B55663  14.155   6.589   6.450
 7631POPC   C2B55664  14.150   6.599   6.750
 7631POPC   C3B55665  14.189   6.596   7.050
 7631POPC   C4B55666  14.177   6.583   7.350
 7632POPC   NC355667   6.693  10.570   5.550
 7632POPC   PO455668   6.637  10.570   5.850
 7632POPC   GL155669   6.671  10.562   6.150
 7632POPC   GL255670   6.544  10.550   6.150
 7632POPC   C1A55671   6.599  10.562   6.450
 7632POPC   D2A55672   6.671  10.496   6.750
 7632POPC   C3A55673   6.617  10.490   7.050
 7632POPC   C4A55674   6.637  10.492   7.350
 7632POPC   C1B55675   6.400  10.625   6.450
 7632POPC   C2B55676   6.418  10.643   6.750
 7632POPC   C3B55677   6.421  10.575   7.050
 7632POPC   C4B55678   6.378  10.654   7.350
 7633POPC   NC355679  14.437  12.039   5.550
 7633POPC   PO455680  14.427  12.124   5.850
 7633POPC   GL155681  14.436  12.078   6.150
 7633POPC   GL255682  14.519  12.047   6.150
 7633POPC   C1A55683  14.443  12.108   6.450
 7633POPC   D2A55684  14.439  12.051   6.750
 7633POPC   C3A55685  14.404  12.042   7.050
 7633POPC   C4A55686  14.442  12.033   7.350
 7633POPC   C1B55687  14.587  11.996   6.450
 7633POPC   C2B55688  14.626  11.925   6.750
 7633POPC   C3B55689  14.624  11.985   7.050
 7633POPC   C4B55690  14.647  11.924   7.350
 7634POPC   NC355691  39.988   5.058   5.550
 7634POPC   PO455692  39.965   5.092   5.850
 7634POPC   GL155693  40.024   5.095   6.150
 7634POPC   GL255694  39.963   5.025   6.150
 7634POPC   C1A55695  39.979   5.122   6.450
 7634POPC   D2A55696  40.052   5.053   6.750
 7634POPC   C3A55697  40.049   5.107   7.050
 7634POPC   C4A55698  39.981   5.071   7.350
 7634POPC   C1B55699  39.900   4.849   6.450
 7634POPC   C2B55700  39.884   4.899   6.750
 7634POPC   C3B55701  39.814   4.887   7.050
 7634POPC   C4B55702  39.815   4.925   7.350
 7635POPC   NC355703  30.661  12.813   5.550
 7635POPC   PO455704  30.650  12.809   5.850
 7635POPC   GL155705  30.686  12.889   6.150
 7635POPC   GL255706  30.558  12.810   6.150
 7635POPC   C1A55707  30.656  12.873   6.450
 7635POPC   D2A55708  30.684  12.840   6.750
 7635POPC   C3A55709  30.669  12.887   7.050
 7635POPC   C4A55710  30.678  12.901   7.350
 7635POPC   C1B55711  30.453  12.747   6.450
 7635POPC   C2B55712  30.471  12.732   6.750
 7635POPC   C3B55713  30.499  12.705   7.050
 7635POPC   C4B55714  30.445  12.684   7.350
 7636POPC   NC355715  27.584  43.120   5.550
 7636POPC   PO455716  27.593  43.100   5.850
 7636POPC   GL155717  27.638  43.072   6.150
 7636POPC   GL255718  27.592  42.987   6.150
 7636POPC   C1A55719  27.593  43.129   6.450
 7636POPC   D2A55720  27.634  43.093   6.750
 7636POPC   C3A55721  27.558  43.066   7.050
 7636POPC   C4A55722  27.614  43.084   7.350
 7636POPC   C1B55723  27.590  42.835   6.450
 7636POPC   C2B55724  27.650  42.868   6.750
 7636POPC   C3B55725  27.598  42.871   7.050
 7636POPC   C4B55726  27.637  42.892   7.350
 7637POPC   NC355727  36.866  39.967   5.550
 7637POPC   PO455728  36.924  40.055   5.850
 7637POPC   GL155729  36.901  39.994   6.150
 7637POPC   GL255730  36.904  39.903   6.150
 7637POPC   C1A55731  36.931  40.014   6.450
 7637POPC   D2A55732  36.872  39.976   6.750
 7637POPC   C3A55733  36.854  40.050   7.050
 7637POPC   C4A55734  36.895  40.017   7.350
 7637POPC   C1B55735  37.033  39.804   6.450
 7637POPC   C2B55736  36.960  39.724   6.750
 7637POPC   C3B55737  37.031  39.802   7.050
 7637POPC   C4B55738  37.001  39.804   7.350
 7638POPC   NC355739   7.410  31.508   5.550
 7638POPC   PO455740   7.413  31.468   5.850
 7638POPC   GL155741   7.452  31.491   6.150
 7638POPC   GL255742   7.436  31.599   6.150
 7638POPC   C1A55743   7.382  31.437   6.450
 7638POPC   D2A55744   7.449  31.487   6.750
 7638POPC   C3A55745   7.457  31.427   7.050
 7638POPC   C4A55746   7.415  31.481   7.350
 7638POPC   C1B55747   7.442  31.684   6.450
 7638POPC   C2B55748   7.411  31.698   6.750
 7638POPC   C3B55749   7.399  31.737   7.050
 7638POPC   C4B55750   7.372  31.741   7.350
 7639POPC   NC355751  32.239  27.596   5.550
 7639POPC   PO455752  32.276  27.641   5.850
 7639POPC   GL155753  32.237  27.611   6.150
 7639POPC   GL255754  32.374  27.665   6.150
 7639POPC   C1A55755  32.201  27.628   6.450
 7639POPC   D2A55756  32.200  27.584   6.750
 7639POPC   C3A55757  32.211  27.571   7.050
 7639POPC   C4A55758  32.218  27.620   7.350
 7639POPC   C1B55759  32.454  27.679   6.450
 7639POPC   C2B55760  32.528  27.656   6.750
 7639POPC   C3B55761  32.522  27.687   7.050
 7639POPC   C4B55762  32.517  27.637   7.350
 7640POPC   NC355763   0.402  43.897   5.550
 7640POPC   PO455764   0.482  43.867   5.850
 7640POPC   GL155765   0.407  43.931   6.150
 7640POPC   GL255766   0.580  43.790   6.150
 7640POPC   C1A55767   0.477  43.934   6.450
 7640POPC   D2A55768   0.463  43.935   6.750
 7640POPC   C3A55769   0.412  43.909   7.050
 7640POPC   C4A55770   0.405  43.883   7.350
 7640POPC   C1B55771   0.664  43.737   6.450
 7640POPC   C2B55772   0.686  43.783   6.750
 7640POPC   C3B55773   0.684  43.707   7.050
 7640POPC   C4B55774   0.613  43.746   7.350
 7641POPC   NC355775  26.030  26.811   5.550
 7641POPC   PO455776  26.024  26.775   5.850
 7641POPC   GL155777  26.031  26.793   6.150
 7641POPC   GL255778  26.021  26.686   6.150
 7641POPC   C1A55779  26.015  26.800   6.450
 7641POPC   D2A55780  26.038  26.859   6.750
 7641POPC   C3A55781  26.023  26.771   7.050
 7641POPC   C4A55782  26.048  26.815   7.350
 7641POPC   C1B55783  25.954  26.630   6.450
 7641POPC   C2B55784  25.912  26.599   6.750
 7641POPC   C3B55785  25.946  26.648   7.050
 7641POPC   C4B55786  25.904  26.563   7.350
 7642POPC   NC355787   4.305  19.820   5.550
 7642POPC   PO455788   4.312  19.856   5.850
 7642POPC   GL155789   4.322  19.795   6.150
 7642POPC   GL255790   4.423  19.861   6.150
 7642POPC   C1A55791   4.355  19.863   6.450
 7642POPC   D2A55792   4.334  19.837   6.750
 7642POPC   C3A55793   4.288  19.881   7.050
 7642POPC   C4A55794   4.338  19.826   7.350
 7642POPC   C1B55795   4.548  19.827   6.450
 7642POPC   C2B55796   4.590  19.780   6.750
 7642POPC   C3B55797   4.550  19.772   7.050
 7642POPC   C4B55798   4.524  19.824   7.350
 7643POPC   NC355799  39.237   0.412   5.550
 7643POPC   PO455800  39.229   0.396   5.850
 7643POPC   GL155801  39.195   0.390   6.150
 7643POPC   GL255802  39.304   0.488   6.150
 7643POPC   C1A55803  39.274   0.400   6.450
 7643POPC   D2A55804  39.268   0.485   6.750
 7643POPC   C3A55805  39.200   0.446   7.050
 7643POPC   C4A55806  39.275   0.429   7.350
 7643POPC   C1B55807  39.440   0.522   6.450
 7643POPC   C2B55808  39.441   0.485   6.750
 7643POPC   C3B55809  39.427   0.534   7.050
 7643POPC   C4B55810  39.472   0.557   7.350
 7644POPC   NC355811  28.402  31.506   5.550
 7644POPC   PO455812  28.363  31.477   5.850
 7644POPC   GL155813  28.398  31.491   6.150
 7644POPC   GL255814  28.375  31.612   6.150
 7644POPC   C1A55815  28.403  31.483   6.450
 7644POPC   D2A55816  28.366  31.505   6.750
 7644POPC   C3A55817  28.365  31.469   7.050
 7644POPC   C4A55818  28.360  31.487   7.350
 7644POPC   C1B55819  28.372  31.686   6.450
 7644POPC   C2B55820  28.383  31.749   6.750
 7644POPC   C3B55821  28.383  31.721   7.050
 7644POPC   C4B55822  28.397  31.761   7.350
 7645POPC   NC355823   8.969  41.598   5.550
 7645POPC   PO455824   8.926  41.523   5.850
 7645POPC   GL155825   9.010  41.600   6.150
 7645POPC   GL255826   8.900  41.501   6.150
 7645POPC   C1A55827   9.022  41.560   6.450
 7645POPC   D2A55828   8.932  41.553   6.750
 7645POPC   C3A55829   8.937  41.593   7.050
 7645POPC   C4A55830   8.957  41.525   7.350
 7645POPC   C1B55831   8.749  41.466   6.450
 7645POPC   C2B55832   8.788  41.416   6.750
 7645POPC   C3B55833   8.797  41.459   7.050
 7645POPC   C4B55834   8.786  41.413   7.350
 7646POPC   NC355835  43.134  34.615   5.550
 7646POPC   PO455836  43.121  34.618   5.850
 7646POPC   GL155837  43.143  34.596   6.150
 7646POPC   GL255838  43.114  34.660   6.150
 7646POPC   C1A55839  43.153  34.537   6.450
 7646POPC   D2A55840  43.119  34.586   6.750
 7646POPC   C3A55841  43.106  34.588   7.050
 7646POPC   C4A55842  43.070  34.577   7.350
 7646POPC   C1B55843  43.012  34.797   6.450
 7646POPC   C2B55844  42.995  34.798   6.750
 7646POPC   C3B55845  43.052  34.801   7.050
 7646POPC   C4B55846  43.018  34.792   7.350
 7647POPC   NC355847  41.598  11.282   5.550
 7647POPC   PO455848  41.534  11.326   5.850
 7647POPC   GL155849  41.571  11.347   6.150
 7647POPC   GL255850  41.546  11.209   6.150
 7647POPC   C1A55851  41.583  11.255   6.450
 7647POPC   D2A55852  41.513  11.263   6.750
 7647POPC   C3A55853  41.509  11.276   7.050
 7647POPC   C4A55854  41.552  11.318   7.350
 7647POPC   C1B55855  41.511  11.051   6.450
 7647POPC   C2B55856  41.534  11.033   6.750
 7647POPC   C3B55857  41.518  11.087   7.050
 7647POPC   C4B55858  41.552  11.018   7.350
 7648POPC   NC355859  36.922   5.819   5.550
 7648POPC   PO455860  36.924   5.848   5.850
 7648POPC   GL155861  36.907   5.899   6.150
 7648POPC   GL255862  36.828   5.740   6.150
 7648POPC   C1A55863  36.855   5.848   6.450
 7648POPC   D2A55864  36.864   5.858   6.750
 7648POPC   C3A55865  36.900   5.847   7.050
 7648POPC   C4A55866  36.907   5.898   7.350
 7648POPC   C1B55867  36.758   5.622   6.450
 7648POPC   C2B55868  36.820   5.661   6.750
 7648POPC   C3B55869  36.825   5.618   7.050
 7648POPC   C4B55870  36.789   5.611   7.350
 7649POPC   NC355871  11.265  44.645   5.550
 7649POPC   PO455872  11.333  44.708   5.850
 7649POPC   GL155873  11.342  44.645   6.150
 7649POPC   GL255874  11.242  44.707   6.150
 7649POPC   C1A55875  11.308  44.646   6.450
 7649POPC   D2A55876  11.326  44.631   6.750
 7649POPC   C3A55877  11.301  44.688   7.050
 7649POPC   C4A55878  11.331  44.692   7.350
 7649POPC   C1B55879  11.142  44.819   6.450
 7649POPC   C2B55880  11.090  44.767   6.750
 7649POPC   C3B55881  11.113  44.806   7.050
 7649POPC   C4B55882  11.061  44.757   7.350
 7650POPC   NC355883   0.476  19.012   5.550
 7650POPC   PO455884   0.438  19.047   5.850
 7650POPC   GL155885   0.415  19.017   6.150
 7650POPC   GL255886   0.434  18.910   6.150
 7650POPC   C1A55887   0.472  19.045   6.450
 7650POPC   D2A55888   0.477  19.047   6.750
 7650POPC   C3A55889   0.468  19.055   7.050
 7650POPC   C4A55890   0.464  19.065   7.350
 7650POPC   C1B55891   0.540  18.839   6.450
 7650POPC   C2B55892   0.525  18.856   6.750
 7650POPC   C3B55893   0.490  18.821   7.050
 7650POPC   C4B55894   0.541  18.818   7.350
 7651POPC   NC355895  18.247  13.651   5.550
 7651POPC   PO455896  18.283  13.667   5.850
 7651POPC   GL155897  18.248  13.637   6.150
 7651POPC   GL255898  18.352  13.515   6.150
 7651POPC   C1A55899  18.255  13.677   6.450
 7651POPC   D2A55900  18.330  13.595   6.750
 7651POPC   C3A55901  18.327  13.640   7.050
 7651POPC   C4A55902  18.282  13.581   7.350
 7651POPC   C1B55903  18.360  13.421   6.450
 7651POPC   C2B55904  18.380  13.405   6.750
 7651POPC   C3B55905  18.364  13.410   7.050
 7651POPC   C4B55906  18.347  13.357   7.350
 7652POPC   NC355907  28.418  11.325   5.550
 7652POPC   PO455908  28.419  11.324   5.850
 7652POPC   GL155909  28.358  11.328   6.150
 7652POPC   GL255910  28.383  11.446   6.150
 7652POPC   C1A55911  28.399  11.307   6.450
 7652POPC   D2A55912  28.416  11.347   6.750
 7652POPC   C3A55913  28.336  11.281   7.050
 7652POPC   C4A55914  28.387  11.256   7.350
 7652POPC   C1B55915  28.427  11.518   6.450
 7652POPC   C2B55916  28.341  11.562   6.750
 7652POPC   C3B55917  28.396  11.563   7.050
 7652POPC   C4B55918  28.431  11.591   7.350
 7653POPC   NC355919  19.867   5.908   5.550
 7653POPC   PO455920  19.854   5.891   5.850
 7653POPC   GL155921  19.879   5.824   6.150
 7653POPC   GL255922  19.977   5.933   6.150
 7653POPC   C1A55923  19.836   5.868   6.450
 7653POPC   D2A55924  19.868   5.856   6.750
 7653POPC   C3A55925  19.792   5.866   7.050
 7653POPC   C4A55926  19.804   5.911   7.350
 7653POPC   C1B55927  20.040   5.950   6.450
 7653POPC   C2B55928  20.111   5.954   6.750
 7653POPC   C3B55929  20.120   5.896   7.050
 7653POPC   C4B55930  20.032   5.907   7.350
 7654POPC   NC355931  38.466  35.351   5.550
 7654POPC   PO455932  38.460  35.329   5.850
 7654POPC   GL155933  38.483  35.321   6.150
 7654POPC   GL255934  38.357  35.406   6.150
 7654POPC   C1A55935  38.492  35.341   6.450
 7654POPC   D2A55936  38.484  35.344   6.750
 7654POPC   C3A55937  38.489  35.327   7.050
 7654POPC   C4A55938  38.486  35.357   7.350
 7654POPC   C1B55939  38.229  35.350   6.450
 7654POPC   C2B55940  38.201  35.389   6.750
 7654POPC   C3B55941  38.201  35.381   7.050
 7654POPC   C4B55942  38.169  35.381   7.350
 7655POPC   NC355943   5.122   5.847   5.550
 7655POPC   PO455944   5.096   5.869   5.850
 7655POPC   GL155945   5.054   5.842   6.150
 7655POPC   GL255946   5.164   5.949   6.150
 7655POPC   C1A55947   5.047   5.895   6.450
 7655POPC   D2A55948   5.047   5.913   6.750
 7655POPC   C3A55949   5.102   5.835   7.050
 7655POPC   C4A55950   5.091   5.843   7.350
 7655POPC   C1B55951   5.269   6.040   6.450
 7655POPC   C2B55952   5.240   6.122   6.750
 7655POPC   C3B55953   5.226   6.049   7.050
 7655POPC   C4B55954   5.267   6.109   7.350
 7656POPC   NC355955  15.947  30.701   5.550
 7656POPC   PO455956  15.972  30.684   5.850
 7656POPC   GL155957  15.959  30.683   6.150
 7656POPC   GL255958  16.068  30.725   6.150
 7656POPC   C1A55959  15.912  30.647   6.450
 7656POPC   D2A55960  15.974  30.677   6.750
 7656POPC   C3A55961  15.959  30.665   7.050
 7656POPC   C4A55962  15.975  30.665   7.350
 7656POPC   C1B55963  16.223  30.737   6.450
 7656POPC   C2B55964  16.186  30.809   6.750
 7656POPC   C3B55965  16.214  30.774   7.050
 7656POPC   C4B55966  16.239  30.737   7.350
 7657POPC   NC355967  36.872  43.079   5.550
 7657POPC   PO455968  36.890  43.074   5.850
 7657POPC   GL155969  36.934  43.126   6.150
 7657POPC   GL255970  36.978  43.207   6.150
 7657POPC   C1A55971  36.855  43.126   6.450
 7657POPC   D2A55972  36.913  43.067   6.750
 7657POPC   C3A55973  36.887  43.066   7.050
 7657POPC   C4A55974  36.911  43.141   7.350
 7657POPC   C1B55975  37.139  43.231   6.450
 7657POPC   C2B55976  37.106  43.295   6.750
 7657POPC   C3B55977  37.130  43.312   7.050
 7657POPC   C4B55978  37.090  43.251   7.350
 7658POPC   NC355979  40.821  12.815   5.550
 7658POPC   PO455980  40.763  12.852   5.850
 7658POPC   GL155981  40.748  12.813   6.150
 7658POPC   GL255982  40.844  12.775   6.150
 7658POPC   C1A55983  40.754  12.805   6.450
 7658POPC   D2A55984  40.755  12.879   6.750
 7658POPC   C3A55985  40.755  12.823   7.050
 7658POPC   C4A55986  40.790  12.803   7.350
 7658POPC   C1B55987  40.966  12.656   6.450
 7658POPC   C2B55988  40.959  12.665   6.750
 7658POPC   C3B55989  40.931  12.638   7.050
 7658POPC   C4B55990  40.957  12.677   7.350
 7659POPC   NC355991  22.900  42.359   5.550
 7659POPC   PO455992  22.920  42.383   5.850
 7659POPC   GL155993  22.932  42.343   6.150
 7659POPC   GL255994  23.032  42.399   6.150
 7659POPC   C1A55995  22.905  42.306   6.450
 7659POPC   D2A55996  22.892  42.313   6.750
 7659POPC   C3A55997  22.927  42.344   7.050
 7659POPC   C4A55998  22.945  42.337   7.350
 7659POPC   C1B55999  23.175  42.453   6.450
 7659POPC   C2B56000  23.112  42.482   6.750
 7659POPC   C3B56001  23.123  42.513   7.050
 7659POPC   C4B56002  23.179  42.533   7.350
 7660POPC   NC356003  25.233  19.045   5.550
 7660POPC   PO456004  25.294  19.052   5.850
 7660POPC   GL156005  25.279  19.057   6.150
 7660POPC   GL256006  25.348  19.150   6.150
 7660POPC   C1A56007  25.268  19.020   6.450
 7660POPC   D2A56008  25.295  19.086   6.750
 7660POPC   C3A56009  25.233  19.010   7.050
 7660POPC   C4A56010  25.256  19.090   7.350
 7660POPC   C1B56011  25.376  19.261   6.450
 7660POPC   C2B56012  25.394  19.309   6.750
 7660POPC   C3B56013  25.357  19.233   7.050
 7660POPC   C4B56014  25.434  19.253   7.350
 7661POPC   NC356015   7.384  29.115   5.550
 7661POPC   PO456016   7.459  29.105   5.850
 7661POPC   GL156017   7.400  29.179   6.150
 7661POPC   GL256018   7.362  29.289   6.150
 7661POPC   C1A56019   7.408  29.118   6.450
 7661POPC   D2A56020   7.430  29.144   6.750
 7661POPC   C3A56021   7.457  29.139   7.050
 7661POPC   C4A56022   7.398  29.194   7.350
 7661POPC   C1B56023   7.279  29.351   6.450
 7661POPC   C2B56024   7.257  29.389   6.750
 7661POPC   C3B56025   7.321  29.386   7.050
 7661POPC   C4B56026   7.258  29.348   7.350
 7662POPC   NC356027   3.589   2.733   5.550
 7662POPC   PO456028   3.576   2.724   5.850
 7662POPC   GL156029   3.577   2.777   6.150
 7662POPC   GL256030   3.560   2.697   6.150
 7662POPC   C1A56031   3.555   2.740   6.450
 7662POPC   D2A56032   3.529   2.776   6.750
 7662POPC   C3A56033   3.501   2.738   7.050
 7662POPC   C4A56034   3.512   2.768   7.350
 7662POPC   C1B56035   3.665   2.510   6.450
 7662POPC   C2B56036   3.652   2.534   6.750
 7662POPC   C3B56037   3.666   2.504   7.050
 7662POPC   C4B56038   3.675   2.521   7.350
 7663POPC   NC356039  36.900   3.532   5.550
 7663POPC   PO456040  36.943   3.520   5.850
 7663POPC   GL156041  36.894   3.577   6.150
 7663POPC   GL256042  36.899   3.380   6.150
 7663POPC   C1A56043  36.929   3.574   6.450
 7663POPC   D2A56044  36.939   3.491   6.750
 7663POPC   C3A56045  36.894   3.576   7.050
 7663POPC   C4A56046  36.873   3.537   7.350
 7663POPC   C1B56047  36.877   3.313   6.450
 7663POPC   C2B56048  36.915   3.333   6.750
 7663POPC   C3B56049  36.827   3.330   7.050
 7663POPC   C4B56050  36.849   3.333   7.350
 7664POPC   NC356051   8.221  26.840   5.550
 7664POPC   PO456052   8.198  26.828   5.850
 7664POPC   GL156053   8.195  26.867   6.150
 7664POPC   GL256054   8.097  26.703   6.150
 7664POPC   C1A56055   8.185  26.805   6.450
 7664POPC   D2A56056   8.226  26.809   6.750
 7664POPC   C3A56057   8.209  26.858   7.050
 7664POPC   C4A56058   8.157  26.851   7.350
 7664POPC   C1B56059   8.083  26.641   6.450
 7664POPC   C2B56060   8.085  26.648   6.750
 7664POPC   C3B56061   8.019  26.608   7.050
 7664POPC   C4B56062   8.007  26.644   7.350
 7665POPC   NC356063  41.525  20.608   5.550
 7665POPC   PO456064  41.559  20.650   5.850
 7665POPC   GL156065  41.583  20.657   6.150
 7665POPC   GL256066  41.647  20.481   6.150
 7665POPC   C1A56067  41.593  20.593   6.450
 7665POPC   D2A56068  41.608  20.601   6.750
 7665POPC   C3A56069  41.523  20.616   7.050
 7665POPC   C4A56070  41.607  20.575   7.350
 7665POPC   C1B56071  41.703  20.422   6.450
 7665POPC   C2B56072  41.644  20.359   6.750
 7665POPC   C3B56073  41.632  20.397   7.050
 7665POPC   C4B56074  41.635  20.381   7.350
 7666POPC   NC356075  36.915  36.118   5.550
 7666POPC   PO456076  36.894  36.145   5.850
 7666POPC   GL156077  36.907  36.148   6.150
 7666POPC   GL256078  36.747  36.130   6.150
 7666POPC   C1A56079  36.867  36.140   6.450
 7666POPC   D2A56080  36.947  36.164   6.750
 7666POPC   C3A56081  36.921  36.106   7.050
 7666POPC   C4A56082  36.900  36.132   7.350
 7666POPC   C1B56083  36.678  36.035   6.450
 7666POPC   C2B56084  36.662  36.078   6.750
 7666POPC   C3B56085  36.632  36.009   7.050
 7666POPC   C4B56086  36.694  36.081   7.350
 7667POPC   NC356087   9.797  43.876   5.550
 7667POPC   PO456088   9.740  43.927   5.850
 7667POPC   GL156089   9.763  43.902   6.150
 7667POPC   GL256090   9.637  43.790   6.150
 7667POPC   C1A56091   9.721  43.836   6.450
 7667POPC   D2A56092   9.713  43.876   6.750
 7667POPC   C3A56093   9.727  43.918   7.050
 7667POPC   C4A56094   9.715  43.844   7.350
 7667POPC   C1B56095   9.476  43.829   6.450
 7667POPC   C2B56096   9.471  43.807   6.750
 7667POPC   C3B56097   9.496  43.784   7.050
 7667POPC   C4B56098   9.500  43.791   7.350
 7668POPC   NC356099   5.839  17.552   5.550
 7668POPC   PO456100   5.821  17.473   5.850
 7668POPC   GL156101   5.896  17.510   6.150
 7668POPC   GL256102   5.812  17.413   6.150
 7668POPC   C1A56103   5.878  17.472   6.450
 7668POPC   D2A56104   5.888  17.502   6.750
 7668POPC   C3A56105   5.871  17.517   7.050
 7668POPC   C4A56106   5.842  17.459   7.350
 7668POPC   C1B56107   5.772  17.242   6.450
 7668POPC   C2B56108   5.825  17.213   6.750
 7668POPC   C3B56109   5.829  17.223   7.050
 7668POPC   C4B56110   5.778  17.282   7.350
 7669POPC   NC356111  24.463  40.830   5.550
 7669POPC   PO456112  24.499  40.821   5.850
 7669POPC   GL156113  24.481  40.820   6.150
 7669POPC   GL256114  24.635  40.795   6.150
 7669POPC   C1A56115  24.512  40.773   6.450
 7669POPC   D2A56116  24.445  40.831   6.750
 7669POPC   C3A56117  24.528  40.826   7.050
 7669POPC   C4A56118  24.470  40.813   7.350
 7669POPC   C1B56119  24.748  40.761   6.450
 7669POPC   C2B56120  24.698  40.773   6.750
 7669POPC   C3B56121  24.715  40.763   7.050
 7669POPC   C4B56122  24.751  40.837   7.350
 7670POPC   NC356123  36.934   5.091   5.550
 7670POPC   PO456124  36.877   5.137   5.850
 7670POPC   GL156125  36.906   5.127   6.150
 7670POPC   GL256126  36.830   5.136   6.150
 7670POPC   C1A56127  36.934   5.067   6.450
 7670POPC   D2A56128  36.881   5.071   6.750
 7670POPC   C3A56129  36.861   5.058   7.050
 7670POPC   C4A56130  36.870   5.132   7.350
 7670POPC   C1B56131  36.686   5.211   6.450
 7670POPC   C2B56132  36.721   5.263   6.750
 7670POPC   C3B56133  36.742   5.244   7.050
 7670POPC   C4B56134  36.695   5.241   7.350
 7671POPC   NC356135   5.068  20.627   5.550
 7671POPC   PO456136   5.074  20.590   5.850
 7671POPC   GL156137   5.069  20.640   6.150
 7671POPC   GL256138   4.985  20.542   6.150
 7671POPC   C1A56139   5.055  20.585   6.450
 7671POPC   D2A56140   5.077  20.655   6.750
 7671POPC   C3A56141   5.087  20.645   7.050
 7671POPC   C4A56142   5.129  20.611   7.350
 7671POPC   C1B56143   4.951  20.416   6.450
 7671POPC   C2B56144   4.911  20.401   6.750
 7671POPC   C3B56145   4.953  20.478   7.050
 7671POPC   C4B56146   4.902  20.391   7.350
 7672POPC   NC356147  12.070   2.727   5.550
 7672POPC   PO456148  12.041   2.803   5.850
 7672POPC   GL156149  12.059   2.731   6.150
 7672POPC   GL256150  12.171   2.862   6.150
 7672POPC   C1A56151  12.107   2.776   6.450
 7672POPC   D2A56152  12.043   2.763   6.750
 7672POPC   C3A56153  12.083   2.781   7.050
 7672POPC   C4A56154  12.045   2.749   7.350
 7672POPC   C1B56155  12.276   2.840   6.450
 7672POPC   C2B56156  12.255   2.914   6.750
 7672POPC   C3B56157  12.254   2.818   7.050
 7672POPC   C4B56158  12.277   2.877   7.350
 7673POPC   NC356159  41.518   8.956   5.550
 7673POPC   PO456160  41.548   8.978   5.850
 7673POPC   GL156161  41.536   8.970   6.150
 7673POPC   GL256162  41.579   9.068   6.150
 7673POPC   C1A56163  41.544   8.982   6.450
 7673POPC   D2A56164  41.550   8.989   6.750
 7673POPC   C3A56165  41.532   9.007   7.050
 7673POPC   C4A56166  41.538   9.015   7.350
 7673POPC   C1B56167  41.538   9.209   6.450
 7673POPC   C2B56168  41.605   9.177   6.750
 7673POPC   C3B56169  41.555   9.206   7.050
 7673POPC   C4B56170  41.612   9.259   7.350
 7674POPC   NC356171  12.812  44.649   5.550
 7674POPC   PO456172  12.865  44.688   5.850
 7674POPC   GL156173  12.873  44.691   6.150
 7674POPC   GL256174  12.794  44.711   6.150
 7674POPC   C1A56175  12.886  44.613   6.450
 7674POPC   D2A56176  12.865  44.639   6.750
 7674POPC   C3A56177  12.832  44.705   7.050
 7674POPC   C4A56178  12.897  44.622   7.350
 7674POPC   C1B56179  12.662  44.883   6.450
 7674POPC   C2B56180  12.652  44.888   6.750
 7674POPC   C3B56181  12.672  44.871   7.050
 7674POPC   C4B56182  12.675  44.803   7.350
 7675POPC   NC356183  41.589  27.605   5.550
 7675POPC   PO456184  41.607  27.587   5.850
 7675POPC   GL156185  41.583  27.620   6.150
 7675POPC   GL256186  41.480  27.691   6.150
 7675POPC   C1A56187  41.555  27.618   6.450
 7675POPC   D2A56188  41.588  27.637   6.750
 7675POPC   C3A56189  41.578  27.570   7.050
 7675POPC   C4A56190  41.585  27.624   7.350
 7675POPC   C1B56191  41.462  27.800   6.450
 7675POPC   C2B56192  41.440  27.822   6.750
 7675POPC   C3B56193  41.422  27.856   7.050
 7675POPC   C4B56194  41.446  27.848   7.350
 7676POPC   NC356195   8.951  26.055   5.550
 7676POPC   PO456196   8.993  25.995   5.850
 7676POPC   GL156197   9.004  26.021   6.150
 7676POPC   GL256198   8.977  25.922   6.150
 7676POPC   C1A56199   8.940  26.073   6.450
 7676POPC   D2A56200   8.977  26.058   6.750
 7676POPC   C3A56201   9.017  26.085   7.050
 7676POPC   C4A56202   8.989  25.999   7.350
 7676POPC   C1B56203   9.102  25.766   6.450
 7676POPC   C2B56204   9.091  25.769   6.750
 7676POPC   C3B56205   9.029  25.825   7.050
 7676POPC   C4B56206   9.082  25.844   7.350
 7677POPC   NC356207  34.622  29.941   5.550
 7677POPC   PO456208  34.572  29.936   5.850
 7677POPC   GL156209  34.557  29.967   6.150
 7677POPC   GL256210  34.631  30.033   6.150
 7677POPC   C1A56211  34.625  29.901   6.450
 7677POPC   D2A56212  34.595  29.871   6.750
 7677POPC   C3A56213  34.541  29.947   7.050
 7677POPC   C4A56214  34.566  29.923   7.350
 7677POPC   C1B56215  34.809  30.102   6.450
 7677POPC   C2B56216  34.761  30.083   6.750
 7677POPC   C3B56217  34.788  30.103   7.050
 7677POPC   C4B56218  34.785  30.093   7.350
 7678POPC   NC356219   9.757  40.050   5.550
 7678POPC   PO456220   9.771  40.036   5.850
 7678POPC   GL156221   9.711  40.013   6.150
 7678POPC   GL256222   9.671  39.875   6.150
 7678POPC   C1A56223   9.770  40.050   6.450
 7678POPC   D2A56224   9.713  40.025   6.750
 7678POPC   C3A56225   9.733  39.991   7.050
 7678POPC   C4A56226   9.777  39.986   7.350
 7678POPC   C1B56227   9.703  39.766   6.450
 7678POPC   C2B56228   9.726  39.768   6.750
 7678POPC   C3B56229   9.703  39.745   7.050
 7678POPC   C4B56230   9.716  39.811   7.350
 7679POPC   NC356231  24.468   0.421   5.550
 7679POPC   PO456232  24.461   0.459   5.850
 7679POPC   GL156233  24.496   0.435   6.150
 7679POPC   GL256234  24.459   0.544   6.150
 7679POPC   C1A56235  24.523   0.472   6.450
 7679POPC   D2A56236  24.538   0.450   6.750
 7679POPC   C3A56237  24.467   0.456   7.050
 7679POPC   C4A56238  24.458   0.468   7.350
 7679POPC   C1B56239  24.447   0.676   6.450
 7679POPC   C2B56240  24.458   0.700   6.750
 7679POPC   C3B56241  24.482   0.718   7.050
 7679POPC   C4B56242  24.461   0.677   7.350
 7680POPC   NC356243  41.533  18.243   5.550
 7680POPC   PO456244  41.561  18.243   5.850
 7680POPC   GL156245  41.594  18.245   6.150
 7680POPC   GL256246  41.615  18.140   6.150
 7680POPC   C1A56247  41.514  18.246   6.450
 7680POPC   D2A56248  41.523  18.299   6.750
 7680POPC   C3A56249  41.570  18.246   7.050
 7680POPC   C4A56250  41.581  18.278   7.350
 7680POPC   C1B56251  41.719  18.086   6.450
 7680POPC   C2B56252  41.712  18.099   6.750
 7680POPC   C3B56253  41.693  18.074   7.050
 7680POPC   C4B56254  41.675  18.073   7.350
 7681POPC   NC356255   7.409   2.725   5.550
 7681POPC   PO456256   7.428   2.753   5.850
 7681POPC   GL156257   7.378   2.735   6.150
 7681POPC   GL256258   7.438   2.887   6.150
 7681POPC   C1A56259   7.433   2.754   6.450
 7681POPC   D2A56260   7.462   2.741   6.750
 7681POPC   C3A56261   7.463   2.748   7.050
 7681POPC   C4A56262   7.382   2.788   7.350
 7681POPC   C1B56263   7.588   2.961   6.450
 7681POPC   C2B56264   7.555   2.970   6.750
 7681POPC   C3B56265   7.507   2.942   7.050
 7681POPC   C4B56266   7.554   2.980   7.350
 7682POPC   NC356267  10.547  23.715   5.550
 7682POPC   PO456268  10.476  23.737   5.850
 7682POPC   GL156269  10.480  23.747   6.150
 7682POPC   GL256270  10.403  23.670   6.150
 7682POPC   C1A56271  10.490  23.729   6.450
 7682POPC   D2A56272  10.571  23.710   6.750
 7682POPC   C3A56273  10.552  23.726   7.050
 7682POPC   C4A56274  10.550  23.748   7.350
 7682POPC   C1B56275  10.300  23.699   6.450
 7682POPC   C2B56276  10.243  23.638   6.750
 7682POPC   C3B56277  10.296  23.701   7.050
 7682POPC   C4B56278  10.253  23.655   7.350
 7683POPC   NC356279  29.935  13.610   5.550
 7683POPC   PO456280  29.890  13.668   5.850
 7683POPC   GL156281  29.945  13.643   6.150
 7683POPC   GL256282  29.981  13.713   6.150
 7683POPC   C1A56283  29.961  13.636   6.450
 7683POPC   D2A56284  29.897  13.596   6.750
 7683POPC   C3A56285  29.883  13.672   7.050
 7683POPC   C4A56286  29.926  13.670   7.350
 7683POPC   C1B56287  30.092  13.766   6.450
 7683POPC   C2B56288  30.171  13.810   6.750
 7683POPC   C3B56289  30.148  13.807   7.050
 7683POPC   C4B56290  30.170  13.751   7.350
 7684POPC   NC356291  21.406  27.590   5.550
 7684POPC   PO456292  21.418  27.590   5.850
 7684POPC   GL156293  21.431  27.611   6.150
 7684POPC   GL256294  21.268  27.632   6.150
 7684POPC   C1A56295  21.427  27.543   6.450
 7684POPC   D2A56296  21.411  27.598   6.750
 7684POPC   C3A56297  21.429  27.544   7.050
 7684POPC   C4A56298  21.397  27.615   7.350
 7684POPC   C1B56299  21.222  27.761   6.450
 7684POPC   C2B56300  21.251  27.804   6.750
 7684POPC   C3B56301  21.215  27.757   7.050
 7684POPC   C4B56302  21.180  27.725   7.350
 7685POPC   NC356303  17.459  37.687   5.550
 7685POPC   PO456304  17.504  37.695   5.850
 7685POPC   GL156305  17.514  37.687   6.150
 7685POPC   GL256306  17.580  37.801   6.150
 7685POPC   C1A56307  17.548  37.692   6.450
 7685POPC   D2A56308  17.516  37.701   6.750
 7685POPC   C3A56309  17.487  37.725   7.050
 7685POPC   C4A56310  17.552  37.632   7.350
 7685POPC   C1B56311  17.585  37.890   6.450
 7685POPC   C2B56312  17.615  37.932   6.750
 7685POPC   C3B56313  17.606  37.864   7.050
 7685POPC   C4B56314  17.627  37.864   7.350
 7686POPC   NC356315   1.948  24.452   5.550
 7686POPC   PO456316   2.015  24.513   5.850
 7686POPC   GL156317   1.940  24.494   6.150
 7686POPC   GL256318   2.142  24.568   6.150
 7686POPC   C1A56319   1.946  24.524   6.450
 7686POPC   D2A56320   1.984  24.476   6.750
 7686POPC   C3A56321   2.014  24.511   7.050
 7686POPC   C4A56322   1.946  24.472   7.350
 7686POPC   C1B56323   2.259  24.551   6.450
 7686POPC   C2B56324   2.201  24.581   6.750
 7686POPC   C3B56325   2.176  24.598   7.050
 7686POPC   C4B56326   2.211  24.558   7.350
 7687POPC   NC356327   3.558  44.643   5.550
 7687POPC   PO456328   3.516  44.654   5.850
 7687POPC   GL156329   3.557  44.644   6.150
 7687POPC   GL256330   3.459  44.589   6.150
 7687POPC   C1A56331   3.527  44.647   6.450
 7687POPC   D2A56332   3.493  44.698   6.750
 7687POPC   C3A56333   3.554  44.669   7.050
 7687POPC   C4A56334   3.494  44.637   7.350
 7687POPC   C1B56335   3.351  44.495   6.450
 7687POPC   C2B56336   3.365  44.415   6.750
 7687POPC   C3B56337   3.437  44.423   7.050
 7687POPC   C4B56338   3.422  44.440   7.350
 7688POPC   NC356339  42.288  25.297   5.550
 7688POPC   PO456340  42.309  25.225   5.850
 7688POPC   GL156341  42.330  25.257   6.150
 7688POPC   GL256342  42.405  25.325   6.150
 7688POPC   C1A56343  42.362  25.248   6.450
 7688POPC   D2A56344  42.317  25.291   6.750
 7688POPC   C3A56345  42.345  25.298   7.050
 7688POPC   C4A56346  42.306  25.286   7.350
 7688POPC   C1B56347  42.428  25.446   6.450
 7688POPC   C2B56348  42.472  25.430   6.750
 7688POPC   C3B56349  42.489  25.466   7.050
 7688POPC   C4B56350  42.480  25.453   7.350
 7689POPC   NC356351  27.546  15.225   5.550
 7689POPC   PO456352  27.631  15.179   5.850
 7689POPC   GL156353  27.558  15.159   6.150
 7689POPC   GL256354  27.517  15.242   6.150
 7689POPC   C1A56355  27.643  15.145   6.450
 7689POPC   D2A56356  27.553  15.194   6.750
 7689POPC   C3A56357  27.554  15.183   7.050
 7689POPC   C4A56358  27.631  15.150   7.350
 7689POPC   C1B56359  27.366  15.342   6.450
 7689POPC   C2B56360  27.353  15.358   6.750
 7689POPC   C3B56361  27.401  15.284   7.050
 7689POPC   C4B56362  27.371  15.354   7.350
 7690POPC   NC356363  18.277   1.220   5.550
 7690POPC   PO456364  18.332   1.174   5.850
 7690POPC   GL156365  18.318   1.242   6.150
 7690POPC   GL256366  18.335   1.370   6.150
 7690POPC   C1A56367  18.296   1.231   6.450
 7690POPC   D2A56368  18.301   1.260   6.750
 7690POPC   C3A56369  18.250   1.171   7.050
 7690POPC   C4A56370  18.267   1.187   7.350
 7690POPC   C1B56371  18.317   1.458   6.450
 7690POPC   C2B56372  18.343   1.429   6.750
 7690POPC   C3B56373  18.278   1.507   7.050
 7690POPC   C4B56374  18.255   1.420   7.350
 7691POPC   NC356375  19.877  20.586   5.550
 7691POPC   PO456376  19.824  20.659   5.850
 7691POPC   GL156377  19.795  20.649   6.150
 7691POPC   GL256378  19.705  20.541   6.150
 7691POPC   C1A56379  19.878  20.568   6.450
 7691POPC   D2A56380  19.842  20.639   6.750
 7691POPC   C3A56381  19.852  20.629   7.050
 7691POPC   C4A56382  19.795  20.586   7.350
 7691POPC   C1B56383  19.612  20.506   6.450
 7691POPC   C2B56384  19.596  20.502   6.750
 7691POPC   C3B56385  19.555  20.549   7.050
 7691POPC   C4B56386  19.557  20.487   7.350
 7692POPC   NC356387   2.009  17.471   5.550
 7692POPC   PO456388   1.984  17.458   5.850
 7692POPC   GL156389   2.004  17.552   6.150
 7692POPC   GL256390   1.866  17.608   6.150
 7692POPC   C1A56391   2.028  17.464   6.450
 7692POPC   D2A56392   2.005  17.521   6.750
 7692POPC   C3A56393   2.011  17.533   7.050
 7692POPC   C4A56394   1.950  17.496   7.350
 7692POPC   C1B56395   1.793  17.714   6.450
 7692POPC   C2B56396   1.793  17.681   6.750
 7692POPC   C3B56397   1.856  17.728   7.050
 7692POPC   C4B56398   1.848  17.729   7.350
 7693POPC   NC356399  35.348  29.953   5.550
 7693POPC   PO456400  35.347  29.930   5.850
 7693POPC   GL156401  35.397  29.941   6.150
 7693POPC   GL256402  35.381  30.064   6.150
 7693POPC   C1A56403  35.355  29.893   6.450
 7693POPC   D2A56404  35.341  29.926   6.750
 7693POPC   C3A56405  35.397  29.877   7.050
 7693POPC   C4A56406  35.343  29.946   7.350
 7693POPC   C1B56407  35.438  30.157   6.450
 7693POPC   C2B56408  35.481  30.155   6.750
 7693POPC   C3B56409  35.493  30.114   7.050
 7693POPC   C4B56410  35.492  30.104   7.350
 7694POPC   NC356411  44.665   0.461   5.550
 7694POPC   PO456412  44.636   0.406   5.850
 7694POPC   GL156413  44.658   0.409   6.150
 7694POPC   GL256414  44.610   0.315   6.150
 7694POPC   C1A56415  44.711   0.426   6.450
 7694POPC   D2A56416  44.616   0.423   6.750
 7694POPC   C3A56417  44.681   0.426   7.050
 7694POPC   C4A56418  44.624   0.418   7.350
 7694POPC   C1B56419  44.603   0.241   6.450
 7694POPC   C2B56420  44.607   0.165   6.750
 7694POPC   C3B56421  44.623   0.244   7.050
 7694POPC   C4B56422  44.610   0.184   7.350
 7695POPC   NC356423   0.399  36.951   5.550
 7695POPC   PO456424   0.433  36.922   5.850
 7695POPC   GL156425   0.446  36.907   6.150
 7695POPC   GL256426   0.398  37.044   6.150
 7695POPC   C1A56427   0.486  36.929   6.450
 7695POPC   D2A56428   0.412  36.881   6.750
 7695POPC   C3A56429   0.439  36.858   7.050
 7695POPC   C4A56430   0.392  36.875   7.350
 7695POPC   C1B56431   0.453  37.116   6.450
 7695POPC   C2B56432   0.429  37.165   6.750
 7695POPC   C3B56433   0.438  37.114   7.050
 7695POPC   C4B56434   0.458  37.194   7.350
 7696POPC   NC356435  12.058   1.235   5.550
 7696POPC   PO456436  12.102   1.259   5.850
 7696POPC   GL156437  12.047   1.247   6.150
 7696POPC   GL256438  11.946   1.138   6.150
 7696POPC   C1A56439  12.068   1.263   6.450
 7696POPC   D2A56440  12.049   1.262   6.750
 7696POPC   C3A56441  12.123   1.171   7.050
 7696POPC   C4A56442  12.092   1.238   7.350
 7696POPC   C1B56443  11.875   1.101   6.450
 7696POPC   C2B56444  11.858   1.114   6.750
 7696POPC   C3B56445  11.810   1.113   7.050
 7696POPC   C4B56446  11.871   1.088   7.350
 7697POPC   NC356447  21.423  38.417   5.550
 7697POPC   PO456448  21.369  38.442   5.850
 7697POPC   GL156449  21.374  38.490   6.150
 7697POPC   GL256450  21.489  38.376   6.150
 7697POPC   C1A56451  21.377  38.492   6.450
 7697POPC   D2A56452  21.348  38.466   6.750
 7697POPC   C3A56453  21.422  38.420   7.050
 7697POPC   C4A56454  21.370  38.475   7.350
 7697POPC   C1B56455  21.501  38.279   6.450
 7697POPC   C2B56456  21.531  38.264   6.750
 7697POPC   C3B56457  21.465  38.283   7.050
 7697POPC   C4B56458  21.467  38.237   7.350
 7698POPC   NC356459   1.989  33.800   5.550
 7698POPC   PO456460   2.020  33.834   5.850
 7698POPC   GL156461   2.003  33.774   6.150
 7698POPC   GL256462   2.146  33.864   6.150
 7698POPC   C1A56463   2.037  33.843   6.450
 7698POPC   D2A56464   2.004  33.828   6.750
 7698POPC   C3A56465   1.980  33.837   7.050
 7698POPC   C4A56466   2.004  33.792   7.350
 7698POPC   C1B56467   2.199  33.831   6.450
 7698POPC   C2B56468   2.235  33.810   6.750
 7698POPC   C3B56469   2.247  33.857   7.050
 7698POPC   C4B56470   2.223  33.887   7.350
 7699POPC   NC356471  17.500   8.963   5.550
 7699POPC   PO456472  17.471   8.923   5.850
 7699POPC   GL156473  17.543   9.006   6.150
 7699POPC   GL256474  17.516   9.101   6.150
 7699POPC   C1A56475  17.477   8.934   6.450
 7699POPC   D2A56476  17.487   8.970   6.750
 7699POPC   C3A56477  17.466   9.003   7.050
 7699POPC   C4A56478  17.516   8.944   7.350
 7699POPC   C1B56479  17.498   9.202   6.450
 7699POPC   C2B56480  17.443   9.190   6.750
 7699POPC   C3B56481  17.487   9.208   7.050
 7699POPC   C4B56482  17.412   9.222   7.350
 7700POPC   NC356483  39.248  19.876   5.550
 7700POPC   PO456484  39.226  19.795   5.850
 7700POPC   GL156485  39.212  19.874   6.150
 7700POPC   GL256486  39.178  19.947   6.150
 7700POPC   C1A56487  39.193  19.840   6.450
 7700POPC   D2A56488  39.239  19.863   6.750
 7700POPC   C3A56489  39.225  19.800   7.050
 7700POPC   C4A56490  39.218  19.830   7.350
 7700POPC   C1B56491  39.012  20.023   6.450
 7700POPC   C2B56492  39.083  19.980   6.750
 7700POPC   C3B56493  39.002  20.002   7.050
 7700POPC   C4B56494  39.020  19.961   7.350
 7701POPC   NC356495  18.265  43.069   5.550
 7701POPC   PO456496  18.253  43.112   5.850
 7701POPC   GL156497  18.313  43.147   6.150
 7701POPC   GL256498  18.406  43.151   6.150
 7701POPC   C1A56499  18.273  43.064   6.450
 7701POPC   D2A56500  18.310  43.092   6.750
 7701POPC   C3A56501  18.293  43.140   7.050
 7701POPC   C4A56502  18.308  43.158   7.350
 7701POPC   C1B56503  18.535  43.216   6.450
 7701POPC   C2B56504  18.481  43.244   6.750
 7701POPC   C3B56505  18.527  43.289   7.050
 7701POPC   C4B56506  18.495  43.301   7.350
 7702POPC   NC356507   6.668   4.330   5.550
 7702POPC   PO456508   6.665   4.271   5.850
 7702POPC   GL156509   6.690   4.289   6.150
 7702POPC   GL256510   6.767   4.201   6.150
 7702POPC   C1A56511   6.662   4.280   6.450
 7702POPC   D2A56512   6.677   4.334   6.750
 7702POPC   C3A56513   6.636   4.285   7.050
 7702POPC   C4A56514   6.642   4.351   7.350
 7702POPC   C1B56515   6.842   4.167   6.450
 7702POPC   C2B56516   6.893   4.180   6.750
 7702POPC   C3B56517   6.809   4.142   7.050
 7702POPC   C4B56518   6.870   4.179   7.350
 7703POPC   NC356519  42.304  38.490   5.550
 7703POPC   PO456520  42.349  38.416   5.850
 7703POPC   GL156521  42.366  38.414   6.150
 7703POPC   GL256522  42.372  38.291   6.150
 7703POPC   C1A56523  42.344  38.466   6.450
 7703POPC   D2A56524  42.293  38.460   6.750
 7703POPC   C3A56525  42.286  38.405   7.050
 7703POPC   C4A56526  42.339  38.489   7.350
 7703POPC   C1B56527  42.351  38.255   6.450
 7703POPC   C2B56528  42.379  38.183   6.750
 7703POPC   C3B56529  42.299  38.190   7.050
 7703POPC   C4B56530  42.299  38.222   7.350
 7704POPC   NC356531  23.665  38.406   5.550
 7704POPC   PO456532  23.744  38.429   5.850
 7704POPC   GL156533  23.665  38.417   6.150
 7704POPC   GL256534  23.666  38.320   6.150
 7704POPC   C1A56535  23.706  38.490   6.450
 7704POPC   D2A56536  23.729  38.472   6.750
 7704POPC   C3A56537  23.686  38.473   7.050
 7704POPC   C4A56538  23.705  38.445   7.350
 7704POPC   C1B56539  23.565  38.307   6.450
 7704POPC   C2B56540  23.525  38.317   6.750
 7704POPC   C3B56541  23.536  38.298   7.050
 7704POPC   C4B56542  23.484  38.315   7.350
 7705POPC   NC356543  40.735  29.147   5.550
 7705POPC   PO456544  40.801  29.142   5.850
 7705POPC   GL156545  40.793  29.107   6.150
 7705POPC   GL256546  40.820  29.297   6.150
 7705POPC   C1A56547  40.802  29.188   6.450
 7705POPC   D2A56548  40.758  29.180   6.750
 7705POPC   C3A56549  40.754  29.187   7.050
 7705POPC   C4A56550  40.772  29.100   7.350
 7705POPC   C1B56551  40.816  29.398   6.450
 7705POPC   C2B56552  40.758  29.429   6.750
 7705POPC   C3B56553  40.763  29.364   7.050
 7705POPC   C4B56554  40.784  29.357   7.350
 7706POPC   NC356555   5.849   6.619   5.550
 7706POPC   PO456556   5.867   6.671   5.850
 7706POPC   GL156557   5.860   6.665   6.150
 7706POPC   GL256558   5.735   6.634   6.150
 7706POPC   C1A56559   5.860   6.681   6.450
 7706POPC   D2A56560   5.873   6.677   6.750
 7706POPC   C3A56561   5.828   6.687   7.050
 7706POPC   C4A56562   5.897   6.615   7.350
 7706POPC   C1B56563   5.594   6.684   6.450
 7706POPC   C2B56564   5.660   6.714   6.750
 7706POPC   C3B56565   5.588   6.673   7.050
 7706POPC   C4B56566   5.599   6.692   7.350
 7707POPC   NC356567  20.575  12.806   5.550
 7707POPC   PO456568  20.588  12.870   5.850
 7707POPC   GL156569  20.611  12.831   6.150
 7707POPC   GL256570  20.692  12.870   6.150
 7707POPC   C1A56571  20.584  12.814   6.450
 7707POPC   D2A56572  20.614  12.830   6.750
 7707POPC   C3A56573  20.636  12.828   7.050
 7707POPC   C4A56574  20.621  12.822   7.350
 7707POPC   C1B56575  20.835  12.941   6.450
 7707POPC   C2B56576  20.892  12.865   6.750
 7707POPC   C3B56577  20.857  12.881   7.050
 7707POPC   C4B56578  20.804  12.885   7.350
 7708POPC   NC356579  37.630  20.640   5.550
 7708POPC   PO456580  37.695  20.618   5.850
 7708POPC   GL156581  37.685  20.577   6.150
 7708POPC   GL256582  37.665  20.694   6.150
 7708POPC   C1A56583  37.724  20.656   6.450
 7708POPC   D2A56584  37.689  20.572   6.750
 7708POPC   C3A56585  37.718  20.582   7.050
 7708POPC   C4A56586  37.701  20.654   7.350
 7708POPC   C1B56587  37.663  20.832   6.450
 7708POPC   C2B56588  37.613  20.866   6.750
 7708POPC   C3B56589  37.644  20.859   7.050
 7708POPC   C4B56590  37.647  20.861   7.350
 7709POPC   NC356591  35.354   4.271   5.550
 7709POPC   PO456592  35.341   4.334   5.850
 7709POPC   GL156593  35.396   4.308   6.150
 7709POPC   GL256594  35.364   4.168   6.150
 7709POPC   C1A56595  35.349   4.317   6.450
 7709POPC   D2A56596  35.303   4.285   6.750
 7709POPC   C3A56597  35.342   4.278   7.050
 7709POPC   C4A56598  35.399   4.338   7.350
 7709POPC   C1B56599  35.473   4.073   6.450
 7709POPC   C2B56600  35.466   4.115   6.750
 7709POPC   C3B56601  35.472   4.072   7.050
 7709POPC   C4B56602  35.426   4.082   7.350
 7710POPC   NC356603  19.865   8.170   5.550
 7710POPC   PO456604  19.823   8.158   5.850
 7710POPC   GL156605  19.787   8.147   6.150
 7710POPC   GL256606  19.757   8.175   6.150
 7710POPC   C1A56607  19.882   8.220   6.450
 7710POPC   D2A56608  19.833   8.179   6.750
 7710POPC   C3A56609  19.870   8.196   7.050
 7710POPC   C4A56610  19.865   8.159   7.350
 7710POPC   C1B56611  19.554   8.148   6.450
 7710POPC   C2B56612  19.623   8.149   6.750
 7710POPC   C3B56613  19.582   8.137   7.050
 7710POPC   C4B56614  19.623   8.132   7.350
 7711POPC   NC356615  29.130  28.416   5.550
 7711POPC   PO456616  29.114  28.329   5.850
 7711POPC   GL156617  29.158  28.396   6.150
 7711POPC   GL256618  29.262  28.383   6.150
 7711POPC   C1A56619  29.131  28.366   6.450
 7711POPC   D2A56620  29.113  28.413   6.750
 7711POPC   C3A56621  29.139  28.370   7.050
 7711POPC   C4A56622  29.188  28.355   7.350
 7711POPC   C1B56623  29.365  28.448   6.450
 7711POPC   C2B56624  29.426  28.403   6.750
 7711POPC   C3B56625  29.400  28.409   7.050
 7711POPC   C4B56626  29.381  28.389   7.350
 7712POPC   NC356627  29.109  22.979   5.550
 7712POPC   PO456628  29.119  22.970   5.850
 7712POPC   GL156629  29.160  22.979   6.150
 7712POPC   GL256630  29.158  22.828   6.150
 7712POPC   C1A56631  29.158  22.900   6.450
 7712POPC   D2A56632  29.158  22.915   6.750
 7712POPC   C3A56633  29.151  22.923   7.050
 7712POPC   C4A56634  29.098  22.904   7.350
 7712POPC   C1B56635  29.173  22.664   6.450
 7712POPC   C2B56636  29.090  22.733   6.750
 7712POPC   C3B56637  29.167  22.683   7.050
 7712POPC   C4B56638  29.085  22.711   7.350
 7713POPC   NC356639  27.619   1.191   5.550
 7713POPC   PO456640  27.561   1.195   5.850
 7713POPC   GL156641  27.549   1.168   6.150
 7713POPC   GL256642  27.460   1.229   6.150
 7713POPC   C1A56643  27.585   1.259   6.450
 7713POPC   D2A56644  27.548   1.252   6.750
 7713POPC   C3A56645  27.588   1.210   7.050
 7713POPC   C4A56646  27.582   1.186   7.350
 7713POPC   C1B56647  27.351   1.330   6.450
 7713POPC   C2B56648  27.344   1.313   6.750
 7713POPC   C3B56649  27.368   1.304   7.050
 7713POPC   C4B56650  27.305   1.254   7.350
 7714POPC   NC356651  42.371   2.789   5.550
 7714POPC   PO456652  42.369   2.749   5.850
 7714POPC   GL156653  42.342   2.775   6.150
 7714POPC   GL256654  42.216   2.911   6.150
 7714POPC   C1A56655  42.374   2.727   6.450
 7714POPC   D2A56656  42.286   2.754   6.750
 7714POPC   C3A56657  42.309   2.761   7.050
 7714POPC   C4A56658  42.314   2.808   7.350
 7714POPC   C1B56659  42.177   3.001   6.450
 7714POPC   C2B56660  42.191   3.002   6.750
 7714POPC   C3B56661  42.158   2.955   7.050
 7714POPC   C4B56662  42.165   2.950   7.350
 7715POPC   NC356663  15.207   5.820   5.550
 7715POPC   PO456664  15.199   5.835   5.850
 7715POPC   GL156665  15.149   5.906   6.150
 7715POPC   GL256666  15.147   5.721   6.150
 7715POPC   C1A56667  15.188   5.908   6.450
 7715POPC   D2A56668  15.192   5.826   6.750
 7715POPC   C3A56669  15.137   5.917   7.050
 7715POPC   C4A56670  15.196   5.827   7.350
 7715POPC   C1B56671  15.165   5.583   6.450
 7715POPC   C2B56672  15.206   5.606   6.750
 7715POPC   C3B56673  15.179   5.666   7.050
 7715POPC   C4B56674  15.184   5.571   7.350
 7716POPC   NC356675  43.123   6.598   5.550
 7716POPC   PO456676  43.096   6.608   5.850
 7716POPC   GL156677  43.080   6.664   6.150
 7716POPC   GL256678  43.107   6.796   6.150
 7716POPC   C1A56679  43.151   6.644   6.450
 7716POPC   D2A56680  43.142   6.688   6.750
 7716POPC   C3A56681  43.133   6.650   7.050
 7716POPC   C4A56682  43.066   6.683   7.350
 7716POPC   C1B56683  43.052   6.932   6.450
 7716POPC   C2B56684  43.092   6.923   6.750
 7716POPC   C3B56685  43.056   6.854   7.050
 7716POPC   C4B56686  43.103   6.930   7.350
 7717POPC   NC356687  17.542  26.033   5.550
 7717POPC   PO456688  17.474  26.087   5.850
 7717POPC   GL156689  17.476  25.995   6.150
 7717POPC   GL256690  17.466  26.202   6.150
 7717POPC   C1A56691  17.513  26.073   6.450
 7717POPC   D2A56692  17.494  26.001   6.750
 7717POPC   C3A56693  17.500  26.071   7.050
 7717POPC   C4A56694  17.528  26.084   7.350
 7717POPC   C1B56695  17.501  26.330   6.450
 7717POPC   C2B56696  17.494  26.269   6.750
 7717POPC   C3B56697  17.523  26.243   7.050
 7717POPC   C4B56698  17.465  26.333   7.350
 7718POPC   NC356699   5.114  29.922   5.550
 7718POPC   PO456700   5.102  29.956   5.850
 7718POPC   GL156701   5.065  29.939   6.150
 7718POPC   GL256702   5.187  29.859   6.150
 7718POPC   C1A56703   5.106  29.904   6.450
 7718POPC   D2A56704   5.096  29.955   6.750
 7718POPC   C3A56705   5.081  29.924   7.050
 7718POPC   C4A56706   5.078  29.912   7.350
 7718POPC   C1B56707   5.360  29.795   6.450
 7718POPC   C2B56708   5.327  29.806   6.750
 7718POPC   C3B56709   5.310  29.799   7.050
 7718POPC   C4B56710   5.361  29.785   7.350
 7719POPC   NC356711  29.945  33.064   5.550
 7719POPC   PO456712  29.905  33.016   5.850
 7719POPC   GL156713  29.895  33.056   6.150
 7719POPC   GL256714  30.008  33.043   6.150
 7719POPC   C1A56715  29.936  32.979   6.450
 7719POPC   D2A56716  29.907  33.067   6.750
 7719POPC   C3A56717  29.884  33.019   7.050
 7719POPC   C4A56718  29.942  33.010   7.350
 7719POPC   C1B56719  30.121  33.022   6.450
 7719POPC   C2B56720  30.219  32.996   6.750
 7719POPC   C3B56721  30.161  33.016   7.050
 7719POPC   C4B56722  30.156  32.977   7.350
 7720POPC   NC356723  22.933  36.078   5.550
 7720POPC   PO456724  22.923  36.099   5.850
 7720POPC   GL156725  22.975  36.114   6.150
 7720POPC   GL256726  23.063  36.181   6.150
 7720POPC   C1A56727  22.907  36.154   6.450
 7720POPC   D2A56728  22.972  36.101   6.750
 7720POPC   C3A56729  22.915  36.177   7.050
 7720POPC   C4A56730  22.938  36.113   7.350
 7720POPC   C1B56731  23.127  36.246   6.450
 7720POPC   C2B56732  23.121  36.251   6.750
 7720POPC   C3B56733  23.129  36.272   7.050
 7720POPC   C4B56734  23.101  36.278   7.350
 7721POPC   NC356735  32.283  10.537   5.550
 7721POPC   PO456736  32.253  10.484   5.850
 7721POPC   GL156737  32.247  10.528   6.150
 7721POPC   GL256738  32.162  10.645   6.150
 7721POPC   C1A56739  32.243  10.486   6.450
 7721POPC   D2A56740  32.260  10.492   6.750
 7721POPC   C3A56741  32.297  10.542   7.050
 7721POPC   C4A56742  32.280  10.564   7.350
 7721POPC   C1B56743  32.006  10.688   6.450
 7721POPC   C2B56744  32.055  10.647   6.750
 7721POPC   C3B56745  32.012  10.632   7.050
 7721POPC   C4B56746  32.062  10.660   7.350
 7722POPC   NC356747  29.106  35.340   5.550
 7722POPC   PO456748  29.131  35.333   5.850
 7722POPC   GL156749  29.158  35.392   6.150
 7722POPC   GL256750  29.157  35.209   6.150
 7722POPC   C1A56751  29.193  35.336   6.450
 7722POPC   D2A56752  29.097  35.377   6.750
 7722POPC   C3A56753  29.154  35.344   7.050
 7722POPC   C4A56754  29.096  35.371   7.350
 7722POPC   C1B56755  29.164  35.095   6.450
 7722POPC   C2B56756  29.138  35.106   6.750
 7722POPC   C3B56757  29.170  35.056   7.050
 7722POPC   C4B56758  29.168  35.139   7.350
 7723POPC   NC356759  12.881  31.457   5.550
 7723POPC   PO456760  12.889  31.480   5.850
 7723POPC   GL156761  12.871  31.465   6.150
 7723POPC   GL256762  12.792  31.610   6.150
 7723POPC   C1A56763  12.822  31.492   6.450
 7723POPC   D2A56764  12.875  31.512   6.750
 7723POPC   C3A56765  12.836  31.446   7.050
 7723POPC   C4A56766  12.829  31.477   7.350
 7723POPC   C1B56767  12.665  31.649   6.450
 7723POPC   C2B56768  12.695  31.646   6.750
 7723POPC   C3B56769  12.646  31.644   7.050
 7723POPC   C4B56770  12.660  31.700   7.350
 7724POPC   NC356771  35.368  26.815   5.550
 7724POPC   PO456772  35.325  26.849   5.850
 7724POPC   GL156773  35.356  26.829   6.150
 7724POPC   GL256774  35.369  26.698   6.150
 7724POPC   C1A56775  35.324  26.783   6.450
 7724POPC   D2A56776  35.392  26.839   6.750
 7724POPC   C3A56777  35.332  26.793   7.050
 7724POPC   C4A56778  35.365  26.851   7.350
 7724POPC   C1B56779  35.395  26.534   6.450
 7724POPC   C2B56780  35.407  26.525   6.750
 7724POPC   C3B56781  35.356  26.601   7.050
 7724POPC   C4B56782  35.363  26.615   7.350
 7725POPC   NC356783  37.667  22.146   5.550
 7725POPC   PO456784  37.664  22.191   5.850
 7725POPC   GL156785  37.635  22.202   6.150
 7725POPC   GL256786  37.749  22.230   6.150
 7725POPC   C1A56787  37.721  22.119   6.450
 7725POPC   D2A56788  37.653  22.122   6.750
 7725POPC   C3A56789  37.711  22.151   7.050
 7725POPC   C4A56790  37.674  22.181   7.350
 7725POPC   C1B56791  37.831  22.409   6.450
 7725POPC   C2B56792  37.809  22.344   6.750
 7725POPC   C3B56793  37.865  22.329   7.050
 7725POPC   C4B56794  37.874  22.373   7.350
 7726POPC   NC356795  22.150  36.163   5.550
 7726POPC   PO456796  22.120  36.150   5.850
 7726POPC   GL156797  22.115  36.090   6.150
 7726POPC   GL256798  22.085  36.025   6.150
 7726POPC   C1A56799  22.168  36.130   6.450
 7726POPC   D2A56800  22.195  36.116   6.750
 7726POPC   C3A56801  22.127  36.109   7.050
 7726POPC   C4A56802  22.128  36.120   7.350
 7726POPC   C1B56803  21.938  35.974   6.450
 7726POPC   C2B56804  21.967  35.948   6.750
 7726POPC   C3B56805  21.971  35.995   7.050
 7726POPC   C4B56806  21.993  35.976   7.350
 7727POPC   NC356807  40.798  36.108   5.550
 7727POPC   PO456808  40.761  36.148   5.850
 7727POPC   GL156809  40.786  36.157   6.150
 7727POPC   GL256810  40.887  36.040   6.150
 7727POPC   C1A56811  40.742  36.157   6.450
 7727POPC   D2A56812  40.743  36.126   6.750
 7727POPC   C3A56813  40.795  36.176   7.050
 7727POPC   C4A56814  40.795  36.111   7.350
 7727POPC   C1B56815  41.002  36.006   6.450
 7727POPC   C2B56816  41.007  35.939   6.750
 7727POPC   C3B56817  40.942  35.976   7.050
 7727POPC   C4B56818  40.949  35.988   7.350
 7728POPC   NC356819   5.120  17.511   5.550
 7728POPC   PO456820   5.053  17.511   5.850
 7728POPC   GL156821   5.076  17.470   6.150
 7728POPC   GL256822   4.928  17.526   6.150
 7728POPC   C1A56823   5.130  17.476   6.450
 7728POPC   D2A56824   5.088  17.500   6.750
 7728POPC   C3A56825   5.057  17.484   7.050
 7728POPC   C4A56826   5.099  17.531   7.350
 7728POPC   C1B56827   4.882  17.537   6.450
 7728POPC   C2B56828   4.866  17.553   6.750
 7728POPC   C3B56829   4.873  17.561   7.050
 7728POPC   C4B56830   4.821  17.480   7.350
 7729POPC   NC356831  35.312  15.175   5.550
 7729POPC   PO456832  35.338  15.160   5.850
 7729POPC   GL156833  35.365  15.187   6.150
 7729POPC   GL256834  35.286  15.022   6.150
 7729POPC   C1A56835  35.385  15.201   6.450
 7729POPC   D2A56836  35.346  15.176   6.750
 7729POPC   C3A56837  35.330  15.177   7.050
 7729POPC   C4A56838  35.356  15.133   7.350
 7729POPC   C1B56839  35.218  14.998   6.450
 7729POPC   C2B56840  35.256  14.953   6.750
 7729POPC   C3B56841  35.245  14.916   7.050
 7729POPC   C4B56842  35.195  14.950   7.350
 7730POPC   NC356843  44.681  10.511   5.550
 7730POPC   PO456844  44.702  10.547   5.850
 7730POPC   GL156845  44.680  10.572   6.150
 7730POPC   GL256846  44.661  10.671   6.150
 7730POPC   C1A56847  44.657  10.559   6.450
 7730POPC   D2A56848  44.664  10.522   6.750
 7730POPC   C3A56849  44.676  10.503   7.050
 7730POPC   C4A56850  44.665  10.487   7.350
 7730POPC   C1B56851  44.585  10.759   6.450
 7730POPC   C2B56852  44.618  10.750   6.750
 7730POPC   C3B56853  44.596  10.720   7.050
 7730POPC   C4B56854  44.654  10.753   7.350
 7731POPC   NC356855  36.171  32.200   5.550
 7731POPC   PO456856  36.137  32.286   5.850
 7731POPC   GL156857  36.168  32.216   6.150
 7731POPC   GL256858  36.189  32.365   6.150
 7731POPC   C1A56859  36.156  32.215   6.450
 7731POPC   D2A56860  36.134  32.205   6.750
 7731POPC   C3A56861  36.098  32.269   7.050
 7731POPC   C4A56862  36.138  32.233   7.350
 7731POPC   C1B56863  36.357  32.430   6.450
 7731POPC   C2B56864  36.374  32.377   6.750
 7731POPC   C3B56865  36.354  32.387   7.050
 7731POPC   C4B56866  36.338  32.355   7.350
 7732POPC   NC356867  26.811   7.453   5.550
 7732POPC   PO456868  26.803   7.436   5.850
 7732POPC   GL156869  26.811   7.459   6.150
 7732POPC   GL256870  26.846   7.253   6.150
 7732POPC   C1A56871  26.852   7.440   6.450
 7732POPC   D2A56872  26.846   7.450   6.750
 7732POPC   C3A56873  26.791   7.399   7.050
 7732POPC   C4A56874  26.834   7.394   7.350
 7732POPC   C1B56875  26.853   7.152   6.450
 7732POPC   C2B56876  26.835   7.142   6.750
 7732POPC   C3B56877  26.876   7.142   7.050
 7732POPC   C4B56878  26.860   7.137   7.350
 7733POPC   NC356879   5.096   6.694   5.550
 7733POPC   PO456880   5.086   6.597   5.850
 7733POPC   GL156881   5.078   6.657   6.150
 7733POPC   GL256882   5.027   6.685   6.150
 7733POPC   C1A56883   5.128   6.686   6.450
 7733POPC   D2A56884   5.059   6.653   6.750
 7733POPC   C3A56885   5.094   6.625   7.050
 7733POPC   C4A56886   5.103   6.637   7.350
 7733POPC   C1B56887   4.882   6.737   6.450
 7733POPC   C2B56888   4.895   6.746   6.750
 7733POPC   C3B56889   4.860   6.728   7.050
 7733POPC   C4B56890   4.842   6.734   7.350
 7734POPC   NC356891   5.859  11.314   5.550
 7734POPC   PO456892   5.850  11.315   5.850
 7734POPC   GL156893   5.904  11.313   6.150
 7734POPC   GL256894   5.921  11.432   6.150
 7734POPC   C1A56895   5.873  11.296   6.450
 7734POPC   D2A56896   5.899  11.289   6.750
 7734POPC   C3A56897   5.878  11.292   7.050
 7734POPC   C4A56898   5.858  11.268   7.350
 7734POPC   C1B56899   6.032  11.475   6.450
 7734POPC   C2B56900   5.979  11.464   6.750
 7734POPC   C3B56901   6.037  11.517   7.050
 7734POPC   C4B56902   5.983  11.466   7.350
 7735POPC   NC356903  15.178  29.146   5.550
 7735POPC   PO456904  15.212  29.135   5.850
 7735POPC   GL156905  15.137  29.123   6.150
 7735POPC   GL256906  15.258  29.232   6.150
 7735POPC   C1A56907  15.181  29.190   6.450
 7735POPC   D2A56908  15.222  29.117   6.750
 7735POPC   C3A56909  15.198  29.149   7.050
 7735POPC   C4A56910  15.188  29.120   7.350
 7735POPC   C1B56911  15.341  29.320   6.450
 7735POPC   C2B56912  15.267  29.340   6.750
 7735POPC   C3B56913  15.319  29.366   7.050
 7735POPC   C4B56914  15.295  29.400   7.350
 7736POPC   NC356915  23.669  33.813   5.550
 7736POPC   PO456916  23.755  33.791   5.850
 7736POPC   GL156917  23.763  33.807   6.150
 7736POPC   GL256918  23.739  33.953   6.150
 7736POPC   C1A56919  23.726  33.813   6.450
 7736POPC   D2A56920  23.709  33.786   6.750
 7736POPC   C3A56921  23.756  33.761   7.050
 7736POPC   C4A56922  23.667  33.767   7.350
 7736POPC   C1B56923  23.738  34.000   6.450
 7736POPC   C2B56924  23.761  34.017   6.750
 7736POPC   C3B56925  23.742  34.082   7.050
 7736POPC   C4B56926  23.684  34.092   7.350
 7737POPC   NC356927   1.218  25.295   5.550
 7737POPC   PO456928   1.185  25.252   5.850
 7737POPC   GL156929   1.196  25.300   6.150
 7737POPC   GL256930   1.331  25.292   6.150
 7737POPC   C1A56931   1.211  25.307   6.450
 7737POPC   D2A56932   1.188  25.299   6.750
 7737POPC   C3A56933   1.180  25.314   7.050
 7737POPC   C4A56934   1.200  25.279   7.350
 7737POPC   C1B56935   1.431  25.376   6.450
 7737POPC   C2B56936   1.483  25.334   6.750
 7737POPC   C3B56937   1.451  25.324   7.050
 7737POPC   C4B56938   1.452  25.292   7.350
 7738POPC   NC356939  16.764  43.899   5.550
 7738POPC   PO456940  16.725  43.926   5.850
 7738POPC   GL156941  16.693  43.879   6.150
 7738POPC   GL256942  16.609  43.941   6.150
 7738POPC   C1A56943  16.693  43.852   6.450
 7738POPC   D2A56944  16.742  43.847   6.750
 7738POPC   C3A56945  16.765  43.913   7.050
 7738POPC   C4A56946  16.745  43.842   7.350
 7738POPC   C1B56947  16.506  44.009   6.450
 7738POPC   C2B56948  16.527  44.012   6.750
 7738POPC   C3B56949  16.499  44.026   7.050
 7738POPC   C4B56950  16.529  44.033   7.350
 7739POPC   NC356951   4.324  38.413   5.550
 7739POPC   PO456952   4.354  38.450   5.850
 7739POPC   GL156953   4.343  38.440   6.150
 7739POPC   GL256954   4.440  38.357   6.150
 7739POPC   C1A56955   4.281  38.430   6.450
 7739POPC   D2A56956   4.313  38.468   6.750
 7739POPC   C3A56957   4.326  38.486   7.050
 7739POPC   C4A56958   4.344  38.478   7.350
 7739POPC   C1B56959   4.514  38.256   6.450
 7739POPC   C2B56960   4.472  38.288   6.750
 7739POPC   C3B56961   4.463  38.278   7.050
 7739POPC   C4B56962   4.521  38.281   7.350
 7740POPC   NC356963  15.209   0.439   5.550
 7740POPC   PO456964  15.218   0.462   5.850
 7740POPC   GL156965  15.175   0.454   6.150
 7740POPC   GL256966  15.008   0.400   6.150
 7740POPC   C1A56967  15.227   0.420   6.450
 7740POPC   D2A56968  15.156   0.434   6.750
 7740POPC   C3A56969  15.181   0.483   7.050
 7740POPC   C4A56970  15.134   0.413   7.350
 7740POPC   C1B56971  14.979   0.414   6.450
 7740POPC   C2B56972  14.891   0.432   6.750
 7740POPC   C3B56973  14.976   0.410   7.050
 7740POPC   C4B56974  14.963   0.412   7.350
 7741POPC   NC356975  36.906  30.684   5.550
 7741POPC   PO456976  36.929  30.724   5.850
 7741POPC   GL156977  36.876  30.744   6.150
 7741POPC   GL256978  36.780  30.780   6.150
 7741POPC   C1A56979  36.946  30.688   6.450
 7741POPC   D2A56980  36.939  30.663   6.750
 7741POPC   C3A56981  36.884  30.701   7.050
 7741POPC   C4A56982  36.895  30.655   7.350
 7741POPC   C1B56983  36.686  30.819   6.450
 7741POPC   C2B56984  36.735  30.787   6.750
 7741POPC   C3B56985  36.722  30.823   7.050
 7741POPC   C4B56986  36.653  30.829   7.350
 7742POPC   NC356987  36.940   9.746   5.550
 7742POPC   PO456988  36.880   9.764   5.850
 7742POPC   GL156989  36.938   9.710   6.150
 7742POPC   GL256990  36.992   9.904   6.150
 7742POPC   C1A56991  36.948   9.748   6.450
 7742POPC   D2A56992  36.877   9.768   6.750
 7742POPC   C3A56993  36.860   9.710   7.050
 7742POPC   C4A56994  36.906   9.744   7.350
 7742POPC   C1B56995  37.015   9.988   6.450
 7742POPC   C2B56996  37.006   9.979   6.750
 7742POPC   C3B56997  37.080   9.971   7.050
 7742POPC   C4B56998  36.991   9.944   7.350
 7743POPC   NC356999  14.436  15.201   5.550
 7743POPC   PO457000  14.413  15.146   5.850
 7743POPC   GL157001  14.368  15.148   6.150
 7743POPC   GL257002  14.505  15.118   6.150
 7743POPC   C1A57003  14.386  15.164   6.450
 7743POPC   D2A57004  14.391  15.161   6.750
 7743POPC   C3A57005  14.410  15.187   7.050
 7743POPC   C4A57006  14.362  15.172   7.350
 7743POPC   C1B57007  14.568  14.975   6.450
 7743POPC   C2B57008  14.587  14.985   6.750
 7743POPC   C3B57009  14.575  14.988   7.050
 7743POPC   C4B57010  14.572  14.962   7.350
 7744POPC   NC357011   0.428  33.053   5.550
 7744POPC   PO457012   0.414  33.018   5.850
 7744POPC   GL157013   0.431  33.036   6.150
 7744POPC   GL257014   0.506  32.933   6.150
 7744POPC   C1A57015   0.431  33.048   6.450
 7744POPC   D2A57016   0.422  33.008   6.750
 7744POPC   C3A57017   0.445  33.037   7.050
 7744POPC   C4A57018   0.484  32.991   7.350
 7744POPC   C1B57019   0.558  32.822   6.450
 7744POPC   C2B57020   0.573  32.808   6.750
 7744POPC   C3B57021   0.644  32.798   7.050
 7744POPC   C4B57022   0.653  32.880   7.350
 7745POPC   NC357023  37.656  27.634   5.550
 7745POPC   PO457024  37.684  27.564   5.850
 7745POPC   GL157025  37.648  27.564   6.150
 7745POPC   GL257026  37.639  27.460   6.150
 7745POPC   C1A57027  37.704  27.595   6.450
 7745POPC   D2A57028  37.665  27.595   6.750
 7745POPC   C3A57029  37.653  27.573   7.050
 7745POPC   C4A57030  37.650  27.563   7.350
 7745POPC   C1B57031  37.588  27.357   6.450
 7745POPC   C2B57032  37.578  27.367   6.750
 7745POPC   C3B57033  37.541  27.319   7.050
 7745POPC   C4B57034  37.634  27.384   7.350
 7746POPC   NC357035  26.845  22.924   5.550
 7746POPC   PO457036  26.855  22.904   5.850
 7746POPC   GL157037  26.768  22.970   6.150
 7746POPC   GL257038  26.739  22.859   6.150
 7746POPC   C1A57039  26.826  22.919   6.450
 7746POPC   D2A57040  26.786  22.900   6.750
 7746POPC   C3A57041  26.861  22.959   7.050
 7746POPC   C4A57042  26.817  22.903   7.350
 7746POPC   C1B57043  26.597  22.739   6.450
 7746POPC   C2B57044  26.654  22.788   6.750
 7746POPC   C3B57045  26.639  22.747   7.050
 7746POPC   C4B57046  26.631  22.745   7.350
 7747POPC   NC357047  28.381  27.605   5.550
 7747POPC   PO457048  28.395  27.576   5.850
 7747POPC   GL157049  28.371  27.570   6.150
 7747POPC   GL257050  28.411  27.712   6.150
 7747POPC   C1A57051  28.350  27.641   6.450
 7747POPC   D2A57052  28.391  27.546   6.750
 7747POPC   C3A57053  28.327  27.637   7.050
 7747POPC   C4A57054  28.362  27.607   7.350
 7747POPC   C1B57055  28.451  27.778   6.450
 7747POPC   C2B57056  28.465  27.823   6.750
 7747POPC   C3B57057  28.528  27.833   7.050
 7747POPC   C4B57058  28.520  27.833   7.350
 7748POPC   NC357059  25.249  25.308   5.550
 7748POPC   PO457060  25.257  25.284   5.850
 7748POPC   GL157061  25.276  25.238   6.150
 7748POPC   GL257062  25.179  25.312   6.150
 7748POPC   C1A57063  25.250  25.286   6.450
 7748POPC   D2A57064  25.304  25.284   6.750
 7748POPC   C3A57065  25.249  25.308   7.050
 7748POPC   C4A57066  25.230  25.249   7.350
 7748POPC   C1B57067  25.106  25.496   6.450
 7748POPC   C2B57068  25.140  25.434   6.750
 7748POPC   C3B57069  25.055  25.437   7.050
 7748POPC   C4B57070  25.061  25.415   7.350
 7749POPC   NC357071  22.148  26.043   5.550
 7749POPC   PO457072  22.127  26.070   5.850
 7749POPC   GL157073  22.182  26.024   6.150
 7749POPC   GL257074  22.270  26.154   6.150
 7749POPC   C1A57075  22.201  25.992   6.450
 7749POPC   D2A57076  22.145  26.053   6.750
 7749POPC   C3A57077  22.127  26.017   7.050
 7749POPC   C4A57078  22.133  26.039   7.350
 7749POPC   C1B57079  22.332  26.206   6.450
 7749POPC   C2B57080  22.382  26.210   6.750
 7749POPC   C3B57081  22.342  26.151   7.050
 7749POPC   C4B57082  22.377  26.222   7.350
 7750POPC   NC357083  43.121  36.912   5.550
 7750POPC   PO457084  43.139  36.902   5.850
 7750POPC   GL157085  43.078  36.912   6.150
 7750POPC   GL257086  43.201  36.780   6.150
 7750POPC   C1A57087  43.122  36.904   6.450
 7750POPC   D2A57088  43.094  36.907   6.750
 7750POPC   C3A57089  43.160  36.949   7.050
 7750POPC   C4A57090  43.096  36.859   7.350
 7750POPC   C1B57091  43.288  36.708   6.450
 7750POPC   C2B57092  43.271  36.656   6.750
 7750POPC   C3B57093  43.272  36.726   7.050
 7750POPC   C4B57094  43.299  36.698   7.350
 7751POPC   NC357095  29.885  22.183   5.550
 7751POPC   PO457096  29.875  22.133   5.850
 7751POPC   GL157097  29.952  22.115   6.150
 7751POPC   GL257098  29.965  21.989   6.150
 7751POPC   C1A57099  29.907  22.122   6.450
 7751POPC   D2A57100  29.916  22.123   6.750
 7751POPC   C3A57101  29.890  22.162   7.050
 7751POPC   C4A57102  29.893  22.159   7.350
 7751POPC   C1B57103  29.933  21.872   6.450
 7751POPC   C2B57104  29.872  21.932   6.750
 7751POPC   C3B57105  29.878  21.928   7.050
 7751POPC   C4B57106  29.907  21.876   7.350
 7752POPC   NC357107  22.146  29.133   5.550
 7752POPC   PO457108  22.146  29.142   5.850
 7752POPC   GL157109  22.187  29.194   6.150
 7752POPC   GL257110  22.302  29.180   6.150
 7752POPC   C1A57111  22.119  29.168   6.450
 7752POPC   D2A57112  22.209  29.169   6.750
 7752POPC   C3A57113  22.142  29.169   7.050
 7752POPC   C4A57114  22.199  29.158   7.350
 7752POPC   C1B57115  22.440  29.236   6.450
 7752POPC   C2B57116  22.385  29.193   6.750
 7752POPC   C3B57117  22.440  29.143   7.050
 7752POPC   C4B57118  22.384  29.201   7.350
 7753POPC   NC357119  29.904  40.033   5.550
 7753POPC   PO457120  29.891  40.010   5.850
 7753POPC   GL157121  29.906  39.960   6.150
 7753POPC   GL257122  29.883  39.875   6.150
 7753POPC   C1A57123  29.873  40.000   6.450
 7753POPC   D2A57124  29.962  39.979   6.750
 7753POPC   C3A57125  29.945  39.987   7.050
 7753POPC   C4A57126  29.968  39.979   7.350
 7753POPC   C1B57127  29.856  39.757   6.450
 7753POPC   C2B57128  29.845  39.721   6.750
 7753POPC   C3B57129  29.858  39.764   7.050
 7753POPC   C4B57130  29.889  39.742   7.350
 7754POPC   NC357131  33.060   1.948   5.550
 7754POPC   PO457132  32.987   1.970   5.850
 7754POPC   GL157133  32.992   2.022   6.150
 7754POPC   GL257134  33.182   2.009   6.150
 7754POPC   C1A57135  33.046   1.950   6.450
 7754POPC   D2A57136  33.046   2.022   6.750
 7754POPC   C3A57137  33.051   2.025   7.050
 7754POPC   C4A57138  33.030   1.992   7.350
 7754POPC   C1B57139  33.206   2.083   6.450
 7754POPC   C2B57140  33.282   2.132   6.750
 7754POPC   C3B57141  33.212   2.084   7.050
 7754POPC   C4B57142  33.266   2.084   7.350
 7755POPC   NC357143  24.529  29.140   5.550
 7755POPC   PO457144  24.478  29.102   5.850
 7755POPC   GL157145  24.445  29.144   6.150
 7755POPC   GL257146  24.647  29.123   6.150
 7755POPC   C1A57147  24.515  29.111   6.450
 7755POPC   D2A57148  24.525  29.150   6.750
 7755POPC   C3A57149  24.514  29.101   7.050
 7755POPC   C4A57150  24.528  29.183   7.350
 7755POPC   C1B57151  24.756  29.014   6.450
 7755POPC   C2B57152  24.736  29.043   6.750
 7755POPC   C3B57153  24.717  28.979   7.050
 7755POPC   C4B57154  24.710  29.010   7.350
 7756POPC   NC357155   5.058  33.850   5.550
 7756POPC   PO457156   5.101  33.792   5.850
 7756POPC   GL157157   5.109  33.800   6.150
 7756POPC   GL257158   5.134  33.668   6.150
 7756POPC   C1A57159   5.140  33.850   6.450
 7756POPC   D2A57160   5.115  33.845   6.750
 7756POPC   C3A57161   5.090  33.816   7.050
 7756POPC   C4A57162   5.092  33.822   7.350
 7756POPC   C1B57163   5.265  33.644   6.450
 7756POPC   C2B57164   5.272  33.579   6.750
 7756POPC   C3B57165   5.245  33.667   7.050
 7756POPC   C4B57166   5.282  33.639   7.350
 7757POPC   NC357167  19.102  36.163   5.550
 7757POPC   PO457168  19.011  36.111   5.850
 7757POPC   GL157169  19.097  36.112   6.150
 7757POPC   GL257170  19.151  36.191   6.150
 7757POPC   C1A57171  19.038  36.103   6.450
 7757POPC   D2A57172  19.068  36.104   6.750
 7757POPC   C3A57173  19.029  36.117   7.050
 7757POPC   C4A57174  19.092  36.164   7.350
 7757POPC   C1B57175  19.281  36.264   6.450
 7757POPC   C2B57176  19.243  36.238   6.750
 7757POPC   C3B57177  19.263  36.295   7.050
 7757POPC   C4B57178  19.250  36.264   7.350
 7758POPC   NC357179  29.110  26.041   5.550
 7758POPC   PO457180  29.193  25.995   5.850
 7758POPC   GL157181  29.148  26.051   6.150
 7758POPC   GL257182  29.210  26.012   6.150
 7758POPC   C1A57183  29.180  26.016   6.450
 7758POPC   D2A57184  29.185  26.023   6.750
 7758POPC   C3A57185  29.116  26.041   7.050
 7758POPC   C4A57186  29.178  26.041   7.350
 7758POPC   C1B57187  29.397  25.930   6.450
 7758POPC   C2B57188  29.329  25.921   6.750
 7758POPC   C3B57189  29.338  25.921   7.050
 7758POPC   C4B57190  29.345  25.895   7.350
 7759POPC   NC357191  21.350  40.819   5.550
 7759POPC   PO457192  21.418  40.739   5.850
 7759POPC   GL157193  21.368  40.813   6.150
 7759POPC   GL257194  21.530  40.839   6.150
 7759POPC   C1A57195  21.429  40.739   6.450
 7759POPC   D2A57196  21.410  40.819   6.750
 7759POPC   C3A57197  21.386  40.733   7.050
 7759POPC   C4A57198  21.423  40.782   7.350
 7759POPC   C1B57199  21.632  40.790   6.450
 7759POPC   C2B57200  21.592  40.796   6.750
 7759POPC   C3B57201  21.663  40.837   7.050
 7759POPC   C4B57202  21.629  40.843   7.350
 7760POPC   NC357203  33.794  29.165   5.550
 7760POPC   PO457204  33.802  29.193   5.850
 7760POPC   GL157205  33.776  29.194   6.150
 7760POPC   GL257206  33.689  29.137   6.150
 7760POPC   C1A57207  33.849  29.168   6.450
 7760POPC   D2A57208  33.839  29.167   6.750
 7760POPC   C3A57209  33.754  29.167   7.050
 7760POPC   C4A57210  33.809  29.192   7.350
 7760POPC   C1B57211  33.527  29.080   6.450
 7760POPC   C2B57212  33.536  29.075   6.750
 7760POPC   C3B57213  33.523  29.070   7.050
 7760POPC   C4B57214  33.532  29.026   7.350
 7761POPC   NC357215  21.413  20.618   5.550
 7761POPC   PO457216  21.429  20.582   5.850
 7761POPC   GL157217  21.349  20.617   6.150
 7761POPC   GL257218  21.440  20.506   6.150
 7761POPC   C1A57219  21.418  20.584   6.450
 7761POPC   D2A57220  21.357  20.603   6.750
 7761POPC   C3A57221  21.377  20.652   7.050
 7761POPC   C4A57222  21.345  20.568   7.350
 7761POPC   C1B57223  21.618  20.492   6.450
 7761POPC   C2B57224  21.560  20.462   6.750
 7761POPC   C3B57225  21.548  20.462   7.050
 7761POPC   C4B57226  21.560  20.504   7.350
 7762POPC   NC357227  29.167  33.050   5.550
 7762POPC   PO457228  29.174  33.017   5.850
 7762POPC   GL157229  29.142  33.045   6.150
 7762POPC   GL257230  29.069  32.903   6.150
 7762POPC   C1A57231  29.181  33.074   6.450
 7762POPC   D2A57232  29.184  33.022   6.750
 7762POPC   C3A57233  29.159  33.049   7.050
 7762POPC   C4A57234  29.104  33.013   7.350
 7762POPC   C1B57235  28.945  32.888   6.450
 7762POPC   C2B57236  28.966  32.832   6.750
 7762POPC   C3B57237  28.951  32.819   7.050
 7762POPC   C4B57238  28.925  32.843   7.350
 7763POPC   NC357239  24.511  38.469   5.550
 7763POPC   PO457240  24.528  38.500   5.850
 7763POPC   GL157241  24.469  38.467   6.150
 7763POPC   GL257242  24.617  38.489   6.150
 7763POPC   C1A57243  24.459  38.497   6.450
 7763POPC   D2A57244  24.510  38.454   6.750
 7763POPC   C3A57245  24.462  38.409   7.050
 7763POPC   C4A57246  24.443  38.445   7.350
 7763POPC   C1B57247  24.677  38.639   6.450
 7763POPC   C2B57248  24.700  38.591   6.750
 7763POPC   C3B57249  24.692  38.615   7.050
 7763POPC   C4B57250  24.717  38.583   7.350
 7764POPC   NC357251   1.192  10.532   5.550
 7764POPC   PO457252   1.262  10.573   5.850
 7764POPC   GL157253   1.221  10.496   6.150
 7764POPC   GL257254   1.219  10.419   6.150
 7764POPC   C1A57255   1.176  10.476   6.450
 7764POPC   D2A57256   1.234  10.535   6.750
 7764POPC   C3A57257   1.235  10.486   7.050
 7764POPC   C4A57258   1.238  10.515   7.350
 7764POPC   C1B57259   1.252  10.283   6.450
 7764POPC   C2B57260   1.266  10.231   6.750
 7764POPC   C3B57261   1.246  10.276   7.050
 7764POPC   C4B57262   1.233  10.319   7.350
 7765POPC   NC357263  33.033  37.672   5.550
 7765POPC   PO457264  33.032  37.721   5.850
 7765POPC   GL157265  33.062  37.683   6.150
 7765POPC   GL257266  33.079  37.720   6.150
 7765POPC   C1A57267  33.011  37.637   6.450
 7765POPC   D2A57268  33.026  37.719   6.750
 7765POPC   C3A57269  33.068  37.642   7.050
 7765POPC   C4A57270  33.055  37.718   7.350
 7765POPC   C1B57271  33.206  37.877   6.450
 7765POPC   C2B57272  33.188  37.876   6.750
 7765POPC   C3B57273  33.247  37.825   7.050
 7765POPC   C4B57274  33.169  37.808   7.350
 7766POPC   NC357275   5.827  25.999   5.550
 7766POPC   PO457276   5.869  26.001   5.850
 7766POPC   GL157277   5.862  25.992   6.150
 7766POPC   GL257278   5.876  26.171   6.150
 7766POPC   C1A57279   5.830  26.004   6.450
 7766POPC   D2A57280   5.904  26.057   6.750
 7766POPC   C3A57281   5.867  26.042   7.050
 7766POPC   C4A57282   5.891  26.025   7.350
 7766POPC   C1B57283   5.786  26.306   6.450
 7766POPC   C2B57284   5.773  26.320   6.750
 7766POPC   C3B57285   5.761  26.229   7.050
 7766POPC   C4B57286   5.759  26.280   7.350
 7767POPC   NC357287  38.469  19.039   5.550
 7767POPC   PO457288  38.436  19.061   5.850
 7767POPC   GL157289  38.482  19.026   6.150
 7767POPC   GL257290  38.368  19.204   6.150
 7767POPC   C1A57291  38.407  19.020   6.450
 7767POPC   D2A57292  38.495  19.074   6.750
 7767POPC   C3A57293  38.444  19.086   7.050
 7767POPC   C4A57294  38.447  19.092   7.350
 7767POPC   C1B57295  38.299  19.264   6.450
 7767POPC   C2B57296  38.332  19.298   6.750
 7767POPC   C3B57297  38.295  19.317   7.050
 7767POPC   C4B57298  38.335  19.319   7.350
 7768POPC   NC357299  10.535  15.206   5.550
 7768POPC   PO457300  10.480  15.217   5.850
 7768POPC   GL157301  10.554  15.219   6.150
 7768POPC   GL257302  10.520  15.079   6.150
 7768POPC   C1A57303  10.503  15.223   6.450
 7768POPC   D2A57304  10.497  15.194   6.750
 7768POPC   C3A57305  10.568  15.155   7.050
 7768POPC   C4A57306  10.491  15.222   7.350
 7768POPC   C1B57307  10.657  14.929   6.450
 7768POPC   C2B57308  10.620  14.927   6.750
 7768POPC   C3B57309  10.662  14.918   7.050
 7768POPC   C4B57310  10.565  14.969   7.350
 7769POPC   NC357311  26.846  29.101   5.550
 7769POPC   PO457312  26.770  29.153   5.850
 7769POPC   GL157313  26.783  29.190   6.150
 7769POPC   GL257314  26.688  29.110   6.150
 7769POPC   C1A57315  26.841  29.182   6.450
 7769POPC   D2A57316  26.803  29.117   6.750
 7769POPC   C3A57317  26.860  29.184   7.050
 7769POPC   C4A57318  26.811  29.124   7.350
 7769POPC   C1B57319  26.604  29.101   6.450
 7769POPC   C2B57320  26.553  29.049   6.750
 7769POPC   C3B57321  26.569  29.054   7.050
 7769POPC   C4B57322  26.544  29.021   7.350
 7770POPC   NC357323  24.519  33.796   5.550
 7770POPC   PO457324  24.483  33.758   5.850
 7770POPC   GL157325  24.493  33.822   6.150
 7770POPC   GL257326  24.639  33.758   6.150
 7770POPC   C1A57327  24.518  33.841   6.450
 7770POPC   D2A57328  24.445  33.794   6.750
 7770POPC   C3A57329  24.477  33.846   7.050
 7770POPC   C4A57330  24.518  33.826   7.350
 7770POPC   C1B57331  24.704  33.741   6.450
 7770POPC   C2B57332  24.749  33.774   6.750
 7770POPC   C3B57333  24.746  33.740   7.050
 7770POPC   C4B57334  24.778  33.719   7.350
 7771POPC   NC357335   2.724  13.625   5.550
 7771POPC   PO457336   2.792  13.668   5.850
 7771POPC   GL157337   2.815  13.677   6.150
 7771POPC   GL257338   2.767  13.551   6.150
 7771POPC   C1A57339   2.745  13.622   6.450
 7771POPC   D2A57340   2.757  13.584   6.750
 7771POPC   C3A57341   2.788  13.650   7.050
 7771POPC   C4A57342   2.732  13.627   7.350
 7771POPC   C1B57343   2.870  13.431   6.450
 7771POPC   C2B57344   2.856  13.440   6.750
 7771POPC   C3B57345   2.861  13.394   7.050
 7771POPC   C4B57346   2.864  13.408   7.350
 7772POPC   NC357347  16.772  15.966   5.550
 7772POPC   PO457348  16.773  15.954   5.850
 7772POPC   GL157349  16.749  15.990   6.150
 7772POPC   GL257350  16.876  15.991   6.150
 7772POPC   C1A57351  16.691  15.936   6.450
 7772POPC   D2A57352  16.714  16.000   6.750
 7772POPC   C3A57353  16.702  16.000   7.050
 7772POPC   C4A57354  16.746  15.980   7.350
 7772POPC   C1B57355  16.977  16.115   6.450
 7772POPC   C2B57356  16.968  16.108   6.750
 7772POPC   C3B57357  16.966  16.140   7.050
 7772POPC   C4B57358  16.903  16.101   7.350
 7773POPC   NC357359  43.837   3.587   5.550
 7773POPC   PO457360  43.919   3.545   5.850
 7773POPC   GL157361  43.882   3.578   6.150
 7773POPC   GL257362  43.927   3.394   6.150
 7773POPC   C1A57363  43.859   3.542   6.450
 7773POPC   D2A57364  43.866   3.586   6.750
 7773POPC   C3A57365  43.893   3.568   7.050
 7773POPC   C4A57366  43.923   3.575   7.350
 7773POPC   C1B57367  43.894   3.261   6.450
 7773POPC   C2B57368  43.936   3.295   6.750
 7773POPC   C3B57369  43.913   3.286   7.050
 7773POPC   C4B57370  43.918   3.321   7.350
 7774POPC   NC357371  19.047  19.030   5.550
 7774POPC   PO457372  19.020  19.049   5.850
 7774POPC   GL157373  19.062  19.051   6.150
 7774POPC   GL257374  19.101  19.140   6.150
 7774POPC   C1A57375  19.071  19.009   6.450
 7774POPC   D2A57376  19.070  19.099   6.750
 7774POPC   C3A57377  19.094  19.064   7.050
 7774POPC   C4A57378  19.069  19.084   7.350
 7774POPC   C1B57379  19.183  19.338   6.450
 7774POPC   C2B57380  19.110  19.333   6.750
 7774POPC   C3B57381  19.158  19.263   7.050
 7774POPC   C4B57382  19.189  19.342   7.350
 7775POPC   NC357383  33.789  31.476   5.550
 7775POPC   PO457384  33.836  31.440   5.850
 7775POPC   GL157385  33.766  31.497   6.150
 7775POPC   GL257386  33.871  31.375   6.150
 7775POPC   C1A57387  33.816  31.493   6.450
 7775POPC   D2A57388  33.786  31.490   6.750
 7775POPC   C3A57389  33.820  31.479   7.050
 7775POPC   C4A57390  33.794  31.436   7.350
 7775POPC   C1B57391  33.978  31.300   6.450
 7775POPC   C2B57392  33.989  31.306   6.750
 7775POPC   C3B57393  33.964  31.312   7.050
 7775POPC   C4B57394  33.998  31.303   7.350
 7776POPC   NC357395  32.292  22.120   5.550
 7776POPC   PO457396  32.252  22.150   5.850
 7776POPC   GL157397  32.262  22.186   6.150
 7776POPC   GL257398  32.285  22.295   6.150
 7776POPC   C1A57399  32.198  22.202   6.450
 7776POPC   D2A57400  32.288  22.128   6.750
 7776POPC   C3A57401  32.246  22.172   7.050
 7776POPC   C4A57402  32.247  22.201   7.350
 7776POPC   C1B57403  32.456  22.368   6.450
 7776POPC   C2B57404  32.375  22.311   6.750
 7776POPC   C3B57405  32.463  22.309   7.050
 7776POPC   C4B57406  32.448  22.329   7.350
 7777POPC   NC357407  22.963  22.151   5.550
 7777POPC   PO457408  22.981  22.138   5.850
 7777POPC   GL157409  22.951  22.186   6.150
 7777POPC   GL257410  22.857  22.133   6.150
 7777POPC   C1A57411  22.898  22.187   6.450
 7777POPC   D2A57412  22.967  22.174   6.750
 7777POPC   C3A57413  22.915  22.148   7.050
 7777POPC   C4A57414  22.933  22.158   7.350
 7777POPC   C1B57415  22.664  22.113   6.450
 7777POPC   C2B57416  22.694  22.080   6.750
 7777POPC   C3B57417  22.698  22.143   7.050
 7777POPC   C4B57418  22.739  22.072   7.350
 7778POPC   NC357419  13.616   0.410   5.550
 7778POPC   PO457420  13.603   0.447   5.850
 7778POPC   GL157421  13.641   0.405   6.150
 7778POPC   GL257422  13.630   0.307   6.150
 7778POPC   C1A57423  13.654   0.445   6.450
 7778POPC   D2A57424  13.643   0.403   6.750
 7778POPC   C3A57425  13.609   0.485   7.050
 7778POPC   C4A57426  13.584   0.410   7.350
 7778POPC   C1B57427  13.651   0.185   6.450
 7778POPC   C2B57428  13.665   0.169   6.750
 7778POPC   C3B57429  13.647   0.207   7.050
 7778POPC   C4B57430  13.604   0.150   7.350
 7779POPC   NC357431  25.315   1.954   5.550
 7779POPC   PO457432  25.247   1.947   5.850
 7779POPC   GL157433  25.230   1.946   6.150
 7779POPC   GL257434  25.269   1.880   6.150
 7779POPC   C1A57435  25.303   1.955   6.450
 7779POPC   D2A57436  25.288   1.984   6.750
 7779POPC   C3A57437  25.252   1.947   7.050
 7779POPC   C4A57438  25.223   1.987   7.350
 7779POPC   C1B57439  25.256   1.744   6.450
 7779POPC   C2B57440  25.257   1.759   6.750
 7779POPC   C3B57441  25.280   1.718   7.050
 7779POPC   C4B57442  25.305   1.710   7.350
 7780POPC   NC357443   3.583   6.679   5.550
 7780POPC   PO457444   3.542   6.602   5.850
 7780POPC   GL157445   3.543   6.609   6.150
 7780POPC   GL257446   3.629   6.777   6.150
 7780POPC   C1A57447   3.553   6.659   6.450
 7780POPC   D2A57448   3.584   6.661   6.750
 7780POPC   C3A57449   3.497   6.631   7.050
 7780POPC   C4A57450   3.550   6.627   7.350
 7780POPC   C1B57451   3.694   6.857   6.450
 7780POPC   C2B57452   3.643   6.879   6.750
 7780POPC   C3B57453   3.713   6.828   7.050
 7780POPC   C4B57454   3.719   6.834   7.350
 7781POPC   NC357455  36.916  33.038   5.550
 7781POPC   PO457456  36.893  32.985   5.850
 7781POPC   GL157457  36.889  32.982   6.150
 7781POPC   GL257458  36.842  32.866   6.150
 7781POPC   C1A57459  36.942  33.011   6.450
 7781POPC   D2A57460  36.868  33.014   6.750
 7781POPC   C3A57461  36.902  33.062   7.050
 7781POPC   C4A57462  36.951  32.993   7.350
 7781POPC   C1B57463  36.829  32.820   6.450
 7781POPC   C2B57464  36.849  32.751   6.750
 7781POPC   C3B57465  36.852  32.772   7.050
 7781POPC   C4B57466  36.923  32.735   7.350
 7782POPC   NC357467  31.427  29.144   5.550
 7782POPC   PO457468  31.500  29.124   5.850
 7782POPC   GL157469  31.457  29.102   6.150
 7782POPC   GL257470  31.564  29.156   6.150
 7782POPC   C1A57471  31.470  29.113   6.450
 7782POPC   D2A57472  31.435  29.144   6.750
 7782POPC   C3A57473  31.462  29.143   7.050
 7782POPC   C4A57474  31.445  29.163   7.350
 7782POPC   C1B57475  31.693  29.135   6.450
 7782POPC   C2B57476  31.676  29.205   6.750
 7782POPC   C3B57477  31.763  29.128   7.050
 7782POPC   C4B57478  31.741  29.166   7.350
 7783POPC   NC357479  39.958  12.871   5.550
 7783POPC   PO457480  39.987  12.861   5.850
 7783POPC   GL157481  40.009  12.838   6.150
 7783POPC   GL257482  39.972  12.686   6.150
 7783POPC   C1A57483  40.030  12.873   6.450
 7783POPC   D2A57484  40.021  12.889   6.750
 7783POPC   C3A57485  39.958  12.819   7.050
 7783POPC   C4A57486  40.031  12.873   7.350
 7783POPC   C1B57487  39.899  12.599   6.450
 7783POPC   C2B57488  39.965  12.634   6.750
 7783POPC   C3B57489  39.951  12.650   7.050
 7783POPC   C4B57490  39.951  12.588   7.350
 7784POPC   NC357491  28.374  42.303   5.550
 7784POPC   PO457492  28.399  42.301   5.850
 7784POPC   GL157493  28.332  42.349   6.150
 7784POPC   GL257494  28.461  42.269   6.150
 7784POPC   C1A57495  28.320  42.337   6.450
 7784POPC   D2A57496  28.398  42.363   6.750
 7784POPC   C3A57497  28.344  42.371   7.050
 7784POPC   C4A57498  28.408  42.330   7.350
 7784POPC   C1B57499  28.623  42.313   6.450
 7784POPC   C2B57500  28.628  42.244   6.750
 7784POPC   C3B57501  28.640  42.301   7.050
 7784POPC   C4B57502  28.576  42.258   7.350
 7785POPC   NC357503  38.451   7.443   5.550
 7785POPC   PO457504  38.422   7.462   5.850
 7785POPC   GL157505  38.505   7.426   6.150
 7785POPC   GL257506  38.304   7.328   6.150
 7785POPC   C1A57507  38.478   7.451   6.450
 7785POPC   D2A57508  38.471   7.456   6.750
 7785POPC   C3A57509  38.450   7.424   7.050
 7785POPC   C4A57510  38.459   7.418   7.350
 7785POPC   C1B57511  38.277   7.279   6.450
 7785POPC   C2B57512  38.208   7.355   6.750
 7785POPC   C3B57513  38.256   7.356   7.050
 7785POPC   C4B57514  38.200   7.319   7.350
 7786POPC   NC357515   6.677   9.768   5.550
 7786POPC   PO457516   6.692   9.774   5.850
 7786POPC   GL157517   6.650   9.728   6.150
 7786POPC   GL257518   6.599   9.895   6.150
 7786POPC   C1A57519   6.627   9.749   6.450
 7786POPC   D2A57520   6.615   9.704   6.750
 7786POPC   C3A57521   6.610   9.757   7.050
 7786POPC   C4A57522   6.620   9.783   7.350
 7786POPC   C1B57523   6.513   9.901   6.450
 7786POPC   C2B57524   6.468   9.963   6.750
 7786POPC   C3B57525   6.471   9.928   7.050
 7786POPC   C4B57526   6.453   9.980   7.350
 7787POPC   NC357527   1.955  37.642   5.550
 7787POPC   PO457528   1.956  37.640   5.850
 7787POPC   GL157529   2.000  37.636   6.150
 7787POPC   GL257530   1.831  37.724   6.150
 7787POPC   C1A57531   1.945  37.646   6.450
 7787POPC   D2A57532   1.943  37.668   6.750
 7787POPC   C3A57533   2.031  37.632   7.050
 7787POPC   C4A57534   1.999  37.652   7.350
 7787POPC   C1B57535   1.722  37.664   6.450
 7787POPC   C2B57536   1.749  37.666   6.750
 7787POPC   C3B57537   1.725  37.701   7.050
 7787POPC   C4B57538   1.751  37.661   7.350
 7788POPC   NC357539  24.499  12.825   5.550
 7788POPC   PO457540  24.529  12.817   5.850
 7788POPC   GL157541  24.453  12.870   6.150
 7788POPC   GL257542  24.535  12.712   6.150
 7788POPC   C1A57543  24.445  12.806   6.450
 7788POPC   D2A57544  24.465  12.838   6.750
 7788POPC   C3A57545  24.455  12.821   7.050
 7788POPC   C4A57546  24.476  12.810   7.350
 7788POPC   C1B57547  24.613  12.579   6.450
 7788POPC   C2B57548  24.560  12.642   6.750
 7788POPC   C3B57549  24.565  12.628   7.050
 7788POPC   C4B57550  24.632  12.593   7.350
 7789POPC   NC357551  14.366  25.220   5.550
 7789POPC   PO457552  14.443  25.270   5.850
 7789POPC   GL157553  14.379  25.275   6.150
 7789POPC   GL257554  14.326  25.153   6.150
 7789POPC   C1A57555  14.354  25.244   6.450
 7789POPC   D2A57556  14.453  25.307   6.750
 7789POPC   C3A57557  14.453  25.292   7.050
 7789POPC   C4A57558  14.402  25.218   7.350
 7789POPC   C1B57559  14.252  25.093   6.450
 7789POPC   C2B57560  14.164  25.087   6.750
 7789POPC   C3B57561  14.177  25.103   7.050
 7789POPC   C4B57562  14.226  25.160   7.350
 7790POPC   NC357563  39.982   7.374   5.550
 7790POPC   PO457564  40.055   7.446   5.850
 7790POPC   GL157565  40.034   7.422   6.150
 7790POPC   GL257566  40.122   7.305   6.150
 7790POPC   C1A57567  40.029   7.373   6.450
 7790POPC   D2A57568  39.986   7.410   6.750
 7790POPC   C3A57569  39.975   7.441   7.050
 7790POPC   C4A57570  40.057   7.381   7.350
 7790POPC   C1B57571  40.180   7.255   6.450
 7790POPC   C2B57572  40.227   7.235   6.750
 7790POPC   C3B57573  40.159   7.295   7.050
 7790POPC   C4B57574  40.218   7.299   7.350
 7791POPC   NC357575  31.466   3.551   5.550
 7791POPC   PO457576  31.485   3.570   5.850
 7791POPC   GL157577  31.472   3.568   6.150
 7791POPC   GL257578  31.406   3.469   6.150
 7791POPC   C1A57579  31.482   3.566   6.450
 7791POPC   D2A57580  31.468   3.532   6.750
 7791POPC   C3A57581  31.474   3.522   7.050
 7791POPC   C4A57582  31.471   3.524   7.350
 7791POPC   C1B57583  31.393   3.324   6.450
 7791POPC   C2B57584  31.363   3.320   6.750
 7791POPC   C3B57585  31.435   3.341   7.050
 7791POPC   C4B57586  31.428   3.289   7.350
 7792POPC   NC357587   7.462  15.914   5.550
 7792POPC   PO457588   7.459  15.963   5.850
 7792POPC   GL157589   7.454  15.980   6.150
 7792POPC   GL257590   7.544  16.006   6.150
 7792POPC   C1A57591   7.468  15.940   6.450
 7792POPC   D2A57592   7.468  15.917   6.750
 7792POPC   C3A57593   7.411  15.913   7.050
 7792POPC   C4A57594   7.449  15.987   7.350
 7792POPC   C1B57595   7.628  16.133   6.450
 7792POPC   C2B57596   7.566  16.071   6.750
 7792POPC   C3B57597   7.650  16.078   7.050
 7792POPC   C4B57598   7.642  16.110   7.350
 7793POPC   NC357599  16.686  12.867   5.550
 7793POPC   PO457600  16.698  12.857   5.850
 7793POPC   GL157601  16.771  12.899   6.150
 7793POPC   GL257602  16.734  12.768   6.150
 7793POPC   C1A57603  16.753  12.825   6.450
 7793POPC   D2A57604  16.759  12.828   6.750
 7793POPC   C3A57605  16.743  12.872   7.050
 7793POPC   C4A57606  16.737  12.838   7.350
 7793POPC   C1B57607  16.703  12.601   6.450
 7793POPC   C2B57608  16.749  12.607   6.750
 7793POPC   C3B57609  16.704  12.632   7.050
 7793POPC   C4B57610  16.723  12.578   7.350
 7794POPC   NC357611  15.936  24.441   5.550
 7794POPC   PO457612  15.918  24.479   5.850
 7794POPC   GL157613  15.948  24.535   6.150
 7794POPC   GL257614  16.032  24.398   6.150
 7794POPC   C1A57615  15.939  24.462   6.450
 7794POPC   D2A57616  15.928  24.447   6.750
 7794POPC   C3A57617  15.953  24.448   7.050
 7794POPC   C4A57618  15.995  24.487   7.350
 7794POPC   C1B57619  16.148  24.425   6.450
 7794POPC   C2B57620  16.197  24.453   6.750
 7794POPC   C3B57621  16.235  24.417   7.050
 7794POPC   C4B57622  16.187  24.441   7.350
 7795POPC   NC357623   5.834  33.751   5.550
 7795POPC   PO457624   5.895  33.753   5.850
 7795POPC   GL157625   5.845  33.839   6.150
 7795POPC   GL257626   5.950  33.741   6.150
 7795POPC   C1A57627   5.877  33.765   6.450
 7795POPC   D2A57628   5.894  33.789   6.750
 7795POPC   C3A57629   5.840  33.750   7.050
 7795POPC   C4A57630   5.910  33.842   7.350
 7795POPC   C1B57631   6.107  33.643   6.450
 7795POPC   C2B57632   6.061  33.616   6.750
 7795POPC   C3B57633   6.114  33.690   7.050
 7795POPC   C4B57634   6.070  33.662   7.350
 7796POPC   NC357635  22.952  43.904   5.550
 7796POPC   PO457636  22.900  43.854   5.850
 7796POPC   GL157637  22.901  43.846   6.150
 7796POPC   GL257638  22.863  43.799   6.150
 7796POPC   C1A57639  22.941  43.926   6.450
 7796POPC   D2A57640  22.926  43.901   6.750
 7796POPC   C3A57641  22.897  43.913   7.050
 7796POPC   C4A57642  22.958  43.887   7.350
 7796POPC   C1B57643  22.662  43.829   6.450
 7796POPC   C2B57644  22.699  43.832   6.750
 7796POPC   C3B57645  22.732  43.822   7.050
 7796POPC   C4B57646  22.713  43.780   7.350
 7797POPC   NC357647  38.425  40.801   5.550
 7797POPC   PO457648  38.427  40.784   5.850
 7797POPC   GL157649  38.486  40.832   6.150
 7797POPC   GL257650  38.338  40.739   6.150
 7797POPC   C1A57651  38.413  40.759   6.450
 7797POPC   D2A57652  38.489  40.758   6.750
 7797POPC   C3A57653  38.501  40.748   7.050
 7797POPC   C4A57654  38.472  40.753   7.350
 7797POPC   C1B57655  38.244  40.707   6.450
 7797POPC   C2B57656  38.177  40.702   6.750
 7797POPC   C3B57657  38.188  40.718   7.050
 7797POPC   C4B57658  38.237  40.718   7.350
 7798POPC   NC357659  25.221   1.222   5.550
 7798POPC   PO457660  25.272   1.173   5.850
 7798POPC   GL157661  25.305   1.204   6.150
 7798POPC   GL257662  25.301   1.045   6.150
 7798POPC   C1A57663  25.262   1.242   6.450
 7798POPC   D2A57664  25.267   1.175   6.750
 7798POPC   C3A57665  25.218   1.190   7.050
 7798POPC   C4A57666  25.281   1.192   7.350
 7798POPC   C1B57667  25.297   0.967   6.450
 7798POPC   C2B57668  25.241   0.919   6.750
 7798POPC   C3B57669  25.231   0.919   7.050
 7798POPC   C4B57670  25.235   1.000   7.350
 7799POPC   NC357671   7.406  12.808   5.550
 7799POPC   PO457672   7.413  12.808   5.850
 7799POPC   GL157673   7.422  12.832   6.150
 7799POPC   GL257674   7.274  12.854   6.150
 7799POPC   C1A57675   7.443  12.804   6.450
 7799POPC   D2A57676   7.467  12.894   6.750
 7799POPC   C3A57677   7.386  12.812   7.050
 7799POPC   C4A57678   7.439  12.839   7.350
 7799POPC   C1B57679   7.177  12.920   6.450
 7799POPC   C2B57680   7.206  12.959   6.750
 7799POPC   C3B57681   7.149  12.989   7.050
 7799POPC   C4B57682   7.172  12.943   7.350
 7800POPC   NC357683   7.386   7.376   5.550
 7800POPC   PO457684   7.380   7.470   5.850
 7800POPC   GL157685   7.428   7.425   6.150
 7800POPC   GL257686   7.443   7.547   6.150
 7800POPC   C1A57687   7.440   7.394   6.450
 7800POPC   D2A57688   7.436   7.391   6.750
 7800POPC   C3A57689   7.371   7.460   7.050
 7800POPC   C4A57690   7.415   7.413   7.350
 7800POPC   C1B57691   7.510   7.605   6.450
 7800POPC   C2B57692   7.593   7.644   6.750
 7800POPC   C3B57693   7.543   7.592   7.050
 7800POPC   C4B57694   7.503   7.623   7.350
 7801POPC   NC357695   0.388   5.047   5.550
 7801POPC   PO457696   0.410   5.128   5.850
 7801POPC   GL157697   0.455   5.080   6.150
 7801POPC   GL257698   0.341   5.121   6.150
 7801POPC   C1A57699   0.441   5.070   6.450
 7801POPC   D2A57700   0.425   5.119   6.750
 7801POPC   C3A57701   0.404   5.049   7.050
 7801POPC   C4A57702   0.401   5.109   7.350
 7801POPC   C1B57703   0.187   5.282   6.450
 7801POPC   C2B57704   0.245   5.267   6.750
 7801POPC   C3B57705   0.247   5.193   7.050
 7801POPC   C4B57706   0.233   5.207   7.350
 7802POPC   NC357707  29.105  11.312   5.550
 7802POPC   PO457708  29.096  11.282   5.850
 7802POPC   GL157709  29.144  11.348   6.150
 7802POPC   GL257710  29.123  11.175   6.150
 7802POPC   C1A57711  29.124  11.304   6.450
 7802POPC   D2A57712  29.109  11.276   6.750
 7802POPC   C3A57713  29.175  11.269   7.050
 7802POPC   C4A57714  29.117  11.279   7.350
 7802POPC   C1B57715  29.024  11.098   6.450
 7802POPC   C2B57716  29.022  11.077   6.750
 7802POPC   C3B57717  29.019  11.036   7.050
 7802POPC   C4B57718  29.117  11.077   7.350
 7803POPC   NC357719  23.691  22.160   5.550
 7803POPC   PO457720  23.711  22.174   5.850
 7803POPC   GL157721  23.714  22.142   6.150
 7803POPC   GL257722  23.599  22.047   6.150
 7803POPC   C1A57723  23.691  22.127   6.450
 7803POPC   D2A57724  23.688  22.168   6.750
 7803POPC   C3A57725  23.735  22.191   7.050
 7803POPC   C4A57726  23.764  22.140   7.350
 7803POPC   C1B57727  23.516  21.974   6.450
 7803POPC   C2B57728  23.520  21.984   6.750
 7803POPC   C3B57729  23.496  21.991   7.050
 7803POPC   C4B57730  23.560  21.965   7.350
 7804POPC   NC357731  22.979  34.599   5.550
 7804POPC   PO457732  22.985  34.548   5.850
 7804POPC   GL157733  22.967  34.583   6.150
 7804POPC   GL257734  22.962  34.729   6.150
 7804POPC   C1A57735  22.958  34.566   6.450
 7804POPC   D2A57736  22.906  34.606   6.750
 7804POPC   C3A57737  22.912  34.624   7.050
 7804POPC   C4A57738  22.956  34.572   7.350
 7804POPC   C1B57739  22.917  34.862   6.450
 7804POPC   C2B57740  22.917  34.851   6.750
 7804POPC   C3B57741  22.950  34.799   7.050
 7804POPC   C4B57742  22.886  34.831   7.350
 7805POPC   NC357743  34.553  24.461   5.550
 7805POPC   PO457744  34.561  24.454   5.850
 7805POPC   GL157745  34.596  24.538   6.150
 7805POPC   GL257746  34.467  24.446   6.150
 7805POPC   C1A57747  34.592  24.454   6.450
 7805POPC   D2A57748  34.559  24.512   6.750
 7805POPC   C3A57749  34.542  24.493   7.050
 7805POPC   C4A57750  34.543  24.454   7.350
 7805POPC   C1B57751  34.329  24.461   6.450
 7805POPC   C2B57752  34.311  24.426   6.750
 7805POPC   C3B57753  34.371  24.427   7.050
 7805POPC   C4B57754  34.316  24.479   7.350
 7806POPC   NC357755  34.556  34.562   5.550
 7806POPC   PO457756  34.574  34.532   5.850
 7806POPC   GL157757  34.579  34.584   6.150
 7806POPC   GL257758  34.551  34.710   6.150
 7806POPC   C1A57759  34.593  34.567   6.450
 7806POPC   D2A57760  34.534  34.613   6.750
 7806POPC   C3A57761  34.559  34.610   7.050
 7806POPC   C4A57762  34.593  34.590   7.350
 7806POPC   C1B57763  34.602  34.818   6.450
 7806POPC   C2B57764  34.533  34.825   6.750
 7806POPC   C3B57765  34.556  34.865   7.050
 7806POPC   C4B57766  34.535  34.873   7.350
 7807POPC   NC357767  20.570   8.214   5.550
 7807POPC   PO457768  20.646   8.208   5.850
 7807POPC   GL157769  20.590   8.202   6.150
 7807POPC   GL257770  20.637   8.075   6.150
 7807POPC   C1A57771  20.565   8.162   6.450
 7807POPC   D2A57772  20.580   8.178   6.750
 7807POPC   C3A57773  20.570   8.242   7.050
 7807POPC   C4A57774  20.567   8.218   7.350
 7807POPC   C1B57775  20.540   7.900   6.450
 7807POPC   C2B57776  20.556   7.941   6.750
 7807POPC   C3B57777  20.576   7.915   7.050
 7807POPC   C4B57778  20.536   7.920   7.350
 7808POPC   NC357779  17.550  32.258   5.550
 7808POPC   PO457780  17.527  32.229   5.850
 7808POPC   GL157781  17.546  32.295   6.150
 7808POPC   GL257782  17.597  32.311   6.150
 7808POPC   C1A57783  17.525  32.226   6.450
 7808POPC   D2A57784  17.521  32.206   6.750
 7808POPC   C3A57785  17.525  32.287   7.050
 7808POPC   C4A57786  17.554  32.242   7.350
 7808POPC   C1B57787  17.757  32.403   6.450
 7808POPC   C2B57788  17.747  32.382   6.750
 7808POPC   C3B57789  17.740  32.361   7.050
 7808POPC   C4B57790  17.733  32.381   7.350
 7809POPC   NC357791  23.666  39.191   5.550
 7809POPC   PO457792  23.683  39.237   5.850
 7809POPC   GL157793  23.702  39.278   6.150
 7809POPC   GL257794  23.850  39.275   6.150
 7809POPC   C1A57795  23.692  39.263   6.450
 7809POPC   D2A57796  23.715  39.195   6.750
 7809POPC   C3A57797  23.726  39.220   7.050
 7809POPC   C4A57798  23.710  39.234   7.350
 7809POPC   C1B57799  23.941  39.285   6.450
 7809POPC   C2B57800  23.917  39.275   6.750
 7809POPC   C3B57801  23.989  39.326   7.050
 7809POPC   C4B57802  23.926  39.351   7.350
 7810POPC   NC357803  11.268   4.354   5.550
 7810POPC   PO457804  11.305   4.353   5.850
 7810POPC   GL157805  11.255   4.348   6.150
 7810POPC   GL257806  11.360   4.164   6.150
 7810POPC   C1A57807  11.349   4.362   6.450
 7810POPC   D2A57808  11.278   4.299   6.750
 7810POPC   C3A57809  11.266   4.309   7.050
 7810POPC   C4A57810  11.304   4.360   7.350
 7810POPC   C1B57811  11.403   4.089   6.450
 7810POPC   C2B57812  11.336   4.107   6.750
 7810POPC   C3B57813  11.350   4.074   7.050
 7810POPC   C4B57814  11.363   4.127   7.350
 7811POPC   NC357815  42.296   1.219   5.550
 7811POPC   PO457816  42.346   1.186   5.850
 7811POPC   GL157817  42.296   1.212   6.150
 7811POPC   GL257818  42.419   1.219   6.150
 7811POPC   C1A57819  42.370   1.167   6.450
 7811POPC   D2A57820  42.345   1.239   6.750
 7811POPC   C3A57821  42.308   1.184   7.050
 7811POPC   C4A57822  42.298   1.186   7.350
 7811POPC   C1B57823  42.610   1.167   6.450
 7811POPC   C2B57824  42.613   1.221   6.750
 7811POPC   C3B57825  42.556   1.218   7.050
 7811POPC   C4B57826  42.587   1.188   7.350
 7812POPC   NC357827   5.866   9.749   5.550
 7812POPC   PO457828   5.905   9.764   5.850
 7812POPC   GL157829   5.867   9.779   6.150
 7812POPC   GL257830   5.825   9.904   6.150
 7812POPC   C1A57831   5.883   9.744   6.450
 7812POPC   D2A57832   5.846   9.741   6.750
 7812POPC   C3A57833   5.917   9.771   7.050
 7812POPC   C4A57834   5.906   9.778   7.350
 7812POPC   C1B57835   5.844  10.009   6.450
 7812POPC   C2B57836   5.848  10.008   6.750
 7812POPC   C3B57837   5.870  10.009   7.050
 7812POPC   C4B57838   5.896   9.973   7.350
 7813POPC   NC357839  17.468  12.900   5.550
 7813POPC   PO457840  17.520  12.874   5.850
 7813POPC   GL157841  17.486  12.870   6.150
 7813POPC   GL257842  17.357  12.919   6.150
 7813POPC   C1A57843  17.499  12.886   6.450
 7813POPC   D2A57844  17.516  12.863   6.750
 7813POPC   C3A57845  17.495  12.832   7.050
 7813POPC   C4A57846  17.521  12.894   7.350
 7813POPC   C1B57847  17.223  12.963   6.450
 7813POPC   C2B57848  17.281  12.970   6.750
 7813POPC   C3B57849  17.277  12.925   7.050
 7813POPC   C4B57850  17.313  12.912   7.350
 7814POPC   NC357851  43.848  40.815   5.550
 7814POPC   PO457852  43.902  40.821   5.850
 7814POPC   GL157853  43.872  40.783   6.150
 7814POPC   GL257854  43.897  40.919   6.150
 7814POPC   C1A57855  43.922  40.751   6.450
 7814POPC   D2A57856  43.859  40.771   6.750
 7814POPC   C3A57857  43.838  40.741   7.050
 7814POPC   C4A57858  43.918  40.816   7.350
 7814POPC   C1B57859  43.877  41.077   6.450
 7814POPC   C2B57860  43.828  41.037   6.750
 7814POPC   C3B57861  43.905  41.054   7.050
 7814POPC   C4B57862  43.842  41.023   7.350
 7815POPC   NC357863   9.764  44.633   5.550
 7815POPC   PO457864   9.705  44.711   5.850
 7815POPC   GL157865   9.798  44.689   6.150
 7815POPC   GL257866   9.818  44.610   6.150
 7815POPC   C1A57867   9.758  44.645   6.450
 7815POPC   D2A57868   9.699  44.709   6.750
 7815POPC   C3A57869   9.782  44.648   7.050
 7815POPC   C4A57870   9.706  44.625   7.350
 7815POPC   C1B57871   9.955  44.526   6.450
 7815POPC   C2B57872   9.984  44.463   6.750
 7815POPC   C3B57873   9.936  44.464   7.050
 7815POPC   C4B57874   9.977  44.506   7.350
 7816POPC   NC357875  36.164  28.353   5.550
 7816POPC   PO457876  36.084  28.359   5.850
 7816POPC   GL157877  36.127  28.378   6.150
 7816POPC   GL257878  35.995  28.414   6.150
 7816POPC   C1A57879  36.172  28.348   6.450
 7816POPC   D2A57880  36.083  28.333   6.750
 7816POPC   C3A57881  36.127  28.392   7.050
 7816POPC   C4A57882  36.126  28.389   7.350
 7816POPC   C1B57883  35.924  28.440   6.450
 7816POPC   C2B57884  35.913  28.458   6.750
 7816POPC   C3B57885  35.883  28.475   7.050
 7816POPC   C4B57886  35.931  28.454   7.350
 7817POPC   NC357887   8.164  29.148   5.550
 7817POPC   PO457888   8.203  29.100   5.850
 7817POPC   GL157889   8.231  29.155   6.150
 7817POPC   GL257890   8.288  29.231   6.150
 7817POPC   C1A57891   8.179  29.162   6.450
 7817POPC   D2A57892   8.227  29.160   6.750
 7817POPC   C3A57893   8.179  29.100   7.050
 7817POPC   C4A57894   8.213  29.155   7.350
 7817POPC   C1B57895   8.394  29.371   6.450
 7817POPC   C2B57896   8.335  29.354   6.750
 7817POPC   C3B57897   8.344  29.316   7.050
 7817POPC   C4B57898   8.327  29.333   7.350
 7818POPC   NC357899  43.923  28.411   5.550
 7818POPC   PO457900  43.905  28.384   5.850
 7818POPC   GL157901  43.868  28.404   6.150
 7818POPC   GL257902  44.048  28.363   6.150
 7818POPC   C1A57903  43.915  28.324   6.450
 7818POPC   D2A57904  43.869  28.386   6.750
 7818POPC   C3A57905  43.914  28.418   7.050
 7818POPC   C4A57906  43.868  28.386   7.350
 7818POPC   C1B57907  44.136  28.329   6.450
 7818POPC   C2B57908  44.100  28.349   6.750
 7818POPC   C3B57909  44.152  28.394   7.050
 7818POPC   C4B57910  44.140  28.323   7.350
 7819POPC   NC357911  16.717  14.413   5.550
 7819POPC   PO457912  16.732  14.439   5.850
 7819POPC   GL157913  16.732  14.381   6.150
 7819POPC   GL257914  16.634  14.505   6.150
 7819POPC   C1A57915  16.718  14.452   6.450
 7819POPC   D2A57916  16.734  14.402   6.750
 7819POPC   C3A57917  16.707  14.400   7.050
 7819POPC   C4A57918  16.733  14.414   7.350
 7819POPC   C1B57919  16.467  14.485   6.450
 7819POPC   C2B57920  16.529  14.544   6.750
 7819POPC   C3B57921  16.527  14.530   7.050
 7819POPC   C4B57922  16.462  14.536   7.350
 7820POPC   NC357923   8.999  29.167   5.550
 7820POPC   PO457924   8.972  29.135   5.850
 7820POPC   GL157925   8.944  29.172   6.150
 7820POPC   GL257926   9.050  29.291   6.150
 7820POPC   C1A57927   8.951  29.113   6.450
 7820POPC   D2A57928   9.003  29.107   6.750
 7820POPC   C3A57929   8.958  29.118   7.050
 7820POPC   C4A57930   8.995  29.169   7.350
 7820POPC   C1B57931   9.111  29.331   6.450
 7820POPC   C2B57932   9.068  29.392   6.750
 7820POPC   C3B57933   9.048  29.346   7.050
 7820POPC   C4B57934   9.063  29.372   7.350
 7821POPC   NC357935  41.533  33.025   5.550
 7821POPC   PO457936  41.591  33.050   5.850
 7821POPC   GL157937  41.599  32.987   6.150
 7821POPC   GL257938  41.466  33.044   6.150
 7821POPC   C1A57939  41.537  32.990   6.450
 7821POPC   D2A57940  41.597  32.997   6.750
 7821POPC   C3A57941  41.531  32.993   7.050
 7821POPC   C4A57942  41.566  33.051   7.350
 7821POPC   C1B57943  41.286  33.103   6.450
 7821POPC   C2B57944  41.313  33.177   6.750
 7821POPC   C3B57945  41.294  33.125   7.050
 7821POPC   C4B57946  41.347  33.180   7.350
 7822POPC   NC357947   4.347  17.556   5.550
 7822POPC   PO457948   4.347  17.473   5.850
 7822POPC   GL157949   4.339  17.498   6.150
 7822POPC   GL257950   4.379  17.613   6.150
 7822POPC   C1A57951   4.364  17.457   6.450
 7822POPC   D2A57952   4.332  17.498   6.750
 7822POPC   C3A57953   4.358  17.545   7.050
 7822POPC   C4A57954   4.342  17.556   7.350
 7822POPC   C1B57955   4.496  17.690   6.450
 7822POPC   C2B57956   4.448  17.734   6.750
 7822POPC   C3B57957   4.523  17.679   7.050
 7822POPC   C4B57958   4.482  17.687   7.350
 7823POPC   NC357959  25.245  28.414   5.550
 7823POPC   PO457960  25.226  28.416   5.850
 7823POPC   GL157961  25.311  28.400   6.150
 7823POPC   GL257962  25.222  28.539   6.150
 7823POPC   C1A57963  25.303  28.389   6.450
 7823POPC   D2A57964  25.230  28.381   6.750
 7823POPC   C3A57965  25.291  28.396   7.050
 7823POPC   C4A57966  25.232  28.416   7.350
 7823POPC   C1B57967  25.299  28.668   6.450
 7823POPC   C2B57968  25.264  28.632   6.750
 7823POPC   C3B57969  25.248  28.596   7.050
 7823POPC   C4B57970  25.236  28.604   7.350
 7824POPC   NC357971  26.001  28.373   5.550
 7824POPC   PO457972  26.069  28.322   5.850
 7824POPC   GL157973  26.023  28.375   6.150
 7824POPC   GL257974  26.164  28.381   6.150
 7824POPC   C1A57975  26.062  28.393   6.450
 7824POPC   D2A57976  26.031  28.390   6.750
 7824POPC   C3A57977  26.056  28.336   7.050
 7824POPC   C4A57978  26.036  28.373   7.350
 7824POPC   C1B57979  26.325  28.431   6.450
 7824POPC   C2B57980  26.290  28.421   6.750
 7824POPC   C3B57981  26.261  28.422   7.050
 7824POPC   C4B57982  26.276  28.497   7.350
 7825POPC   NC357983   7.447  39.968   5.550
 7825POPC   PO457984   7.459  40.005   5.850
 7825POPC   GL157985   7.408  40.012   6.150
 7825POPC   GL257986   7.378  39.922   6.150
 7825POPC   C1A57987   7.390  40.051   6.450
 7825POPC   D2A57988   7.446  39.976   6.750
 7825POPC   C3A57989   7.385  39.989   7.050
 7825POPC   C4A57990   7.424  40.007   7.350
 7825POPC   C1B57991   7.356  39.767   6.450
 7825POPC   C2B57992   7.417  39.718   6.750
 7825POPC   C3B57993   7.403  39.776   7.050
 7825POPC   C4B57994   7.338  39.756   7.350
 7826POPC   NC357995   0.478  38.457   5.550
 7826POPC   PO457996   0.436  38.490   5.850
 7826POPC   GL157997   0.441  38.485   6.150
 7826POPC   GL257998   0.369  38.582   6.150
 7826POPC   C1A57999   0.453  38.495   6.450
 7826POPC   D2A58000   0.446  38.481   6.750
 7826POPC   C3A58001   0.436  38.503   7.050
 7826POPC   C4A58002   0.450  38.409   7.350
 7826POPC   C1B58003   0.287  38.631   6.450
 7826POPC   C2B58004   0.289  38.665   6.750
 7826POPC   C3B58005   0.266  38.627   7.050
 7826POPC   C4B58006   0.247  38.626   7.350
 7827POPC   NC358007  34.531  22.209   5.550
 7827POPC   PO458008  34.559  22.115   5.850
 7827POPC   GL158009  34.526  22.131   6.150
 7827POPC   GL258010  34.707  22.162   6.150
 7827POPC   C1A58011  34.613  22.152   6.450
 7827POPC   D2A58012  34.603  22.184   6.750
 7827POPC   C3A58013  34.597  22.132   7.050
 7827POPC   C4A58014  34.564  22.172   7.350
 7827POPC   C1B58015  34.853  22.100   6.450
 7827POPC   C2B58016  34.831  22.168   6.750
 7827POPC   C3B58017  34.852  22.129   7.050
 7827POPC   C4B58018  34.799  22.155   7.350
 7828POPC   NC358019  14.393  17.482   5.550
 7828POPC   PO458020  14.418  17.502   5.850
 7828POPC   GL158021  14.449  17.514   6.150
 7828POPC   GL258022  14.391  17.639   6.150
 7828POPC   C1A58023  14.441  17.508   6.450
 7828POPC   D2A58024  14.450  17.532   6.750
 7828POPC   C3A58025  14.414  17.541   7.050
 7828POPC   C4A58026  14.377  17.557   7.350
 7828POPC   C1B58027  14.251  17.680   6.450
 7828POPC   C2B58028  14.299  17.714   6.750
 7828POPC   C3B58029  14.297  17.717   7.050
 7828POPC   C4B58030  14.255  17.703   7.350
 7829POPC   NC358031   3.529  30.726   5.550
 7829POPC   PO458032   3.515  30.745   5.850
 7829POPC   GL158033   3.532  30.653   6.150
 7829POPC   GL258034   3.452  30.721   6.150
 7829POPC   C1A58035   3.553  30.675   6.450
 7829POPC   D2A58036   3.530  30.647   6.750
 7829POPC   C3A58037   3.500  30.662   7.050
 7829POPC   C4A58038   3.549  30.706   7.350
 7829POPC   C1B58039   3.254  30.720   6.450
 7829POPC   C2B58040   3.283  30.675   6.750
 7829POPC   C3B58041   3.291  30.727   7.050
 7829POPC   C4B58042   3.339  30.736   7.350
 7830POPC   NC358043  25.285  15.147   5.550
 7830POPC   PO458044  25.293  15.195   5.850
 7830POPC   GL158045  25.217  15.189   6.150
 7830POPC   GL258046  25.142  15.114   6.150
 7830POPC   C1A58047  25.231  15.200   6.450
 7830POPC   D2A58048  25.305  15.170   6.750
 7830POPC   C3A58049  25.270  15.145   7.050
 7830POPC   C4A58050  25.305  15.150   7.350
 7830POPC   C1B58051  25.049  15.000   6.450
 7830POPC   C2B58052  25.095  15.047   6.750
 7830POPC   C3B58053  25.080  15.005   7.050
 7830POPC   C4B58054  25.047  14.969   7.350
 7831POPC   NC358055  20.594  39.981   5.550
 7831POPC   PO458056  20.610  40.010   5.850
 7831POPC   GL158057  20.569  40.049   6.150
 7831POPC   GL258058  20.740  39.964   6.150
 7831POPC   C1A58059  20.596  39.960   6.450
 7831POPC   D2A58060  20.567  40.042   6.750
 7831POPC   C3A58061  20.575  39.992   7.050
 7831POPC   C4A58062  20.639  39.968   7.350
 7831POPC   C1B58063  20.824  39.811   6.450
 7831POPC   C2B58064  20.835  39.809   6.750
 7831POPC   C3B58065  20.846  39.892   7.050
 7831POPC   C4B58066  20.845  39.800   7.350
 7832POPC   NC358067   7.447  25.314   5.550
 7832POPC   PO458068   7.461  25.303   5.850
 7832POPC   GL158069   7.463  25.288   6.150
 7832POPC   GL258070   7.370  25.119   6.150
 7832POPC   C1A58071   7.434  25.300   6.450
 7832POPC   D2A58072   7.412  25.237   6.750
 7832POPC   C3A58073   7.414  25.246   7.050
 7832POPC   C4A58074   7.374  25.312   7.350
 7832POPC   C1B58075   7.369  24.990   6.450
 7832POPC   C2B58076   7.362  25.040   6.750
 7832POPC   C3B58077   7.297  25.069   7.050
 7832POPC   C4B58078   7.279  25.017   7.350
 7833POPC   NC358079  20.597  33.032   5.550
 7833POPC   PO458080  20.624  33.014   5.850
 7833POPC   GL158081  20.612  32.978   6.150
 7833POPC   GL258082  20.766  33.055   6.150
 7833POPC   C1A58083  20.628  33.071   6.450
 7833POPC   D2A58084  20.630  33.013   6.750
 7833POPC   C3A58085  20.609  33.033   7.050
 7833POPC   C4A58086  20.623  33.004   7.350
 7833POPC   C1B58087  20.815  33.155   6.450
 7833POPC   C2B58088  20.822  33.144   6.750
 7833POPC   C3B58089  20.814  33.164   7.050
 7833POPC   C4B58090  20.810  33.144   7.350
 7834POPC   NC358091  31.439  43.871   5.550
 7834POPC   PO458092  31.493  43.902   5.850
 7834POPC   GL158093  31.467  43.888   6.150
 7834POPC   GL258094  31.555  43.799   6.150
 7834POPC   C1A58095  31.491  43.897   6.450
 7834POPC   D2A58096  31.449  43.877   6.750
 7834POPC   C3A58097  31.442  43.898   7.050
 7834POPC   C4A58098  31.478  43.927   7.350
 7834POPC   C1B58099  31.662  43.724   6.450
 7834POPC   C2B58100  31.735  43.737   6.750
 7834POPC   C3B58101  31.728  43.718   7.050
 7834POPC   C4B58102  31.721  43.738   7.350
 7835POPC   NC358103  10.552  34.623   5.550
 7835POPC   PO458104  10.529  34.530   5.850
 7835POPC   GL158105  10.520  34.564   6.150
 7835POPC   GL258106  10.619  34.653   6.150
 7835POPC   C1A58107  10.527  34.555   6.450
 7835POPC   D2A58108  10.486  34.604   6.750
 7835POPC   C3A58109  10.526  34.604   7.050
 7835POPC   C4A58110  10.562  34.539   7.350
 7835POPC   C1B58111  10.733  34.782   6.450
 7835POPC   C2B58112  10.714  34.761   6.750
 7835POPC   C3B58113  10.734  34.771   7.050
 7835POPC   C4B58114  10.720  34.723   7.350
 7836POPC   NC358115   3.531   1.948   5.550
 7836POPC   PO458116   3.512   1.960   5.850
 7836POPC   GL158117   3.582   1.943   6.150
 7836POPC   GL258118   3.636   2.041   6.150
 7836POPC   C1A58119   3.547   1.945   6.450
 7836POPC   D2A58120   3.531   2.031   6.750
 7836POPC   C3A58121   3.492   1.949   7.050
 7836POPC   C4A58122   3.545   2.038   7.350
 7836POPC   C1B58123   3.768   1.992   6.450
 7836POPC   C2B58124   3.793   2.027   6.750
 7836POPC   C3B58125   3.780   2.051   7.050
 7836POPC   C4B58126   3.767   2.017   7.350
 7837POPC   NC358127  38.416  23.700   5.550
 7837POPC   PO458128  38.454  23.668   5.850
 7837POPC   GL158129  38.435  23.740   6.150
 7837POPC   GL258130  38.369  23.561   6.150
 7837POPC   C1A58131  38.483  23.690   6.450
 7837POPC   D2A58132  38.484  23.721   6.750
 7837POPC   C3A58133  38.429  23.683   7.050
 7837POPC   C4A58134  38.447  23.703   7.350
 7837POPC   C1B58135  38.317  23.541   6.450
 7837POPC   C2B58136  38.279  23.457   6.750
 7837POPC   C3B58137  38.360  23.535   7.050
 7837POPC   C4B58138  38.316  23.453   7.350
 7838POPC   NC358139  18.242  37.637   5.550
 7838POPC   PO458140  18.275  37.719   5.850
 7838POPC   GL158141  18.302  37.713   6.150
 7838POPC   GL258142  18.294  37.542   6.150
 7838POPC   C1A58143  18.327  37.724   6.450
 7838POPC   D2A58144  18.325  37.696   6.750
 7838POPC   C3A58145  18.262  37.652   7.050
 7838POPC   C4A58146  18.248  37.676   7.350
 7838POPC   C1B58147  18.228  37.434   6.450
 7838POPC   C2B58148  18.236  37.394   6.750
 7838POPC   C3B58149  18.222  37.397   7.050
 7838POPC   C4B58150  18.217  37.458   7.350
 7839POPC   NC358151  42.354  12.808   5.550
 7839POPC   PO458152  42.373  12.848   5.850
 7839POPC   GL158153  42.384  12.863   6.150
 7839POPC   GL258154  42.488  12.767   6.150
 7839POPC   C1A58155  42.376  12.893   6.450
 7839POPC   D2A58156  42.327  12.816   6.750
 7839POPC   C3A58157  42.295  12.833   7.050
 7839POPC   C4A58158  42.320  12.840   7.350
 7839POPC   C1B58159  42.526  12.770   6.450
 7839POPC   C2B58160  42.570  12.742   6.750
 7839POPC   C3B58161  42.537  12.724   7.050
 7839POPC   C4B58162  42.559  12.769   7.350
 7840POPC   NC358163  20.597  16.686   5.550
 7840POPC   PO458164  20.649  16.708   5.850
 7840POPC   GL158165  20.561  16.684   6.150
 7840POPC   GL258166  20.574  16.857   6.150
 7840POPC   C1A58167  20.624  16.695   6.450
 7840POPC   D2A58168  20.655  16.773   6.750
 7840POPC   C3A58169  20.633  16.684   7.050
 7840POPC   C4A58170  20.647  16.779   7.350
 7840POPC   C1B58171  20.472  16.930   6.450
 7840POPC   C2B58172  20.453  16.913   6.750
 7840POPC   C3B58173  20.466  16.974   7.050
 7840POPC   C4B58174  20.495  16.937   7.350
 7841POPC   NC358175  15.135  11.258   5.550
 7841POPC   PO458176  15.165  11.333   5.850
 7841POPC   GL158177  15.195  11.251   6.150
 7841POPC   GL258178  15.091  11.266   6.150
 7841POPC   C1A58179  15.130  11.318   6.450
 7841POPC   D2A58180  15.208  11.285   6.750
 7841POPC   C3A58181  15.156  11.270   7.050
 7841POPC   C4A58182  15.137  11.344   7.350
 7841POPC   C1B58183  14.890  11.248   6.450
 7841POPC   C2B58184  14.969  11.330   6.750
 7841POPC   C3B58185  14.961  11.280   7.050
 7841POPC   C4B58186  14.967  11.311   7.350
 7842POPC   NC358187  12.111   3.524   5.550
 7842POPC   PO458188  12.077   3.573   5.850
 7842POPC   GL158189  12.101   3.557   6.150
 7842POPC   GL258190  12.199   3.653   6.150
 7842POPC   C1A58191  12.088   3.542   6.450
 7842POPC   D2A58192  12.113   3.584   6.750
 7842POPC   C3A58193  12.069   3.526   7.050
 7842POPC   C4A58194  12.098   3.557   7.350
 7842POPC   C1B58195  12.213   3.681   6.450
 7842POPC   C2B58196  12.242   3.698   6.750
 7842POPC   C3B58197  12.214   3.705   7.050
 7842POPC   C4B58198  12.231   3.712   7.350
 7843POPC   NC358199  25.307  13.581   5.550
 7843POPC   PO458200  25.265  13.593   5.850
 7843POPC   GL158201  25.306  13.661   6.150
 7843POPC   GL258202  25.387  13.712   6.150
 7843POPC   C1A58203  25.255  13.582   6.450
 7843POPC   D2A58204  25.228  13.668   6.750
 7843POPC   C3A58205  25.262  13.641   7.050
 7843POPC   C4A58206  25.271  13.678   7.350
 7843POPC   C1B58207  25.443  13.812   6.450
 7843POPC   C2B58208  25.480  13.822   6.750
 7843POPC   C3B58209  25.424  13.829   7.050
 7843POPC   C4B58210  25.458  13.799   7.350
 7844POPC   NC358211  16.765  24.482   5.550
 7844POPC   PO458212  16.725  24.459   5.850
 7844POPC   GL158213  16.726  24.522   6.150
 7844POPC   GL258214  16.774  24.334   6.150
 7844POPC   C1A58215  16.718  24.535   6.450
 7844POPC   D2A58216  16.699  24.536   6.750
 7844POPC   C3A58217  16.772  24.502   7.050
 7844POPC   C4A58218  16.757  24.539   7.350
 7844POPC   C1B58219  16.722  24.292   6.450
 7844POPC   C2B58220  16.731  24.195   6.750
 7844POPC   C3B58221  16.811  24.278   7.050
 7844POPC   C4B58222  16.793  24.196   7.350
 7845POPC   NC358223  20.628  18.305   5.550
 7845POPC   PO458224  20.583  18.297   5.850
 7845POPC   GL158225  20.574  18.233   6.150
 7845POPC   GL258226  20.782  18.277   6.150
 7845POPC   C1A58227  20.618  18.250   6.450
 7845POPC   D2A58228  20.644  18.296   6.750
 7845POPC   C3A58229  20.576  18.275   7.050
 7845POPC   C4A58230  20.647  18.245   7.350
 7845POPC   C1B58231  20.878  18.305   6.450
 7845POPC   C2B58232  20.820  18.305   6.750
 7845POPC   C3B58233  20.866  18.367   7.050
 7845POPC   C4B58234  20.887  18.333   7.350
 7846POPC   NC358235  15.195   1.977   5.550
 7846POPC   PO458236  15.200   2.028   5.850
 7846POPC   GL158237  15.177   1.973   6.150
 7846POPC   GL258238  15.294   2.067   6.150
 7846POPC   C1A58239  15.165   2.035   6.450
 7846POPC   D2A58240  15.193   1.969   6.750
 7846POPC   C3A58241  15.202   1.975   7.050
 7846POPC   C4A58242  15.134   1.967   7.350
 7846POPC   C1B58243  15.374   2.080   6.450
 7846POPC   C2B58244  15.355   2.124   6.750
 7846POPC   C3B58245  15.439   2.105   7.050
 7846POPC   C4B58246  15.420   2.102   7.350
 7847POPC   NC358247  11.301  31.474   5.550
 7847POPC   PO458248  11.343  31.502   5.850
 7847POPC   GL158249  11.298  31.455   6.150
 7847POPC   GL258250  11.356  31.337   6.150
 7847POPC   C1A58251  11.268  31.448   6.450
 7847POPC   D2A58252  11.260  31.430   6.750
 7847POPC   C3A58253  11.320  31.475   7.050
 7847POPC   C4A58254  11.250  31.455   7.350
 7847POPC   C1B58255  11.459  31.220   6.450
 7847POPC   C2B58256  11.374  31.291   6.750
 7847POPC   C3B58257  11.455  31.289   7.050
 7847POPC   C4B58258  11.418  31.226   7.350
 7848POPC   NC358259  12.838  34.588   5.550
 7848POPC   PO458260  12.828  34.554   5.850
 7848POPC   GL158261  12.802  34.582   6.150
 7848POPC   GL258262  12.794  34.468   6.150
 7848POPC   C1A58263  12.825  34.603   6.450
 7848POPC   D2A58264  12.845  34.555   6.750
 7848POPC   C3A58265  12.901  34.538   7.050
 7848POPC   C4A58266  12.865  34.622   7.350
 7848POPC   C1B58267  12.671  34.369   6.450
 7848POPC   C2B58268  12.686  34.420   6.750
 7848POPC   C3B58269  12.652  34.423   7.050
 7848POPC   C4B58270  12.655  34.352   7.350
 7849POPC   NC358271  15.202  30.669   5.550
 7849POPC   PO458272  15.162  30.739   5.850
 7849POPC   GL158273  15.211  30.741   6.150
 7849POPC   GL258274  15.143  30.790   6.150
 7849POPC   C1A58275  15.214  30.744   6.450
 7849POPC   D2A58276  15.159  30.708   6.750
 7849POPC   C3A58277  15.220  30.684   7.050
 7849POPC   C4A58278  15.223  30.699   7.350
 7849POPC   C1B58279  15.156  30.907   6.450
 7849POPC   C2B58280  15.157  30.979   6.750
 7849POPC   C3B58281  15.174  30.986   7.050
 7849POPC   C4B58282  15.109  30.897   7.350
 7850POPC   NC358283   7.410  15.134   5.550
 7850POPC   PO458284   7.410  15.142   5.850
 7850POPC   GL158285   7.442  15.159   6.150
 7850POPC   GL258286   7.378  15.031   6.150
 7850POPC   C1A58287   7.408  15.158   6.450
 7850POPC   D2A58288   7.403  15.212   6.750
 7850POPC   C3A58289   7.415  15.174   7.050
 7850POPC   C4A58290   7.415  15.135   7.350
 7850POPC   C1B58291   7.316  14.974   6.450
 7850POPC   C2B58292   7.330  14.986   6.750
 7850POPC   C3B58293   7.364  15.000   7.050
 7850POPC   C4B58294   7.315  14.994   7.350
 7851POPC   NC358295   3.588  29.128   5.550
 7851POPC   PO458296   3.498  29.100   5.850
 7851POPC   GL158297   3.549  29.110   6.150
 7851POPC   GL258298   3.458  29.062   6.150
 7851POPC   C1A58299   3.543  29.113   6.450
 7851POPC   D2A58300   3.545  29.153   6.750
 7851POPC   C3A58301   3.532  29.126   7.050
 7851POPC   C4A58302   3.564  29.134   7.350
 7851POPC   C1B58303   3.351  28.926   6.450
 7851POPC   C2B58304   3.377  28.963   6.750
 7851POPC   C3B58305   3.352  29.003   7.050
 7851POPC   C4B58306   3.409  28.922   7.350
 7852POPC   NC358307  22.136  24.463   5.550
 7852POPC   PO458308  22.131  24.523   5.850
 7852POPC   GL158309  22.133  24.457   6.150
 7852POPC   GL258310  22.117  24.615   6.150
 7852POPC   C1A58311  22.203  24.490   6.450
 7852POPC   D2A58312  22.119  24.468   6.750
 7852POPC   C3A58313  22.185  24.482   7.050
 7852POPC   C4A58314  22.212  24.512   7.350
 7852POPC   C1B58315  22.092  24.733   6.450
 7852POPC   C2B58316  22.167  24.726   6.750
 7852POPC   C3B58317  22.081  24.719   7.050
 7852POPC   C4B58318  22.138  24.715   7.350
 7853POPC   NC358319  38.473  36.927   5.550
 7853POPC   PO458320  38.440  36.923   5.850
 7853POPC   GL158321  38.421  36.884   6.150
 7853POPC   GL258322  38.356  36.884   6.150
 7853POPC   C1A58323  38.467  36.944   6.450
 7853POPC   D2A58324  38.436  36.889   6.750
 7853POPC   C3A58325  38.459  36.948   7.050
 7853POPC   C4A58326  38.452  36.939   7.350
 7853POPC   C1B58327  38.173  36.829   6.450
 7853POPC   C2B58328  38.193  36.814   6.750
 7853POPC   C3B58329  38.173  36.829   7.050
 7853POPC   C4B58330  38.259  36.840   7.350
 7854POPC   NC358331   2.748   2.018   5.550
 7854POPC   PO458332   2.812   1.949   5.850
 7854POPC   GL158333   2.793   2.035   6.150
 7854POPC   GL258334   2.612   1.972   6.150
 7854POPC   C1A58335   2.811   1.981   6.450
 7854POPC   D2A58336   2.730   2.014   6.750
 7854POPC   C3A58337   2.789   2.022   7.050
 7854POPC   C4A58338   2.793   1.955   7.350
 7854POPC   C1B58339   2.495   1.953   6.450
 7854POPC   C2B58340   2.536   1.904   6.750
 7854POPC   C3B58341   2.489   1.880   7.050
 7854POPC   C4B58342   2.555   1.869   7.350
 7855POPC   NC358343  16.707  26.810   5.550
 7855POPC   PO458344  16.742  26.821   5.850
 7855POPC   GL158345  16.704  26.806   6.150
 7855POPC   GL258346  16.659  26.687   6.150
 7855POPC   C1A58347  16.706  26.802   6.450
 7855POPC   D2A58348  16.775  26.864   6.750
 7855POPC   C3A58349  16.763  26.794   7.050
 7855POPC   C4A58350  16.762  26.769   7.350
 7855POPC   C1B58351  16.639  26.531   6.450
 7855POPC   C2B58352  16.703  26.543   6.750
 7855POPC   C3B58353  16.715  26.614   7.050
 7855POPC   C4B58354  16.707  26.527   7.350
 7856POPC   NC358355   1.958  36.952   5.550
 7856POPC   PO458356   1.941  36.908   5.850
 7856POPC   GL158357   2.013  36.928   6.150
 7856POPC   GL258358   1.915  37.011   6.150
 7856POPC   C1A58359   1.955  36.928   6.450
 7856POPC   D2A58360   1.974  36.876   6.750
 7856POPC   C3A58361   1.979  36.896   7.050
 7856POPC   C4A58362   1.955  36.944   7.350
 7856POPC   C1B58363   1.752  37.015   6.450
 7856POPC   C2B58364   1.804  37.089   6.750
 7856POPC   C3B58365   1.767  37.044   7.050
 7856POPC   C4B58366   1.759  37.005   7.350
 7857POPC   NC358367  16.730  36.116   5.550
 7857POPC   PO458368  16.684  36.096   5.850
 7857POPC   GL158369  16.694  36.173   6.150
 7857POPC   GL258370  16.658  36.238   6.150
 7857POPC   C1A58371  16.767  36.102   6.450
 7857POPC   D2A58372  16.692  36.100   6.750
 7857POPC   C3A58373  16.698  36.097   7.050
 7857POPC   C4A58374  16.713  36.121   7.350
 7857POPC   C1B58375  16.565  36.307   6.450
 7857POPC   C2B58376  16.649  36.394   6.750
 7857POPC   C3B58377  16.579  36.352   7.050
 7857POPC   C4B58378  16.592  36.360   7.350
 7858POPC   NC358379  36.084   2.782   5.550
 7858POPC   PO458380  36.143   2.742   5.850
 7858POPC   GL158381  36.099   2.745   6.150
 7858POPC   GL258382  35.996   2.669   6.150
 7858POPC   C1A58383  36.162   2.791   6.450
 7858POPC   D2A58384  36.171   2.723   6.750
 7858POPC   C3A58385  36.116   2.745   7.050
 7858POPC   C4A58386  36.124   2.802   7.350
 7858POPC   C1B58387  35.976   2.568   6.450
 7858POPC   C2B58388  35.934   2.598   6.750
 7858POPC   C3B58389  35.906   2.652   7.050
 7858POPC   C4B58390  35.956   2.646   7.350
 7859POPC   NC358391   6.623  26.007   5.550
 7859POPC   PO458392   6.617  26.077   5.850
 7859POPC   GL158393   6.631  26.059   6.150
 7859POPC   GL258394   6.765  25.968   6.150
 7859POPC   C1A58395   6.694  26.083   6.450
 7859POPC   D2A58396   6.652  26.076   6.750
 7859POPC   C3A58397   6.602  26.061   7.050
 7859POPC   C4A58398   6.662  26.025   7.350
 7859POPC   C1B58399   6.844  25.964   6.450
 7859POPC   C2B58400   6.852  25.924   6.750
 7859POPC   C3B58401   6.829  25.886   7.050
 7859POPC   C4B58402   6.830  25.965   7.350
 7860POPC   NC358403   1.978   5.069   5.550
 7860POPC   PO458404   1.955   5.114   5.850
 7860POPC   GL158405   2.021   5.083   6.150
 7860POPC   GL258406   2.042   5.195   6.150
 7860POPC   C1A58407   1.943   5.058   6.450
 7860POPC   D2A58408   1.967   5.064   6.750
 7860POPC   C3A58409   1.995   5.142   7.050
 7860POPC   C4A58410   1.988   5.083   7.350
 7860POPC   C1B58411   2.019   5.373   6.450
 7860POPC   C2B58412   2.048   5.293   6.750
 7860POPC   C3B58413   2.006   5.300   7.050
 7860POPC   C4B58414   2.080   5.308   7.350
 7861POPC   NC358415  15.215  44.707   5.550
 7861POPC   PO458416  15.160  44.656   5.850
 7861POPC   GL158417  15.214  44.659   6.150
 7861POPC   GL258418  15.133  44.548   6.150
 7861POPC   C1A58419  15.135  44.688   6.450
 7861POPC   D2A58420  15.140  44.709   6.750
 7861POPC   C3A58421  15.209  44.640   7.050
 7861POPC   C4A58422  15.225  44.677   7.350
 7861POPC   C1B58423  15.129  44.396   6.450
 7861POPC   C2B58424  15.109  44.375   6.750
 7861POPC   C3B58425  15.181  44.444   7.050
 7861POPC   C4B58426  15.161  44.403   7.350
 7862POPC   NC358427  43.092  35.367   5.550
 7862POPC   PO458428  43.119  35.321   5.850
 7862POPC   GL158429  43.134  35.316   6.150
 7862POPC   GL258430  43.190  35.453   6.150
 7862POPC   C1A58431  43.138  35.368   6.450
 7862POPC   D2A58432  43.156  35.360   6.750
 7862POPC   C3A58433  43.141  35.315   7.050
 7862POPC   C4A58434  43.119  35.382   7.350
 7862POPC   C1B58435  43.349  35.527   6.450
 7862POPC   C2B58436  43.357  35.478   6.750
 7862POPC   C3B58437  43.344  35.472   7.050
 7862POPC   C4B58438  43.300  35.521   7.350
 7863POPC   NC358439  40.779  30.696   5.550
 7863POPC   PO458440  40.780  30.664   5.850
 7863POPC   GL158441  40.751  30.731   6.150
 7863POPC   GL258442  40.875  30.616   6.150
 7863POPC   C1A58443  40.825  30.703   6.450
 7863POPC   D2A58444  40.776  30.649   6.750
 7863POPC   C3A58445  40.743  30.650   7.050
 7863POPC   C4A58446  40.741  30.711   7.350
 7863POPC   C1B58447  40.964  30.493   6.450
 7863POPC   C2B58448  40.920  30.504   6.750
 7863POPC   C3B58449  40.982  30.536   7.050
 7863POPC   C4B58450  40.928  30.475   7.350
 7864POPC   NC358451  13.639  41.561   5.550
 7864POPC   PO458452  13.676  41.593   5.850
 7864POPC   GL158453  13.628  41.545   6.150
 7864POPC   GL258454  13.638  41.414   6.150
 7864POPC   C1A58455  13.654  41.562   6.450
 7864POPC   D2A58456  13.599  41.531   6.750
 7864POPC   C3A58457  13.580  41.528   7.050
 7864POPC   C4A58458  13.640  41.590   7.350
 7864POPC   C1B58459  13.549  41.303   6.450
 7864POPC   C2B58460  13.610  41.295   6.750
 7864POPC   C3B58461  13.591  41.299   7.050
 7864POPC   C4B58462  13.545  41.340   7.350
 7865POPC   NC358463  15.931  32.209   5.550
 7865POPC   PO458464  15.935  32.256   5.850
 7865POPC   GL158465  15.979  32.292   6.150
 7865POPC   GL258466  16.025  32.375   6.150
 7865POPC   C1A58467  15.972  32.291   6.450
 7865POPC   D2A58468  15.979  32.246   6.750
 7865POPC   C3A58469  15.994  32.258   7.050
 7865POPC   C4A58470  15.908  32.284   7.350
 7865POPC   C1B58471  15.988  32.488   6.450
 7865POPC   C2B58472  16.050  32.495   6.750
 7865POPC   C3B58473  16.018  32.517   7.050
 7865POPC   C4B58474  16.011  32.451   7.350
 7866POPC   NC358475  30.685  40.039   5.550
 7866POPC   PO458476  30.649  40.053   5.850
 7866POPC   GL158477  30.736  39.990   6.150
 7866POPC   GL258478  30.721  39.847   6.150
 7866POPC   C1A58479  30.672  39.994   6.450
 7866POPC   D2A58480  30.717  40.053   6.750
 7866POPC   C3A58481  30.713  40.003   7.050
 7866POPC   C4A58482  30.707  40.026   7.350
 7866POPC   C1B58483  30.784  39.746   6.450
 7866POPC   C2B58484  30.776  39.755   6.750
 7866POPC   C3B58485  30.775  39.819   7.050
 7866POPC   C4B58486  30.761  39.786   7.350
 7867POPC   NC358487   0.466  15.958   5.550
 7867POPC   PO458488   0.455  15.942   5.850
 7867POPC   GL158489   0.463  15.908   6.150
 7867POPC   GL258490   0.353  15.952   6.150
 7867POPC   C1A58491   0.467  15.918   6.450
 7867POPC   D2A58492   0.411  15.921   6.750
 7867POPC   C3A58493   0.442  15.939   7.050
 7867POPC   C4A58494   0.394  15.964   7.350
 7867POPC   C1B58495   0.217  15.899   6.450
 7867POPC   C2B58496   0.171  15.905   6.750
 7867POPC   C3B58497   0.202  15.882   7.050
 7867POPC   C4B58498   0.242  15.896   7.350
 7868POPC   NC358499  10.573  11.291   5.550
 7868POPC   PO458500  10.506  11.277   5.850
 7868POPC   GL158501  10.516  11.287   6.150
 7868POPC   GL258502  10.664  11.335   6.150
 7868POPC   C1A58503  10.532  11.265   6.450
 7868POPC   D2A58504  10.540  11.311   6.750
 7868POPC   C3A58505  10.574  11.317   7.050
 7868POPC   C4A58506  10.479  11.343   7.350
 7868POPC   C1B58507  10.749  11.458   6.450
 7868POPC   C2B58508  10.726  11.475   6.750
 7868POPC   C3B58509  10.723  11.434   7.050
 7868POPC   C4B58510  10.731  11.430   7.350
 7869POPC   NC358511  32.294  28.399   5.550
 7869POPC   PO458512  32.201  28.333   5.850
 7869POPC   GL158513  32.231  28.381   6.150
 7869POPC   GL258514  32.116  28.319   6.150
 7869POPC   C1A58515  32.293  28.383   6.450
 7869POPC   D2A58516  32.268  28.363   6.750
 7869POPC   C3A58517  32.262  28.401   7.050
 7869POPC   C4A58518  32.293  28.377   7.350
 7869POPC   C1B58519  31.960  28.338   6.450
 7869POPC   C2B58520  31.970  28.346   6.750
 7869POPC   C3B58521  31.984  28.338   7.050
 7869POPC   C4B58522  32.056  28.297   7.350
 7870POPC   NC358523  35.360  41.537   5.550
 7870POPC   PO458524  35.349  41.594   5.850
 7870POPC   GL158525  35.399  41.571   6.150
 7870POPC   GL258526  35.232  41.619   6.150
 7870POPC   C1A58527  35.310  41.567   6.450
 7870POPC   D2A58528  35.356  41.567   6.750
 7870POPC   C3A58529  35.317  41.539   7.050
 7870POPC   C4A58530  35.328  41.530   7.350
 7870POPC   C1B58531  35.104  41.603   6.450
 7870POPC   C2B58532  35.122  41.579   6.750
 7870POPC   C3B58533  35.074  41.598   7.050
 7870POPC   C4B58534  35.098  41.574   7.350
 7871POPC   NC358535  37.636  19.865   5.550
 7871POPC   PO458536  37.682  19.800   5.850
 7871POPC   GL158537  37.646  19.867   6.150
 7871POPC   GL258538  37.552  19.761   6.150
 7871POPC   C1A58539  37.667  19.798   6.450
 7871POPC   D2A58540  37.719  19.875   6.750
 7871POPC   C3A58541  37.718  19.881   7.050
 7871POPC   C4A58542  37.644  19.859   7.350
 7871POPC   C1B58543  37.529  19.669   6.450
 7871POPC   C2B58544  37.462  19.655   6.750
 7871POPC   C3B58545  37.496  19.700   7.050
 7871POPC   C4B58546  37.465  19.644   7.350
 7872POPC   NC358547  39.182   7.408   5.550
 7872POPC   PO458548  39.247   7.456   5.850
 7872POPC   GL158549  39.207   7.412   6.150
 7872POPC   GL258550  39.151   7.363   6.150
 7872POPC   C1A58551  39.213   7.385   6.450
 7872POPC   D2A58552  39.280   7.446   6.750
 7872POPC   C3A58553  39.225   7.405   7.050
 7872POPC   C4A58554  39.238   7.396   7.350
 7872POPC   C1B58555  39.015   7.415   6.450
 7872POPC   C2B58556  39.008   7.393   6.750
 7872POPC   C3B58557  39.026   7.396   7.050
 7872POPC   C4B58558  38.959   7.397   7.350
 7873POPC   NC358559  32.246  26.043   5.550
 7873POPC   PO458560  32.274  26.040   5.850
 7873POPC   GL158561  32.206  25.995   6.150
 7873POPC   GL258562  32.285  25.994   6.150
 7873POPC   C1A58563  32.224  26.040   6.450
 7873POPC   D2A58564  32.203  26.029   6.750
 7873POPC   C3A58565  32.207  26.048   7.050
 7873POPC   C4A58566  32.265  26.083   7.350
 7873POPC   C1B58567  32.435  25.895   6.450
 7873POPC   C2B58568  32.445  25.904   6.750
 7873POPC   C3B58569  32.442  25.895   7.050
 7873POPC   C4B58570  32.392  25.845   7.350
 7874POPC   NC358571  19.862  25.252   5.550
 7874POPC   PO458572  19.794  25.294   5.850
 7874POPC   GL158573  19.845  25.247   6.150
 7874POPC   GL258574  19.916  25.321   6.150
 7874POPC   C1A58575  19.864  25.285   6.450
 7874POPC   D2A58576  19.860  25.280   6.750
 7874POPC   C3A58577  19.884  25.245   7.050
 7874POPC   C4A58578  19.801  25.298   7.350
 7874POPC   C1B58579  20.062  25.354   6.450
 7874POPC   C2B58580  20.042  25.359   6.750
 7874POPC   C3B58581  20.038  25.411   7.050
 7874POPC   C4B58582  20.020  25.344   7.350
 7875POPC   NC358583  15.966  44.616   5.550
 7875POPC   PO458584  15.955  44.618   5.850
 7875POPC   GL158585  15.918  44.657   6.150
 7875POPC   GL258586  16.060  44.745   6.150
 7875POPC   C1A58587  15.956  44.704   6.450
 7875POPC   D2A58588  15.921  44.710   6.750
 7875POPC   C3A58589  15.994  44.659   7.050
 7875POPC   C4A58590  15.907  44.676   7.350
 7875POPC   C1B58591  16.092  44.875   6.450
 7875POPC   C2B58592  16.098  44.912   6.750
 7875POPC   C3B58593  16.030  44.887   7.050
 7875POPC   C4B58594  16.046  44.879   7.350
 7876POPC   NC358595  43.148  23.715   5.550
 7876POPC   PO458596  43.064  23.762   5.850
 7876POPC   GL158597  43.137  23.755   6.150
 7876POPC   GL258598  43.136  23.598   6.150
 7876POPC   C1A58599  43.081  23.691   6.450
 7876POPC   D2A58600  43.097  23.687   6.750
 7876POPC   C3A58601  43.122  23.709   7.050
 7876POPC   C4A58602  43.069  23.756   7.350
 7876POPC   C1B58603  43.101  23.471   6.450
 7876POPC   C2B58604  43.154  23.515   6.750
 7876POPC   C3B58605  43.169  23.452   7.050
 7876POPC   C4B58606  43.108  23.505   7.350
 7877POPC   NC358607  23.677   1.205   5.550
 7877POPC   PO458608  23.671   1.217   5.850
 7877POPC   GL158609  23.748   1.233   6.150
 7877POPC   GL258610  23.646   1.106   6.150
 7877POPC   C1A58611  23.758   1.223   6.450
 7877POPC   D2A58612  23.710   1.199   6.750
 7877POPC   C3A58613  23.754   1.229   7.050
 7877POPC   C4A58614  23.728   1.170   7.350
 7877POPC   C1B58615  23.519   1.100   6.450
 7877POPC   C2B58616  23.489   1.046   6.750
 7877POPC   C3B58617  23.501   1.074   7.050
 7877POPC   C4B58618  23.494   1.036   7.350
 7878POPC   NC358619  39.993  33.033   5.550
 7878POPC   PO458620  39.992  32.985   5.850
 7878POPC   GL158621  39.959  33.007   6.150
 7878POPC   GL258622  39.939  32.922   6.150
 7878POPC   C1A58623  40.005  32.987   6.450
 7878POPC   D2A58624  39.994  33.015   6.750
 7878POPC   C3A58625  40.004  33.042   7.050
 7878POPC   C4A58626  39.957  33.023   7.350
 7878POPC   C1B58627  39.788  32.937   6.450
 7878POPC   C2B58628  39.797  32.918   6.750
 7878POPC   C3B58629  39.828  32.957   7.050
 7878POPC   C4B58630  39.799  32.906   7.350
 7879POPC   NC358631  15.940   5.084   5.550
 7879POPC   PO458632  15.963   5.127   5.850
 7879POPC   GL158633  15.926   5.105   6.150
 7879POPC   GL258634  16.057   5.081   6.150
 7879POPC   C1A58635  15.918   5.076   6.450
 7879POPC   D2A58636  15.975   5.099   6.750
 7879POPC   C3A58637  15.927   5.057   7.050
 7879POPC   C4A58638  16.003   5.111   7.350
 7879POPC   C1B58639  16.161   5.004   6.450
 7879POPC   C2B58640  16.160   4.994   6.750
 7879POPC   C3B58641  16.214   4.976   7.050
 7879POPC   C4B58642  16.239   4.985   7.350
 7880POPC   NC358643   8.225  15.137   5.550
 7880POPC   PO458644   8.165  15.147   5.850
 7880POPC   GL158645   8.149  15.190   6.150
 7880POPC   GL258646   8.154  15.096   6.150
 7880POPC   C1A58647   8.242  15.204   6.450
 7880POPC   D2A58648   8.187  15.150   6.750
 7880POPC   C3A58649   8.182  15.134   7.050
 7880POPC   C4A58650   8.184  15.208   7.350
 7880POPC   C1B58651   8.099  14.943   6.450
 7880POPC   C2B58652   8.082  14.912   6.750
 7880POPC   C3B58653   8.118  14.937   7.050
 7880POPC   C4B58654   8.087  14.997   7.350
 7881POPC   NC358655  18.282  22.965   5.550
 7881POPC   PO458656  18.264  22.983   5.850
 7881POPC   GL158657  18.295  22.977   6.150
 7881POPC   GL258658  18.188  23.016   6.150
 7881POPC   C1A58659  18.252  22.947   6.450
 7881POPC   D2A58660  18.248  22.921   6.750
 7881POPC   C3A58661  18.308  22.925   7.050
 7881POPC   C4A58662  18.289  22.975   7.350
 7881POPC   C1B58663  18.115  23.175   6.450
 7881POPC   C2B58664  18.134  23.167   6.750
 7881POPC   C3B58665  18.207  23.145   7.050
 7881POPC   C4B58666  18.195  23.164   7.350
 7882POPC   NC358667  13.588   1.180   5.550
 7882POPC   PO458668  13.597   1.263   5.850
 7882POPC   GL158669  13.596   1.235   6.150
 7882POPC   GL258670  13.582   1.363   6.150
 7882POPC   C1A58671  13.644   1.203   6.450
 7882POPC   D2A58672  13.637   1.205   6.750
 7882POPC   C3A58673  13.663   1.202   7.050
 7882POPC   C4A58674  13.652   1.173   7.350
 7882POPC   C1B58675  13.489   1.408   6.450
 7882POPC   C2B58676  13.475   1.397   6.750
 7882POPC   C3B58677  13.469   1.397   7.050
 7882POPC   C4B58678  13.521   1.378   7.350
 7883POPC   NC358679  32.199  40.772   5.550
 7883POPC   PO458680  32.241  40.811   5.850
 7883POPC   GL158681  32.199  40.736   6.150
 7883POPC   GL258682  32.371  40.838   6.150
 7883POPC   C1A58683  32.258  40.823   6.450
 7883POPC   D2A58684  32.296  40.827   6.750
 7883POPC   C3A58685  32.229  40.783   7.050
 7883POPC   C4A58686  32.294  40.760   7.350
 7883POPC   C1B58687  32.491  40.912   6.450
 7883POPC   C2B58688  32.422  40.967   6.750
 7883POPC   C3B58689  32.416  40.892   7.050
 7883POPC   C4B58690  32.433  40.931   7.350
 7884POPC   NC358691  15.173  23.717   5.550
 7884POPC   PO458692  15.203  23.676   5.850
 7884POPC   GL158693  15.216  23.739   6.150
 7884POPC   GL258694  15.335  23.702   6.150
 7884POPC   C1A58695  15.165  23.719   6.450
 7884POPC   D2A58696  15.187  23.758   6.750
 7884POPC   C3A58697  15.199  23.740   7.050
 7884POPC   C4A58698  15.152  23.716   7.350
 7884POPC   C1B58699  15.428  23.722   6.450
 7884POPC   C2B58700  15.437  23.739   6.750
 7884POPC   C3B58701  15.394  23.685   7.050
 7884POPC   C4B58702  15.450  23.751   7.350
 7885POPC   NC358703   7.463  43.153   5.550
 7885POPC   PO458704   7.397  43.091   5.850
 7885POPC   GL158705   7.402  43.121   6.150
 7885POPC   GL258706   7.517  43.046   6.150
 7885POPC   C1A58707   7.410  43.132   6.450
 7885POPC   D2A58708   7.436  43.082   6.750
 7885POPC   C3A58709   7.443  43.064   7.050
 7885POPC   C4A58710   7.413  43.133   7.350
 7885POPC   C1B58711   7.627  43.084   6.450
 7885POPC   C2B58712   7.627  43.105   6.750
 7885POPC   C3B58713   7.639  43.059   7.050
 7885POPC   C4B58714   7.643  43.045   7.350
 7886POPC   NC358715  40.017   3.590   5.550
 7886POPC   PO458716  39.984   3.537   5.850
 7886POPC   GL158717  40.055   3.571   6.150
 7886POPC   GL258718  39.893   3.438   6.150
 7886POPC   C1A58719  40.033   3.546   6.450
 7886POPC   D2A58720  40.011   3.566   6.750
 7886POPC   C3A58721  40.037   3.590   7.050
 7886POPC   C4A58722  40.000   3.527   7.350
 7886POPC   C1B58723  39.774   3.344   6.450
 7886POPC   C2B58724  39.840   3.406   6.750
 7886POPC   C3B58725  39.768   3.389   7.050
 7886POPC   C4B58726  39.823   3.350   7.350
 7887POPC   NC358727   9.746  28.389   5.550
 7887POPC   PO458728   9.786  28.417   5.850
 7887POPC   GL158729   9.732  28.339   6.150
 7887POPC   GL258730   9.711  28.278   6.150
 7887POPC   C1A58731   9.747  28.329   6.450
 7887POPC   D2A58732   9.784  28.375   6.750
 7887POPC   C3A58733   9.756  28.413   7.050
 7887POPC   C4A58734   9.784  28.365   7.350
 7887POPC   C1B58735   9.566  28.192   6.450
 7887POPC   C2B58736   9.593  28.164   6.750
 7887POPC   C3B58737   9.608  28.160   7.050
 7887POPC   C4B58738   9.563  28.120   7.350
 7888POPC   NC358739   1.234  43.078   5.550
 7888POPC   PO458740   1.203  43.101   5.850
 7888POPC   GL158741   1.262  43.063   6.150
 7888POPC   GL258742   1.100  43.110   6.150
 7888POPC   C1A58743   1.226  43.111   6.450
 7888POPC   D2A58744   1.222  43.075   6.750
 7888POPC   C3A58745   1.173  43.118   7.050
 7888POPC   C4A58746   1.183  43.092   7.350
 7888POPC   C1B58747   0.930  43.070   6.450
 7888POPC   C2B58748   0.992  43.051   6.750
 7888POPC   C3B58749   0.984  42.995   7.050
 7888POPC   C4B58750   0.984  43.065   7.350
 7889POPC   NC358751   4.299  23.748   5.550
 7889POPC   PO458752   4.321  23.666   5.850
 7889POPC   GL158753   4.295  23.715   6.150
 7889POPC   GL258754   4.436  23.644   6.150
 7889POPC   C1A58755   4.319  23.733   6.450
 7889POPC   D2A58756   4.366  23.700   6.750
 7889POPC   C3A58757   4.268  23.757   7.050
 7889POPC   C4A58758   4.278  23.754   7.350
 7889POPC   C1B58759   4.424  23.525   6.450
 7889POPC   C2B58760   4.457  23.529   6.750
 7889POPC   C3B58761   4.450  23.512   7.050
 7889POPC   C4B58762   4.448  23.533   7.350
 7890POPC   NC358763   7.398  23.682   5.550
 7890POPC   PO458764   7.426  23.711   5.850
 7890POPC   GL158765   7.451  23.751   6.150
 7890POPC   GL258766   7.287  23.797   6.150
 7890POPC   C1A58767   7.412  23.748   6.450
 7890POPC   D2A58768   7.431  23.697   6.750
 7890POPC   C3A58769   7.448  23.749   7.050
 7890POPC   C4A58770   7.407  23.687   7.350
 7890POPC   C1B58771   7.182  23.813   6.450
 7890POPC   C2B58772   7.180  23.814   6.750
 7890POPC   C3B58773   7.248  23.855   7.050
 7890POPC   C4B58774   7.187  23.878   7.350
 7891POPC   NC358775  13.609  44.641   5.550
 7891POPC   PO458776  13.605  44.676   5.850
 7891POPC   GL158777  13.616  44.700   6.150
 7891POPC   GL258778  13.781  44.770   6.150
 7891POPC   C1A58779  13.672  44.641   6.450
 7891POPC   D2A58780  13.624  44.674   6.750
 7891POPC   C3A58781  13.653  44.709   7.050
 7891POPC   C4A58782  13.669  44.631   7.350
 7891POPC   C1B58783  13.816  44.761   6.450
 7891POPC   C2B58784  13.841  44.817   6.750
 7891POPC   C3B58785  13.867  44.838   7.050
 7891POPC   C4B58786  13.853  44.800   7.350
 7892POPC   NC358787  36.145  13.637   5.550
 7892POPC   PO458788  36.104  13.631   5.850
 7892POPC   GL158789  36.112  13.657   6.150
 7892POPC   GL258790  36.218  13.535   6.150
 7892POPC   C1A58791  36.150  13.616   6.450
 7892POPC   D2A58792  36.156  13.633   6.750
 7892POPC   C3A58793  36.167  13.672   7.050
 7892POPC   C4A58794  36.165  13.604   7.350
 7892POPC   C1B58795  36.236  13.411   6.450
 7892POPC   C2B58796  36.174  13.380   6.750
 7892POPC   C3B58797  36.257  13.417   7.050
 7892POPC   C4B58798  36.180  13.392   7.350
 7893POPC   NC358799   5.049  36.167   5.550
 7893POPC   PO458800   5.127  36.095   5.850
 7893POPC   GL158801   5.080  36.174   6.150
 7893POPC   GL258802   5.187  36.023   6.150
 7893POPC   C1A58803   5.090  36.093   6.450
 7893POPC   D2A58804   5.141  36.100   6.750
 7893POPC   C3A58805   5.085  36.151   7.050
 7893POPC   C4A58806   5.074  36.099   7.350
 7893POPC   C1B58807   5.264  35.905   6.450
 7893POPC   C2B58808   5.250  35.949   6.750
 7893POPC   C3B58809   5.251  35.863   7.050
 7893POPC   C4B58810   5.234  35.900   7.350
 7894POPC   NC358811  25.240  22.137   5.550
 7894POPC   PO458812  25.304  22.130   5.850
 7894POPC   GL158813  25.245  22.121   6.150
 7894POPC   GL258814  25.127  22.218   6.150
 7894POPC   C1A58815  25.216  22.197   6.450
 7894POPC   D2A58816  25.233  22.172   6.750
 7894POPC   C3A58817  25.220  22.191   7.050
 7894POPC   C4A58818  25.263  22.187   7.350
 7894POPC   C1B58819  25.043  22.227   6.450
 7894POPC   C2B58820  25.050  22.251   6.750
 7894POPC   C3B58821  25.026  22.269   7.050
 7894POPC   C4B58822  24.993  22.237   7.350
 7895POPC   NC358823  24.495  21.348   5.550
 7895POPC   PO458824  24.467  21.377   5.850
 7895POPC   GL158825  24.447  21.435   6.150
 7895POPC   GL258826  24.597  21.308   6.150
 7895POPC   C1A58827  24.506  21.431   6.450
 7895POPC   D2A58828  24.496  21.387   6.750
 7895POPC   C3A58829  24.482  21.372   7.050
 7895POPC   C4A58830  24.475  21.348   7.350
 7895POPC   C1B58831  24.641  21.216   6.450
 7895POPC   C2B58832  24.624  21.188   6.750
 7895POPC   C3B58833  24.631  21.174   7.050
 7895POPC   C4B58834  24.603  21.202   7.350
 7896POPC   NC358835  10.505  25.270   5.550
 7896POPC   PO458836  10.506  25.310   5.850
 7896POPC   GL158837  10.562  25.301   6.150
 7896POPC   GL258838  10.522  25.346   6.150
 7896POPC   C1A58839  10.477  25.280   6.450
 7896POPC   D2A58840  10.509  25.310   6.750
 7896POPC   C3A58841  10.529  25.313   7.050
 7896POPC   C4A58842  10.526  25.293   7.350
 7896POPC   C1B58843  10.572  25.513   6.450
 7896POPC   C2B58844  10.576  25.480   6.750
 7896POPC   C3B58845  10.537  25.469   7.050
 7896POPC   C4B58846  10.567  25.551   7.350
 7897POPC   NC358847  42.359  23.734   5.550
 7897POPC   PO458848  42.326  23.711   5.850
 7897POPC   GL158849  42.346  23.743   6.150
 7897POPC   GL258850  42.303  23.624   6.150
 7897POPC   C1A58851  42.377  23.754   6.450
 7897POPC   D2A58852  42.373  23.670   6.750
 7897POPC   C3A58853  42.349  23.675   7.050
 7897POPC   C4A58854  42.355  23.694   7.350
 7897POPC   C1B58855  42.264  23.443   6.450
 7897POPC   C2B58856  42.206  23.475   6.750
 7897POPC   C3B58857  42.270  23.516   7.050
 7897POPC   C4B58858  42.261  23.475   7.350
 7898POPC   NC358859   0.419  33.802   5.550
 7898POPC   PO458860   0.467  33.844   5.850
 7898POPC   GL158861   0.415  33.828   6.150
 7898POPC   GL258862   0.584  33.796   6.150
 7898POPC   C1A58863   0.427  33.785   6.450
 7898POPC   D2A58864   0.392  33.836   6.750
 7898POPC   C3A58865   0.389  33.783   7.050
 7898POPC   C4A58866   0.475  33.812   7.350
 7898POPC   C1B58867   0.681  33.737   6.450
 7898POPC   C2B58868   0.736  33.788   6.750
 7898POPC   C3B58869   0.655  33.757   7.050
 7898POPC   C4B58870   0.704  33.799   7.350
 7899POPC   NC358871  31.436   8.992   5.550
 7899POPC   PO458872  31.515   8.938   5.850
 7899POPC   GL158873  31.427   8.927   6.150
 7899POPC   GL258874  31.395   9.008   6.150
 7899POPC   C1A58875  31.440   8.935   6.450
 7899POPC   D2A58876  31.504   8.990   6.750
 7899POPC   C3A58877  31.494   9.002   7.050
 7899POPC   C4A58878  31.472   8.977   7.350
 7899POPC   C1B58879  31.204   8.947   6.450
 7899POPC   C2B58880  31.244   8.923   6.750
 7899POPC   C3B58881  31.252   8.934   7.050
 7899POPC   C4B58882  31.188   8.964   7.350
 7900POPC   NC358883  40.739  20.594   5.550
 7900POPC   PO458884  40.782  20.580   5.850
 7900POPC   GL158885  40.809  20.595   6.150
 7900POPC   GL258886  40.655  20.728   6.150
 7900POPC   C1A58887  40.810  20.624   6.450
 7900POPC   D2A58888  40.776  20.568   6.750
 7900POPC   C3A58889  40.781  20.651   7.050
 7900POPC   C4A58890  40.773  20.623   7.350
 7900POPC   C1B58891  40.604  20.752   6.450
 7900POPC   C2B58892  40.597  20.720   6.750
 7900POPC   C3B58893  40.540  20.791   7.050
 7900POPC   C4B58894  40.622  20.740   7.350
 7901POPC   NC358895   1.959  31.478   5.550
 7901POPC   PO458896   1.977  31.521   5.850
 7901POPC   GL158897   1.958  31.465   6.150
 7901POPC   GL258898   1.962  31.343   6.150
 7901POPC   C1A58899   1.974  31.450   6.450
 7901POPC   D2A58900   1.952  31.509   6.750
 7901POPC   C3A58901   2.017  31.432   7.050
 7901POPC   C4A58902   2.008  31.519   7.350
 7901POPC   C1B58903   1.858  31.223   6.450
 7901POPC   C2B58904   1.868  31.281   6.750
 7901POPC   C3B58905   1.928  31.258   7.050
 7901POPC   C4B58906   1.914  31.241   7.350
 7902POPC   NC358907  23.681  10.567   5.550
 7902POPC   PO458908  23.748  10.543   5.850
 7902POPC   GL158909  23.718  10.516   6.150
 7902POPC   GL258910  23.640  10.424   6.150
 7902POPC   C1A58911  23.670  10.502   6.450
 7902POPC   D2A58912  23.763  10.551   6.750
 7902POPC   C3A58913  23.734  10.535   7.050
 7902POPC   C4A58914  23.757  10.557   7.350
 7902POPC   C1B58915  23.584  10.320   6.450
 7902POPC   C2B58916  23.589  10.303   6.750
 7902POPC   C3B58917  23.518  10.303   7.050
 7902POPC   C4B58918  23.600  10.337   7.350
 7903POPC   NC358919  29.909  36.137   5.550
 7903POPC   PO458920  29.967  36.081   5.850
 7903POPC   GL158921  29.886  36.088   6.150
 7903POPC   GL258922  30.052  36.087   6.150
 7903POPC   C1A58923  29.909  36.173   6.450
 7903POPC   D2A58924  29.875  36.138   6.750
 7903POPC   C3A58925  29.931  36.111   7.050
 7903POPC   C4A58926  29.880  36.104   7.350
 7903POPC   C1B58927  30.114  35.981   6.450
 7903POPC   C2B58928  30.086  35.936   6.750
 7903POPC   C3B58929  30.152  35.957   7.050
 7903POPC   C4B58930  30.147  36.018   7.350
 7904POPC   NC358931   0.440  31.506   5.550
 7904POPC   PO458932   0.475  31.514   5.850
 7904POPC   GL158933   0.455  31.450   6.150
 7904POPC   GL258934   0.466  31.380   6.150
 7904POPC   C1A58935   0.404  31.507   6.450
 7904POPC   D2A58936   0.408  31.493   6.750
 7904POPC   C3A58937   0.457  31.464   7.050
 7904POPC   C4A58938   0.471  31.496   7.350
 7904POPC   C1B58939   0.370  31.195   6.450
 7904POPC   C2B58940   0.431  31.190   6.750
 7904POPC   C3B58941   0.446  31.231   7.050
 7904POPC   C4B58942   0.456  31.213   7.350
 7905POPC   NC358943  38.484   1.984   5.550
 7905POPC   PO458944  38.488   2.005   5.850
 7905POPC   GL158945  38.456   1.964   6.150
 7905POPC   GL258946  38.596   1.938   6.150
 7905POPC   C1A58947  38.430   1.965   6.450
 7905POPC   D2A58948  38.414   1.997   6.750
 7905POPC   C3A58949  38.457   1.996   7.050
 7905POPC   C4A58950  38.424   1.986   7.350
 7905POPC   C1B58951  38.743   1.973   6.450
 7905POPC   C2B58952  38.753   2.013   6.750
 7905POPC   C3B58953  38.751   1.990   7.050
 7905POPC   C4B58954  38.690   1.936   7.350
 7906POPC   NC358955  34.573   8.928   5.550
 7906POPC   PO458956  34.622   8.994   5.850
 7906POPC   GL158957  34.605   8.970   6.150
 7906POPC   GL258958  34.674   8.930   6.150
 7906POPC   C1A58959  34.553   8.966   6.450
 7906POPC   D2A58960  34.608   8.972   6.750
 7906POPC   C3A58961  34.579   8.930   7.050
 7906POPC   C4A58962  34.584   8.967   7.350
 7906POPC   C1B58963  34.764   8.824   6.450
 7906POPC   C2B58964  34.811   8.828   6.750
 7906POPC   C3B58965  34.795   8.874   7.050
 7906POPC   C4B58966  34.776   8.816   7.350
 7907POPC   NC358967  23.739  42.312   5.550
 7907POPC   PO458968  23.697  42.296   5.850
 7907POPC   GL158969  23.680  42.366   6.150
 7907POPC   GL258970  23.574  42.264   6.150
 7907POPC   C1A58971  23.671  42.308   6.450
 7907POPC   D2A58972  23.737  42.376   6.750
 7907POPC   C3A58973  23.753  42.378   7.050
 7907POPC   C4A58974  23.739  42.298   7.350
 7907POPC   C1B58975  23.476  42.238   6.450
 7907POPC   C2B58976  23.494  42.254   6.750
 7907POPC   C3B58977  23.441  42.191   7.050
 7907POPC   C4B58978  23.475  42.270   7.350
 7908POPC   NC358979  44.625  14.389   5.550
 7908POPC   PO458980  44.646  14.397   5.850
 7908POPC   GL158981  44.710  14.414   6.150
 7908POPC   GL258982  44.672  14.291   6.150
 7908POPC   C1A58983  44.710  14.451   6.450
 7908POPC   D2A58984  44.698  14.435   6.750
 7908POPC   C3A58985  44.671  14.374   7.050
 7908POPC   C4A58986  44.693  14.449   7.350
 7908POPC   C1B58987  44.604  14.190   6.450
 7908POPC   C2B58988  44.634  14.193   6.750
 7908POPC   C3B58989  44.657  14.184   7.050
 7908POPC   C4B58990  44.702  14.108   7.350
 7909POPC   NC358991  22.952  43.091   5.550
 7909POPC   PO458992  22.930  43.148   5.850
 7909POPC   GL158993  22.933  43.102   6.150
 7909POPC   GL258994  22.822  43.162   6.150
 7909POPC   C1A58995  22.938  43.135   6.450
 7909POPC   D2A58996  22.931  43.158   6.750
 7909POPC   C3A58997  22.893  43.122   7.050
 7909POPC   C4A58998  22.921  43.116   7.350
 7909POPC   C1B58999  22.793  43.263   6.450
 7909POPC   C2B59000  22.738  43.330   6.750
 7909POPC   C3B59001  22.741  43.326   7.050
 7909POPC   C4B59002  22.731  43.273   7.350
 7910POPC   NC359003  26.049  11.302   5.550
 7910POPC   PO459004  25.997  11.347   5.850
 7910POPC   GL159005  26.058  11.269   6.150
 7910POPC   GL259006  26.124  11.220   6.150
 7910POPC   C1A59007  26.040  11.280   6.450
 7910POPC   D2A59008  26.014  11.275   6.750
 7910POPC   C3A59009  26.054  11.265   7.050
 7910POPC   C4A59010  26.021  11.266   7.350
 7910POPC   C1B59011  26.290  11.202   6.450
 7910POPC   C2B59012  26.272  11.179   6.750
 7910POPC   C3B59013  26.258  11.144   7.050
 7910POPC   C4B59014  26.242  11.163   7.350
 7911POPC   NC359015  22.119   3.574   5.550
 7911POPC   PO459016  22.200   3.494   5.850
 7911POPC   GL159017  22.182   3.524   6.150
 7911POPC   GL259018  22.005   3.564   6.150
 7911POPC   C1A59019  22.211   3.571   6.450
 7911POPC   D2A59020  22.159   3.570   6.750
 7911POPC   C3A59021  22.198   3.519   7.050
 7911POPC   C4A59022  22.156   3.510   7.350
 7911POPC   C1B59023  21.877   3.619   6.450
 7911POPC   C2B59024  21.874   3.533   6.750
 7911POPC   C3B59025  21.952   3.577   7.050
 7911POPC   C4B59026  21.949   3.528   7.350
 7912POPC   NC359027  17.496  12.119   5.550
 7912POPC   PO459028  17.491  12.070   5.850
 7912POPC   GL159029  17.496  12.044   6.150
 7912POPC   GL259030  17.598  12.019   6.150
 7912POPC   C1A59031  17.496  12.026   6.450
 7912POPC   D2A59032  17.532  12.042   6.750
 7912POPC   C3A59033  17.545  12.041   7.050
 7912POPC   C4A59034  17.478  12.075   7.350
 7912POPC   C1B59035  17.725  12.106   6.450
 7912POPC   C2B59036  17.710  12.044   6.750
 7912POPC   C3B59037  17.755  12.031   7.050
 7912POPC   C4B59038  17.798  12.044   7.350
 7913POPC   NC359039  16.770  33.810   5.550
 7913POPC   PO459040  16.731  33.802   5.850
 7913POPC   GL159041  16.720  33.811   6.150
 7913POPC   GL259042  16.759  33.715   6.150
 7913POPC   C1A59043  16.739  33.750   6.450
 7913POPC   D2A59044  16.740  33.760   6.750
 7913POPC   C3A59045  16.687  33.821   7.050
 7913POPC   C4A59046  16.747  33.770   7.350
 7913POPC   C1B59047  16.815  33.580   6.450
 7913POPC   C2B59048  16.804  33.608   6.750
 7913POPC   C3B59049  16.900  33.610   7.050
 7913POPC   C4B59050  16.825  33.619   7.350
 7914POPC   NC359051  12.085  20.624   5.550
 7914POPC   PO459052  12.035  20.599   5.850
 7914POPC   GL159053  12.035  20.583   6.150
 7914POPC   GL259054  12.038  20.739   6.150
 7914POPC   C1A59055  12.126  20.590   6.450
 7914POPC   D2A59056  12.053  20.599   6.750
 7914POPC   C3A59057  12.093  20.647   7.050
 7914POPC   C4A59058  12.053  20.609   7.350
 7914POPC   C1B59059  11.967  20.820   6.450
 7914POPC   C2B59060  12.063  20.856   6.750
 7914POPC   C3B59061  11.974  20.894   7.050
 7914POPC   C4B59062  12.020  20.823   7.350
 7915POPC   NC359063  34.581  40.763   5.550
 7915POPC   PO459064  34.541  40.807   5.850
 7915POPC   GL159065  34.576  40.760   6.150
 7915POPC   GL259066  34.682  40.747   6.150
 7915POPC   C1A59067  34.542  40.800   6.450
 7915POPC   D2A59068  34.605  40.786   6.750
 7915POPC   C3A59069  34.620  40.767   7.050
 7915POPC   C4A59070  34.528  40.814   7.350
 7915POPC   C1B59071  34.791  40.754   6.450
 7915POPC   C2B59072  34.821  40.830   6.750
 7915POPC   C3B59073  34.840  40.751   7.050
 7915POPC   C4B59074  34.820  40.836   7.350
 7916POPC   NC359075  33.763  20.611   5.550
 7916POPC   PO459076  33.802  20.611   5.850
 7916POPC   GL159077  33.846  20.623   6.150
 7916POPC   GL259078  33.771  20.745   6.150
 7916POPC   C1A59079  33.769  20.569   6.450
 7916POPC   D2A59080  33.834  20.640   6.750
 7916POPC   C3A59081  33.760  20.604   7.050
 7916POPC   C4A59082  33.842  20.614   7.350
 7916POPC   C1B59083  33.788  20.861   6.450
 7916POPC   C2B59084  33.769  20.862   6.750
 7916POPC   C3B59085  33.844  20.877   7.050
 7916POPC   C4B59086  33.843  20.869   7.350
 7917POPC   NC359087   5.052  24.470   5.550
 7917POPC   PO459088   5.056  24.494   5.850
 7917POPC   GL159089   5.055  24.513   6.150
 7917POPC   GL259090   5.009  24.415   6.150
 7917POPC   C1A59091   5.130  24.462   6.450
 7917POPC   D2A59092   5.061  24.528   6.750
 7917POPC   C3A59093   5.096  24.456   7.050
 7917POPC   C4A59094   5.117  24.447   7.350
 7917POPC   C1B59095   4.929  24.333   6.450
 7917POPC   C2B59096   4.864  24.377   6.750
 7917POPC   C3B59097   4.881  24.402   7.050
 7917POPC   C4B59098   4.932  24.326   7.350
 7918POPC   NC359099  16.761  17.497   5.550
 7918POPC   PO459100  16.756  17.499   5.850
 7918POPC   GL159101  16.761  17.534   6.150
 7918POPC   GL259102  16.866  17.556   6.150
 7918POPC   C1A59103  16.737  17.548   6.450
 7918POPC   D2A59104  16.698  17.486   6.750
 7918POPC   C3A59105  16.726  17.546   7.050
 7918POPC   C4A59106  16.716  17.503   7.350
 7918POPC   C1B59107  16.910  17.632   6.450
 7918POPC   C2B59108  16.984  17.639   6.750
 7918POPC   C3B59109  16.939  17.672   7.050
 7918POPC   C4B59110  16.943  17.637   7.350
 7919POPC   NC359111  38.478  11.345   5.550
 7919POPC   PO459112  38.466  11.302   5.850
 7919POPC   GL159113  38.422  11.330   6.150
 7919POPC   GL259114  38.534  11.266   6.150
 7919POPC   C1A59115  38.409  11.330   6.450
 7919POPC   D2A59116  38.463  11.331   6.750
 7919POPC   C3A59117  38.461  11.280   7.050
 7919POPC   C4A59118  38.447  11.297   7.350
 7919POPC   C1B59119  38.693  11.182   6.450
 7919POPC   C2B59120  38.665  11.236   6.750
 7919POPC   C3B59121  38.700  11.239   7.050
 7919POPC   C4B59122  38.653  11.213   7.350
 7920POPC   NC359123   1.206   1.189   5.550
 7920POPC   PO459124   1.263   1.235   5.850
 7920POPC   GL159125   1.218   1.258   6.150
 7920POPC   GL259126   1.230   1.302   6.150
 7920POPC   C1A59127   1.248   1.245   6.450
 7920POPC   D2A59128   1.215   1.178   6.750
 7920POPC   C3A59129   1.215   1.235   7.050
 7920POPC   C4A59130   1.219   1.173   7.350
 7920POPC   C1B59131   1.328   1.422   6.450
 7920POPC   C2B59132   1.311   1.453   6.750
 7920POPC   C3B59133   1.291   1.455   7.050
 7920POPC   C4B59134   1.337   1.387   7.350
 7921POPC   NC359135  37.658  22.972   5.550
 7921POPC   PO459136  37.720  22.966   5.850
 7921POPC   GL159137  37.649  22.964   6.150
 7921POPC   GL259138  37.770  22.993   6.150
 7921POPC   C1A59139  37.664  22.908   6.450
 7921POPC   D2A59140  37.698  22.895   6.750
 7921POPC   C3A59141  37.724  22.919   7.050
 7921POPC   C4A59142  37.637  22.906   7.350
 7921POPC   C1B59143  37.899  23.095   6.450
 7921POPC   C2B59144  37.839  23.104   6.750
 7921POPC   C3B59145  37.888  23.135   7.050
 7921POPC   C4B59146  37.883  23.108   7.350
 7922POPC   NC359147  43.107  22.895   5.550
 7922POPC   PO459148  43.072  22.988   5.850
 7922POPC   GL159149  43.061  22.903   6.150
 7922POPC   GL259150  43.177  22.867   6.150
 7922POPC   C1A59151  43.139  22.916   6.450
 7922POPC   D2A59152  43.078  22.921   6.750
 7922POPC   C3A59153  43.120  22.935   7.050
 7922POPC   C4A59154  43.155  22.969   7.350
 7922POPC   C1B59155  43.273  22.682   6.450
 7922POPC   C2B59156  43.247  22.730   6.750
 7922POPC   C3B59157  43.251  22.672   7.050
 7922POPC   C4B59158  43.246  22.678   7.350
 7923POPC   NC359159  16.000  23.725   5.550
 7923POPC   PO459160  15.909  23.730   5.850
 7923POPC   GL159161  15.959  23.739   6.150
 7923POPC   GL259162  15.857  23.729   6.150
 7923POPC   C1A59163  15.924  23.705   6.450
 7923POPC   D2A59164  15.939  23.737   6.750
 7923POPC   C3A59165  15.986  23.736   7.050
 7923POPC   C4A59166  15.992  23.683   7.350
 7923POPC   C1B59167  15.704  23.837   6.450
 7923POPC   C2B59168  15.722  23.798   6.750
 7923POPC   C3B59169  15.755  23.808   7.050
 7923POPC   C4B59170  15.699  23.831   7.350
 7924POPC   NC359171  32.263  19.010   5.550
 7924POPC   PO459172  32.234  19.023   5.850
 7924POPC   GL159173  32.231  19.079   6.150
 7924POPC   GL259174  32.257  18.932   6.150
 7924POPC   C1A59175  32.270  19.011   6.450
 7924POPC   D2A59176  32.237  19.039   6.750
 7924POPC   C3A59177  32.276  19.091   7.050
 7924POPC   C4A59178  32.288  19.103   7.350
 7924POPC   C1B59179  32.182  18.770   6.450
 7924POPC   C2B59180  32.186  18.847   6.750
 7924POPC   C3B59181  32.212  18.853   7.050
 7924POPC   C4B59182  32.210  18.844   7.350
 7925POPC   NC359183  40.751  11.309   5.550
 7925POPC   PO459184  40.813  11.308   5.850
 7925POPC   GL159185  40.806  11.258   6.150
 7925POPC   GL259186  40.832  11.153   6.150
 7925POPC   C1A59187  40.770  11.332   6.450
 7925POPC   D2A59188  40.804  11.317   6.750
 7925POPC   C3A59189  40.778  11.317   7.050
 7925POPC   C4A59190  40.740  11.273   7.350
 7925POPC   C1B59191  40.868  11.044   6.450
 7925POPC   C2B59192  40.794  11.071   6.750
 7925POPC   C3B59193  40.807  11.085   7.050
 7925POPC   C4B59194  40.857  11.092   7.350
 7926POPC   NC359195  37.699  21.346   5.550
 7926POPC   PO459196  37.714  21.436   5.850
 7926POPC   GL159197  37.657  21.399   6.150
 7926POPC   GL259198  37.819  21.299   6.150
 7926POPC   C1A59199  37.657  21.399   6.450
 7926POPC   D2A59200  37.659  21.435   6.750
 7926POPC   C3A59201  37.724  21.436   7.050
 7926POPC   C4A59202  37.632  21.381   7.350
 7926POPC   C1B59203  37.879  21.194   6.450
 7926POPC   C2B59204  37.898  21.218   6.750
 7926POPC   C3B59205  37.873  21.189   7.050
 7926POPC   C4B59206  37.862  21.277   7.350
 7927POPC   NC359207  10.569  35.326   5.550
 7927POPC   PO459208  10.507  35.323   5.850
 7927POPC   GL159209  10.531  35.399   6.150
 7927POPC   GL259210  10.464  35.244   6.150
 7927POPC   C1A59211  10.541  35.314   6.450
 7927POPC   D2A59212  10.525  35.329   6.750
 7927POPC   C3A59213  10.476  35.357   7.050
 7927POPC   C4A59214  10.547  35.374   7.350
 7927POPC   C1B59215  10.422  35.131   6.450
 7927POPC   C2B59216  10.429  35.108   6.750
 7927POPC   C3B59217  10.476  35.140   7.050
 7927POPC   C4B59218  10.469  35.091   7.350
 7928POPC   NC359219  40.771   7.382   5.550
 7928POPC   PO459220  40.828   7.427   5.850
 7928POPC   GL159221  40.749   7.408   6.150
 7928POPC   GL259222  40.880   7.390   6.150
 7928POPC   C1A59223  40.810   7.420   6.450
 7928POPC   D2A59224  40.759   7.458   6.750
 7928POPC   C3A59225  40.736   7.426   7.050
 7928POPC   C4A59226  40.762   7.464   7.350
 7928POPC   C1B59227  41.038   7.285   6.450
 7928POPC   C2B59228  40.962   7.365   6.750
 7928POPC   C3B59229  40.963   7.313   7.050
 7928POPC   C4B59230  41.025   7.311   7.350
 7929POPC   NC359231   5.112   7.372   5.550
 7929POPC   PO459232   5.090   7.455   5.850
 7929POPC   GL159233   5.107   7.378   6.150
 7929POPC   GL259234   5.087   7.291   6.150
 7929POPC   C1A59235   5.099   7.448   6.450
 7929POPC   D2A59236   5.049   7.375   6.750
 7929POPC   C3A59237   5.112   7.385   7.050
 7929POPC   C4A59238   5.127   7.406   7.350
 7929POPC   C1B59239   5.088   7.213   6.450
 7929POPC   C2B59240   5.097   7.167   6.750
 7929POPC   C3B59241   5.084   7.144   7.050
 7929POPC   C4B59242   5.107   7.168   7.350
 7930POPC   NC359243  32.234  22.931   5.550
 7930POPC   PO459244  32.281  22.919   5.850
 7930POPC   GL159245  32.289  22.918   6.150
 7930POPC   GL259246  32.305  22.814   6.150
 7930POPC   C1A59247  32.276  22.935   6.450
 7930POPC   D2A59248  32.236  22.972   6.750
 7930POPC   C3A59249  32.210  22.967   7.050
 7930POPC   C4A59250  32.290  22.948   7.350
 7930POPC   C1B59251  32.382  22.693   6.450
 7930POPC   C2B59252  32.357  22.683   6.750
 7930POPC   C3B59253  32.340  22.722   7.050
 7930POPC   C4B59254  32.400  22.704   7.350
 7931POPC   NC359255  12.846  26.810   5.550
 7931POPC   PO459256  12.827  26.792   5.850
 7931POPC   GL159257  12.838  26.784   6.150
 7931POPC   GL259258  13.009  26.776   6.150
 7931POPC   C1A59259  12.897  26.788   6.450
 7931POPC   D2A59260  12.882  26.782   6.750
 7931POPC   C3A59261  12.847  26.839   7.050
 7931POPC   C4A59262  12.845  26.773   7.350
 7931POPC   C1B59263  13.076  26.778   6.450
 7931POPC   C2B59264  13.099  26.752   6.750
 7931POPC   C3B59265  13.131  26.774   7.050
 7931POPC   C4B59266  13.085  26.726   7.350
 7932POPC   NC359267  21.385  41.580   5.550
 7932POPC   PO459268  21.427  41.531   5.850
 7932POPC   GL159269  21.352  41.533   6.150
 7932POPC   GL259270  21.305  41.538   6.150
 7932POPC   C1A59271  21.428  41.590   6.450
 7932POPC   D2A59272  21.351  41.568   6.750
 7932POPC   C3A59273  21.342  41.596   7.050
 7932POPC   C4A59274  21.384  41.599   7.350
 7932POPC   C1B59275  21.165  41.469   6.450
 7932POPC   C2B59276  21.184  41.437   6.750
 7932POPC   C3B59277  21.145  41.465   7.050
 7932POPC   C4B59278  21.189  41.429   7.350
 7933POPC   NC359279  31.519  43.084   5.550
 7933POPC   PO459280  31.497  43.091   5.850
 7933POPC   GL159281  31.488  43.123   6.150
 7933POPC   GL259282  31.419  43.067   6.150
 7933POPC   C1A59283  31.441  43.085   6.450
 7933POPC   D2A59284  31.498  43.089   6.750
 7933POPC   C3A59285  31.464  43.068   7.050
 7933POPC   C4A59286  31.508  43.137   7.350
 7933POPC   C1B59287  31.271  42.950   6.450
 7933POPC   C2B59288  31.329  42.954   6.750
 7933POPC   C3B59289  31.258  42.970   7.050
 7933POPC   C4B59290  31.298  42.908   7.350
 7934POPC   NC359291  43.154  43.903   5.550
 7934POPC   PO459292  43.156  43.893   5.850
 7934POPC   GL159293  43.159  43.865   6.150
 7934POPC   GL259294  43.036  44.032   6.150
 7934POPC   C1A59295  43.079  43.934   6.450
 7934POPC   D2A59296  43.092  43.884   6.750
 7934POPC   C3A59297  43.095  43.855   7.050
 7934POPC   C4A59298  43.084  43.927   7.350
 7934POPC   C1B59299  42.971  44.048   6.450
 7934POPC   C2B59300  42.932  44.048   6.750
 7934POPC   C3B59301  42.960  44.110   7.050
 7934POPC   C4B59302  43.010  44.049   7.350
 7935POPC   NC359303  33.069  11.298   5.550
 7935POPC   PO459304  32.984  11.304   5.850
 7935POPC   GL159305  32.994  11.344   6.150
 7935POPC   GL259306  33.150  11.328   6.150
 7935POPC   C1A59307  33.017  11.332   6.450
 7935POPC   D2A59308  33.059  11.341   6.750
 7935POPC   C3A59309  33.024  11.283   7.050
 7935POPC   C4A59310  33.017  11.298   7.350
 7935POPC   C1B59311  33.275  11.435   6.450
 7935POPC   C2B59312  33.242  11.452   6.750
 7935POPC   C3B59313  33.257  11.433   7.050
 7935POPC   C4B59314  33.238  11.385   7.350
 7936POPC   NC359315  40.805  34.574   5.550
 7936POPC   PO459316  40.804  34.619   5.850
 7936POPC   GL159317  40.734  34.551   6.150
 7936POPC   GL259318  40.710  34.636   6.150
 7936POPC   C1A59319  40.798  34.619   6.450
 7936POPC   D2A59320  40.793  34.569   6.750
 7936POPC   C3A59321  40.789  34.560   7.050
 7936POPC   C4A59322  40.786  34.564   7.350
 7936POPC   C1B59323  40.544  34.659   6.450
 7936POPC   C2B59324  40.500  34.605   6.750
 7936POPC   C3B59325  40.531  34.621   7.050
 7936POPC   C4B59326  40.522  34.627   7.350
 7937POPC   NC359327  36.886  18.272   5.550
 7937POPC   PO459328  36.883  18.302   5.850
 7937POPC   GL159329  36.904  18.287   6.150
 7937POPC   GL259330  36.807  18.147   6.150
 7937POPC   C1A59331  36.871  18.300   6.450
 7937POPC   D2A59332  36.861  18.316   6.750
 7937POPC   C3A59333  36.865  18.298   7.050
 7937POPC   C4A59334  36.936  18.268   7.350
 7937POPC   C1B59335  36.791  18.120   6.450
 7937POPC   C2B59336  36.739  18.066   6.750
 7937POPC   C3B59337  36.761  18.055   7.050
 7937POPC   C4B59338  36.746  18.057   7.350
 7938POPC   NC359339  15.962  40.787   5.550
 7938POPC   PO459340  15.924  40.797   5.850
 7938POPC   GL159341  15.998  40.822   6.150
 7938POPC   GL259342  15.865  40.674   6.150
 7938POPC   C1A59343  15.969  40.739   6.450
 7938POPC   D2A59344  15.992  40.770   6.750
 7938POPC   C3A59345  15.946  40.766   7.050
 7938POPC   C4A59346  15.963  40.768   7.350
 7938POPC   C1B59347  15.788  40.611   6.450
 7938POPC   C2B59348  15.769  40.572   6.750
 7938POPC   C3B59349  15.802  40.622   7.050
 7938POPC   C4B59350  15.796  40.607   7.350
 7939POPC   NC359351   2.734  11.283   5.550
 7939POPC   PO459352   2.721  11.281   5.850
 7939POPC   GL159353   2.716  11.277   6.150
 7939POPC   GL259354   2.706  11.407   6.150
 7939POPC   C1A59355   2.729  11.300   6.450
 7939POPC   D2A59356   2.735  11.259   6.750
 7939POPC   C3A59357   2.771  11.350   7.050
 7939POPC   C4A59358   2.790  11.327   7.350
 7939POPC   C1B59359   2.590  11.555   6.450
 7939POPC   C2B59360   2.623  11.502   6.750
 7939POPC   C3B59361   2.635  11.513   7.050
 7939POPC   C4B59362   2.618  11.463   7.350
 7940POPC   NC359363   1.222  12.048   5.550
 7940POPC   PO459364   1.232  12.101   5.850
 7940POPC   GL159365   1.202  12.026   6.150
 7940POPC   GL259366   1.131  12.047   6.150
 7940POPC   C1A59367   1.236  12.086   6.450
 7940POPC   D2A59368   1.262  12.039   6.750
 7940POPC   C3A59369   1.256  12.098   7.050
 7940POPC   C4A59370   1.166  12.075   7.350
 7940POPC   C1B59371   0.999  11.910   6.450
 7940POPC   C2B59372   0.966  11.996   6.750
 7940POPC   C3B59373   1.033  11.966   7.050
 7940POPC   C4B59374   0.995  11.989   7.350
 7941POPC   NC359375   5.116   8.240   5.550
 7941POPC   PO459376   5.128   8.196   5.850
 7941POPC   GL159377   5.109   8.183   6.150
 7941POPC   GL259378   5.056   8.358   6.150
 7941POPC   C1A59379   5.066   8.220   6.450
 7941POPC   D2A59380   5.110   8.218   6.750
 7941POPC   C3A59381   5.124   8.163   7.050
 7941POPC   C4A59382   5.047   8.191   7.350
 7941POPC   C1B59383   5.087   8.462   6.450
 7941POPC   C2B59384   5.110   8.457   6.750
 7941POPC   C3B59385   5.107   8.433   7.050
 7941POPC   C4B59386   5.106   8.475   7.350
 7942POPC   NC359387  26.840  43.931   5.550
 7942POPC   PO459388  26.804  43.921   5.850
 7942POPC   GL159389  26.855  43.843   6.150
 7942POPC   GL259390  26.830  43.726   6.150
 7942POPC   C1A59391  26.807  43.896   6.450
 7942POPC   D2A59392  26.864  43.927   6.750
 7942POPC   C3A59393  26.807  43.856   7.050
 7942POPC   C4A59394  26.799  43.870   7.350
 7942POPC   C1B59395  26.818  43.680   6.450
 7942POPC   C2B59396  26.853  43.589   6.750
 7942POPC   C3B59397  26.854  43.634   7.050
 7942POPC   C4B59398  26.802  43.605   7.350
 7943POPC   NC359399   7.461  30.670   5.550
 7943POPC   PO459400   7.395  30.734   5.850
 7943POPC   GL159401   7.416  30.718   6.150
 7943POPC   GL259402   7.276  30.759   6.150
 7943POPC   C1A59403   7.416  30.653   6.450
 7943POPC   D2A59404   7.383  30.739   6.750
 7943POPC   C3A59405   7.444  30.713   7.050
 7943POPC   C4A59406   7.387  30.703   7.350
 7943POPC   C1B59407   7.250  30.831   6.450
 7943POPC   C2B59408   7.207  30.887   6.750
 7943POPC   C3B59409   7.247  30.837   7.050
 7943POPC   C4B59410   7.205  30.822   7.350
 7944POPC   NC359411   9.714  23.745   5.550
 7944POPC   PO459412   9.762  23.734   5.850
 7944POPC   GL159413   9.773  23.728   6.150
 7944POPC   GL259414   9.892  23.708   6.150
 7944POPC   C1A59415   9.755  23.700   6.450
 7944POPC   D2A59416   9.719  23.668   6.750
 7944POPC   C3A59417   9.774  23.721   7.050
 7944POPC   C4A59418   9.795  23.757   7.350
 7944POPC   C1B59419   9.992  23.731   6.450
 7944POPC   C2B59420  10.011  23.666   6.750
 7944POPC   C3B59421   9.998  23.755   7.050
 7944POPC   C4B59422  10.006  23.744   7.350
 7945POPC   NC359423  12.065  44.622   5.550
 7945POPC   PO459424  12.065  44.612   5.850
 7945POPC   GL159425  12.052  44.634   6.150
 7945POPC   GL259426  12.036  44.743   6.150
 7945POPC   C1A59427  12.028  44.638   6.450
 7945POPC   D2A59428  12.061  44.671   6.750
 7945POPC   C3A59429  12.063  44.644   7.050
 7945POPC   C4A59430  12.125  44.708   7.350
 7945POPC   C1B59431  11.976  44.927   6.450
 7945POPC   C2B59432  11.981  44.859   6.750
 7945POPC   C3B59433  12.017  44.899   7.050
 7945POPC   C4B59434  11.976  44.873   7.350
 7946POPC   NC359435  42.369  32.981   5.550
 7946POPC   PO459436  42.289  33.056   5.850
 7946POPC   GL159437  42.371  32.992   6.150
 7946POPC   GL259438  42.175  33.035   6.150
 7946POPC   C1A59439  42.308  33.009   6.450
 7946POPC   D2A59440  42.302  33.053   6.750
 7946POPC   C3A59441  42.306  33.007   7.050
 7946POPC   C4A59442  42.382  33.039   7.350
 7946POPC   C1B59443  42.062  33.073   6.450
 7946POPC   C2B59444  42.100  33.075   6.750
 7946POPC   C3B59445  42.080  33.066   7.050
 7946POPC   C4B59446  42.068  33.149   7.350
 7947POPC   NC359447  12.816  22.208   5.550
 7947POPC   PO459448  12.819  22.160   5.850
 7947POPC   GL159449  12.815  22.173   6.150
 7947POPC   GL259450  12.881  22.030   6.150
 7947POPC   C1A59451  12.823  22.120   6.450
 7947POPC   D2A59452  12.890  22.205   6.750
 7947POPC   C3A59453  12.856  22.157   7.050
 7947POPC   C4A59454  12.902  22.208   7.350
 7947POPC   C1B59455  13.051  21.997   6.450
 7947POPC   C2B59456  12.984  21.998   6.750
 7947POPC   C3B59457  13.024  21.926   7.050
 7947POPC   C4B59458  13.026  21.937   7.350
 7948POPC   NC359459  36.881  27.548   5.550
 7948POPC   PO459460  36.928  27.589   5.850
 7948POPC   GL159461  36.913  27.584   6.150
 7948POPC   GL259462  36.891  27.743   6.150
 7948POPC   C1A59463  36.869  27.590   6.450
 7948POPC   D2A59464  36.925  27.557   6.750
 7948POPC   C3A59465  36.923  27.543   7.050
 7948POPC   C4A59466  36.947  27.609   7.350
 7948POPC   C1B59467  36.825  27.847   6.450
 7948POPC   C2B59468  36.863  27.857   6.750
 7948POPC   C3B59469  36.802  27.818   7.050
 7948POPC   C4B59470  36.797  27.878   7.350
 7949POPC   NC359471  31.451   2.786   5.550
 7949POPC   PO459472  31.476   2.754   5.850
 7949POPC   GL159473  31.517   2.727   6.150
 7949POPC   GL259474  31.503   2.699   6.150
 7949POPC   C1A59475  31.451   2.799   6.450
 7949POPC   D2A59476  31.479   2.813   6.750
 7949POPC   C3A59477  31.504   2.813   7.050
 7949POPC   C4A59478  31.434   2.760   7.350
 7949POPC   C1B59479  31.564   2.545   6.450
 7949POPC   C2B59480  31.577   2.552   6.750
 7949POPC   C3B59481  31.609   2.532   7.050
 7949POPC   C4B59482  31.596   2.499   7.350
 7950POPC   NC359483  17.475  41.516   5.550
 7950POPC   PO459484  17.461  41.562   5.850
 7950POPC   GL159485  17.500  41.509   6.150
 7950POPC   GL259486  17.540  41.641   6.150
 7950POPC   C1A59487  17.488  41.556   6.450
 7950POPC   D2A59488  17.491  41.583   6.750
 7950POPC   C3A59489  17.503  41.509   7.050
 7950POPC   C4A59490  17.489  41.560   7.350
 7950POPC   C1B59491  17.625  41.830   6.450
 7950POPC   C2B59492  17.570  41.799   6.750
 7950POPC   C3B59493  17.632  41.748   7.050
 7950POPC   C4B59494  17.613  41.754   7.350
 7951POPC   NC359495  32.238   0.432   5.550
 7951POPC   PO459496  32.200   0.474   5.850
 7951POPC   GL159497  32.208   0.405   6.150
 7951POPC   GL259498  32.202   0.344   6.150
 7951POPC   C1A59499  32.284   0.437   6.450
 7951POPC   D2A59500  32.267   0.420   6.750
 7951POPC   C3A59501  32.268   0.412   7.050
 7951POPC   C4A59502  32.270   0.463   7.350
 7951POPC   C1B59503  32.104   0.283   6.450
 7951POPC   C2B59504  32.047   0.233   6.750
 7951POPC   C3B59505  32.081   0.260   7.050
 7951POPC   C4B59506  32.067   0.260   7.350
 7952POPC   NC359507  13.587   9.709   5.550
 7952POPC   PO459508  13.646   9.704   5.850
 7952POPC   GL159509  13.601   9.709   6.150
 7952POPC   GL259510  13.623   9.650   6.150
 7952POPC   C1A59511  13.591   9.785   6.450
 7952POPC   D2A59512  13.583   9.740   6.750
 7952POPC   C3A59513  13.674   9.726   7.050
 7952POPC   C4A59514  13.595   9.766   7.350
 7952POPC   C1B59515  13.540   9.476   6.450
 7952POPC   C2B59516  13.589   9.523   6.750
 7952POPC   C3B59517  13.527   9.536   7.050
 7952POPC   C4B59518  13.593   9.493   7.350
 7953POPC   NC359519  25.273  43.911   5.550
 7953POPC   PO459520  25.277  43.930   5.850
 7953POPC   GL159521  25.263  43.839   6.150
 7953POPC   GL259522  25.328  43.783   6.150
 7953POPC   C1A59523  25.261  43.932   6.450
 7953POPC   D2A59524  25.216  43.901   6.750
 7953POPC   C3A59525  25.287  43.913   7.050
 7953POPC   C4A59526  25.277  43.876   7.350
 7953POPC   C1B59527  25.452  43.680   6.450
 7953POPC   C2B59528  25.500  43.704   6.750
 7953POPC   C3B59529  25.409  43.723   7.050
 7953POPC   C4B59530  25.488  43.705   7.350
 7954POPC   NC359531  15.222  19.820   5.550
 7954POPC   PO459532  15.184  19.807   5.850
 7954POPC   GL159533  15.203  19.884   6.150
 7954POPC   GL259534  15.059  19.827   6.150
 7954POPC   C1A59535  15.174  19.869   6.450
 7954POPC   D2A59536  15.214  19.844   6.750
 7954POPC   C3A59537  15.157  19.788   7.050
 7954POPC   C4A59538  15.228  19.857   7.350
 7954POPC   C1B59539  14.955  19.820   6.450
 7954POPC   C2B59540  14.910  19.754   6.750
 7954POPC   C3B59541  14.897  19.791   7.050
 7954POPC   C4B59542  14.900  19.785   7.350
 7955POPC   NC359543  19.812   3.586   5.550
 7955POPC   PO459544  19.815   3.518   5.850
 7955POPC   GL159545  19.823   3.548   6.150
 7955POPC   GL259546  19.732   3.537   6.150
 7955POPC   C1A59547  19.833   3.505   6.450
 7955POPC   D2A59548  19.876   3.522   6.750
 7955POPC   C3A59549  19.840   3.538   7.050
 7955POPC   C4A59550  19.868   3.551   7.350
 7955POPC   C1B59551  19.631   3.556   6.450
 7955POPC   C2B59552  19.587   3.609   6.750
 7955POPC   C3B59553  19.583   3.615   7.050
 7955POPC   C4B59554  19.624   3.557   7.350
 7956POPC   NC359555  14.404  32.288   5.550
 7956POPC   PO459556  14.418  32.255   5.850
 7956POPC   GL159557  14.361  32.259   6.150
 7956POPC   GL259558  14.300  32.343   6.150
 7956POPC   C1A59559  14.451  32.257   6.450
 7956POPC   D2A59560  14.451  32.281   6.750
 7956POPC   C3A59561  14.393  32.279   7.050
 7956POPC   C4A59562  14.390  32.283   7.350
 7956POPC   C1B59563  14.195  32.451   6.450
 7956POPC   C2B59564  14.207  32.445   6.750
 7956POPC   C3B59565  14.205  32.441   7.050
 7956POPC   C4B59566  14.216  32.396   7.350
 7957POPC   NC359567  36.087  36.156   5.550
 7957POPC   PO459568  36.082  36.143   5.850
 7957POPC   GL159569  36.171  36.099   6.150
 7957POPC   GL259570  36.243  36.008   6.150
 7957POPC   C1A59571  36.134  36.127   6.450
 7957POPC   D2A59572  36.091  36.129   6.750
 7957POPC   C3A59573  36.127  36.137   7.050
 7957POPC   C4A59574  36.125  36.082   7.350
 7957POPC   C1B59575  36.305  35.980   6.450
 7957POPC   C2B59576  36.328  36.010   6.750
 7957POPC   C3B59577  36.346  35.978   7.050
 7957POPC   C4B59578  36.278  35.962   7.350
 7958POPC   NC359579  21.375  36.870   5.550
 7958POPC   PO459580  21.350  36.952   5.850
 7958POPC   GL159581  21.391  36.882   6.150
 7958POPC   GL259582  21.520  36.871   6.150
 7958POPC   C1A59583  21.420  36.910   6.450
 7958POPC   D2A59584  21.380  36.922   6.750
 7958POPC   C3A59585  21.404  36.898   7.050
 7958POPC   C4A59586  21.428  36.894   7.350
 7958POPC   C1B59587  21.610  36.737   6.450
 7958POPC   C2B59588  21.581  36.793   6.750
 7958POPC   C3B59589  21.571  36.803   7.050
 7958POPC   C4B59590  21.595  36.750   7.350
 7959POPC   NC359591   8.961   0.470   5.550
 7959POPC   PO459592   8.993   0.424   5.850
 7959POPC   GL159593   8.955   0.411   6.150
 7959POPC   GL259594   9.042   0.381   6.150
 7959POPC   C1A59595   8.999   0.484   6.450
 7959POPC   D2A59596   8.990   0.396   6.750
 7959POPC   C3A59597   9.010   0.481   7.050
 7959POPC   C4A59598   8.957   0.429   7.350
 7959POPC   C1B59599   9.148   0.261   6.450
 7959POPC   C2B59600   9.112   0.212   6.750
 7959POPC   C3B59601   9.160   0.290   7.050
 7959POPC   C4B59602   9.148   0.287   7.350
 7960POPC   NC359603  28.351  26.781   5.550
 7960POPC   PO459604  28.403  26.774   5.850
 7960POPC   GL159605  28.365  26.786   6.150
 7960POPC   GL259606  28.511  26.890   6.150
 7960POPC   C1A59607  28.344  26.822   6.450
 7960POPC   D2A59608  28.366  26.817   6.750
 7960POPC   C3A59609  28.365  26.796   7.050
 7960POPC   C4A59610  28.325  26.832   7.350
 7960POPC   C1B59611  28.569  26.849   6.450
 7960POPC   C2B59612  28.634  26.902   6.750
 7960POPC   C3B59613  28.654  26.922   7.050
 7960POPC   C4B59614  28.616  26.892   7.350
 7961POPC   NC359615  31.445   9.716   5.550
 7961POPC   PO459616  31.426   9.715   5.850
 7961POPC   GL159617  31.470   9.772   6.150
 7961POPC   GL259618  31.413   9.917   6.150
 7961POPC   C1A59619  31.499   9.722   6.450
 7961POPC   D2A59620  31.512   9.711   6.750
 7961POPC   C3A59621  31.450   9.743   7.050
 7961POPC   C4A59622  31.429   9.745   7.350
 7961POPC   C1B59623  31.380  10.044   6.450
 7961POPC   C2B59624  31.422  10.017   6.750
 7961POPC   C3B59625  31.391  10.010   7.050
 7961POPC   C4B59626  31.450  10.017   7.350
 7962POPC   NC359627  39.253  11.300   5.550
 7962POPC   PO459628  39.230  11.290   5.850
 7962POPC   GL159629  39.253  11.331   6.150
 7962POPC   GL259630  39.301  11.456   6.150
 7962POPC   C1A59631  39.271  11.315   6.450
 7962POPC   D2A59632  39.274  11.309   6.750
 7962POPC   C3A59633  39.253  11.341   7.050
 7962POPC   C4A59634  39.247  11.266   7.350
 7962POPC   C1B59635  39.349  11.541   6.450
 7962POPC   C2B59636  39.299  11.554   6.750
 7962POPC   C3B59637  39.284  11.578   7.050
 7962POPC   C4B59638  39.329  11.536   7.350
 7963POPC   NC359639  19.061  15.960   5.550
 7963POPC   PO459640  19.026  15.963   5.850
 7963POPC   GL159641  19.033  15.942   6.150
 7963POPC   GL259642  19.050  15.879   6.150
 7963POPC   C1A59643  19.093  15.955   6.450
 7963POPC   D2A59644  19.080  15.977   6.750
 7963POPC   C3A59645  19.052  15.930   7.050
 7963POPC   C4A59646  19.047  15.915   7.350
 7963POPC   C1B59647  18.939  15.767   6.450
 7963POPC   C2B59648  18.980  15.679   6.750
 7963POPC   C3B59649  19.005  15.712   7.050
 7963POPC   C4B59650  18.990  15.763   7.350
 7964POPC   NC359651  37.634   7.471   5.550
 7964POPC   PO459652  37.638   7.466   5.850
 7964POPC   GL159653  37.631   7.456   6.150
 7964POPC   GL259654  37.668   7.355   6.150
 7964POPC   C1A59655  37.671   7.411   6.450
 7964POPC   D2A59656  37.722   7.400   6.750
 7964POPC   C3A59657  37.712   7.384   7.050
 7964POPC   C4A59658  37.671   7.386   7.350
 7964POPC   C1B59659  37.614   7.165   6.450
 7964POPC   C2B59660  37.622   7.215   6.750
 7964POPC   C3B59661  37.600   7.241   7.050
 7964POPC   C4B59662  37.539   7.208   7.350
 7965POPC   NC359663  23.676  36.169   5.550
 7965POPC   PO459664  23.740  36.093   5.850
 7965POPC   GL159665  23.671  36.130   6.150
 7965POPC   GL259666  23.677  36.061   6.150
 7965POPC   C1A59667  23.695  36.175   6.450
 7965POPC   D2A59668  23.758  36.161   6.750
 7965POPC   C3A59669  23.708  36.078   7.050
 7965POPC   C4A59670  23.689  36.130   7.350
 7965POPC   C1B59671  23.653  35.856   6.450
 7965POPC   C2B59672  23.576  35.905   6.750
 7965POPC   C3B59673  23.623  35.858   7.050
 7965POPC   C4B59674  23.607  35.938   7.350
 7966POPC   NC359675  11.266   5.101   5.550
 7966POPC   PO459676  11.309   5.115   5.850
 7966POPC   GL159677  11.257   5.084   6.150
 7966POPC   GL259678  11.351   5.233   6.150
 7966POPC   C1A59679  11.257   5.116   6.450
 7966POPC   D2A59680  11.322   5.119   6.750
 7966POPC   C3A59681  11.251   5.135   7.050
 7966POPC   C4A59682  11.254   5.045   7.350
 7966POPC   C1B59683  11.363   5.335   6.450
 7966POPC   C2B59684  11.402   5.332   6.750
 7966POPC   C3B59685  11.339   5.379   7.050
 7966POPC   C4B59686  11.336   5.333   7.350
 7967POPC   NC359687  42.372   7.392   5.550
 7967POPC   PO459688  42.329   7.452   5.850
 7967POPC   GL159689  42.350   7.442   6.150
 7967POPC   GL259690  42.300   7.544   6.150
 7967POPC   C1A59691  42.292   7.445   6.450
 7967POPC   D2A59692  42.318   7.470   6.750
 7967POPC   C3A59693  42.340   7.411   7.050
 7967POPC   C4A59694  42.376   7.392   7.350
 7967POPC   C1B59695  42.183   7.675   6.450
 7967POPC   C2B59696  42.207   7.667   6.750
 7967POPC   C3B59697  42.266   7.595   7.050
 7967POPC   C4B59698  42.171   7.682   7.350
 7968POPC   NC359699  42.348   2.009   5.550
 7968POPC   PO459700  42.367   1.964   5.850
 7968POPC   GL159701  42.302   1.965   6.150
 7968POPC   GL259702  42.321   1.858   6.150
 7968POPC   C1A59703  42.313   1.980   6.450
 7968POPC   D2A59704  42.332   1.996   6.750
 7968POPC   C3A59705  42.373   1.975   7.050
 7968POPC   C4A59706  42.295   1.969   7.350
 7968POPC   C1B59707  42.356   1.757   6.450
 7968POPC   C2B59708  42.360   1.740   6.750
 7968POPC   C3B59709  42.367   1.767   7.050
 7968POPC   C4B59710  42.319   1.775   7.350
 7969POPC   NC359711  12.101   6.601   5.550
 7969POPC   PO459712  12.072   6.603   5.850
 7969POPC   GL159713  12.090   6.611   6.150
 7969POPC   GL259714  12.032   6.808   6.150
 7969POPC   C1A59715  12.058   6.656   6.450
 7969POPC   D2A59716  12.043   6.688   6.750
 7969POPC   C3A59717  12.037   6.670   7.050
 7969POPC   C4A59718  12.046   6.602   7.350
 7969POPC   C1B59719  11.984   6.910   6.450
 7969POPC   C2B59720  12.000   6.844   6.750
 7969POPC   C3B59721  12.008   6.874   7.050
 7969POPC   C4B59722  12.027   6.882   7.350
 7970POPC   NC359723  39.221  22.888   5.550
 7970POPC   PO459724  39.188  22.939   5.850
 7970POPC   GL159725  39.190  22.942   6.150
 7970POPC   GL259726  39.399  23.016   6.150
 7970POPC   C1A59727  39.185  22.952   6.450
 7970POPC   D2A59728  39.237  22.921   6.750
 7970POPC   C3A59729  39.276  22.967   7.050
 7970POPC   C4A59730  39.250  22.965   7.350
 7970POPC   C1B59731  39.482  23.027   6.450
 7970POPC   C2B59732  39.479  23.053   6.750
 7970POPC   C3B59733  39.470  23.007   7.050
 7970POPC   C4B59734  39.504  23.007   7.350
 7971POPC   NC359735   9.736  43.154   5.550
 7971POPC   PO459736   9.753  43.130   5.850
 7971POPC   GL159737   9.781  43.099   6.150
 7971POPC   GL259738   9.805  43.252   6.150
 7971POPC   C1A59739   9.775  43.073   6.450
 7971POPC   D2A59740   9.776  43.129   6.750
 7971POPC   C3A59741   9.753  43.093   7.050
 7971POPC   C4A59742   9.769  43.066   7.350
 7971POPC   C1B59743   9.830  43.312   6.450
 7971POPC   C2B59744   9.877  43.316   6.750
 7971POPC   C3B59745   9.840  43.366   7.050
 7971POPC   C4B59746   9.872  43.323   7.350
 7972POPC   NC359747  23.705  32.201   5.550
 7972POPC   PO459748  23.702  32.272   5.850
 7972POPC   GL159749  23.678  32.214   6.150
 7972POPC   GL259750  23.830  32.198   6.150
 7972POPC   C1A59751  23.721  32.224   6.450
 7972POPC   D2A59752  23.718  32.211   6.750
 7972POPC   C3A59753  23.673  32.220   7.050
 7972POPC   C4A59754  23.701  32.291   7.350
 7972POPC   C1B59755  23.991  32.157   6.450
 7972POPC   C2B59756  23.945  32.204   6.750
 7972POPC   C3B59757  23.912  32.198   7.050
 7972POPC   C4B59758  23.915  32.158   7.350
 7973POPC   NC359759   7.439  36.881   5.550
 7973POPC   PO459760   7.411  36.893   5.850
 7973POPC   GL159761   7.431  36.900   6.150
 7973POPC   GL259762   7.320  36.949   6.150
 7973POPC   C1A59763   7.465  36.945   6.450
 7973POPC   D2A59764   7.403  36.951   6.750
 7973POPC   C3A59765   7.407  36.880   7.050
 7973POPC   C4A59766   7.426  36.856   7.350
 7973POPC   C1B59767   7.219  37.086   6.450
 7973POPC   C2B59768   7.291  37.101   6.750
 7973POPC   C3B59769   7.272  37.055   7.050
 7973POPC   C4B59770   7.221  37.049   7.350
 7974POPC   NC359771   6.684  15.221   5.550
 7974POPC   PO459772   6.633  15.175   5.850
 7974POPC   GL159773   6.692  15.206   6.150
 7974POPC   GL259774   6.723  15.058   6.150
 7974POPC   C1A59775   6.683  15.227   6.450
 7974POPC   D2A59776   6.683  15.133   6.750
 7974POPC   C3A59777   6.611  15.168   7.050
 7974POPC   C4A59778   6.647  15.189   7.350
 7974POPC   C1B59779   6.790  14.981   6.450
 7974POPC   C2B59780   6.825  15.037   6.750
 7974POPC   C3B59781   6.849  15.050   7.050
 7974POPC   C4B59782   6.799  15.058   7.350
 7975POPC   NC359783  35.399  43.146   5.550
 7975POPC   PO459784  35.313  43.085   5.850
 7975POPC   GL159785  35.307  43.104   6.150
 7975POPC   GL259786  35.341  43.233   6.150
 7975POPC   C1A59787  35.318  43.080   6.450
 7975POPC   D2A59788  35.385  43.071   6.750
 7975POPC   C3A59789  35.382  43.121   7.050
 7975POPC   C4A59790  35.392  43.119   7.350
 7975POPC   C1B59791  35.402  43.377   6.450
 7975POPC   C2B59792  35.398  43.362   6.750
 7975POPC   C3B59793  35.402  43.311   7.050
 7975POPC   C4B59794  35.459  43.374   7.350
 7976POPC   NC359795   0.432  21.392   5.550
 7976POPC   PO459796   0.410  21.431   5.850
 7976POPC   GL159797   0.483  21.430   6.150
 7976POPC   GL259798   0.351  21.238   6.150
 7976POPC   C1A59799   0.416  21.373   6.450
 7976POPC   D2A59800   0.428  21.356   6.750
 7976POPC   C3A59801   0.432  21.365   7.050
 7976POPC   C4A59802   0.468  21.405   7.350
 7976POPC   C1B59803   0.314  21.175   6.450
 7976POPC   C2B59804   0.346  21.208   6.750
 7976POPC   C3B59805   0.307  21.172   7.050
 7976POPC   C4B59806   0.276  21.197   7.350
 7977POPC   NC359807  23.732   2.007   5.550
 7977POPC   PO459808  23.716   1.954   5.850
 7977POPC   GL159809  23.692   1.998   6.150
 7977POPC   GL259810  23.830   1.975   6.150
 7977POPC   C1A59811  23.716   2.031   6.450
 7977POPC   D2A59812  23.748   1.945   6.750
 7977POPC   C3A59813  23.691   1.956   7.050
 7977POPC   C4A59814  23.707   2.016   7.350
 7977POPC   C1B59815  23.938   1.967   6.450
 7977POPC   C2B59816  23.934   1.925   6.750
 7977POPC   C3B59817  23.994   1.977   7.050
 7977POPC   C4B59818  23.913   1.976   7.350
 7978POPC   NC359819   0.477   3.577   5.550
 7978POPC   PO459820   0.452   3.531   5.850
 7978POPC   GL159821   0.422   3.499   6.150
 7978POPC   GL259822   0.306   3.637   6.150
 7978POPC   C1A59823   0.437   3.574   6.450
 7978POPC   D2A59824   0.442   3.535   6.750
 7978POPC   C3A59825   0.439   3.553   7.050
 7978POPC   C4A59826   0.429   3.507   7.350
 7978POPC   C1B59827   0.207   3.728   6.450
 7978POPC   C2B59828   0.276   3.659   6.750
 7978POPC   C3B59829   0.215   3.661   7.050
 7978POPC   C4B59830   0.234   3.719   7.350
 7979POPC   NC359831  29.887  35.396   5.550
 7979POPC   PO459832  29.905  35.310   5.850
 7979POPC   GL159833  29.910  35.303   6.150
 7979POPC   GL259834  29.907  35.276   6.150
 7979POPC   C1A59835  29.946  35.339   6.450
 7979POPC   D2A59836  29.892  35.386   6.750
 7979POPC   C3A59837  29.888  35.366   7.050
 7979POPC   C4A59838  29.886  35.400   7.350
 7979POPC   C1B59839  29.948  35.065   6.450
 7979POPC   C2B59840  29.918  35.130   6.750
 7979POPC   C3B59841  29.979  35.101   7.050
 7979POPC   C4B59842  29.919  35.072   7.350
 7980POPC   NC359843  14.394  20.594   5.550
 7980POPC   PO459844  14.392  20.596   5.850
 7980POPC   GL159845  14.375  20.655   6.150
 7980POPC   GL259846  14.511  20.504   6.150
 7980POPC   C1A59847  14.386  20.590   6.450
 7980POPC   D2A59848  14.418  20.562   6.750
 7980POPC   C3A59849  14.414  20.617   7.050
 7980POPC   C4A59850  14.366  20.584   7.350
 7980POPC   C1B59851  14.513  20.395   6.450
 7980POPC   C2B59852  14.528  20.428   6.750
 7980POPC   C3B59853  14.501  20.442   7.050
 7980POPC   C4B59854  14.547  20.440   7.350
 7981POPC   NC359855   8.235   1.984   5.550
 7981POPC   PO459856   8.179   1.965   5.850
 7981POPC   GL159857   8.154   1.951   6.150
 7981POPC   GL259858   8.156   1.850   6.150
 7981POPC   C1A59859   8.158   1.954   6.450
 7981POPC   D2A59860   8.224   1.955   6.750
 7981POPC   C3A59861   8.237   1.980   7.050
 7981POPC   C4A59862   8.223   1.984   7.350
 7981POPC   C1B59863   8.164   1.709   6.450
 7981POPC   C2B59864   8.209   1.708   6.750
 7981POPC   C3B59865   8.183   1.787   7.050
 7981POPC   C4B59866   8.200   1.706   7.350
 7982POPC   NC359867   3.511  15.948   5.550
 7982POPC   PO459868   3.495  15.952   5.850
 7982POPC   GL159869   3.566  15.971   6.150
 7982POPC   GL259870   3.505  16.031   6.150
 7982POPC   C1A59871   3.535  15.937   6.450
 7982POPC   D2A59872   3.551  15.936   6.750
 7982POPC   C3A59873   3.588  16.001   7.050
 7982POPC   C4A59874   3.564  15.971   7.350
 7982POPC   C1B59875   3.412  16.159   6.450
 7982POPC   C2B59876   3.502  16.165   6.750
 7982POPC   C3B59877   3.412  16.239   7.050
 7982POPC   C4B59878   3.488  16.229   7.350
 7983POPC   NC359879  29.131  36.147   5.550
 7983POPC   PO459880  29.105  36.148   5.850
 7983POPC   GL159881  29.097  36.094   6.150
 7983POPC   GL259882  29.010  36.217   6.150
 7983POPC   C1A59883  29.179  36.113   6.450
 7983POPC   D2A59884  29.147  36.153   6.750
 7983POPC   C3A59885  29.193  36.141   7.050
 7983POPC   C4A59886  29.171  36.078   7.350
 7983POPC   C1B59887  28.989  36.332   6.450
 7983POPC   C2B59888  28.932  36.267   6.750
 7983POPC   C3B59889  28.972  36.320   7.050
 7983POPC   C4B59890  28.936  36.300   7.350
 7984POPC   NC359891   5.123  18.236   5.550
 7984POPC   PO459892   5.114  18.289   5.850
 7984POPC   GL159893   5.102  18.283   6.150
 7984POPC   GL259894   5.026  18.412   6.150
 7984POPC   C1A59895   5.074  18.271   6.450
 7984POPC   D2A59896   5.114  18.278   6.750
 7984POPC   C3A59897   5.084  18.300   7.050
 7984POPC   C4A59898   5.096  18.276   7.350
 7984POPC   C1B59899   5.073  18.519   6.450
 7984POPC   C2B59900   5.015  18.477   6.750
 7984POPC   C3B59901   5.062  18.481   7.050
 7984POPC   C4B59902   4.998  18.518   7.350
 7985POPC   NC359903  39.986   8.158   5.550
 7985POPC   PO459904  40.041   8.229   5.850
 7985POPC   GL159905  40.018   8.187   6.150
 7985POPC   GL259906  39.961   8.257   6.150
 7985POPC   C1A59907  40.014   8.151   6.450
 7985POPC   D2A59908  39.996   8.172   6.750
 7985POPC   C3A59909  40.000   8.227   7.050
 7985POPC   C4A59910  40.021   8.231   7.350
 7985POPC   C1B59911  39.842   8.347   6.450
 7985POPC   C2B59912  39.822   8.434   6.750
 7985POPC   C3B59913  39.835   8.357   7.050
 7985POPC   C4B59914  39.894   8.376   7.350
 7986POPC   NC359915  14.400  24.472   5.550
 7986POPC   PO459916  14.357  24.464   5.850
 7986POPC   GL159917  14.407  24.451   6.150
 7986POPC   GL259918  14.361  24.599   6.150
 7986POPC   C1A59919  14.360  24.494   6.450
 7986POPC   D2A59920  14.379  24.455   6.750
 7986POPC   C3A59921  14.449  24.466   7.050
 7986POPC   C4A59922  14.357  24.448   7.350
 7986POPC   C1B59923  14.443  24.778   6.450
 7986POPC   C2B59924  14.395  24.704   6.750
 7986POPC   C3B59925  14.372  24.751   7.050
 7986POPC   C4B59926  14.375  24.738   7.350
 7987POPC   NC359927  35.306  39.975   5.550
 7987POPC   PO459928  35.303  40.015   5.850
 7987POPC   GL159929  35.333  39.991   6.150
 7987POPC   GL259930  35.492  40.031   6.150
 7987POPC   C1A59931  35.357  39.957   6.450
 7987POPC   D2A59932  35.355  40.003   6.750
 7987POPC   C3A59933  35.338  39.984   7.050
 7987POPC   C4A59934  35.378  40.026   7.350
 7987POPC   C1B59935  35.633  40.043   6.450
 7987POPC   C2B59936  35.561  40.026   6.750
 7987POPC   C3B59937  35.648  39.996   7.050
 7987POPC   C4B59938  35.610  40.036   7.350
 7988POPC   NC359939   8.157  20.591   5.550
 7988POPC   PO459940   8.153  20.562   5.850
 7988POPC   GL159941   8.246  20.608   6.150
 7988POPC   GL259942   8.106  20.678   6.150
 7988POPC   C1A59943   8.212  20.562   6.450
 7988POPC   D2A59944   8.211  20.638   6.750
 7988POPC   C3A59945   8.242  20.602   7.050
 7988POPC   C4A59946   8.188  20.614   7.350
 7988POPC   C1B59947   8.068  20.752   6.450
 7988POPC   C2B59948   8.067  20.753   6.750
 7988POPC   C3B59949   8.078  20.808   7.050
 7988POPC   C4B59950   8.056  20.764   7.350
 7989POPC   NC359951  19.880  22.210   5.550
 7989POPC   PO459952  19.832  22.153   5.850
 7989POPC   GL159953  19.853  22.169   6.150
 7989POPC   GL259954  19.789  22.241   6.150
 7989POPC   C1A59955  19.882  22.118   6.450
 7989POPC   D2A59956  19.883  22.188   6.750
 7989POPC   C3A59957  19.835  22.200   7.050
 7989POPC   C4A59958  19.809  22.206   7.350
 7989POPC   C1B59959  19.621  22.389   6.450
 7989POPC   C2B59960  19.676  22.366   6.750
 7989POPC   C3B59961  19.671  22.346   7.050
 7989POPC   C4B59962  19.671  22.395   7.350
 7990POPC   NC359963  33.057  19.857   5.550
 7990POPC   PO459964  33.016  19.820   5.850
 7990POPC   GL159965  33.029  19.809   6.150
 7990POPC   GL259966  32.939  19.805   6.150
 7990POPC   C1A59967  33.045  19.793   6.450
 7990POPC   D2A59968  33.009  19.840   6.750
 7990POPC   C3A59969  32.983  19.839   7.050
 7990POPC   C4A59970  33.073  19.804   7.350
 7990POPC   C1B59971  32.824  19.785   6.450
 7990POPC   C2B59972  32.830  19.813   6.750
 7990POPC   C3B59973  32.754  19.782   7.050
 7990POPC   C4B59974  32.753  19.758   7.350
 7991POPC   NC359975  16.731   1.985   5.550
 7991POPC   PO459976  16.721   2.025   5.850
 7991POPC   GL159977  16.686   2.021   6.150
 7991POPC   GL259978  16.788   2.104   6.150
 7991POPC   C1A59979  16.682   1.988   6.450
 7991POPC   D2A59980  16.741   1.986   6.750
 7991POPC   C3A59981  16.771   1.985   7.050
 7991POPC   C4A59982  16.717   1.958   7.350
 7991POPC   C1B59983  16.929   2.220   6.450
 7991POPC   C2B59984  16.879   2.138   6.750
 7991POPC   C3B59985  16.857   2.157   7.050
 7991POPC   C4B59986  16.932   2.177   7.350
 7992POPC   NC359987  20.630  36.111   5.550
 7992POPC   PO459988  20.586  36.165   5.850
 7992POPC   GL159989  20.630  36.083   6.150
 7992POPC   GL259990  20.698  36.233   6.150
 7992POPC   C1A59991  20.571  36.127   6.450
 7992POPC   D2A59992  20.657  36.132   6.750
 7992POPC   C3A59993  20.647  36.091   7.050
 7992POPC   C4A59994  20.626  36.092   7.350
 7992POPC   C1B59995  20.750  36.306   6.450
 7992POPC   C2B59996  20.768  36.257   6.750
 7992POPC   C3B59997  20.744  36.263   7.050
 7992POPC   C4B59998  20.810  36.258   7.350
 7993POPC   NC359999   2.030  15.975   5.550
 7993POPC   PO460000   1.944  15.919   5.850
 7993POPC   GL160001   2.011  15.993   6.150
 7993POPC   GL260002   1.898  15.826   6.150
 7993POPC   C1A60003   2.010  16.000   6.450
 7993POPC   D2A60004   1.999  16.003   6.750
 7993POPC   C3A60005   1.954  15.933   7.050
 7993POPC   C4A60006   1.996  15.953   7.350
 7993POPC   C1B60007   1.812  15.806   6.450
 7993POPC   C2B60008   1.859  15.750   6.750
 7993POPC   C3B60009   1.821  15.771   7.050
 7993POPC   C4B60010   1.798  15.733   7.350
 7994POPC   NC360011  37.649  36.109   5.550
 7994POPC   PO460012  37.723  36.157   5.850
 7994POPC   GL160013  37.671  36.162   6.150
 7994POPC   GL260014  37.617  36.217   6.150
 7994POPC   C1A60015  37.681  36.172   6.450
 7994POPC   D2A60016  37.717  36.159   6.750
 7994POPC   C3A60017  37.633  36.090   7.050
 7994POPC   C4A60018  37.640  36.131   7.350
 7994POPC   C1B60019  37.617  36.375   6.450
 7994POPC   C2B60020  37.651  36.412   6.750
 7994POPC   C3B60021  37.576  36.376   7.050
 7994POPC   C4B60022  37.647  36.376   7.350
 7995POPC   NC360023  27.588  36.862   5.550
 7995POPC   PO460024  27.543  36.876   5.850
 7995POPC   GL160025  27.565  36.921   6.150
 7995POPC   GL260026  27.435  36.981   6.150
 7995POPC   C1A60027  27.552  36.938   6.450
 7995POPC   D2A60028  27.594  36.889   6.750
 7995POPC   C3A60029  27.643  36.857   7.050
 7995POPC   C4A60030  27.556  36.918   7.350
 7995POPC   C1B60031  27.368  36.999   6.450
 7995POPC   C2B60032  27.367  37.006   6.750
 7995POPC   C3B60033  27.366  36.997   7.050
 7995POPC   C4B60034  27.383  36.971   7.350
 7996POPC   NC360035   4.306  21.338   5.550
 7996POPC   PO460036   4.288  21.353   5.850
 7996POPC   GL160037   4.298  21.360   6.150
 7996POPC   GL260038   4.441  21.369   6.150
 7996POPC   C1A60039   4.302  21.411   6.450
 7996POPC   D2A60040   4.287  21.409   6.750
 7996POPC   C3A60041   4.289  21.389   7.050
 7996POPC   C4A60042   4.305  21.421   7.350
 7996POPC   C1B60043   4.608  21.376   6.450
 7996POPC   C2B60044   4.570  21.370   6.750
 7996POPC   C3B60045   4.578  21.411   7.050
 7996POPC   C4B60046   4.560  21.386   7.350
 7997POPC   NC360047  43.897  12.826   5.550
 7997POPC   PO460048  43.898  12.839   5.850
 7997POPC   GL160049  43.836  12.812   6.150
 7997POPC   GL260050  43.904  12.701   6.150
 7997POPC   C1A60051  43.876  12.818   6.450
 7997POPC   D2A60052  43.859  12.852   6.750
 7997POPC   C3A60053  43.922  12.849   7.050
 7997POPC   C4A60054  43.917  12.815   7.350
 7997POPC   C1B60055  43.925  12.586   6.450
 7997POPC   C2B60056  43.926  12.635   6.750
 7997POPC   C3B60057  43.902  12.587   7.050
 7997POPC   C4B60058  43.959  12.653   7.350
 7998POPC   NC360059  31.522  38.501   5.550
 7998POPC   PO460060  31.496  38.483   5.850
 7998POPC   GL160061  31.440  38.413   6.150
 7998POPC   GL260062  31.601  38.522   6.150
 7998POPC   C1A60063  31.463  38.458   6.450
 7998POPC   D2A60064  31.426  38.503   6.750
 7998POPC   C3A60065  31.510  38.446   7.050
 7998POPC   C4A60066  31.477  38.425   7.350
 7998POPC   C1B60067  31.683  38.577   6.450
 7998POPC   C2B60068  31.652  38.630   6.750
 7998POPC   C3B60069  31.638  38.595   7.050
 7998POPC   C4B60070  31.647  38.634   7.350
 7999POPC   NC360071  29.104  27.586   5.550
 7999POPC   PO460072  29.145  27.591   5.850
 7999POPC   GL160073  29.189  27.583   6.150
 7999POPC   GL260074  29.041  27.472   6.150
 7999POPC   C1A60075  29.101  27.561   6.450
 7999POPC   D2A60076  29.169  27.605   6.750
 7999POPC   C3A60077  29.156  27.564   7.050
 7999POPC   C4A60078  29.155  27.622   7.350
 7999POPC   C1B60079  28.976  27.492   6.450
 7999POPC   C2B60080  28.978  27.443   6.750
 7999POPC   C3B60081  28.952  27.485   7.050
 7999POPC   C4B60082  28.906  27.423   7.350
 8000POPC   NC360083   4.305  29.103   5.550
 8000POPC   PO460084   4.317  29.152   5.850
 8000POPC   GL160085   4.276  29.169   6.150
 8000POPC   GL260086   4.398  29.120   6.150
 8000POPC   C1A60087   4.270  29.160   6.450
 8000POPC   D2A60088   4.348  29.145   6.750
 8000POPC   C3A60089   4.365  29.169   7.050
 8000POPC   C4A60090   4.311  29.100   7.350
 8000POPC   C1B60091   4.498  28.970   6.450
 8000POPC   C2B60092   4.548  29.018   6.750
 8000POPC   C3B60093   4.545  28.998   7.050
 8000POPC   C4B60094   4.579  28.977   7.350
 8001POPC   NC360095   6.671  12.060   5.550
 8001POPC   PO460096   6.690  12.112   5.850
 8001POPC   GL160097   6.677  12.031   6.150
 8001POPC   GL260098   6.597  12.196   6.150
 8001POPC   C1A60099   6.676  12.045   6.450
 8001POPC   D2A60100   6.639  12.112   6.750
 8001POPC   C3A60101   6.691  12.045   7.050
 8001POPC   C4A60102   6.612  12.062   7.350
 8001POPC   C1B60103   6.546  12.281   6.450
 8001POPC   C2B60104   6.581  12.323   6.750
 8001POPC   C3B60105   6.517  12.318   7.050
 8001POPC   C4B60106   6.524  12.300   7.350
 8002POPC   NC360107  29.945  43.847   5.550
 8002POPC   PO460108  29.898  43.894   5.850
 8002POPC   GL160109  29.924  43.876   6.150
 8002POPC   GL260110  29.971  43.812   6.150
 8002POPC   C1A60111  29.913  43.889   6.450
 8002POPC   D2A60112  29.927  43.912   6.750
 8002POPC   C3A60113  29.952  43.882   7.050
 8002POPC   C4A60114  29.894  43.851   7.350
 8002POPC   C1B60115  30.105  43.691   6.450
 8002POPC   C2B60116  30.081  43.715   6.750
 8002POPC   C3B60117  30.040  43.635   7.050
 8002POPC   C4B60118  30.059  43.658   7.350
 8003POPC   NC360119  22.935  15.194   5.550
 8003POPC   PO460120  22.899  15.211   5.850
 8003POPC   GL160121  22.977  15.195   6.150
 8003POPC   GL260122  22.922  15.318   6.150
 8003POPC   C1A60123  22.925  15.150   6.450
 8003POPC   D2A60124  22.973  15.224   6.750
 8003POPC   C3A60125  22.890  15.225   7.050
 8003POPC   C4A60126  22.889  15.147   7.350
 8003POPC   C1B60127  22.932  15.377   6.450
 8003POPC   C2B60128  22.955  15.383   6.750
 8003POPC   C3B60129  22.981  15.467   7.050
 8003POPC   C4B60130  22.969  15.455   7.350
 8004POPC   NC360131  32.264   7.448   5.550
 8004POPC   PO460132  32.217   7.441   5.850
 8004POPC   GL160133  32.227   7.414   6.150
 8004POPC   GL260134  32.133   7.494   6.150
 8004POPC   C1A60135  32.268   7.457   6.450
 8004POPC   D2A60136  32.260   7.396   6.750
 8004POPC   C3A60137  32.236   7.466   7.050
 8004POPC   C4A60138  32.245   7.451   7.350
 8004POPC   C1B60139  32.141   7.593   6.450
 8004POPC   C2B60140  32.062   7.616   6.750
 8004POPC   C3B60141  32.062   7.650   7.050
 8004POPC   C4B60142  32.097   7.667   7.350
 8005POPC   NC360143  32.257  21.427   5.550
 8005POPC   PO460144  32.261  21.349   5.850
 8005POPC   GL160145  32.273  21.417   6.150
 8005POPC   GL260146  32.339  21.378   6.150
 8005POPC   C1A60147  32.269  21.353   6.450
 8005POPC   D2A60148  32.233  21.407   6.750
 8005POPC   C3A60149  32.200  21.407   7.050
 8005POPC   C4A60150  32.287  21.338   7.350
 8005POPC   C1B60151  32.541  21.399   6.450
 8005POPC   C2B60152  32.482  21.397   6.750
 8005POPC   C3B60153  32.489  21.354   7.050
 8005POPC   C4B60154  32.488  21.400   7.350
 8006POPC   NC360155   8.209   5.836   5.550
 8006POPC   PO460156   8.183   5.848   5.850
 8006POPC   GL160157   8.175   5.831   6.150
 8006POPC   GL260158   8.116   5.896   6.150
 8006POPC   C1A60159   8.153   5.834   6.450
 8006POPC   D2A60160   8.208   5.905   6.750
 8006POPC   C3A60161   8.165   5.879   7.050
 8006POPC   C4A60162   8.167   5.910   7.350
 8006POPC   C1B60163   7.970   5.968   6.450
 8006POPC   C2B60164   7.948   6.033   6.750
 8006POPC   C3B60165   7.943   5.983   7.050
 8006POPC   C4B60166   7.950   6.034   7.350
 8007POPC   NC360167  15.993   9.777   5.550
 8007POPC   PO460168  15.992   9.704   5.850
 8007POPC   GL160169  15.948   9.747   6.150
 8007POPC   GL260170  16.063   9.707   6.150
 8007POPC   C1A60171  15.919   9.715   6.450
 8007POPC   D2A60172  15.966   9.756   6.750
 8007POPC   C3A60173  16.000   9.734   7.050
 8007POPC   C4A60174  15.998   9.713   7.350
 8007POPC   C1B60175  16.149   9.656   6.450
 8007POPC   C2B60176  16.163   9.668   6.750
 8007POPC   C3B60177  16.238   9.632   7.050
 8007POPC   C4B60178  16.217   9.684   7.350
 8008POPC   NC360179  39.999  23.692   5.550
 8008POPC   PO460180  39.960  23.737   5.850
 8008POPC   GL160181  40.023  23.675   6.150
 8008POPC   GL260182  40.040  23.840   6.150
 8008POPC   C1A60183  40.049  23.692   6.450
 8008POPC   D2A60184  39.968  23.667   6.750
 8008POPC   C3A60185  40.021  23.738   7.050
 8008POPC   C4A60186  40.029  23.710   7.350
 8008POPC   C1B60187  40.069  23.942   6.450
 8008POPC   C2B60188  40.105  23.957   6.750
 8008POPC   C3B60189  40.078  23.943   7.050
 8008POPC   C4B60190  40.120  23.890   7.350
 8009POPC   NC360191  30.719  36.890   5.550
 8009POPC   PO460192  30.734  36.872   5.850
 8009POPC   GL160193  30.719  36.860   6.150
 8009POPC   GL260194  30.647  36.771   6.150
 8009POPC   C1A60195  30.729  36.890   6.450
 8009POPC   D2A60196  30.744  36.879   6.750
 8009POPC   C3A60197  30.652  36.865   7.050
 8009POPC   C4A60198  30.711  36.884   7.350
 8009POPC   C1B60199  30.580  36.721   6.450
 8009POPC   C2B60200  30.550  36.707   6.750
 8009POPC   C3B60201  30.562  36.736   7.050
 8009POPC   C4B60202  30.532  36.715   7.350
 8010POPC   NC360203   2.801  43.876   5.550
 8010POPC   PO460204   2.792  43.875   5.850
 8010POPC   GL160205   2.743  43.887   6.150
 8010POPC   GL260206   2.739  44.011   6.150
 8010POPC   C1A60207   2.727  43.865   6.450
 8010POPC   D2A60208   2.733  43.856   6.750
 8010POPC   C3A60209   2.793  43.873   7.050
 8010POPC   C4A60210   2.794  43.901   7.350
 8010POPC   C1B60211   2.745  44.152   6.450
 8010POPC   C2B60212   2.807  44.094   6.750
 8010POPC   C3B60213   2.755  44.115   7.050
 8010POPC   C4B60214   2.759  44.102   7.350
 8011POPC   NC360215   9.700  40.805   5.550
 8011POPC   PO460216   9.746  40.827   5.850
 8011POPC   GL160217   9.719  40.753   6.150
 8011POPC   GL260218   9.647  40.636   6.150
 8011POPC   C1A60219   9.778  40.749   6.450
 8011POPC   D2A60220   9.709  40.792   6.750
 8011POPC   C3A60221   9.710  40.779   7.050
 8011POPC   C4A60222   9.795  40.809   7.350
 8011POPC   C1B60223   9.652  40.541   6.450
 8011POPC   C2B60224   9.604  40.582   6.750
 8011POPC   C3B60225   9.636  40.562   7.050
 8011POPC   C4B60226   9.636  40.572   7.350
 8012POPC   NC360227   4.330  26.839   5.550
 8012POPC   PO460228   4.292  26.795   5.850
 8012POPC   GL160229   4.290  26.791   6.150
 8012POPC   GL260230   4.252  26.699   6.150
 8012POPC   C1A60231   4.328  26.804   6.450
 8012POPC   D2A60232   4.351  26.829   6.750
 8012POPC   C3A60233   4.329  26.801   7.050
 8012POPC   C4A60234   4.282  26.804   7.350
 8012POPC   C1B60235   4.158  26.657   6.450
 8012POPC   C2B60236   4.149  26.607   6.750
 8012POPC   C3B60237   4.131  26.584   7.050
 8012POPC   C4B60238   4.168  26.655   7.350
 8013POPC   NC360239  40.008  34.572   5.550
 8013POPC   PO460240  40.000  34.553   5.850
 8013POPC   GL160241  39.986  34.566   6.150
 8013POPC   GL260242  40.127  34.452   6.150
 8013POPC   C1A60243  39.994  34.545   6.450
 8013POPC   D2A60244  40.023  34.597   6.750
 8013POPC   C3A60245  40.054  34.563   7.050
 8013POPC   C4A60246  39.981  34.620   7.350
 8013POPC   C1B60247  40.172  34.359   6.450
 8013POPC   C2B60248  40.180  34.429   6.750
 8013POPC   C3B60249  40.134  34.420   7.050
 8013POPC   C4B60250  40.120  34.409   7.350
 8014POPC   NC360251   9.711   6.679   5.550
 8014POPC   PO460252   9.777   6.682   5.850
 8014POPC   GL160253   9.753   6.680   6.150
 8014POPC   GL260254   9.724   6.544   6.150
 8014POPC   C1A60255   9.732   6.605   6.450
 8014POPC   D2A60256   9.732   6.607   6.750
 8014POPC   C3A60257   9.748   6.679   7.050
 8014POPC   C4A60258   9.705   6.656   7.350
 8014POPC   C1B60259   9.672   6.443   6.450
 8014POPC   C2B60260   9.665   6.361   6.750
 8014POPC   C3B60261   9.665   6.390   7.050
 8014POPC   C4B60262   9.745   6.450   7.350
 8015POPC   NC360263  33.039  19.030   5.550
 8015POPC   PO460264  32.995  19.102   5.850
 8015POPC   GL160265  33.039  19.095   6.150
 8015POPC   GL260266  33.179  19.076   6.150
 8015POPC   C1A60267  33.063  19.034   6.450
 8015POPC   D2A60268  33.046  19.054   6.750
 8015POPC   C3A60269  33.039  19.078   7.050
 8015POPC   C4A60270  33.010  19.093   7.350
 8015POPC   C1B60271  33.246  19.049   6.450
 8015POPC   C2B60272  33.231  19.058   6.750
 8015POPC   C3B60273  33.276  19.096   7.050
 8015POPC   C4B60274  33.283  19.086   7.350
 8016POPC   NC360275  29.892   4.333   5.550
 8016POPC   PO460276  29.894   4.360   5.850
 8016POPC   GL160277  29.967   4.330   6.150
 8016POPC   GL260278  30.021   4.373   6.150
 8016POPC   C1A60279  29.967   4.322   6.450
 8016POPC   D2A60280  29.874   4.352   6.750
 8016POPC   C3A60281  29.886   4.277   7.050
 8016POPC   C4A60282  29.890   4.365   7.350
 8016POPC   C1B60283  30.202   4.384   6.450
 8016POPC   C2B60284  30.120   4.342   6.750
 8016POPC   C3B60285  30.143   4.325   7.050
 8016POPC   C4B60286  30.140   4.375   7.350
 8017POPC   NC360287  43.096   8.948   5.550
 8017POPC   PO460288  43.068   9.006   5.850
 8017POPC   GL160289  43.083   8.945   6.150
 8017POPC   GL260290  43.012   9.027   6.150
 8017POPC   C1A60291  43.075   8.943   6.450
 8017POPC   D2A60292  43.158   8.983   6.750
 8017POPC   C3A60293  43.078   9.003   7.050
 8017POPC   C4A60294  43.159   8.940   7.350
 8017POPC   C1B60295  42.877   9.055   6.450
 8017POPC   C2B60296  42.861   9.043   6.750
 8017POPC   C3B60297  42.886   9.049   7.050
 8017POPC   C4B60298  42.888   9.032   7.350
 8018POPC   NC360299  43.101  32.238   5.550
 8018POPC   PO460300  43.070  32.267   5.850
 8018POPC   GL160301  43.118  32.255   6.150
 8018POPC   GL260302  43.170  32.351   6.150
 8018POPC   C1A60303  43.110  32.295   6.450
 8018POPC   D2A60304  43.126  32.267   6.750
 8018POPC   C3A60305  43.079  32.291   7.050
 8018POPC   C4A60306  43.117  32.262   7.350
 8018POPC   C1B60307  43.275  32.363   6.450
 8018POPC   C2B60308  43.326  32.378   6.750
 8018POPC   C3B60309  43.323  32.415   7.050
 8018POPC   C4B60310  43.344  32.399   7.350
 8019POPC   NC360311  35.388  42.343   5.550
 8019POPC   PO460312  35.359  42.289   5.850
 8019POPC   GL160313  35.331  42.343   6.150
 8019POPC   GL260314  35.297  42.181   6.150
 8019POPC   C1A60315  35.349  42.287   6.450
 8019POPC   D2A60316  35.322  42.319   6.750
 8019POPC   C3A60317  35.305  42.337   7.050
 8019POPC   C4A60318  35.356  42.287   7.350
 8019POPC   C1B60319  35.290  42.091   6.450
 8019POPC   C2B60320  35.222  42.106   6.750
 8019POPC   C3B60321  35.212  42.093   7.050
 8019POPC   C4B60322  35.239  42.078   7.350
 8020POPC   NC360323  18.310  32.276   5.550
 8020POPC   PO460324  18.279  32.286   5.850
 8020POPC   GL160325  18.274  32.257   6.150
 8020POPC   GL260326  18.212  32.395   6.150
 8020POPC   C1A60327  18.233  32.227   6.450
 8020POPC   D2A60328  18.251  32.258   6.750
 8020POPC   C3A60329  18.240  32.263   7.050
 8020POPC   C4A60330  18.283  32.202   7.350
 8020POPC   C1B60331  18.104  32.445   6.450
 8020POPC   C2B60332  18.099  32.468   6.750
 8020POPC   C3B60333  18.085  32.465   7.050
 8020POPC   C4B60334  18.167  32.437   7.350
 8021POPC   NC360335  20.597   4.338   5.550
 8021POPC   PO460336  20.647   4.297   5.850
 8021POPC   GL160337  20.623   4.321   6.150
 8021POPC   GL260338  20.616   4.465   6.150
 8021POPC   C1A60339  20.625   4.328   6.450
 8021POPC   D2A60340  20.572   4.357   6.750
 8021POPC   C3A60341  20.647   4.363   7.050
 8021POPC   C4A60342  20.608   4.308   7.350
 8021POPC   C1B60343  20.581   4.603   6.450
 8021POPC   C2B60344  20.643   4.526   6.750
 8021POPC   C3B60345  20.576   4.572   7.050
 8021POPC   C4B60346  20.632   4.582   7.350
 8022POPC   NC360347  37.641  43.090   5.550
 8022POPC   PO460348  37.669  43.083   5.850
 8022POPC   GL160349  37.714  43.113   6.150
 8022POPC   GL260350  37.581  43.161   6.150
 8022POPC   C1A60351  37.630  43.113   6.450
 8022POPC   D2A60352  37.657  43.120   6.750
 8022POPC   C3A60353  37.687  43.066   7.050
 8022POPC   C4A60354  37.683  43.133   7.350
 8022POPC   C1B60355  37.472  43.247   6.450
 8022POPC   C2B60356  37.439  43.259   6.750
 8022POPC   C3B60357  37.481  43.273   7.050
 8022POPC   C4B60358  37.489  43.290   7.350
 8023POPC   NC360359  11.343  21.369   5.550
 8023POPC   PO460360  11.341  21.346   5.850
 8023POPC   GL160361  11.265  21.344   6.150
 8023POPC   GL260362  11.347  21.274   6.150
 8023POPC   C1A60363  11.287  21.409   6.450
 8023POPC   D2A60364  11.317  21.395   6.750
 8023POPC   C3A60365  11.277  21.338   7.050
 8023POPC   C4A60366  11.314  21.392   7.350
 8023POPC   C1B60367  11.324  21.155   6.450
 8023POPC   C2B60368  11.305  21.157   6.750
 8023POPC   C3B60369  11.342  21.117   7.050
 8023POPC   C4B60370  11.381  21.103   7.350
 8024POPC   NC360371  37.650  37.636   5.550
 8024POPC   PO460372  37.665  37.697   5.850
 8024POPC   GL160373  37.652  37.648   6.150
 8024POPC   GL260374  37.757  37.583   6.150
 8024POPC   C1A60375  37.649  37.682   6.450
 8024POPC   D2A60376  37.655  37.717   6.750
 8024POPC   C3A60377  37.644  37.688   7.050
 8024POPC   C4A60378  37.642  37.663   7.350
 8024POPC   C1B60379  37.869  37.587   6.450
 8024POPC   C2B60380  37.867  37.599   6.750
 8024POPC   C3B60381  37.873  37.615   7.050
 8024POPC   C4B60382  37.904  37.557   7.350
 8025POPC   NC360383   7.458  19.823   5.550
 8025POPC   PO460384   7.465  19.872   5.850
 8025POPC   GL160385   7.454  19.867   6.150
 8025POPC   GL260386   7.302  19.837   6.150
 8025POPC   C1A60387   7.449  19.843   6.450
 8025POPC   D2A60388   7.376  19.843   6.750
 8025POPC   C3A60389   7.420  19.861   7.050
 8025POPC   C4A60390   7.391  19.869   7.350
 8025POPC   C1B60391   7.199  19.953   6.450
 8025POPC   C2B60392   7.153  19.896   6.750
 8025POPC   C3B60393   7.165  19.910   7.050
 8025POPC   C4B60394   7.217  19.939   7.350
 8026POPC   NC360395  14.371   1.206   5.550
 8026POPC   PO460396  14.379   1.183   5.850
 8026POPC   GL160397  14.412   1.171   6.150
 8026POPC   GL260398  14.274   1.251   6.150
 8026POPC   C1A60399  14.408   1.177   6.450
 8026POPC   D2A60400  14.447   1.247   6.750
 8026POPC   C3A60401  14.417   1.168   7.050
 8026POPC   C4A60402  14.392   1.239   7.350
 8026POPC   C1B60403  14.163   1.351   6.450
 8026POPC   C2B60404  14.168   1.304   6.750
 8026POPC   C3B60405  14.214   1.290   7.050
 8026POPC   C4B60406  14.191   1.330   7.350
 8027POPC   NC360407  16.762  13.627   5.550
 8027POPC   PO460408  16.713  13.648   5.850
 8027POPC   GL160409  16.706  13.650   6.150
 8027POPC   GL260410  16.721  13.773   6.150
 8027POPC   C1A60411  16.739  13.597   6.450
 8027POPC   D2A60412  16.768  13.606   6.750
 8027POPC   C3A60413  16.759  13.627   7.050
 8027POPC   C4A60414  16.696  13.619   7.350
 8027POPC   C1B60415  16.770  13.867   6.450
 8027POPC   C2B60416  16.736  13.828   6.750
 8027POPC   C3B60417  16.737  13.908   7.050
 8027POPC   C4B60418  16.802  13.856   7.350
 8028POPC   NC360419   4.320   6.689   5.550
 8028POPC   PO460420   4.364   6.681   5.850
 8028POPC   GL160421   4.338   6.691   6.150
 8028POPC   GL260422   4.363   6.796   6.150
 8028POPC   C1A60423   4.345   6.677   6.450
 8028POPC   D2A60424   4.322   6.676   6.750
 8028POPC   C3A60425   4.353   6.615   7.050
 8028POPC   C4A60426   4.311   6.650   7.350
 8028POPC   C1B60427   4.331   6.848   6.450
 8028POPC   C2B60428   4.390   6.854   6.750
 8028POPC   C3B60429   4.301   6.938   7.050
 8028POPC   C4B60430   4.343   6.874   7.350
 8029POPC   NC360431  22.129  12.821   5.550
 8029POPC   PO460432  22.203  12.842   5.850
 8029POPC   GL160433  22.131  12.830   6.150
 8029POPC   GL260434  22.293  12.898   6.150
 8029POPC   C1A60435  22.173  12.841   6.450
 8029POPC   D2A60436  22.206  12.882   6.750
 8029POPC   C3A60437  22.169  12.880   7.050
 8029POPC   C4A60438  22.116  12.855   7.350
 8029POPC   C1B60439  22.454  12.928   6.450
 8029POPC   C2B60440  22.388  12.940   6.750
 8029POPC   C3B60441  22.434  12.925   7.050
 8029POPC   C4B60442  22.432  12.912   7.350
 8030POPC   NC360443   5.132  39.273   5.550
 8030POPC   PO460444   5.139  39.184   5.850
 8030POPC   GL160445   5.118  39.181   6.150
 8030POPC   GL260446   5.030  39.131   6.150
 8030POPC   C1A60447   5.081  39.197   6.450
 8030POPC   D2A60448   5.085  39.212   6.750
 8030POPC   C3A60449   5.076  39.269   7.050
 8030POPC   C4A60450   5.143  39.192   7.350
 8030POPC   C1B60451   4.929  39.096   6.450
 8030POPC   C2B60452   4.860  39.047   6.750
 8030POPC   C3B60453   4.873  39.030   7.050
 8030POPC   C4B60454   4.916  39.091   7.350
 8031POPC   NC360455  36.866  15.184   5.550
 8031POPC   PO460456  36.914  15.135   5.850
 8031POPC   GL160457  36.879  15.170   6.150
 8031POPC   GL260458  36.749  15.205   6.150
 8031POPC   C1A60459  36.859  15.195   6.450
 8031POPC   D2A60460  36.897  15.139   6.750
 8031POPC   C3A60461  36.886  15.157   7.050
 8031POPC   C4A60462  36.946  15.155   7.350
 8031POPC   C1B60463  36.622  15.235   6.450
 8031POPC   C2B60464  36.660  15.211   6.750
 8031POPC   C3B60465  36.660  15.240   7.050
 8031POPC   C4B60466  36.612  15.214   7.350
 8032POPC   NC360467  15.978  31.426   5.550
 8032POPC   PO460468  15.985  31.425   5.850
 8032POPC   GL160469  15.962  31.436   6.150
 8032POPC   GL260470  15.987  31.634   6.150
 8032POPC   C1A60471  15.985  31.516   6.450
 8032POPC   D2A60472  15.941  31.494   6.750
 8032POPC   C3A60473  15.994  31.475   7.050
 8032POPC   C4A60474  15.960  31.493   7.350
 8032POPC   C1B60475  15.996  31.707   6.450
 8032POPC   C2B60476  15.978  31.744   6.750
 8032POPC   C3B60477  15.985  31.736   7.050
 8032POPC   C4B60478  15.985  31.723   7.350
 8033POPC   NC360479  19.836  41.570   5.550
 8033POPC   PO460480  19.843  41.540   5.850
 8033POPC   GL160481  19.809  41.520   6.150
 8033POPC   GL260482  19.973  41.561   6.150
 8033POPC   C1A60483  19.792  41.523   6.450
 8033POPC   D2A60484  19.867  41.559   6.750
 8033POPC   C3A60485  19.829  41.540   7.050
 8033POPC   C4A60486  19.795  41.534   7.350
 8033POPC   C1B60487  20.101  41.454   6.450
 8033POPC   C2B60488  20.096  41.492   6.750
 8033POPC   C3B60489  20.061  41.438   7.050
 8033POPC   C4B60490  20.059  41.455   7.350
 8034POPC   NC360491   5.820  39.280   5.550
 8034POPC   PO460492   5.868  39.239   5.850
 8034POPC   GL160493   5.918  39.255   6.150
 8034POPC   GL260494   5.975  39.178   6.150
 8034POPC   C1A60495   5.882  39.197   6.450
 8034POPC   D2A60496   5.821  39.265   6.750
 8034POPC   C3A60497   5.828  39.198   7.050
 8034POPC   C4A60498   5.917  39.212   7.350
 8034POPC   C1B60499   6.144  39.176   6.450
 8034POPC   C2B60500   6.086  39.165   6.750
 8034POPC   C3B60501   6.116  39.177   7.050
 8034POPC   C4B60502   6.127  39.154   7.350
 8035POPC   NC360503   0.471   9.724   5.550
 8035POPC   PO460504   0.412   9.782   5.850
 8035POPC   GL160505   0.456   9.720   6.150
 8035POPC   GL260506   0.529   9.811   6.150
 8035POPC   C1A60507   0.465   9.776   6.450
 8035POPC   D2A60508   0.393   9.714   6.750
 8035POPC   C3A60509   0.488   9.724   7.050
 8035POPC   C4A60510   0.403   9.748   7.350
 8035POPC   C1B60511   0.579   9.978   6.450
 8035POPC   C2B60512   0.610   9.930   6.750
 8035POPC   C3B60513   0.558   9.977   7.050
 8035POPC   C4B60514   0.600   9.912   7.350
 8036POPC   NC360515  21.353  22.942   5.550
 8036POPC   PO460516  21.336  22.986   5.850
 8036POPC   GL160517  21.377  22.967   6.150
 8036POPC   GL260518  21.508  23.014   6.150
 8036POPC   C1A60519  21.432  22.957   6.450
 8036POPC   D2A60520  21.374  22.954   6.750
 8036POPC   C3A60521  21.364  22.922   7.050
 8036POPC   C4A60522  21.392  22.974   7.350
 8036POPC   C1B60523  21.624  23.030   6.450
 8036POPC   C2B60524  21.594  23.044   6.750
 8036POPC   C3B60525  21.647  22.974   7.050
 8036POPC   C4B60526  21.585  23.025   7.350
 8037POPC   NC360527  20.623  43.147   5.550
 8037POPC   PO460528  20.626  43.155   5.850
 8037POPC   GL160529  20.606  43.111   6.150
 8037POPC   GL260530  20.600  43.205   6.150
 8037POPC   C1A60531  20.576  43.122   6.450
 8037POPC   D2A60532  20.590  43.082   6.750
 8037POPC   C3A60533  20.572  43.143   7.050
 8037POPC   C4A60534  20.603  43.094   7.350
 8037POPC   C1B60535  20.663  43.335   6.450
 8037POPC   C2B60536  20.658  43.359   6.750
 8037POPC   C3B60537  20.632  43.326   7.050
 8037POPC   C4B60538  20.644  43.350   7.350
 8038POPC   NC360539  43.852  36.085   5.550
 8038POPC   PO460540  43.844  36.129   5.850
 8038POPC   GL160541  43.836  36.148   6.150
 8038POPC   GL260542  43.888  36.017   6.150
 8038POPC   C1A60543  43.889  36.135   6.450
 8038POPC   D2A60544  43.907  36.151   6.750
 8038POPC   C3A60545  43.907  36.157   7.050
 8038POPC   C4A60546  43.930  36.137   7.350
 8038POPC   C1B60547  43.920  35.849   6.450
 8038POPC   C2B60548  43.996  35.876   6.750
 8038POPC   C3B60549  43.932  35.918   7.050
 8038POPC   C4B60550  43.993  35.901   7.350
 8039POPC   NC360551  15.203  27.635   5.550
 8039POPC   PO460552  15.193  27.596   5.850
 8039POPC   GL160553  15.185  27.611   6.150
 8039POPC   GL260554  15.090  27.597   6.150
 8039POPC   C1A60555  15.151  27.561   6.450
 8039POPC   D2A60556  15.158  27.629   6.750
 8039POPC   C3A60557  15.137  27.573   7.050
 8039POPC   C4A60558  15.220  27.603   7.350
 8039POPC   C1B60559  14.977  27.589   6.450
 8039POPC   C2B60560  14.896  27.619   6.750
 8039POPC   C3B60561  14.908  27.651   7.050
 8039POPC   C4B60562  14.907  27.656   7.350
 8040POPC   NC360563  36.143  30.705   5.550
 8040POPC   PO460564  36.093  30.729   5.850
 8040POPC   GL160565  36.172  30.724   6.150
 8040POPC   GL260566  36.193  30.603   6.150
 8040POPC   C1A60567  36.128  30.713   6.450
 8040POPC   D2A60568  36.132  30.681   6.750
 8040POPC   C3A60569  36.144  30.696   7.050
 8040POPC   C4A60570  36.152  30.694   7.350
 8040POPC   C1B60571  36.266  30.518   6.450
 8040POPC   C2B60572  36.298  30.519   6.750
 8040POPC   C3B60573  36.294  30.512   7.050
 8040POPC   C4B60574  36.247  30.513   7.350
 8041POPC   NC360575  17.510   8.147   5.550
 8041POPC   PO460576  17.497   8.179   5.850
 8041POPC   GL160577  17.478   8.180   6.150
 8041POPC   GL260578  17.413   8.174   6.150
 8041POPC   C1A60579  17.484   8.156   6.450
 8041POPC   D2A60580  17.549   8.241   6.750
 8041POPC   C3A60581  17.517   8.237   7.050
 8041POPC   C4A60582  17.514   8.192   7.350
 8041POPC   C1B60583  17.280   8.199   6.450
 8041POPC   C2B60584  17.251   8.195   6.750
 8041POPC   C3B60585  17.208   8.199   7.050
 8041POPC   C4B60586  17.242   8.163   7.350
 8042POPC   NC360587  18.240  14.415   5.550
 8042POPC   PO460588  18.319  14.399   5.850
 8042POPC   GL160589  18.275  14.451   6.150
 8042POPC   GL260590  18.233  14.264   6.150
 8042POPC   C1A60591  18.234  14.381   6.450
 8042POPC   D2A60592  18.284  14.413   6.750
 8042POPC   C3A60593  18.301  14.400   7.050
 8042POPC   C4A60594  18.268  14.403   7.350
 8042POPC   C1B60595  18.183  14.148   6.450
 8042POPC   C2B60596  18.203  14.158   6.750
 8042POPC   C3B60597  18.210  14.214   7.050
 8042POPC   C4B60598  18.164  14.183   7.350
 8043POPC   NC360599  26.088   3.588   5.550
 8043POPC   PO460600  26.031   3.566   5.850
 8043POPC   GL160601  26.068   3.571   6.150
 8043POPC   GL260602  25.929   3.473   6.150
 8043POPC   C1A60603  26.046   3.577   6.450
 8043POPC   D2A60604  26.060   3.511   6.750
 8043POPC   C3A60605  26.039   3.543   7.050
 8043POPC   C4A60606  26.037   3.582   7.350
 8043POPC   C1B60607  25.870   3.389   6.450
 8043POPC   C2B60608  25.804   3.430   6.750
 8043POPC   C3B60609  25.847   3.401   7.050
 8043POPC   C4B60610  25.855   3.443   7.350
 8044POPC   NC360611  21.421  15.958   5.550
 8044POPC   PO460612  21.431  15.947   5.850
 8044POPC   GL160613  21.396  16.000   6.150
 8044POPC   GL260614  21.344  15.861   6.150
 8044POPC   C1A60615  21.418  15.995   6.450
 8044POPC   D2A60616  21.420  15.930   6.750
 8044POPC   C3A60617  21.394  15.957   7.050
 8044POPC   C4A60618  21.350  15.921   7.350
 8044POPC   C1B60619  21.339  15.683   6.450
 8044POPC   C2B60620  21.325  15.676   6.750
 8044POPC   C3B60621  21.289  15.692   7.050
 8044POPC   C4B60622  21.342  15.677   7.350
 8045POPC   NC360623  20.604   7.455   5.550
 8045POPC   PO460624  20.603   7.429   5.850
 8045POPC   GL160625  20.586   7.453   6.150
 8045POPC   GL260626  20.640   7.498   6.150
 8045POPC   C1A60627  20.625   7.453   6.450
 8045POPC   D2A60628  20.617   7.414   6.750
 8045POPC   C3A60629  20.653   7.384   7.050
 8045POPC   C4A60630  20.620   7.443   7.350
 8045POPC   C1B60631  20.551   7.668   6.450
 8045POPC   C2B60632  20.559   7.698   6.750
 8045POPC   C3B60633  20.553   7.661   7.050
 8045POPC   C4B60634  20.573   7.631   7.350
 8046POPC   NC360635  19.030  40.007   5.550
 8046POPC   PO460636  19.026  40.007   5.850
 8046POPC   GL160637  19.025  40.007   6.150
 8046POPC   GL260638  19.003  40.155   6.150
 8046POPC   C1A60639  19.095  39.967   6.450
 8046POPC   D2A60640  19.062  40.016   6.750
 8046POPC   C3A60641  19.038  39.959   7.050
 8046POPC   C4A60642  19.069  40.023   7.350
 8046POPC   C1B60643  19.081  40.229   6.450
 8046POPC   C2B60644  19.048  40.279   6.750
 8046POPC   C3B60645  19.011  40.305   7.050
 8046POPC   C4B60646  19.053  40.224   7.350
 8047POPC   NC360647  22.902  39.966   5.550
 8047POPC   PO460648  22.970  40.011   5.850
 8047POPC   GL160649  22.969  39.966   6.150
 8047POPC   GL260650  22.981  40.133   6.150
 8047POPC   C1A60651  22.901  39.987   6.450
 8047POPC   D2A60652  22.901  39.992   6.750
 8047POPC   C3A60653  22.923  40.022   7.050
 8047POPC   C4A60654  22.930  40.037   7.350
 8047POPC   C1B60655  23.133  40.244   6.450
 8047POPC   C2B60656  23.074  40.186   6.750
 8047POPC   C3B60657  23.066  40.181   7.050
 8047POPC   C4B60658  23.099  40.240   7.350
 8048POPC   NC360659  23.702  40.013   5.550
 8048POPC   PO460660  23.724  40.012   5.850
 8048POPC   GL160661  23.758  39.996   6.150
 8048POPC   GL260662  23.797  40.044   6.150
 8048POPC   C1A60663  23.693  39.970   6.450
 8048POPC   D2A60664  23.710  39.987   6.750
 8048POPC   C3A60665  23.722  40.024   7.050
 8048POPC   C4A60666  23.757  39.984   7.350
 8048POPC   C1B60667  23.951  40.125   6.450
 8048POPC   C2B60668  23.967  40.093   6.750
 8048POPC   C3B60669  23.902  40.150   7.050
 8048POPC   C4B60670  23.907  40.142   7.350
 8049POPC   NC360671  42.378   4.271   5.550
 8049POPC   PO460672  42.348   4.356   5.850
 8049POPC   GL160673  42.292   4.332   6.150
 8049POPC   GL260674  42.431   4.279   6.150
 8049POPC   C1A60675  42.325   4.363   6.450
 8049POPC   D2A60676  42.382   4.338   6.750
 8049POPC   C3A60677  42.366   4.312   7.050
 8049POPC   C4A60678  42.373   4.276   7.350
 8049POPC   C1B60679  42.593   4.233   6.450
 8049POPC   C2B60680  42.573   4.301   6.750
 8049POPC   C3B60681  42.531   4.266   7.050
 8049POPC   C4B60682  42.546   4.300   7.350
 8050POPC   NC360683  18.290  23.761   5.550
 8050POPC   PO460684  18.306  23.726   5.850
 8050POPC   GL160685  18.294  23.742   6.150
 8050POPC   GL260686  18.223  23.835   6.150
 8050POPC   C1A60687  18.235  23.670   6.450
 8050POPC   D2A60688  18.275  23.753   6.750
 8050POPC   C3A60689  18.262  23.697   7.050
 8050POPC   C4A60690  18.283  23.738   7.350
 8050POPC   C1B60691  18.116  23.877   6.450
 8050POPC   C2B60692  18.139  23.953   6.750
 8050POPC   C3B60693  18.102  23.951   7.050
 8050POPC   C4B60694  18.144  23.944   7.350
 8051POPC   NC360695  38.408  31.455   5.550
 8051POPC   PO460696  38.408  31.445   5.850
 8051POPC   GL160697  38.496  31.428   6.150
 8051POPC   GL260698  38.305  31.448   6.150
 8051POPC   C1A60699  38.459  31.460   6.450
 8051POPC   D2A60700  38.446  31.507   6.750
 8051POPC   C3A60701  38.427  31.497   7.050
 8051POPC   C4A60702  38.467  31.470   7.350
 8051POPC   C1B60703  38.213  31.404   6.450
 8051POPC   C2B60704  38.199  31.340   6.750
 8051POPC   C3B60705  38.261  31.373   7.050
 8051POPC   C4B60706  38.239  31.334   7.350
 8052POPC   NC360707  16.700   5.075   5.550
 8052POPC   PO460708  16.749   5.104   5.850
 8052POPC   GL160709  16.725   5.107   6.150
 8052POPC   GL260710  16.765   4.937   6.150
 8052POPC   C1A60711  16.722   5.133   6.450
 8052POPC   D2A60712  16.758   5.071   6.750
 8052POPC   C3A60713  16.696   5.138   7.050
 8052POPC   C4A60714  16.716   5.095   7.350
 8052POPC   C1B60715  16.859   4.822   6.450
 8052POPC   C2B60716  16.861   4.859   6.750
 8052POPC   C3B60717  16.833   4.886   7.050
 8052POPC   C4B60718  16.816   4.828   7.350
 8053POPC   NC360719  25.302  30.672   5.550
 8053POPC   PO460720  25.242  30.679   5.850
 8053POPC   GL160721  25.291  30.693   6.150
 8053POPC   GL260722  25.371  30.677   6.150
 8053POPC   C1A60723  25.313  30.670   6.450
 8053POPC   D2A60724  25.240  30.699   6.750
 8053POPC   C3A60725  25.263  30.714   7.050
 8053POPC   C4A60726  25.313  30.727   7.350
 8053POPC   C1B60727  25.519  30.603   6.450
 8053POPC   C2B60728  25.531  30.650   6.750
 8053POPC   C3B60729  25.492  30.628   7.050
 8053POPC   C4B60730  25.480  30.698   7.350
 8054POPC   NC360731   7.390  42.295   5.550
 8054POPC   PO460732   7.387  42.294   5.850
 8054POPC   GL160733   7.397  42.362   6.150
 8054POPC   GL260734   7.467  42.240   6.150
 8054POPC   C1A60735   7.398  42.378   6.450
 8054POPC   D2A60736   7.398  42.308   6.750
 8054POPC   C3A60737   7.449  42.303   7.050
 8054POPC   C4A60738   7.406  42.308   7.350
 8054POPC   C1B60739   7.491  42.114   6.450
 8054POPC   C2B60740   7.560  42.110   6.750
 8054POPC   C3B60741   7.541  42.143   7.050
 8054POPC   C4B60742   7.571  42.089   7.350
 8055POPC   NC360743  32.288  33.031   5.550
 8055POPC   PO460744  32.295  33.058   5.850
 8055POPC   GL160745  32.289  33.007   6.150
 8055POPC   GL260746  32.392  33.035   6.150
 8055POPC   C1A60747  32.274  32.980   6.450
 8055POPC   D2A60748  32.229  33.027   6.750
 8055POPC   C3A60749  32.214  32.984   7.050
 8055POPC   C4A60750  32.202  33.057   7.350
 8055POPC   C1B60751  32.482  32.954   6.450
 8055POPC   C2B60752  32.474  33.012   6.750
 8055POPC   C3B60753  32.522  32.975   7.050
 8055POPC   C4B60754  32.529  32.999   7.350
 8056POPC   NC360755  22.144  26.824   5.550
 8056POPC   PO460756  22.179  26.850   5.850
 8056POPC   GL160757  22.203  26.819   6.150
 8056POPC   GL260758  22.090  26.906   6.150
 8056POPC   C1A60759  22.162  26.830   6.450
 8056POPC   D2A60760  22.167  26.827   6.750
 8056POPC   C3A60761  22.209  26.782   7.050
 8056POPC   C4A60762  22.154  26.817   7.350
 8056POPC   C1B60763  21.898  26.853   6.450
 8056POPC   C2B60764  21.904  26.877   6.750
 8056POPC   C3B60765  21.915  26.904   7.050
 8056POPC   C4B60766  21.897  26.860   7.350
 8057POPC   NC360767  19.792  24.537   5.550
 8057POPC   PO460768  19.837  24.445   5.850
 8057POPC   GL160769  19.786  24.509   6.150
 8057POPC   GL260770  19.701  24.523   6.150
 8057POPC   C1A60771  19.827  24.540   6.450
 8057POPC   D2A60772  19.857  24.527   6.750
 8057POPC   C3A60773  19.798  24.458   7.050
 8057POPC   C4A60774  19.787  24.519   7.350
 8057POPC   C1B60775  19.564  24.567   6.450
 8057POPC   C2B60776  19.579  24.568   6.750
 8057POPC   C3B60777  19.631  24.597   7.050
 8057POPC   C4B60778  19.577  24.585   7.350
 8058POPC   NC360779  10.574   2.801   5.550
 8058POPC   PO460780  10.524   2.805   5.850
 8058POPC   GL160781  10.573   2.742   6.150
 8058POPC   GL260782  10.653   2.873   6.150
 8058POPC   C1A60783  10.561   2.788   6.450
 8058POPC   D2A60784  10.537   2.811   6.750
 8058POPC   C3A60785  10.520   2.721   7.050
 8058POPC   C4A60786  10.474   2.798   7.350
 8058POPC   C1B60787  10.699   2.908   6.450
 8058POPC   C2B60788  10.664   2.959   6.750
 8058POPC   C3B60789  10.707   2.905   7.050
 8058POPC   C4B60790  10.690   2.950   7.350
 8059POPC   NC360791  13.604  24.452   5.550
 8059POPC   PO460792  13.620  24.489   5.850
 8059POPC   GL160793  13.579  24.530   6.150
 8059POPC   GL260794  13.645  24.355   6.150
 8059POPC   C1A60795  13.648  24.535   6.450
 8059POPC   D2A60796  13.649  24.498   6.750
 8059POPC   C3A60797  13.580  24.448   7.050
 8059POPC   C4A60798  13.666  24.539   7.350
 8059POPC   C1B60799  13.593  24.202   6.450
 8059POPC   C2B60800  13.630  24.260   6.750
 8059POPC   C3B60801  13.573  24.284   7.050
 8059POPC   C4B60802  13.546  24.218   7.350
 8060POPC   NC360803  37.657   4.346   5.550
 8060POPC   PO460804  37.690   4.289   5.850
 8060POPC   GL160805  37.718   4.270   6.150
 8060POPC   GL260806  37.765   4.396   6.150
 8060POPC   C1A60807  37.647   4.356   6.450
 8060POPC   D2A60808  37.657   4.290   6.750
 8060POPC   C3A60809  37.680   4.350   7.050
 8060POPC   C4A60810  37.659   4.302   7.350
 8060POPC   C1B60811  37.919   4.383   6.450
 8060POPC   C2B60812  37.898   4.422   6.750
 8060POPC   C3B60813  37.949   4.456   7.050
 8060POPC   C4B60814  37.877   4.413   7.350
 8061POPC   NC360815   8.950   1.169   5.550
 8061POPC   PO460816   8.937   1.210   5.850
 8061POPC   GL160817   8.963   1.168   6.150
 8061POPC   GL260818   8.847   1.231   6.150
 8061POPC   C1A60819   9.022   1.226   6.450
 8061POPC   D2A60820   8.998   1.241   6.750
 8061POPC   C3A60821   8.943   1.209   7.050
 8061POPC   C4A60822   8.929   1.232   7.350
 8061POPC   C1B60823   8.722   1.179   6.450
 8061POPC   C2B60824   8.771   1.166   6.750
 8061POPC   C3B60825   8.751   1.164   7.050
 8061POPC   C4B60826   8.697   1.225   7.350
 8062POPC   NC360827  43.122  42.361   5.550
 8062POPC   PO460828  43.076  42.329   5.850
 8062POPC   GL160829  43.146  42.309   6.150
 8062POPC   GL260830  42.972  42.413   6.150
 8062POPC   C1A60831  43.129  42.328   6.450
 8062POPC   D2A60832  43.084  42.347   6.750
 8062POPC   C3A60833  43.068  42.306   7.050
 8062POPC   C4A60834  43.146  42.347   7.350
 8062POPC   C1B60835  42.851  42.420   6.450
 8062POPC   C2B60836  42.902  42.369   6.750
 8062POPC   C3B60837  42.840  42.352   7.050
 8062POPC   C4B60838  42.834  42.402   7.350
 8063POPC   NC360839  22.143   2.023   5.550
 8063POPC   PO460840  22.182   1.977   5.850
 8063POPC   GL160841  22.189   1.954   6.150
 8063POPC   GL260842  22.273   1.942   6.150
 8063POPC   C1A60843  22.186   1.991   6.450
 8063POPC   D2A60844  22.156   2.021   6.750
 8063POPC   C3A60845  22.159   1.997   7.050
 8063POPC   C4A60846  22.143   1.958   7.350
 8063POPC   C1B60847  22.395   1.912   6.450
 8063POPC   C2B60848  22.415   1.951   6.750
 8063POPC   C3B60849  22.389   1.885   7.050
 8063POPC   C4B60850  22.395   1.936   7.350
 8064POPC   NC360851  33.065  12.122   5.550
 8064POPC   PO460852  33.027  12.092   5.850
 8064POPC   GL160853  33.006  12.061   6.150
 8064POPC   GL260854  32.989  11.950   6.150
 8064POPC   C1A60855  33.074  12.027   6.450
 8064POPC   D2A60856  32.975  12.084   6.750
 8064POPC   C3A60857  32.998  12.094   7.050
 8064POPC   C4A60858  33.065  12.095   7.350
 8064POPC   C1B60859  32.934  11.861   6.450
 8064POPC   C2B60860  32.949  11.876   6.750
 8064POPC   C3B60861  32.909  11.805   7.050
 8064POPC   C4B60862  32.951  11.828   7.350
 8065POPC   NC360863  33.838  43.086   5.550
 8065POPC   PO460864  33.836  43.121   5.850
 8065POPC   GL160865  33.813  43.092   6.150
 8065POPC   GL260866  33.947  43.110   6.150
 8065POPC   C1A60867  33.760  43.096   6.450
 8065POPC   D2A60868  33.787  43.090   6.750
 8065POPC   C3A60869  33.837  43.078   7.050
 8065POPC   C4A60870  33.817  43.101   7.350
 8065POPC   C1B60871  34.006  43.162   6.450
 8065POPC   C2B60872  34.037  43.226   6.750
 8065POPC   C3B60873  34.024  43.178   7.050
 8065POPC   C4B60874  34.043  43.164   7.350
 8066POPC   NC360875  15.189   4.310   5.550
 8066POPC   PO460876  15.141   4.352   5.850
 8066POPC   GL160877  15.210   4.300   6.150
 8066POPC   GL260878  15.087   4.437   6.150
 8066POPC   C1A60879  15.152   4.338   6.450
 8066POPC   D2A60880  15.136   4.305   6.750
 8066POPC   C3A60881  15.136   4.363   7.050
 8066POPC   C4A60882  15.187   4.350   7.350
 8066POPC   C1B60883  14.961   4.497   6.450
 8066POPC   C2B60884  14.951   4.476   6.750
 8066POPC   C3B60885  15.038   4.436   7.050
 8066POPC   C4B60886  14.962   4.463   7.350
 8067POPC   NC360887  39.280  41.526   5.550
 8067POPC   PO460888  39.232  41.574   5.850
 8067POPC   GL160889  39.220  41.537   6.150
 8067POPC   GL260890  39.360  41.455   6.150
 8067POPC   C1A60891  39.206  41.599   6.450
 8067POPC   D2A60892  39.248  41.577   6.750
 8067POPC   C3A60893  39.214  41.543   7.050
 8067POPC   C4A60894  39.245  41.575   7.350
 8067POPC   C1B60895  39.431  41.342   6.450
 8067POPC   C2B60896  39.426  41.424   6.750
 8067POPC   C3B60897  39.426  41.409   7.050
 8067POPC   C4B60898  39.437  41.387   7.350
 8068POPC   NC360899  21.432  32.297   5.550
 8068POPC   PO460900  21.393  32.275   5.850
 8068POPC   GL160901  21.381  32.260   6.150
 8068POPC   GL260902  21.446  32.360   6.150
 8068POPC   C1A60903  21.343  32.200   6.450
 8068POPC   D2A60904  21.380  32.250   6.750
 8068POPC   C3A60905  21.421  32.219   7.050
 8068POPC   C4A60906  21.431  32.282   7.350
 8068POPC   C1B60907  21.556  32.511   6.450
 8068POPC   C2B60908  21.533  32.444   6.750
 8068POPC   C3B60909  21.532  32.496   7.050
 8068POPC   C4B60910  21.496  32.462   7.350
 8069POPC   NC360911   6.609  32.288   5.550
 8069POPC   PO460912   6.654  32.213   5.850
 8069POPC   GL160913   6.596  32.274   6.150
 8069POPC   GL260914   6.660  32.419   6.150
 8069POPC   C1A60915   6.673  32.268   6.450
 8069POPC   D2A60916   6.619  32.199   6.750
 8069POPC   C3A60917   6.659  32.249   7.050
 8069POPC   C4A60918   6.644  32.271   7.350
 8069POPC   C1B60919   6.627  32.454   6.450
 8069POPC   C2B60920   6.560  32.470   6.750
 8069POPC   C3B60921   6.636  32.482   7.050
 8069POPC   C4B60922   6.562  32.527   7.350
 8070POPC   NC360923  40.047   2.011   5.550
 8070POPC   PO460924  40.030   2.016   5.850
 8070POPC   GL160925  39.978   1.993   6.150
 8070POPC   GL260926  39.899   1.946   6.150
 8070POPC   C1A60927  39.962   1.962   6.450
 8070POPC   D2A60928  39.960   1.945   6.750
 8070POPC   C3A60929  40.017   1.980   7.050
 8070POPC   C4A60930  40.036   2.009   7.350
 8070POPC   C1B60931  39.778   1.916   6.450
 8070POPC   C2B60932  39.778   1.907   6.750
 8070POPC   C3B60933  39.755   1.824   7.050
 8070POPC   C4B60934  39.825   1.823   7.350
 8071POPC   NC360935  18.263  35.326   5.550
 8071POPC   PO460936  18.278  35.331   5.850
 8071POPC   GL160937  18.293  35.335   6.150
 8071POPC   GL260938  18.144  35.304   6.150
 8071POPC   C1A60939  18.256  35.304   6.450
 8071POPC   D2A60940  18.332  35.309   6.750
 8071POPC   C3A60941  18.268  35.333   7.050
 8071POPC   C4A60942  18.261  35.376   7.350
 8071POPC   C1B60943  18.036  35.237   6.450
 8071POPC   C2B60944  18.091  35.169   6.750
 8071POPC   C3B60945  18.049  35.161   7.050
 8071POPC   C4B60946  18.083  35.160   7.350
 8072POPC   NC360947  26.014  38.438   5.550
 8072POPC   PO460948  26.069  38.430   5.850
 8072POPC   GL160949  26.061  38.406   6.150
 8072POPC   GL260950  26.007  38.349   6.150
 8072POPC   C1A60951  26.075  38.430   6.450
 8072POPC   D2A60952  26.061  38.491   6.750
 8072POPC   C3A60953  26.063  38.484   7.050
 8072POPC   C4A60954  26.054  38.457   7.350
 8072POPC   C1B60955  26.041  38.236   6.450
 8072POPC   C2B60956  26.072  38.227   6.750
 8072POPC   C3B60957  26.046  38.221   7.050
 8072POPC   C4B60958  26.027  38.236   7.350
 8073POPC   NC360959   2.785  32.273   5.550
 8073POPC   PO460960   2.718  32.248   5.850
 8073POPC   GL160961   2.777  32.274   6.150
 8073POPC   GL260962   2.859  32.357   6.150
 8073POPC   C1A60963   2.751  32.264   6.450
 8073POPC   D2A60964   2.739  32.200   6.750
 8073POPC   C3A60965   2.804  32.296   7.050
 8073POPC   C4A60966   2.746  32.225   7.350
 8073POPC   C1B60967   2.930  32.449   6.450
 8073POPC   C2B60968   2.942  32.398   6.750
 8073POPC   C3B60969   2.906  32.481   7.050
 8073POPC   C4B60970   2.900  32.482   7.350
 8074POPC   NC360971   6.652  36.105   5.550
 8074POPC   PO460972   6.653  36.147   5.850
 8074POPC   GL160973   6.612  36.130   6.150
 8074POPC   GL260974   6.523  35.991   6.150
 8074POPC   C1A60975   6.669  36.089   6.450
 8074POPC   D2A60976   6.640  36.141   6.750
 8074POPC   C3A60977   6.665  36.083   7.050
 8074POPC   C4A60978   6.625  36.135   7.350
 8074POPC   C1B60979   6.455  35.921   6.450
 8074POPC   C2B60980   6.463  35.907   6.750
 8074POPC   C3B60981   6.481  36.004   7.050
 8074POPC   C4B60982   6.433  35.971   7.350
 8075POPC   NC360983  17.526  18.238   5.550
 8075POPC   PO460984  17.551  18.234   5.850
 8075POPC   GL160985  17.488  18.326   6.150
 8075POPC   GL260986  17.523  18.415   6.150
 8075POPC   C1A60987  17.529  18.298   6.450
 8075POPC   D2A60988  17.520  18.249   6.750
 8075POPC   C3A60989  17.524  18.279   7.050
 8075POPC   C4A60990  17.556  18.253   7.350
 8075POPC   C1B60991  17.589  18.528   6.450
 8075POPC   C2B60992  17.667  18.543   6.750
 8075POPC   C3B60993  17.578  18.480   7.050
 8075POPC   C4B60994  17.603  18.513   7.350
 8076POPC   NC360995  44.661  38.437   5.550
 8076POPC   PO460996  44.641  38.422   5.850
 8076POPC   GL160997  44.700  38.446   6.150
 8076POPC   GL260998  44.818  38.466   6.150
 8076POPC   C1A60999  44.618  38.416   6.450
 8076POPC   D2A61000  44.640  38.500   6.750
 8076POPC   C3A61001  44.637  38.472   7.050
 8076POPC   C4A61002  44.675  38.444   7.350
 8076POPC   C1B61003  44.927  38.456   6.450
 8076POPC   C2B61004  44.875  38.382   6.750
 8076POPC   C3B61005  44.924  38.377   7.050
 8076POPC   C4B61006  44.946  38.449   7.350
 8077POPC   NC361007  25.261   8.947   5.550
 8077POPC   PO461008  25.270   8.927   5.850
 8077POPC   GL161009  25.315   8.926   6.150
 8077POPC   GL261010  25.337   9.056   6.150
 8077POPC   C1A61011  25.279   8.959   6.450
 8077POPC   D2A61012  25.288   8.995   6.750
 8077POPC   C3A61013  25.314   8.944   7.050
 8077POPC   C4A61014  25.297   8.975   7.350
 8077POPC   C1B61015  25.485   9.035   6.450
 8077POPC   C2B61016  25.498   9.038   6.750
 8077POPC   C3B61017  25.455   9.076   7.050
 8077POPC   C4B61018  25.546   9.085   7.350
 8078POPC   NC361019  40.043  19.831   5.550
 8078POPC   PO461020  40.014  19.866   5.850
 8078POPC   GL161021  40.051  19.834   6.150
 8078POPC   GL261022  40.089  19.891   6.150
 8078POPC   C1A61023  40.013  19.838   6.450
 8078POPC   D2A61024  40.045  19.839   6.750
 8078POPC   C3A61025  40.049  19.853   7.050
 8078POPC   C4A61026  40.004  19.799   7.350
 8078POPC   C1B61027  40.212  19.949   6.450
 8078POPC   C2B61028  40.255  19.983   6.750
 8078POPC   C3B61029  40.250  20.001   7.050
 8078POPC   C4B61030  40.219  20.012   7.350
 8079POPC   NC361031  15.951  22.119   5.550
 8079POPC   PO461032  15.942  22.113   5.850
 8079POPC   GL161033  15.990  22.150   6.150
 8079POPC   GL261034  16.107  22.243   6.150
 8079POPC   C1A61035  15.930  22.175   6.450
 8079POPC   D2A61036  15.985  22.154   6.750
 8079POPC   C3A61037  15.997  22.139   7.050
 8079POPC   C4A61038  15.917  22.141   7.350
 8079POPC   C1B61039  16.183  22.282   6.450
 8079POPC   C2B61040  16.160  22.280   6.750
 8079POPC   C3B61041  16.167  22.311   7.050
 8079POPC   C4B61042  16.142  22.315   7.350
 8080POPC   NC361043  36.147   7.446   5.550
 8080POPC   PO461044  36.120   7.424   5.850
 8080POPC   GL161045  36.090   7.470   6.150
 8080POPC   GL261046  36.086   7.553   6.150
 8080POPC   C1A61047  36.084   7.456   6.450
 8080POPC   D2A61048  36.166   7.442   6.750
 8080POPC   C3A61049  36.172   7.470   7.050
 8080POPC   C4A61050  36.146   7.423   7.350
 8080POPC   C1B61051  35.967   7.557   6.450
 8080POPC   C2B61052  35.901   7.546   6.750
 8080POPC   C3B61053  35.973   7.635   7.050
 8080POPC   C4B61054  35.965   7.559   7.350
 8081POPC   NC361055  39.961  32.266   5.550
 8081POPC   PO461056  39.996  32.287   5.850
 8081POPC   GL161057  39.969  32.231   6.150
 8081POPC   GL261058  39.994  32.169   6.150
 8081POPC   C1A61059  39.961  32.296   6.450
 8081POPC   D2A61060  39.973  32.243   6.750
 8081POPC   C3A61061  40.052  32.220   7.050
 8081POPC   C4A61062  40.019  32.271   7.350
 8081POPC   C1B61063  39.884  32.066   6.450
 8081POPC   C2B61064  39.885  32.030   6.750
 8081POPC   C3B61065  39.924  32.059   7.050
 8081POPC   C4B61066  39.915  32.038   7.350
 8082POPC   NC361067  40.767  40.811   5.550
 8082POPC   PO461068  40.776  40.821   5.850
 8082POPC   GL161069  40.768  40.753   6.150
 8082POPC   GL261070  40.716  40.623   6.150
 8082POPC   C1A61071  40.798  40.796   6.450
 8082POPC   D2A61072  40.782  40.767   6.750
 8082POPC   C3A61073  40.809  40.808   7.050
 8082POPC   C4A61074  40.803  40.809   7.350
 8082POPC   C1B61075  40.640  40.514   6.450
 8082POPC   C2B61076  40.715  40.533   6.750
 8082POPC   C3B61077  40.643  40.568   7.050
 8082POPC   C4B61078  40.687  40.531   7.350
 8083POPC   NC361079  33.826  42.347   5.550
 8083POPC   PO461080  33.819  42.359   5.850
 8083POPC   GL161081  33.773  42.310   6.150
 8083POPC   GL261082  33.779  42.231   6.150
 8083POPC   C1A61083  33.821  42.300   6.450
 8083POPC   D2A61084  33.765  42.327   6.750
 8083POPC   C3A61085  33.791  42.289   7.050
 8083POPC   C4A61086  33.806  42.339   7.350
 8083POPC   C1B61087  33.842  42.073   6.450
 8083POPC   C2B61088  33.872  42.051   6.750
 8083POPC   C3B61089  33.841  42.106   7.050
 8083POPC   C4B61090  33.814  42.047   7.350
 8084POPC   NC361091  14.395  43.139   5.550
 8084POPC   PO461092  14.369  43.129   5.850
 8084POPC   GL161093  14.384  43.135   6.150
 8084POPC   GL261094  14.315  43.208   6.150
 8084POPC   C1A61095  14.432  43.090   6.450
 8084POPC   D2A61096  14.384  43.142   6.750
 8084POPC   C3A61097  14.404  43.081   7.050
 8084POPC   C4A61098  14.411  43.106   7.350
 8084POPC   C1B61099  14.204  43.231   6.450
 8084POPC   C2B61100  14.135  43.212   6.750
 8084POPC   C3B61101  14.208  43.211   7.050
 8084POPC   C4B61102  14.154  43.204   7.350
 8085POPC   NC361103   5.850  33.008   5.550
 8085POPC   PO461104   5.830  33.059   5.850
 8085POPC   GL161105   5.820  32.991   6.150
 8085POPC   GL261106   5.965  33.099   6.150
 8085POPC   C1A61107   5.917  32.993   6.450
 8085POPC   D2A61108   5.846  32.983   6.750
 8085POPC   C3A61109   5.844  33.065   7.050
 8085POPC   C4A61110   5.822  32.983   7.350
 8085POPC   C1B61111   6.044  33.168   6.450
 8085POPC   C2B61112   6.117  33.134   6.750
 8085POPC   C3B61113   6.063  33.116   7.050
 8085POPC   C4B61114   6.054  33.183   7.350
 8086POPC   NC361115  26.819  15.936   5.550
 8086POPC   PO461116  26.816  16.002   5.850
 8086POPC   GL161117  26.858  16.000   6.150
 8086POPC   GL261118  26.859  15.875   6.150
 8086POPC   C1A61119  26.807  15.935   6.450
 8086POPC   D2A61120  26.846  15.946   6.750
 8086POPC   C3A61121  26.839  15.974   7.050
 8086POPC   C4A61122  26.779  15.954   7.350
 8086POPC   C1B61123  26.899  15.771   6.450
 8086POPC   C2B61124  26.920  15.716   6.750
 8086POPC   C3B61125  26.929  15.772   7.050
 8086POPC   C4B61126  26.934  15.766   7.350
 8087POPC   NC361127  24.480  32.215   5.550
 8087POPC   PO461128  24.509  32.206   5.850
 8087POPC   GL161129  24.513  32.292   6.150
 8087POPC   GL261130  24.370  32.224   6.150
 8087POPC   C1A61131  24.536  32.255   6.450
 8087POPC   D2A61132  24.449  32.285   6.750
 8087POPC   C3A61133  24.447  32.275   7.050
 8087POPC   C4A61134  24.478  32.239   7.350
 8087POPC   C1B61135  24.240  32.176   6.450
 8087POPC   C2B61136  24.195  32.190   6.750
 8087POPC   C3B61137  24.203  32.246   7.050
 8087POPC   C4B61138  24.202  32.191   7.350
 8088POPC   NC361139   5.069  16.720   5.550
 8088POPC   PO461140   5.056  16.765   5.850
 8088POPC   GL161141   5.108  16.718   6.150
 8088POPC   GL261142   4.936  16.743   6.150
 8088POPC   C1A61143   5.054  16.752   6.450
 8088POPC   D2A61144   5.126  16.717   6.750
 8088POPC   C3A61145   5.107  16.774   7.050
 8088POPC   C4A61146   5.086  16.775   7.350
 8088POPC   C1B61147   4.876  16.780   6.450
 8088POPC   C2B61148   4.826  16.749   6.750
 8088POPC   C3B61149   4.879  16.765   7.050
 8088POPC   C4B61150   4.818  16.832   7.350
 8089POPC   NC361151  13.626   8.226   5.550
 8089POPC   PO461152  13.633   8.203   5.850
 8089POPC   GL161153  13.581   8.233   6.150
 8089POPC   GL261154  13.786   8.255   6.150
 8089POPC   C1A61155  13.672   8.161   6.450
 8089POPC   D2A61156  13.665   8.241   6.750
 8089POPC   C3A61157  13.581   8.231   7.050
 8089POPC   C4A61158  13.588   8.195   7.350
 8089POPC   C1B61159  13.830   8.286   6.450
 8089POPC   C2B61160  13.864   8.267   6.750
 8089POPC   C3B61161  13.816   8.311   7.050
 8089POPC   C4B61162  13.881   8.305   7.350
 8090POPC   NC361163  26.862   8.228   5.550
 8090POPC   PO461164  26.829   8.234   5.850
 8090POPC   GL161165  26.836   8.188   6.150
 8090POPC   GL261166  26.681   8.199   6.150
 8090POPC   C1A61167  26.843   8.176   6.450
 8090POPC   D2A61168  26.787   8.151   6.750
 8090POPC   C3A61169  26.806   8.149   7.050
 8090POPC   C4A61170  26.866   8.168   7.350
 8090POPC   C1B61171  26.572   8.181   6.450
 8090POPC   C2B61172  26.584   8.180   6.750
 8090POPC   C3B61173  26.608   8.182   7.050
 8090POPC   C4B61174  26.611   8.170   7.350
 8091POPC   NC361175  12.093  19.043   5.550
 8091POPC   PO461176  12.027  19.087   5.850
 8091POPC   GL161177  12.117  19.106   6.150
 8091POPC   GL261178  12.168  19.211   6.150
 8091POPC   C1A61179  12.088  19.101   6.450
 8091POPC   D2A61180  12.035  19.028   6.750
 8091POPC   C3A61181  12.068  19.101   7.050
 8091POPC   C4A61182  12.029  19.094   7.350
 8091POPC   C1B61183  12.153  19.281   6.450
 8091POPC   C2B61184  12.155  19.241   6.750
 8091POPC   C3B61185  12.148  19.315   7.050
 8091POPC   C4B61186  12.135  19.332   7.350
 8092POPC   NC361187  22.985  44.709   5.550
 8092POPC   PO461188  22.916  44.670   5.850
 8092POPC   GL161189  22.940  44.701   6.150
 8092POPC   GL261190  22.979  44.736   6.150
 8092POPC   C1A61191  22.965  44.665   6.450
 8092POPC   D2A61192  22.963  44.705   6.750
 8092POPC   C3A61193  22.894  44.668   7.050
 8092POPC   C4A61194  22.937  44.695   7.350
 8092POPC   C1B61195  23.092  44.893   6.450
 8092POPC   C2B61196  23.034  44.898   6.750
 8092POPC   C3B61197  23.051  44.927   7.050
 8092POPC   C4B61198  23.089  44.935   7.350
 8093POPC   NC361199   3.560  18.332   5.550
 8093POPC   PO461200   3.515  18.285   5.850
 8093POPC   GL161201   3.551  18.330   6.150
 8093POPC   GL261202   3.520  18.358   6.150
 8093POPC   C1A61203   3.544  18.277   6.450
 8093POPC   D2A61204   3.534  18.271   6.750
 8093POPC   C3A61205   3.590  18.302   7.050
 8093POPC   C4A61206   3.578  18.283   7.350
 8093POPC   C1B61207   3.476  18.512   6.450
 8093POPC   C2B61208   3.461  18.525   6.750
 8093POPC   C3B61209   3.493  18.560   7.050
 8093POPC   C4B61210   3.407  18.532   7.350
 8094POPC   NC361211  15.155  15.977   5.550
 8094POPC   PO461212  15.219  15.914   5.850
 8094POPC   GL161213  15.198  15.980   6.150
 8094POPC   GL261214  15.170  15.859   6.150
 8094POPC   C1A61215  15.170  15.934   6.450
 8094POPC   D2A61216  15.191  15.982   6.750
 8094POPC   C3A61217  15.200  15.937   7.050
 8094POPC   C4A61218  15.181  15.936   7.350
 8094POPC   C1B61219  15.124  15.733   6.450
 8094POPC   C2B61220  15.071  15.684   6.750
 8094POPC   C3B61221  15.083  15.710   7.050
 8094POPC   C4B61222  15.120  15.736   7.350
 8095POPC   NC361223  12.109  40.763   5.550
 8095POPC   PO461224  12.075  40.779   5.850
 8095POPC   GL161225  12.096  40.778   6.150
 8095POPC   GL261226  12.025  40.680   6.150
 8095POPC   C1A61227  12.036  40.812   6.450
 8095POPC   D2A61228  12.103  40.734   6.750
 8095POPC   C3A61229  12.041  40.815   7.050
 8095POPC   C4A61230  12.096  40.744   7.350
 8095POPC   C1B61231  11.989  40.572   6.450
 8095POPC   C2B61232  11.983  40.567   6.750
 8095POPC   C3B61233  12.017  40.546   7.050
 8095POPC   C4B61234  12.031  40.590   7.350
 8096POPC   NC361235  44.658  11.267   5.550
 8096POPC   PO461236  44.633  11.277   5.850
 8096POPC   GL161237  44.672  11.307   6.150
 8096POPC   GL261238  44.549  11.358   6.150
 8096POPC   C1A61239  44.688  11.253   6.450
 8096POPC   D2A61240  44.642  11.335   6.750
 8096POPC   C3A61241  44.624  11.271   7.050
 8096POPC   C4A61242  44.662  11.282   7.350
 8096POPC   C1B61243  44.458  11.414   6.450
 8096POPC   C2B61244  44.418  11.362   6.750
 8096POPC   C3B61245  44.444  11.355   7.050
 8096POPC   C4B61246  44.424  11.365   7.350
 8097POPC   NC361247  39.255  15.143   5.550
 8097POPC   PO461248  39.250  15.140   5.850
 8097POPC   GL161249  39.243  15.131   6.150
 8097POPC   GL261250  39.354  15.256   6.150
 8097POPC   C1A61251  39.238  15.220   6.450
 8097POPC   D2A61252  39.221  15.147   6.750
 8097POPC   C3A61253  39.219  15.189   7.050
 8097POPC   C4A61254  39.266  15.184   7.350
 8097POPC   C1B61255  39.507  15.205   6.450
 8097POPC   C2B61256  39.500  15.203   6.750
 8097POPC   C3B61257  39.503  15.275   7.050
 8097POPC   C4B61258  39.432  15.211   7.350
 8098POPC   NC361259  34.573  44.621   5.550
 8098POPC   PO461260  34.561  44.641   5.850
 8098POPC   GL161261  34.574  44.631   6.150
 8098POPC   GL261262  34.697  44.594   6.150
 8098POPC   C1A61263  34.598  44.674   6.450
 8098POPC   D2A61264  34.542  44.694   6.750
 8098POPC   C3A61265  34.529  44.710   7.050
 8098POPC   C4A61266  34.557  44.628   7.350
 8098POPC   C1B61267  34.809  44.643   6.450
 8098POPC   C2B61268  34.844  44.641   6.750
 8098POPC   C3B61269  34.799  44.622   7.050
 8098POPC   C4B61270  34.778  44.636   7.350
 8099POPC   NC361271  17.540  13.645   5.550
 8099POPC   PO461272  17.508  13.612   5.850
 8099POPC   GL161273  17.503  13.587   6.150
 8099POPC   GL261274  17.525  13.488   6.150
 8099POPC   C1A61275  17.514  13.590   6.450
 8099POPC   D2A61276  17.461  13.667   6.750
 8099POPC   C3A61277  17.519  13.644   7.050
 8099POPC   C4A61278  17.535  13.620   7.350
 8099POPC   C1B61279  17.596  13.347   6.450
 8099POPC   C2B61280  17.620  13.440   6.750
 8099POPC   C3B61281  17.579  13.408   7.050
 8099POPC   C4B61282  17.637  13.438   7.350
 8100POPC   NC361283  21.422  24.447   5.550
 8100POPC   PO461284  21.379  24.519   5.850
 8100POPC   GL161285  21.400  24.472   6.150
 8100POPC   GL261286  21.502  24.523   6.150
 8100POPC   C1A61287  21.436  24.526   6.450
 8100POPC   D2A61288  21.405  24.497   6.750
 8100POPC   C3A61289  21.414  24.465   7.050
 8100POPC   C4A61290  21.357  24.465   7.350
 8100POPC   C1B61291  21.656  24.487   6.450
 8100POPC   C2B61292  21.661  24.513   6.750
 8100POPC   C3B61293  21.588  24.495   7.050
 8100POPC   C4B61294  21.625  24.450   7.350
 8101POPC   NC361295   9.733   9.020   5.550
 8101POPC   PO461296   9.734   8.968   5.850
 8101POPC   GL161297   9.731   8.984   6.150
 8101POPC   GL261298   9.789   9.107   6.150
 8101POPC   C1A61299   9.777   8.963   6.450
 8101POPC   D2A61300   9.742   9.015   6.750
 8101POPC   C3A61301   9.701   8.948   7.050
 8101POPC   C4A61302   9.703   8.998   7.350
 8101POPC   C1B61303   9.881   9.253   6.450
 8101POPC   C2B61304   9.842   9.242   6.750
 8101POPC   C3B61305   9.795   9.233   7.050
 8101POPC   C4B61306   9.860   9.228   7.350
 8102POPC   NC361307  22.130  29.968   5.550
 8102POPC   PO461308  22.142  29.925   5.850
 8102POPC   GL161309  22.124  29.941   6.150
 8102POPC   GL261310  22.043  29.887   6.150
 8102POPC   C1A61311  22.122  29.902   6.450
 8102POPC   D2A61312  22.191  29.907   6.750
 8102POPC   C3A61313  22.190  29.957   7.050
 8102POPC   C4A61314  22.166  29.958   7.350
 8102POPC   C1B61315  21.878  29.897   6.450
 8102POPC   C2B61316  21.926  29.939   6.750
 8102POPC   C3B61317  21.878  29.914   7.050
 8102POPC   C4B61318  21.895  29.905   7.350
 8103POPC   NC361319  13.590  12.811   5.550
 8103POPC   PO461320  13.655  12.879   5.850
 8103POPC   GL161321  13.578  12.854   6.150
 8103POPC   GL261322  13.472  12.920   6.150
 8103POPC   C1A61323  13.631  12.854   6.450
 8103POPC   D2A61324  13.608  12.862   6.750
 8103POPC   C3A61325  13.589  12.883   7.050
 8103POPC   C4A61326  13.634  12.856   7.350
 8103POPC   C1B61327  13.422  12.951   6.450
 8103POPC   C2B61328  13.380  12.941   6.750
 8103POPC   C3B61329  13.369  12.867   7.050
 8103POPC   C4B61330  13.365  12.885   7.350
 8104POPC   NC361331  25.223  36.940   5.550
 8104POPC   PO461332  25.276  36.866   5.850
 8104POPC   GL161333  25.228  36.886   6.150
 8104POPC   GL261334  25.363  36.866   6.150
 8104POPC   C1A61335  25.313  36.854   6.450
 8104POPC   D2A61336  25.272  36.917   6.750
 8104POPC   C3A61337  25.289  36.896   7.050
 8104POPC   C4A61338  25.312  36.917   7.350
 8104POPC   C1B61339  25.491  36.759   6.450
 8104POPC   C2B61340  25.533  36.821   6.750
 8104POPC   C3B61341  25.501  36.769   7.050
 8104POPC   C4B61342  25.510  36.770   7.350
 8105POPC   NC361343  34.577  31.498   5.550
 8105POPC   PO461344  34.566  31.482   5.850
 8105POPC   GL161345  34.580  31.480   6.150
 8105POPC   GL261346  34.644  31.556   6.150
 8105POPC   C1A61347  34.561  31.436   6.450
 8105POPC   D2A61348  34.543  31.517   6.750
 8105POPC   C3A61349  34.547  31.457   7.050
 8105POPC   C4A61350  34.562  31.493   7.350
 8105POPC   C1B61351  34.709  31.636   6.450
 8105POPC   C2B61352  34.737  31.671   6.750
 8105POPC   C3B61353  34.734  31.695   7.050
 8105POPC   C4B61354  34.729  31.649   7.350
 8106POPC   NC361355   9.788  22.956   5.550
 8106POPC   PO461356   9.716  22.913   5.850
 8106POPC   GL161357   9.790  22.934   6.150
 8106POPC   GL261358   9.918  22.904   6.150
 8106POPC   C1A61359   9.734  22.983   6.450
 8106POPC   D2A61360   9.753  22.933   6.750
 8106POPC   C3A61361   9.711  22.921   7.050
 8106POPC   C4A61362   9.746  22.907   7.350
 8106POPC   C1B61363  10.002  22.903   6.450
 8106POPC   C2B61364  10.017  22.875   6.750
 8106POPC   C3B61365   9.986  22.866   7.050
 8106POPC   C4B61366  10.007  22.878   7.350
 8107POPC   NC361367  33.792  13.589   5.550
 8107POPC   PO461368  33.770  13.615   5.850
 8107POPC   GL161369  33.751  13.612   6.150
 8107POPC   GL261370  33.825  13.767   6.150
 8107POPC   C1A61371  33.796  13.585   6.450
 8107POPC   D2A61372  33.836  13.609   6.750
 8107POPC   C3A61373  33.834  13.617   7.050
 8107POPC   C4A61374  33.760  13.671   7.350
 8107POPC   C1B61375  33.919  13.819   6.450
 8107POPC   C2B61376  33.892  13.874   6.750
 8107POPC   C3B61377  33.914  13.877   7.050
 8107POPC   C4B61378  33.867  13.872   7.350
 8108POPC   NC361379  33.035  18.301   5.550
 8108POPC   PO461380  32.980  18.262   5.850
 8108POPC   GL161381  33.044  18.323   6.150
 8108POPC   GL261382  32.955  18.161   6.150
 8108POPC   C1A61383  33.047  18.312   6.450
 8108POPC   D2A61384  33.007  18.263   6.750
 8108POPC   C3A61385  33.046  18.316   7.050
 8108POPC   C4A61386  33.020  18.256   7.350
 8108POPC   C1B61387  32.810  18.087   6.450
 8108POPC   C2B61388  32.825  18.150   6.750
 8108POPC   C3B61389  32.857  18.126   7.050
 8108POPC   C4B61390  32.831  18.082   7.350
 8109POPC   NC361391  33.788  41.599   5.550
 8109POPC   PO461392  33.818  41.557   5.850
 8109POPC   GL161393  33.799  41.523   6.150
 8109POPC   GL261394  33.952  41.505   6.150
 8109POPC   C1A61395  33.849  41.553   6.450
 8109POPC   D2A61396  33.831  41.520   6.750
 8109POPC   C3A61397  33.796  41.537   7.050
 8109POPC   C4A61398  33.816  41.575   7.350
 8109POPC   C1B61399  34.025  41.464   6.450
 8109POPC   C2B61400  33.960  41.448   6.750
 8109POPC   C3B61401  33.984  41.395   7.050
 8109POPC   C4B61402  34.017  41.372   7.350
 8110POPC   NC361403   3.506  26.818   5.550
 8110POPC   PO461404   3.508  26.867   5.850
 8110POPC   GL161405   3.518  26.807   6.150
 8110POPC   GL261406   3.448  26.876   6.150
 8110POPC   C1A61407   3.561  26.845   6.450
 8110POPC   D2A61408   3.492  26.822   6.750
 8110POPC   C3A61409   3.579  26.767   7.050
 8110POPC   C4A61410   3.495  26.771   7.350
 8110POPC   C1B61411   3.332  26.948   6.450
 8110POPC   C2B61412   3.343  27.015   6.750
 8110POPC   C3B61413   3.330  26.920   7.050
 8110POPC   C4B61414   3.356  26.994   7.350
 8111POPC   NC361415  43.900  26.848   5.550
 8111POPC   PO461416  43.845  26.850   5.850
 8111POPC   GL161417  43.879  26.818   6.150
 8111POPC   GL261418  43.990  26.773   6.150
 8111POPC   C1A61419  43.933  26.806   6.450
 8111POPC   D2A61420  43.878  26.788   6.750
 8111POPC   C3A61421  43.929  26.860   7.050
 8111POPC   C4A61422  43.865  26.855   7.350
 8111POPC   C1B61423  44.123  26.686   6.450
 8111POPC   C2B61424  44.062  26.713   6.750
 8111POPC   C3B61425  44.130  26.718   7.050
 8111POPC   C4B61426  44.048  26.646   7.350
 8112POPC   NC361427  16.727  37.726   5.550
 8112POPC   PO461428  16.755  37.647   5.850
 8112POPC   GL161429  16.738  37.663   6.150
 8112POPC   GL261430  16.785  37.764   6.150
 8112POPC   C1A61431  16.697  37.681   6.450
 8112POPC   D2A61432  16.708  37.635   6.750
 8112POPC   C3A61433  16.719  37.701   7.050
 8112POPC   C4A61434  16.763  37.724   7.350
 8112POPC   C1B61435  16.748  37.943   6.450
 8112POPC   C2B61436  16.763  37.908   6.750
 8112POPC   C3B61437  16.796  37.894   7.050
 8112POPC   C4B61438  16.791  37.891   7.350
 8113POPC   NC361439   7.405  16.748   5.550
 8113POPC   PO461440   7.427  16.690   5.850
 8113POPC   GL161441   7.371  16.738   6.150
 8113POPC   GL261442   7.508  16.832   6.150
 8113POPC   C1A61443   7.432  16.756   6.450
 8113POPC   D2A61444   7.440  16.771   6.750
 8113POPC   C3A61445   7.463  16.732   7.050
 8113POPC   C4A61446   7.402  16.700   7.350
 8113POPC   C1B61447   7.493  16.955   6.450
 8113POPC   C2B61448   7.578  16.919   6.750
 8113POPC   C3B61449   7.522  16.952   7.050
 8113POPC   C4B61450   7.523  16.941   7.350
 8114POPC   NC361451  28.335  29.168   5.550
 8114POPC   PO461452  28.363  29.107   5.850
 8114POPC   GL161453  28.332  29.174   6.150
 8114POPC   GL261454  28.406  29.240   6.150
 8114POPC   C1A61455  28.348  29.105   6.450
 8114POPC   D2A61456  28.355  29.175   6.750
 8114POPC   C3A61457  28.347  29.183   7.050
 8114POPC   C4A61458  28.391  29.192   7.350
 8114POPC   C1B61459  28.383  29.418   6.450
 8114POPC   C2B61460  28.368  29.426   6.750
 8114POPC   C3B61461  28.376  29.348   7.050
 8114POPC   C4B61462  28.342  29.378   7.350
 8115POPC   NC361463   6.597  43.104   5.550
 8115POPC   PO461464   6.638  43.122   5.850
 8115POPC   GL161465   6.604  43.125   6.150
 8115POPC   GL261466   6.719  43.029   6.150
 8115POPC   C1A61467   6.690  43.122   6.450
 8115POPC   D2A61468   6.610  43.079   6.750
 8115POPC   C3A61469   6.629  43.065   7.050
 8115POPC   C4A61470   6.599  43.099   7.350
 8115POPC   C1B61471   6.811  42.954   6.450
 8115POPC   C2B61472   6.820  42.926   6.750
 8115POPC   C3B61473   6.847  42.906   7.050
 8115POPC   C4B61474   6.844  42.921   7.350
 8116POPC   NC361475  34.541  25.302   5.550
 8116POPC   PO461476  34.545  25.269   5.850
 8116POPC   GL161477  34.606  25.242   6.150
 8116POPC   GL261478  34.450  25.156   6.150
 8116POPC   C1A61479  34.542  25.235   6.450
 8116POPC   D2A61480  34.581  25.233   6.750
 8116POPC   C3A61481  34.546  25.275   7.050
 8116POPC   C4A61482  34.599  25.231   7.350
 8116POPC   C1B61483  34.348  25.168   6.450
 8116POPC   C2B61484  34.408  25.138   6.750
 8116POPC   C3B61485  34.381  25.166   7.050
 8116POPC   C4B61486  34.374  25.110   7.350
 8117POPC   NC361487  44.636  12.077   5.550
 8117POPC   PO461488  44.613  12.044   5.850
 8117POPC   GL161489  44.631  12.096   6.150
 8117POPC   GL261490  44.778  12.105   6.150
 8117POPC   C1A61491  44.662  12.057   6.450
 8117POPC   D2A61492  44.658  12.073   6.750
 8117POPC   C3A61493  44.663  12.066   7.050
 8117POPC   C4A61494  44.688  12.062   7.350
 8117POPC   C1B61495  44.905  12.187   6.450
 8117POPC   C2B61496  44.900  12.213   6.750
 8117POPC   C3B61497  44.937  12.162   7.050
 8117POPC   C4B61498  44.850  12.187   7.350
 8118POPC   NC361499  35.352   9.022   5.550
 8118POPC   PO461500  35.306   8.996   5.850
 8118POPC   GL161501  35.349   8.929   6.150
 8118POPC   GL261502  35.297   9.081   6.150
 8118POPC   C1A61503  35.307   8.999   6.450
 8118POPC   D2A61504  35.323   8.992   6.750
 8118POPC   C3A61505  35.308   8.954   7.050
 8118POPC   C4A61506  35.312   8.973   7.350
 8118POPC   C1B61507  35.330   9.181   6.450
 8118POPC   C2B61508  35.301   9.230   6.750
 8118POPC   C3B61509  35.269   9.174   7.050
 8118POPC   C4B61510  35.330   9.261   7.350
 8119POPC   NC361511  36.147   2.032   5.550
 8119POPC   PO461512  36.175   2.014   5.850
 8119POPC   GL161513  36.129   1.983   6.150
 8119POPC   GL261514  36.155   2.104   6.150
 8119POPC   C1A61515  36.135   1.995   6.450
 8119POPC   D2A61516  36.154   1.984   6.750
 8119POPC   C3A61517  36.112   2.024   7.050
 8119POPC   C4A61518  36.156   1.990   7.350
 8119POPC   C1B61519  36.254   2.210   6.450
 8119POPC   C2B61520  36.247   2.209   6.750
 8119POPC   C3B61521  36.302   2.213   7.050
 8119POPC   C4B61522  36.292   2.185   7.350
 8120POPC   NC361523  26.044   6.679   5.550
 8120POPC   PO461524  26.038   6.612   5.850
 8120POPC   GL161525  26.047   6.632   6.150
 8120POPC   GL261526  26.120   6.641   6.150
 8120POPC   C1A61527  26.089   6.607   6.450
 8120POPC   D2A61528  26.044   6.655   6.750
 8120POPC   C3A61529  26.015   6.677   7.050
 8120POPC   C4A61530  26.007   6.647   7.350
 8120POPC   C1B61531  26.290   6.719   6.450
 8120POPC   C2B61532  26.270   6.764   6.750
 8120POPC   C3B61533  26.236   6.768   7.050
 8120POPC   C4B61534  26.237   6.701   7.350
 8121POPC   NC361535  26.001  27.567   5.550
 8121POPC   PO461536  26.054  27.563   5.850
 8121POPC   GL161537  25.993  27.637   6.150
 8121POPC   GL261538  25.975  27.517   6.150
 8121POPC   C1A61539  26.077  27.569   6.450
 8121POPC   D2A61540  25.998  27.564   6.750
 8121POPC   C3A61541  25.992  27.602   7.050
 8121POPC   C4A61542  26.043  27.631   7.350
 8121POPC   C1B61543  25.798  27.476   6.450
 8121POPC   C2B61544  25.822  27.511   6.750
 8121POPC   C3B61545  25.840  27.487   7.050
 8121POPC   C4B61546  25.856  27.472   7.350
 8122POPC   NC361547  19.855  22.959   5.550
 8122POPC   PO461548  19.859  22.954   5.850
 8122POPC   GL161549  19.860  22.929   6.150
 8122POPC   GL261550  20.005  22.929   6.150
 8122POPC   C1A61551  19.802  22.983   6.450
 8122POPC   D2A61552  19.839  22.953   6.750
 8122POPC   C3A61553  19.840  22.890   7.050
 8122POPC   C4A61554  19.878  22.931   7.350
 8122POPC   C1B61555  20.090  22.933   6.450
 8122POPC   C2B61556  20.056  22.983   6.750
 8122POPC   C3B61557  20.125  22.945   7.050
 8122POPC   C4B61558  20.063  22.976   7.350
 8123POPC   NC361559  14.413   8.150   5.550
 8123POPC   PO461560  14.396   8.162   5.850
 8123POPC   GL161561  14.435   8.247   6.150
 8123POPC   GL261562  14.340   8.213   6.150
 8123POPC   C1A61563  14.381   8.235   6.450
 8123POPC   D2A61564  14.364   8.243   6.750
 8123POPC   C3A61565  14.385   8.193   7.050
 8123POPC   C4A61566  14.378   8.184   7.350
 8123POPC   C1B61567  14.145   8.327   6.450
 8123POPC   C2B61568  14.153   8.279   6.750
 8123POPC   C3B61569  14.178   8.342   7.050
 8123POPC   C4B61570  14.171   8.350   7.350
 8124POPC   NC361571  22.118  38.454   5.550
 8124POPC   PO461572  22.194  38.479   5.850
 8124POPC   GL161573  22.177  38.408   6.150
 8124POPC   GL261574  22.260  38.405   6.150
 8124POPC   C1A61575  22.208  38.423   6.450
 8124POPC   D2A61576  22.197  38.422   6.750
 8124POPC   C3A61577  22.126  38.472   7.050
 8124POPC   C4A61578  22.153  38.405   7.350
 8124POPC   C1B61579  22.359  38.260   6.450
 8124POPC   C2B61580  22.374  38.295   6.750
 8124POPC   C3B61581  22.386  38.268   7.050
 8124POPC   C4B61582  22.390  38.262   7.350
 8125POPC   NC361583  36.944   4.364   5.550
 8125POPC   PO461584  36.907   4.326   5.850
 8125POPC   GL161585  36.871   4.366   6.150
 8125POPC   GL261586  36.996   4.229   6.150
 8125POPC   C1A61587  36.942   4.347   6.450
 8125POPC   D2A61588  36.897   4.301   6.750
 8125POPC   C3A61589  36.918   4.302   7.050
 8125POPC   C4A61590  36.946   4.363   7.350
 8125POPC   C1B61591  37.081   4.107   6.450
 8125POPC   C2B61592  37.070   4.126   6.750
 8125POPC   C3B61593  37.098   4.169   7.050
 8125POPC   C4B61594  37.059   4.156   7.350
 8126POPC   NC361595  21.347  11.342   5.550
 8126POPC   PO461596  21.380  11.290   5.850
 8126POPC   GL161597  21.366  11.257   6.150
 8126POPC   GL261598  21.313  11.314   6.150
 8126POPC   C1A61599  21.381  11.250   6.450
 8126POPC   D2A61600  21.378  11.342   6.750
 8126POPC   C3A61601  21.406  11.261   7.050
 8126POPC   C4A61602  21.360  11.262   7.350
 8126POPC   C1B61603  21.181  11.475   6.450
 8126POPC   C2B61604  21.179  11.390   6.750
 8126POPC   C3B61605  21.212  11.448   7.050
 8126POPC   C4B61606  21.218  11.461   7.350
 8127POPC   NC361607  28.400  15.963   5.550
 8127POPC   PO461608  28.324  15.967   5.850
 8127POPC   GL161609  28.379  15.962   6.150
 8127POPC   GL261610  28.313  16.046   6.150
 8127POPC   C1A61611  28.334  15.921   6.450
 8127POPC   D2A61612  28.354  15.955   6.750
 8127POPC   C3A61613  28.369  15.953   7.050
 8127POPC   C4A61614  28.357  15.968   7.350
 8127POPC   C1B61615  28.318  16.154   6.450
 8127POPC   C2B61616  28.374  16.157   6.750
 8127POPC   C3B61617  28.335  16.234   7.050
 8127POPC   C4B61618  28.340  16.178   7.350
 8128POPC   NC361619  38.440  33.751   5.550
 8128POPC   PO461620  38.448  33.827   5.850
 8128POPC   GL161621  38.493  33.769   6.150
 8128POPC   GL261622  38.413  33.968   6.150
 8128POPC   C1A61623  38.415  33.832   6.450
 8128POPC   D2A61624  38.432  33.820   6.750
 8128POPC   C3A61625  38.416  33.826   7.050
 8128POPC   C4A61626  38.469  33.792   7.350
 8128POPC   C1B61627  38.469  34.092   6.450
 8128POPC   C2B61628  38.461  34.015   6.750
 8128POPC   C3B61629  38.402  34.055   7.050
 8128POPC   C4B61630  38.451  34.091   7.350
 8129POPC   NC361631  43.867   0.431   5.550
 8129POPC   PO461632  43.862   0.404   5.850
 8129POPC   GL161633  43.934   0.447   6.150
 8129POPC   GL261634  44.006   0.336   6.150
 8129POPC   C1A61635  43.904   0.444   6.450
 8129POPC   D2A61636  43.858   0.406   6.750
 8129POPC   C3A61637  43.858   0.451   7.050
 8129POPC   C4A61638  43.851   0.406   7.350
 8129POPC   C1B61639  44.013   0.251   6.450
 8129POPC   C2B61640  44.066   0.258   6.750
 8129POPC   C3B61641  44.007   0.270   7.050
 8129POPC   C4B61642  44.074   0.204   7.350
 8130POPC   NC361643  32.984   7.455   5.550
 8130POPC   PO461644  33.050   7.387   5.850
 8130POPC   GL161645  33.070   7.424   6.150
 8130POPC   GL261646  33.041   7.287   6.150
 8130POPC   C1A61647  33.008   7.452   6.450
 8130POPC   D2A61648  33.037   7.403   6.750
 8130POPC   C3A61649  33.064   7.404   7.050
 8130POPC   C4A61650  33.022   7.413   7.350
 8130POPC   C1B61651  33.108   7.219   6.450
 8130POPC   C2B61652  33.137   7.206   6.750
 8130POPC   C3B61653  33.089   7.168   7.050
 8130POPC   C4B61654  33.050   7.204   7.350
 8131POPC   NC361655  41.592  24.479   5.550
 8131POPC   PO461656  41.545  24.524   5.850
 8131POPC   GL161657  41.559  24.515   6.150
 8131POPC   GL261658  41.494  24.543   6.150
 8131POPC   C1A61659  41.593  24.484   6.450
 8131POPC   D2A61660  41.520  24.533   6.750
 8131POPC   C3A61661  41.605  24.492   7.050
 8131POPC   C4A61662  41.539  24.480   7.350
 8131POPC   C1B61663  41.448  24.678   6.450
 8131POPC   C2B61664  41.380  24.721   6.750
 8131POPC   C3B61665  41.429  24.647   7.050
 8131POPC   C4B61666  41.444  24.741   7.350
 8132POPC   NC361667   2.788  23.687   5.550
 8132POPC   PO461668   2.763  23.751   5.850
 8132POPC   GL161669   2.738  23.751   6.150
 8132POPC   GL261670   2.694  23.687   6.150
 8132POPC   C1A61671   2.764  23.687   6.450
 8132POPC   D2A61672   2.814  23.673   6.750
 8132POPC   C3A61673   2.775  23.746   7.050
 8132POPC   C4A61674   2.806  23.682   7.350
 8132POPC   C1B61675   2.501  23.677   6.450
 8132POPC   C2B61676   2.567  23.611   6.750
 8132POPC   C3B61677   2.577  23.593   7.050
 8132POPC   C4B61678   2.487  23.595   7.350
 8133POPC   NC361679  30.735  38.406   5.550
 8133POPC   PO461680  30.733  38.436   5.850
 8133POPC   GL161681  30.745  38.492   6.150
 8133POPC   GL261682  30.836  38.397   6.150
 8133POPC   C1A61683  30.670  38.416   6.450
 8133POPC   D2A61684  30.740  38.441   6.750
 8133POPC   C3A61685  30.712  38.486   7.050
 8133POPC   C4A61686  30.673  38.462   7.350
 8133POPC   C1B61687  30.880  38.356   6.450
 8133POPC   C2B61688  30.900  38.382   6.750
 8133POPC   C3B61689  30.906  38.334   7.050
 8133POPC   C4B61690  30.937  38.346   7.350
 8134POPC   NC361691  19.860  35.328   5.550
 8134POPC   PO461692  19.878  35.322   5.850
 8134POPC   GL161693  19.788  35.305   6.150
 8134POPC   GL261694  19.782  35.227   6.150
 8134POPC   C1A61695  19.831  35.382   6.450
 8134POPC   D2A61696  19.856  35.312   6.750
 8134POPC   C3A61697  19.803  35.342   7.050
 8134POPC   C4A61698  19.856  35.318   7.350
 8134POPC   C1B61699  19.676  35.181   6.450
 8134POPC   C2B61700  19.757  35.184   6.750
 8134POPC   C3B61701  19.699  35.172   7.050
 8134POPC   C4B61702  19.753  35.152   7.350
 8135POPC   NC361703  43.921  31.452   5.550
 8135POPC   PO461704  43.871  31.460   5.850
 8135POPC   GL161705  43.844  31.496   6.150
 8135POPC   GL261706  43.878  31.564   6.150
 8135POPC   C1A61707  43.908  31.460   6.450
 8135POPC   D2A61708  43.870  31.489   6.750
 8135POPC   C3A61709  43.839  31.498   7.050
 8135POPC   C4A61710  43.863  31.475   7.350
 8135POPC   C1B61711  43.923  31.711   6.450
 8135POPC   C2B61712  43.945  31.694   6.750
 8135POPC   C3B61713  43.935  31.739   7.050
 8135POPC   C4B61714  43.935  31.730   7.350
 8136POPC   NC361715  43.127  26.817   5.550
 8136POPC   PO461716  43.066  26.858   5.850
 8136POPC   GL161717  43.119  26.829   6.150
 8136POPC   GL261718  43.230  26.890   6.150
 8136POPC   C1A61719  43.136  26.795   6.450
 8136POPC   D2A61720  43.106  26.858   6.750
 8136POPC   C3A61721  43.098  26.772   7.050
 8136POPC   C4A61722  43.110  26.816   7.350
 8136POPC   C1B61723  43.271  26.970   6.450
 8136POPC   C2B61724  43.286  27.011   6.750
 8136POPC   C3B61725  43.312  26.929   7.050
 8136POPC   C4B61726  43.355  26.974   7.350
 8137POPC   NC361727  41.544  38.497   5.550
 8137POPC   PO461728  41.543  38.499   5.850
 8137POPC   GL161729  41.570  38.413   6.150
 8137POPC   GL261730  41.704  38.456   6.150
 8137POPC   C1A61731  41.563  38.430   6.450
 8137POPC   D2A61732  41.559  38.411   6.750
 8137POPC   C3A61733  41.601  38.504   7.050
 8137POPC   C4A61734  41.575  38.484   7.350
 8137POPC   C1B61735  41.828  38.506   6.450
 8137POPC   C2B61736  41.826  38.481   6.750
 8137POPC   C3B61737  41.761  38.488   7.050
 8137POPC   C4B61738  41.852  38.512   7.350
 8138POPC   NC361739  32.245   9.777   5.550
 8138POPC   PO461740  32.233   9.744   5.850
 8138POPC   GL161741  32.217   9.775   6.150
 8138POPC   GL261742  32.349   9.843   6.150
 8138POPC   C1A61743  32.241   9.766   6.450
 8138POPC   D2A61744  32.204   9.765   6.750
 8138POPC   C3A61745  32.271   9.793   7.050
 8138POPC   C4A61746  32.297   9.706   7.350
 8138POPC   C1B61747  32.493   9.917   6.450
 8138POPC   C2B61748  32.458   9.908   6.750
 8138POPC   C3B61749  32.475   9.937   7.050
 8138POPC   C4B61750  32.485   9.852   7.350
 8139POPC   NC361751   3.516   9.755   5.550
 8139POPC   PO461752   3.573   9.733   5.850
 8139POPC   GL161753   3.502   9.768   6.150
 8139POPC   GL261754   3.438   9.666   6.150
 8139POPC   C1A61755   3.558   9.733   6.450
 8139POPC   D2A61756   3.549   9.746   6.750
 8139POPC   C3A61757   3.564   9.709   7.050
 8139POPC   C4A61758   3.559   9.760   7.350
 8139POPC   C1B61759   3.383   9.569   6.450
 8139POPC   C2B61760   3.461   9.537   6.750
 8139POPC   C3B61761   3.367   9.554   7.050
 8139POPC   C4B61762   3.384   9.540   7.350
 8140POPC   NC361763   5.830  44.615   5.550
 8140POPC   PO461764   5.843  44.707   5.850
 8140POPC   GL161765   5.841  44.642   6.150
 8140POPC   GL261766   5.756  44.579   6.150
 8140POPC   C1A61767   5.871  44.684   6.450
 8140POPC   D2A61768   5.821  44.702   6.750
 8140POPC   C3A61769   5.835  44.690   7.050
 8140POPC   C4A61770   5.919  44.684   7.350
 8140POPC   C1B61771   5.722  44.538   6.450
 8140POPC   C2B61772   5.655  44.513   6.750
 8140POPC   C3B61773   5.712  44.465   7.050
 8140POPC   C4B61774   5.661  44.488   7.350
 8141POPC   NC361775   2.024  19.842   5.550
 8141POPC   PO461776   1.980  19.835   5.850
 8141POPC   GL161777   2.017  19.876   6.150
 8141POPC   GL261778   2.106  19.927   6.150
 8141POPC   C1A61779   2.028  19.884   6.450
 8141POPC   D2A61780   2.004  19.807   6.750
 8141POPC   C3A61781   2.038  19.790   7.050
 8141POPC   C4A61782   1.975  19.842   7.350
 8141POPC   C1B61783   2.174  20.037   6.450
 8141POPC   C2B61784   2.143  20.024   6.750
 8141POPC   C3B61785   2.127  20.079   7.050
 8141POPC   C4B61786   2.149  20.064   7.350
 8142POPC   NC361787  15.152   6.607   5.550
 8142POPC   PO461788  15.217   6.616   5.850
 8142POPC   GL161789  15.204   6.597   6.150
 8142POPC   GL261790  15.182   6.727   6.150
 8142POPC   C1A61791  15.169   6.609   6.450
 8142POPC   D2A61792  15.172   6.674   6.750
 8142POPC   C3A61793  15.198   6.623   7.050
 8142POPC   C4A61794  15.214   6.658   7.350
 8142POPC   C1B61795  15.088   6.885   6.450
 8142POPC   C2B61796  15.074   6.864   6.750
 8142POPC   C3B61797  15.108   6.853   7.050
 8142POPC   C4B61798  15.076   6.906   7.350
 8143POPC   NC361799  36.168  32.976   5.550
 8143POPC   PO461800  36.166  33.018   5.850
 8143POPC   GL161801  36.153  33.032   6.150
 8143POPC   GL261802  36.204  32.934   6.150
 8143POPC   C1A61803  36.098  33.069   6.450
 8143POPC   D2A61804  36.083  33.005   6.750
 8143POPC   C3A61805  36.165  32.998   7.050
 8143POPC   C4A61806  36.083  33.062   7.350
 8143POPC   C1B61807  36.274  32.832   6.450
 8143POPC   C2B61808  36.286  32.895   6.750
 8143POPC   C3B61809  36.317  32.830   7.050
 8143POPC   C4B61810  36.317  32.863   7.350
 8144POPC   NC361811  21.431  14.392   5.550
 8144POPC   PO461812  21.399  14.411   5.850
 8144POPC   GL161813  21.354  14.451   6.150
 8144POPC   GL261814  21.273  14.437   6.150
 8144POPC   C1A61815  21.410  14.403   6.450
 8144POPC   D2A61816  21.424  14.445   6.750
 8144POPC   C3A61817  21.348  14.416   7.050
 8144POPC   C4A61818  21.406  14.406   7.350
 8144POPC   C1B61819  21.233  14.561   6.450
 8144POPC   C2B61820  21.184  14.516   6.750
 8144POPC   C3B61821  21.158  14.595   7.050
 8144POPC   C4B61822  21.220  14.581   7.350
 8145POPC   NC361823  10.536   9.003   5.550
 8145POPC   PO461824  10.553   8.977   5.850
 8145POPC   GL161825  10.505   9.011   6.150
 8145POPC   GL261826  10.422   9.110   6.150
 8145POPC   C1A61827  10.528   9.011   6.450
 8145POPC   D2A61828  10.504   8.977   6.750
 8145POPC   C3A61829  10.494   9.009   7.050
 8145POPC   C4A61830  10.500   8.942   7.350
 8145POPC   C1B61831  10.370   9.189   6.450
 8145POPC   C2B61832  10.425   9.191   6.750
 8145POPC   C3B61833  10.423   9.178   7.050
 8145POPC   C4B61834  10.450   9.201   7.350
 8146POPC   NC361835  23.707  12.122   5.550
 8146POPC   PO461836  23.747  12.123   5.850
 8146POPC   GL161837  23.704  12.074   6.150
 8146POPC   GL261838  23.649  12.196   6.150
 8146POPC   C1A61839  23.742  12.080   6.450
 8146POPC   D2A61840  23.721  12.066   6.750
 8146POPC   C3A61841  23.735  12.114   7.050
 8146POPC   C4A61842  23.737  12.026   7.350
 8146POPC   C1B61843  23.538  12.199   6.450
 8146POPC   C2B61844  23.532  12.261   6.750
 8146POPC   C3B61845  23.565  12.274   7.050
 8146POPC   C4B61846  23.548  12.243   7.350
 8147POPC   NC361847   7.457   3.501   5.550
 8147POPC   PO461848   7.410   3.549   5.850
 8147POPC   GL161849   7.380   3.532   6.150
 8147POPC   GL261850   7.534   3.575   6.150
 8147POPC   C1A61851   7.463   3.500   6.450
 8147POPC   D2A61852   7.417   3.583   6.750
 8147POPC   C3A61853   7.378   3.504   7.050
 8147POPC   C4A61854   7.412   3.499   7.350
 8147POPC   C1B61855   7.646   3.511   6.450
 8147POPC   C2B61856   7.704   3.495   6.750
 8147POPC   C3B61857   7.706   3.546   7.050
 8147POPC   C4B61858   7.633   3.477   7.350
 8148POPC   NC361859   8.992  19.071   5.550
 8148POPC   PO461860   8.955  19.039   5.850
 8148POPC   GL161861   8.931  19.013   6.150
 8148POPC   GL261862   8.990  19.195   6.150
 8148POPC   C1A61863   8.992  19.039   6.450
 8148POPC   D2A61864   8.944  19.108   6.750
 8148POPC   C3A61865   8.940  19.104   7.050
 8148POPC   C4A61866   8.926  19.067   7.350
 8148POPC   C1B61867   9.075  19.275   6.450
 8148POPC   C2B61868   9.028  19.257   6.750
 8148POPC   C3B61869   9.090  19.251   7.050
 8148POPC   C4B61870   9.045  19.324   7.350
 8149POPC   NC361871  31.491  40.773   5.550
 8149POPC   PO461872  31.433  40.814   5.850
 8149POPC   GL161873  31.495  40.813   6.150
 8149POPC   GL261874  31.393  40.792   6.150
 8149POPC   C1A61875  31.475  40.767   6.450
 8149POPC   D2A61876  31.507  40.790   6.750
 8149POPC   C3A61877  31.490  40.811   7.050
 8149POPC   C4A61878  31.441  40.760   7.350
 8149POPC   C1B61879  31.186  40.784   6.450
 8149POPC   C2B61880  31.268  40.773   6.750
 8149POPC   C3B61881  31.187  40.757   7.050
 8149POPC   C4B61882  31.188  40.764   7.350
 8150POPC   NC361883  21.429  13.628   5.550
 8150POPC   PO461884  21.383  13.663   5.850
 8150POPC   GL161885  21.364  13.606   6.150
 8150POPC   GL261886  21.319  13.766   6.150
 8150POPC   C1A61887  21.342  13.610   6.450
 8150POPC   D2A61888  21.382  13.592   6.750
 8150POPC   C3A61889  21.404  13.672   7.050
 8150POPC   C4A61890  21.349  13.634   7.350
 8150POPC   C1B61891  21.174  13.784   6.450
 8150POPC   C2B61892  21.199  13.778   6.750
 8150POPC   C3B61893  21.204  13.778   7.050
 8150POPC   C4B61894  21.180  13.819   7.350
 8151POPC   NC361895  29.184  33.816   5.550
 8151POPC   PO461896  29.129  33.784   5.850
 8151POPC   GL161897  29.185  33.787   6.150
 8151POPC   GL261898  28.973  33.794   6.150
 8151POPC   C1A61899  29.134  33.811   6.450
 8151POPC   D2A61900  29.143  33.787   6.750
 8151POPC   C3A61901  29.141  33.825   7.050
 8151POPC   C4A61902  29.146  33.794   7.350
 8151POPC   C1B61903  28.944  33.875   6.450
 8151POPC   C2B61904  28.901  33.880   6.750
 8151POPC   C3B61905  28.872  33.849   7.050
 8151POPC   C4B61906  28.851  33.834   7.350
 8152POPC   NC361907  12.075  32.204   5.550
 8152POPC   PO461908  12.100  32.257   5.850
 8152POPC   GL161909  12.051  32.270   6.150
 8152POPC   GL261910  12.143  32.133   6.150
 8152POPC   C1A61911  12.031  32.283   6.450
 8152POPC   D2A61912  12.080  32.286   6.750
 8152POPC   C3A61913  12.037  32.226   7.050
 8152POPC   C4A61914  12.041  32.206   7.350
 8152POPC   C1B61915  12.160  32.012   6.450
 8152POPC   C2B61916  12.223  32.033   6.750
 8152POPC   C3B61917  12.144  32.059   7.050
 8152POPC   C4B61918  12.241  31.993   7.350
 8153POPC   NC361919  14.425  19.787   5.550
 8153POPC   PO461920  14.436  19.809   5.850
 8153POPC   GL161921  14.385  19.853   6.150
 8153POPC   GL261922  14.443  19.690   6.150
 8153POPC   C1A61923  14.406  19.840   6.450
 8153POPC   D2A61924  14.433  19.796   6.750
 8153POPC   C3A61925  14.386  19.806   7.050
 8153POPC   C4A61926  14.421  19.853   7.350
 8153POPC   C1B61927  14.443  19.619   6.450
 8153POPC   C2B61928  14.429  19.615   6.750
 8153POPC   C3B61929  14.446  19.558   7.050
 8153POPC   C4B61930  14.447  19.622   7.350
 8154POPC   NC361931  31.453  42.323   5.550
 8154POPC   PO461932  31.465  42.384   5.850
 8154POPC   GL161933  31.514  42.340   6.150
 8154POPC   GL261934  31.624  42.351   6.150
 8154POPC   C1A61935  31.457  42.313   6.450
 8154POPC   D2A61936  31.471  42.298   6.750
 8154POPC   C3A61937  31.423  42.369   7.050
 8154POPC   C4A61938  31.518  42.293   7.350
 8154POPC   C1B61939  31.733  42.463   6.450
 8154POPC   C2B61940  31.670  42.416   6.750
 8154POPC   C3B61941  31.683  42.498   7.050
 8154POPC   C4B61942  31.724  42.452   7.350
 8155POPC   NC361943  31.509  26.831   5.550
 8155POPC   PO461944  31.510  26.842   5.850
 8155POPC   GL161945  31.436  26.829   6.150
 8155POPC   GL261946  31.391  26.873   6.150
 8155POPC   C1A61947  31.473  26.863   6.450
 8155POPC   D2A61948  31.510  26.855   6.750
 8155POPC   C3A61949  31.475  26.859   7.050
 8155POPC   C4A61950  31.478  26.776   7.350
 8155POPC   C1B61951  31.258  26.939   6.450
 8155POPC   C2B61952  31.265  26.899   6.750
 8155POPC   C3B61953  31.212  26.923   7.050
 8155POPC   C4B61954  31.270  26.903   7.350
 8156POPC   NC361955  43.141  12.843   5.550
 8156POPC   PO461956  43.156  12.813   5.850
 8156POPC   GL161957  43.152  12.901   6.150
 8156POPC   GL261958  43.247  12.901   6.150
 8156POPC   C1A61959  43.136  12.863   6.450
 8156POPC   D2A61960  43.086  12.840   6.750
 8156POPC   C3A61961  43.065  12.819   7.050
 8156POPC   C4A61962  43.130  12.815   7.350
 8156POPC   C1B61963  43.286  12.921   6.450
 8156POPC   C2B61964  43.373  12.949   6.750
 8156POPC   C3B61965  43.366  12.954   7.050
 8156POPC   C4B61966  43.373  12.986   7.350
 8157POPC   NC361967  26.804  15.222   5.550
 8157POPC   PO461968  26.853  15.186   5.850
 8157POPC   GL161969  26.799  15.194   6.150
 8157POPC   GL261970  26.730  15.203   6.150
 8157POPC   C1A61971  26.769  15.149   6.450
 8157POPC   D2A61972  26.782  15.170   6.750
 8157POPC   C3A61973  26.777  15.158   7.050
 8157POPC   C4A61974  26.854  15.220   7.350
 8157POPC   C1B61975  26.588  15.149   6.450
 8157POPC   C2B61976  26.524  15.123   6.750
 8157POPC   C3B61977  26.582  15.122   7.050
 8157POPC   C4B61978  26.577  15.187   7.350
 8158POPC   NC361979   1.230  36.880   5.550
 8158POPC   PO461980   1.232  36.907   5.850
 8158POPC   GL161981   1.178  36.919   6.150
 8158POPC   GL261982   1.070  36.838   6.150
 8158POPC   C1A61983   1.221  36.911   6.450
 8158POPC   D2A61984   1.217  36.896   6.750
 8158POPC   C3A61985   1.201  36.855   7.050
 8158POPC   C4A61986   1.255  36.898   7.350
 8158POPC   C1B61987   1.021  36.790   6.450
 8158POPC   C2B61988   1.021  36.781   6.750
 8158POPC   C3B61989   1.036  36.755   7.050
 8158POPC   C4B61990   1.004  36.791   7.350
 8159POPC   NC361991  33.026   5.074   5.550
 8159POPC   PO461992  33.048   5.090   5.850
 8159POPC   GL161993  33.073   5.129   6.150
 8159POPC   GL261994  32.849   5.131   6.150
 8159POPC   C1A61995  33.025   5.067   6.450
 8159POPC   D2A61996  32.978   5.046   6.750
 8159POPC   C3A61997  33.018   5.136   7.050
 8159POPC   C4A61998  33.042   5.048   7.350
 8159POPC   C1B61999  32.747   5.128   6.450
 8159POPC   C2B62000  32.731   5.145   6.750
 8159POPC   C3B62001  32.768   5.156   7.050
 8159POPC   C4B62002  32.740   5.098   7.350
 8160POPC   NC362003  13.600  32.295   5.550
 8160POPC   PO462004  13.630  32.293   5.850
 8160POPC   GL162005  13.638  32.229   6.150
 8160POPC   GL262006  13.736  32.321   6.150
 8160POPC   C1A62007  13.656  32.278   6.450
 8160POPC   D2A62008  13.672  32.250   6.750
 8160POPC   C3A62009  13.659  32.257   7.050
 8160POPC   C4A62010  13.588  32.231   7.350
 8160POPC   C1B62011  13.822  32.411   6.450
 8160POPC   C2B62012  13.748  32.481   6.750
 8160POPC   C3B62013  13.814  32.463   7.050
 8160POPC   C4B62014  13.765  32.423   7.350
 8161POPC   NC362015  26.021  36.917   5.550
 8161POPC   PO462016  26.075  36.882   5.850
 8161POPC   GL162017  26.010  36.887   6.150
 8161POPC   GL262018  26.103  37.025   6.150
 8161POPC   C1A62019  26.058  36.860   6.450
 8161POPC   D2A62020  26.044  36.876   6.750
 8161POPC   C3A62021  26.040  36.859   7.050
 8161POPC   C4A62022  26.010  36.951   7.350
 8161POPC   C1B62023  26.108  37.130   6.450
 8161POPC   C2B62024  26.088  37.188   6.750
 8161POPC   C3B62025  26.141  37.166   7.050
 8161POPC   C4B62026  26.121  37.173   7.350
 8162POPC   NC362027  34.607  28.358   5.550
 8162POPC   PO462028  34.526  28.353   5.850
 8162POPC   GL162029  34.558  28.375   6.150
 8162POPC   GL262030  34.624  28.197   6.150
 8162POPC   C1A62031  34.614  28.393   6.450
 8162POPC   D2A62032  34.558  28.409   6.750
 8162POPC   C3A62033  34.539  28.353   7.050
 8162POPC   C4A62034  34.547  28.384   7.350
 8162POPC   C1B62035  34.666  28.075   6.450
 8162POPC   C2B62036  34.650  28.162   6.750
 8162POPC   C3B62037  34.642  28.118   7.050
 8162POPC   C4B62038  34.666  28.152   7.350
 8163POPC   NC362039  43.099  12.067   5.550
 8163POPC   PO462040  43.099  12.074   5.850
 8163POPC   GL162041  43.147  12.093   6.150
 8163POPC   GL262042  43.262  12.018   6.150
 8163POPC   C1A62043  43.151  12.103   6.450
 8163POPC   D2A62044  43.103  12.070   6.750
 8163POPC   C3A62045  43.069  12.027   7.050
 8163POPC   C4A62046  43.126  12.122   7.350
 8163POPC   C1B62047  43.362  12.025   6.450
 8163POPC   C2B62048  43.374  11.989   6.750
 8163POPC   C3B62049  43.380  12.036   7.050
 8163POPC   C4B62050  43.370  12.014   7.350
 8164POPC   NC362051  20.631  12.106   5.550
 8164POPC   PO462052  20.608  12.121   5.850
 8164POPC   GL162053  20.631  12.032   6.150
 8164POPC   GL262054  20.443  12.049   6.150
 8164POPC   C1A62055  20.632  12.045   6.450
 8164POPC   D2A62056  20.621  12.054   6.750
 8164POPC   C3A62057  20.603  12.077   7.050
 8164POPC   C4A62058  20.576  12.059   7.350
 8164POPC   C1B62059  20.408  12.164   6.450
 8164POPC   C2B62060  20.392  12.163   6.750
 8164POPC   C3B62061  20.354  12.108   7.050
 8164POPC   C4B62062  20.350  12.075   7.350
 8165POPC   NC362063  41.569   7.431   5.550
 8165POPC   PO462064  41.539   7.464   5.850
 8165POPC   GL162065  41.509   7.444   6.150
 8165POPC   GL262066  41.559   7.287   6.150
 8165POPC   C1A62067  41.515   7.398   6.450
 8165POPC   D2A62068  41.517   7.393   6.750
 8165POPC   C3A62069  41.593   7.415   7.050
 8165POPC   C4A62070  41.563   7.452   7.350
 8165POPC   C1B62071  41.646   7.191   6.450
 8165POPC   C2B62072  41.570   7.128   6.750
 8165POPC   C3B62073  41.566   7.170   7.050
 8165POPC   C4B62074  41.607   7.188   7.350
 8166POPC   NC362075  40.778  24.471   5.550
 8166POPC   PO462076  40.793  24.451   5.850
 8166POPC   GL162077  40.829  24.451   6.150
 8166POPC   GL262078  40.788  24.586   6.150
 8166POPC   C1A62079  40.749  24.535   6.450
 8166POPC   D2A62080  40.759  24.463   6.750
 8166POPC   C3A62081  40.795  24.507   7.050
 8166POPC   C4A62082  40.758  24.461   7.350
 8166POPC   C1B62083  40.652  24.766   6.450
 8166POPC   C2B62084  40.702  24.721   6.750
 8166POPC   C3B62085  40.748  24.747   7.050
 8166POPC   C4B62086  40.748  24.705   7.350
 8167POPC   NC362087  22.131   4.279   5.550
 8167POPC   PO462088  22.139   4.307   5.850
 8167POPC   GL162089  22.155   4.367   6.150
 8167POPC   GL262090  22.003   4.225   6.150
 8167POPC   C1A62091  22.212   4.283   6.450
 8167POPC   D2A62092  22.162   4.271   6.750
 8167POPC   C3A62093  22.126   4.296   7.050
 8167POPC   C4A62094  22.205   4.322   7.350
 8167POPC   C1B62095  21.979   4.265   6.450
 8167POPC   C2B62096  21.972   4.186   6.750
 8167POPC   C3B62097  21.972   4.215   7.050
 8167POPC   C4B62098  21.922   4.175   7.350
 8168POPC   NC362099  35.315  12.851   5.550
 8168POPC   PO462100  35.373  12.879   5.850
 8168POPC   GL162101  35.328  12.861   6.150
 8168POPC   GL262102  35.280  12.955   6.150
 8168POPC   C1A62103  35.354  12.851   6.450
 8168POPC   D2A62104  35.346  12.846   6.750
 8168POPC   C3A62105  35.317  12.867   7.050
 8168POPC   C4A62106  35.316  12.852   7.350
 8168POPC   C1B62107  35.161  13.039   6.450
 8168POPC   C2B62108  35.208  12.976   6.750
 8168POPC   C3B62109  35.157  13.047   7.050
 8168POPC   C4B62110  35.146  13.062   7.350
 8169POPC   NC362111  25.233  26.064   5.550
 8169POPC   PO462112  25.304  26.083   5.850
 8169POPC   GL162113  25.303  26.087   6.150
 8169POPC   GL262114  25.206  25.943   6.150
 8169POPC   C1A62115  25.254  26.074   6.450
 8169POPC   D2A62116  25.281  26.012   6.750
 8169POPC   C3A62117  25.229  26.033   7.050
 8169POPC   C4A62118  25.293  25.992   7.350
 8169POPC   C1B62119  25.166  25.752   6.450
 8169POPC   C2B62120  25.213  25.815   6.750
 8169POPC   C3B62121  25.209  25.772   7.050
 8169POPC   C4B62122  25.238  25.793   7.350
 8170POPC   NC362123  40.789  22.156   5.550
 8170POPC   PO462124  40.751  22.147   5.850
 8170POPC   GL162125  40.831  22.177   6.150
 8170POPC   GL262126  40.764  22.253   6.150
 8170POPC   C1A62127  40.797  22.206   6.450
 8170POPC   D2A62128  40.819  22.210   6.750
 8170POPC   C3A62129  40.734  22.121   7.050
 8170POPC   C4A62130  40.824  22.192   7.350
 8170POPC   C1B62131  40.653  22.379   6.450
 8170POPC   C2B62132  40.614  22.399   6.750
 8170POPC   C3B62133  40.658  22.362   7.050
 8170POPC   C4B62134  40.647  22.401   7.350
 8171POPC   NC362135  27.606  19.841   5.550
 8171POPC   PO462136  27.560  19.829   5.850
 8171POPC   GL162137  27.561  19.790   6.150
 8171POPC   GL262138  27.742  19.881   6.150
 8171POPC   C1A62139  27.549  19.801   6.450
 8171POPC   D2A62140  27.598  19.813   6.750
 8171POPC   C3A62141  27.601  19.860   7.050
 8171POPC   C4A62142  27.634  19.821   7.350
 8171POPC   C1B62143  27.893  19.788   6.450
 8171POPC   C2B62144  27.828  19.810   6.750
 8171POPC   C3B62145  27.806  19.875   7.050
 8171POPC   C4B62146  27.862  19.808   7.350
 8172POPC   NC362147   8.188  24.474   5.550
 8172POPC   PO462148   8.179  24.445   5.850
 8172POPC   GL162149   8.228  24.479   6.150
 8172POPC   GL262150   8.339  24.515   6.150
 8172POPC   C1A62151   8.183  24.475   6.450
 8172POPC   D2A62152   8.190  24.512   6.750
 8172POPC   C3A62153   8.209  24.449   7.050
 8172POPC   C4A62154   8.177  24.450   7.350
 8172POPC   C1B62155   8.397  24.640   6.450
 8172POPC   C2B62156   8.426  24.614   6.750
 8172POPC   C3B62157   8.448  24.660   7.050
 8172POPC   C4B62158   8.406  24.650   7.350
 8173POPC   NC362159  36.151   6.600   5.550
 8173POPC   PO462160  36.125   6.631   5.850
 8173POPC   GL162161  36.121   6.671   6.150
 8173POPC   GL262162  36.141   6.486   6.150
 8173POPC   C1A62163  36.150   6.686   6.450
 8173POPC   D2A62164  36.176   6.602   6.750
 8173POPC   C3A62165  36.116   6.618   7.050
 8173POPC   C4A62166  36.087   6.607   7.350
 8173POPC   C1B62167  36.207   6.432   6.450
 8173POPC   C2B62168  36.164   6.367   6.750
 8173POPC   C3B62169  36.201   6.437   7.050
 8173POPC   C4B62170  36.135   6.384   7.350
 8174POPC   NC362171  38.418  27.615   5.550
 8174POPC   PO462172  38.427  27.548   5.850
 8174POPC   GL162173  38.496  27.555   6.150
 8174POPC   GL262174  38.355  27.533   6.150
 8174POPC   C1A62175  38.499  27.608   6.450
 8174POPC   D2A62176  38.483  27.558   6.750
 8174POPC   C3A62177  38.473  27.572   7.050
 8174POPC   C4A62178  38.447  27.579   7.350
 8174POPC   C1B62179  38.242  27.541   6.450
 8174POPC   C2B62180  38.261  27.484   6.750
 8174POPC   C3B62181  38.212  27.526   7.050
 8174POPC   C4B62182  38.259  27.510   7.350
 8175POPC   NC362183  23.712  21.407   5.550
 8175POPC   PO462184  23.752  21.398   5.850
 8175POPC   GL162185  23.687  21.401   6.150
 8175POPC   GL262186  23.807  21.398   6.150
 8175POPC   C1A62187  23.680  21.379   6.450
 8175POPC   D2A62188  23.706  21.354   6.750
 8175POPC   C3A62189  23.668  21.385   7.050
 8175POPC   C4A62190  23.668  21.389   7.350
 8175POPC   C1B62191  23.902  21.510   6.450
 8175POPC   C2B62192  23.930  21.471   6.750
 8175POPC   C3B62193  23.978  21.552   7.050
 8175POPC   C4B62194  23.964  21.487   7.350
 8176POPC   NC362195   7.426  27.551   5.550
 8176POPC   PO462196   7.462  27.576   5.850
 8176POPC   GL162197   7.449  27.610   6.150
 8176POPC   GL262198   7.492  27.679   6.150
 8176POPC   C1A62199   7.463  27.617   6.450
 8176POPC   D2A62200   7.418  27.637   6.750
 8176POPC   C3A62201   7.455  27.584   7.050
 8176POPC   C4A62202   7.419  27.605   7.350
 8176POPC   C1B62203   7.555  27.810   6.450
 8176POPC   C2B62204   7.548  27.839   6.750
 8176POPC   C3B62205   7.568  27.838   7.050
 8176POPC   C4B62206   7.504  27.808   7.350
 8177POPC   NC362207   2.018   1.207   5.550
 8177POPC   PO462208   2.017   1.181   5.850
 8177POPC   GL162209   2.013   1.198   6.150
 8177POPC   GL262210   2.121   1.272   6.150
 8177POPC   C1A62211   2.009   1.189   6.450
 8177POPC   D2A62212   1.983   1.182   6.750
 8177POPC   C3A62213   1.961   1.260   7.050
 8177POPC   C4A62214   1.977   1.212   7.350
 8177POPC   C1B62215   2.169   1.293   6.450
 8177POPC   C2B62216   2.261   1.335   6.750
 8177POPC   C3B62217   2.258   1.292   7.050
 8177POPC   C4B62218   2.189   1.350   7.350
 8178POPC   NC362219  40.750   5.116   5.550
 8178POPC   PO462220  40.763   5.123   5.850
 8178POPC   GL162221  40.738   5.098   6.150
 8178POPC   GL262222  40.946   5.094   6.150
 8178POPC   C1A62223  40.789   5.122   6.450
 8178POPC   D2A62224  40.750   5.056   6.750
 8178POPC   C3A62225  40.751   5.072   7.050
 8178POPC   C4A62226  40.831   5.110   7.350
 8178POPC   C1B62227  41.009   5.127   6.450
 8178POPC   C2B62228  41.026   5.208   6.750
 8178POPC   C3B62229  40.984   5.122   7.050
 8178POPC   C4B62230  41.030   5.169   7.350
 8179POPC   NC362231  43.157  11.288   5.550
 8179POPC   PO462232  43.130  11.250   5.850
 8179POPC   GL162233  43.092  11.311   6.150
 8179POPC   GL262234  43.258  11.304   6.150
 8179POPC   C1A62235  43.064  11.288   6.450
 8179POPC   D2A62236  43.120  11.300   6.750
 8179POPC   C3A62237  43.096  11.325   7.050
 8179POPC   C4A62238  43.112  11.315   7.350
 8179POPC   C1B62239  43.336  11.217   6.450
 8179POPC   C2B62240  43.396  11.214   6.750
 8179POPC   C3B62241  43.404  11.263   7.050
 8179POPC   C4B62242  43.309  11.212   7.350
 8180POPC   NC362243  19.806  32.241   5.550
 8180POPC   PO462244  19.866  32.253   5.850
 8180POPC   GL162245  19.853  32.204   6.150
 8180POPC   GL262246  19.757  32.162   6.150
 8180POPC   C1A62247  19.849  32.265   6.450
 8180POPC   D2A62248  19.858  32.225   6.750
 8180POPC   C3A62249  19.791  32.276   7.050
 8180POPC   C4A62250  19.814  32.255   7.350
 8180POPC   C1B62251  19.596  32.160   6.450
 8180POPC   C2B62252  19.626  32.146   6.750
 8180POPC   C3B62253  19.576  32.167   7.050
 8180POPC   C4B62254  19.647  32.124   7.350
 8181POPC   NC362255   3.530  34.591   5.550
 8181POPC   PO462256   3.571  34.527   5.850
 8181POPC   GL162257   3.525  34.579   6.150
 8181POPC   GL262258   3.467  34.492   6.150
 8181POPC   C1A62259   3.546  34.544   6.450
 8181POPC   D2A62260   3.569  34.585   6.750
 8181POPC   C3A62261   3.559  34.545   7.050
 8181POPC   C4A62262   3.526  34.607   7.350
 8181POPC   C1B62263   3.438  34.375   6.450
 8181POPC   C2B62264   3.460  34.390   6.750
 8181POPC   C3B62265   3.390  34.308   7.050
 8181POPC   C4B62266   3.406  34.325   7.350
 8182POPC   NC362267  32.274  11.259   5.550
 8182POPC   PO462268  32.273  11.301   5.850
 8182POPC   GL162269  32.210  11.337   6.150
 8182POPC   GL262270  32.126  11.375   6.150
 8182POPC   C1A62271  32.256  11.266   6.450
 8182POPC   D2A62272  32.270  11.325   6.750
 8182POPC   C3A62273  32.293  11.287   7.050
 8182POPC   C4A62274  32.199  11.280   7.350
 8182POPC   C1B62275  32.062  11.398   6.450
 8182POPC   C2B62276  32.087  11.408   6.750
 8182POPC   C3B62277  32.045  11.475   7.050
 8182POPC   C4B62278  32.029  11.465   7.350
 8183POPC   NC362279  27.560  32.252   5.550
 8183POPC   PO462280  27.595  32.246   5.850
 8183POPC   GL162281  27.593  32.267   6.150
 8183POPC   GL262282  27.507  32.337   6.150
 8183POPC   C1A62283  27.582  32.264   6.450
 8183POPC   D2A62284  27.608  32.222   6.750
 8183POPC   C3A62285  27.583  32.241   7.050
 8183POPC   C4A62286  27.597  32.250   7.350
 8183POPC   C1B62287  27.469  32.464   6.450
 8183POPC   C2B62288  27.434  32.416   6.750
 8183POPC   C3B62289  27.460  32.472   7.050
 8183POPC   C4B62290  27.505  32.425   7.350
 8184POPC   NC362291   8.148   1.176   5.550
 8184POPC   PO462292   8.234   1.170   5.850
 8184POPC   GL162293   8.214   1.167   6.150
 8184POPC   GL262294   8.295   1.258   6.150
 8184POPC   C1A62295   8.170   1.183   6.450
 8184POPC   D2A62296   8.234   1.166   6.750
 8184POPC   C3A62297   8.231   1.230   7.050
 8184POPC   C4A62298   8.167   1.212   7.350
 8184POPC   C1B62299   8.370   1.404   6.450
 8184POPC   C2B62300   8.410   1.376   6.750
 8184POPC   C3B62301   8.372   1.322   7.050
 8184POPC   C4B62302   8.405   1.325   7.350
 8185POPC   NC362303   7.415  32.975   5.550
 8185POPC   PO462304   7.384  33.069   5.850
 8185POPC   GL162305   7.448  32.988   6.150
 8185POPC   GL262306   7.304  32.933   6.150
 8185POPC   C1A62307   7.401  33.001   6.450
 8185POPC   D2A62308   7.396  32.986   6.750
 8185POPC   C3A62309   7.446  33.047   7.050
 8185POPC   C4A62310   7.381  32.991   7.350
 8185POPC   C1B62311   7.168  32.905   6.450
 8185POPC   C2B62312   7.198  32.981   6.750
 8185POPC   C3B62313   7.182  32.972   7.050
 8185POPC   C4B62314   7.181  32.898   7.350
 8186POPC   NC362315  36.149  39.973   5.550
 8186POPC   PO462316  36.170  39.984   5.850
 8186POPC   GL162317  36.173  40.013   6.150
 8186POPC   GL262318  36.201  40.045   6.150
 8186POPC   C1A62319  36.111  39.996   6.450
 8186POPC   D2A62320  36.143  40.015   6.750
 8186POPC   C3A62321  36.127  40.035   7.050
 8186POPC   C4A62322  36.093  39.994   7.350
 8186POPC   C1B62323  36.350  40.066   6.450
 8186POPC   C2B62324  36.363  40.067   6.750
 8186POPC   C3B62325  36.389  40.044   7.050
 8186POPC   C4B62326  36.422  40.063   7.350
 8187POPC   NC362327   8.175   4.344   5.550
 8187POPC   PO462328   8.171   4.290   5.850
 8187POPC   GL162329   8.170   4.330   6.150
 8187POPC   GL262330   8.114   4.425   6.150
 8187POPC   C1A62331   8.206   4.283   6.450
 8187POPC   D2A62332   8.203   4.273   6.750
 8187POPC   C3A62333   8.203   4.334   7.050
 8187POPC   C4A62334   8.173   4.330   7.350
 8187POPC   C1B62335   8.063   4.530   6.450
 8187POPC   C2B62336   8.034   4.536   6.750
 8187POPC   C3B62337   8.085   4.567   7.050
 8187POPC   C4B62338   8.036   4.517   7.350
 8188POPC   NC362339  17.536  19.868   5.550
 8188POPC   PO462340  17.544  19.852   5.850
 8188POPC   GL162341  17.545  19.814   6.150
 8188POPC   GL262342  17.597  19.808   6.150
 8188POPC   C1A62343  17.470  19.878   6.450
 8188POPC   D2A62344  17.496  19.804   6.750
 8188POPC   C3A62345  17.510  19.810   7.050
 8188POPC   C4A62346  17.466  19.832   7.350
 8188POPC   C1B62347  17.780  19.743   6.450
 8188POPC   C2B62348  17.743  19.811   6.750
 8188POPC   C3B62349  17.716  19.786   7.050
 8188POPC   C4B62350  17.714  19.755   7.350
 8189POPC   NC362351  33.001   8.985   5.550
 8189POPC   PO462352  33.006   8.964   5.850
 8189POPC   GL162353  33.070   8.968   6.150
 8189POPC   GL262354  32.911   8.911   6.150
 8189POPC   C1A62355  33.071   8.991   6.450
 8189POPC   D2A62356  33.054   8.972   6.750
 8189POPC   C3A62357  32.977   8.972   7.050
 8189POPC   C4A62358  33.035   8.997   7.350
 8189POPC   C1B62359  32.894   8.810   6.450
 8189POPC   C2B62360  32.842   8.788   6.750
 8189POPC   C3B62361  32.832   8.784   7.050
 8189POPC   C4B62362  32.830   8.790   7.350
 8190POPC   NC362363  42.292  26.834   5.550
 8190POPC   PO462364  42.332  26.811   5.850
 8190POPC   GL162365  42.380  26.860   6.150
 8190POPC   GL262366  42.277  26.668   6.150
 8190POPC   C1A62367  42.352  26.848   6.450
 8190POPC   D2A62368  42.327  26.866   6.750
 8190POPC   C3A62369  42.306  26.778   7.050
 8190POPC   C4A62370  42.372  26.813   7.350
 8190POPC   C1B62371  42.260  26.607   6.450
 8190POPC   C2B62372  42.251  26.572   6.750
 8190POPC   C3B62373  42.228  26.552   7.050
 8190POPC   C4B62374  42.269  26.544   7.350
 8191POPC   NC362375  24.519  22.139   5.550
 8191POPC   PO462376  24.487  22.194   5.850
 8191POPC   GL162377  24.472  22.194   6.150
 8191POPC   GL262378  24.442  22.310   6.150
 8191POPC   C1A62379  24.527  22.163   6.450
 8191POPC   D2A62380  24.538  22.198   6.750
 8191POPC   C3A62381  24.480  22.123   7.050
 8191POPC   C4A62382  24.486  22.191   7.350
 8191POPC   C1B62383  24.489  22.460   6.450
 8191POPC   C2B62384  24.492  22.439   6.750
 8191POPC   C3B62385  24.516  22.444   7.050
 8191POPC   C4B62386  24.475  22.371   7.350
 8192POPC   NC362387  41.559  22.965   5.550
 8192POPC   PO462388  41.577  22.918   5.850
 8192POPC   GL162389  41.510  22.929   6.150
 8192POPC   GL262390  41.607  23.006   6.150
 8192POPC   C1A62391  41.531  22.953   6.450
 8192POPC   D2A62392  41.552  22.980   6.750
 8192POPC   C3A62393  41.537  22.985   7.050
 8192POPC   C4A62394  41.548  22.943   7.350
 8192POPC   C1B62395  41.683  23.127   6.450
 8192POPC   C2B62396  41.633  23.215   6.750
 8192POPC   C3B62397  41.664  23.203   7.050
 8192POPC   C4B62398  41.623  23.164   7.350
 8193POPC   NC362399   9.760   2.791   5.550
 8193POPC   PO462400   9.755   2.769   5.850
 8193POPC   GL162401   9.779   2.797   6.150
 8193POPC   GL262402   9.806   2.842   6.150
 8193POPC   C1A62403   9.747   2.803   6.450
 8193POPC   D2A62404   9.709   2.801   6.750
 8193POPC   C3A62405   9.795   2.763   7.050
 8193POPC   C4A62406   9.758   2.738   7.350
 8193POPC   C1B62407   9.814   2.983   6.450
 8193POPC   C2B62408   9.809   2.974   6.750
 8193POPC   C3B62409   9.844   3.037   7.050
 8193POPC   C4B62410   9.870   3.007   7.350
 8194POPC   NC362411   9.791   0.390   5.550
 8194POPC   PO462412   9.734   0.462   5.850
 8194POPC   GL162413   9.791   0.484   6.150
 8194POPC   GL262414   9.875   0.515   6.150
 8194POPC   C1A62415   9.731   0.399   6.450
 8194POPC   D2A62416   9.700   0.478   6.750
 8194POPC   C3A62417   9.785   0.470   7.050
 8194POPC   C4A62418   9.787   0.482   7.350
 8194POPC   C1B62419   9.926   0.612   6.450
 8194POPC   C2B62420   9.908   0.611   6.750
 8194POPC   C3B62421   9.927   0.653   7.050
 8194POPC   C4B62422   9.904   0.612   7.350
 8195POPC   NC362423  12.051   9.730   5.550
 8195POPC   PO462424  12.094   9.764   5.850
 8195POPC   GL162425  12.028   9.720   6.150
 8195POPC   GL262426  11.989   9.683   6.150
 8195POPC   C1A62427  12.125   9.752   6.450
 8195POPC   D2A62428  12.107   9.703   6.750
 8195POPC   C3A62429  12.045   9.764   7.050
 8195POPC   C4A62430  12.079   9.732   7.350
 8195POPC   C1B62431  11.788   9.720   6.450
 8195POPC   C2B62432  11.786   9.689   6.750
 8195POPC   C3B62433  11.882   9.668   7.050
 8195POPC   C4B62434  11.838   9.699   7.350
 8196POPC   NC362435   6.656  43.884   5.550
 8196POPC   PO462436   6.649  43.895   5.850
 8196POPC   GL162437   6.622  43.898   6.150
 8196POPC   GL262438   6.599  44.052   6.150
 8196POPC   C1A62439   6.603  43.838   6.450
 8196POPC   D2A62440   6.658  43.897   6.750
 8196POPC   C3A62441   6.612  43.877   7.050
 8196POPC   C4A62442   6.642  43.899   7.350
 8196POPC   C1B62443   6.633  44.181   6.450
 8196POPC   C2B62444   6.651  44.182   6.750
 8196POPC   C3B62445   6.605  44.119   7.050
 8196POPC   C4B62446   6.620  44.160   7.350
 8197POPC   NC362447  42.340  16.699   5.550
 8197POPC   PO462448  42.357  16.711   5.850
 8197POPC   GL162449  42.315  16.703   6.150
 8197POPC   GL262450  42.489  16.675   6.150
 8197POPC   C1A62451  42.290  16.708   6.450
 8197POPC   D2A62452  42.345  16.758   6.750
 8197POPC   C3A62453  42.338  16.769   7.050
 8197POPC   C4A62454  42.326  16.709   7.350
 8197POPC   C1B62455  42.567  16.608   6.450
 8197POPC   C2B62456  42.544  16.625   6.750
 8197POPC   C3B62457  42.544  16.644   7.050
 8197POPC   C4B62458  42.505  16.569   7.350
 8198POPC   NC362459  28.328   9.002   5.550
 8198POPC   PO462460  28.406   8.960   5.850
 8198POPC   GL162461  28.389   8.992   6.150
 8198POPC   GL262462  28.298   9.110   6.150
 8198POPC   C1A62463  28.382   8.969   6.450
 8198POPC   D2A62464  28.395   9.022   6.750
 8198POPC   C3A62465  28.361   8.959   7.050
 8198POPC   C4A62466  28.330   9.007   7.350
 8198POPC   C1B62467  28.255   9.154   6.450
 8198POPC   C2B62468  28.261   9.191   6.750
 8198POPC   C3B62469  28.229   9.158   7.050
 8198POPC   C4B62470  28.229   9.206   7.350
 8199POPC   NC362471   8.987  24.497   5.550
 8199POPC   PO462472   9.003  24.446   5.850
 8199POPC   GL162473   8.986  24.524   6.150
 8199POPC   GL262474   8.999  24.400   6.150
 8199POPC   C1A62475   9.014  24.443   6.450
 8199POPC   D2A62476   9.019  24.445   6.750
 8199POPC   C3A62477   8.996  24.503   7.050
 8199POPC   C4A62478   8.974  24.441   7.350
 8199POPC   C1B62479   9.021  24.201   6.450
 8199POPC   C2B62480   9.034  24.213   6.750
 8199POPC   C3B62481   9.062  24.198   7.050
 8199POPC   C4B62482   9.073  24.296   7.350
 8200POPC   NC362483  34.586  17.554   5.550
 8200POPC   PO462484  34.612  17.510   5.850
 8200POPC   GL162485  34.573  17.525   6.150
 8200POPC   GL262486  34.626  17.616   6.150
 8200POPC   C1A62487  34.555  17.475   6.450
 8200POPC   D2A62488  34.544  17.483   6.750
 8200POPC   C3A62489  34.559  17.461   7.050
 8200POPC   C4A62490  34.570  17.488   7.350
 8200POPC   C1B62491  34.684  17.678   6.450
 8200POPC   C2B62492  34.725  17.720   6.750
 8200POPC   C3B62493  34.736  17.770   7.050
 8200POPC   C4B62494  34.681  17.759   7.350
 8201POPC   NC362495  23.757  44.631   5.550
 8201POPC   PO462496  23.687  44.701   5.850
 8201POPC   GL162497  23.713  44.626   6.150
 8201POPC   GL262498  23.555  44.737   6.150
 8201POPC   C1A62499  23.745  44.697   6.450
 8201POPC   D2A62500  23.744  44.625   6.750
 8201POPC   C3A62501  23.701  44.702   7.050
 8201POPC   C4A62502  23.670  44.700   7.350
 8201POPC   C1B62503  23.459  44.722   6.450
 8201POPC   C2B62504  23.477  44.730   6.750
 8201POPC   C3B62505  23.422  44.705   7.050
 8201POPC   C4B62506  23.478  44.746   7.350
 8202POPC   NC362507  41.526  39.212   5.550
 8202POPC   PO462508  41.590  39.256   5.850
 8202POPC   GL162509  41.591  39.249   6.150
 8202POPC   GL262510  41.637  39.226   6.150
 8202POPC   C1A62511  41.588  39.270   6.450
 8202POPC   D2A62512  41.509  39.238   6.750
 8202POPC   C3A62513  41.510  39.213   7.050
 8202POPC   C4A62514  41.545  39.262   7.350
 8202POPC   C1B62515  41.811  39.232   6.450
 8202POPC   C2B62516  41.852  39.228   6.750
 8202POPC   C3B62517  41.773  39.193   7.050
 8202POPC   C4B62518  41.787  39.183   7.350
 8203POPC   NC362519   2.815   8.151   5.550
 8203POPC   PO462520   2.737   8.182   5.850
 8203POPC   GL162521   2.745   8.234   6.150
 8203POPC   GL262522   2.648   8.306   6.150
 8203POPC   C1A62523   2.747   8.170   6.450
 8203POPC   D2A62524   2.804   8.154   6.750
 8203POPC   C3A62525   2.795   8.206   7.050
 8203POPC   C4A62526   2.717   8.193   7.350
 8203POPC   C1B62527   2.581   8.394   6.450
 8203POPC   C2B62528   2.618   8.316   6.750
 8203POPC   C3B62529   2.571   8.379   7.050
 8203POPC   C4B62530   2.546   8.380   7.350
 8204POPC   NC362531  11.320   1.188   5.550
 8204POPC   PO462532  11.281   1.205   5.850
 8204POPC   GL162533  11.263   1.212   6.150
 8204POPC   GL262534  11.196   1.089   6.150
 8204POPC   C1A62535  11.312   1.178   6.450
 8204POPC   D2A62536  11.334   1.248   6.750
 8204POPC   C3A62537  11.325   1.183   7.050
 8204POPC   C4A62538  11.291   1.170   7.350
 8204POPC   C1B62539  11.172   1.032   6.450
 8204POPC   C2B62540  11.179   1.015   6.750
 8204POPC   C3B62541  11.155   1.034   7.050
 8204POPC   C4B62542  11.177   0.993   7.350
 8205POPC   NC362543  38.445   9.744   5.550
 8205POPC   PO462544  38.453   9.751   5.850
 8205POPC   GL162545  38.490   9.719   6.150
 8205POPC   GL262546  38.495   9.876   6.150
 8205POPC   C1A62547  38.487   9.792   6.450
 8205POPC   D2A62548  38.492   9.769   6.750
 8205POPC   C3A62549  38.502   9.796   7.050
 8205POPC   C4A62550  38.502   9.797   7.350
 8205POPC   C1B62551  38.525   9.980   6.450
 8205POPC   C2B62552  38.546   9.960   6.750
 8205POPC   C3B62553  38.614   9.971   7.050
 8205POPC   C4B62554  38.582   9.991   7.350
 8206POPC   NC362555  32.232  29.889   5.550
 8206POPC   PO462556  32.292  29.874   5.850
 8206POPC   GL162557  32.235  29.908   6.150
 8206POPC   GL262558  32.210  30.037   6.150
 8206POPC   C1A62559  32.281  29.923   6.450
 8206POPC   D2A62560  32.298  29.928   6.750
 8206POPC   C3A62561  32.266  29.891   7.050
 8206POPC   C4A62562  32.270  29.961   7.350
 8206POPC   C1B62563  32.201  30.145   6.450
 8206POPC   C2B62564  32.274  30.196   6.750
 8206POPC   C3B62565  32.280  30.162   7.050
 8206POPC   C4B62566  32.229  30.216   7.350
 8207POPC   NC362567  16.764  36.944   5.550
 8207POPC   PO462568  16.753  36.893   5.850
 8207POPC   GL162569  16.747  36.899   6.150
 8207POPC   GL262570  16.759  36.985   6.150
 8207POPC   C1A62571  16.713  36.935   6.450
 8207POPC   D2A62572  16.692  36.894   6.750
 8207POPC   C3A62573  16.734  36.928   7.050
 8207POPC   C4A62574  16.743  36.906   7.350
 8207POPC   C1B62575  16.832  37.109   6.450
 8207POPC   C2B62576  16.828  37.152   6.750
 8207POPC   C3B62577  16.858  37.129   7.050
 8207POPC   C4B62578  16.870  37.162   7.350
 8208POPC   NC362579  43.911  13.644   5.550
 8208POPC   PO462580  43.868  13.666   5.850
 8208POPC   GL162581  43.852  13.630   6.150
 8208POPC   GL262582  43.993  13.715   6.150
 8208POPC   C1A62583  43.841  13.612   6.450
 8208POPC   D2A62584  43.871  13.606   6.750
 8208POPC   C3A62585  43.936  13.641   7.050
 8208POPC   C4A62586  43.916  13.654   7.350
 8208POPC   C1B62587  44.041  13.730   6.450
 8208POPC   C2B62588  44.114  13.827   6.750
 8208POPC   C3B62589  44.084  13.733   7.050
 8208POPC   C4B62590  44.059  13.758   7.350
 8209POPC   NC362591  42.371  36.917   5.550
 8209POPC   PO462592  42.305  36.895   5.850
 8209POPC   GL162593  42.313  36.943   6.150
 8209POPC   GL262594  42.228  36.882   6.150
 8209POPC   C1A62595  42.384  36.945   6.450
 8209POPC   D2A62596  42.338  36.919   6.750
 8209POPC   C3A62597  42.303  36.950   7.050
 8209POPC   C4A62598  42.344  36.928   7.350
 8209POPC   C1B62599  42.109  36.856   6.450
 8209POPC   C2B62600  42.090  36.882   6.750
 8209POPC   C3B62601  42.123  36.839   7.050
 8209POPC   C4B62602  42.108  36.902   7.350
 8210POPC   NC362603  32.216  30.664   5.550
 8210POPC   PO462604  32.240  30.650   5.850
 8210POPC   GL162605  32.217  30.684   6.150
 8210POPC   GL262606  32.134  30.744   6.150
 8210POPC   C1A62607  32.264  30.690   6.450
 8210POPC   D2A62608  32.268  30.718   6.750
 8210POPC   C3A62609  32.209  30.703   7.050
 8210POPC   C4A62610  32.261  30.721   7.350
 8210POPC   C1B62611  31.966  30.760   6.450
 8210POPC   C2B62612  32.030  30.773   6.750
 8210POPC   C3B62613  31.975  30.736   7.050
 8210POPC   C4B62614  31.997  30.782   7.350
 8211POPC   NC362615   5.136  44.634   5.550
 8211POPC   PO462616   5.129  44.686   5.850
 8211POPC   GL162617   5.073  44.643   6.150
 8211POPC   GL262618   4.980  44.796   6.150
 8211POPC   C1A62619   5.098  44.696   6.450
 8211POPC   D2A62620   5.050  44.634   6.750
 8211POPC   C3A62621   5.128  44.702   7.050
 8211POPC   C4A62622   5.056  44.680   7.350
 8211POPC   C1B62623   4.870  44.805   6.450
 8211POPC   C2B62624   4.881  44.839   6.750
 8211POPC   C3B62625   4.901  44.845   7.050
 8211POPC   C4B62626   4.883  44.870   7.350
 8212POPC   NC362627  13.600  12.049   5.550
 8212POPC   PO462628  13.591  12.108   5.850
 8212POPC   GL162629  13.615  12.065   6.150
 8212POPC   GL262630  13.681  12.008   6.150
 8212POPC   C1A62631  13.582  12.048   6.450
 8212POPC   D2A62632  13.612  12.113   6.750
 8212POPC   C3A62633  13.668  12.059   7.050
 8212POPC   C4A62634  13.670  12.033   7.350
 8212POPC   C1B62635  13.838  11.909   6.450
 8212POPC   C2B62636  13.793  11.941   6.750
 8212POPC   C3B62637  13.828  11.879   7.050
 8212POPC   C4B62638  13.794  11.955   7.350
 8213POPC   NC362639   8.191  22.956   5.550
 8213POPC   PO462640   8.163  22.985   5.850
 8213POPC   GL162641   8.158  22.914   6.150
 8213POPC   GL262642   8.185  23.105   6.150
 8213POPC   C1A62643   8.214  22.987   6.450
 8213POPC   D2A62644   8.215  22.975   6.750
 8213POPC   C3A62645   8.220  22.932   7.050
 8213POPC   C4A62646   8.206  22.956   7.350
 8213POPC   C1B62647   8.122  23.148   6.450
 8213POPC   C2B62648   8.181  23.156   6.750
 8213POPC   C3B62649   8.138  23.137   7.050
 8213POPC   C4B62650   8.148  23.184   7.350
 8214POPC   NC362651  43.061   9.721   5.550
 8214POPC   PO462652  43.112   9.728   5.850
 8214POPC   GL162653  43.155   9.782   6.150
 8214POPC   GL262654  43.240   9.843   6.150
 8214POPC   C1A62655  43.115   9.737   6.450
 8214POPC   D2A62656  43.067   9.716   6.750
 8214POPC   C3A62657  43.074   9.726   7.050
 8214POPC   C4A62658  43.102   9.750   7.350
 8214POPC   C1B62659  43.282   9.957   6.450
 8214POPC   C2B62660  43.296   9.909   6.750
 8214POPC   C3B62661  43.280   9.947   7.050
 8214POPC   C4B62662  43.245   9.882   7.350
 8215POPC   NC362663  43.848  20.610   5.550
 8215POPC   PO462664  43.891  20.654   5.850
 8215POPC   GL162665  43.933  20.563   6.150
 8215POPC   GL262666  43.733  20.599   6.150
 8215POPC   C1A62667  43.861  20.570   6.450
 8215POPC   D2A62668  43.861  20.586   6.750
 8215POPC   C3A62669  43.895  20.590   7.050
 8215POPC   C4A62670  43.902  20.620   7.350
 8215POPC   C1B62671  43.677  20.646   6.450
 8215POPC   C2B62672  43.684  20.617   6.750
 8215POPC   C3B62673  43.588  20.571   7.050
 8215POPC   C4B62674  43.657  20.654   7.350
 8216POPC   NC362675  24.525   4.294   5.550
 8216POPC   PO462676  24.477   4.327   5.850
 8216POPC   GL162677  24.480   4.313   6.150
 8216POPC   GL262678  24.494   4.478   6.150
 8216POPC   C1A62679  24.496   4.277   6.450
 8216POPC   D2A62680  24.520   4.312   6.750
 8216POPC   C3A62681  24.461   4.276   7.050
 8216POPC   C4A62682  24.473   4.289   7.350
 8216POPC   C1B62683  24.625   4.590   6.450
 8216POPC   C2B62684  24.557   4.512   6.750
 8216POPC   C3B62685  24.586   4.581   7.050
 8216POPC   C4B62686  24.537   4.543   7.350
 8217POPC   NC362687  29.889  22.927   5.550
 8217POPC   PO462688  29.967  22.961   5.850
 8217POPC   GL162689  29.910  22.939   6.150
 8217POPC   GL262690  30.041  22.812   6.150
 8217POPC   C1A62691  29.920  22.890   6.450
 8217POPC   D2A62692  29.953  22.940   6.750
 8217POPC   C3A62693  29.958  22.939   7.050
 8217POPC   C4A62694  29.959  22.893   7.350
 8217POPC   C1B62695  30.107  22.733   6.450
 8217POPC   C2B62696  30.118  22.780   6.750
 8217POPC   C3B62697  30.061  22.750   7.050
 8217POPC   C4B62698  30.089  22.777   7.350
 8218POPC   NC362699  29.905  40.826   5.550
 8218POPC   PO462700  29.922  40.787   5.850
 8218POPC   GL162701  29.951  40.782   6.150
 8218POPC   GL262702  29.752  40.782   6.150
 8218POPC   C1A62703  29.885  40.785   6.450
 8218POPC   D2A62704  29.923  40.806   6.750
 8218POPC   C3A62705  29.913  40.781   7.050
 8218POPC   C4A62706  29.952  40.798   7.350
 8218POPC   C1B62707  29.674  40.811   6.450
 8218POPC   C2B62708  29.682  40.852   6.750
 8218POPC   C3B62709  29.693  40.764   7.050
 8218POPC   C4B62710  29.678  40.770   7.350
 8219POPC   NC362711   4.290   5.103   5.550
 8219POPC   PO462712   4.328   5.059   5.850
 8219POPC   GL162713   4.285   5.116   6.150
 8219POPC   GL262714   4.399   5.145   6.150
 8219POPC   C1A62715   4.286   5.087   6.450
 8219POPC   D2A62716   4.307   5.077   6.750
 8219POPC   C3A62717   4.273   5.089   7.050
 8219POPC   C4A62718   4.339   5.057   7.350
 8219POPC   C1B62719   4.499   5.183   6.450
 8219POPC   C2B62720   4.564   5.236   6.750
 8219POPC   C3B62721   4.573   5.161   7.050
 8219POPC   C4B62722   4.520   5.180   7.350
 8220POPC   NC362723  16.723  29.912   5.550
 8220POPC   PO462724  16.739  29.905   5.850
 8220POPC   GL162725  16.712  29.915   6.150
 8220POPC   GL262726  16.744  30.015   6.150
 8220POPC   C1A62727  16.700  29.955   6.450
 8220POPC   D2A62728  16.686  29.906   6.750
 8220POPC   C3A62729  16.682  29.945   7.050
 8220POPC   C4A62730  16.702  29.945   7.350
 8220POPC   C1B62731  16.808  30.187   6.450
 8220POPC   C2B62732  16.832  30.184   6.750
 8220POPC   C3B62733  16.829  30.132   7.050
 8220POPC   C4B62734  16.838  30.137   7.350
 8221POPC   NC362735  15.219  28.351   5.550
 8221POPC   PO462736  15.196  28.391   5.850
 8221POPC   GL162737  15.131  28.409   6.150
 8221POPC   GL262738  15.012  28.427   6.150
 8221POPC   C1A62739  15.169  28.397   6.450
 8221POPC   D2A62740  15.184  28.410   6.750
 8221POPC   C3A62741  15.217  28.388   7.050
 8221POPC   C4A62742  15.177  28.368   7.350
 8221POPC   C1B62743  14.929  28.465   6.450
 8221POPC   C2B62744  14.961  28.442   6.750
 8221POPC   C3B62745  14.969  28.404   7.050
 8221POPC   C4B62746  14.945  28.370   7.350
 8222POPC   NC362747  33.025  13.600   5.550
 8222POPC   PO462748  33.002  13.601   5.850
 8222POPC   GL162749  33.062  13.584   6.150
 8222POPC   GL262750  33.004  13.762   6.150
 8222POPC   C1A62751  33.061  13.589   6.450
 8222POPC   D2A62752  33.054  13.612   6.750
 8222POPC   C3A62753  32.993  13.634   7.050
 8222POPC   C4A62754  32.982  13.598   7.350
 8222POPC   C1B62755  32.909  13.897   6.450
 8222POPC   C2B62756  32.866  13.893   6.750
 8222POPC   C3B62757  32.899  13.842   7.050
 8222POPC   C4B62758  32.947  13.820   7.350
 8223POPC   NC362759  13.601   6.691   5.550
 8223POPC   PO462760  13.588   6.680   5.850
 8223POPC   GL162761  13.663   6.625   6.150
 8223POPC   GL262762  13.664   6.559   6.150
 8223POPC   C1A62763  13.610   6.615   6.450
 8223POPC   D2A62764  13.659   6.608   6.750
 8223POPC   C3A62765  13.635   6.598   7.050
 8223POPC   C4A62766  13.608   6.650   7.350
 8223POPC   C1B62767  13.670   6.369   6.450
 8223POPC   C2B62768  13.664   6.443   6.750
 8223POPC   C3B62769  13.723   6.445   7.050
 8223POPC   C4B62770  13.667   6.389   7.350
 8224POPC   NC362771   1.225  40.029   5.550
 8224POPC   PO462772   1.224  40.053   5.850
 8224POPC   GL162773   1.213  39.966   6.150
 8224POPC   GL262774   1.284  40.066   6.150
 8224POPC   C1A62775   1.170  40.052   6.450
 8224POPC   D2A62776   1.234  39.976   6.750
 8224POPC   C3A62777   1.248  40.043   7.050
 8224POPC   C4A62778   1.228  40.019   7.350
 8224POPC   C1B62779   1.371  40.190   6.450
 8224POPC   C2B62780   1.375  40.173   6.750
 8224POPC   C3B62781   1.307  40.254   7.050
 8224POPC   C4B62782   1.367  40.214   7.350
 8225POPC   NC362783  17.544  17.516   5.550
 8225POPC   PO462784  17.514  17.523   5.850
 8225POPC   GL162785  17.518  17.552   6.150
 8225POPC   GL262786  17.517  17.369   6.150
 8225POPC   C1A62787  17.497  17.467   6.450
 8225POPC   D2A62788  17.535  17.540   6.750
 8225POPC   C3A62789  17.518  17.515   7.050
 8225POPC   C4A62790  17.461  17.509   7.350
 8225POPC   C1B62791  17.569  17.279   6.450
 8225POPC   C2B62792  17.572  17.317   6.750
 8225POPC   C3B62793  17.645  17.284   7.050
 8225POPC   C4B62794  17.648  17.229   7.350
 8226POPC   NC362795  12.837  24.460   5.550
 8226POPC   PO462796  12.820  24.504   5.850
 8226POPC   GL162797  12.893  24.522   6.150
 8226POPC   GL262798  12.733  24.544   6.150
 8226POPC   C1A62799  12.814  24.463   6.450
 8226POPC   D2A62800  12.827  24.519   6.750
 8226POPC   C3A62801  12.873  24.506   7.050
 8226POPC   C4A62802  12.823  24.501   7.350
 8226POPC   C1B62803  12.638  24.593   6.450
 8226POPC   C2B62804  12.581  24.582   6.750
 8226POPC   C3B62805  12.642  24.574   7.050
 8226POPC   C4B62806  12.602  24.539   7.350
 8227POPC   NC362807  11.285  24.511   5.550
 8227POPC   PO462808  11.316  24.490   5.850
 8227POPC   GL162809  11.320  24.515   6.150
 8227POPC   GL262810  11.360  24.373   6.150
 8227POPC   C1A62811  11.309  24.486   6.450
 8227POPC   D2A62812  11.267  24.503   6.750
 8227POPC   C3A62813  11.331  24.507   7.050
 8227POPC   C4A62814  11.291  24.480   7.350
 8227POPC   C1B62815  11.451  24.346   6.450
 8227POPC   C2B62816  11.488  24.291   6.750
 8227POPC   C3B62817  11.501  24.341   7.050
 8227POPC   C4B62818  11.432  24.334   7.350
 8228POPC   NC362819  43.121  27.638   5.550
 8228POPC   PO462820  43.090  27.569   5.850
 8228POPC   GL162821  43.100  27.546   6.150
 8228POPC   GL262822  43.014  27.549   6.150
 8228POPC   C1A62823  43.132  27.624   6.450
 8228POPC   D2A62824  43.132  27.612   6.750
 8228POPC   C3A62825  43.114  27.596   7.050
 8228POPC   C4A62826  43.099  27.604   7.350
 8228POPC   C1B62827  42.901  27.559   6.450
 8228POPC   C2B62828  42.842  27.574   6.750
 8228POPC   C3B62829  42.870  27.600   7.050
 8228POPC   C4B62830  42.895  27.536   7.350
 8229POPC   NC362831  13.633  10.533   5.550
 8229POPC   PO462832  13.655  10.568   5.850
 8229POPC   GL162833  13.640  10.479   6.150
 8229POPC   GL262834  13.528  10.581   6.150
 8229POPC   C1A62835  13.666  10.529   6.450
 8229POPC   D2A62836  13.625  10.557   6.750
 8229POPC   C3A62837  13.652  10.500   7.050
 8229POPC   C4A62838  13.593  10.503   7.350
 8229POPC   C1B62839  13.403  10.660   6.450
 8229POPC   C2B62840  13.440  10.699   6.750
 8229POPC   C3B62841  13.452  10.638   7.050
 8229POPC   C4B62842  13.424  10.697   7.350
 8230POPC   NC362843  36.147  35.302   5.550
 8230POPC   PO462844  36.095  35.370   5.850
 8230POPC   GL162845  36.169  35.395   6.150
 8230POPC   GL262846  36.034  35.288   6.150
 8230POPC   C1A62847  36.137  35.401   6.450
 8230POPC   D2A62848  36.133  35.398   6.750
 8230POPC   C3A62849  36.133  35.310   7.050
 8230POPC   C4A62850  36.096  35.356   7.350
 8230POPC   C1B62851  36.056  35.130   6.450
 8230POPC   C2B62852  35.996  35.152   6.750
 8230POPC   C3B62853  36.051  35.155   7.050
 8230POPC   C4B62854  36.051  35.153   7.350
 8231POPC   NC362855  32.205  37.691   5.550
 8231POPC   PO462856  32.235  37.692   5.850
 8231POPC   GL162857  32.294  37.666   6.150
 8231POPC   GL262858  32.130  37.796   6.150
 8231POPC   C1A62859  32.297  37.654   6.450
 8231POPC   D2A62860  32.230  37.684   6.750
 8231POPC   C3A62861  32.264  37.704   7.050
 8231POPC   C4A62862  32.223  37.706   7.350
 8231POPC   C1B62863  32.053  37.871   6.450
 8231POPC   C2B62864  32.030  37.860   6.750
 8231POPC   C3B62865  32.065  37.871   7.050
 8231POPC   C4B62866  32.049  37.871   7.350
 8232POPC   NC362867  41.589   4.274   5.550
 8232POPC   PO462868  41.575   4.342   5.850
 8232POPC   GL162869  41.520   4.365   6.150
 8232POPC   GL262870  41.602   4.454   6.150
 8232POPC   C1A62871  41.598   4.360   6.450
 8232POPC   D2A62872  41.542   4.342   6.750
 8232POPC   C3A62873  41.514   4.363   7.050
 8232POPC   C4A62874  41.557   4.270   7.350
 8232POPC   C1B62875  41.721   4.505   6.450
 8232POPC   C2B62876  41.716   4.507   6.750
 8232POPC   C3B62877  41.658   4.534   7.050
 8232POPC   C4B62878  41.697   4.475   7.350
 8233POPC   NC362879  37.646  26.844   5.550
 8233POPC   PO462880  37.641  26.823   5.850
 8233POPC   GL162881  37.684  26.837   6.150
 8233POPC   GL262882  37.843  26.813   6.150
 8233POPC   C1A62883  37.635  26.802   6.450
 8233POPC   D2A62884  37.729  26.790   6.750
 8233POPC   C3A62885  37.711  26.821   7.050
 8233POPC   C4A62886  37.672  26.831   7.350
 8233POPC   C1B62887  37.893  26.750   6.450
 8233POPC   C2B62888  37.931  26.684   6.750
 8233POPC   C3B62889  37.953  26.699   7.050
 8233POPC   C4B62890  37.926  26.689   7.350
 8234POPC   NC362891  26.793  43.104   5.550
 8234POPC   PO462892  26.801  43.120   5.850
 8234POPC   GL162893  26.833  43.095   6.150
 8234POPC   GL262894  26.869  43.224   6.150
 8234POPC   C1A62895  26.856  43.148   6.450
 8234POPC   D2A62896  26.811  43.111   6.750
 8234POPC   C3A62897  26.807  43.153   7.050
 8234POPC   C4A62898  26.858  43.084   7.350
 8234POPC   C1B62899  26.958  43.240   6.450
 8234POPC   C2B62900  27.037  43.282   6.750
 8234POPC   C3B62901  27.040  43.264   7.050
 8234POPC   C4B62902  26.960  43.283   7.350
 8235POPC   NC362903  19.067  43.095   5.550
 8235POPC   PO462904  19.026  43.061   5.850
 8235POPC   GL162905  19.053  43.153   6.150
 8235POPC   GL262906  19.062  43.224   6.150
 8235POPC   C1A62907  19.041  43.070   6.450
 8235POPC   D2A62908  19.056  43.137   6.750
 8235POPC   C3A62909  19.041  43.073   7.050
 8235POPC   C4A62910  19.045  43.113   7.350
 8235POPC   C1B62911  19.000  43.325   6.450
 8235POPC   C2B62912  18.975  43.308   6.750
 8235POPC   C3B62913  18.937  43.376   7.050
 8235POPC   C4B62914  19.004  43.346   7.350
 8236POPC   NC362915  14.358   3.495   5.550
 8236POPC   PO462916  14.427   3.522   5.850
 8236POPC   GL162917  14.442   3.566   6.150
 8236POPC   GL262918  14.443   3.414   6.150
 8236POPC   C1A62919  14.357   3.524   6.450
 8236POPC   D2A62920  14.387   3.576   6.750
 8236POPC   C3A62921  14.438   3.515   7.050
 8236POPC   C4A62922  14.385   3.527   7.350
 8236POPC   C1B62923  14.557   3.343   6.450
 8236POPC   C2B62924  14.558   3.351   6.750
 8236POPC   C3B62925  14.545   3.341   7.050
 8236POPC   C4B62926  14.509   3.290   7.350
 8237POPC   NC362927  20.602  13.677   5.550
 8237POPC   PO462928  20.636  13.620   5.850
 8237POPC   GL162929  20.601  13.654   6.150
 8237POPC   GL262930  20.466  13.715   6.150
 8237POPC   C1A62931  20.575  13.595   6.450
 8237POPC   D2A62932  20.563  13.587   6.750
 8237POPC   C3A62933  20.587  13.659   7.050
 8237POPC   C4A62934  20.590  13.662   7.350
 8237POPC   C1B62935  20.410  13.769   6.450
 8237POPC   C2B62936  20.365  13.785   6.750
 8237POPC   C3B62937  20.416  13.823   7.050
 8237POPC   C4B62938  20.374  13.762   7.350
 8238POPC   NC362939   0.415  40.820   5.550
 8238POPC   PO462940   0.451  40.767   5.850
 8238POPC   GL162941   0.445  40.812   6.150
 8238POPC   GL262942   0.483  40.933   6.150
 8238POPC   C1A62943   0.395  40.734   6.450
 8238POPC   D2A62944   0.468  40.743   6.750
 8238POPC   C3A62945   0.481  40.738   7.050
 8238POPC   C4A62946   0.449  40.804   7.350
 8238POPC   C1B62947   0.497  41.014   6.450
 8238POPC   C2B62948   0.540  41.021   6.750
 8238POPC   C3B62949   0.479  41.063   7.050
 8238POPC   C4B62950   0.535  40.986   7.350
 8239POPC   NC362951  16.709  43.127   5.550
 8239POPC   PO462952  16.732  43.143   5.850
 8239POPC   GL162953  16.754  43.131   6.150
 8239POPC   GL262954  16.685  43.160   6.150
 8239POPC   C1A62955  16.737  43.159   6.450
 8239POPC   D2A62956  16.728  43.075   6.750
 8239POPC   C3A62957  16.706  43.130   7.050
 8239POPC   C4A62958  16.750  43.095   7.350
 8239POPC   C1B62959  16.618  43.296   6.450
 8239POPC   C2B62960  16.602  43.283   6.750
 8239POPC   C3B62961  16.569  43.284   7.050
 8239POPC   C4B62962  16.542  43.271   7.350
 8240POPC   NC362963   8.150  34.546   5.550
 8240POPC   PO462964   8.219  34.611   5.850
 8240POPC   GL162965   8.148  34.564   6.150
 8240POPC   GL262966   8.027  34.537   6.150
 8240POPC   C1A62967   8.171  34.554   6.450
 8240POPC   D2A62968   8.153  34.539   6.750
 8240POPC   C3A62969   8.162  34.576   7.050
 8240POPC   C4A62970   8.199  34.566   7.350
 8240POPC   C1B62971   7.993  34.574   6.450
 8240POPC   C2B62972   7.911  34.543   6.750
 8240POPC   C3B62973   7.978  34.566   7.050
 8240POPC   C4B62974   7.907  34.581   7.350
 8241POPC   NC362975  44.665  32.214   5.550
 8241POPC   PO462976  44.698  32.277   5.850
 8241POPC   GL162977  44.631  32.294   6.150
 8241POPC   GL262978  44.601  32.196   6.150
 8241POPC   C1A62979  44.616  32.223   6.450
 8241POPC   D2A62980  44.623  32.220   6.750
 8241POPC   C3A62981  44.701  32.282   7.050
 8241POPC   C4A62982  44.639  32.227   7.350
 8241POPC   C1B62983  44.495  32.105   6.450
 8241POPC   C2B62984  44.459  32.067   6.750
 8241POPC   C3B62985  44.467  32.125   7.050
 8241POPC   C4B62986  44.452  32.135   7.350
 8242POPC   NC362987  30.670  27.589   5.550
 8242POPC   PO462988  30.691  27.600   5.850
 8242POPC   GL162989  30.668  27.595   6.150
 8242POPC   GL262990  30.639  27.548   6.150
 8242POPC   C1A62991  30.722  27.589   6.450
 8242POPC   D2A62992  30.715  27.554   6.750
 8242POPC   C3A62993  30.655  27.605   7.050
 8242POPC   C4A62994  30.726  27.580   7.350
 8242POPC   C1B62995  30.513  27.446   6.450
 8242POPC   C2B62996  30.442  27.466   6.750
 8242POPC   C3B62997  30.463  27.505   7.050
 8242POPC   C4B62998  30.481  27.493   7.350
 8243POPC   NC362999  26.026  16.764   5.550
 8243POPC   PO463000  26.082  16.741   5.850
 8243POPC   GL163001  26.008  16.763   6.150
 8243POPC   GL263002  26.040  16.650   6.150
 8243POPC   C1A63003  26.076  16.727   6.450
 8243POPC   D2A63004  26.082  16.737   6.750
 8243POPC   C3A63005  26.069  16.779   7.050
 8243POPC   C4A63006  26.049  16.723   7.350
 8243POPC   C1B63007  26.159  16.461   6.450
 8243POPC   C2B63008  26.122  16.446   6.750
 8243POPC   C3B63009  26.110  16.517   7.050
 8243POPC   C4B63010  26.090  16.523   7.350
 8244POPC   NC363011  16.703   5.824   5.550
 8244POPC   PO463012  16.772   5.853   5.850
 8244POPC   GL163013  16.718   5.898   6.150
 8244POPC   GL263014  16.671   5.923   6.150
 8244POPC   C1A63015  16.757   5.887   6.450
 8244POPC   D2A63016  16.694   5.824   6.750
 8244POPC   C3A63017  16.780   5.917   7.050
 8244POPC   C4A63018  16.753   5.906   7.350
 8244POPC   C1B63019  16.540   5.941   6.450
 8244POPC   C2B63020  16.555   6.037   6.750
 8244POPC   C3B63021  16.501   5.953   7.050
 8244POPC   C4B63022  16.480   5.971   7.350
 8245POPC   NC363023   8.995   8.941   5.550
 8245POPC   PO463024   8.923   9.017   5.850
 8245POPC   GL163025   8.995   9.009   6.150
 8245POPC   GL263026   8.992   8.859   6.150
 8245POPC   C1A63027   8.924   9.009   6.450
 8245POPC   D2A63028   8.954   8.971   6.750
 8245POPC   C3A63029   8.932   8.949   7.050
 8245POPC   C4A63030   9.020   8.994   7.350
 8245POPC   C1B63031   8.929   8.732   6.450
 8245POPC   C2B63032   8.937   8.711   6.750
 8245POPC   C3B63033   8.966   8.778   7.050
 8245POPC   C4B63034   8.966   8.684   7.350
 8246POPC   NC363035  43.860   5.072   5.550
 8246POPC   PO463036  43.863   5.122   5.850
 8246POPC   GL163037  43.871   5.135   6.150
 8246POPC   GL263038  43.981   4.965   6.150
 8246POPC   C1A63039  43.844   5.114   6.450
 8246POPC   D2A63040  43.879   5.113   6.750
 8246POPC   C3A63041  43.931   5.109   7.050
 8246POPC   C4A63042  43.851   5.081   7.350
 8246POPC   C1B63043  44.076   4.911   6.450
 8246POPC   C2B63044  44.055   4.869   6.750
 8246POPC   C3B63045  43.998   4.930   7.050
 8246POPC   C4B63046  44.004   4.912   7.350
 8247POPC   NC363047  33.782  14.390   5.550
 8247POPC   PO463048  33.775  14.446   5.850
 8247POPC   GL163049  33.837  14.391   6.150
 8247POPC   GL263050  33.842  14.338   6.150
 8247POPC   C1A63051  33.808  14.435   6.450
 8247POPC   D2A63052  33.772  14.428   6.750
 8247POPC   C3A63053  33.835  14.382   7.050
 8247POPC   C4A63054  33.812  14.427   7.350
 8247POPC   C1B63055  33.918  14.164   6.450
 8247POPC   C2B63056  33.949  14.163   6.750
 8247POPC   C3B63057  33.962  14.164   7.050
 8247POPC   C4B63058  33.934  14.222   7.350
 8248POPC   NC363059  32.982  29.118   5.550
 8248POPC   PO463060  32.985  29.112   5.850
 8248POPC   GL163061  33.009  29.111   6.150
 8248POPC   GL263062  32.996  29.221   6.150
 8248POPC   C1A63063  32.997  29.183   6.450
 8248POPC   D2A63064  33.031  29.158   6.750
 8248POPC   C3A63065  33.018  29.122   7.050
 8248POPC   C4A63066  33.047  29.160   7.350
 8248POPC   C1B63067  33.009  29.375   6.450
 8248POPC   C2B63068  32.966  29.348   6.750
 8248POPC   C3B63069  32.986  29.394   7.050
 8248POPC   C4B63070  32.984  29.423   7.350
 8249POPC   NC363071   1.227   6.666   5.550
 8249POPC   PO463072   1.235   6.598   5.850
 8249POPC   GL163073   1.241   6.659   6.150
 8249POPC   GL263074   1.341   6.709   6.150
 8249POPC   C1A63075   1.199   6.627   6.450
 8249POPC   D2A63076   1.191   6.614   6.750
 8249POPC   C3A63077   1.221   6.663   7.050
 8249POPC   C4A63078   1.170   6.603   7.350
 8249POPC   C1B63079   1.470   6.717   6.450
 8249POPC   C2B63080   1.454   6.667   6.750
 8249POPC   C3B63081   1.426   6.740   7.050
 8249POPC   C4B63082   1.432   6.689   7.350
 8250POPC   NC363083  10.476  33.820   5.550
 8250POPC   PO463084  10.548  33.831   5.850
 8250POPC   GL163085  10.520  33.849   6.150
 8250POPC   GL263086  10.615  33.929   6.150
 8250POPC   C1A63087  10.498  33.750   6.450
 8250POPC   D2A63088  10.479  33.808   6.750
 8250POPC   C3A63089  10.568  33.770   7.050
 8250POPC   C4A63090  10.506  33.752   7.350
 8250POPC   C1B63091  10.637  34.013   6.450
 8250POPC   C2B63092  10.631  34.043   6.750
 8250POPC   C3B63093  10.680  34.034   7.050
 8250POPC   C4B63094  10.627  34.007   7.350
 8251POPC   NC363095  24.506  34.618   5.550
 8251POPC   PO463096  24.500  34.534   5.850
 8251POPC   GL163097  24.460  34.537   6.150
 8251POPC   GL263098  24.508  34.428   6.150
 8251POPC   C1A63099  24.502  34.566   6.450
 8251POPC   D2A63100  24.530  34.564   6.750
 8251POPC   C3A63101  24.475  34.583   7.050
 8251POPC   C4A63102  24.497  34.526   7.350
 8251POPC   C1B63103  24.464  34.309   6.450
 8251POPC   C2B63104  24.479  34.327   6.750
 8251POPC   C3B63105  24.407  34.304   7.050
 8251POPC   C4B63106  24.414  34.377   7.350
 8252POPC   NC363107   7.437  18.272   5.550
 8252POPC   PO463108   7.387  18.241   5.850
 8252POPC   GL163109   7.467  18.307   6.150
 8252POPC   GL263110   7.561  18.244   6.150
 8252POPC   C1A63111   7.446  18.291   6.450
 8252POPC   D2A63112   7.462  18.293   6.750
 8252POPC   C3A63113   7.431  18.271   7.050
 8252POPC   C4A63114   7.465  18.289   7.350
 8252POPC   C1B63115   7.691  18.309   6.450
 8252POPC   C2B63116   7.674  18.286   6.750
 8252POPC   C3B63117   7.697  18.290   7.050
 8252POPC   C4B63118   7.680  18.285   7.350
 8253POPC   NC363119  12.858  33.800   5.550
 8253POPC   PO463120  12.859  33.782   5.850
 8253POPC   GL163121  12.806  33.762   6.150
 8253POPC   GL263122  12.841  33.689   6.150
 8253POPC   C1A63123  12.829  33.775   6.450
 8253POPC   D2A63124  12.836  33.781   6.750
 8253POPC   C3A63125  12.823  33.803   7.050
 8253POPC   C4A63126  12.812  33.816   7.350
 8253POPC   C1B63127  12.821  33.511   6.450
 8253POPC   C2B63128  12.873  33.576   6.750
 8253POPC   C3B63129  12.852  33.519   7.050
 8253POPC   C4B63130  12.872  33.544   7.350
 8254POPC   NC363131  33.825  34.546   5.550
 8254POPC   PO463132  33.848  34.555   5.850
 8254POPC   GL163133  33.842  34.558   6.150
 8254POPC   GL263134  33.736  34.456   6.150
 8254POPC   C1A63135  33.802  34.611   6.450
 8254POPC   D2A63136  33.807  34.587   6.750
 8254POPC   C3A63137  33.847  34.596   7.050
 8254POPC   C4A63138  33.843  34.586   7.350
 8254POPC   C1B63139  33.590  34.404   6.450
 8254POPC   C2B63140  33.634  34.421   6.750
 8254POPC   C3B63141  33.613  34.439   7.050
 8254POPC   C4B63142  33.591  34.426   7.350
 8255POPC   NC363143  28.368  32.281   5.550
 8255POPC   PO463144  28.343  32.229   5.850
 8255POPC   GL163145  28.354  32.203   6.150
 8255POPC   GL263146  28.367  32.171   6.150
 8255POPC   C1A63147  28.325  32.281   6.450
 8255POPC   D2A63148  28.384  32.273   6.750
 8255POPC   C3A63149  28.328  32.250   7.050
 8255POPC   C4A63150  28.362  32.235   7.350
 8255POPC   C1B63151  28.348  32.017   6.450
 8255POPC   C2B63152  28.318  31.972   6.750
 8255POPC   C3B63153  28.386  31.985   7.050
 8255POPC   C4B63154  28.329  32.007   7.350
 8256POPC   NC363155  30.712   4.356   5.550
 8256POPC   PO463156  30.664   4.313   5.850
 8256POPC   GL163157  30.707   4.361   6.150
 8256POPC   GL263158  30.610   4.321   6.150
 8256POPC   C1A63159  30.678   4.322   6.450
 8256POPC   D2A63160  30.655   4.291   6.750
 8256POPC   C3A63161  30.670   4.337   7.050
 8256POPC   C4A63162  30.695   4.272   7.350
 8256POPC   C1B63163  30.403   4.413   6.450
 8256POPC   C2B63164  30.474   4.361   6.750
 8256POPC   C3B63165  30.428   4.340   7.050
 8256POPC   C4B63166  30.443   4.331   7.350
 8257POPC   NC363167  34.623   1.222   5.550
 8257POPC   PO463168  34.606   1.215   5.850
 8257POPC   GL163169  34.619   1.194   6.150
 8257POPC   GL263170  34.676   1.271   6.150
 8257POPC   C1A63171  34.531   1.239   6.450
 8257POPC   D2A63172  34.606   1.177   6.750
 8257POPC   C3A63173  34.595   1.199   7.050
 8257POPC   C4A63174  34.612   1.260   7.350
 8257POPC   C1B63175  34.836   1.196   6.450
 8257POPC   C2B63176  34.856   1.197   6.750
 8257POPC   C3B63177  34.831   1.274   7.050
 8257POPC   C4B63178  34.779   1.279   7.350
 8258POPC   NC363179  17.482  33.796   5.550
 8258POPC   PO463180  17.546  33.813   5.850
 8258POPC   GL163181  17.482  33.781   6.150
 8258POPC   GL263182  17.517  33.916   6.150
 8258POPC   C1A63183  17.465  33.835   6.450
 8258POPC   D2A63184  17.533  33.849   6.750
 8258POPC   C3A63185  17.518  33.766   7.050
 8258POPC   C4A63186  17.522  33.785   7.350
 8258POPC   C1B63187  17.518  34.070   6.450
 8258POPC   C2B63188  17.492  34.092   6.750
 8258POPC   C3B63189  17.551  34.061   7.050
 8258POPC   C4B63190  17.491  34.006   7.350
 8259POPC   NC363191  43.857   1.207   5.550
 8259POPC   PO463192  43.917   1.196   5.850
 8259POPC   GL163193  43.915   1.247   6.150
 8259POPC   GL263194  43.866   1.083   6.150
 8259POPC   C1A63195  43.934   1.194   6.450
 8259POPC   D2A63196  43.854   1.191   6.750
 8259POPC   C3A63197  43.919   1.184   7.050
 8259POPC   C4A63198  43.853   1.206   7.350
 8259POPC   C1B63199  43.924   0.928   6.450
 8259POPC   C2B63200  43.884   1.001   6.750
 8259POPC   C3B63201  43.877   0.968   7.050
 8259POPC   C4B63202  43.909   0.956   7.350
 8260POPC   NC363203  13.583   1.963   5.550
 8260POPC   PO463204  13.615   1.963   5.850
 8260POPC   GL163205  13.605   1.956   6.150
 8260POPC   GL263206  13.704   2.083   6.150
 8260POPC   C1A63207  13.674   1.971   6.450
 8260POPC   D2A63208  13.636   2.024   6.750
 8260POPC   C3A63209  13.583   2.023   7.050
 8260POPC   C4A63210  13.594   1.988   7.350
 8260POPC   C1B63211  13.812   2.130   6.450
 8260POPC   C2B63212  13.789   2.200   6.750
 8260POPC   C3B63213  13.840   2.167   7.050
 8260POPC   C4B63214  13.765   2.167   7.350
 8261POPC   NC363215  44.687  25.237   5.550
 8261POPC   PO463216  44.711  25.249   5.850
 8261POPC   GL163217  44.708  25.306   6.150
 8261POPC   GL263218  44.625  25.326   6.150
 8261POPC   C1A63219  44.648  25.301   6.450
 8261POPC   D2A63220  44.630  25.306   6.750
 8261POPC   C3A63221  44.701  25.236   7.050
 8261POPC   C4A63222  44.693  25.244   7.350
 8261POPC   C1B63223  44.489  25.430   6.450
 8261POPC   C2B63224  44.470  25.500   6.750
 8261POPC   C3B63225  44.505  25.408   7.050
 8261POPC   C4B63226  44.500  25.435   7.350
 8262POPC   NC363227   6.659  14.440   5.550
 8262POPC   PO463228   6.688  14.370   5.850
 8262POPC   GL163229   6.687  14.439   6.150
 8262POPC   GL263230   6.505  14.386   6.150
 8262POPC   C1A63231   6.632  14.385   6.450
 8262POPC   D2A63232   6.614  14.365   6.750
 8262POPC   C3A63233   6.685  14.424   7.050
 8262POPC   C4A63234   6.656  14.372   7.350
 8262POPC   C1B63235   6.359  14.381   6.450
 8262POPC   C2B63236   6.399  14.423   6.750
 8262POPC   C3B63237   6.348  14.378   7.050
 8262POPC   C4B63238   6.428  14.401   7.350
 8263POPC   NC363239  43.110   7.446   5.550
 8263POPC   PO463240  43.101   7.459   5.850
 8263POPC   GL163241  43.131   7.452   6.150
 8263POPC   GL263242  43.086   7.254   6.150
 8263POPC   C1A63243  43.144   7.397   6.450
 8263POPC   D2A63244  43.149   7.382   6.750
 8263POPC   C3A63245  43.133   7.451   7.050
 8263POPC   C4A63246  43.124   7.462   7.350
 8263POPC   C1B63247  43.118   7.168   6.450
 8263POPC   C2B63248  43.096   7.182   6.750
 8263POPC   C3B63249  43.086   7.175   7.050
 8263POPC   C4B63250  43.147   7.141   7.350
 8264POPC   NC363251  37.673  32.976   5.550
 8264POPC   PO463252  37.707  32.981   5.850
 8264POPC   GL163253  37.729  33.049   6.150
 8264POPC   GL263254  37.820  33.073   6.150
 8264POPC   C1A63255  37.658  33.059   6.450
 8264POPC   D2A63256  37.679  33.020   6.750
 8264POPC   C3A63257  37.722  33.062   7.050
 8264POPC   C4A63258  37.651  33.059   7.350
 8264POPC   C1B63259  37.927  33.058   6.450
 8264POPC   C2B63260  37.947  33.069   6.750
 8264POPC   C3B63261  37.897  33.041   7.050
 8264POPC   C4B63262  37.892  33.099   7.350
 8265POPC   NC363263  39.204  29.892   5.550
 8265POPC   PO463264  39.249  29.942   5.850
 8265POPC   GL163265  39.280  29.926   6.150
 8265POPC   GL263266  39.137  29.822   6.150
 8265POPC   C1A63267  39.182  29.895   6.450
 8265POPC   D2A63268  39.187  29.939   6.750
 8265POPC   C3A63269  39.253  29.873   7.050
 8265POPC   C4A63270  39.219  29.969   7.350
 8265POPC   C1B63271  39.047  29.696   6.450
 8265POPC   C2B63272  39.018  29.723   6.750
 8265POPC   C3B63273  39.098  29.693   7.050
 8265POPC   C4B63274  39.012  29.754   7.350
 8266POPC   NC363275  19.828   9.000   5.550
 8266POPC   PO463276  19.801   9.012   5.850
 8266POPC   GL163277  19.859   8.970   6.150
 8266POPC   GL263278  19.733   8.857   6.150
 8266POPC   C1A63279  19.790   8.983   6.450
 8266POPC   D2A63280  19.872   9.005   6.750
 8266POPC   C3A63281  19.857   8.932   7.050
 8266POPC   C4A63282  19.876   8.970   7.350
 8266POPC   C1B63283  19.641   8.851   6.450
 8266POPC   C2B63284  19.587   8.804   6.750
 8266POPC   C3B63285  19.648   8.794   7.050
 8266POPC   C4B63286  19.591   8.861   7.350
 8267POPC   NC363287   5.883  42.375   5.550
 8267POPC   PO463288   5.827  42.310   5.850
 8267POPC   GL163289   5.821  42.317   6.150
 8267POPC   GL263290   5.978  42.391   6.150
 8267POPC   C1A63291   5.883  42.352   6.450
 8267POPC   D2A63292   5.833  42.349   6.750
 8267POPC   C3A63293   5.882  42.295   7.050
 8267POPC   C4A63294   5.919  42.348   7.350
 8267POPC   C1B63295   6.113  42.458   6.450
 8267POPC   C2B63296   6.129  42.411   6.750
 8267POPC   C3B63297   6.117  42.397   7.050
 8267POPC   C4B63298   6.141  42.461   7.350
 8268POPC   NC363299  17.498   3.497   5.550
 8268POPC   PO463300  17.548   3.510   5.850
 8268POPC   GL163301  17.499   3.496   6.150
 8268POPC   GL263302  17.488   3.407   6.150
 8268POPC   C1A63303  17.553   3.504   6.450
 8268POPC   D2A63304  17.528   3.543   6.750
 8268POPC   C3A63305  17.521   3.534   7.050
 8268POPC   C4A63306  17.506   3.576   7.350
 8268POPC   C1B63307  17.424   3.327   6.450
 8268POPC   C2B63308  17.477   3.334   6.750
 8268POPC   C3B63309  17.461   3.268   7.050
 8268POPC   C4B63310  17.413   3.277   7.350
 8269POPC   NC363311  44.616  44.677   5.550
 8269POPC   PO463312  44.648  44.677   5.850
 8269POPC   GL163313  44.658  44.698   6.150
 8269POPC   GL263314  44.676  44.564   6.150
 8269POPC   C1A63315  44.616  44.656   6.450
 8269POPC   D2A63316  44.678  44.691   6.750
 8269POPC   C3A63317  44.666  44.681   7.050
 8269POPC   C4A63318  44.650  44.699   7.350
 8269POPC   C1B63319  44.586  44.465   6.450
 8269POPC   C2B63320  44.612  44.372   6.750
 8269POPC   C3B63321  44.635  44.452   7.050
 8269POPC   C4B63322  44.622  44.432   7.350
 8270POPC   NC363323  14.378  33.787   5.550
 8270POPC   PO463324  14.391  33.784   5.850
 8270POPC   GL163325  14.441  33.763   6.150
 8270POPC   GL263326  14.489  33.953   6.150
 8270POPC   C1A63327  14.358  33.792   6.450
 8270POPC   D2A63328  14.446  33.753   6.750
 8270POPC   C3A63329  14.378  33.816   7.050
 8270POPC   C4A63330  14.407  33.776   7.350
 8270POPC   C1B63331  14.509  34.041   6.450
 8270POPC   C2B63332  14.531  34.064   6.750
 8270POPC   C3B63333  14.487  34.039   7.050
 8270POPC   C4B63334  14.518  34.041   7.350
 8271POPC   NC363335   1.194  41.542   5.550
 8271POPC   PO463336   1.166  41.586   5.850
 8271POPC   GL163337   1.173  41.569   6.150
 8271POPC   GL263338   1.291  41.582   6.150
 8271POPC   C1A63339   1.249  41.608   6.450
 8271POPC   D2A63340   1.230  41.546   6.750
 8271POPC   C3A63341   1.241  41.528   7.050
 8271POPC   C4A63342   1.166  41.552   7.350
 8271POPC   C1B63343   1.428  41.621   6.450
 8271POPC   C2B63344   1.437  41.702   6.750
 8271POPC   C3B63345   1.407  41.636   7.050
 8271POPC   C4B63346   1.413  41.647   7.350
 8272POPC   NC363347  40.769  21.387   5.550
 8272POPC   PO463348  40.828  21.339   5.850
 8272POPC   GL163349  40.801  21.354   6.150
 8272POPC   GL263350  40.675  21.347   6.150
 8272POPC   C1A63351  40.797  21.394   6.450
 8272POPC   D2A63352  40.819  21.381   6.750
 8272POPC   C3A63353  40.817  21.343   7.050
 8272POPC   C4A63354  40.785  21.393   7.350
 8272POPC   C1B63355  40.588  21.285   6.450
 8272POPC   C2B63356  40.567  21.262   6.750
 8272POPC   C3B63357  40.609  21.275   7.050
 8272POPC   C4B63358  40.602  21.275   7.350
 8273POPC   NC363359  14.431  26.069   5.550
 8273POPC   PO463360  14.358  26.065   5.850
 8273POPC   GL163361  14.378  26.018   6.150
 8273POPC   GL263362  14.455  25.929   6.150
 8273POPC   C1A63363  14.409  26.091   6.450
 8273POPC   D2A63364  14.439  26.071   6.750
 8273POPC   C3A63365  14.390  26.010   7.050
 8273POPC   C4A63366  14.428  26.061   7.350
 8273POPC   C1B63367  14.435  25.803   6.450
 8273POPC   C2B63368  14.451  25.804   6.750
 8273POPC   C3B63369  14.468  25.815   7.050
 8273POPC   C4B63370  14.506  25.850   7.350
 8274POPC   NC363371  40.048  29.176   5.550
 8274POPC   PO463372  39.987  29.163   5.850
 8274POPC   GL163373  40.049  29.143   6.150
 8274POPC   GL263374  40.176  29.075   6.150
 8274POPC   C1A63375  40.038  29.159   6.450
 8274POPC   D2A63376  40.021  29.113   6.750
 8274POPC   C3A63377  39.959  29.166   7.050
 8274POPC   C4A63378  40.048  29.151   7.350
 8274POPC   C1B63379  40.254  29.049   6.450
 8274POPC   C2B63380  40.230  29.070   6.750
 8274POPC   C3B63381  40.243  29.047   7.050
 8274POPC   C4B63382  40.217  29.100   7.350
 8275POPC   NC363383   2.733   6.602   5.550
 8275POPC   PO463384   2.727   6.623   5.850
 8275POPC   GL163385   2.792   6.612   6.150
 8275POPC   GL263386   2.790   6.517   6.150
 8275POPC   C1A63387   2.748   6.600   6.450
 8275POPC   D2A63388   2.718   6.650   6.750
 8275POPC   C3A63389   2.745   6.619   7.050
 8275POPC   C4A63390   2.772   6.651   7.350
 8275POPC   C1B63391   2.782   6.440   6.450
 8275POPC   C2B63392   2.794   6.363   6.750
 8275POPC   C3B63393   2.734   6.374   7.050
 8275POPC   C4B63394   2.793   6.371   7.350
 8276POPC   NC363395   1.233  13.677   5.550
 8276POPC   PO463396   1.261  13.662   5.850
 8276POPC   GL163397   1.239  13.636   6.150
 8276POPC   GL263398   1.313  13.554   6.150
 8276POPC   C1A63399   1.231  13.607   6.450
 8276POPC   D2A63400   1.260  13.639   6.750
 8276POPC   C3A63401   1.247  13.653   7.050
 8276POPC   C4A63402   1.215  13.635   7.350
 8276POPC   C1B63403   1.285  13.382   6.450
 8276POPC   C2B63404   1.366  13.367   6.750
 8276POPC   C3B63405   1.366  13.393   7.050
 8276POPC   C4B63406   1.315  13.410   7.350
 8277POPC   NC363407   1.231  31.489   5.550
 8277POPC   PO463408   1.205  31.481   5.850
 8277POPC   GL163409   1.204  31.447   6.150
 8277POPC   GL263410   1.111  31.548   6.150
 8277POPC   C1A63411   1.242  31.470   6.450
 8277POPC   D2A63412   1.240  31.470   6.750
 8277POPC   C3A63413   1.220  31.480   7.050
 8277POPC   C4A63414   1.190  31.468   7.350
 8277POPC   C1B63415   0.938  31.586   6.450
 8277POPC   C2B63416   0.939  31.541   6.750
 8277POPC   C3B63417   0.938  31.593   7.050
 8277POPC   C4B63418   0.969  31.619   7.350
 8278POPC   NC363419  29.913   2.742   5.550
 8278POPC   PO463420  29.959   2.777   5.850
 8278POPC   GL163421  29.893   2.780   6.150
 8278POPC   GL263422  30.078   2.732   6.150
 8278POPC   C1A63423  29.906   2.776   6.450
 8278POPC   D2A63424  29.884   2.716   6.750
 8278POPC   C3A63425  29.880   2.790   7.050
 8278POPC   C4A63426  29.911   2.784   7.350
 8278POPC   C1B63427  30.199   2.730   6.450
 8278POPC   C2B63428  30.185   2.726   6.750
 8278POPC   C3B63429  30.208   2.742   7.050
 8278POPC   C4B63430  30.205   2.676   7.350
 8279POPC   NC363431  14.432  27.621   5.550
 8279POPC   PO463432  14.379  27.583   5.850
 8279POPC   GL163433  14.411  27.583   6.150
 8279POPC   GL263434  14.447  27.713   6.150
 8279POPC   C1A63435  14.446  27.562   6.450
 8279POPC   D2A63436  14.431  27.559   6.750
 8279POPC   C3A63437  14.357  27.594   7.050
 8279POPC   C4A63438  14.426  27.559   7.350
 8279POPC   C1B63439  14.474  27.824   6.450
 8279POPC   C2B63440  14.436  27.827   6.750
 8279POPC   C3B63441  14.446  27.797   7.050
 8279POPC   C4B63442  14.412  27.876   7.350
 8280POPC   NC363443  24.475  24.523   5.550
 8280POPC   PO463444  24.529  24.490   5.850
 8280POPC   GL163445  24.518  24.531   6.150
 8280POPC   GL263446  24.325  24.471   6.150
 8280POPC   C1A63447  24.494  24.441   6.450
 8280POPC   D2A63448  24.510  24.524   6.750
 8280POPC   C3A63449  24.470  24.478   7.050
 8280POPC   C4A63450  24.483  24.444   7.350
 8280POPC   C1B63451  24.237  24.427   6.450
 8280POPC   C2B63452  24.246  24.383   6.750
 8280POPC   C3B63453  24.223  24.456   7.050
 8280POPC   C4B63454  24.267  24.447   7.350
 8281POPC   NC363455  43.153  39.965   5.550
 8281POPC   PO463456  43.066  40.043   5.850
 8281POPC   GL163457  43.117  40.043   6.150
 8281POPC   GL263458  43.229  40.047   6.150
 8281POPC   C1A63459  43.065  40.020   6.450
 8281POPC   D2A63460  43.139  40.029   6.750
 8281POPC   C3A63461  43.122  40.005   7.050
 8281POPC   C4A63462  43.158  40.021   7.350
 8281POPC   C1B63463  43.315  40.155   6.450
 8281POPC   C2B63464  43.365  40.151   6.750
 8281POPC   C3B63465  43.285  40.142   7.050
 8281POPC   C4B63466  43.329  40.131   7.350
 8282POPC   NC363467  10.510  19.077   5.550
 8282POPC   PO463468  10.500  19.029   5.850
 8282POPC   GL163469  10.491  19.090   6.150
 8282POPC   GL263470  10.611  19.129   6.150
 8282POPC   C1A63471  10.527  19.093   6.450
 8282POPC   D2A63472  10.573  19.024   6.750
 8282POPC   C3A63473  10.529  19.076   7.050
 8282POPC   C4A63474  10.573  19.032   7.350
 8282POPC   C1B63475  10.735  19.099   6.450
 8282POPC   C2B63476  10.749  19.170   6.750
 8282POPC   C3B63477  10.742  19.096   7.050
 8282POPC   C4B63478  10.738  19.089   7.350
 8283POPC   NC363479  21.399  42.330   5.550
 8283POPC   PO463480  21.338  42.371   5.850
 8283POPC   GL163481  21.340  42.345   6.150
 8283POPC   GL263482  21.463  42.359   6.150
 8283POPC   C1A63483  21.344  42.367   6.450
 8283POPC   D2A63484  21.433  42.383   6.750
 8283POPC   C3A63485  21.348  42.345   7.050
 8283POPC   C4A63486  21.358  42.313   7.350
 8283POPC   C1B63487  21.602  42.464   6.450
 8283POPC   C2B63488  21.543  42.494   6.750
 8283POPC   C3B63489  21.621  42.509   7.050
 8283POPC   C4B63490  21.557  42.442   7.350
 8284POPC   NC363491  28.328  43.930   5.550
 8284POPC   PO463492  28.414  43.934   5.850
 8284POPC   GL163493  28.368  43.925   6.150
 8284POPC   GL263494  28.364  43.985   6.150
 8284POPC   C1A63495  28.376  43.916   6.450
 8284POPC   D2A63496  28.345  43.851   6.750
 8284POPC   C3A63497  28.400  43.922   7.050
 8284POPC   C4A63498  28.330  43.868   7.350
 8284POPC   C1B63499  28.285  44.151   6.450
 8284POPC   C2B63500  28.317  44.114   6.750
 8284POPC   C3B63501  28.332  44.170   7.050
 8284POPC   C4B63502  28.287  44.129   7.350
 8285POPC   NC363503  25.228  36.147   5.550
 8285POPC   PO463504  25.294  36.114   5.850
 8285POPC   GL163505  25.267  36.119   6.150
 8285POPC   GL263506  25.383  36.203   6.150
 8285POPC   C1A63507  25.248  36.167   6.450
 8285POPC   D2A63508  25.245  36.148   6.750
 8285POPC   C3A63509  25.255  36.110   7.050
 8285POPC   C4A63510  25.286  36.124   7.350
 8285POPC   C1B63511  25.374  36.356   6.450
 8285POPC   C2B63512  25.411  36.313   6.750
 8285POPC   C3B63513  25.448  36.310   7.050
 8285POPC   C4B63514  25.447  36.295   7.350
 8286POPC   NC363515  12.894  22.918   5.550
 8286POPC   PO463516  12.854  22.986   5.850
 8286POPC   GL163517  12.823  22.908   6.150
 8286POPC   GL263518  12.752  22.890   6.150
 8286POPC   C1A63519  12.857  22.958   6.450
 8286POPC   D2A63520  12.886  22.939   6.750
 8286POPC   C3A63521  12.851  22.958   7.050
 8286POPC   C4A63522  12.822  22.905   7.350
 8286POPC   C1B63523  12.613  22.895   6.450
 8286POPC   C2B63524  12.618  22.827   6.750
 8286POPC   C3B63525  12.589  22.873   7.050
 8286POPC   C4B63526  12.597  22.889   7.350
 8287POPC   NC363527  42.334  27.599   5.550
 8287POPC   PO463528  42.322  27.609   5.850
 8287POPC   GL163529  42.358  27.548   6.150
 8287POPC   GL263530  42.333  27.709   6.150
 8287POPC   C1A63531  42.339  27.575   6.450
 8287POPC   D2A63532  42.367  27.630   6.750
 8287POPC   C3A63533  42.376  27.601   7.050
 8287POPC   C4A63534  42.351  27.577   7.350
 8287POPC   C1B63535  42.371  27.871   6.450
 8287POPC   C2B63536  42.394  27.882   6.750
 8287POPC   C3B63537  42.376  27.814   7.050
 8287POPC   C4B63538  42.444  27.800   7.350
 8288POPC   NC363539  15.925  26.069   5.550
 8288POPC   PO463540  15.936  26.051   5.850
 8288POPC   GL163541  15.989  26.019   6.150
 8288POPC   GL263542  16.012  26.082   6.150
 8288POPC   C1A63543  15.906  26.079   6.450
 8288POPC   D2A63544  16.001  26.025   6.750
 8288POPC   C3A63545  15.996  26.087   7.050
 8288POPC   C4A63546  16.004  26.004   7.350
 8288POPC   C1B63547  16.102  26.203   6.450
 8288POPC   C2B63548  16.149  26.237   6.750
 8288POPC   C3B63549  16.106  26.231   7.050
 8288POPC   C4B63550  16.099  26.228   7.350
 8289POPC   NC363551  36.892   6.687   5.550
 8289POPC   PO463552  36.859   6.634   5.850
 8289POPC   GL163553  36.880   6.674   6.150
 8289POPC   GL263554  36.788   6.613   6.150
 8289POPC   C1A63555  36.911   6.656   6.450
 8289POPC   D2A63556  36.930   6.623   6.750
 8289POPC   C3A63557  36.939   6.619   7.050
 8289POPC   C4A63558  36.896   6.662   7.350
 8289POPC   C1B63559  36.647   6.596   6.450
 8289POPC   C2B63560  36.704   6.638   6.750
 8289POPC   C3B63561  36.612   6.600   7.050
 8289POPC   C4B63562  36.613   6.637   7.350
 8290POPC   NC363563  25.241  14.436   5.550
 8290POPC   PO463564  25.264  14.434   5.850
 8290POPC   GL163565  25.247  14.369   6.150
 8290POPC   GL263566  25.371  14.378   6.150
 8290POPC   C1A63567  25.264  14.409   6.450
 8290POPC   D2A63568  25.238  14.451   6.750
 8290POPC   C3A63569  25.254  14.448   7.050
 8290POPC   C4A63570  25.227  14.411   7.350
 8290POPC   C1B63571  25.486  14.438   6.450
 8290POPC   C2B63572  25.517  14.432   6.750
 8290POPC   C3B63573  25.515  14.452   7.050
 8290POPC   C4B63574  25.544  14.420   7.350
 8291POPC   NC363575  43.920  32.287   5.550
 8291POPC   PO463576  43.856  32.259   5.850
 8291POPC   GL163577  43.913  32.268   6.150
 8291POPC   GL263578  43.951  32.323   6.150
 8291POPC   C1A63579  43.863  32.279   6.450
 8291POPC   D2A63580  43.916  32.210   6.750
 8291POPC   C3A63581  43.915  32.199   7.050
 8291POPC   C4A63582  43.905  32.201   7.350
 8291POPC   C1B63583  43.904  32.519   6.450
 8291POPC   C2B63584  43.966  32.492   6.750
 8291POPC   C3B63585  43.956  32.538   7.050
 8291POPC   C4B63586  43.898  32.489   7.350
 8292POPC   NC363587  12.857  33.020   5.550
 8292POPC   PO463588  12.810  33.006   5.850
 8292POPC   GL163589  12.891  33.031   6.150
 8292POPC   GL263590  12.757  33.127   6.150
 8292POPC   C1A63591  12.822  32.975   6.450
 8292POPC   D2A63592  12.896  32.977   6.750
 8292POPC   C3A63593  12.848  33.059   7.050
 8292POPC   C4A63594  12.836  33.002   7.350
 8292POPC   C1B63595  12.695  33.190   6.450
 8292POPC   C2B63596  12.663  33.242   6.750
 8292POPC   C3B63597  12.705  33.181   7.050
 8292POPC   C4B63598  12.713  33.260   7.350
 8293POPC   NC363599  38.417  34.576   5.550
 8293POPC   PO463600  38.426  34.585   5.850
 8293POPC   GL163601  38.412  34.529   6.150
 8293POPC   GL263602  38.420  34.419   6.150
 8293POPC   C1A63603  38.489  34.527   6.450
 8293POPC   D2A63604  38.480  34.531   6.750
 8293POPC   C3A63605  38.425  34.592   7.050
 8293POPC   C4A63606  38.435  34.593   7.350
 8293POPC   C1B63607  38.366  34.372   6.450
 8293POPC   C2B63608  38.389  34.338   6.750
 8293POPC   C3B63609  38.384  34.374   7.050
 8293POPC   C4B63610  38.363  34.379   7.350
 8294POPC   NC363611   7.391  12.067   5.550
 8294POPC   PO463612   7.455  12.067   5.850
 8294POPC   GL163613   7.455  12.117   6.150
 8294POPC   GL263614   7.539  12.010   6.150
 8294POPC   C1A63615   7.395  12.048   6.450
 8294POPC   D2A63616   7.378  12.108   6.750
 8294POPC   C3A63617   7.464  12.078   7.050
 8294POPC   C4A63618   7.387  12.031   7.350
 8294POPC   C1B63619   7.612  11.920   6.450
 8294POPC   C2B63620   7.606  11.944   6.750
 8294POPC   C3B63621   7.666  11.966   7.050
 8294POPC   C4B63622   7.653  11.892   7.350
 8295POPC   NC363623  37.682   8.215   5.550
 8295POPC   PO463624  37.691   8.242   5.850
 8295POPC   GL163625  37.643   8.171   6.150
 8295POPC   GL263626  37.810   8.242   6.150
 8295POPC   C1A63627  37.679   8.163   6.450
 8295POPC   D2A63628  37.715   8.189   6.750
 8295POPC   C3A63629  37.655   8.220   7.050
 8295POPC   C4A63630  37.630   8.212   7.350
 8295POPC   C1B63631  37.961   8.285   6.450
 8295POPC   C2B63632  37.922   8.258   6.750
 8295POPC   C3B63633  37.893   8.285   7.050
 8295POPC   C4B63634  37.928   8.282   7.350
 8296POPC   NC363635  31.497  23.699   5.550
 8296POPC   PO463636  31.432  23.695   5.850
 8296POPC   GL163637  31.465  23.741   6.150
 8296POPC   GL263638  31.484  23.555   6.150
 8296POPC   C1A63639  31.467  23.667   6.450
 8296POPC   D2A63640  31.503  23.756   6.750
 8296POPC   C3A63641  31.477  23.718   7.050
 8296POPC   C4A63642  31.453  23.677   7.350
 8296POPC   C1B63643  31.568  23.490   6.450
 8296POPC   C2B63644  31.565  23.493   6.750
 8296POPC   C3B63645  31.578  23.494   7.050
 8296POPC   C4B63646  31.617  23.520   7.350
 8297POPC   NC363647  23.742  20.579   5.550
 8297POPC   PO463648  23.669  20.562   5.850
 8297POPC   GL163649  23.735  20.601   6.150
 8297POPC   GL263650  23.639  20.740   6.150
 8297POPC   C1A63651  23.726  20.631   6.450
 8297POPC   D2A63652  23.696  20.581   6.750
 8297POPC   C3A63653  23.666  20.603   7.050
 8297POPC   C4A63654  23.755  20.604   7.350
 8297POPC   C1B63655  23.576  20.856   6.450
 8297POPC   C2B63656  23.636  20.825   6.750
 8297POPC   C3B63657  23.561  20.831   7.050
 8297POPC   C4B63658  23.590  20.823   7.350
 8298POPC   NC363659  12.842   1.968   5.550
 8298POPC   PO463660  12.804   2.010   5.850
 8298POPC   GL163661  12.851   1.985   6.150
 8298POPC   GL263662  12.856   2.085   6.150
 8298POPC   C1A63663  12.883   2.022   6.450
 8298POPC   D2A63664  12.877   2.026   6.750
 8298POPC   C3A63665  12.818   1.994   7.050
 8298POPC   C4A63666  12.874   1.970   7.350
 8298POPC   C1B63667  12.829   2.213   6.450
 8298POPC   C2B63668  12.756   2.230   6.750
 8298POPC   C3B63669  12.762   2.229   7.050
 8298POPC   C4B63670  12.834   2.228   7.350
 8299POPC   NC363671  37.716   9.008   5.550
 8299POPC   PO463672  37.690   8.938   5.850
 8299POPC   GL163673  37.719   8.966   6.150
 8299POPC   GL263674  37.762   8.981   6.150
 8299POPC   C1A63675  37.658   8.998   6.450
 8299POPC   D2A63676  37.711   8.981   6.750
 8299POPC   C3A63677  37.641   8.924   7.050
 8299POPC   C4A63678  37.651   8.927   7.350
 8299POPC   C1B63679  37.880   8.998   6.450
 8299POPC   C2B63680  37.899   9.025   6.750
 8299POPC   C3B63681  37.957   9.039   7.050
 8299POPC   C4B63682  37.914   9.034   7.350
 8300POPC   NC363683  21.367  25.223   5.550
 8300POPC   PO463684  21.353  25.233   5.850
 8300POPC   GL163685  21.391  25.261   6.150
 8300POPC   GL263686  21.371  25.419   6.150
 8300POPC   C1A63687  21.433  25.217   6.450
 8300POPC   D2A63688  21.379  25.260   6.750
 8300POPC   C3A63689  21.360  25.265   7.050
 8300POPC   C4A63690  21.353  25.266   7.350
 8300POPC   C1B63691  21.332  25.559   6.450
 8300POPC   C2B63692  21.308  25.545   6.750
 8300POPC   C3B63693  21.328  25.511   7.050
 8300POPC   C4B63694  21.306  25.471   7.350
 8301POPC   NC363695   8.969   5.861   5.550
 8301POPC   PO463696   9.017   5.842   5.850
 8301POPC   GL163697   8.943   5.909   6.150
 8301POPC   GL263698   9.028   5.788   6.150
 8301POPC   C1A63699   8.949   5.837   6.450
 8301POPC   D2A63700   8.983   5.880   6.750
 8301POPC   C3A63701   8.968   5.890   7.050
 8301POPC   C4A63702   8.975   5.874   7.350
 8301POPC   C1B63703   9.061   5.664   6.450
 8301POPC   C2B63704   9.137   5.665   6.750
 8301POPC   C3B63705   9.048   5.700   7.050
 8301POPC   C4B63706   9.130   5.667   7.350
 8302POPC   NC363707  43.140   0.391   5.550
 8302POPC   PO463708  43.067   0.453   5.850
 8302POPC   GL163709  43.144   0.430   6.150
 8302POPC   GL263710  43.125   0.319   6.150
 8302POPC   C1A63711  43.157   0.482   6.450
 8302POPC   D2A63712  43.101   0.426   6.750
 8302POPC   C3A63713  43.084   0.456   7.050
 8302POPC   C4A63714  43.112   0.440   7.350
 8302POPC   C1B63715  43.033   0.173   6.450
 8302POPC   C2B63716  43.118   0.236   6.750
 8302POPC   C3B63717  43.118   0.192   7.050
 8302POPC   C4B63718  43.079   0.149   7.350
 8303POPC   NC363719  18.242  16.764   5.550
 8303POPC   PO463720  18.290  16.744   5.850
 8303POPC   GL163721  18.330  16.738   6.150
 8303POPC   GL263722  18.413  16.653   6.150
 8303POPC   C1A63723  18.315  16.733   6.450
 8303POPC   D2A63724  18.305  16.706   6.750
 8303POPC   C3A63725  18.254  16.775   7.050
 8303POPC   C4A63726  18.235  16.706   7.350
 8303POPC   C1B63727  18.444  16.550   6.450
 8303POPC   C2B63728  18.426  16.499   6.750
 8303POPC   C3B63729  18.477  16.561   7.050
 8303POPC   C4B63730  18.411  16.569   7.350
 8304POPC   NC363731   2.769   8.929   5.550
 8304POPC   PO463732   2.739   8.952   5.850
 8304POPC   GL163733   2.805   8.988   6.150
 8304POPC   GL263734   2.596   8.961   6.150
 8304POPC   C1A63735   2.770   8.949   6.450
 8304POPC   D2A63736   2.765   8.927   6.750
 8304POPC   C3A63737   2.734   8.937   7.050
 8304POPC   C4A63738   2.745   9.006   7.350
 8304POPC   C1B63739   2.567   9.044   6.450
 8304POPC   C2B63740   2.482   9.007   6.750
 8304POPC   C3B63741   2.552   9.030   7.050
 8304POPC   C4B63742   2.486   9.028   7.350
 8305POPC   NC363743  11.294  25.265   5.550
 8305POPC   PO463744  11.345  25.242   5.850
 8305POPC   GL163745  11.304  25.228   6.150
 8305POPC   GL263746  11.381  25.393   6.150
 8305POPC   C1A63747  11.281  25.259   6.450
 8305POPC   D2A63748  11.270  25.304   6.750
 8305POPC   C3A63749  11.291  25.242   7.050
 8305POPC   C4A63750  11.340  25.219   7.350
 8305POPC   C1B63751  11.430  25.495   6.450
 8305POPC   C2B63752  11.478  25.451   6.750
 8305POPC   C3B63753  11.487  25.466   7.050
 8305POPC   C4B63754  11.444  25.408   7.350
 8306POPC   NC363755  43.875  34.568   5.550
 8306POPC   PO463756  43.842  34.532   5.850
 8306POPC   GL163757  43.848  34.569   6.150
 8306POPC   GL263758  43.975  34.493   6.150
 8306POPC   C1A63759  43.856  34.568   6.450
 8306POPC   D2A63760  43.916  34.624   6.750
 8306POPC   C3A63761  43.890  34.575   7.050
 8306POPC   C4A63762  43.856  34.563   7.350
 8306POPC   C1B63763  44.118  34.537   6.450
 8306POPC   C2B63764  44.107  34.507   6.750
 8306POPC   C3B63765  44.158  34.536   7.050
 8306POPC   C4B63766  44.159  34.459   7.350
 8307POPC   NC363767   3.549  28.349   5.550
 8307POPC   PO463768   3.590  28.330   5.850
 8307POPC   GL163769   3.549  28.389   6.150
 8307POPC   GL263770   3.598  28.450   6.150
 8307POPC   C1A63771   3.565  28.415   6.450
 8307POPC   D2A63772   3.511  28.334   6.750
 8307POPC   C3A63773   3.519  28.335   7.050
 8307POPC   C4A63774   3.508  28.399   7.350
 8307POPC   C1B63775   3.753  28.578   6.450
 8307POPC   C2B63776   3.742  28.490   6.750
 8307POPC   C3B63777   3.753  28.572   7.050
 8307POPC   C4B63778   3.684  28.523   7.350
 8308POPC   NC363779  29.099  41.569   5.550
 8308POPC   PO463780  29.106  41.525   5.850
 8308POPC   GL163781  29.107  41.607   6.150
 8308POPC   GL263782  29.134  41.658   6.150
 8308POPC   C1A63783  29.139  41.560   6.450
 8308POPC   D2A63784  29.152  41.578   6.750
 8308POPC   C3A63785  29.146  41.519   7.050
 8308POPC   C4A63786  29.154  41.582   7.350
 8308POPC   C1B63787  29.184  41.771   6.450
 8308POPC   C2B63788  29.110  41.773   6.750
 8308POPC   C3B63789  29.141  41.857   7.050
 8308POPC   C4B63790  29.195  41.850   7.350
 8309POPC   NC363791   3.591  17.551   5.550
 8309POPC   PO463792   3.522  17.547   5.850
 8309POPC   GL163793   3.498  17.464   6.150
 8309POPC   GL263794   3.669  17.467   6.150
 8309POPC   C1A63795   3.512  17.477   6.450
 8309POPC   D2A63796   3.516  17.496   6.750
 8309POPC   C3A63797   3.544  17.534   7.050
 8309POPC   C4A63798   3.554  17.527   7.350
 8309POPC   C1B63799   3.742  17.485   6.450
 8309POPC   C2B63800   3.833  17.549   6.750
 8309POPC   C3B63801   3.748  17.512   7.050
 8309POPC   C4B63802   3.798  17.486   7.350
 8310POPC   NC363803  35.326  19.830   5.550
 8310POPC   PO463804  35.359  19.835   5.850
 8310POPC   GL163805  35.312  19.837   6.150
 8310POPC   GL263806  35.266  19.965   6.150
 8310POPC   C1A63807  35.318  19.852   6.450
 8310POPC   D2A63808  35.392  19.847   6.750
 8310POPC   C3A63809  35.319  19.839   7.050
 8310POPC   C4A63810  35.359  19.840   7.350
 8310POPC   C1B63811  35.294  20.044   6.450
 8310POPC   C2B63812  35.276  20.085   6.750
 8310POPC   C3B63813  35.242  20.033   7.050
 8310POPC   C4B63814  35.268  20.030   7.350
 8311POPC   NC363815   9.019  16.767   5.550
 8311POPC   PO463816   8.981  16.727   5.850
 8311POPC   GL163817   8.973  16.704   6.150
 8311POPC   GL263818   8.823  16.724   6.150
 8311POPC   C1A63819   8.987  16.747   6.450
 8311POPC   D2A63820   9.004  16.706   6.750
 8311POPC   C3A63821   8.943  16.683   7.050
 8311POPC   C4A63822   8.999  16.703   7.350
 8311POPC   C1B63823   8.700  16.684   6.450
 8311POPC   C2B63824   8.733  16.622   6.750
 8311POPC   C3B63825   8.692  16.634   7.050
 8311POPC   C4B63826   8.742  16.622   7.350
 8312POPC   NC363827   9.777  32.248   5.550
 8312POPC   PO463828   9.750  32.272   5.850
 8312POPC   GL163829   9.740  32.272   6.150
 8312POPC   GL263830   9.868  32.330   6.150
 8312POPC   C1A63831   9.712  32.265   6.450
 8312POPC   D2A63832   9.730  32.237   6.750
 8312POPC   C3A63833   9.762  32.256   7.050
 8312POPC   C4A63834   9.749  32.264   7.350
 8312POPC   C1B63835   9.927  32.333   6.450
 8312POPC   C2B63836   9.937  32.385   6.750
 8312POPC   C3B63837   9.964  32.410   7.050
 8312POPC   C4B63838   9.962  32.418   7.350
 8313POPC   NC363839  38.479  20.646   5.550
 8313POPC   PO463840  38.490  20.622   5.850
 8313POPC   GL163841  38.407  20.653   6.150
 8313POPC   GL263842  38.301  20.637   6.150
 8313POPC   C1A63843  38.493  20.593   6.450
 8313POPC   D2A63844  38.422  20.576   6.750
 8313POPC   C3A63845  38.491  20.641   7.050
 8313POPC   C4A63846  38.480  20.565   7.350
 8313POPC   C1B63847  38.209  20.661   6.450
 8313POPC   C2B63848  38.208  20.658   6.750
 8313POPC   C3B63849  38.172  20.619   7.050
 8313POPC   C4B63850  38.256  20.665   7.350
 8314POPC   NC363851  22.174  33.051   5.550
 8314POPC   PO463852  22.134  32.978   5.850
 8314POPC   GL163853  22.188  33.056   6.150
 8314POPC   GL263854  22.087  32.926   6.150
 8314POPC   C1A63855  22.132  33.067   6.450
 8314POPC   D2A63856  22.196  32.986   6.750
 8314POPC   C3A63857  22.176  33.018   7.050
 8314POPC   C4A63858  22.165  33.012   7.350
 8314POPC   C1B63859  22.146  32.816   6.450
 8314POPC   C2B63860  22.075  32.786   6.750
 8314POPC   C3B63861  22.096  32.766   7.050
 8314POPC   C4B63862  22.127  32.824   7.350
 8315POPC   NC363863  43.131  30.703   5.550
 8315POPC   PO463864  43.080  30.675   5.850
 8315POPC   GL163865  43.158  30.701   6.150
 8315POPC   GL263866  43.111  30.823   6.150
 8315POPC   C1A63867  43.085  30.672   6.450
 8315POPC   D2A63868  43.113  30.739   6.750
 8315POPC   C3A63869  43.102  30.725   7.050
 8315POPC   C4A63870  43.139  30.707   7.350
 8315POPC   C1B63871  43.046  30.967   6.450
 8315POPC   C2B63872  43.006  30.900   6.750
 8315POPC   C3B63873  43.051  30.899   7.050
 8315POPC   C4B63874  43.005  30.900   7.350
 8316POPC   NC363875  39.243  31.522   5.550
 8316POPC   PO463876  39.266  31.487   5.850
 8316POPC   GL163877  39.241  31.478   6.150
 8316POPC   GL263878  39.379  31.426   6.150
 8316POPC   C1A63879  39.259  31.513   6.450
 8316POPC   D2A63880  39.229  31.451   6.750
 8316POPC   C3A63881  39.192  31.482   7.050
 8316POPC   C4A63882  39.208  31.431   7.350
 8316POPC   C1B63883  39.436  31.441   6.450
 8316POPC   C2B63884  39.499  31.415   6.750
 8316POPC   C3B63885  39.465  31.454   7.050
 8316POPC   C4B63886  39.435  31.413   7.350
 8317POPC   NC363887   2.763   3.543   5.550
 8317POPC   PO463888   2.771   3.558   5.850
 8317POPC   GL163889   2.777   3.581   6.150
 8317POPC   GL263890   2.869   3.671   6.150
 8317POPC   C1A63891   2.784   3.530   6.450
 8317POPC   D2A63892   2.780   3.555   6.750
 8317POPC   C3A63893   2.751   3.497   7.050
 8317POPC   C4A63894   2.807   3.516   7.350
 8317POPC   C1B63895   2.911   3.722   6.450
 8317POPC   C2B63896   2.879   3.705   6.750
 8317POPC   C3B63897   2.889   3.734   7.050
 8317POPC   C4B63898   2.946   3.716   7.350
 8318POPC   NC363899   4.281  12.873   5.550
 8318POPC   PO463900   4.344  12.818   5.850
 8318POPC   GL163901   4.280  12.817   6.150
 8318POPC   GL263902   4.479  12.825   6.150
 8318POPC   C1A63903   4.304  12.900   6.450
 8318POPC   D2A63904   4.301  12.882   6.750
 8318POPC   C3A63905   4.312  12.834   7.050
 8318POPC   C4A63906   4.339  12.847   7.350
 8318POPC   C1B63907   4.543  12.836   6.450
 8318POPC   C2B63908   4.521  12.854   6.750
 8318POPC   C3B63909   4.569  12.865   7.050
 8318POPC   C4B63910   4.608  12.847   7.350
 8319POPC   NC363911  18.316  11.328   5.550
 8319POPC   PO463912  18.265  11.311   5.850
 8319POPC   GL163913  18.276  11.287   6.150
 8319POPC   GL263914  18.369  11.191   6.150
 8319POPC   C1A63915  18.278  11.343   6.450
 8319POPC   D2A63916  18.319  11.315   6.750
 8319POPC   C3A63917  18.245  11.268   7.050
 8319POPC   C4A63918  18.282  11.347   7.350
 8319POPC   C1B63919  18.453  11.145   6.450
 8319POPC   C2B63920  18.450  11.210   6.750
 8319POPC   C3B63921  18.508  11.119   7.050
 8319POPC   C4B63922  18.516  11.122   7.350
 8320POPC   NC363923   5.108  38.448   5.550
 8320POPC   PO463924   5.094  38.488   5.850
 8320POPC   GL163925   5.078  38.438   6.150
 8320POPC   GL263926   5.136  38.349   6.150
 8320POPC   C1A63927   5.064  38.446   6.450
 8320POPC   D2A63928   5.086  38.475   6.750
 8320POPC   C3A63929   5.072  38.405   7.050
 8320POPC   C4A63930   5.055  38.461   7.350
 8320POPC   C1B63931   5.194  38.256   6.450
 8320POPC   C2B63932   5.160  38.241   6.750
 8320POPC   C3B63933   5.235  38.264   7.050
 8320POPC   C4B63934   5.160  38.232   7.350
 8321POPC   NC363935  19.075  33.798   5.550
 8321POPC   PO463936  19.087  33.806   5.850
 8321POPC   GL163937  19.081  33.813   6.150
 8321POPC   GL263938  19.068  33.668   6.150
 8321POPC   C1A63939  19.015  33.778   6.450
 8321POPC   D2A63940  19.045  33.768   6.750
 8321POPC   C3A63941  19.102  33.826   7.050
 8321POPC   C4A63942  19.020  33.770   7.350
 8321POPC   C1B63943  19.146  33.558   6.450
 8321POPC   C2B63944  19.089  33.506   6.750
 8321POPC   C3B63945  19.110  33.581   7.050
 8321POPC   C4B63946  19.075  33.519   7.350
 8322POPC   NC363947  11.265  11.283   5.550
 8322POPC   PO463948  11.339  11.287   5.850
 8322POPC   GL163949  11.344  11.257   6.150
 8322POPC   GL263950  11.366  11.355   6.150
 8322POPC   C1A63951  11.335  11.303   6.450
 8322POPC   D2A63952  11.337  11.343   6.750
 8322POPC   C3A63953  11.344  11.264   7.050
 8322POPC   C4A63954  11.327  11.265   7.350
 8322POPC   C1B63955  11.541  11.433   6.450
 8322POPC   C2B63956  11.544  11.476   6.750
 8322POPC   C3B63957  11.463  11.462   7.050
 8322POPC   C4B63958  11.543  11.442   7.350
 8323POPC   NC363959  15.200  31.508   5.550
 8323POPC   PO463960  15.194  31.430   5.850
 8323POPC   GL163961  15.175  31.479   6.150
 8323POPC   GL263962  15.132  31.565   6.150
 8323POPC   C1A63963  15.165  31.472   6.450
 8323POPC   D2A63964  15.147  31.480   6.750
 8323POPC   C3A63965  15.219  31.427   7.050
 8323POPC   C4A63966  15.207  31.495   7.350
 8323POPC   C1B63967  14.995  31.614   6.450
 8323POPC   C2B63968  14.984  31.662   6.750
 8323POPC   C3B63969  15.059  31.637   7.050
 8323POPC   C4B63970  14.974  31.701   7.350
 8324POPC   NC363971  38.463  17.504   5.550
 8324POPC   PO463972  38.495  17.463   5.850
 8324POPC   GL163973  38.422  17.520   6.150
 8324POPC   GL263974  38.492  17.610   6.150
 8324POPC   C1A63975  38.502  17.468   6.450
 8324POPC   D2A63976  38.495  17.547   6.750
 8324POPC   C3A63977  38.492  17.509   7.050
 8324POPC   C4A63978  38.476  17.529   7.350
 8324POPC   C1B63979  38.569  17.782   6.450
 8324POPC   C2B63980  38.597  17.713   6.750
 8324POPC   C3B63981  38.603  17.780   7.050
 8324POPC   C4B63982  38.523  17.739   7.350
 8325POPC   NC363983  30.649  33.057   5.550
 8325POPC   PO463984  30.736  33.059   5.850
 8325POPC   GL163985  30.699  33.014   6.150
 8325POPC   GL263986  30.621  33.005   6.150
 8325POPC   C1A63987  30.691  32.982   6.450
 8325POPC   D2A63988  30.700  32.981   6.750
 8325POPC   C3A63989  30.730  33.030   7.050
 8325POPC   C4A63990  30.679  32.978   7.350
 8325POPC   C1B63991  30.483  33.036   6.450
 8325POPC   C2B63992  30.414  33.094   6.750
 8325POPC   C3B63993  30.426  33.112   7.050
 8325POPC   C4B63994  30.496  33.028   7.350
 8326POPC   NC363995  17.493  27.561   5.550
 8326POPC   PO463996  17.507  27.563   5.850
 8326POPC   GL163997  17.543  27.596   6.150
 8326POPC   GL263998  17.416  27.711   6.150
 8326POPC   C1A63999  17.475  27.615   6.450
 8326POPC   D2A64000  17.502  27.580   6.750
 8326POPC   C3A64001  17.523  27.597   7.050
 8326POPC   C4A64002  17.527  27.564   7.350
 8326POPC   C1B64003  17.294  27.721   6.450
 8326POPC   C2B64004  17.269  27.714   6.750
 8326POPC   C3B64005  17.301  27.762   7.050
 8326POPC   C4B64006  17.261  27.712   7.350
 8327POPC   NC364007  37.664  39.964   5.550
 8327POPC   PO464008  37.648  40.019   5.850
 8327POPC   GL164009  37.656  39.988   6.150
 8327POPC   GL264010  37.655  40.169   6.150
 8327POPC   C1A64011  37.650  39.966   6.450
 8327POPC   D2A64012  37.655  39.961   6.750
 8327POPC   C3A64013  37.693  40.037   7.050
 8327POPC   C4A64014  37.685  40.056   7.350
 8327POPC   C1B64015  37.656  40.259   6.450
 8327POPC   C2B64016  37.708  40.288   6.750
 8327POPC   C3B64017  37.650  40.232   7.050
 8327POPC   C4B64018  37.713  40.234   7.350
 8328POPC   NC364019  27.552   6.676   5.550
 8328POPC   PO464020  27.628   6.687   5.850
 8328POPC   GL164021  27.622   6.643   6.150
 8328POPC   GL264022  27.682   6.551   6.150
 8328POPC   C1A64023  27.622   6.655   6.450
 8328POPC   D2A64024  27.590   6.694   6.750
 8328POPC   C3A64025  27.616   6.633   7.050
 8328POPC   C4A64026  27.604   6.676   7.350
 8328POPC   C1B64027  27.812   6.573   6.450
 8328POPC   C2B64028  27.801   6.490   6.750
 8328POPC   C3B64029  27.828   6.485   7.050
 8328POPC   C4B64030  27.822   6.572   7.350
 8329POPC   NC364031  40.053  12.116   5.550
 8329POPC   PO464032  39.983  12.027   5.850
 8329POPC   GL164033  40.047  12.055   6.150
 8329POPC   GL264034  40.124  12.140   6.150
 8329POPC   C1A64035  39.987  12.054   6.450
 8329POPC   D2A64036  40.028  12.059   6.750
 8329POPC   C3A64037  40.005  12.110   7.050
 8329POPC   C4A64038  39.988  12.068   7.350
 8329POPC   C1B64039  40.146  12.274   6.450
 8329POPC   C2B64040  40.174  12.237   6.750
 8329POPC   C3B64041  40.179  12.316   7.050
 8329POPC   C4B64042  40.180  12.321   7.350
 8330POPC   NC364043   7.449  24.511   5.550
 8330POPC   PO464044   7.415  24.522   5.850
 8330POPC   GL164045   7.468  24.521   6.150
 8330POPC   GL264046   7.452  24.601   6.150
 8330POPC   C1A64047   7.434  24.463   6.450
 8330POPC   D2A64048   7.437  24.527   6.750
 8330POPC   C3A64049   7.416  24.494   7.050
 8330POPC   C4A64050   7.459  24.490   7.350
 8330POPC   C1B64051   7.358  24.716   6.450
 8330POPC   C2B64052   7.395  24.713   6.750
 8330POPC   C3B64053   7.398  24.753   7.050
 8330POPC   C4B64054   7.453  24.694   7.350
 8331POPC   NC364055  39.210   8.217   5.550
 8331POPC   PO464056  39.260   8.189   5.850
 8331POPC   GL164057  39.247   8.219   6.150
 8331POPC   GL264058  39.147   8.173   6.150
 8331POPC   C1A64059  39.257   8.208   6.450
 8331POPC   D2A64060  39.225   8.151   6.750
 8331POPC   C3A64061  39.246   8.170   7.050
 8331POPC   C4A64062  39.249   8.147   7.350
 8331POPC   C1B64063  39.047   8.042   6.450
 8331POPC   C2B64064  38.987   8.029   6.750
 8331POPC   C3B64065  38.989   8.055   7.050
 8331POPC   C4B64066  39.006   8.075   7.350
 8332POPC   NC364067  29.921  10.558   5.550
 8332POPC   PO464068  29.889  10.510   5.850
 8332POPC   GL164069  29.962  10.549   6.150
 8332POPC   GL264070  29.936  10.683   6.150
 8332POPC   C1A64071  29.943  10.568   6.450
 8332POPC   D2A64072  29.933  10.539   6.750
 8332POPC   C3A64073  29.933  10.530   7.050
 8332POPC   C4A64074  29.957  10.504   7.350
 8332POPC   C1B64075  29.872  10.750   6.450
 8332POPC   C2B64076  29.874  10.752   6.750
 8332POPC   C3B64077  29.890  10.811   7.050
 8332POPC   C4B64078  29.953  10.724   7.350
 8333POPC   NC364079  30.675  15.202   5.550
 8333POPC   PO464080  30.708  15.222   5.850
 8333POPC   GL164081  30.651  15.174   6.150
 8333POPC   GL264082  30.566  15.125   6.150
 8333POPC   C1A64083  30.710  15.185   6.450
 8333POPC   D2A64084  30.731  15.220   6.750
 8333POPC   C3A64085  30.710  15.215   7.050
 8333POPC   C4A64086  30.667  15.160   7.350
 8333POPC   C1B64087  30.412  15.082   6.450
 8333POPC   C2B64088  30.456  15.163   6.750
 8333POPC   C3B64089  30.467  15.073   7.050
 8333POPC   C4B64090  30.481  15.161   7.350
 8334POPC   NC364091  16.750  29.126   5.550
 8334POPC   PO464092  16.682  29.177   5.850
 8334POPC   GL164093  16.726  29.161   6.150
 8334POPC   GL264094  16.614  29.124   6.150
 8334POPC   C1A64095  16.728  29.175   6.450
 8334POPC   D2A64096  16.738  29.186   6.750
 8334POPC   C3A64097  16.744  29.145   7.050
 8334POPC   C4A64098  16.716  29.160   7.350
 8334POPC   C1B64099  16.481  29.092   6.450
 8334POPC   C2B64100  16.526  29.090   6.750
 8334POPC   C3B64101  16.454  29.148   7.050
 8334POPC   C4B64102  16.444  29.107   7.350
 8335POPC   NC364103  39.980  28.402   5.550
 8335POPC   PO464104  39.983  28.355   5.850
 8335POPC   GL164105  39.987  28.394   6.150
 8335POPC   GL264106  40.012  28.200   6.150
 8335POPC   C1A64107  39.961  28.378   6.450
 8335POPC   D2A64108  40.018  28.321   6.750
 8335POPC   C3A64109  39.974  28.415   7.050
 8335POPC   C4A64110  40.051  28.414   7.350
 8335POPC   C1B64111  39.983  28.164   6.450
 8335POPC   C2B64112  39.911  28.127   6.750
 8335POPC   C3B64113  39.987  28.132   7.050
 8335POPC   C4B64114  39.956  28.115   7.350
 8336POPC   NC364115  11.329   2.027   5.550
 8336POPC   PO464116  11.268   2.021   5.850
 8336POPC   GL164117  11.302   1.966   6.150
 8336POPC   GL264118  11.151   2.040   6.150
 8336POPC   C1A64119  11.277   1.990   6.450
 8336POPC   D2A64120  11.285   2.013   6.750
 8336POPC   C3A64121  11.284   2.025   7.050
 8336POPC   C4A64122  11.297   2.011   7.350
 8336POPC   C1B64123  11.078   2.017   6.450
 8336POPC   C2B64124  11.037   2.073   6.750
 8336POPC   C3B64125  11.062   2.021   7.050
 8336POPC   C4B64126  11.054   2.051   7.350
 8337POPC   NC364127  26.091  25.222   5.550
 8337POPC   PO464128  26.053  25.283   5.850
 8337POPC   GL164129  26.085  25.247   6.150
 8337POPC   GL264130  25.901  25.351   6.150
 8337POPC   C1A64131  26.053  25.239   6.450
 8337POPC   D2A64132  26.027  25.285   6.750
 8337POPC   C3A64133  26.021  25.275   7.050
 8337POPC   C4A64134  26.030  25.263   7.350
 8337POPC   C1B64135  25.865  25.378   6.450
 8337POPC   C2B64136  25.843  25.440   6.750
 8337POPC   C3B64137  25.870  25.426   7.050
 8337POPC   C4B64138  25.804  25.447   7.350
 8338POPC   NC364139  26.007  15.934   5.550
 8338POPC   PO464140  26.055  15.936   5.850
 8338POPC   GL164141  26.012  15.961   6.150
 8338POPC   GL264142  25.959  15.830   6.150
 8338POPC   C1A64143  26.047  15.996   6.450
 8338POPC   D2A64144  26.018  15.919   6.750
 8338POPC   C3A64145  26.032  15.912   7.050
 8338POPC   C4A64146  26.064  15.932   7.350
 8338POPC   C1B64147  25.936  15.790   6.450
 8338POPC   C2B64148  25.859  15.751   6.750
 8338POPC   C3B64149  25.845  15.752   7.050
 8338POPC   C4B64150  25.917  15.799   7.350
 8339POPC   NC364151  24.486   2.793   5.550
 8339POPC   PO464152  24.526   2.810   5.850
 8339POPC   GL164153  24.515   2.760   6.150
 8339POPC   GL264154  24.389   2.739   6.150
 8339POPC   C1A64155  24.531   2.783   6.450
 8339POPC   D2A64156  24.494   2.804   6.750
 8339POPC   C3A64157  24.531   2.779   7.050
 8339POPC   C4A64158  24.507   2.754   7.350
 8339POPC   C1B64159  24.278   2.777   6.450
 8339POPC   C2B64160  24.229   2.713   6.750
 8339POPC   C3B64161  24.219   2.737   7.050
 8339POPC   C4B64162  24.281   2.720   7.350
 8340POPC   NC364163  17.506  39.209   5.550
 8340POPC   PO464164  17.463  39.212   5.850
 8340POPC   GL164165  17.462  39.253   6.150
 8340POPC   GL264166  17.390  39.116   6.150
 8340POPC   C1A64167  17.475  39.210   6.450
 8340POPC   D2A64168  17.487  39.231   6.750
 8340POPC   C3A64169  17.518  39.245   7.050
 8340POPC   C4A64170  17.486  39.201   7.350
 8340POPC   C1B64171  17.400  39.016   6.450
 8340POPC   C2B64172  17.371  39.024   6.750
 8340POPC   C3B64173  17.374  39.040   7.050
 8340POPC   C4B64174  17.390  38.983   7.350
 8341POPC   NC364175  25.242  23.759   5.550
 8341POPC   PO464176  25.259  23.757   5.850
 8341POPC   GL164177  25.294  23.749   6.150
 8341POPC   GL264178  25.291  23.642   6.150
 8341POPC   C1A64179  25.294  23.701   6.450
 8341POPC   D2A64180  25.228  23.724   6.750
 8341POPC   C3A64181  25.227  23.742   7.050
 8341POPC   C4A64182  25.286  23.689   7.350
 8341POPC   C1B64183  25.333  23.470   6.450
 8341POPC   C2B64184  25.315  23.432   6.750
 8341POPC   C3B64185  25.351  23.484   7.050
 8341POPC   C4B64186  25.383  23.431   7.350
 8342POPC   NC364187  12.845  40.774   5.550
 8342POPC   PO464188  12.840  40.825   5.850
 8342POPC   GL164189  12.894  40.823   6.150
 8342POPC   GL264190  12.932  40.767   6.150
 8342POPC   C1A64191  12.865  40.737   6.450
 8342POPC   D2A64192  12.873  40.789   6.750
 8342POPC   C3A64193  12.816  40.762   7.050
 8342POPC   C4A64194  12.899  40.794   7.350
 8342POPC   C1B64195  13.087  40.842   6.450
 8342POPC   C2B64196  13.137  40.780   6.750
 8342POPC   C3B64197  13.103  40.780   7.050
 8342POPC   C4B64198  13.111  40.805   7.350
 8343POPC   NC364199  18.325   2.022   5.550
 8343POPC   PO464200  18.276   2.025   5.850
 8343POPC   GL164201  18.282   1.965   6.150
 8343POPC   GL264202  18.251   1.907   6.150
 8343POPC   C1A64203  18.303   2.006   6.450
 8343POPC   D2A64204  18.324   1.966   6.750
 8343POPC   C3A64205  18.317   1.954   7.050
 8343POPC   C4A64206  18.233   2.037   7.350
 8343POPC   C1B64207  18.288   1.707   6.450
 8343POPC   C2B64208  18.295   1.699   6.750
 8343POPC   C3B64209  18.282   1.735   7.050
 8343POPC   C4B64210  18.248   1.738   7.350
 8344POPC   NC364211   5.078  19.061   5.550
 8344POPC   PO464212   5.076  19.051   5.850
 8344POPC   GL164213   5.097  19.037   6.150
 8344POPC   GL264214   5.216  19.041   6.150
 8344POPC   C1A64215   5.083  19.024   6.450
 8344POPC   D2A64216   5.071  19.021   6.750
 8344POPC   C3A64217   5.112  19.023   7.050
 8344POPC   C4A64218   5.102  19.078   7.350
 8344POPC   C1B64219   5.378  19.094   6.450
 8344POPC   C2B64220   5.363  19.005   6.750
 8344POPC   C3B64221   5.316  19.063   7.050
 8344POPC   C4B64222   5.386  19.002   7.350
 8345POPC   NC364223  13.650  26.021   5.550
 8345POPC   PO464224  13.642  26.014   5.850
 8345POPC   GL164225  13.653  26.014   6.150
 8345POPC   GL264226  13.542  25.997   6.150
 8345POPC   C1A64227  13.651  26.047   6.450
 8345POPC   D2A64228  13.601  26.064   6.750
 8345POPC   C3A64229  13.600  26.051   7.050
 8345POPC   C4A64230  13.673  26.029   7.350
 8345POPC   C1B64231  13.361  25.912   6.450
 8345POPC   C2B64232  13.430  25.918   6.750
 8345POPC   C3B64233  13.449  25.896   7.050
 8345POPC   C4B64234  13.431  25.940   7.350
 8346POPC   NC364235  14.386   1.949   5.550
 8346POPC   PO464236  14.452   1.975   5.850
 8346POPC   GL164237  14.384   2.027   6.150
 8346POPC   GL264238  14.547   1.958   6.150
 8346POPC   C1A64239  14.354   2.029   6.450
 8346POPC   D2A64240  14.409   1.951   6.750
 8346POPC   C3A64241  14.385   1.993   7.050
 8346POPC   C4A64242  14.429   2.036   7.350
 8346POPC   C1B64243  14.637   1.977   6.450
 8346POPC   C2B64244  14.684   1.985   6.750
 8346POPC   C3B64245  14.614   1.935   7.050
 8346POPC   C4B64246  14.605   1.999   7.350
 8347POPC   NC364247  33.776   0.443   5.550
 8347POPC   PO464248  33.832   0.432   5.850
 8347POPC   GL164249  33.762   0.441   6.150
 8347POPC   GL264250  33.738   0.362   6.150
 8347POPC   C1A64251  33.774   0.433   6.450
 8347POPC   D2A64252  33.813   0.466   6.750
 8347POPC   C3A64253  33.786   0.393   7.050
 8347POPC   C4A64254  33.797   0.443   7.350
 8347POPC   C1B64255  33.532   0.359   6.450
 8347POPC   C2B64256  33.558   0.321   6.750
 8347POPC   C3B64257  33.623   0.341   7.050
 8347POPC   C4B64258  33.547   0.315   7.350
 8348POPC   NC364259  43.083  31.509   5.550
 8348POPC   PO464260  43.160  31.426   5.850
 8348POPC   GL164261  43.124  31.463   6.150
 8348POPC   GL264262  43.169  31.629   6.150
 8348POPC   C1A64263  43.158  31.448   6.450
 8348POPC   D2A64264  43.145  31.424   6.750
 8348POPC   C3A64265  43.068  31.480   7.050
 8348POPC   C4A64266  43.128  31.486   7.350
 8348POPC   C1B64267  43.087  31.698   6.450
 8348POPC   C2B64268  43.113  31.769   6.750
 8348POPC   C3B64269  43.172  31.727   7.050
 8348POPC   C4B64270  43.134  31.728   7.350
 8349POPC   NC364271  39.194   5.072   5.550
 8349POPC   PO464272  39.200   5.068   5.850
 8349POPC   GL164273  39.188   5.085   6.150
 8349POPC   GL264274  39.318   5.179   6.150
 8349POPC   C1A64275  39.262   5.083   6.450
 8349POPC   D2A64276  39.204   5.092   6.750
 8349POPC   C3A64277  39.220   5.121   7.050
 8349POPC   C4A64278  39.239   5.059   7.350
 8349POPC   C1B64279  39.292   5.276   6.450
 8349POPC   C2B64280  39.329   5.307   6.750
 8349POPC   C3B64281  39.315   5.292   7.050
 8349POPC   C4B64282  39.305   5.355   7.350
 8350POPC   NC364283  34.600  14.379   5.550
 8350POPC   PO464284  34.572  14.358   5.850
 8350POPC   GL164285  34.583  14.372   6.150
 8350POPC   GL264286  34.598  14.331   6.150
 8350POPC   C1A64287  34.566  14.375   6.450
 8350POPC   D2A64288  34.622  14.356   6.750
 8350POPC   C3A64289  34.594  14.443   7.050
 8350POPC   C4A64290  34.533  14.421   7.350
 8350POPC   C1B64291  34.651  14.161   6.450
 8350POPC   C2B64292  34.703  14.166   6.750
 8350POPC   C3B64293  34.671  14.197   7.050
 8350POPC   C4B64294  34.679  14.195   7.350
 8351POPC   NC364295  28.415  44.656   5.550
 8351POPC   PO464296  28.368  44.662   5.850
 8351POPC   GL164297  28.405  44.680   6.150
 8351POPC   GL264298  28.295  44.625   6.150
 8351POPC   C1A64299  28.338  44.641   6.450
 8351POPC   D2A64300  28.396  44.627   6.750
 8351POPC   C3A64301  28.335  44.676   7.050
 8351POPC   C4A64302  28.390  44.688   7.350
 8351POPC   C1B64303  28.110  44.653   6.450
 8351POPC   C2B64304  28.097  44.620   6.750
 8351POPC   C3B64305  28.166  44.566   7.050
 8351POPC   C4B64306  28.158  44.613   7.350
 8352POPC   NC364307  33.058   3.575   5.550
 8352POPC   PO464308  33.061   3.572   5.850
 8352POPC   GL164309  32.987   3.517   6.150
 8352POPC   GL264310  33.042   3.631   6.150
 8352POPC   C1A64311  33.057   3.589   6.450
 8352POPC   D2A64312  33.008   3.520   6.750
 8352POPC   C3A64313  33.041   3.498   7.050
 8352POPC   C4A64314  33.031   3.558   7.350
 8352POPC   C1B64315  33.042   3.807   6.450
 8352POPC   C2B64316  32.955   3.830   6.750
 8352POPC   C3B64317  32.993   3.759   7.050
 8352POPC   C4B64318  32.987   3.772   7.350
 8353POPC   NC364319  34.579  29.146   5.550
 8353POPC   PO464320  34.571  29.133   5.850
 8353POPC   GL164321  34.557  29.177   6.150
 8353POPC   GL264322  34.680  29.130   6.150
 8353POPC   C1A64323  34.530  29.171   6.450
 8353POPC   D2A64324  34.575  29.150   6.750
 8353POPC   C3A64325  34.619  29.097   7.050
 8353POPC   C4A64326  34.542  29.108   7.350
 8353POPC   C1B64327  34.870  29.147   6.450
 8353POPC   C2B64328  34.820  29.093   6.750
 8353POPC   C3B64329  34.805  29.124   7.050
 8353POPC   C4B64330  34.800  29.162   7.350
 8354POPC   NC364331  43.927   2.767   5.550
 8354POPC   PO464332  43.918   2.808   5.850
 8354POPC   GL164333  43.875   2.733   6.150
 8354POPC   GL264334  43.831   2.651   6.150
 8354POPC   C1A64335  43.853   2.804   6.450
 8354POPC   D2A64336  43.902   2.772   6.750
 8354POPC   C3A64337  43.916   2.723   7.050
 8354POPC   C4A64338  43.855   2.809   7.350
 8354POPC   C1B64339  43.723   2.633   6.450
 8354POPC   C2B64340  43.683   2.607   6.750
 8354POPC   C3B64341  43.693   2.583   7.050
 8354POPC   C4B64342  43.710   2.569   7.350
 8355POPC   NC364343  33.021  31.486   5.550
 8355POPC   PO464344  33.053  31.514   5.850
 8355POPC   GL164345  32.997  31.502   6.150
 8355POPC   GL264346  33.059  31.549   6.150
 8355POPC   C1A64347  33.071  31.476   6.450
 8355POPC   D2A64348  33.029  31.492   6.750
 8355POPC   C3A64349  33.053  31.432   7.050
 8355POPC   C4A64350  33.002  31.424   7.350
 8355POPC   C1B64351  33.120  31.644   6.450
 8355POPC   C2B64352  33.180  31.707   6.750
 8355POPC   C3B64353  33.161  31.703   7.050
 8355POPC   C4B64354  33.150  31.704   7.350
 8356POPC   NC364355  28.332   0.475   5.550
 8356POPC   PO464356  28.363   0.430   5.850
 8356POPC   GL164357  28.362   0.477   6.150
 8356POPC   GL264358  28.390   0.308   6.150
 8356POPC   C1A64359  28.415   0.461   6.450
 8356POPC   D2A64360  28.391   0.425   6.750
 8356POPC   C3A64361  28.355   0.467   7.050
 8356POPC   C4A64362  28.341   0.393   7.350
 8356POPC   C1B64363  28.474   0.205   6.450
 8356POPC   C2B64364  28.540   0.257   6.750
 8356POPC   C3B64365  28.499   0.215   7.050
 8356POPC   C4B64366  28.517   0.249   7.350
 8357POPC   NC364367  36.890   8.205   5.550
 8357POPC   PO464368  36.908   8.157   5.850
 8357POPC   GL164369  36.923   8.152   6.150
 8357POPC   GL264370  36.824   8.104   6.150
 8357POPC   C1A64371  36.896   8.149   6.450
 8357POPC   D2A64372  36.920   8.218   6.750
 8357POPC   C3A64373  36.902   8.234   7.050
 8357POPC   C4A64374  36.899   8.211   7.350
 8357POPC   C1B64375  36.650   8.112   6.450
 8357POPC   C2B64376  36.676   8.081   6.750
 8357POPC   C3B64377  36.635   8.130   7.050
 8357POPC   C4B64378  36.626   8.132   7.350
 8358POPC   NC364379  33.803  32.261   5.550
 8358POPC   PO464380  33.780  32.239   5.850
 8358POPC   GL164381  33.820  32.266   6.150
 8358POPC   GL264382  33.771  32.112   6.150
 8358POPC   C1A64383  33.815  32.289   6.450
 8358POPC   D2A64384  33.781  32.217   6.750
 8358POPC   C3A64385  33.832  32.273   7.050
 8358POPC   C4A64386  33.845  32.260   7.350
 8358POPC   C1B64387  33.622  32.098   6.450
 8358POPC   C2B64388  33.669  32.020   6.750
 8358POPC   C3B64389  33.622  32.096   7.050
 8358POPC   C4B64390  33.648  32.024   7.350
 8359POPC   NC364391   1.945  40.794   5.550
 8359POPC   PO464392   2.024  40.774   5.850
 8359POPC   GL164393   1.964  40.783   6.150
 8359POPC   GL264394   2.084  40.691   6.150
 8359POPC   C1A64395   2.024  40.786   6.450
 8359POPC   D2A64396   1.978  40.767   6.750
 8359POPC   C3A64397   1.956  40.772   7.050
 8359POPC   C4A64398   1.985  40.745   7.350
 8359POPC   C1B64399   2.093  40.548   6.450
 8359POPC   C2B64400   2.092  40.561   6.750
 8359POPC   C3B64401   2.125  40.613   7.050
 8359POPC   C4B64402   2.092  40.530   7.350
 8360POPC   NC364403   7.391   6.649   5.550
 8360POPC   PO464404   7.378   6.639   5.850
 8360POPC   GL164405   7.394   6.633   6.150
 8360POPC   GL264406   7.332   6.774   6.150
 8360POPC   C1A64407   7.385   6.651   6.450
 8360POPC   D2A64408   7.469   6.674   6.750
 8360POPC   C3A64409   7.391   6.691   7.050
 8360POPC   C4A64410   7.463   6.676   7.350
 8360POPC   C1B64411   7.262   6.890   6.450
 8360POPC   C2B64412   7.263   6.858   6.750
 8360POPC   C3B64413   7.265   6.912   7.050
 8360POPC   C4B64414   7.267   6.874   7.350
 8361POPC   NC364415  33.014  36.113   5.550
 8361POPC   PO464416  33.046  36.107   5.850
 8361POPC   GL164417  32.991  36.144   6.150
 8361POPC   GL264418  33.033  35.957   6.150
 8361POPC   C1A64419  32.987  36.112   6.450
 8361POPC   D2A64420  32.991  36.109   6.750
 8361POPC   C3A64421  33.031  36.154   7.050
 8361POPC   C4A64422  33.029  36.097   7.350
 8361POPC   C1B64423  32.941  35.923   6.450
 8361POPC   C2B64424  32.980  35.858   6.750
 8361POPC   C3B64425  32.968  35.840   7.050
 8361POPC   C4B64426  32.947  35.925   7.350
 8362POPC   NC364427  21.384  15.153   5.550
 8362POPC   PO464428  21.337  15.228   5.850
 8362POPC   GL164429  21.369  15.206   6.150
 8362POPC   GL264430  21.214  15.196   6.150
 8362POPC   C1A64431  21.410  15.146   6.450
 8362POPC   D2A64432  21.344  15.165   6.750
 8362POPC   C3A64433  21.384  15.229   7.050
 8362POPC   C4A64434  21.422  15.179   7.350
 8362POPC   C1B64435  21.098  15.254   6.450
 8362POPC   C2B64436  21.133  15.209   6.750
 8362POPC   C3B64437  21.121  15.184   7.050
 8362POPC   C4B64438  21.157  15.181   7.350
 8363POPC   NC364439  38.476  32.222   5.550
 8363POPC   PO464440  38.483  32.235   5.850
 8363POPC   GL164441  38.432  32.201   6.150
 8363POPC   GL264442  38.346  32.183   6.150
 8363POPC   C1A64443  38.446  32.270   6.450
 8363POPC   D2A64444  38.458  32.229   6.750
 8363POPC   C3A64445  38.457  32.238   7.050
 8363POPC   C4A64446  38.493  32.259   7.350
 8363POPC   C1B64447  38.323  32.070   6.450
 8363POPC   C2B64448  38.249  32.094   6.750
 8363POPC   C3B64449  38.300  32.092   7.050
 8363POPC   C4B64450  38.252  32.034   7.350
 8364POPC   NC364451  13.660  35.371   5.550
 8364POPC   PO464452  13.662  35.369   5.850
 8364POPC   GL164453  13.626  35.323   6.150
 8364POPC   GL264454  13.653  35.485   6.150
 8364POPC   C1A64455  13.660  35.366   6.450
 8364POPC   D2A64456  13.579  35.304   6.750
 8364POPC   C3A64457  13.616  35.346   7.050
 8364POPC   C4A64458  13.642  35.312   7.350
 8364POPC   C1B64459  13.738  35.567   6.450
 8364POPC   C2B64460  13.781  35.612   6.750
 8364POPC   C3B64461  13.793  35.585   7.050
 8364POPC   C4B64462  13.736  35.531   7.350
 8365POPC   NC364463  35.387  27.593   5.550
 8365POPC   PO464464  35.339  27.582   5.850
 8365POPC   GL164465  35.326  27.552   6.150
 8365POPC   GL264466  35.478  27.573   6.150
 8365POPC   C1A64467  35.383  27.590   6.450
 8365POPC   D2A64468  35.388  27.577   6.750
 8365POPC   C3A64469  35.335  27.601   7.050
 8365POPC   C4A64470  35.393  27.631   7.350
 8365POPC   C1B64471  35.572  27.425   6.450
 8365POPC   C2B64472  35.560  27.433   6.750
 8365POPC   C3B64473  35.521  27.428   7.050
 8365POPC   C4B64474  35.518  27.440   7.350
 8366POPC   NC364475  19.806  11.332   5.550
 8366POPC   PO464476  19.849  11.322   5.850
 8366POPC   GL164477  19.822  11.262   6.150
 8366POPC   GL264478  19.980  11.341   6.150
 8366POPC   C1A64479  19.877  11.338   6.450
 8366POPC   D2A64480  19.787  11.272   6.750
 8366POPC   C3A64481  19.838  11.304   7.050
 8366POPC   C4A64482  19.852  11.252   7.350
 8366POPC   C1B64483  20.043  11.385   6.450
 8366POPC   C2B64484  20.077  11.304   6.750
 8366POPC   C3B64485  20.108  11.366   7.050
 8366POPC   C4B64486  20.125  11.348   7.350
 8367POPC   NC364487   5.900  35.328   5.550
 8367POPC   PO464488   5.868  35.313   5.850
 8367POPC   GL164489   5.886  35.370   6.150
 8367POPC   GL264490   5.936  35.213   6.150
 8367POPC   C1A64491   5.904  35.383   6.450
 8367POPC   D2A64492   5.851  35.401   6.750
 8367POPC   C3A64493   5.850  35.367   7.050
 8367POPC   C4A64494   5.878  35.369   7.350
 8367POPC   C1B64495   5.905  35.070   6.450
 8367POPC   C2B64496   5.953  35.066   6.750
 8367POPC   C3B64497   5.922  35.055   7.050
 8367POPC   C4B64498   5.929  35.127   7.350
 8368POPC   NC364499  32.245  39.994   5.550
 8368POPC   PO464500  32.222  40.042   5.850
 8368POPC   GL164501  32.278  40.055   6.150
 8368POPC   GL264502  32.359  40.004   6.150
 8368POPC   C1A64503  32.262  39.959   6.450
 8368POPC   D2A64504  32.239  40.008   6.750
 8368POPC   C3A64505  32.201  40.002   7.050
 8368POPC   C4A64506  32.202  40.017   7.350
 8368POPC   C1B64507  32.519  39.991   6.450
 8368POPC   C2B64508  32.450  40.009   6.750
 8368POPC   C3B64509  32.479  39.965   7.050
 8368POPC   C4B64510  32.491  40.004   7.350
 8369POPC   NC364511   2.798  25.278   5.550
 8369POPC   PO464512   2.754  25.282   5.850
 8369POPC   GL164513   2.777  25.235   6.150
 8369POPC   GL264514   2.881  25.185   6.150
 8369POPC   C1A64515   2.804  25.277   6.450
 8369POPC   D2A64516   2.754  25.249   6.750
 8369POPC   C3A64517   2.809  25.300   7.050
 8369POPC   C4A64518   2.751  25.248   7.350
 8369POPC   C1B64519   2.961  25.170   6.450
 8369POPC   C2B64520   3.027  25.206   6.750
 8369POPC   C3B64521   3.025  25.186   7.050
 8369POPC   C4B64522   2.980  25.197   7.350
 8370POPC   NC364523  19.789   6.615   5.550
 8370POPC   PO464524  19.790   6.625   5.850
 8370POPC   GL164525  19.880   6.632   6.150
 8370POPC   GL264526  19.963   6.712   6.150
 8370POPC   C1A64527  19.834   6.611   6.450
 8370POPC   D2A64528  19.845   6.597   6.750
 8370POPC   C3A64529  19.807   6.684   7.050
 8370POPC   C4A64530  19.872   6.680   7.350
 8370POPC   C1B64531  20.005   6.799   6.450
 8370POPC   C2B64532  19.989   6.825   6.750
 8370POPC   C3B64533  20.000   6.865   7.050
 8370POPC   C4B64534  19.957   6.826   7.350
 8371POPC   NC364535   4.366  30.651   5.550
 8371POPC   PO464536   4.329  30.670   5.850
 8371POPC   GL164537   4.302  30.724   6.150
 8371POPC   GL264538   4.390  30.844   6.150
 8371POPC   C1A64539   4.281  30.741   6.450
 8371POPC   D2A64540   4.335  30.731   6.750
 8371POPC   C3A64541   4.298  30.660   7.050
 8371POPC   C4A64542   4.311  30.660   7.350
 8371POPC   C1B64543   4.423  30.946   6.450
 8371POPC   C2B64544   4.458  30.933   6.750
 8371POPC   C3B64545   4.444  30.877   7.050
 8371POPC   C4B64546   4.485  30.913   7.350
 8372POPC   NC364547  15.916  15.190   5.550
 8372POPC   PO464548  15.958  15.133   5.850
 8372POPC   GL164549  15.971  15.205   6.150
 8372POPC   GL264550  15.908  15.250   6.150
 8372POPC   C1A64551  15.967  15.174   6.450
 8372POPC   D2A64552  15.954  15.222   6.750
 8372POPC   C3A64553  15.934  15.207   7.050
 8372POPC   C4A64554  15.975  15.228   7.350
 8372POPC   C1B64555  15.861  15.387   6.450
 8372POPC   C2B64556  15.904  15.409   6.750
 8372POPC   C3B64557  15.878  15.394   7.050
 8372POPC   C4B64558  15.846  15.374   7.350
 8373POPC   NC364559  12.026   0.440   5.550
 8373POPC   PO464560  12.072   0.469   5.850
 8373POPC   GL164561  12.041   0.453   6.150
 8373POPC   GL264562  12.112   0.274   6.150
 8373POPC   C1A64563  12.106   0.454   6.450
 8373POPC   D2A64564  12.126   0.447   6.750
 8373POPC   C3A64565  12.111   0.451   7.050
 8373POPC   C4A64566  12.116   0.477   7.350
 8373POPC   C1B64567  12.090   0.171   6.450
 8373POPC   C2B64568  12.104   0.163   6.750
 8373POPC   C3B64569  12.040   0.147   7.050
 8373POPC   C4B64570  12.019   0.192   7.350
 8374POPC   NC364571  27.611   0.481   5.550
 8374POPC   PO464572  27.580   0.439   5.850
 8374POPC   GL164573  27.544   0.392   6.150
 8374POPC   GL264574  27.708   0.353   6.150
 8374POPC   C1A64575  27.550   0.442   6.450
 8374POPC   D2A64576  27.577   0.390   6.750
 8374POPC   C3A64577  27.551   0.402   7.050
 8374POPC   C4A64578  27.562   0.415   7.350
 8374POPC   C1B64579  27.774   0.331   6.450
 8374POPC   C2B64580  27.766   0.296   6.750
 8374POPC   C3B64581  27.767   0.301   7.050
 8374POPC   C4B64582  27.758   0.336   7.350
 8375POPC   NC364583  20.634  31.439   5.550
 8375POPC   PO464584  20.659  31.464   5.850
 8375POPC   GL164585  20.631  31.438   6.150
 8375POPC   GL264586  20.547  31.590   6.150
 8375POPC   C1A64587  20.655  31.468   6.450
 8375POPC   D2A64588  20.581  31.491   6.750
 8375POPC   C3A64589  20.578  31.485   7.050
 8375POPC   C4A64590  20.608  31.487   7.350
 8375POPC   C1B64591  20.463  31.718   6.450
 8375POPC   C2B64592  20.454  31.707   6.750
 8375POPC   C3B64593  20.509  31.673   7.050
 8375POPC   C4B64594  20.470  31.708   7.350
 8376POPC   NC364595  29.932  44.648   5.550
 8376POPC   PO464596  29.917  44.700   5.850
 8376POPC   GL164597  29.943  44.658   6.150
 8376POPC   GL264598  29.804  44.708   6.150
 8376POPC   C1A64599  29.923  44.618   6.450
 8376POPC   D2A64600  29.937  44.632   6.750
 8376POPC   C3A64601  29.943  44.678   7.050
 8376POPC   C4A64602  29.924  44.660   7.350
 8376POPC   C1B64603  29.666  44.708   6.450
 8376POPC   C2B64604  29.710  44.770   6.750
 8376POPC   C3B64605  29.732  44.704   7.050
 8376POPC   C4B64606  29.650  44.783   7.350
 8377POPC   NC364607  23.706  33.045   5.550
 8377POPC   PO464608  23.685  33.056   5.850
 8377POPC   GL164609  23.684  33.040   6.150
 8377POPC   GL264610  23.579  32.905   6.150
 8377POPC   C1A64611  23.759  33.071   6.450
 8377POPC   D2A64612  23.717  33.017   6.750
 8377POPC   C3A64613  23.665  33.055   7.050
 8377POPC   C4A64614  23.725  33.070   7.350
 8377POPC   C1B64615  23.579  32.877   6.450
 8377POPC   C2B64616  23.519  32.843   6.750
 8377POPC   C3B64617  23.547  32.902   7.050
 8377POPC   C4B64618  23.499  32.889   7.350
 8378POPC   NC364619  39.182  25.299   5.550
 8378POPC   PO464620  39.224  25.289   5.850
 8378POPC   GL164621  39.250  25.273   6.150
 8378POPC   GL264622  39.319  25.245   6.150
 8378POPC   C1A64623  39.233  25.221   6.450
 8378POPC   D2A64624  39.227  25.263   6.750
 8378POPC   C3A64625  39.226  25.307   7.050
 8378POPC   C4A64626  39.217  25.263   7.350
 8378POPC   C1B64627  39.439  25.227   6.450
 8378POPC   C2B64628  39.452  25.256   6.750
 8378POPC   C3B64629  39.488  25.212   7.050
 8378POPC   C4B64630  39.435  25.292   7.350
 8379POPC   NC364631   2.788  27.624   5.550
 8379POPC   PO464632   2.757  27.566   5.850
 8379POPC   GL164633   2.725  27.547   6.150
 8379POPC   GL264634   2.766  27.501   6.150
 8379POPC   C1A64635   2.778  27.629   6.450
 8379POPC   D2A64636   2.815  27.636   6.750
 8379POPC   C3A64637   2.737  27.600   7.050
 8379POPC   C4A64638   2.722  27.551   7.350
 8379POPC   C1B64639   2.820  27.355   6.450
 8379POPC   C2B64640   2.781  27.385   6.750
 8379POPC   C3B64641   2.861  27.313   7.050
 8379POPC   C4B64642   2.822  27.359   7.350
 8380POPC   NC364643  26.846   0.435   5.550
 8380POPC   PO464644  26.834   0.465   5.850
 8380POPC   GL164645  26.800   0.403   6.150
 8380POPC   GL264646  26.784   0.525   6.150
 8380POPC   C1A64647  26.793   0.402   6.450
 8380POPC   D2A64648  26.800   0.460   6.750
 8380POPC   C3A64649  26.822   0.455   7.050
 8380POPC   C4A64650  26.844   0.400   7.350
 8380POPC   C1B64651  26.724   0.642   6.450
 8380POPC   C2B64652  26.702   0.653   6.750
 8380POPC   C3B64653  26.760   0.723   7.050
 8380POPC   C4B64654  26.780   0.656   7.350
 8381POPC   NC364655  36.911  16.775   5.550
 8381POPC   PO464656  36.938  16.775   5.850
 8381POPC   GL164657  36.854  16.694   6.150
 8381POPC   GL264658  37.007  16.784   6.150
 8381POPC   C1A64659  36.915  16.687   6.450
 8381POPC   D2A64660  36.861  16.707   6.750
 8381POPC   C3A64661  36.885  16.778   7.050
 8381POPC   C4A64662  36.931  16.688   7.350
 8381POPC   C1B64663  37.131  16.794   6.450
 8381POPC   C2B64664  37.161  16.809   6.750
 8381POPC   C3B64665  37.188  16.727   7.050
 8381POPC   C4B64666  37.156  16.769   7.350
 8382POPC   NC364667  42.335  13.623   5.550
 8382POPC   PO464668  42.320  13.584   5.850
 8382POPC   GL164669  42.302  13.581   6.150
 8382POPC   GL264670  42.220  13.671   6.150
 8382POPC   C1A64671  42.376  13.612   6.450
 8382POPC   D2A64672  42.321  13.645   6.750
 8382POPC   C3A64673  42.324  13.627   7.050
 8382POPC   C4A64674  42.326  13.652   7.350
 8382POPC   C1B64675  42.134  13.656   6.450
 8382POPC   C2B64676  42.127  13.636   6.750
 8382POPC   C3B64677  42.036  13.654   7.050
 8382POPC   C4B64678  42.115  13.615   7.350
 8383POPC   NC364679  27.615  43.899   5.550
 8383POPC   PO464680  27.583  43.924   5.850
 8383POPC   GL164681  27.548  43.877   6.150
 8383POPC   GL264682  27.693  43.945   6.150
 8383POPC   C1A64683  27.607  43.908   6.450
 8383POPC   D2A64684  27.558  43.891   6.750
 8383POPC   C3A64685  27.576  43.894   7.050
 8383POPC   C4A64686  27.584  43.932   7.350
 8383POPC   C1B64687  27.680  44.096   6.450
 8383POPC   C2B64688  27.743  44.128   6.750
 8383POPC   C3B64689  27.687  44.101   7.050
 8383POPC   C4B64690  27.754  44.150   7.350
 8384POPC   NC364691  22.134  34.546   5.550
 8384POPC   PO464692  22.154  34.599   5.850
 8384POPC   GL164693  22.171  34.553   6.150
 8384POPC   GL264694  22.105  34.690   6.150
 8384POPC   C1A64695  22.156  34.570   6.450
 8384POPC   D2A64696  22.177  34.604   6.750
 8384POPC   C3A64697  22.196  34.602   7.050
 8384POPC   C4A64698  22.134  34.533   7.350
 8384POPC   C1B64699  22.100  34.849   6.450
 8384POPC   C2B64700  22.082  34.831   6.750
 8384POPC   C3B64701  22.068  34.828   7.050
 8384POPC   C4B64702  22.099  34.867   7.350
 8385POPC   NC364703  39.278  19.012   5.550
 8385POPC   PO464704  39.261  19.067   5.850
 8385POPC   GL164705  39.239  19.075   6.150
 8385POPC   GL264706  39.086  19.025   6.150
 8385POPC   C1A64707  39.214  19.050   6.450
 8385POPC   D2A64708  39.211  19.010   6.750
 8385POPC   C3A64709  39.229  19.036   7.050
 8385POPC   C4A64710  39.266  19.106   7.350
 8385POPC   C1B64711  38.936  19.032   6.450
 8385POPC   C2B64712  39.005  19.092   6.750
 8385POPC   C3B64713  38.949  19.093   7.050
 8385POPC   C4B64714  38.962  19.032   7.350
 8386POPC   NC364715   1.978   0.487   5.550
 8386POPC   PO464716   1.986   0.469   5.850
 8386POPC   GL164717   2.032   0.394   6.150
 8386POPC   GL264718   2.065   0.576   6.150
 8386POPC   C1A64719   1.978   0.411   6.450
 8386POPC   D2A64720   1.948   0.424   6.750
 8386POPC   C3A64721   1.955   0.477   7.050
 8386POPC   C4A64722   1.989   0.412   7.350
 8386POPC   C1B64723   2.003   0.702   6.450
 8386POPC   C2B64724   2.053   0.646   6.750
 8386POPC   C3B64725   2.016   0.665   7.050
 8386POPC   C4B64726   2.074   0.712   7.350
 8387POPC   NC364727   5.057   5.071   5.550
 8387POPC   PO464728   5.117   5.064   5.850
 8387POPC   GL164729   5.063   5.128   6.150
 8387POPC   GL264730   5.163   5.171   6.150
 8387POPC   C1A64731   5.135   5.112   6.450
 8387POPC   D2A64732   5.073   5.074   6.750
 8387POPC   C3A64733   5.110   5.088   7.050
 8387POPC   C4A64734   5.142   5.123   7.350
 8387POPC   C1B64735   5.179   5.375   6.450
 8387POPC   C2B64736   5.161   5.356   6.750
 8387POPC   C3B64737   5.199   5.351   7.050
 8387POPC   C4B64738   5.232   5.375   7.350
 8388POPC   NC364739  21.396   2.807   5.550
 8388POPC   PO464740  21.411   2.775   5.850
 8388POPC   GL164741  21.401   2.777   6.150
 8388POPC   GL264742  21.329   2.671   6.150
 8388POPC   C1A64743  21.370   2.735   6.450
 8388POPC   D2A64744  21.391   2.756   6.750
 8388POPC   C3A64745  21.425   2.770   7.050
 8388POPC   C4A64746  21.403   2.732   7.350
 8388POPC   C1B64747  21.315   2.480   6.450
 8388POPC   C2B64748  21.264   2.479   6.750
 8388POPC   C3B64749  21.279   2.565   7.050
 8388POPC   C4B64750  21.277   2.521   7.350
 8389POPC   NC364751  27.561  38.460   5.550
 8389POPC   PO464752  27.575  38.497   5.850
 8389POPC   GL164753  27.578  38.475   6.150
 8389POPC   GL264754  27.747  38.564   6.150
 8389POPC   C1A64755  27.622  38.492   6.450
 8389POPC   D2A64756  27.618  38.411   6.750
 8389POPC   C3A64757  27.585  38.462   7.050
 8389POPC   C4A64758  27.564  38.439   7.350
 8389POPC   C1B64759  27.816  38.592   6.450
 8389POPC   C2B64760  27.780  38.544   6.750
 8389POPC   C3B64761  27.840  38.546   7.050
 8389POPC   C4B64762  27.840  38.630   7.350
 8390POPC   NC364763   1.984  39.979   5.550
 8390POPC   PO464764   1.949  39.961   5.850
 8390POPC   GL164765   2.008  40.040   6.150
 8390POPC   GL264766   1.902  40.059   6.150
 8390POPC   C1A64767   2.005  40.036   6.450
 8390POPC   D2A64768   2.014  39.985   6.750
 8390POPC   C3A64769   1.958  39.965   7.050
 8390POPC   C4A64770   2.029  40.050   7.350
 8390POPC   C1B64771   1.787  40.204   6.450
 8390POPC   C2B64772   1.809  40.182   6.750
 8390POPC   C3B64773   1.787  40.160   7.050
 8390POPC   C4B64774   1.817  40.191   7.350
 8391POPC   NC364775  41.552   9.735   5.550
 8391POPC   PO464776  41.549   9.726   5.850
 8391POPC   GL164777  41.577   9.733   6.150
 8391POPC   GL264778  41.634   9.659   6.150
 8391POPC   C1A64779  41.574   9.704   6.450
 8391POPC   D2A64780  41.574   9.778   6.750
 8391POPC   C3A64781  41.510   9.788   7.050
 8391POPC   C4A64782  41.519   9.723   7.350
 8391POPC   C1B64783  41.659   9.519   6.450
 8391POPC   C2B64784  41.715   9.539   6.750
 8391POPC   C3B64785  41.710   9.532   7.050
 8391POPC   C4B64786  41.618   9.527   7.350
 8392POPC   NC364787  42.362  20.564   5.550
 8392POPC   PO464788  42.327  20.591   5.850
 8392POPC   GL164789  42.324  20.587   6.150
 8392POPC   GL264790  42.451  20.501   6.150
 8392POPC   C1A64791  42.328  20.615   6.450
 8392POPC   D2A64792  42.320  20.582   6.750
 8392POPC   C3A64793  42.326  20.629   7.050
 8392POPC   C4A64794  42.318  20.581   7.350
 8392POPC   C1B64795  42.522  20.451   6.450
 8392POPC   C2B64796  42.487  20.431   6.750
 8392POPC   C3B64797  42.467  20.379   7.050
 8392POPC   C4B64798  42.497  20.454   7.350
 8393POPC   NC364799   5.123   2.011   5.550
 8393POPC   PO464800   5.051   2.035   5.850
 8393POPC   GL164801   5.105   1.957   6.150
 8393POPC   GL264802   5.097   1.856   6.150
 8393POPC   C1A64803   5.137   1.955   6.450
 8393POPC   D2A64804   5.054   1.976   6.750
 8393POPC   C3A64805   5.065   2.021   7.050
 8393POPC   C4A64806   5.141   2.036   7.350
 8393POPC   C1B64807   5.112   1.754   6.450
 8393POPC   C2B64808   5.119   1.765   6.750
 8393POPC   C3B64809   5.072   1.700   7.050
 8393POPC   C4B64810   5.076   1.757   7.350
 8394POPC   NC364811  15.146  12.043   5.550
 8394POPC   PO464812  15.140  12.033   5.850
 8394POPC   GL164813  15.150  12.068   6.150
 8394POPC   GL264814  15.064  12.206   6.150
 8394POPC   C1A64815  15.201  12.123   6.450
 8394POPC   D2A64816  15.221  12.065   6.750
 8394POPC   C3A64817  15.155  12.035   7.050
 8394POPC   C4A64818  15.141  12.124   7.350
 8394POPC   C1B64819  15.055  12.260   6.450
 8394POPC   C2B64820  14.987  12.292   6.750
 8394POPC   C3B64821  14.976  12.229   7.050
 8394POPC   C4B64822  15.022  12.253   7.350
 8395POPC   NC364823   2.035  35.376   5.550
 8395POPC   PO464824   2.023  35.337   5.850
 8395POPC   GL164825   1.991  35.325   6.150
 8395POPC   GL264826   1.901  35.258   6.150
 8395POPC   C1A64827   2.040  35.320   6.450
 8395POPC   D2A64828   1.941  35.308   6.750
 8395POPC   C3A64829   1.996  35.371   7.050
 8395POPC   C4A64830   1.986  35.322   7.350
 8395POPC   C1B64831   1.802  35.236   6.450
 8395POPC   C2B64832   1.835  35.199   6.750
 8395POPC   C3B64833   1.754  35.220   7.050
 8395POPC   C4B64834   1.795  35.236   7.350
 8396POPC   NC364835   6.678   6.661   5.550
 8396POPC   PO464836   6.653   6.614   5.850
 8396POPC   GL164837   6.642   6.636   6.150
 8396POPC   GL264838   6.604   6.537   6.150
 8396POPC   C1A64839   6.660   6.672   6.450
 8396POPC   D2A64840   6.631   6.616   6.750
 8396POPC   C3A64841   6.670   6.610   7.050
 8396POPC   C4A64842   6.600   6.694   7.350
 8396POPC   C1B64843   6.535   6.420   6.450
 8396POPC   C2B64844   6.501   6.469   6.750
 8396POPC   C3B64845   6.469   6.444   7.050
 8396POPC   C4B64846   6.515   6.393   7.350
 8397POPC   NC364847   7.378  26.004   5.550
 8397POPC   PO464848   7.437  26.038   5.850
 8397POPC   GL164849   7.439  25.992   6.150
 8397POPC   GL264850   7.488  25.896   6.150
 8397POPC   C1A64851   7.439  26.067   6.450
 8397POPC   D2A64852   7.401  26.044   6.750
 8397POPC   C3A64853   7.449  26.070   7.050
 8397POPC   C4A64854   7.383  25.994   7.350
 8397POPC   C1B64855   7.526  25.872   6.450
 8397POPC   C2B64856   7.558  25.841   6.750
 8397POPC   C3B64857   7.576  25.784   7.050
 8397POPC   C4B64858   7.572  25.804   7.350
 8398POPC   NC364859  10.519  26.028   5.550
 8398POPC   PO464860  10.492  26.040   5.850
 8398POPC   GL164861  10.572  26.061   6.150
 8398POPC   GL264862  10.465  26.163   6.150
 8398POPC   C1A64863  10.475  26.041   6.450
 8398POPC   D2A64864  10.565  26.084   6.750
 8398POPC   C3A64865  10.553  26.017   7.050
 8398POPC   C4A64866  10.561  26.006   7.350
 8398POPC   C1B64867  10.294  26.225   6.450
 8398POPC   C2B64868  10.377  26.195   6.750
 8398POPC   C3B64869  10.377  26.245   7.050
 8398POPC   C4B64870  10.380  26.220   7.350
 8399POPC   NC364871   3.548  32.238   5.550
 8399POPC   PO464872   3.507  32.234   5.850
 8399POPC   GL164873   3.541  32.244   6.150
 8399POPC   GL264874   3.609  32.320   6.150
 8399POPC   C1A64875   3.532  32.203   6.450
 8399POPC   D2A64876   3.547  32.291   6.750
 8399POPC   C3A64877   3.566  32.267   7.050
 8399POPC   C4A64878   3.515  32.248   7.350
 8399POPC   C1B64879   3.654  32.488   6.450
 8399POPC   C2B64880   3.631  32.492   6.750
 8399POPC   C3B64881   3.687  32.470   7.050
 8399POPC   C4B64882   3.671  32.436   7.350
 8400POPC   NC364883  29.894   2.039   5.550
 8400POPC   PO464884  29.893   1.961   5.850
 8400POPC   GL164885  29.916   1.940   6.150
 8400POPC   GL264886  29.912   2.096   6.150
 8400POPC   C1A64887  29.874   2.021   6.450
 8400POPC   D2A64888  29.956   1.952   6.750
 8400POPC   C3A64889  29.887   1.959   7.050
 8400POPC   C4A64890  29.873   1.994   7.350
 8400POPC   C1B64891  29.945   2.204   6.450
 8400POPC   C2B64892  29.928   2.203   6.750
 8400POPC   C3B64893  29.937   2.212   7.050
 8400POPC   C4B64894  29.893   2.239   7.350
 8401POPC   NC364895  30.740   0.483   5.550
 8401POPC   PO464896  30.649   0.426   5.850
 8401POPC   GL164897  30.671   0.437   6.150
 8401POPC   GL264898  30.838   0.478   6.150
 8401POPC   C1A64899  30.656   0.396   6.450
 8401POPC   D2A64900  30.653   0.405   6.750
 8401POPC   C3A64901  30.718   0.482   7.050
 8401POPC   C4A64902  30.663   0.427   7.350
 8401POPC   C1B64903  30.848   0.576   6.450
 8401POPC   C2B64904  30.890   0.589   6.750
 8401POPC   C3B64905  30.865   0.651   7.050
 8401POPC   C4B64906  30.885   0.638   7.350
 8402POPC   NC364907  22.984  26.023   5.550
 8402POPC   PO464908  22.900  26.084   5.850
 8402POPC   GL164909  22.925  26.078   6.150
 8402POPC   GL264910  23.012  25.879   6.150
 8402POPC   C1A64911  22.970  26.029   6.450
 8402POPC   D2A64912  22.959  26.042   6.750
 8402POPC   C3A64913  22.982  25.994   7.050
 8402POPC   C4A64914  22.943  26.003   7.350
 8402POPC   C1B64915  23.051  25.788   6.450
 8402POPC   C2B64916  23.044  25.773   6.750
 8402POPC   C3B64917  22.986  25.784   7.050
 8402POPC   C4B64918  23.018  25.856   7.350
 8403POPC   NC364919  26.061  30.664   5.550
 8403POPC   PO464920  26.028  30.741   5.850
 8403POPC   GL164921  26.047  30.735   6.150
 8403POPC   GL264922  25.898  30.777   6.150
 8403POPC   C1A64923  25.997  30.649   6.450
 8403POPC   D2A64924  26.034  30.688   6.750
 8403POPC   C3A64925  26.040  30.706   7.050
 8403POPC   C4A64926  26.069  30.656   7.350
 8403POPC   C1B64927  25.859  30.783   6.450
 8403POPC   C2B64928  25.822  30.797   6.750
 8403POPC   C3B64929  25.816  30.808   7.050
 8403POPC   C4B64930  25.803  30.780   7.350
 8404POPC   NC364931  19.021   8.233   5.550
 8404POPC   PO464932  19.012   8.231   5.850
 8404POPC   GL164933  19.094   8.207   6.150
 8404POPC   GL264934  19.118   8.340   6.150
 8404POPC   C1A64935  19.076   8.200   6.450
 8404POPC   D2A64936  19.024   8.199   6.750
 8404POPC   C3A64937  19.034   8.197   7.050
 8404POPC   C4A64938  19.077   8.159   7.350
 8404POPC   C1B64939  19.225   8.410   6.450
 8404POPC   C2B64940  19.191   8.389   6.750
 8404POPC   C3B64941  19.224   8.406   7.050
 8404POPC   C4B64942  19.193   8.374   7.350
 8405POPC   NC364943  17.483  19.054   5.550
 8405POPC   PO464944  17.543  19.100   5.850
 8405POPC   GL164945  17.505  19.050   6.150
 8405POPC   GL264946  17.355  19.025   6.150
 8405POPC   C1A64947  17.485  19.039   6.450
 8405POPC   D2A64948  17.549  19.015   6.750
 8405POPC   C3A64949  17.473  19.080   7.050
 8405POPC   C4A64950  17.524  19.033   7.350
 8405POPC   C1B64951  17.214  19.060   6.450
 8405POPC   C2B64952  17.226  19.037   6.750
 8405POPC   C3B64953  17.266  19.044   7.050
 8405POPC   C4B64954  17.213  19.068   7.350
 8406POPC   NC364955   5.832  40.737   5.550
 8406POPC   PO464956   5.887  40.805   5.850
 8406POPC   GL164957   5.880  40.810   6.150
 8406POPC   GL264958   5.915  40.695   6.150
 8406POPC   C1A64959   5.881  40.803   6.450
 8406POPC   D2A64960   5.889  40.744   6.750
 8406POPC   C3A64961   5.844  40.788   7.050
 8406POPC   C4A64962   5.879  40.809   7.350
 8406POPC   C1B64963   5.920  40.521   6.450
 8406POPC   C2B64964   5.919  40.579   6.750
 8406POPC   C3B64965   5.851  40.555   7.050
 8406POPC   C4B64966   5.913  40.495   7.350
 8407POPC   NC364967  18.251  31.465   5.550
 8407POPC   PO464968  18.269  31.502   5.850
 8407POPC   GL164969  18.301  31.435   6.150
 8407POPC   GL264970  18.170  31.517   6.150
 8407POPC   C1A64971  18.286  31.493   6.450
 8407POPC   D2A64972  18.279  31.486   6.750
 8407POPC   C3A64973  18.300  31.431   7.050
 8407POPC   C4A64974  18.300  31.512   7.350
 8407POPC   C1B64975  17.991  31.470   6.450
 8407POPC   C2B64976  18.077  31.529   6.750
 8407POPC   C3B64977  18.080  31.520   7.050
 8407POPC   C4B64978  18.066  31.550   7.350
 8408POPC   NC364979  36.112  22.130   5.550
 8408POPC   PO464980  36.141  22.115   5.850
 8408POPC   GL164981  36.125  22.113   6.150
 8408POPC   GL264982  36.206  22.043   6.150
 8408POPC   C1A64983  36.115  22.204   6.450
 8408POPC   D2A64984  36.145  22.188   6.750
 8408POPC   C3A64985  36.134  22.194   7.050
 8408POPC   C4A64986  36.097  22.175   7.350
 8408POPC   C1B64987  36.204  21.960   6.450
 8408POPC   C2B64988  36.284  21.972   6.750
 8408POPC   C3B64989  36.285  21.897   7.050
 8408POPC   C4B64990  36.207  21.919   7.350
 8409POPC   NC364991   9.783  26.795   5.550
 8409POPC   PO464992   9.798  26.811   5.850
 8409POPC   GL164993   9.784  26.797   6.150
 8409POPC   GL264994   9.760  26.714   6.150
 8409POPC   C1A64995   9.781  26.837   6.450
 8409POPC   D2A64996   9.772  26.866   6.750
 8409POPC   C3A64997   9.722  26.772   7.050
 8409POPC   C4A64998   9.734  26.807   7.350
 8409POPC   C1B64999   9.822  26.594   6.450
 8409POPC   C2B65000   9.859  26.628   6.750
 8409POPC   C3B65001   9.873  26.545   7.050
 8409POPC   C4B65002   9.820  26.643   7.350
 8410POPC   NC365003  36.149   5.912   5.550
 8410POPC   PO465004  36.161   5.836   5.850
 8410POPC   GL165005  36.174   5.869   6.150
 8410POPC   GL265006  36.075   5.947   6.150
 8410POPC   C1A65007  36.151   5.906   6.450
 8410POPC   D2A65008  36.119   5.913   6.750
 8410POPC   C3A65009  36.099   5.892   7.050
 8410POPC   C4A65010  36.135   5.854   7.350
 8410POPC   C1B65011  35.897   6.010   6.450
 8410POPC   C2B65012  35.948   5.987   6.750
 8410POPC   C3B65013  35.980   5.980   7.050
 8410POPC   C4B65014  35.961   6.017   7.350
 8411POPC   NC365015  36.873  34.534   5.550
 8411POPC   PO465016  36.932  34.551   5.850
 8411POPC   GL165017  36.921  34.533   6.150
 8411POPC   GL265018  37.004  34.588   6.150
 8411POPC   C1A65019  36.902  34.573   6.450
 8411POPC   D2A65020  36.925  34.565   6.750
 8411POPC   C3A65021  36.856  34.531   7.050
 8411POPC   C4A65022  36.901  34.526   7.350
 8411POPC   C1B65023  37.149  34.548   6.450
 8411POPC   C2B65024  37.161  34.563   6.750
 8411POPC   C3B65025  37.151  34.564   7.050
 8411POPC   C4B65026  37.174  34.512   7.350
 8412POPC   NC365027  42.375  15.168   5.550
 8412POPC   PO465028  42.322  15.211   5.850
 8412POPC   GL165029  42.358  15.189   6.150
 8412POPC   GL265030  42.392  15.102   6.150
 8412POPC   C1A65031  42.290  15.216   6.450
 8412POPC   D2A65032  42.375  15.168   6.750
 8412POPC   C3A65033  42.375  15.166   7.050
 8412POPC   C4A65034  42.347  15.153   7.350
 8412POPC   C1B65035  42.503  15.013   6.450
 8412POPC   C2B65036  42.478  14.934   6.750
 8412POPC   C3B65037  42.450  14.979   7.050
 8412POPC   C4B65038  42.484  14.946   7.350
 8413POPC   NC365039   6.603   1.221   5.550
 8413POPC   PO465040   6.631   1.214   5.850
 8413POPC   GL165041   6.688   1.199   6.150
 8413POPC   GL265042   6.683   1.329   6.150
 8413POPC   C1A65043   6.628   1.210   6.450
 8413POPC   D2A65044   6.597   1.194   6.750
 8413POPC   C3A65045   6.675   1.164   7.050
 8413POPC   C4A65046   6.667   1.243   7.350
 8413POPC   C1B65047   6.725   1.467   6.450
 8413POPC   C2B65048   6.775   1.409   6.750
 8413POPC   C3B65049   6.760   1.424   7.050
 8413POPC   C4B65050   6.775   1.463   7.350
 8414POPC   NC365051   2.815  22.172   5.550
 8414POPC   PO465052   2.756  22.146   5.850
 8414POPC   GL165053   2.763  22.132   6.150
 8414POPC   GL265054   2.603  22.184   6.150
 8414POPC   C1A65055   2.759  22.121   6.450
 8414POPC   D2A65056   2.750  22.125   6.750
 8414POPC   C3A65057   2.814  22.183   7.050
 8414POPC   C4A65058   2.799  22.161   7.350
 8414POPC   C1B65059   2.554  22.189   6.450
 8414POPC   C2B65060   2.559  22.197   6.750
 8414POPC   C3B65061   2.480  22.161   7.050
 8414POPC   C4B65062   2.505  22.175   7.350
 8415POPC   NC365063  22.895   9.759   5.550
 8415POPC   PO465064  22.931   9.711   5.850
 8415POPC   GL165065  22.941   9.770   6.150
 8415POPC   GL265066  22.946   9.600   6.150
 8415POPC   C1A65067  22.948   9.773   6.450
 8415POPC   D2A65068  22.974   9.715   6.750
 8415POPC   C3A65069  22.925   9.713   7.050
 8415POPC   C4A65070  22.892   9.759   7.350
 8415POPC   C1B65071  23.058   9.553   6.450
 8415POPC   C2B65072  23.096   9.490   6.750
 8415POPC   C3B65073  23.044   9.480   7.050
 8415POPC   C4B65074  23.077   9.559   7.350
 8416POPC   NC365075  37.703   5.111   5.550
 8416POPC   PO465076  37.634   5.142   5.850
 8416POPC   GL165077  37.694   5.143   6.150
 8416POPC   GL265078  37.622   4.931   6.150
 8416POPC   C1A65079  37.701   5.051   6.450
 8416POPC   D2A65080  37.687   5.064   6.750
 8416POPC   C3A65081  37.652   5.056   7.050
 8416POPC   C4A65082  37.656   5.065   7.350
 8416POPC   C1B65083  37.590   4.820   6.450
 8416POPC   C2B65084  37.576   4.885   6.750
 8416POPC   C3B65085  37.641   4.888   7.050
 8416POPC   C4B65086  37.611   4.887   7.350
 8417POPC   NC365087  36.877  23.755   5.550
 8417POPC   PO465088  36.946  23.679   5.850
 8417POPC   GL165089  36.932  23.727   6.150
 8417POPC   GL265090  36.897  23.873   6.150
 8417POPC   C1A65091  36.871  23.719   6.450
 8417POPC   D2A65092  36.944  23.726   6.750
 8417POPC   C3A65093  36.930  23.733   7.050
 8417POPC   C4A65094  36.922  23.737   7.350
 8417POPC   C1B65095  36.921  23.953   6.450
 8417POPC   C2B65096  36.996  23.958   6.750
 8417POPC   C3B65097  36.926  23.912   7.050
 8417POPC   C4B65098  36.955  23.925   7.350
 8418POPC   NC365099   4.280  41.587   5.550
 8418POPC   PO465100   4.279  41.558   5.850
 8418POPC   GL165101   4.301  41.540   6.150
 8418POPC   GL265102   4.212  41.471   6.150
 8418POPC   C1A65103   4.337  41.562   6.450
 8418POPC   D2A65104   4.321  41.531   6.750
 8418POPC   C3A65105   4.308  41.577   7.050
 8418POPC   C4A65106   4.366  41.542   7.350
 8418POPC   C1B65107   4.114  41.470   6.450
 8418POPC   C2B65108   4.144  41.382   6.750
 8418POPC   C3B65109   4.132  41.403   7.050
 8418POPC   C4B65110   4.071  41.393   7.350
 8419POPC   NC365111  10.534  21.436   5.550
 8419POPC   PO465112  10.526  21.398   5.850
 8419POPC   GL165113  10.493  21.350   6.150
 8419POPC   GL265114  10.529  21.547   6.150
 8419POPC   C1A65115  10.487  21.342   6.450
 8419POPC   D2A65116  10.551  21.399   6.750
 8419POPC   C3A65117  10.505  21.377   7.050
 8419POPC   C4A65118  10.481  21.406   7.350
 8419POPC   C1B65119  10.640  21.573   6.450
 8419POPC   C2B65120  10.644  21.590   6.750
 8419POPC   C3B65121  10.637  21.635   7.050
 8419POPC   C4B65122  10.579  21.629   7.350
 8420POPC   NC365123  15.969  22.983   5.550
 8420POPC   PO465124  15.950  22.917   5.850
 8420POPC   GL165125  15.952  22.937   6.150
 8420POPC   GL265126  15.879  22.955   6.150
 8420POPC   C1A65127  15.912  22.949   6.450
 8420POPC   D2A65128  15.965  22.890   6.750
 8420POPC   C3A65129  15.930  22.914   7.050
 8420POPC   C4A65130  15.930  22.972   7.350
 8420POPC   C1B65131  15.684  22.931   6.450
 8420POPC   C2B65132  15.703  22.906   6.750
 8420POPC   C3B65133  15.661  22.907   7.050
 8420POPC   C4B65134  15.734  22.974   7.350
 8421POPC   NC365135  33.027  32.206   5.550
 8421POPC   PO465136  33.053  32.209   5.850
 8421POPC   GL165137  33.000  32.289   6.150
 8421POPC   GL265138  33.032  32.122   6.150
 8421POPC   C1A65139  32.992  32.244   6.450
 8421POPC   D2A65140  32.986  32.231   6.750
 8421POPC   C3A65141  33.032  32.259   7.050
 8421POPC   C4A65142  33.036  32.200   7.350
 8421POPC   C1B65143  33.061  31.980   6.450
 8421POPC   C2B65144  33.084  31.968   6.750
 8421POPC   C3B65145  33.105  32.051   7.050
 8421POPC   C4B65146  33.090  32.016   7.350
 8422POPC   NC365147   4.329   1.965   5.550
 8422POPC   PO465148   4.327   1.983   5.850
 8422POPC   GL165149   4.347   1.971   6.150
 8422POPC   GL265150   4.306   1.868   6.150
 8422POPC   C1A65151   4.294   1.987   6.450
 8422POPC   D2A65152   4.351   1.969   6.750
 8422POPC   C3A65153   4.350   1.990   7.050
 8422POPC   C4A65154   4.367   2.030   7.350
 8422POPC   C1B65155   4.228   1.793   6.450
 8422POPC   C2B65156   4.307   1.709   6.750
 8422POPC   C3B65157   4.209   1.797   7.050
 8422POPC   C4B65158   4.245   1.737   7.350
 8423POPC   NC365159  31.508  25.229   5.550
 8423POPC   PO465160  31.434  25.266   5.850
 8423POPC   GL165161  31.504  25.300   6.150
 8423POPC   GL265162  31.545  25.329   6.150
 8423POPC   C1A65163  31.446  25.295   6.450
 8423POPC   D2A65164  31.454  25.306   6.750
 8423POPC   C3A65165  31.432  25.286   7.050
 8423POPC   C4A65166  31.495  25.315   7.350
 8423POPC   C1B65167  31.730  25.350   6.450
 8423POPC   C2B65168  31.712  25.416   6.750
 8423POPC   C3B65169  31.682  25.376   7.050
 8423POPC   C4B65170  31.694  25.350   7.350
 8424POPC   NC365171  23.736   9.751   5.550
 8424POPC   PO465172  23.735   9.747   5.850
 8424POPC   GL165173  23.689   9.740   6.150
 8424POPC   GL265174  23.627   9.812   6.150
 8424POPC   C1A65175  23.706   9.727   6.450
 8424POPC   D2A65176  23.754   9.729   6.750
 8424POPC   C3A65177  23.687   9.760   7.050
 8424POPC   C4A65178  23.717   9.796   7.350
 8424POPC   C1B65179  23.527   9.948   6.450
 8424POPC   C2B65180  23.503   9.919   6.750
 8424POPC   C3B65181  23.519   9.863   7.050
 8424POPC   C4B65182  23.501   9.915   7.350
 8425POPC   NC365183  26.774  14.363   5.550
 8425POPC   PO465184  26.811  14.384   5.850
 8425POPC   GL165185  26.861  14.417   6.150
 8425POPC   GL265186  26.912  14.463   6.150
 8425POPC   C1A65187  26.767  14.395   6.450
 8425POPC   D2A65188  26.819  14.380   6.750
 8425POPC   C3A65189  26.786  14.401   7.050
 8425POPC   C4A65190  26.802  14.370   7.350
 8425POPC   C1B65191  27.009  14.570   6.450
 8425POPC   C2B65192  27.051  14.486   6.750
 8425POPC   C3B65193  27.031  14.512   7.050
 8425POPC   C4B65194  26.986  14.490   7.350
 8426POPC   NC365195  29.964  36.869   5.550
 8426POPC   PO465196  29.906  36.937   5.850
 8426POPC   GL165197  29.927  36.854   6.150
 8426POPC   GL265198  29.996  36.940   6.150
 8426POPC   C1A65199  29.918  36.878   6.450
 8426POPC   D2A65200  29.956  36.880   6.750
 8426POPC   C3A65201  29.961  36.869   7.050
 8426POPC   C4A65202  29.934  36.899   7.350
 8426POPC   C1B65203  30.194  36.882   6.450
 8426POPC   C2B65204  30.217  36.875   6.750
 8426POPC   C3B65205  30.219  36.923   7.050
 8426POPC   C4B65206  30.177  36.938   7.350
 8427POPC   NC365207  18.256   6.600   5.550
 8427POPC   PO465208  18.326   6.664   5.850
 8427POPC   GL165209  18.324   6.656   6.150
 8427POPC   GL265210  18.169   6.656   6.150
 8427POPC   C1A65211  18.267   6.664   6.450
 8427POPC   D2A65212  18.300   6.613   6.750
 8427POPC   C3A65213  18.302   6.601   7.050
 8427POPC   C4A65214  18.288   6.644   7.350
 8427POPC   C1B65215  18.060   6.638   6.450
 8427POPC   C2B65216  18.066   6.603   6.750
 8427POPC   C3B65217  17.986   6.609   7.050
 8427POPC   C4B65218  18.083   6.624   7.350
 8428POPC   NC365219  23.696   4.282   5.550
 8428POPC   PO465220  23.669   4.364   5.850
 8428POPC   GL165221  23.685   4.309   6.150
 8428POPC   GL265222  23.868   4.356   6.150
 8428POPC   C1A65223  23.757   4.354   6.450
 8428POPC   D2A65224  23.693   4.345   6.750
 8428POPC   C3A65225  23.692   4.301   7.050
 8428POPC   C4A65226  23.728   4.327   7.350
 8428POPC   C1B65227  23.952   4.380   6.450
 8428POPC   C2B65228  23.996   4.406   6.750
 8428POPC   C3B65229  23.914   4.438   7.050
 8428POPC   C4B65230  23.971   4.354   7.350
 8429POPC   NC365231   1.234  21.423   5.550
 8429POPC   PO465232   1.257  21.410   5.850
 8429POPC   GL165233   1.184  21.347   6.150
 8429POPC   GL265234   1.203  21.277   6.150
 8429POPC   C1A65235   1.165  21.386   6.450
 8429POPC   D2A65236   1.242  21.378   6.750
 8429POPC   C3A65237   1.240  21.395   7.050
 8429POPC   C4A65238   1.188  21.402   7.350
 8429POPC   C1B65239   1.058  21.210   6.450
 8429POPC   C2B65240   1.108  21.135   6.750
 8429POPC   C3B65241   1.140  21.148   7.050
 8429POPC   C4B65242   1.103  21.158   7.350
 8430POPC   NC365243  20.628  20.614   5.550
 8430POPC   PO465244  20.640  20.593   5.850
 8430POPC   GL165245  20.631  20.606   6.150
 8430POPC   GL265246  20.635  20.518   6.150
 8430POPC   C1A65247  20.602  20.657   6.450
 8430POPC   D2A65248  20.570  20.609   6.750
 8430POPC   C3A65249  20.618  20.646   7.050
 8430POPC   C4A65250  20.586  20.651   7.350
 8430POPC   C1B65251  20.652  20.316   6.450
 8430POPC   C2B65252  20.650  20.365   6.750
 8430POPC   C3B65253  20.673  20.415   7.050
 8430POPC   C4B65254  20.654  20.337   7.350
 8431POPC   NC365255  34.568  11.343   5.550
 8431POPC   PO465256  34.564  11.278   5.850
 8431POPC   GL165257  34.574  11.343   6.150
 8431POPC   GL265258  34.647  11.428   6.150
 8431POPC   C1A65259  34.602  11.250   6.450
 8431POPC   D2A65260  34.529  11.332   6.750
 8431POPC   C3A65261  34.535  11.284   7.050
 8431POPC   C4A65262  34.586  11.337   7.350
 8431POPC   C1B65263  34.759  11.509   6.450
 8431POPC   C2B65264  34.737  11.534   6.750
 8431POPC   C3B65265  34.719  11.526   7.050
 8431POPC   C4B65266  34.715  11.483   7.350
 8432POPC   NC365267  37.653   6.604   5.550
 8432POPC   PO465268  37.699   6.636   5.850
 8432POPC   GL165269  37.688   6.661   6.150
 8432POPC   GL265270  37.630   6.591   6.150
 8432POPC   C1A65271  37.668   6.606   6.450
 8432POPC   D2A65272  37.666   6.656   6.750
 8432POPC   C3A65273  37.712   6.677   7.050
 8432POPC   C4A65274  37.726   6.688   7.350
 8432POPC   C1B65275  37.543   6.504   6.450
 8432POPC   C2B65276  37.461   6.426   6.750
 8432POPC   C3B65277  37.517   6.518   7.050
 8432POPC   C4B65278  37.508   6.443   7.350
 8433POPC   NC365279  36.887  28.416   5.550
 8433POPC   PO465280  36.892  28.392   5.850
 8433POPC   GL165281  36.910  28.405   6.150
 8433POPC   GL265282  36.968  28.207   6.150
 8433POPC   C1A65283  36.908  28.337   6.450
 8433POPC   D2A65284  36.924  28.395   6.750
 8433POPC   C3A65285  36.888  28.359   7.050
 8433POPC   C4A65286  36.861  28.321   7.350
 8433POPC   C1B65287  36.961  28.083   6.450
 8433POPC   C2B65288  36.927  28.180   6.750
 8433POPC   C3B65289  36.983  28.120   7.050
 8433POPC   C4B65290  36.928  28.094   7.350
 8434POPC   NC365291   8.245  19.801   5.550
 8434POPC   PO465292   8.223  19.827   5.850
 8434POPC   GL165293   8.212  19.872   6.150
 8434POPC   GL265294   8.245  20.001   6.150
 8434POPC   C1A65295   8.238  19.803   6.450
 8434POPC   D2A65296   8.189  19.869   6.750
 8434POPC   C3A65297   8.239  19.821   7.050
 8434POPC   C4A65298   8.239  19.852   7.350
 8434POPC   C1B65299   8.221  20.098   6.450
 8434POPC   C2B65300   8.235  20.097   6.750
 8434POPC   C3B65301   8.205  20.053   7.050
 8434POPC   C4B65302   8.181  20.119   7.350
 8435POPC   NC365303  13.619  11.342   5.550
 8435POPC   PO465304  13.649  11.289   5.850
 8435POPC   GL165305  13.595  11.312   6.150
 8435POPC   GL265306  13.716  11.332   6.150
 8435POPC   C1A65307  13.614  11.272   6.450
 8435POPC   D2A65308  13.623  11.273   6.750
 8435POPC   C3A65309  13.667  11.324   7.050
 8435POPC   C4A65310  13.578  11.287   7.350
 8435POPC   C1B65311  13.841  11.405   6.450
 8435POPC   C2B65312  13.895  11.332   6.750
 8435POPC   C3B65313  13.835  11.340   7.050
 8435POPC   C4B65314  13.844  11.399   7.350
 8436POPC   NC365315   3.549  23.687   5.550
 8436POPC   PO465316   3.566  23.707   5.850
 8436POPC   GL165317   3.583  23.697   6.150
 8436POPC   GL265318   3.516  23.775   6.150
 8436POPC   C1A65319   3.582  23.751   6.450
 8436POPC   D2A65320   3.591  23.667   6.750
 8436POPC   C3A65321   3.544  23.746   7.050
 8436POPC   C4A65322   3.514  23.693   7.350
 8436POPC   C1B65323   3.396  23.953   6.450
 8436POPC   C2B65324   3.385  23.896   6.750
 8436POPC   C3B65325   3.364  23.882   7.050
 8436POPC   C4B65326   3.435  23.943   7.350
 8437POPC   NC365327  11.321   0.428   5.550
 8437POPC   PO465328  11.314   0.400   5.850
 8437POPC   GL165329  11.333   0.390   6.150
 8437POPC   GL265330  11.399   0.476   6.150
 8437POPC   C1A65331  11.336   0.408   6.450
 8437POPC   D2A65332  11.327   0.473   6.750
 8437POPC   C3A65333  11.250   0.389   7.050
 8437POPC   C4A65334  11.302   0.392   7.350
 8437POPC   C1B65335  11.512   0.547   6.450
 8437POPC   C2B65336  11.476   0.620   6.750
 8437POPC   C3B65337  11.526   0.551   7.050
 8437POPC   C4B65338  11.537   0.541   7.350
 8438POPC   NC365339  21.343  37.675   5.550
 8438POPC   PO465340  21.344  37.662   5.850
 8438POPC   GL165341  21.379  37.719   6.150
 8438POPC   GL265342  21.406  37.766   6.150
 8438POPC   C1A65343  21.362  37.704   6.450
 8438POPC   D2A65344  21.395  37.689   6.750
 8438POPC   C3A65345  21.386  37.703   7.050
 8438POPC   C4A65346  21.422  37.663   7.350
 8438POPC   C1B65347  21.351  37.965   6.450
 8438POPC   C2B65348  21.325  37.964   6.750
 8438POPC   C3B65349  21.287  37.923   7.050
 8438POPC   C4B65350  21.291  37.878   7.350
 8439POPC   NC365351  25.251  41.606   5.550
 8439POPC   PO465352  25.237  41.550   5.850
 8439POPC   GL165353  25.221  41.549   6.150
 8439POPC   GL265354  25.127  41.468   6.150
 8439POPC   C1A65355  25.256  41.515   6.450
 8439POPC   D2A65356  25.241  41.601   6.750
 8439POPC   C3A65357  25.264  41.564   7.050
 8439POPC   C4A65358  25.261  41.573   7.350
 8439POPC   C1B65359  25.061  41.458   6.450
 8439POPC   C2B65360  25.020  41.444   6.750
 8439POPC   C3B65361  25.086  41.431   7.050
 8439POPC   C4B65362  25.004  41.398   7.350
 8440POPC   NC365363  26.004   2.782   5.550
 8440POPC   PO465364  26.078   2.759   5.850
 8440POPC   GL165365  26.089   2.791   6.150
 8440POPC   GL265366  26.111   2.699   6.150
 8440POPC   C1A65367  26.045   2.754   6.450
 8440POPC   D2A65368  26.036   2.749   6.750
 8440POPC   C3A65369  26.040   2.759   7.050
 8440POPC   C4A65370  26.072   2.803   7.350
 8440POPC   C1B65371  26.162   2.559   6.450
 8440POPC   C2B65372  26.101   2.579   6.750
 8440POPC   C3B65373  26.092   2.557   7.050
 8440POPC   C4B65374  26.115   2.582   7.350
 8441POPC   NC365375  16.730   2.763   5.550
 8441POPC   PO465376  16.691   2.759   5.850
 8441POPC   GL165377  16.760   2.798   6.150
 8441POPC   GL265378  16.865   2.772   6.150
 8441POPC   C1A65379  16.706   2.764   6.450
 8441POPC   D2A65380  16.740   2.758   6.750
 8441POPC   C3A65381  16.728   2.772   7.050
 8441POPC   C4A65382  16.771   2.812   7.350
 8441POPC   C1B65383  16.928   2.902   6.450
 8441POPC   C2B65384  16.943   2.880   6.750
 8441POPC   C3B65385  16.954   2.824   7.050
 8441POPC   C4B65386  16.936   2.858   7.350
 8442POPC   NC365387  22.925  35.330   5.550
 8442POPC   PO465388  22.906  35.389   5.850
 8442POPC   GL165389  22.906  35.339   6.150
 8442POPC   GL265390  22.830  35.359   6.150
 8442POPC   C1A65391  22.922  35.327   6.450
 8442POPC   D2A65392  22.963  35.362   6.750
 8442POPC   C3A65393  22.961  35.317   7.050
 8442POPC   C4A65394  22.920  35.311   7.350
 8442POPC   C1B65395  22.643  35.420   6.450
 8442POPC   C2B65396  22.724  35.392   6.750
 8442POPC   C3B65397  22.719  35.399   7.050
 8442POPC   C4B65398  22.690  35.402   7.350
 8443POPC   NC365399  32.979  43.900   5.550
 8443POPC   PO465400  33.039  43.907   5.850
 8443POPC   GL165401  33.065  43.915   6.150
 8443POPC   GL265402  32.975  44.005   6.150
 8443POPC   C1A65403  33.024  43.856   6.450
 8443POPC   D2A65404  33.070  43.868   6.750
 8443POPC   C3A65405  33.018  43.860   7.050
 8443POPC   C4A65406  33.069  43.921   7.350
 8443POPC   C1B65407  33.026  44.169   6.450
 8443POPC   C2B65408  33.056  44.126   6.750
 8443POPC   C3B65409  32.971  44.120   7.050
 8443POPC   C4B65410  32.993  44.102   7.350
 8444POPC   NC365411  20.592  22.119   5.550
 8444POPC   PO465412  20.648  22.143   5.850
 8444POPC   GL165413  20.571  22.155   6.150
 8444POPC   GL265414  20.455  22.140   6.150
 8444POPC   C1A65415  20.635  22.140   6.450
 8444POPC   D2A65416  20.614  22.117   6.750
 8444POPC   C3A65417  20.630  22.147   7.050
 8444POPC   C4A65418  20.630  22.132   7.350
 8444POPC   C1B65419  20.341  22.141   6.450
 8444POPC   C2B65420  20.355  22.140   6.750
 8444POPC   C3B65421  20.336  22.070   7.050
 8444POPC   C4B65422  20.378  22.062   7.350
 8445POPC   NC365423  39.224  34.573   5.550
 8445POPC   PO465424  39.205  34.600   5.850
 8445POPC   GL165425  39.233  34.562   6.150
 8445POPC   GL265426  39.194  34.723   6.150
 8445POPC   C1A65427  39.186  34.618   6.450
 8445POPC   D2A65428  39.207  34.607   6.750
 8445POPC   C3A65429  39.241  34.623   7.050
 8445POPC   C4A65430  39.230  34.546   7.350
 8445POPC   C1B65431  39.122  34.774   6.450
 8445POPC   C2B65432  39.141  34.776   6.750
 8445POPC   C3B65433  39.091  34.767   7.050
 8445POPC   C4B65434  39.137  34.826   7.350
 8446POPC   NC365435   2.771  31.424   5.550
 8446POPC   PO465436   2.736  31.518   5.850
 8446POPC   GL165437   2.798  31.483   6.150
 8446POPC   GL265438   2.817  31.303   6.150
 8446POPC   C1A65439   2.811  31.487   6.450
 8446POPC   D2A65440   2.807  31.441   6.750
 8446POPC   C3A65441   2.749  31.425   7.050
 8446POPC   C4A65442   2.770  31.465   7.350
 8446POPC   C1B65443   2.802  31.193   6.450
 8446POPC   C2B65444   2.738  31.197   6.750
 8446POPC   C3B65445   2.817  31.245   7.050
 8446POPC   C4B65446   2.800  31.243   7.350
 8447POPC   NC365447  18.248  15.171   5.550
 8447POPC   PO465448  18.250  15.220   5.850
 8447POPC   GL165449  18.265  15.171   6.150
 8447POPC   GL265450  18.427  15.144   6.150
 8447POPC   C1A65451  18.303  15.143   6.450
 8447POPC   D2A65452  18.258  15.219   6.750
 8447POPC   C3A65453  18.281  15.190   7.050
 8447POPC   C4A65454  18.283  15.139   7.350
 8447POPC   C1B65455  18.500  15.151   6.450
 8447POPC   C2B65456  18.543  15.077   6.750
 8447POPC   C3B65457  18.523  15.116   7.050
 8447POPC   C4B65458  18.550  15.143   7.350
 8448POPC   NC365459   3.559  20.588   5.550
 8448POPC   PO465460   3.547  20.604   5.850
 8448POPC   GL165461   3.515  20.569   6.150
 8448POPC   GL265462   3.535  20.466   6.150
 8448POPC   C1A65463   3.558  20.623   6.450
 8448POPC   D2A65464   3.514  20.582   6.750
 8448POPC   C3A65465   3.549  20.605   7.050
 8448POPC   C4A65466   3.495  20.619   7.350
 8448POPC   C1B65467   3.482  20.410   6.450
 8448POPC   C2B65468   3.467  20.348   6.750
 8448POPC   C3B65469   3.494  20.332   7.050
 8448POPC   C4B65470   3.439  20.419   7.350
 8449POPC   NC365471   9.715   8.225   5.550
 8449POPC   PO465472   9.790   8.213   5.850
 8449POPC   GL165473   9.776   8.178   6.150
 8449POPC   GL265474   9.590   8.174   6.150
 8449POPC   C1A65475   9.774   8.244   6.450
 8449POPC   D2A65476   9.764   8.176   6.750
 8449POPC   C3A65477   9.772   8.187   7.050
 8449POPC   C4A65478   9.740   8.153   7.350
 8449POPC   C1B65479   9.466   8.277   6.450
 8449POPC   C2B65480   9.489   8.246   6.750
 8449POPC   C3B65481   9.488   8.221   7.050
 8449POPC   C4B65482   9.469   8.278   7.350
 8450POPC   NC365483   4.352  20.623   5.550
 8450POPC   PO465484   4.302  20.642   5.850
 8450POPC   GL165485   4.365  20.653   6.150
 8450POPC   GL265486   4.349  20.742   6.150
 8450POPC   C1A65487   4.283  20.595   6.450
 8450POPC   D2A65488   4.307  20.579   6.750
 8450POPC   C3A65489   4.310  20.642   7.050
 8450POPC   C4A65490   4.365  20.610   7.350
 8450POPC   C1B65491   4.378  20.812   6.450
 8450POPC   C2B65492   4.408  20.828   6.750
 8450POPC   C3B65493   4.344  20.896   7.050
 8450POPC   C4B65494   4.360  20.887   7.350
 8451POPC   NC365495   2.799  29.154   5.550
 8451POPC   PO465496   2.748  29.194   5.850
 8451POPC   GL165497   2.771  29.155   6.150
 8451POPC   GL265498   2.868  29.030   6.150
 8451POPC   C1A65499   2.747  29.113   6.450
 8451POPC   D2A65500   2.771  29.186   6.750
 8451POPC   C3A65501   2.753  29.099   7.050
 8451POPC   C4A65502   2.781  29.139   7.350
 8451POPC   C1B65503   2.950  28.974   6.450
 8451POPC   C2B65504   2.884  28.915   6.750
 8451POPC   C3B65505   2.958  28.960   7.050
 8451POPC   C4B65506   2.904  28.916   7.350
 8452POPC   NC365507  43.843  19.803   5.550
 8452POPC   PO465508  43.902  19.796   5.850
 8452POPC   GL165509  43.934  19.859   6.150
 8452POPC   GL265510  43.930  19.784   6.150
 8452POPC   C1A65511  43.859  19.869   6.450
 8452POPC   D2A65512  43.936  19.869   6.750
 8452POPC   C3A65513  43.935  19.802   7.050
 8452POPC   C4A65514  43.838  19.873   7.350
 8452POPC   C1B65515  44.026  19.686   6.450
 8452POPC   C2B65516  44.065  19.628   6.750
 8452POPC   C3B65517  44.096  19.670   7.050
 8452POPC   C4B65518  44.078  19.635   7.350
 8453POPC   NC365519   3.498  35.304   5.550
 8453POPC   PO465520   3.518  35.390   5.850
 8453POPC   GL165521   3.550  35.355   6.150
 8453POPC   GL265522   3.500  35.456   6.150
 8453POPC   C1A65523   3.532  35.346   6.450
 8453POPC   D2A65524   3.509  35.306   6.750
 8453POPC   C3A65525   3.542  35.358   7.050
 8453POPC   C4A65526   3.501  35.388   7.350
 8453POPC   C1B65527   3.363  35.490   6.450
 8453POPC   C2B65528   3.317  35.573   6.750
 8453POPC   C3B65529   3.350  35.528   7.050
 8453POPC   C4B65530   3.375  35.512   7.350
 8454POPC   NC365531   6.681  22.181   5.550
 8454POPC   PO465532   6.652  22.139   5.850
 8454POPC   GL165533   6.605  22.119   6.150
 8454POPC   GL265534   6.503  22.172   6.150
 8454POPC   C1A65535   6.676  22.124   6.450
 8454POPC   D2A65536   6.602  22.195   6.750
 8454POPC   C3A65537   6.679  22.195   7.050
 8454POPC   C4A65538   6.599  22.144   7.350
 8454POPC   C1B65539   6.423  22.194   6.450
 8454POPC   C2B65540   6.378  22.195   6.750
 8454POPC   C3B65541   6.378  22.135   7.050
 8454POPC   C4B65542   6.407  22.198   7.350
 8455POPC   NC365543  32.214  31.458   5.550
 8455POPC   PO465544  32.245  31.496   5.850
 8455POPC   GL165545  32.204  31.475   6.150
 8455POPC   GL265546  32.368  31.550   6.150
 8455POPC   C1A65547  32.264  31.508   6.450
 8455POPC   D2A65548  32.211  31.496   6.750
 8455POPC   C3A65549  32.236  31.440   7.050
 8455POPC   C4A65550  32.209  31.450   7.350
 8455POPC   C1B65551  32.444  31.646   6.450
 8455POPC   C2B65552  32.393  31.675   6.750
 8455POPC   C3B65553  32.402  31.676   7.050
 8455POPC   C4B65554  32.438  31.693   7.350
 8456POPC   NC365555  40.791   8.957   5.550
 8456POPC   PO465556  40.828   8.977   5.850
 8456POPC   GL165557  40.743   8.984   6.150
 8456POPC   GL265558  40.821   9.079   6.150
 8456POPC   C1A65559  40.738   8.928   6.450
 8456POPC   D2A65560  40.806   8.975   6.750
 8456POPC   C3A65561  40.791   8.949   7.050
 8456POPC   C4A65562  40.759   8.955   7.350
 8456POPC   C1B65563  40.835   9.260   6.450
 8456POPC   C2B65564  40.801   9.253   6.750
 8456POPC   C3B65565  40.790   9.199   7.050
 8456POPC   C4B65566  40.805   9.180   7.350
 8457POPC   NC365567   9.779   5.126   5.550
 8457POPC   PO465568   9.794   5.082   5.850
 8457POPC   GL165569   9.720   5.116   6.150
 8457POPC   GL265570   9.616   5.071   6.150
 8457POPC   C1A65571   9.702   5.131   6.450
 8457POPC   D2A65572   9.742   5.091   6.750
 8457POPC   C3A65573   9.762   5.049   7.050
 8457POPC   C4A65574   9.782   5.114   7.350
 8457POPC   C1B65575   9.455   5.109   6.450
 8457POPC   C2B65576   9.473   5.101   6.750
 8457POPC   C3B65577   9.478   5.128   7.050
 8457POPC   C4B65578   9.455   5.085   7.350
 8458POPC   NC365579  35.333   6.637   5.550
 8458POPC   PO465580  35.367   6.612   5.850
 8458POPC   GL165581  35.345   6.686   6.150
 8458POPC   GL265582  35.272   6.498   6.150
 8458POPC   C1A65583  35.340   6.615   6.450
 8458POPC   D2A65584  35.339   6.645   6.750
 8458POPC   C3A65585  35.346   6.598   7.050
 8458POPC   C4A65586  35.331   6.598   7.350
 8458POPC   C1B65587  35.194   6.472   6.450
 8458POPC   C2B65588  35.183   6.484   6.750
 8458POPC   C3B65589  35.217   6.419   7.050
 8458POPC   C4B65590  35.244   6.472   7.350
 8459POPC   NC365591   5.137  22.160   5.550
 8459POPC   PO465592   5.094  22.159   5.850
 8459POPC   GL165593   5.098  22.130   6.150
 8459POPC   GL265594   5.169  22.053   6.150
 8459POPC   C1A65595   5.068  22.207   6.450
 8459POPC   D2A65596   5.129  22.126   6.750
 8459POPC   C3A65597   5.063  22.211   7.050
 8459POPC   C4A65598   5.049  22.163   7.350
 8459POPC   C1B65599   5.283  22.005   6.450
 8459POPC   C2B65600   5.225  22.034   6.750
 8459POPC   C3B65601   5.223  22.038   7.050
 8459POPC   C4B65602   5.246  22.009   7.350
 8460POPC   NC365603   3.537  43.930   5.550
 8460POPC   PO465604   3.525  43.918   5.850
 8460POPC   GL165605   3.549  43.877   6.150
 8460POPC   GL265606   3.483  44.032   6.150
 8460POPC   C1A65607   3.494  43.874   6.450
 8460POPC   D2A65608   3.551  43.849   6.750
 8460POPC   C3A65609   3.567  43.905   7.050
 8460POPC   C4A65610   3.503  43.875   7.350
 8460POPC   C1B65611   3.413  44.102   6.450
 8460POPC   C2B65612   3.427  44.082   6.750
 8460POPC   C3B65613   3.421  44.051   7.050
 8460POPC   C4B65614   3.362  44.051   7.350
 8461POPC   NC365615  32.273   1.996   5.550
 8461POPC   PO465616  32.235   1.994   5.850
 8461POPC   GL165617  32.248   1.952   6.150
 8461POPC   GL265618  32.127   1.975   6.150
 8461POPC   C1A65619  32.281   2.021   6.450
 8461POPC   D2A65620  32.224   1.950   6.750
 8461POPC   C3A65621  32.232   1.968   7.050
 8461POPC   C4A65622  32.282   2.032   7.350
 8461POPC   C1B65623  32.001   1.943   6.450
 8461POPC   C2B65624  32.030   1.985   6.750
 8461POPC   C3B65625  32.033   1.917   7.050
 8461POPC   C4B65626  31.997   1.918   7.350
 8462POPC   NC365627  17.529  24.487   5.550
 8462POPC   PO465628  17.517  24.443   5.850
 8462POPC   GL165629  17.469  24.515   6.150
 8462POPC   GL265630  17.614  24.544   6.150
 8462POPC   C1A65631  17.555  24.510   6.450
 8462POPC   D2A65632  17.496  24.498   6.750
 8462POPC   C3A65633  17.461  24.469   7.050
 8462POPC   C4A65634  17.553  24.489   7.350
 8462POPC   C1B65635  17.702  24.635   6.450
 8462POPC   C2B65636  17.696  24.630   6.750
 8462POPC   C3B65637  17.663  24.630   7.050
 8462POPC   C4B65638  17.687  24.689   7.350
 8463POPC   NC365639  19.048  11.274   5.550
 8463POPC   PO465640  19.101  11.301   5.850
 8463POPC   GL165641  19.021  11.339   6.150
 8463POPC   GL265642  18.971  11.349   6.150
 8463POPC   C1A65643  19.056  11.255   6.450
 8463POPC   D2A65644  19.061  11.284   6.750
 8463POPC   C3A65645  19.098  11.277   7.050
 8463POPC   C4A65646  19.052  11.262   7.350
 8463POPC   C1B65647  18.901  11.493   6.450
 8463POPC   C2B65648  18.917  11.454   6.750
 8463POPC   C3B65649  18.912  11.487   7.050
 8463POPC   C4B65650  18.898  11.453   7.350
 8464POPC   NC365651  39.186   5.876   5.550
 8464POPC   PO465652  39.261   5.875   5.850
 8464POPC   GL165653  39.226   5.914   6.150
 8464POPC   GL265654  39.364   5.764   6.150
 8464POPC   C1A65655  39.266   5.879   6.450
 8464POPC   D2A65656  39.281   5.846   6.750
 8464POPC   C3A65657  39.242   5.916   7.050
 8464POPC   C4A65658  39.194   5.884   7.350
 8464POPC   C1B65659  39.434   5.742   6.450
 8464POPC   C2B65660  39.450   5.727   6.750
 8464POPC   C3B65661  39.381   5.702   7.050
 8464POPC   C4B65662  39.379   5.687   7.350
 8465POPC   NC365663  44.706  37.631   5.550
 8465POPC   PO465664  44.654  37.726   5.850
 8465POPC   GL165665  44.700  37.715   6.150
 8465POPC   GL265666  44.637  37.577   6.150
 8465POPC   C1A65667  44.652  37.714   6.450
 8465POPC   D2A65668  44.701  37.686   6.750
 8465POPC   C3A65669  44.709  37.652   7.050
 8465POPC   C4A65670  44.655  37.672   7.350
 8465POPC   C1B65671  44.671  37.407   6.450
 8465POPC   C2B65672  44.726  37.428   6.750
 8465POPC   C3B65673  44.654  37.448   7.050
 8465POPC   C4B65674  44.645  37.436   7.350
 8466POPC   NC365675  22.128  32.271   5.550
 8466POPC   PO465676  22.186  32.237   5.850
 8466POPC   GL165677  22.141  32.220   6.150
 8466POPC   GL265678  22.157  32.137   6.150
 8466POPC   C1A65679  22.199  32.212   6.450
 8466POPC   D2A65680  22.186  32.221   6.750
 8466POPC   C3A65681  22.174  32.246   7.050
 8466POPC   C4A65682  22.168  32.215   7.350
 8466POPC   C1B65683  22.137  32.047   6.450
 8466POPC   C2B65684  22.182  32.006   6.750
 8466POPC   C3B65685  22.164  31.959   7.050
 8466POPC   C4B65686  22.137  32.025   7.350
 8467POPC   NC365687   3.540  19.833   5.550
 8467POPC   PO465688   3.571  19.851   5.850
 8467POPC   GL165689   3.520  19.872   6.150
 8467POPC   GL265690   3.407  19.734   6.150
 8467POPC   C1A65691   3.543  19.853   6.450
 8467POPC   D2A65692   3.573  19.846   6.750
 8467POPC   C3A65693   3.558  19.841   7.050
 8467POPC   C4A65694   3.503  19.852   7.350
 8467POPC   C1B65695   3.351  19.726   6.450
 8467POPC   C2B65696   3.350  19.723   6.750
 8467POPC   C3B65697   3.368  19.673   7.050
 8467POPC   C4B65698   3.356  19.680   7.350
 8468POPC   NC365699  21.417   1.981   5.550
 8468POPC   PO465700  21.425   2.030   5.850
 8468POPC   GL165701  21.414   1.944   6.150
 8468POPC   GL265702  21.245   2.034   6.150
 8468POPC   C1A65703  21.398   2.001   6.450
 8468POPC   D2A65704  21.340   1.994   6.750
 8468POPC   C3A65705  21.337   1.969   7.050
 8468POPC   C4A65706  21.434   1.964   7.350
 8468POPC   C1B65707  21.188   2.164   6.450
 8468POPC   C2B65708  21.181   2.184   6.750
 8468POPC   C3B65709  21.148   2.170   7.050
 8468POPC   C4B65710  21.241   2.203   7.350
 8469POPC   NC365711   2.738  36.079   5.550
 8469POPC   PO465712   2.756  36.137   5.850
 8469POPC   GL165713   2.732  36.131   6.150
 8469POPC   GL265714   2.784  36.047   6.150
 8469POPC   C1A65715   2.783  36.160   6.450
 8469POPC   D2A65716   2.726  36.081   6.750
 8469POPC   C3A65717   2.808  36.121   7.050
 8469POPC   C4A65718   2.775  36.101   7.350
 8469POPC   C1B65719   2.795  35.894   6.450
 8469POPC   C2B65720   2.847  35.906   6.750
 8469POPC   C3B65721   2.847  35.931   7.050
 8469POPC   C4B65722   2.879  35.843   7.350
 8470POPC   NC365723  26.081  34.589   5.550
 8470POPC   PO465724  26.071  34.569   5.850
 8470POPC   GL165725  26.005  34.552   6.150
 8470POPC   GL265726  26.160  34.520   6.150
 8470POPC   C1A65727  26.031  34.543   6.450
 8470POPC   D2A65728  26.075  34.534   6.750
 8470POPC   C3A65729  26.026  34.603   7.050
 8470POPC   C4A65730  26.009  34.571   7.350
 8470POPC   C1B65731  26.227  34.420   6.450
 8470POPC   C2B65732  26.231  34.442   6.750
 8470POPC   C3B65733  26.207  34.416   7.050
 8470POPC   C4B65734  26.250  34.407   7.350
 8471POPC   NC365735  27.605  37.717   5.550
 8471POPC   PO465736  27.544  37.659   5.850
 8471POPC   GL165737  27.615  37.700   6.150
 8471POPC   GL265738  27.659  37.811   6.150
 8471POPC   C1A65739  27.575  37.661   6.450
 8471POPC   D2A65740  27.635  37.644   6.750
 8471POPC   C3A65741  27.598  37.663   7.050
 8471POPC   C4A65742  27.566  37.644   7.350
 8471POPC   C1B65743  27.724  37.945   6.450
 8471POPC   C2B65744  27.714  37.941   6.750
 8471POPC   C3B65745  27.671  37.868   7.050
 8471POPC   C4B65746  27.636  37.960   7.350
 8472POPC   NC365747  33.798  36.911   5.550
 8472POPC   PO465748  33.769  36.933   5.850
 8472POPC   GL165749  33.806  36.951   6.150
 8472POPC   GL265750  33.947  36.862   6.150
 8472POPC   C1A65751  33.776  36.905   6.450
 8472POPC   D2A65752  33.819  36.864   6.750
 8472POPC   C3A65753  33.813  36.953   7.050
 8472POPC   C4A65754  33.781  36.854   7.350
 8472POPC   C1B65755  34.004  36.883   6.450
 8472POPC   C2B65756  34.086  36.949   6.750
 8472POPC   C3B65757  34.069  36.889   7.050
 8472POPC   C4B65758  34.068  36.884   7.350
 8473POPC   NC365759  10.520   5.075   5.550
 8473POPC   PO465760  10.527   5.062   5.850
 8473POPC   GL165761  10.513   5.048   6.150
 8473POPC   GL265762  10.656   5.037   6.150
 8473POPC   C1A65763  10.552   5.068   6.450
 8473POPC   D2A65764  10.514   5.081   6.750
 8473POPC   C3A65765  10.505   5.139   7.050
 8473POPC   C4A65766  10.478   5.099   7.350
 8473POPC   C1B65767  10.728   5.056   6.450
 8473POPC   C2B65768  10.796   5.025   6.750
 8473POPC   C3B65769  10.723   5.005   7.050
 8473POPC   C4B65770  10.722   5.055   7.350
 8474POPC   NC365771  40.047  27.594   5.550
 8474POPC   PO465772  39.997  27.606   5.850
 8474POPC   GL165773  39.994  27.581   6.150
 8474POPC   GL265774  40.161  27.614   6.150
 8474POPC   C1A65775  40.022  27.607   6.450
 8474POPC   D2A65776  40.057  27.608   6.750
 8474POPC   C3A65777  39.975  27.564   7.050
 8474POPC   C4A65778  39.969  27.546   7.350
 8474POPC   C1B65779  40.277  27.654   6.450
 8474POPC   C2B65780  40.246  27.674   6.750
 8474POPC   C3B65781  40.278  27.712   7.050
 8474POPC   C4B65782  40.221  27.674   7.350
 8475POPC   NC365783  35.359  35.401   5.550
 8475POPC   PO465784  35.362  35.313   5.850
 8475POPC   GL165785  35.368  35.338   6.150
 8475POPC   GL265786  35.232  35.476   6.150
 8475POPC   C1A65787  35.314  35.327   6.450
 8475POPC   D2A65788  35.392  35.400   6.750
 8475POPC   C3A65789  35.401  35.314   7.050
 8475POPC   C4A65790  35.385  35.356   7.350
 8475POPC   C1B65791  35.193  35.468   6.450
 8475POPC   C2B65792  35.176  35.550   6.750
 8475POPC   C3B65793  35.121  35.529   7.050
 8475POPC   C4B65794  35.161  35.544   7.350
 8476POPC   NC365795   1.999   6.635   5.550
 8476POPC   PO465796   2.011   6.643   5.850
 8476POPC   GL165797   2.039   6.649   6.150
 8476POPC   GL265798   2.076   6.602   6.150
 8476POPC   C1A65799   1.958   6.620   6.450
 8476POPC   D2A65800   1.985   6.602   6.750
 8476POPC   C3A65801   2.032   6.621   7.050
 8476POPC   C4A65802   1.946   6.605   7.350
 8476POPC   C1B65803   2.257   6.609   6.450
 8476POPC   C2B65804   2.280   6.565   6.750
 8476POPC   C3B65805   2.263   6.596   7.050
 8476POPC   C4B65806   2.227   6.623   7.350
 8477POPC   NC365807   0.417  26.794   5.550
 8477POPC   PO465808   0.473  26.770   5.850
 8477POPC   GL165809   0.410  26.805   6.150
 8477POPC   GL265810   0.434  26.914   6.150
 8477POPC   C1A65811   0.461  26.801   6.450
 8477POPC   D2A65812   0.451  26.838   6.750
 8477POPC   C3A65813   0.462  26.792   7.050
 8477POPC   C4A65814   0.463  26.825   7.350
 8477POPC   C1B65815   0.449  27.041   6.450
 8477POPC   C2B65816   0.499  27.108   6.750
 8477POPC   C3B65817   0.498  27.081   7.050
 8477POPC   C4B65818   0.503  27.019   7.350
 8478POPC   NC365819  34.591  21.414   5.550
 8478POPC   PO465820  34.598  21.364   5.850
 8478POPC   GL165821  34.570  21.357   6.150
 8478POPC   GL265822  34.405  21.395   6.150
 8478POPC   C1A65823  34.611  21.390   6.450
 8478POPC   D2A65824  34.555  21.345   6.750
 8478POPC   C3A65825  34.591  21.372   7.050
 8478POPC   C4A65826  34.576  21.421   7.350
 8478POPC   C1B65827  34.305  21.405   6.450
 8478POPC   C2B65828  34.314  21.461   6.750
 8478POPC   C3B65829  34.310  21.397   7.050
 8478POPC   C4B65830  34.306  21.381   7.350
 8479POPC   NC365831  26.041   8.972   5.550
 8479POPC   PO465832  26.063   8.959   5.850
 8479POPC   GL165833  26.022   9.007   6.150
 8479POPC   GL265834  26.011   8.881   6.150
 8479POPC   C1A65835  26.067   8.943   6.450
 8479POPC   D2A65836  26.084   8.962   6.750
 8479POPC   C3A65837  26.074   8.924   7.050
 8479POPC   C4A65838  26.068   8.992   7.350
 8479POPC   C1B65839  26.048   8.744   6.450
 8479POPC   C2B65840  26.074   8.725   6.750
 8479POPC   C3B65841  26.053   8.752   7.050
 8479POPC   C4B65842  26.033   8.716   7.350
 8480POPC   NC365843  41.584  35.309   5.550
 8480POPC   PO465844  41.603  35.305   5.850
 8480POPC   GL165845  41.511  35.399   6.150
 8480POPC   GL265846  41.727  35.346   6.150
 8480POPC   C1A65847  41.536  35.329   6.450
 8480POPC   D2A65848  41.577  35.340   6.750
 8480POPC   C3A65849  41.565  35.345   7.050
 8480POPC   C4A65850  41.593  35.396   7.350
 8480POPC   C1B65851  41.791  35.291   6.450
 8480POPC   C2B65852  41.822  35.343   6.750
 8480POPC   C3B65853  41.792  35.364   7.050
 8480POPC   C4B65854  41.835  35.346   7.350
 8481POPC   NC365855   9.008  12.094   5.550
 8481POPC   PO465856   8.954  12.063   5.850
 8481POPC   GL165857   8.945  12.047   6.150
 8481POPC   GL265858   8.896  12.112   6.150
 8481POPC   C1A65859   9.011  12.080   6.450
 8481POPC   D2A65860   9.009  12.089   6.750
 8481POPC   C3A65861   8.990  12.099   7.050
 8481POPC   C4A65862   8.925  12.047   7.350
 8481POPC   C1B65863   8.760  12.066   6.450
 8481POPC   C2B65864   8.692  12.033   6.750
 8481POPC   C3B65865   8.683  12.067   7.050
 8481POPC   C4B65866   8.731  12.043   7.350
 8482POPC   NC365867  44.638   8.981   5.550
 8482POPC   PO465868  44.668   9.014   5.850
 8482POPC   GL165869  44.705   8.952   6.150
 8482POPC   GL265870  44.549   8.976   6.150
 8482POPC   C1A65871  44.628   9.011   6.450
 8482POPC   D2A65872  44.655   8.962   6.750
 8482POPC   C3A65873  44.709   9.004   7.050
 8482POPC   C4A65874  44.681   9.007   7.350
 8482POPC   C1B65875  44.379   8.923   6.450
 8482POPC   C2B65876  44.398   8.854   6.750
 8482POPC   C3B65877  44.402   8.860   7.050
 8482POPC   C4B65878  44.464   8.859   7.350
 8483POPC   NC365879  24.527  30.688   5.550
 8483POPC   PO465880  24.508  30.691   5.850
 8483POPC   GL165881  24.501  30.743   6.150
 8483POPC   GL265882  24.466  30.829   6.150
 8483POPC   C1A65883  24.502  30.706   6.450
 8483POPC   D2A65884  24.521  30.648   6.750
 8483POPC   C3A65885  24.505  30.718   7.050
 8483POPC   C4A65886  24.503  30.728   7.350
 8483POPC   C1B65887  24.473  30.996   6.450
 8483POPC   C2B65888  24.540  30.930   6.750
 8483POPC   C3B65889  24.480  30.930   7.050
 8483POPC   C4B65890  24.553  30.923   7.350
 8484POPC   NC365891   0.475   4.297   5.550
 8484POPC   PO465892   0.450   4.281   5.850
 8484POPC   GL165893   0.427   4.320   6.150
 8484POPC   GL265894   0.445   4.169   6.150
 8484POPC   C1A65895   0.450   4.299   6.450
 8484POPC   D2A65896   0.404   4.328   6.750
 8484POPC   C3A65897   0.457   4.337   7.050
 8484POPC   C4A65898   0.398   4.362   7.350
 8484POPC   C1B65899   0.473   4.066   6.450
 8484POPC   C2B65900   0.477   4.052   6.750
 8484POPC   C3B65901   0.550   4.049   7.050
 8484POPC   C4B65902   0.478   4.105   7.350
 8485POPC   NC365903  43.113  29.111   5.550
 8485POPC   PO465904  43.109  29.181   5.850
 8485POPC   GL165905  43.097  29.160   6.150
 8485POPC   GL265906  43.278  29.088   6.150
 8485POPC   C1A65907  43.104  29.183   6.450
 8485POPC   D2A65908  43.071  29.165   6.750
 8485POPC   C3A65909  43.101  29.179   7.050
 8485POPC   C4A65910  43.158  29.185   7.350
 8485POPC   C1B65911  43.310  29.086   6.450
 8485POPC   C2B65912  43.320  29.104   6.750
 8485POPC   C3B65913  43.374  29.053   7.050
 8485POPC   C4B65914  43.319  29.069   7.350
 8486POPC   NC365915  12.848  32.277   5.550
 8486POPC   PO465916  12.861  32.222   5.850
 8486POPC   GL165917  12.850  32.209   6.150
 8486POPC   GL265918  12.831  32.398   6.150
 8486POPC   C1A65919  12.872  32.212   6.450
 8486POPC   D2A65920  12.818  32.277   6.750
 8486POPC   C3A65921  12.846  32.277   7.050
 8486POPC   C4A65922  12.859  32.296   7.350
 8486POPC   C1B65923  12.852  32.509   6.450
 8486POPC   C2B65924  12.874  32.471   6.750
 8486POPC   C3B65925  12.878  32.457   7.050
 8486POPC   C4B65926  12.907  32.468   7.350
 8487POPC   NC365927  22.917  29.101   5.550
 8487POPC   PO465928  22.965  29.181   5.850
 8487POPC   GL165929  22.958  29.163   6.150
 8487POPC   GL265930  23.078  29.072   6.150
 8487POPC   C1A65931  22.889  29.122   6.450
 8487POPC   D2A65932  22.983  29.158   6.750
 8487POPC   C3A65933  22.959  29.132   7.050
 8487POPC   C4A65934  22.976  29.118   7.350
 8487POPC   C1B65935  23.094  29.032   6.450
 8487POPC   C2B65936  23.170  29.010   6.750
 8487POPC   C3B65937  23.169  29.004   7.050
 8487POPC   C4B65938  23.104  28.980   7.350
 8488POPC   NC365939  15.923  14.421   5.550
 8488POPC   PO465940  15.998  14.444   5.850
 8488POPC   GL165941  15.981  14.398   6.150
 8488POPC   GL265942  15.917  14.504   6.150
 8488POPC   C1A65943  15.980  14.419   6.450
 8488POPC   D2A65944  15.937  14.373   6.750
 8488POPC   C3A65945  15.916  14.369   7.050
 8488POPC   C4A65946  15.996  14.453   7.350
 8488POPC   C1B65947  15.813  14.552   6.450
 8488POPC   C2B65948  15.817  14.619   6.750
 8488POPC   C3B65949  15.803  14.626   7.050
 8488POPC   C4B65950  15.833  14.619   7.350
 8489POPC   NC365951  15.152   9.795   5.550
 8489POPC   PO465952  15.189   9.733   5.850
 8489POPC   GL165953  15.193   9.784   6.150
 8489POPC   GL265954  15.108   9.666   6.150
 8489POPC   C1A65955  15.196   9.772   6.450
 8489POPC   D2A65956  15.133   9.743   6.750
 8489POPC   C3A65957  15.229   9.797   7.050
 8489POPC   C4A65958  15.186   9.729   7.350
 8489POPC   C1B65959  14.935   9.591   6.450
 8489POPC   C2B65960  14.991   9.600   6.750
 8489POPC   C3B65961  15.005   9.609   7.050
 8489POPC   C4B65962  14.960   9.646   7.350
 8490POPC   NC365963  44.692   1.977   5.550
 8490POPC   PO465964  44.636   2.005   5.850
 8490POPC   GL165965  44.621   1.952   6.150
 8490POPC   GL265966  44.719   1.891   6.150
 8490POPC   C1A65967  44.612   2.038   6.450
 8490POPC   D2A65968  44.646   2.037   6.750
 8490POPC   C3A65969  44.615   2.035   7.050
 8490POPC   C4A65970  44.626   2.032   7.350
 8490POPC   C1B65971  44.866   1.837   6.450
 8490POPC   C2B65972  44.815   1.858   6.750
 8490POPC   C3B65973  44.869   1.803   7.050
 8490POPC   C4B65974  44.824   1.805   7.350
 8491POPC   NC365975  31.440   1.219   5.550
 8491POPC   PO465976  31.466   1.256   5.850
 8491POPC   GL165977  31.440   1.171   6.150
 8491POPC   GL265978  31.591   1.248   6.150
 8491POPC   C1A65979  31.497   1.220   6.450
 8491POPC   D2A65980  31.487   1.235   6.750
 8491POPC   C3A65981  31.509   1.173   7.050
 8491POPC   C4A65982  31.472   1.197   7.350
 8491POPC   C1B65983  31.651   1.389   6.450
 8491POPC   C2B65984  31.678   1.311   6.750
 8491POPC   C3B65985  31.683   1.323   7.050
 8491POPC   C4B65986  31.731   1.307   7.350
 8492POPC   NC365987  26.808  42.310   5.550
 8492POPC   PO465988  26.805  42.288   5.850
 8492POPC   GL165989  26.861  42.360   6.150
 8492POPC   GL265990  26.939  42.246   6.150
 8492POPC   C1A65991  26.801  42.368   6.450
 8492POPC   D2A65992  26.840  42.325   6.750
 8492POPC   C3A65993  26.847  42.361   7.050
 8492POPC   C4A65994  26.852  42.306   7.350
 8492POPC   C1B65995  27.021  42.214   6.450
 8492POPC   C2B65996  27.077  42.243   6.750
 8492POPC   C3B65997  27.026  42.292   7.050
 8492POPC   C4B65998  27.009  42.292   7.350
 8493POPC   NC365999  33.053  33.754   5.550
 8493POPC   PO466000  33.069  33.801   5.850
 8493POPC   GL166001  33.010  33.788   6.150
 8493POPC   GL266002  33.075  33.697   6.150
 8493POPC   C1A66003  33.034  33.807   6.450
 8493POPC   D2A66004  33.040  33.753   6.750
 8493POPC   C3A66005  32.993  33.819   7.050
 8493POPC   C4A66006  33.007  33.797   7.350
 8493POPC   C1B66007  33.219  33.647   6.450
 8493POPC   C2B66008  33.152  33.606   6.750
 8493POPC   C3B66009  33.203  33.559   7.050
 8493POPC   C4B66010  33.175  33.589   7.350
 8494POPC   NC366011  21.426  12.901   5.550
 8494POPC   PO466012  21.419  12.858   5.850
 8494POPC   GL166013  21.407  12.829   6.150
 8494POPC   GL266014  21.442  12.976   6.150
 8494POPC   C1A66015  21.422  12.840   6.450
 8494POPC   D2A66016  21.411  12.815   6.750
 8494POPC   C3A66017  21.351  12.821   7.050
 8494POPC   C4A66018  21.376  12.844   7.350
 8494POPC   C1B66019  21.466  13.084   6.450
 8494POPC   C2B66020  21.469  13.124   6.750
 8494POPC   C3B66021  21.453  13.050   7.050
 8494POPC   C4B66022  21.406  13.050   7.350
 8495POPC   NC366023  12.845  21.362   5.550
 8495POPC   PO466024  12.879  21.348   5.850
 8495POPC   GL166025  12.868  21.382   6.150
 8495POPC   GL266026  12.724  21.431   6.150
 8495POPC   C1A66027  12.869  21.384   6.450
 8495POPC   D2A66028  12.810  21.367   6.750
 8495POPC   C3A66029  12.809  21.356   7.050
 8495POPC   C4A66030  12.802  21.421   7.350
 8495POPC   C1B66031  12.601  21.421   6.450
 8495POPC   C2B66032  12.656  21.417   6.750
 8495POPC   C3B66033  12.564  21.417   7.050
 8495POPC   C4B66034  12.569  21.484   7.350
 8496POPC   NC366035   9.793  39.195   5.550
 8496POPC   PO466036   9.745  39.233   5.850
 8496POPC   GL166037   9.751  39.198   6.150
 8496POPC   GL266038   9.800  39.281   6.150
 8496POPC   C1A66039   9.729  39.222   6.450
 8496POPC   D2A66040   9.736  39.217   6.750
 8496POPC   C3A66041   9.759  39.246   7.050
 8496POPC   C4A66042   9.738  39.190   7.350
 8496POPC   C1B66043   9.984  39.342   6.450
 8496POPC   C2B66044   9.929  39.375   6.750
 8496POPC   C3B66045   9.957  39.369   7.050
 8496POPC   C4B66046   9.956  39.359   7.350
 8497POPC   NC366047  24.446  43.078   5.550
 8497POPC   PO466048  24.459  43.088   5.850
 8497POPC   GL166049  24.534  43.157   6.150
 8497POPC   GL266050  24.587  43.018   6.150
 8497POPC   C1A66051  24.478  43.112   6.450
 8497POPC   D2A66052  24.515  43.103   6.750
 8497POPC   C3A66053  24.523  43.121   7.050
 8497POPC   C4A66054  24.518  43.142   7.350
 8497POPC   C1B66055  24.662  42.893   6.450
 8497POPC   C2B66056  24.644  42.937   6.750
 8497POPC   C3B66057  24.683  42.951   7.050
 8497POPC   C4B66058  24.674  42.963   7.350
 8498POPC   NC366059  21.403  29.909   5.550
 8498POPC   PO466060  21.342  29.941   5.850
 8498POPC   GL166061  21.388  29.930   6.150
 8498POPC   GL266062  21.506  29.870   6.150
 8498POPC   C1A66063  21.433  29.952   6.450
 8498POPC   D2A66064  21.400  29.948   6.750
 8498POPC   C3A66065  21.422  29.951   7.050
 8498POPC   C4A66066  21.432  29.879   7.350
 8498POPC   C1B66067  21.538  29.683   6.450
 8498POPC   C2B66068  21.564  29.707   6.750
 8498POPC   C3B66069  21.572  29.760   7.050
 8498POPC   C4B66070  21.557  29.693   7.350
 8499POPC   NC366071  22.937  33.850   5.550
 8499POPC   PO466072  22.943  33.829   5.850
 8499POPC   GL166073  22.894  33.826   6.150
 8499POPC   GL266074  22.810  33.880   6.150
 8499POPC   C1A66075  22.933  33.817   6.450
 8499POPC   D2A66076  22.964  33.769   6.750
 8499POPC   C3A66077  22.979  33.765   7.050
 8499POPC   C4A66078  22.942  33.842   7.350
 8499POPC   C1B66079  22.690  33.896   6.450
 8499POPC   C2B66080  22.754  33.937   6.750
 8499POPC   C3B66081  22.684  33.872   7.050
 8499POPC   C4B66082  22.674  33.856   7.350
 8500POPC   NC366083   4.292  39.199   5.550
 8500POPC   PO466084   4.310  39.265   5.850
 8500POPC   GL166085   4.278  39.244   6.150
 8500POPC   GL266086   4.450  39.135   6.150
 8500POPC   C1A66087   4.312  39.276   6.450
 8500POPC   D2A66088   4.302  39.240   6.750
 8500POPC   C3A66089   4.268  39.270   7.050
 8500POPC   C4A66090   4.308  39.261   7.350
 8500POPC   C1B66091   4.592  39.155   6.450
 8500POPC   C2B66092   4.584  39.177   6.750
 8500POPC   C3B66093   4.519  39.147   7.050
 8500POPC   C4B66094   4.504  39.163   7.350
 8501POPC   NC366095  30.647   2.761   5.550
 8501POPC   PO466096  30.715   2.805   5.850
 8501POPC   GL166097  30.653   2.772   6.150
 8501POPC   GL266098  30.675   2.887   6.150
 8501POPC   C1A66099  30.670   2.748   6.450
 8501POPC   D2A66100  30.667   2.780   6.750
 8501POPC   C3A66101  30.741   2.725   7.050
 8501POPC   C4A66102  30.705   2.748   7.350
 8501POPC   C1B66103  30.686   2.975   6.450
 8501POPC   C2B66104  30.758   3.045   6.750
 8501POPC   C3B66105  30.771   2.995   7.050
 8501POPC   C4B66106  30.697   2.967   7.350
 8502POPC   NC366107  39.229   8.977   5.550
 8502POPC   PO466108  39.260   8.997   5.850
 8502POPC   GL166109  39.214   9.021   6.150
 8502POPC   GL266110  39.133   8.938   6.150
 8502POPC   C1A66111  39.273   8.996   6.450
 8502POPC   D2A66112  39.187   8.957   6.750
 8502POPC   C3A66113  39.229   8.935   7.050
 8502POPC   C4A66114  39.215   8.968   7.350
 8502POPC   C1B66115  38.962   8.853   6.450
 8502POPC   C2B66116  38.971   8.848   6.750
 8502POPC   C3B66117  39.012   8.878   7.050
 8502POPC   C4B66118  38.962   8.831   7.350
 8503POPC   NC366119  24.530  14.419   5.550
 8503POPC   PO466120  24.530  14.439   5.850
 8503POPC   GL166121  24.520  14.373   6.150
 8503POPC   GL266122  24.539  14.257   6.150
 8503POPC   C1A66123  24.499  14.367   6.450
 8503POPC   D2A66124  24.521  14.377   6.750
 8503POPC   C3A66125  24.509  14.393   7.050
 8503POPC   C4A66126  24.472  14.419   7.350
 8503POPC   C1B66127  24.594  14.151   6.450
 8503POPC   C2B66128  24.557  14.170   6.750
 8503POPC   C3B66129  24.519  14.144   7.050
 8503POPC   C4B66130  24.504  14.113   7.350
 8504POPC   NC366131   8.207  41.584   5.550
 8504POPC   PO466132   8.157  41.556   5.850
 8504POPC   GL166133   8.238  41.578   6.150
 8504POPC   GL266134   8.303  41.574   6.150
 8504POPC   C1A66135   8.197  41.559   6.450
 8504POPC   D2A66136   8.218  41.534   6.750
 8504POPC   C3A66137   8.154  41.583   7.050
 8504POPC   C4A66138   8.149  41.535   7.350
 8504POPC   C1B66139   8.464  41.579   6.450
 8504POPC   C2B66140   8.492  41.572   6.750
 8504POPC   C3B66141   8.414  41.523   7.050
 8504POPC   C4B66142   8.490  41.520   7.350
 8505POPC   NC366143  44.640  12.804   5.550
 8505POPC   PO466144  44.620  12.817   5.850
 8505POPC   GL166145  44.702  12.827   6.150
 8505POPC   GL266146  44.781  12.891   6.150
 8505POPC   C1A66147  44.618  12.845   6.450
 8505POPC   D2A66148  44.643  12.885   6.750
 8505POPC   C3A66149  44.699  12.829   7.050
 8505POPC   C4A66150  44.637  12.828   7.350
 8505POPC   C1B66151  44.892  12.898   6.450
 8505POPC   C2B66152  44.935  12.952   6.750
 8505POPC   C3B66153  44.929  12.938   7.050
 8505POPC   C4B66154  44.941  12.941   7.350
 8506POPC   NC366155  19.080   0.432   5.550
 8506POPC   PO466156  19.052   0.477   5.850
 8506POPC   GL166157  19.056   0.435   6.150
 8506POPC   GL266158  19.162   0.370   6.150
 8506POPC   C1A66159  19.045   0.389   6.450
 8506POPC   D2A66160  19.028   0.483   6.750
 8506POPC   C3A66161  19.061   0.412   7.050
 8506POPC   C4A66162  19.064   0.391   7.350
 8506POPC   C1B66163  19.193   0.185   6.450
 8506POPC   C2B66164  19.145   0.258   6.750
 8506POPC   C3B66165  19.198   0.236   7.050
 8506POPC   C4B66166  19.175   0.248   7.350
 8507POPC   NC366167  37.666  43.893   5.550
 8507POPC   PO466168  37.712  43.845   5.850
 8507POPC   GL166169  37.725  43.901   6.150
 8507POPC   GL266170  37.752  43.895   6.150
 8507POPC   C1A66171  37.659  43.895   6.450
 8507POPC   D2A66172  37.695  43.930   6.750
 8507POPC   C3A66173  37.661  43.858   7.050
 8507POPC   C4A66174  37.725  43.852   7.350
 8507POPC   C1B66175  37.940  43.816   6.450
 8507POPC   C2B66176  37.897  43.867   6.750
 8507POPC   C3B66177  37.882  43.869   7.050
 8507POPC   C4B66178  37.901  43.861   7.350
 8508POPC   NC366179   5.884  25.315   5.550
 8508POPC   PO466180   5.846  25.250   5.850
 8508POPC   GL166181   5.885  25.293   6.150
 8508POPC   GL266182   5.774  25.147   6.150
 8508POPC   C1A66183   5.901  25.265   6.450
 8508POPC   D2A66184   5.821  25.285   6.750
 8508POPC   C3A66185   5.821  25.240   7.050
 8508POPC   C4A66186   5.888  25.250   7.350
 8508POPC   C1B66187   5.691  25.068   6.450
 8508POPC   C2B66188   5.629  25.067   6.750
 8508POPC   C3B66189   5.644  25.092   7.050
 8508POPC   C4B66190   5.690  25.152   7.350
 8509POPC   NC366191   0.463  15.213   5.550
 8509POPC   PO466192   0.438  15.147   5.850
 8509POPC   GL166193   0.407  15.206   6.150
 8509POPC   GL266194   0.442  15.302   6.150
 8509POPC   C1A66195   0.409  15.216   6.450
 8509POPC   D2A66196   0.405  15.156   6.750
 8509POPC   C3A66197   0.431  15.143   7.050
 8509POPC   C4A66198   0.394  15.222   7.350
 8509POPC   C1B66199   0.467  15.384   6.450
 8509POPC   C2B66200   0.544  15.395   6.750
 8509POPC   C3B66201   0.515  15.445   7.050
 8509POPC   C4B66202   0.553  15.411   7.350
 8510POPC   NC366203  28.332  12.090   5.550
 8510POPC   PO466204  28.417  12.111   5.850
 8510POPC   GL166205  28.392  12.055   6.150
 8510POPC   GL266206  28.347  12.231   6.150
 8510POPC   C1A66207  28.413  12.110   6.450
 8510POPC   D2A66208  28.359  12.082   6.750
 8510POPC   C3A66209  28.398  12.064   7.050
 8510POPC   C4A66210  28.413  12.027   7.350
 8510POPC   C1B66211  28.370  12.329   6.450
 8510POPC   C2B66212  28.326  12.319   6.750
 8510POPC   C3B66213  28.420  12.343   7.050
 8510POPC   C4B66214  28.404  12.297   7.350
 8511POPC   NC366215   5.102   9.782   5.550
 8511POPC   PO466216   5.106   9.778   5.850
 8511POPC   GL166217   5.060   9.758   6.150
 8511POPC   GL266218   5.069   9.866   6.150
 8511POPC   C1A66219   5.099   9.730   6.450
 8511POPC   D2A66220   5.047   9.723   6.750
 8511POPC   C3A66221   5.048   9.756   7.050
 8511POPC   C4A66222   5.064   9.732   7.350
 8511POPC   C1B66223   5.050   9.969   6.450
 8511POPC   C2B66224   5.049   9.977   6.750
 8511POPC   C3B66225   5.124  10.018   7.050
 8511POPC   C4B66226   5.114   9.971   7.350
 8512POPC   NC366227  40.051  42.368   5.550
 8512POPC   PO466228  40.027  42.337   5.850
 8512POPC   GL166229  40.015  42.313   6.150
 8512POPC   GL266230  40.106  42.433   6.150
 8512POPC   C1A66231  40.026  42.291   6.450
 8512POPC   D2A66232  40.026  42.316   6.750
 8512POPC   C3A66233  40.049  42.307   7.050
 8512POPC   C4A66234  39.975  42.300   7.350
 8512POPC   C1B66235  40.201  42.527   6.450
 8512POPC   C2B66236  40.153  42.515   6.750
 8512POPC   C3B66237  40.207  42.465   7.050
 8512POPC   C4B66238  40.185  42.559   7.350
 8513POPC   NC366239  17.553  22.156   5.550
 8513POPC   PO466240  17.500  22.162   5.850
 8513POPC   GL166241  17.524  22.124   6.150
 8513POPC   GL266242  17.455  22.105   6.150
 8513POPC   C1A66243  17.532  22.141   6.450
 8513POPC   D2A66244  17.540  22.166   6.750
 8513POPC   C3A66245  17.536  22.164   7.050
 8513POPC   C4A66246  17.483  22.158   7.350
 8513POPC   C1B66247  17.316  21.977   6.450
 8513POPC   C2B66248  17.330  22.013   6.750
 8513POPC   C3B66249  17.265  21.971   7.050
 8513POPC   C4B66250  17.285  22.029   7.350
 8514POPC   NC366251   1.203  16.734   5.550
 8514POPC   PO466252   1.236  16.701   5.850
 8514POPC   GL166253   1.170  16.715   6.150
 8514POPC   GL266254   1.106  16.862   6.150
 8514POPC   C1A66255   1.181  16.705   6.450
 8514POPC   D2A66256   1.165  16.770   6.750
 8514POPC   C3A66257   1.209  16.731   7.050
 8514POPC   C4A66258   1.184  16.706   7.350
 8514POPC   C1B66259   1.050  16.968   6.450
 8514POPC   C2B66260   1.114  16.931   6.750
 8514POPC   C3B66261   1.070  16.935   7.050
 8514POPC   C4B66262   1.123  16.934   7.350
 8515POPC   NC366263  20.607  24.524   5.550
 8515POPC   PO466264  20.574  24.479   5.850
 8515POPC   GL166265  20.644  24.471   6.150
 8515POPC   GL266266  20.551  24.561   6.150
 8515POPC   C1A66267  20.595  24.486   6.450
 8515POPC   D2A66268  20.577  24.522   6.750
 8515POPC   C3A66269  20.581  24.441   7.050
 8515POPC   C4A66270  20.568  24.489   7.350
 8515POPC   C1B66271  20.544  24.763   6.450
 8515POPC   C2B66272  20.552  24.718   6.750
 8515POPC   C3B66273  20.524  24.749   7.050
 8515POPC   C4B66274  20.477  24.713   7.350
 8516POPC   NC366275  34.565  22.973   5.550
 8516POPC   PO466276  34.540  22.957   5.850
 8516POPC   GL166277  34.604  22.960   6.150
 8516POPC   GL266278  34.483  23.029   6.150
 8516POPC   C1A66279  34.578  22.909   6.450
 8516POPC   D2A66280  34.547  22.959   6.750
 8516POPC   C3A66281  34.548  22.893   7.050
 8516POPC   C4A66282  34.592  22.895   7.350
 8516POPC   C1B66283  34.396  23.119   6.450
 8516POPC   C2B66284  34.476  23.157   6.750
 8516POPC   C3B66285  34.414  23.197   7.050
 8516POPC   C4B66286  34.472  23.149   7.350
 8517POPC   NC366287  29.115  21.412   5.550
 8517POPC   PO466288  29.184  21.380   5.850
 8517POPC   GL166289  29.174  21.350   6.150
 8517POPC   GL266290  29.085  21.243   6.150
 8517POPC   C1A66291  29.131  21.369   6.450
 8517POPC   D2A66292  29.167  21.386   6.750
 8517POPC   C3A66293  29.119  21.356   7.050
 8517POPC   C4A66294  29.154  21.389   7.350
 8517POPC   C1B66295  29.109  21.151   6.450
 8517POPC   C2B66296  29.053  21.098   6.750
 8517POPC   C3B66297  29.109  21.113   7.050
 8517POPC   C4B66298  29.106  21.116   7.350
 8518POPC   NC366299  24.452   5.123   5.550
 8518POPC   PO466300  24.464   5.065   5.850
 8518POPC   GL166301  24.513   5.090   6.150
 8518POPC   GL266302  24.598   5.082   6.150
 8518POPC   C1A66303  24.501   5.072   6.450
 8518POPC   D2A66304  24.486   5.141   6.750
 8518POPC   C3A66305  24.446   5.090   7.050
 8518POPC   C4A66306  24.513   5.064   7.350
 8518POPC   C1B66307  24.729   5.115   6.450
 8518POPC   C2B66308  24.721   5.119   6.750
 8518POPC   C3B66309  24.690   5.111   7.050
 8518POPC   C4B66310  24.708   5.089   7.350
 8519POPC   NC366311  36.939  29.161   5.550
 8519POPC   PO466312  36.899  29.170   5.850
 8519POPC   GL166313  36.950  29.174   6.150
 8519POPC   GL266314  36.823  29.102   6.150
 8519POPC   C1A66315  36.927  29.190   6.450
 8519POPC   D2A66316  36.869  29.118   6.750
 8519POPC   C3A66317  36.884  29.118   7.050
 8519POPC   C4A66318  36.892  29.156   7.350
 8519POPC   C1B66319  36.716  29.019   6.450
 8519POPC   C2B66320  36.720  29.028   6.750
 8519POPC   C3B66321  36.717  29.060   7.050
 8519POPC   C4B66322  36.684  29.034   7.350
 8520POPC   NC366323  36.165  43.867   5.550
 8520POPC   PO466324  36.144  43.905   5.850
 8520POPC   GL166325  36.083  43.931   6.150
 8520POPC   GL266326  36.047  43.974   6.150
 8520POPC   C1A66327  36.112  43.887   6.450
 8520POPC   D2A66328  36.095  43.855   6.750
 8520POPC   C3A66329  36.084  43.856   7.050
 8520POPC   C4A66330  36.101  43.931   7.350
 8520POPC   C1B66331  36.021  44.137   6.450
 8520POPC   C2B66332  36.080  44.116   6.750
 8520POPC   C3B66333  36.017  44.090   7.050
 8520POPC   C4B66334  36.093  44.096   7.350
 8521POPC   NC366335  18.235   8.970   5.550
 8521POPC   PO466336  18.275   8.975   5.850
 8521POPC   GL166337  18.256   9.000   6.150
 8521POPC   GL266338  18.184   9.125   6.150
 8521POPC   C1A66339  18.238   8.954   6.450
 8521POPC   D2A66340  18.254   8.934   6.750
 8521POPC   C3A66341  18.310   8.939   7.050
 8521POPC   C4A66342  18.277   9.011   7.350
 8521POPC   C1B66343  18.193   9.156   6.450
 8521POPC   C2B66344  18.155   9.214   6.750
 8521POPC   C3B66345  18.221   9.221   7.050
 8521POPC   C4B66346  18.187   9.168   7.350
 8522POPC   NC366347   2.777  12.054   5.550
 8522POPC   PO466348   2.741  12.113   5.850
 8522POPC   GL166349   2.800  12.060   6.150
 8522POPC   GL266350   2.744  11.941   6.150
 8522POPC   C1A66351   2.814  12.071   6.450
 8522POPC   D2A66352   2.723  12.060   6.750
 8522POPC   C3A66353   2.754  12.087   7.050
 8522POPC   C4A66354   2.718  12.036   7.350
 8522POPC   C1B66355   2.620  11.849   6.450
 8522POPC   C2B66356   2.655  11.865   6.750
 8522POPC   C3B66357   2.659  11.825   7.050
 8522POPC   C4B66358   2.605  11.874   7.350
 8523POPC   NC366359  44.677  29.136   5.550
 8523POPC   PO466360  44.706  29.118   5.850
 8523POPC   GL166361  44.689  29.188   6.150
 8523POPC   GL266362  44.788  29.177   6.150
 8523POPC   C1A66363  44.687  29.166   6.450
 8523POPC   D2A66364  44.674  29.134   6.750
 8523POPC   C3A66365  44.654  29.152   7.050
 8523POPC   C4A66366  44.704  29.159   7.350
 8523POPC   C1B66367  44.942  29.088   6.450
 8523POPC   C2B66368  44.911  29.096   6.750
 8523POPC   C3B66369  44.920  29.080   7.050
 8523POPC   C4B66370  44.883  29.142   7.350
 8524POPC   NC366371  29.958  25.223   5.550
 8524POPC   PO466372  29.941  25.261   5.850
 8524POPC   GL166373  29.919  25.287   6.150
 8524POPC   GL266374  30.024  25.183   6.150
 8524POPC   C1A66375  29.904  25.286   6.450
 8524POPC   D2A66376  29.896  25.225   6.750
 8524POPC   C3A66377  29.924  25.301   7.050
 8524POPC   C4A66378  29.889  25.291   7.350
 8524POPC   C1B66379  30.049  25.036   6.450
 8524POPC   C2B66380  30.083  25.081   6.750
 8524POPC   C3B66381  30.087  25.069   7.050
 8524POPC   C4B66382  30.064  25.131   7.350
 8525POPC   NC366383   8.966  35.399   5.550
 8525POPC   PO466384   8.960  35.374   5.850
 8525POPC   GL166385   8.938  35.322   6.150
 8525POPC   GL266386   8.948  35.431   6.150
 8525POPC   C1A66387   8.941  35.317   6.450
 8525POPC   D2A66388   9.001  35.372   6.750
 8525POPC   C3A66389   8.973  35.339   7.050
 8525POPC   C4A66390   8.952  35.331   7.350
 8525POPC   C1B66391   8.951  35.559   6.450
 8525POPC   C2B66392   8.874  35.609   6.750
 8525POPC   C3B66393   8.923  35.606   7.050
 8525POPC   C4B66394   8.944  35.598   7.350
 8526POPC   NC366395   5.093  32.255   5.550
 8526POPC   PO466396   5.097  32.271   5.850
 8526POPC   GL166397   5.141  32.244   6.150
 8526POPC   GL266398   5.201  32.396   6.150
 8526POPC   C1A66399   5.139  32.280   6.450
 8526POPC   D2A66400   5.074  32.221   6.750
 8526POPC   C3A66401   5.111  32.277   7.050
 8526POPC   C4A66402   5.070  32.232   7.350
 8526POPC   C1B66403   5.209  32.417   6.450
 8526POPC   C2B66404   5.250  32.425   6.750
 8526POPC   C3B66405   5.186  32.419   7.050
 8526POPC   C4B66406   5.249  32.437   7.350
 8527POPC   NC366407  41.585  23.707   5.550
 8527POPC   PO466408  41.543  23.688   5.850
 8527POPC   GL166409  41.526  23.691   6.150
 8527POPC   GL266410  41.597  23.835   6.150
 8527POPC   C1A66411  41.598  23.710   6.450
 8527POPC   D2A66412  41.595  23.705   6.750
 8527POPC   C3A66413  41.537  23.666   7.050
 8527POPC   C4A66414  41.561  23.684   7.350
 8527POPC   C1B66415  41.578  24.013   6.450
 8527POPC   C2B66416  41.519  23.975   6.750
 8527POPC   C3B66417  41.495  23.928   7.050
 8527POPC   C4B66418  41.588  23.959   7.350
 8528POPC   NC366419  43.083  18.312   5.550
 8528POPC   PO466420  43.066  18.266   5.850
 8528POPC   GL166421  43.126  18.328   6.150
 8528POPC   GL266422  43.009  18.334   6.150
 8528POPC   C1A66423  43.124  18.248   6.450
 8528POPC   D2A66424  43.087  18.272   6.750
 8528POPC   C3A66425  43.130  18.275   7.050
 8528POPC   C4A66426  43.105  18.245   7.350
 8528POPC   C1B66427  42.875  18.338   6.450
 8528POPC   C2B66428  42.873  18.247   6.750
 8528POPC   C3B66429  42.880  18.263   7.050
 8528POPC   C4B66430  42.901  18.323   7.350
 8529POPC   NC366431  43.864  21.392   5.550
 8529POPC   PO466432  43.909  21.348   5.850
 8529POPC   GL166433  43.924  21.369   6.150
 8529POPC   GL266434  43.961  21.401   6.150
 8529POPC   C1A66435  43.880  21.409   6.450
 8529POPC   D2A66436  43.927  21.350   6.750
 8529POPC   C3A66437  43.856  21.422   7.050
 8529POPC   C4A66438  43.881  21.357   7.350
 8529POPC   C1B66439  44.107  21.439   6.450
 8529POPC   C2B66440  44.093  21.394   6.750
 8529POPC   C3B66441  44.119  21.394   7.050
 8529POPC   C4B66442  44.123  21.394   7.350
 8530POPC   NC366443  29.146  43.868   5.550
 8530POPC   PO466444  29.126  43.853   5.850
 8530POPC   GL166445  29.182  43.884   6.150
 8530POPC   GL266446  29.064  43.776   6.150
 8530POPC   C1A66447  29.141  43.912   6.450
 8530POPC   D2A66448  29.181  43.849   6.750
 8530POPC   C3A66449  29.186  43.921   7.050
 8530POPC   C4A66450  29.192  43.931   7.350
 8530POPC   C1B66451  28.993  43.714   6.450
 8530POPC   C2B66452  29.024  43.655   6.750
 8530POPC   C3B66453  29.037  43.689   7.050
 8530POPC   C4B66454  28.995  43.665   7.350
 8531POPC   NC366455   9.016  18.274   5.550
 8531POPC   PO466456   8.982  18.237   5.850
 8531POPC   GL166457   9.019  18.307   6.150
 8531POPC   GL266458   9.106  18.289   6.150
 8531POPC   C1A66459   9.003  18.310   6.450
 8531POPC   D2A66460   8.959  18.273   6.750
 8531POPC   C3A66461   8.991  18.274   7.050
 8531POPC   C4A66462   8.991  18.272   7.350
 8531POPC   C1B66463   9.229  18.165   6.450
 8531POPC   C2B66464   9.217  18.218   6.750
 8531POPC   C3B66465   9.170  18.164   7.050
 8531POPC   C4B66466   9.163  18.162   7.350
 8532POPC   NC366467  42.318  34.616   5.550
 8532POPC   PO466468  42.347  34.582   5.850
 8532POPC   GL166469  42.338  34.620   6.150
 8532POPC   GL266470  42.272  34.678   6.150
 8532POPC   C1A66471  42.379  34.587   6.450
 8532POPC   D2A66472  42.330  34.561   6.750
 8532POPC   C3A66473  42.371  34.550   7.050
 8532POPC   C4A66474  42.356  34.611   7.350
 8532POPC   C1B66475  42.311  34.808   6.450
 8532POPC   C2B66476  42.305  34.808   6.750
 8532POPC   C3B66477  42.262  34.785   7.050
 8532POPC   C4B66478  42.311  34.811   7.350
 8533POPC   NC366479  40.050  24.461   5.550
 8533POPC   PO466480  39.987  24.456   5.850
 8533POPC   GL166481  40.031  24.471   6.150
 8533POPC   GL266482  40.053  24.366   6.150
 8533POPC   C1A66483  40.000  24.455   6.450
 8533POPC   D2A66484  39.980  24.505   6.750
 8533POPC   C3A66485  39.990  24.466   7.050
 8533POPC   C4A66486  39.979  24.472   7.350
 8533POPC   C1B66487  40.172  24.270   6.450
 8533POPC   C2B66488  40.168  24.292   6.750
 8533POPC   C3B66489  40.142  24.316   7.050
 8533POPC   C4B66490  40.121  24.266   7.350
 8534POPC   NC366491   8.157  43.838   5.550
 8534POPC   PO466492   8.206  43.883   5.850
 8534POPC   GL166493   8.243  43.872   6.150
 8534POPC   GL266494   8.326  43.944   6.150
 8534POPC   C1A66495   8.170  43.891   6.450
 8534POPC   D2A66496   8.179  43.896   6.750
 8534POPC   C3A66497   8.190  43.885   7.050
 8534POPC   C4A66498   8.183  43.844   7.350
 8534POPC   C1B66499   8.450  43.900   6.450
 8534POPC   C2B66500   8.472  43.919   6.750
 8534POPC   C3B66501   8.398  43.935   7.050
 8534POPC   C4B66502   8.494  43.958   7.350
 8535POPC   NC366503  33.033  28.332   5.550
 8535POPC   PO466504  33.065  28.411   5.850
 8535POPC   GL166505  33.029  28.335   6.150
 8535POPC   GL266506  33.029  28.492   6.150
 8535POPC   C1A66507  33.018  28.373   6.450
 8535POPC   D2A66508  33.003  28.371   6.750
 8535POPC   C3A66509  32.999  28.326   7.050
 8535POPC   C4A66510  33.050  28.404   7.350
 8535POPC   C1B66511  33.091  28.617   6.450
 8535POPC   C2B66512  33.076  28.646   6.750
 8535POPC   C3B66513  33.007  28.589   7.050
 8535POPC   C4B66514  33.038  28.654   7.350
 8536POPC   NC366515  10.535   9.778   5.550
 8536POPC   PO466516  10.564   9.710   5.850
 8536POPC   GL166517  10.566   9.752   6.150
 8536POPC   GL266518  10.584   9.666   6.150
 8536POPC   C1A66519  10.533   9.760   6.450
 8536POPC   D2A66520  10.520   9.740   6.750
 8536POPC   C3A66521  10.564   9.797   7.050
 8536POPC   C4A66522  10.510   9.754   7.350
 8536POPC   C1B66523  10.581   9.523   6.450
 8536POPC   C2B66524  10.521   9.492   6.750
 8536POPC   C3B66525  10.585   9.484   7.050
 8536POPC   C4B66526  10.570   9.548   7.350
 8537POPC   NC366527  12.067  39.253   5.550
 8537POPC   PO466528  12.119  39.249   5.850
 8537POPC   GL166529  12.049  39.269   6.150
 8537POPC   GL266530  12.097  39.093   6.150
 8537POPC   C1A66531  12.087  39.230   6.450
 8537POPC   D2A66532  12.058  39.197   6.750
 8537POPC   C3A66533  12.046  39.240   7.050
 8537POPC   C4A66534  12.117  39.217   7.350
 8537POPC   C1B66535  12.155  38.979   6.450
 8537POPC   C2B66536  12.222  39.016   6.750
 8537POPC   C3B66537  12.203  39.050   7.050
 8537POPC   C4B66538  12.187  38.990   7.350
 8538POPC   NC366539  25.285  29.946   5.550
 8538POPC   PO466540  25.273  29.958   5.850
 8538POPC   GL166541  25.216  29.875   6.150
 8538POPC   GL266542  25.234  29.843   6.150
 8538POPC   C1A66543  25.275  29.878   6.450
 8538POPC   D2A66544  25.249  29.947   6.750
 8538POPC   C3A66545  25.228  29.930   7.050
 8538POPC   C4A66546  25.314  29.925   7.350
 8538POPC   C1B66547  25.284  29.684   6.450
 8538POPC   C2B66548  25.229  29.675   6.750
 8538POPC   C3B66549  25.254  29.625   7.050
 8538POPC   C4B66550  25.275  29.660   7.350
 8539POPC   NC366551   5.089  22.951   5.550
 8539POPC   PO466552   5.110  22.967   5.850
 8539POPC   GL166553   5.118  22.977   6.150
 8539POPC   GL266554   5.239  22.889   6.150
 8539POPC   C1A66555   5.052  22.940   6.450
 8539POPC   D2A66556   5.044  22.968   6.750
 8539POPC   C3A66557   5.120  22.929   7.050
 8539POPC   C4A66558   5.111  22.923   7.350
 8539POPC   C1B66559   5.284  22.837   6.450
 8539POPC   C2B66560   5.370  22.898   6.750
 8539POPC   C3B66561   5.318  22.881   7.050
 8539POPC   C4B66562   5.301  22.821   7.350
 8540POPC   NC366563  34.621  23.709   5.550
 8540POPC   PO466564  34.596  23.678   5.850
 8540POPC   GL166565  34.540  23.682   6.150
 8540POPC   GL266566  34.435  23.697   6.150
 8540POPC   C1A66567  34.619  23.678   6.450
 8540POPC   D2A66568  34.543  23.687   6.750
 8540POPC   C3A66569  34.561  23.725   7.050
 8540POPC   C4A66570  34.562  23.674   7.350
 8540POPC   C1B66571  34.317  23.602   6.450
 8540POPC   C2B66572  34.300  23.667   6.750
 8540POPC   C3B66573  34.383  23.633   7.050
 8540POPC   C4B66574  34.341  23.687   7.350
 8541POPC   NC366575   4.332  19.082   5.550
 8541POPC   PO466576   4.286  19.039   5.850
 8541POPC   GL166577   4.278  19.019   6.150
 8541POPC   GL266578   4.424  18.986   6.150
 8541POPC   C1A66579   4.288  19.032   6.450
 8541POPC   D2A66580   4.285  19.020   6.750
 8541POPC   C3A66581   4.345  19.099   7.050
 8541POPC   C4A66582   4.331  19.085   7.350
 8541POPC   C1B66583   4.416  18.817   6.450
 8541POPC   C2B66584   4.461  18.810   6.750
 8541POPC   C3B66585   4.412  18.882   7.050
 8541POPC   C4B66586   4.402  18.890   7.350
 8542POPC   NC366587  28.381   9.781   5.550
 8542POPC   PO466588  28.398   9.724   5.850
 8542POPC   GL166589  28.405   9.737   6.150
 8542POPC   GL266590  28.502   9.737   6.150
 8542POPC   C1A66591  28.396   9.715   6.450
 8542POPC   D2A66592  28.342   9.778   6.750
 8542POPC   C3A66593  28.416   9.706   7.050
 8542POPC   C4A66594  28.321   9.792   7.350
 8542POPC   C1B66595  28.631   9.701   6.450
 8542POPC   C2B66596  28.636   9.681   6.750
 8542POPC   C3B66597  28.580   9.622   7.050
 8542POPC   C4B66598  28.615   9.673   7.350
 8543POPC   NC366599  14.377  40.776   5.550
 8543POPC   PO466600  14.358  40.792   5.850
 8543POPC   GL166601  14.418  40.766   6.150
 8543POPC   GL266602  14.329  40.927   6.150
 8543POPC   C1A66603  14.434  40.810   6.450
 8543POPC   D2A66604  14.371  40.748   6.750
 8543POPC   C3A66605  14.430  40.747   7.050
 8543POPC   C4A66606  14.363  40.758   7.350
 8543POPC   C1B66607  14.265  40.969   6.450
 8543POPC   C2B66608  14.275  40.957   6.750
 8543POPC   C3B66609  14.292  40.952   7.050
 8543POPC   C4B66610  14.262  40.991   7.350
 8544POPC   NC366611  20.599   2.758   5.550
 8544POPC   PO466612  20.659   2.788   5.850
 8544POPC   GL166613  20.626   2.785   6.150
 8544POPC   GL266614  20.753   2.813   6.150
 8544POPC   C1A66615  20.624   2.742   6.450
 8544POPC   D2A66616  20.655   2.799   6.750
 8544POPC   C3A66617  20.582   2.735   7.050
 8544POPC   C4A66618  20.593   2.807   7.350
 8544POPC   C1B66619  20.821   2.901   6.450
 8544POPC   C2B66620  20.857   2.856   6.750
 8544POPC   C3B66621  20.831   2.884   7.050
 8544POPC   C4B66622  20.844   2.889   7.350
 8545POPC   NC366623   2.001  14.411   5.550
 8545POPC   PO466624   1.964  14.380   5.850
 8545POPC   GL166625   1.989  14.443   6.150
 8545POPC   GL266626   2.098  14.337   6.150
 8545POPC   C1A66627   2.002  14.394   6.450
 8545POPC   D2A66628   2.009  14.370   6.750
 8545POPC   C3A66629   2.022  14.445   7.050
 8545POPC   C4A66630   1.968  14.364   7.350
 8545POPC   C1B66631   2.142  14.209   6.450
 8545POPC   C2B66632   2.178  14.280   6.750
 8545POPC   C3B66633   2.208  14.278   7.050
 8545POPC   C4B66634   2.207  14.276   7.350
 8546POPC   NC366635  28.362  39.255   5.550
 8546POPC   PO466636  28.362  39.182   5.850
 8546POPC   GL166637  28.356  39.210   6.150
 8546POPC   GL266638  28.347  39.088   6.150
 8546POPC   C1A66639  28.396  39.275   6.450
 8546POPC   D2A66640  28.392  39.199   6.750
 8546POPC   C3A66641  28.358  39.187   7.050
 8546POPC   C4A66642  28.387  39.209   7.350
 8546POPC   C1B66643  28.394  39.020   6.450
 8546POPC   C2B66644  28.423  38.974   6.750
 8546POPC   C3B66645  28.418  39.014   7.050
 8546POPC   C4B66646  28.393  39.011   7.350
 8547POPC   NC366647   1.177   9.727   5.550
 8547POPC   PO466648   1.205   9.772   5.850
 8547POPC   GL166649   1.197   9.720   6.150
 8547POPC   GL266650   1.384   9.814   6.150
 8547POPC   C1A66651   1.166   9.766   6.450
 8547POPC   D2A66652   1.198   9.742   6.750
 8547POPC   C3A66653   1.236   9.728   7.050
 8547POPC   C4A66654   1.172   9.734   7.350
 8547POPC   C1B66655   1.493   9.788   6.450
 8547POPC   C2B66656   1.460   9.745   6.750
 8547POPC   C3B66657   1.507   9.767   7.050
 8547POPC   C4B66658   1.469   9.793   7.350
 8548POPC   NC366659  15.976  37.642   5.550
 8548POPC   PO466660  15.988  37.649   5.850
 8548POPC   GL166661  15.958  37.647   6.150
 8548POPC   GL266662  16.046  37.663   6.150
 8548POPC   C1A66663  15.980  37.722   6.450
 8548POPC   D2A66664  15.919  37.663   6.750
 8548POPC   C3A66665  15.917  37.640   7.050
 8548POPC   C4A66666  16.002  37.713   7.350
 8548POPC   C1B66667  16.242  37.759   6.450
 8548POPC   C2B66668  16.172  37.674   6.750
 8548POPC   C3B66669  16.252  37.688   7.050
 8548POPC   C4B66670  16.251  37.712   7.350
 8549POPC   NC366671  26.028  35.400   5.550
 8549POPC   PO466672  26.038  35.379   5.850
 8549POPC   GL166673  26.024  35.303   6.150
 8549POPC   GL266674  25.989  35.209   6.150
 8549POPC   C1A66675  26.002  35.338   6.450
 8549POPC   D2A66676  25.998  35.369   6.750
 8549POPC   C3A66677  26.076  35.396   7.050
 8549POPC   C4A66678  26.011  35.345   7.350
 8549POPC   C1B66679  26.041  35.107   6.450
 8549POPC   C2B66680  25.948  35.142   6.750
 8549POPC   C3B66681  25.997  35.074   7.050
 8549POPC   C4B66682  26.028  35.149   7.350
 8550POPC   NC366683  35.385  40.805   5.550
 8550POPC   PO466684  35.358  40.768   5.850
 8550POPC   GL166685  35.371  40.800   6.150
 8550POPC   GL266686  35.208  40.807   6.150
 8550POPC   C1A66687  35.308  40.757   6.450
 8550POPC   D2A66688  35.337  40.825   6.750
 8550POPC   C3A66689  35.354  40.756   7.050
 8550POPC   C4A66690  35.340  40.756   7.350
 8550POPC   C1B66691  35.138  40.822   6.450
 8550POPC   C2B66692  35.144  40.811   6.750
 8550POPC   C3B66693  35.055  40.819   7.050
 8550POPC   C4B66694  35.084  40.766   7.350
 8551POPC   NC366695  33.849  40.808   5.550
 8551POPC   PO466696  33.841  40.805   5.850
 8551POPC   GL166697  33.755  40.779   6.150
 8551POPC   GL266698  33.781  40.934   6.150
 8551POPC   C1A66699  33.757  40.809   6.450
 8551POPC   D2A66700  33.759  40.801   6.750
 8551POPC   C3A66701  33.767  40.747   7.050
 8551POPC   C4A66702  33.771  40.779   7.350
 8551POPC   C1B66703  33.898  41.074   6.450
 8551POPC   C2B66704  33.870  40.986   6.750
 8551POPC   C3B66705  33.823  41.055   7.050
 8551POPC   C4B66706  33.803  40.990   7.350
 8552POPC   NC366707  10.504  44.618   5.550
 8552POPC   PO466708  10.484  44.689   5.850
 8552POPC   GL166709  10.488  44.690   6.150
 8552POPC   GL266710  10.491  44.737   6.150
 8552POPC   C1A66711  10.494  44.634   6.450
 8552POPC   D2A66712  10.536  44.616   6.750
 8552POPC   C3A66713  10.543  44.644   7.050
 8552POPC   C4A66714  10.509  44.642   7.350
 8552POPC   C1B66715  10.408  44.897   6.450
 8552POPC   C2B66716  10.400  44.820   6.750
 8552POPC   C3B66717  10.430  44.865   7.050
 8552POPC   C4B66718  10.422  44.896   7.350
 8553POPC   NC366719   6.652  16.710   5.550
 8553POPC   PO466720   6.597  16.735   5.850
 8553POPC   GL166721   6.686  16.725   6.150
 8553POPC   GL266722   6.655  16.652   6.150
 8553POPC   C1A66723   6.639  16.761   6.450
 8553POPC   D2A66724   6.684  16.779   6.750
 8553POPC   C3A66725   6.656  16.755   7.050
 8553POPC   C4A66726   6.650  16.773   7.350
 8553POPC   C1B66727   6.631  16.530   6.450
 8553POPC   C2B66728   6.628  16.496   6.750
 8553POPC   C3B66729   6.575  16.467   7.050
 8553POPC   C4B66730   6.568  16.503   7.350
 8554POPC   NC366731  23.691   8.989   5.550
 8554POPC   PO466732  23.701   8.994   5.850
 8554POPC   GL166733  23.725   8.999   6.150
 8554POPC   GL266734  23.585   8.993   6.150
 8554POPC   C1A66735  23.725   8.987   6.450
 8554POPC   D2A66736  23.728   8.959   6.750
 8554POPC   C3A66737  23.763   8.953   7.050
 8554POPC   C4A66738  23.736   8.946   7.350
 8554POPC   C1B66739  23.537   9.128   6.450
 8554POPC   C2B66740  23.495   9.075   6.750
 8554POPC   C3B66741  23.490   9.101   7.050
 8554POPC   C4B66742  23.523   9.136   7.350
 8555POPC   NC366743  36.885  14.422   5.550
 8555POPC   PO466744  36.859  14.358   5.850
 8555POPC   GL166745  36.894  14.450   6.150
 8555POPC   GL266746  37.004  14.483   6.150
 8555POPC   C1A66747  36.862  14.386   6.450
 8555POPC   D2A66748  36.942  14.396   6.750
 8555POPC   C3A66749  36.953  14.416   7.050
 8555POPC   C4A66750  36.935  14.405   7.350
 8555POPC   C1B66751  37.156  14.464   6.450
 8555POPC   C2B66752  37.181  14.511   6.750
 8555POPC   C3B66753  37.171  14.503   7.050
 8555POPC   C4B66754  37.118  14.522   7.350
 8556POPC   NC366755  14.356  42.304   5.550
 8556POPC   PO466756  14.437  42.312   5.850
 8556POPC   GL166757  14.364  42.306   6.150
 8556POPC   GL266758  14.488  42.226   6.150
 8556POPC   C1A66759  14.393  42.352   6.450
 8556POPC   D2A66760  14.368  42.294   6.750
 8556POPC   C3A66761  14.363  42.300   7.050
 8556POPC   C4A66762  14.359  42.292   7.350
 8556POPC   C1B66763  14.590  42.116   6.450
 8556POPC   C2B66764  14.600  42.186   6.750
 8556POPC   C3B66765  14.593  42.110   7.050
 8556POPC   C4B66766  14.527  42.111   7.350
 8557POPC   NC366767   8.961  36.086   5.550
 8557POPC   PO466768   9.010  36.164   5.850
 8557POPC   GL166769   8.964  36.146   6.150
 8557POPC   GL266770   9.051  36.171   6.150
 8557POPC   C1A66771   8.992  36.133   6.450
 8557POPC   D2A66772   9.016  36.140   6.750
 8557POPC   C3A66773   8.978  36.091   7.050
 8557POPC   C4A66774   8.976  36.168   7.350
 8557POPC   C1B66775   9.186  36.196   6.450
 8557POPC   C2B66776   9.243  36.186   6.750
 8557POPC   C3B66777   9.191  36.202   7.050
 8557POPC   C4B66778   9.194  36.187   7.350
 8558POPC   NC366779  41.516   1.261   5.550
 8558POPC   PO466780  41.603   1.189   5.850
 8558POPC   GL166781  41.531   1.245   6.150
 8558POPC   GL266782  41.438   1.330   6.150
 8558POPC   C1A66783  41.563   1.205   6.450
 8558POPC   D2A66784  41.545   1.240   6.750
 8558POPC   C3A66785  41.535   1.257   7.050
 8558POPC   C4A66786  41.509   1.207   7.350
 8558POPC   C1B66787  41.403   1.391   6.450
 8558POPC   C2B66788  41.353   1.361   6.750
 8558POPC   C3B66789  41.357   1.350   7.050
 8558POPC   C4B66790  41.399   1.357   7.350
 8559POPC   NC366791   6.649   7.408   5.550
 8559POPC   PO466792   6.685   7.391   5.850
 8559POPC   GL166793   6.619   7.432   6.150
 8559POPC   GL266794   6.603   7.344   6.150
 8559POPC   C1A66795   6.673   7.466   6.450
 8559POPC   D2A66796   6.689   7.405   6.750
 8559POPC   C3A66797   6.667   7.383   7.050
 8559POPC   C4A66798   6.617   7.463   7.350
 8559POPC   C1B66799   6.598   7.207   6.450
 8559POPC   C2B66800   6.566   7.216   6.750
 8559POPC   C3B66801   6.586   7.146   7.050
 8559POPC   C4B66802   6.607   7.196   7.350
 8560POPC   NC366803  44.674  36.915   5.550
 8560POPC   PO466804  44.617  36.934   5.850
 8560POPC   GL166805  44.668  36.907   6.150
 8560POPC   GL266806  44.745  36.837   6.150
 8560POPC   C1A66807  44.689  36.872   6.450
 8560POPC   D2A66808  44.615  36.906   6.750
 8560POPC   C3A66809  44.627  36.873   7.050
 8560POPC   C4A66810  44.678  36.854   7.350
 8560POPC   C1B66811  44.752  36.664   6.450
 8560POPC   C2B66812  44.739  36.671   6.750
 8560POPC   C3B66813  44.778  36.667   7.050
 8560POPC   C4B66814  44.779  36.651   7.350
 8561POPC   NC366815   9.720  12.041   5.550
 8561POPC   PO466816   9.727  12.102   5.850
 8561POPC   GL166817   9.700  12.090   6.150
 8561POPC   GL266818   9.584  12.133   6.150
 8561POPC   C1A66819   9.774  12.034   6.450
 8561POPC   D2A66820   9.785  12.121   6.750
 8561POPC   C3A66821   9.754  12.064   7.050
 8561POPC   C4A66822   9.759  12.029   7.350
 8561POPC   C1B66823   9.525  12.137   6.450
 8561POPC   C2B66824   9.485  12.166   6.750
 8561POPC   C3B66825   9.564  12.152   7.050
 8561POPC   C4B66826   9.533  12.138   7.350
 8562POPC   NC366827  12.077  38.495   5.550
 8562POPC   PO466828  12.116  38.461   5.850
 8562POPC   GL166829  12.069  38.421   6.150
 8562POPC   GL266830  11.939  38.461   6.150
 8562POPC   C1A66831  12.122  38.411   6.450
 8562POPC   D2A66832  12.079  38.425   6.750
 8562POPC   C3A66833  12.027  38.475   7.050
 8562POPC   C4A66834  12.078  38.426   7.350
 8562POPC   C1B66835  11.871  38.408   6.450
 8562POPC   C2B66836  11.790  38.480   6.750
 8562POPC   C3B66837  11.843  38.425   7.050
 8562POPC   C4B66838  11.781  38.453   7.350
 8563POPC   NC366839  25.297  37.641   5.550
 8563POPC   PO466840  25.281  37.664   5.850
 8563POPC   GL166841  25.238  37.657   6.150
 8563POPC   GL266842  25.131  37.613   6.150
 8563POPC   C1A66843  25.241  37.633   6.450
 8563POPC   D2A66844  25.308  37.729   6.750
 8563POPC   C3A66845  25.313  37.666   7.050
 8563POPC   C4A66846  25.220  37.723   7.350
 8563POPC   C1B66847  25.074  37.543   6.450
 8563POPC   C2B66848  25.076  37.558   6.750
 8563POPC   C3B66849  25.098  37.470   7.050
 8563POPC   C4B66850  25.070  37.549   7.350
 8564POPC   NC366851   5.052  34.599   5.550
 8564POPC   PO466852   5.124  34.543   5.850
 8564POPC   GL166853   5.142  34.574   6.150
 8564POPC   GL266854   4.978  34.507   6.150
 8564POPC   C1A66855   5.079  34.562   6.450
 8564POPC   D2A66856   5.122  34.534   6.750
 8564POPC   C3A66857   5.124  34.573   7.050
 8564POPC   C4A66858   5.133  34.548   7.350
 8564POPC   C1B66859   4.899  34.491   6.450
 8564POPC   C2B66860   4.823  34.537   6.750
 8564POPC   C3B66861   4.861  34.500   7.050
 8564POPC   C4B66862   4.817  34.532   7.350
 8565POPC   NC366863   9.701   2.018   5.550
 8565POPC   PO466864   9.752   2.035   5.850
 8565POPC   GL166865   9.757   1.972   6.150
 8565POPC   GL266866   9.804   2.064   6.150
 8565POPC   C1A66867   9.777   1.966   6.450
 8565POPC   D2A66868   9.772   1.996   6.750
 8565POPC   C3A66869   9.707   1.989   7.050
 8565POPC   C4A66870   9.773   1.956   7.350
 8565POPC   C1B66871   9.892   2.235   6.450
 8565POPC   C2B66872   9.925   2.148   6.750
 8565POPC   C3B66873   9.904   2.221   7.050
 8565POPC   C4B66874   9.877   2.183   7.350
 8566POPC   NC366875   5.913   3.524   5.550
 8566POPC   PO466876   5.890   3.496   5.850
 8566POPC   GL166877   5.862   3.548   6.150
 8566POPC   GL266878   6.012   3.578   6.150
 8566POPC   C1A66879   5.820   3.574   6.450
 8566POPC   D2A66880   5.879   3.548   6.750
 8566POPC   C3A66881   5.875   3.517   7.050
 8566POPC   C4A66882   5.892   3.512   7.350
 8566POPC   C1B66883   6.064   3.661   6.450
 8566POPC   C2B66884   6.046   3.636   6.750
 8566POPC   C3B66885   6.032   3.631   7.050
 8566POPC   C4B66886   6.084   3.655   7.350
 8567POPC   NC366887   4.321  40.029   5.550
 8567POPC   PO466888   4.291  40.037   5.850
 8567POPC   GL166889   4.313  40.010   6.150
 8567POPC   GL266890   4.384  39.862   6.150
 8567POPC   C1A66891   4.291  39.957   6.450
 8567POPC   D2A66892   4.348  39.977   6.750
 8567POPC   C3A66893   4.323  40.006   7.050
 8567POPC   C4A66894   4.307  39.978   7.350
 8567POPC   C1B66895   4.346  39.726   6.450
 8567POPC   C2B66896   4.371  39.802   6.750
 8567POPC   C3B66897   4.367  39.773   7.050
 8567POPC   C4B66898   4.395  39.798   7.350
 8568POPC   NC366899  29.113   5.109   5.550
 8568POPC   PO466900  29.182   5.069   5.850
 8568POPC   GL166901  29.136   5.058   6.150
 8568POPC   GL266902  29.258   5.039   6.150
 8568POPC   C1A66903  29.126   5.100   6.450
 8568POPC   D2A66904  29.151   5.082   6.750
 8568POPC   C3A66905  29.174   5.064   7.050
 8568POPC   C4A66906  29.170   5.080   7.350
 8568POPC   C1B66907  29.321   5.005   6.450
 8568POPC   C2B66908  29.336   4.975   6.750
 8568POPC   C3B66909  29.370   4.996   7.050
 8568POPC   C4B66910  29.416   4.949   7.350
 8569POPC   NC366911  42.359   5.062   5.550
 8569POPC   PO466912  42.382   5.088   5.850
 8569POPC   GL166913  42.375   5.089   6.150
 8569POPC   GL266914  42.200   5.109   6.150
 8569POPC   C1A66915  42.324   5.108   6.450
 8569POPC   D2A66916  42.339   5.100   6.750
 8569POPC   C3A66917  42.355   5.058   7.050
 8569POPC   C4A66918  42.312   5.117   7.350
 8569POPC   C1B66919  42.065   5.229   6.450
 8569POPC   C2B66920  42.130   5.216   6.750
 8569POPC   C3B66921  42.123   5.207   7.050
 8569POPC   C4B66922  42.152   5.205   7.350
 8570POPC   NC366923  19.039   8.967   5.550
 8570POPC   PO466924  19.069   8.982   5.850
 8570POPC   GL166925  19.033   8.993   6.150
 8570POPC   GL266926  18.953   8.918   6.150
 8570POPC   C1A66927  19.034   8.994   6.450
 8570POPC   D2A66928  19.029   8.951   6.750
 8570POPC   C3A66929  19.084   8.936   7.050
 8570POPC   C4A66930  19.094   9.014   7.350
 8570POPC   C1B66931  18.856   8.879   6.450
 8570POPC   C2B66932  18.849   8.873   6.750
 8570POPC   C3B66933  18.817   8.889   7.050
 8570POPC   C4B66934  18.822   8.957   7.350
 8571POPC   NC366935  26.032   5.833   5.550
 8571POPC   PO466936  26.043   5.831   5.850
 8571POPC   GL166937  26.000   5.914   6.150
 8571POPC   GL266938  26.157   5.932   6.150
 8571POPC   C1A66939  26.075   5.833   6.450
 8571POPC   D2A66940  26.019   5.825   6.750
 8571POPC   C3A66941  26.050   5.876   7.050
 8571POPC   C4A66942  26.068   5.866   7.350
 8571POPC   C1B66943  26.204   6.013   6.450
 8571POPC   C2B66944  26.216   6.073   6.750
 8571POPC   C3B66945  26.229   6.030   7.050
 8571POPC   C4B66946  26.250   6.005   7.350
 8572POPC   NC366947   7.451  22.127   5.550
 8572POPC   PO466948   7.449  22.171   5.850
 8572POPC   GL166949   7.373  22.189   6.150
 8572POPC   GL266950   7.510  22.087   6.150
 8572POPC   C1A66951   7.385  22.120   6.450
 8572POPC   D2A66952   7.465  22.135   6.750
 8572POPC   C3A66953   7.398  22.121   7.050
 8572POPC   C4A66954   7.467  22.187   7.350
 8572POPC   C1B66955   7.630  22.094   6.450
 8572POPC   C2B66956   7.621  22.085   6.750
 8572POPC   C3B66957   7.610  22.053   7.050
 8572POPC   C4B66958   7.627  22.097   7.350
 8573POPC   NC366959   2.796  26.067   5.550
 8573POPC   PO466960   2.750  26.058   5.850
 8573POPC   GL166961   2.771  26.031   6.150
 8573POPC   GL266962   2.797  26.185   6.150
 8573POPC   C1A66963   2.776  25.996   6.450
 8573POPC   D2A66964   2.806  26.069   6.750
 8573POPC   C3A66965   2.798  26.047   7.050
 8573POPC   C4A66966   2.753  26.077   7.350
 8573POPC   C1B66967   2.774  26.319   6.450
 8573POPC   C2B66968   2.768  26.249   6.750
 8573POPC   C3B66969   2.720  26.282   7.050
 8573POPC   C4B66970   2.728  26.318   7.350
 8574POPC   NC366971  22.981   2.018   5.550
 8574POPC   PO466972  22.950   1.987   5.850
 8574POPC   GL166973  22.911   2.037   6.150
 8574POPC   GL266974  22.902   2.062   6.150
 8574POPC   C1A66975  22.978   1.963   6.450
 8574POPC   D2A66976  22.916   1.959   6.750
 8574POPC   C3A66977  22.952   1.959   7.050
 8574POPC   C4A66978  22.950   2.034   7.350
 8574POPC   C1B66979  22.903   2.256   6.450
 8574POPC   C2B66980  22.831   2.241   6.750
 8574POPC   C3B66981  22.895   2.249   7.050
 8574POPC   C4B66982  22.865   2.232   7.350
 8575POPC   NC366983  43.924   9.775   5.550
 8575POPC   PO466984  43.925   9.721   5.850
 8575POPC   GL166985  43.934   9.771   6.150
 8575POPC   GL266986  43.875   9.602   6.150
 8575POPC   C1A66987  43.863   9.749   6.450
 8575POPC   D2A66988  43.860   9.734   6.750
 8575POPC   C3A66989  43.877   9.745   7.050
 8575POPC   C4A66990  43.866   9.749   7.350
 8575POPC   C1B66991  43.818   9.537   6.450
 8575POPC   C2B66992  43.743   9.508   6.750
 8575POPC   C3B66993  43.808   9.552   7.050
 8575POPC   C4B66994  43.805   9.560   7.350
 8576POPC   NC366995  17.529  22.933   5.550
 8576POPC   PO466996  17.474  22.908   5.850
 8576POPC   GL166997  17.539  22.931   6.150
 8576POPC   GL266998  17.475  23.092   6.150
 8576POPC   C1A66999  17.533  22.937   6.450
 8576POPC   D2A67000  17.531  22.907   6.750
 8576POPC   C3A67001  17.556  22.945   7.050
 8576POPC   C4A67002  17.482  22.944   7.350
 8576POPC   C1B67003  17.421  23.181   6.450
 8576POPC   C2B67004  17.367  23.164   6.750
 8576POPC   C3B67005  17.453  23.219   7.050
 8576POPC   C4B67006  17.383  23.159   7.350
 8577POPC   NC367007  30.651   1.249   5.550
 8577POPC   PO467008  30.742   1.195   5.850
 8577POPC   GL167009  30.725   1.229   6.150
 8577POPC   GL267010  30.581   1.145   6.150
 8577POPC   C1A67011  30.710   1.198   6.450
 8577POPC   D2A67012  30.673   1.179   6.750
 8577POPC   C3A67013  30.695   1.198   7.050
 8577POPC   C4A67014  30.688   1.191   7.350
 8577POPC   C1B67015  30.428   1.129   6.450
 8577POPC   C2B67016  30.455   1.080   6.750
 8577POPC   C3B67017  30.457   1.093   7.050
 8577POPC   C4B67018  30.464   1.122   7.350
 8578POPC   NC367019  19.798  12.863   5.550
 8578POPC   PO467020  19.804  12.857   5.850
 8578POPC   GL167021  19.819  12.842   6.150
 8578POPC   GL267022  19.800  12.686   6.150
 8578POPC   C1A67023  19.837  12.870   6.450
 8578POPC   D2A67024  19.836  12.817   6.750
 8578POPC   C3A67025  19.842  12.864   7.050
 8578POPC   C4A67026  19.844  12.823   7.350
 8578POPC   C1B67027  19.711  12.619   6.450
 8578POPC   C2B67028  19.776  12.612   6.750
 8578POPC   C3B67029  19.797  12.637   7.050
 8578POPC   C4B67030  19.742  12.657   7.350
 8579POPC   NC367031   5.101  26.007   5.550
 8579POPC   PO467032   5.130  26.043   5.850
 8579POPC   GL167033   5.124  26.000   6.150
 8579POPC   GL267034   5.216  25.900   6.150
 8579POPC   C1A67035   5.122  26.089   6.450
 8579POPC   D2A67036   5.101  25.997   6.750
 8579POPC   C3A67037   5.095  26.021   7.050
 8579POPC   C4A67038   5.053  26.016   7.350
 8579POPC   C1B67039   5.298  25.864   6.450
 8579POPC   C2B67040   5.231  25.888   6.750
 8579POPC   C3B67041   5.217  25.801   7.050
 8579POPC   C4B67042   5.236  25.860   7.350
 8580POPC   NC367043  12.050   8.955   5.550
 8580POPC   PO467044  12.045   8.982   5.850
 8580POPC   GL167045  12.119   9.006   6.150
 8580POPC   GL267046  12.226   9.001   6.150
 8580POPC   C1A67047  12.076   8.983   6.450
 8580POPC   D2A67048  12.118   8.984   6.750
 8580POPC   C3A67049  12.047   8.970   7.050
 8580POPC   C4A67050  12.086   8.966   7.350
 8580POPC   C1B67051  12.288   8.940   6.450
 8580POPC   C2B67052  12.296   9.006   6.750
 8580POPC   C3B67053  12.370   8.969   7.050
 8580POPC   C4B67054  12.317   8.996   7.350
 8581POPC   NC367055  41.583  28.389   5.550
 8581POPC   PO467056  41.558  28.380   5.850
 8581POPC   GL167057  41.595  28.404   6.150
 8581POPC   GL267058  41.643  28.352   6.150
 8581POPC   C1A67059  41.512  28.350   6.450
 8581POPC   D2A67060  41.569  28.330   6.750
 8581POPC   C3A67061  41.552  28.331   7.050
 8581POPC   C4A67062  41.562  28.338   7.350
 8581POPC   C1B67063  41.804  28.273   6.450
 8581POPC   C2B67064  41.782  28.309   6.750
 8581POPC   C3B67065  41.802  28.245   7.050
 8581POPC   C4B67066  41.743  28.255   7.350
 8582POPC   NC367067  38.452  36.080   5.550
 8582POPC   PO467068  38.443  36.094   5.850
 8582POPC   GL167069  38.485  36.123   6.150
 8582POPC   GL267070  38.413  36.231   6.150
 8582POPC   C1A67071  38.474  36.155   6.450
 8582POPC   D2A67072  38.492  36.129   6.750
 8582POPC   C3A67073  38.498  36.134   7.050
 8582POPC   C4A67074  38.471  36.115   7.350
 8582POPC   C1B67075  38.428  36.419   6.450
 8582POPC   C2B67076  38.387  36.410   6.750
 8582POPC   C3B67077  38.385  36.419   7.050
 8582POPC   C4B67078  38.459  36.337   7.350
 8583POPC   NC367079   5.838  31.516   5.550
 8583POPC   PO467080   5.865  31.479   5.850
 8583POPC   GL167081   5.902  31.440   6.150
 8583POPC   GL267082   5.839  31.627   6.150
 8583POPC   C1A67083   5.886  31.437   6.450
 8583POPC   D2A67084   5.883  31.520   6.750
 8583POPC   C3A67085   5.847  31.522   7.050
 8583POPC   C4A67086   5.831  31.425   7.350
 8583POPC   C1B67087   5.740  31.692   6.450
 8583POPC   C2B67088   5.784  31.707   6.750
 8583POPC   C3B67089   5.792  31.698   7.050
 8583POPC   C4B67090   5.752  31.685   7.350
 8584POPC   NC367091   5.833   1.221   5.550
 8584POPC   PO467092   5.875   1.182   5.850
 8584POPC   GL167093   5.863   1.217   6.150
 8584POPC   GL267094   5.967   1.066   6.150
 8584POPC   C1A67095   5.900   1.245   6.450
 8584POPC   D2A67096   5.865   1.181   6.750
 8584POPC   C3A67097   5.883   1.201   7.050
 8584POPC   C4A67098   5.837   1.189   7.350
 8584POPC   C1B67099   5.956   1.024   6.450
 8584POPC   C2B67100   5.941   0.974   6.750
 8584POPC   C3B67101   5.996   0.963   7.050
 8584POPC   C4B67102   5.984   0.991   7.350
 8585POPC   NC367103   6.691   8.962   5.550
 8585POPC   PO467104   6.668   8.932   5.850
 8585POPC   GL167105   6.634   8.996   6.150
 8585POPC   GL267106   6.783   9.005   6.150
 8585POPC   C1A67107   6.638   8.928   6.450
 8585POPC   D2A67108   6.671   8.963   6.750
 8585POPC   C3A67109   6.649   9.007   7.050
 8585POPC   C4A67110   6.622   8.957   7.350
 8585POPC   C1B67111   6.860   9.006   6.450
 8585POPC   C2B67112   6.934   8.968   6.750
 8585POPC   C3B67113   6.861   9.014   7.050
 8585POPC   C4B67114   6.843   8.960   7.350
 8586POPC   NC367115  22.972  24.526   5.550
 8586POPC   PO467116  22.985  24.531   5.850
 8586POPC   GL167117  22.984  24.526   6.150
 8586POPC   GL267118  22.782  24.471   6.150
 8586POPC   C1A67119  22.906  24.451   6.450
 8586POPC   D2A67120  22.947  24.527   6.750
 8586POPC   C3A67121  22.891  24.441   7.050
 8586POPC   C4A67122  22.915  24.457   7.350
 8586POPC   C1B67123  22.735  24.379   6.450
 8586POPC   C2B67124  22.722  24.374   6.750
 8586POPC   C3B67125  22.709  24.367   7.050
 8586POPC   C4B67126  22.736  24.438   7.350
 8587POPC   NC367127  36.858  29.966   5.550
 8587POPC   PO467128  36.916  29.926   5.850
 8587POPC   GL167129  36.932  29.898   6.150
 8587POPC   GL267130  36.946  29.856   6.150
 8587POPC   C1A67131  36.888  29.897   6.450
 8587POPC   D2A67132  36.938  29.966   6.750
 8587POPC   C3A67133  36.891  29.927   7.050
 8587POPC   C4A67134  36.872  29.924   7.350
 8587POPC   C1B67135  37.043  29.732   6.450
 8587POPC   C2B67136  37.053  29.724   6.750
 8587POPC   C3B67137  37.019  29.682   7.050
 8587POPC   C4B67138  37.031  29.697   7.350
 8588POPC   NC367139  19.795  15.145   5.550
 8588POPC   PO467140  19.841  15.208   5.850
 8588POPC   GL167141  19.787  15.139   6.150
 8588POPC   GL267142  19.909  15.155   6.150
 8588POPC   C1A67143  19.787  15.198   6.450
 8588POPC   D2A67144  19.860  15.166   6.750
 8588POPC   C3A67145  19.828  15.214   7.050
 8588POPC   C4A67146  19.839  15.143   7.350
 8588POPC   C1B67147  20.020  15.044   6.450
 8588POPC   C2B67148  20.084  15.072   6.750
 8588POPC   C3B67149  20.078  15.057   7.050
 8588POPC   C4B67150  20.099  15.081   7.350
 8589POPC   NC367151   5.125  36.885   5.550
 8589POPC   PO467152   5.082  36.860   5.850
 8589POPC   GL167153   5.107  36.893   6.150
 8589POPC   GL267154   5.013  36.798   6.150
 8589POPC   C1A67155   5.046  36.906   6.450
 8589POPC   D2A67156   5.134  36.910   6.750
 8589POPC   C3A67157   5.096  36.919   7.050
 8589POPC   C4A67158   5.109  36.893   7.350
 8589POPC   C1B67159   4.981  36.689   6.450
 8589POPC   C2B67160   4.946  36.696   6.750
 8589POPC   C3B67161   4.907  36.692   7.050
 8589POPC   C4B67162   4.985  36.706   7.350
 8590POPC   NC367163  36.891  21.398   5.550
 8590POPC   PO467164  36.869  21.368   5.850
 8590POPC   GL167165  36.951  21.375   6.150
 8590POPC   GL267166  36.776  21.402   6.150
 8590POPC   C1A67167  36.890  21.432   6.450
 8590POPC   D2A67168  36.863  21.385   6.750
 8590POPC   C3A67169  36.919  21.393   7.050
 8590POPC   C4A67170  36.925  21.371   7.350
 8590POPC   C1B67171  36.651  21.397   6.450
 8590POPC   C2B67172  36.618  21.410   6.750
 8590POPC   C3B67173  36.704  21.450   7.050
 8590POPC   C4B67174  36.676  21.406   7.350
 8591POPC   NC367175  36.099  42.311   5.550
 8591POPC   PO467176  36.111  42.352   5.850
 8591POPC   GL167177  36.086  42.381   6.150
 8591POPC   GL267178  36.269  42.430   6.150
 8591POPC   C1A67179  36.154  42.305   6.450
 8591POPC   D2A67180  36.123  42.354   6.750
 8591POPC   C3A67181  36.092  42.295   7.050
 8591POPC   C4A67182  36.131  42.346   7.350
 8591POPC   C1B67183  36.312  42.460   6.450
 8591POPC   C2B67184  36.314  42.417   6.750
 8591POPC   C3B67185  36.372  42.485   7.050
 8591POPC   C4B67186  36.307  42.473   7.350
 8592POPC   NC367187  11.259  20.605   5.550
 8592POPC   PO467188  11.344  20.654   5.850
 8592POPC   GL167189  11.281  20.642   6.150
 8592POPC   GL267190  11.391  20.701   6.150
 8592POPC   C1A67191  11.251  20.650   6.450
 8592POPC   D2A67192  11.346  20.570   6.750
 8592POPC   C3A67193  11.286  20.574   7.050
 8592POPC   C4A67194  11.337  20.642   7.350
 8592POPC   C1B67195  11.545  20.720   6.450
 8592POPC   C2B67196  11.566  20.682   6.750
 8592POPC   C3B67197  11.507  20.710   7.050
 8592POPC   C4B67198  11.509  20.772   7.350
 8593POPC   NC367199  38.467  43.911   5.550
 8593POPC   PO467200  38.411  43.892   5.850
 8593POPC   GL167201  38.504  43.927   6.150
 8593POPC   GL267202  38.368  43.805   6.150
 8593POPC   C1A67203  38.491  43.929   6.450
 8593POPC   D2A67204  38.443  43.888   6.750
 8593POPC   C3A67205  38.486  43.838   7.050
 8593POPC   C4A67206  38.445  43.934   7.350
 8593POPC   C1B67207  38.281  43.686   6.450
 8593POPC   C2B67208  38.362  43.655   6.750
 8593POPC   C3B67209  38.302  43.652   7.050
 8593POPC   C4B67210  38.366  43.680   7.350
 8594POPC   NC367211  37.658  29.933   5.550
 8594POPC   PO467212  37.713  29.887   5.850
 8594POPC   GL167213  37.720  29.896   6.150
 8594POPC   GL267214  37.621  29.822   6.150
 8594POPC   C1A67215  37.722  29.877   6.450
 8594POPC   D2A67216  37.728  29.910   6.750
 8594POPC   C3A67217  37.655  29.877   7.050
 8594POPC   C4A67218  37.680  29.911   7.350
 8594POPC   C1B67219  37.472  29.768   6.450
 8594POPC   C2B67220  37.487  29.744   6.750
 8594POPC   C3B67221  37.490  29.753   7.050
 8594POPC   C4B67222  37.480  29.728   7.350
 8595POPC   NC367223  31.498  29.903   5.550
 8595POPC   PO467224  31.482  29.936   5.850
 8595POPC   GL167225  31.506  29.909   6.150
 8595POPC   GL267226  31.538  30.048   6.150
 8595POPC   C1A67227  31.502  29.878   6.450
 8595POPC   D2A67228  31.517  29.893   6.750
 8595POPC   C3A67229  31.466  29.876   7.050
 8595POPC   C4A67230  31.430  29.937   7.350
 8595POPC   C1B67231  31.634  30.088   6.450
 8595POPC   C2B67232  31.596  30.162   6.750
 8595POPC   C3B67233  31.633  30.098   7.050
 8595POPC   C4B67234  31.587  30.139   7.350
 8596POPC   NC367235  39.969  38.484   5.550
 8596POPC   PO467236  40.040  38.500   5.850
 8596POPC   GL167237  40.034  38.444   6.150
 8596POPC   GL267238  39.925  38.416   6.150
 8596POPC   C1A67239  40.016  38.481   6.450
 8596POPC   D2A67240  40.019  38.409   6.750
 8596POPC   C3A67241  39.997  38.494   7.050
 8596POPC   C4A67242  40.043  38.467   7.350
 8596POPC   C1B67243  39.798  38.488   6.450
 8596POPC   C2B67244  39.740  38.513   6.750
 8596POPC   C3B67245  39.750  38.475   7.050
 8596POPC   C4B67246  39.799  38.502   7.350
 8597POPC   NC367247  36.159   4.306   5.550
 8597POPC   PO467248  36.139   4.319   5.850
 8597POPC   GL167249  36.171   4.307   6.150
 8597POPC   GL267250  35.972   4.284   6.150
 8597POPC   C1A67251  36.133   4.329   6.450
 8597POPC   D2A67252  36.094   4.299   6.750
 8597POPC   C3A67253  36.090   4.295   7.050
 8597POPC   C4A67254  36.106   4.285   7.350
 8597POPC   C1B67255  35.861   4.298   6.450
 8597POPC   C2B67256  35.852   4.280   6.750
 8597POPC   C3B67257  35.905   4.368   7.050
 8597POPC   C4B67258  35.898   4.355   7.350
 8598POPC   NC367259  34.557  26.018   5.550
 8598POPC   PO467260  34.571  26.018   5.850
 8598POPC   GL167261  34.528  26.076   6.150
 8598POPC   GL267262  34.695  26.038   6.150
 8598POPC   C1A67263  34.624  26.059   6.450
 8598POPC   D2A67264  34.555  26.089   6.750
 8598POPC   C3A67265  34.600  26.000   7.050
 8598POPC   C4A67266  34.595  26.045   7.350
 8598POPC   C1B67267  34.796  25.974   6.450
 8598POPC   C2B67268  34.779  25.962   6.750
 8598POPC   C3B67269  34.822  25.943   7.050
 8598POPC   C4B67270  34.783  25.991   7.350
 8599POPC   NC367271  11.264   6.654   5.550
 8599POPC   PO467272  11.277   6.695   5.850
 8599POPC   GL167273  11.303   6.617   6.150
 8599POPC   GL267274  11.386   6.561   6.150
 8599POPC   C1A67275  11.315   6.635   6.450
 8599POPC   D2A67276  11.294   6.636   6.750
 8599POPC   C3A67277  11.281   6.678   7.050
 8599POPC   C4A67278  11.323   6.623   7.350
 8599POPC   C1B67279  11.530   6.489   6.450
 8599POPC   C2B67280  11.485   6.560   6.750
 8599POPC   C3B67281  11.558   6.540   7.050
 8599POPC   C4B67282  11.573   6.510   7.350
 8600POPC   NC367283  15.171  26.014   5.550
 8600POPC   PO467284  15.200  26.085   5.850
 8600POPC   GL167285  15.189  26.012   6.150
 8600POPC   GL267286  15.314  26.057   6.150
 8600POPC   C1A67287  15.223  26.006   6.450
 8600POPC   D2A67288  15.207  26.071   6.750
 8600POPC   C3A67289  15.199  26.039   7.050
 8600POPC   C4A67290  15.146  25.997   7.350
 8600POPC   C1B67291  15.399  26.196   6.450
 8600POPC   C2B67292  15.396  26.163   6.750
 8600POPC   C3B67293  15.348  26.132   7.050
 8600POPC   C4B67294  15.436  26.181   7.350
 8601POPC   NC367295  39.981  15.174   5.550
 8601POPC   PO467296  40.049  15.226   5.850
 8601POPC   GL167297  40.054  15.156   6.150
 8601POPC   GL267298  40.075  15.274   6.150
 8601POPC   C1A67299  39.963  15.181   6.450
 8601POPC   D2A67300  40.048  15.178   6.750
 8601POPC   C3A67301  40.033  15.164   7.050
 8601POPC   C4A67302  40.019  15.194   7.350
 8601POPC   C1B67303  40.168  15.428   6.450
 8601POPC   C2B67304  40.175  15.436   6.750
 8601POPC   C3B67305  40.116  15.434   7.050
 8601POPC   C4B67306  40.136  15.356   7.350
 8602POPC   NC367307  22.135   6.627   5.550
 8602POPC   PO467308  22.187   6.641   5.850
 8602POPC   GL167309  22.120   6.657   6.150
 8602POPC   GL267310  22.123   6.793   6.150
 8602POPC   C1A67311  22.132   6.625   6.450
 8602POPC   D2A67312  22.203   6.605   6.750
 8602POPC   C3A67313  22.134   6.660   7.050
 8602POPC   C4A67314  22.118   6.618   7.350
 8602POPC   C1B67315  22.085   6.924   6.450
 8602POPC   C2B67316  22.050   6.864   6.750
 8602POPC   C3B67317  22.059   6.837   7.050
 8602POPC   C4B67318  22.110   6.880   7.350
 8603POPC   NC367319  33.825  33.792   5.550
 8603POPC   PO467320  33.833  33.785   5.850
 8603POPC   GL167321  33.785  33.798   6.150
 8603POPC   GL267322  33.942  33.701   6.150
 8603POPC   C1A67323  33.790  33.809   6.450
 8603POPC   D2A67324  33.780  33.762   6.750
 8603POPC   C3A67325  33.827  33.794   7.050
 8603POPC   C4A67326  33.755  33.811   7.350
 8603POPC   C1B67327  33.985  33.655   6.450
 8603POPC   C2B67328  33.969  33.699   6.750
 8603POPC   C3B67329  33.999  33.639   7.050
 8603POPC   C4B67330  34.026  33.702   7.350
 8604POPC   NC367331  26.033   0.469   5.550
 8604POPC   PO467332  26.018   0.444   5.850
 8604POPC   GL167333  25.997   0.428   6.150
 8604POPC   GL267334  26.052   0.586   6.150
 8604POPC   C1A67335  26.028   0.397   6.450
 8604POPC   D2A67336  25.994   0.440   6.750
 8604POPC   C3A67337  26.071   0.413   7.050
 8604POPC   C4A67338  26.086   0.481   7.350
 8604POPC   C1B67339  26.011   0.728   6.450
 8604POPC   C2B67340  26.040   0.683   6.750
 8604POPC   C3B67341  26.025   0.643   7.050
 8604POPC   C4B67342  26.000   0.680   7.350
 8605POPC   NC367343   1.259  27.629   5.550
 8605POPC   PO467344   1.259  27.571   5.850
 8605POPC   GL167345   1.233  27.592   6.150
 8605POPC   GL267346   1.066  27.542   6.150
 8605POPC   C1A67347   1.181  27.582   6.450
 8605POPC   D2A67348   1.170  27.641   6.750
 8605POPC   C3A67349   1.217  27.606   7.050
 8605POPC   C4A67350   1.235  27.631   7.350
 8605POPC   C1B67351   0.964  27.413   6.450
 8605POPC   C2B67352   1.002  27.425   6.750
 8605POPC   C3B67353   0.992  27.425   7.050
 8605POPC   C4B67354   1.013  27.415   7.350
 8606POPC   NC367355   8.938  43.119   5.550
 8606POPC   PO467356   8.928  43.073   5.850
 8606POPC   GL167357   8.926  43.159   6.150
 8606POPC   GL267358   9.003  43.005   6.150
 8606POPC   C1A67359   8.936  43.131   6.450
 8606POPC   D2A67360   8.990  43.128   6.750
 8606POPC   C3A67361   8.927  43.130   7.050
 8606POPC   C4A67362   8.927  43.095   7.350
 8606POPC   C1B67363   9.073  42.888   6.450
 8606POPC   C2B67364   9.083  42.904   6.750
 8606POPC   C3B67365   9.048  42.874   7.050
 8606POPC   C4B67366   9.074  42.860   7.350
 8607POPC   NC367367  24.482  36.138   5.550
 8607POPC   PO467368  24.489  36.174   5.850
 8607POPC   GL167369  24.441  36.116   6.150
 8607POPC   GL267370  24.400  36.199   6.150
 8607POPC   C1A67371  24.472  36.106   6.450
 8607POPC   D2A67372  24.499  36.148   6.750
 8607POPC   C3A67373  24.477  36.101   7.050
 8607POPC   C4A67374  24.525  36.160   7.350
 8607POPC   C1B67375  24.350  36.282   6.450
 8607POPC   C2B67376  24.314  36.302   6.750
 8607POPC   C3B67377  24.282  36.329   7.050
 8607POPC   C4B67378  24.379  36.320   7.350
 8608POPC   NC367379  28.365   1.209   5.550
 8608POPC   PO467380  28.320   1.184   5.850
 8608POPC   GL167381  28.399   1.179   6.150
 8608POPC   GL267382  28.527   1.275   6.150
 8608POPC   C1A67383  28.334   1.237   6.450
 8608POPC   D2A67384  28.337   1.248   6.750
 8608POPC   C3A67385  28.412   1.169   7.050
 8608POPC   C4A67386  28.394   1.171   7.350
 8608POPC   C1B67387  28.633   1.289   6.450
 8608POPC   C2B67388  28.568   1.259   6.750
 8608POPC   C3B67389  28.651   1.239   7.050
 8608POPC   C4B67390  28.622   1.223   7.350
 8609POPC   NC367391  39.984   4.284   5.550
 8609POPC   PO467392  39.971   4.332   5.850
 8609POPC   GL167393  39.994   4.350   6.150
 8609POPC   GL267394  40.073   4.214   6.150
 8609POPC   C1A67395  39.974   4.281   6.450
 8609POPC   D2A67396  39.995   4.333   6.750
 8609POPC   C3A67397  39.984   4.324   7.050
 8609POPC   C4A67398  40.056   4.329   7.350
 8609POPC   C1B67399  40.204   4.248   6.450
 8609POPC   C2B67400  40.243   4.176   6.750
 8609POPC   C3B67401  40.184   4.175   7.050
 8609POPC   C4B67402  40.223   4.240   7.350
 8610POPC   NC367403   8.950  26.814   5.550
 8610POPC   PO467404   9.010  26.853   5.850
 8610POPC   GL167405   8.924  26.849   6.150
 8610POPC   GL267406   9.033  26.861   6.150
 8610POPC   C1A67407   8.945  26.813   6.450
 8610POPC   D2A67408   8.961  26.777   6.750
 8610POPC   C3A67409   8.930  26.788   7.050
 8610POPC   C4A67410   8.999  26.816   7.350
 8610POPC   C1B67411   9.207  27.022   6.450
 8610POPC   C2B67412   9.165  27.017   6.750
 8610POPC   C3B67413   9.177  26.936   7.050
 8610POPC   C4B67414   9.174  26.966   7.350
 8611POPC   NC367415  26.823  22.169   5.550
 8611POPC   PO467416  26.856  22.139   5.850
 8611POPC   GL167417  26.850  22.195   6.150
 8611POPC   GL267418  26.760  22.063   6.150
 8611POPC   C1A67419  26.862  22.122   6.450
 8611POPC   D2A67420  26.822  22.123   6.750
 8611POPC   C3A67421  26.844  22.148   7.050
 8611POPC   C4A67422  26.835  22.189   7.350
 8611POPC   C1B67423  26.794  21.943   6.450
 8611POPC   C2B67424  26.831  21.867   6.750
 8611POPC   C3B67425  26.819  21.956   7.050
 8611POPC   C4B67426  26.787  21.876   7.350
 8612POPC   NC367427   8.933   7.417   5.550
 8612POPC   PO467428   8.971   7.392   5.850
 8612POPC   GL167429   8.940   7.406   6.150
 8612POPC   GL267430   8.871   7.442   6.150
 8612POPC   C1A67431   8.960   7.446   6.450
 8612POPC   D2A67432   8.923   7.383   6.750
 8612POPC   C3A67433   8.929   7.439   7.050
 8612POPC   C4A67434   8.987   7.376   7.350
 8612POPC   C1B67435   8.796   7.516   6.450
 8612POPC   C2B67436   8.744   7.586   6.750
 8612POPC   C3B67437   8.791   7.574   7.050
 8612POPC   C4B67438   8.774   7.505   7.350
 8613POPC   NC367439  28.396  36.906   5.550
 8613POPC   PO467440  28.339  36.901   5.850
 8613POPC   GL167441  28.390  36.868   6.150
 8613POPC   GL267442  28.362  36.760   6.150
 8613POPC   C1A67443  28.419  36.936   6.450
 8613POPC   D2A67444  28.417  36.952   6.750
 8613POPC   C3A67445  28.378  36.947   7.050
 8613POPC   C4A67446  28.408  36.953   7.350
 8613POPC   C1B67447  28.420  36.657   6.450
 8613POPC   C2B67448  28.482  36.649   6.750
 8613POPC   C3B67449  28.419  36.689   7.050
 8613POPC   C4B67450  28.472  36.667   7.350
 8614POPC   NC367451  16.763   3.564   5.550
 8614POPC   PO467452  16.711   3.580   5.850
 8614POPC   GL167453  16.710   3.515   6.150
 8614POPC   GL267454  16.733   3.430   6.150
 8614POPC   C1A67455  16.711   3.531   6.450
 8614POPC   D2A67456  16.700   3.528   6.750
 8614POPC   C3A67457  16.704   3.518   7.050
 8614POPC   C4A67458  16.721   3.517   7.350
 8614POPC   C1B67459  16.630   3.296   6.450
 8614POPC   C2B67460  16.656   3.286   6.750
 8614POPC   C3B67461  16.634   3.279   7.050
 8614POPC   C4B67462  16.612   3.268   7.350
 8615POPC   NC367463   0.458  32.248   5.550
 8615POPC   PO467464   0.437  32.292   5.850
 8615POPC   GL167465   0.433  32.235   6.150
 8615POPC   GL267466   0.419  32.409   6.150
 8615POPC   C1A67467   0.431  32.203   6.450
 8615POPC   D2A67468   0.452  32.214   6.750
 8615POPC   C3A67469   0.461  32.208   7.050
 8615POPC   C4A67470   0.479  32.231   7.350
 8615POPC   C1B67471   0.410  32.451   6.450
 8615POPC   C2B67472   0.378  32.476   6.750
 8615POPC   C3B67473   0.414  32.544   7.050
 8615POPC   C4B67474   0.397  32.491   7.350
 8616POPC   NC367475  37.643  28.417   5.550
 8616POPC   PO467476  37.637  28.414   5.850
 8616POPC   GL167477  37.713  28.351   6.150
 8616POPC   GL267478  37.817  28.392   6.150
 8616POPC   C1A67479  37.677  28.391   6.450
 8616POPC   D2A67480  37.636  28.369   6.750
 8616POPC   C3A67481  37.662  28.374   7.050
 8616POPC   C4A67482  37.728  28.351   7.350
 8616POPC   C1B67483  37.915  28.296   6.450
 8616POPC   C2B67484  37.971  28.296   6.750
 8616POPC   C3B67485  37.948  28.373   7.050
 8616POPC   C4B67486  37.904  28.373   7.350
 8617POPC   NC367487  38.488  18.263   5.550
 8617POPC   PO467488  38.493  18.241   5.850
 8617POPC   GL167489  38.432  18.332   6.150
 8617POPC   GL267490  38.539  18.200   6.150
 8617POPC   C1A67491  38.480  18.258   6.450
 8617POPC   D2A67492  38.417  18.327   6.750
 8617POPC   C3A67493  38.469  18.264   7.050
 8617POPC   C4A67494  38.464  18.238   7.350
 8617POPC   C1B67495  38.675  18.155   6.450
 8617POPC   C2B67496  38.656  18.086   6.750
 8617POPC   C3B67497  38.621  18.078   7.050
 8617POPC   C4B67498  38.636  18.071   7.350
 8618POPC   NC367499   9.001  20.608   5.550
 8618POPC   PO467500   8.986  20.637   5.850
 8618POPC   GL167501   9.017  20.634   6.150
 8618POPC   GL267502   9.022  20.715   6.150
 8618POPC   C1A67503   9.019  20.639   6.450
 8618POPC   D2A67504   8.924  20.602   6.750
 8618POPC   C3A67505   8.937  20.599   7.050
 8618POPC   C4A67506   8.928  20.625   7.350
 8618POPC   C1B67507   9.185  20.739   6.450
 8618POPC   C2B67508   9.121  20.814   6.750
 8618POPC   C3B67509   9.159  20.764   7.050
 8618POPC   C4B67510   9.173  20.771   7.350
 8619POPC   NC367511  36.946  25.245   5.550
 8619POPC   PO467512  36.881  25.293   5.850
 8619POPC   GL167513  36.879  25.246   6.150
 8619POPC   GL267514  37.037  25.286   6.150
 8619POPC   C1A67515  36.953  25.263   6.450
 8619POPC   D2A67516  36.937  25.289   6.750
 8619POPC   C3A67517  36.867  25.268   7.050
 8619POPC   C4A67518  36.879  25.277   7.350
 8619POPC   C1B67519  37.154  25.298   6.450
 8619POPC   C2B67520  37.125  25.278   6.750
 8619POPC   C3B67521  37.171  25.276   7.050
 8619POPC   C4B67522  37.165  25.327   7.350
 8620POPC   NC367523   7.464  11.327   5.550
 8620POPC   PO467524   7.394  11.284   5.850
 8620POPC   GL167525   7.391  11.283   6.150
 8620POPC   GL267526   7.363  11.367   6.150
 8620POPC   C1A67527   7.466  11.274   6.450
 8620POPC   D2A67528   7.463  11.261   6.750
 8620POPC   C3A67529   7.442  11.349   7.050
 8620POPC   C4A67530   7.457  11.276   7.350
 8620POPC   C1B67531   7.289  11.480   6.450
 8620POPC   C2B67532   7.349  11.564   6.750
 8620POPC   C3B67533   7.307  11.564   7.050
 8620POPC   C4B67534   7.307  11.515   7.350
 8621POPC   NC367535  36.931  12.117   5.550
 8621POPC   PO467536  36.900  12.110   5.850
 8621POPC   GL167537  36.873  12.070   6.150
 8621POPC   GL267538  36.899  12.158   6.150
 8621POPC   C1A67539  36.934  12.027   6.450
 8621POPC   D2A67540  36.910  12.113   6.750
 8621POPC   C3A67541  36.941  12.109   7.050
 8621POPC   C4A67542  36.945  12.067   7.350
 8621POPC   C1B67543  36.837  12.356   6.450
 8621POPC   C2B67544  36.794  12.281   6.750
 8621POPC   C3B67545  36.851  12.304   7.050
 8621POPC   C4B67546  36.824  12.363   7.350
 8622POPC   NC367547  40.827  22.923   5.550
 8622POPC   PO467548  40.780  22.926   5.850
 8622POPC   GL167549  40.831  22.893   6.150
 8622POPC   GL267550  40.767  22.832   6.150
 8622POPC   C1A67551  40.822  22.954   6.450
 8622POPC   D2A67552  40.817  22.900   6.750
 8622POPC   C3A67553  40.768  22.965   7.050
 8622POPC   C4A67554  40.749  22.892   7.350
 8622POPC   C1B67555  40.824  22.710   6.450
 8622POPC   C2B67556  40.774  22.703   6.750
 8622POPC   C3B67557  40.815  22.657   7.050
 8622POPC   C4B67558  40.836  22.693   7.350
 8623POPC   NC367559  26.045  43.892   5.550
 8623POPC   PO467560  26.082  43.844   5.850
 8623POPC   GL167561  26.046  43.878   6.150
 8623POPC   GL267562  26.075  43.744   6.150
 8623POPC   C1A67563  26.067  43.846   6.450
 8623POPC   D2A67564  26.076  43.860   6.750
 8623POPC   C3A67565  26.016  43.840   7.050
 8623POPC   C4A67566  26.063  43.898   7.350
 8623POPC   C1B67567  26.203  43.693   6.450
 8623POPC   C2B67568  26.164  43.704   6.750
 8623POPC   C3B67569  26.246  43.733   7.050
 8623POPC   C4B67570  26.240  43.674   7.350
 8624POPC   NC367571  12.813   6.687   5.550
 8624POPC   PO467572  12.815   6.597   5.850
 8624POPC   GL167573  12.878   6.692   6.150
 8624POPC   GL267574  12.841   6.496   6.150
 8624POPC   C1A67575  12.815   6.661   6.450
 8624POPC   D2A67576  12.817   6.665   6.750
 8624POPC   C3A67577  12.881   6.610   7.050
 8624POPC   C4A67578  12.866   6.606   7.350
 8624POPC   C1B67579  12.740   6.453   6.450
 8624POPC   C2B67580  12.769   6.376   6.750
 8624POPC   C3B67581  12.761   6.362   7.050
 8624POPC   C4B67582  12.770   6.388   7.350
 8625POPC   NC367583   1.253  36.090   5.550
 8625POPC   PO467584   1.197  36.140   5.850
 8625POPC   GL167585   1.212  36.161   6.150
 8625POPC   GL267586   1.249  35.981   6.150
 8625POPC   C1A67587   1.244  36.119   6.450
 8625POPC   D2A67588   1.185  36.104   6.750
 8625POPC   C3A67589   1.227  36.135   7.050
 8625POPC   C4A67590   1.215  36.114   7.350
 8625POPC   C1B67591   1.295  35.946   6.450
 8625POPC   C2B67592   1.334  35.904   6.750
 8625POPC   C3B67593   1.385  35.872   7.050
 8625POPC   C4B67594   1.354  35.907   7.350
 8626POPC   NC367595  23.680   8.226   5.550
 8626POPC   PO467596  23.681   8.223   5.850
 8626POPC   GL167597  23.709   8.149   6.150
 8626POPC   GL267598  23.780   8.155   6.150
 8626POPC   C1A67599  23.757   8.225   6.450
 8626POPC   D2A67600  23.745   8.205   6.750
 8626POPC   C3A67601  23.740   8.194   7.050
 8626POPC   C4A67602  23.703   8.206   7.350
 8626POPC   C1B67603  23.911   8.088   6.450
 8626POPC   C2B67604  23.900   8.106   6.750
 8626POPC   C3B67605  23.973   8.062   7.050
 8626POPC   C4B67606  23.900   8.116   7.350
 8627POPC   NC367607  35.389  33.776   5.550
 8627POPC   PO467608  35.359  33.824   5.850
 8627POPC   GL167609  35.354  33.758   6.150
 8627POPC   GL267610  35.245  33.921   6.150
 8627POPC   C1A67611  35.386  33.786   6.450
 8627POPC   D2A67612  35.394  33.779   6.750
 8627POPC   C3A67613  35.322  33.761   7.050
 8627POPC   C4A67614  35.311  33.824   7.350
 8627POPC   C1B67615  35.208  33.950   6.450
 8627POPC   C2B67616  35.182  34.004   6.750
 8627POPC   C3B67617  35.124  33.986   7.050
 8627POPC   C4B67618  35.129  33.921   7.350
 8628POPC   NC367619  32.247   2.761   5.550
 8628POPC   PO467620  32.255   2.721   5.850
 8628POPC   GL167621  32.261   2.739   6.150
 8628POPC   GL267622  32.349   2.618   6.150
 8628POPC   C1A67623  32.221   2.734   6.450
 8628POPC   D2A67624  32.259   2.779   6.750
 8628POPC   C3A67625  32.294   2.722   7.050
 8628POPC   C4A67626  32.202   2.752   7.350
 8628POPC   C1B67627  32.354   2.599   6.450
 8628POPC   C2B67628  32.350   2.578   6.750
 8628POPC   C3B67629  32.406   2.560   7.050
 8628POPC   C4B67630  32.400   2.596   7.350
 8629POPC   NC367631   2.031  27.635   5.550
 8629POPC   PO467632   1.977  27.612   5.850
 8629POPC   GL167633   1.983  27.580   6.150
 8629POPC   GL267634   2.038  27.476   6.150
 8629POPC   C1A67635   1.993  27.567   6.450
 8629POPC   D2A67636   1.963  27.557   6.750
 8629POPC   C3A67637   2.032  27.581   7.050
 8629POPC   C4A67638   2.014  27.624   7.350
 8629POPC   C1B67639   1.993  27.339   6.450
 8629POPC   C2B67640   2.000  27.373   6.750
 8629POPC   C3B67641   2.045  27.384   7.050
 8629POPC   C4B67642   2.074  27.367   7.350
 8630POPC   NC367643  17.537  26.837   5.550
 8630POPC   PO467644  17.547  26.836   5.850
 8630POPC   GL167645  17.546  26.800   6.150
 8630POPC   GL267646  17.638  26.869   6.150
 8630POPC   C1A67647  17.525  26.833   6.450
 8630POPC   D2A67648  17.459  26.816   6.750
 8630POPC   C3A67649  17.467  26.820   7.050
 8630POPC   C4A67650  17.458  26.839   7.350
 8630POPC   C1B67651  17.747  26.954   6.450
 8630POPC   C2B67652  17.725  26.935   6.750
 8630POPC   C3B67653  17.764  26.953   7.050
 8630POPC   C4B67654  17.691  26.925   7.350
 8631POPC   NC367655  25.266  10.520   5.550
 8631POPC   PO467656  25.233  10.557   5.850
 8631POPC   GL167657  25.257  10.509   6.150
 8631POPC   GL267658  25.248  10.687   6.150
 8631POPC   C1A67659  25.245  10.553   6.450
 8631POPC   D2A67660  25.269  10.514   6.750
 8631POPC   C3A67661  25.305  10.485   7.050
 8631POPC   C4A67662  25.268  10.573   7.350
 8631POPC   C1B67663  25.262  10.799   6.450
 8631POPC   C2B67664  25.241  10.779   6.750
 8631POPC   C3B67665  25.320  10.803   7.050
 8631POPC   C4B67666  25.325  10.806   7.350
 8632POPC   NC367667  36.169  17.493   5.550
 8632POPC   PO467668  36.097  17.487   5.850
 8632POPC   GL167669  36.128  17.459   6.150
 8632POPC   GL267670  36.040  17.599   6.150
 8632POPC   C1A67671  36.082  17.525   6.450
 8632POPC   D2A67672  36.107  17.524   6.750
 8632POPC   C3A67673  36.172  17.478   7.050
 8632POPC   C4A67674  36.115  17.522   7.350
 8632POPC   C1B67675  35.939  17.716   6.450
 8632POPC   C2B67676  35.913  17.733   6.750
 8632POPC   C3B67677  35.959  17.723   7.050
 8632POPC   C4B67678  35.998  17.675   7.350
 8633POPC   NC367679  33.815   8.229   5.550
 8633POPC   PO467680  33.777   8.178   5.850
 8633POPC   GL167681  33.764   8.151   6.150
 8633POPC   GL267682  33.898   8.073   6.150
 8633POPC   C1A67683  33.834   8.222   6.450
 8633POPC   D2A67684  33.823   8.208   6.750
 8633POPC   C3A67685  33.777   8.193   7.050
 8633POPC   C4A67686  33.772   8.196   7.350
 8633POPC   C1B67687  33.974   8.008   6.450
 8633POPC   C2B67688  33.990   8.005   6.750
 8633POPC   C3B67689  33.938   8.061   7.050
 8633POPC   C4B67690  34.033   8.008   7.350
 8634POPC   NC367691  27.543   9.781   5.550
 8634POPC   PO467692  27.582   9.716   5.850
 8634POPC   GL167693  27.627   9.771   6.150
 8634POPC   GL267694  27.655   9.763   6.150
 8634POPC   C1A67695  27.618   9.715   6.450
 8634POPC   D2A67696  27.602   9.708   6.750
 8634POPC   C3A67697  27.576   9.706   7.050
 8634POPC   C4A67698  27.618   9.781   7.350
 8634POPC   C1B67699  27.778   9.914   6.450
 8634POPC   C2B67700  27.860   9.904   6.750
 8634POPC   C3B67701  27.816   9.893   7.050
 8634POPC   C4B67702  27.783   9.887   7.350
 8635POPC   NC367703  29.957  14.451   5.550
 8635POPC   PO467704  29.943  14.393   5.850
 8635POPC   GL167705  29.923  14.412   6.150
 8635POPC   GL267706  29.858  14.490   6.150
 8635POPC   C1A67707  29.932  14.436   6.450
 8635POPC   D2A67708  29.929  14.406   6.750
 8635POPC   C3A67709  29.885  14.433   7.050
 8635POPC   C4A67710  29.872  14.386   7.350
 8635POPC   C1B67711  29.914  14.632   6.450
 8635POPC   C2B67712  29.904  14.684   6.750
 8635POPC   C3B67713  29.882  14.629   7.050
 8635POPC   C4B67714  29.889  14.661   7.350
 8636POPC   NC367715  25.222  21.393   5.550
 8636POPC   PO467716  25.248  21.417   5.850
 8636POPC   GL167717  25.263  21.339   6.150
 8636POPC   GL267718  25.344  21.348   6.150
 8636POPC   C1A67719  25.273  21.428   6.450
 8636POPC   D2A67720  25.290  21.432   6.750
 8636POPC   C3A67721  25.285  21.430   7.050
 8636POPC   C4A67722  25.303  21.427   7.350
 8636POPC   C1B67723  25.458  21.247   6.450
 8636POPC   C2B67724  25.421  21.202   6.750
 8636POPC   C3B67725  25.496  21.244   7.050
 8636POPC   C4B67726  25.487  21.234   7.350
 8637POPC   NC367727  14.449  44.644   5.550
 8637POPC   PO467728  14.410  44.667   5.850
 8637POPC   GL167729  14.392  44.701   6.150
 8637POPC   GL267730  14.487  44.762   6.150
 8637POPC   C1A67731  14.421  44.700   6.450
 8637POPC   D2A67732  14.359  44.675   6.750
 8637POPC   C3A67733  14.431  44.708   7.050
 8637POPC   C4A67734  14.418  44.630   7.350
 8637POPC   C1B67735  14.535  44.844   6.450
 8637POPC   C2B67736  14.555  44.843   6.750
 8637POPC   C3B67737  14.522  44.831   7.050
 8637POPC   C4B67738  14.564  44.830   7.350
 8638POPC   NC367739  29.884  12.051   5.550
 8638POPC   PO467740  29.887  12.051   5.850
 8638POPC   GL167741  29.955  12.034   6.150
 8638POPC   GL267742  29.821  11.977   6.150
 8638POPC   C1A67743  29.952  12.054   6.450
 8638POPC   D2A67744  29.947  12.100   6.750
 8638POPC   C3A67745  29.965  12.125   7.050
 8638POPC   C4A67746  29.872  12.116   7.350
 8638POPC   C1B67747  29.812  11.836   6.450
 8638POPC   C2B67748  29.745  11.820   6.750
 8638POPC   C3B67749  29.811  11.907   7.050
 8638POPC   C4B67750  29.789  11.820   7.350
 8639POPC   NC367751   7.463   2.015   5.550
 8639POPC   PO467752   7.392   1.982   5.850
 8639POPC   GL167753   7.422   2.013   6.150
 8639POPC   GL267754   7.355   2.131   6.150
 8639POPC   C1A67755   7.390   2.008   6.450
 8639POPC   D2A67756   7.421   2.027   6.750
 8639POPC   C3A67757   7.388   1.991   7.050
 8639POPC   C4A67758   7.387   1.981   7.350
 8639POPC   C1B67759   7.359   2.259   6.450
 8639POPC   C2B67760   7.377   2.200   6.750
 8639POPC   C3B67761   7.335   2.285   7.050
 8639POPC   C4B67762   7.414   2.235   7.350
 8640POPC   NC367763  34.604  10.572   5.550
 8640POPC   PO467764  34.550  10.512   5.850
 8640POPC   GL167765  34.593  10.496   6.150
 8640POPC   GL267766  34.646  10.596   6.150
 8640POPC   C1A67767  34.609  10.511   6.450
 8640POPC   D2A67768  34.557  10.564   6.750
 8640POPC   C3A67769  34.614  10.516   7.050
 8640POPC   C4A67770  34.608  10.522   7.350
 8640POPC   C1B67771  34.676  10.775   6.450
 8640POPC   C2B67772  34.677  10.751   6.750
 8640POPC   C3B67773  34.711  10.766   7.050
 8640POPC   C4B67774  34.750  10.784   7.350
 8641POPC   NC367775  10.483  22.173   5.550
 8641POPC   PO467776  10.518  22.189   5.850
 8641POPC   GL167777  10.507  22.171   6.150
 8641POPC   GL267778  10.385  22.082   6.150
 8641POPC   C1A67779  10.542  22.152   6.450
 8641POPC   D2A67780  10.504  22.146   6.750
 8641POPC   C3A67781  10.504  22.174   7.050
 8641POPC   C4A67782  10.483  22.116   7.350
 8641POPC   C1B67783  10.249  22.096   6.450
 8641POPC   C2B67784  10.267  22.075   6.750
 8641POPC   C3B67785  10.241  22.048   7.050
 8641POPC   C4B67786  10.290  22.048   7.350
 8642POPC   NC367787   4.328  37.728   5.550
 8642POPC   PO467788   4.324  37.662   5.850
 8642POPC   GL167789   4.363  37.655   6.150
 8642POPC   GL267790   4.254  37.599   6.150
 8642POPC   C1A67791   4.366  37.712   6.450
 8642POPC   D2A67792   4.356  37.728   6.750
 8642POPC   C3A67793   4.300  37.629   7.050
 8642POPC   C4A67794   4.313  37.698   7.350
 8642POPC   C1B67795   4.183  37.467   6.450
 8642POPC   C2B67796   4.158  37.430   6.750
 8642POPC   C3B67797   4.202  37.490   7.050
 8642POPC   C4B67798   4.138  37.502   7.350
 8643POPC   NC367799  15.196   8.189   5.550
 8643POPC   PO467800  15.209   8.159   5.850
 8643POPC   GL167801  15.172   8.180   6.150
 8643POPC   GL267802  15.178   8.365   6.150
 8643POPC   C1A67803  15.228   8.243   6.450
 8643POPC   D2A67804  15.201   8.218   6.750
 8643POPC   C3A67805  15.148   8.242   7.050
 8643POPC   C4A67806  15.204   8.162   7.350
 8643POPC   C1B67807  15.122   8.396   6.450
 8643POPC   C2B67808  15.065   8.419   6.750
 8643POPC   C3B67809  15.135   8.425   7.050
 8643POPC   C4B67810  15.101   8.419   7.350
 8644POPC   NC367811  19.826  19.074   5.550
 8644POPC   PO467812  19.841  19.079   5.850
 8644POPC   GL167813  19.842  19.100   6.150
 8644POPC   GL267814  19.804  19.202   6.150
 8644POPC   C1A67815  19.810  19.055   6.450
 8644POPC   D2A67816  19.852  19.070   6.750
 8644POPC   C3A67817  19.788  19.039   7.050
 8644POPC   C4A67818  19.862  19.077   7.350
 8644POPC   C1B67819  19.718  19.288   6.450
 8644POPC   C2B67820  19.744  19.279   6.750
 8644POPC   C3B67821  19.713  19.341   7.050
 8644POPC   C4B67822  19.741  19.304   7.350
 8645POPC   NC367823   3.571   1.262   5.550
 8645POPC   PO467824   3.581   1.173   5.850
 8645POPC   GL167825   3.544   1.261   6.150
 8645POPC   GL267826   3.564   1.361   6.150
 8645POPC   C1A67827   3.564   1.249   6.450
 8645POPC   D2A67828   3.582   1.222   6.750
 8645POPC   C3A67829   3.535   1.194   7.050
 8645POPC   C4A67830   3.518   1.235   7.350
 8645POPC   C1B67831   3.546   1.433   6.450
 8645POPC   C2B67832   3.502   1.489   6.750
 8645POPC   C3B67833   3.518   1.440   7.050
 8645POPC   C4B67834   3.552   1.420   7.350
 8646POPC   NC367835  36.080  14.367   5.550
 8646POPC   PO467836  36.154  14.359   5.850
 8646POPC   GL167837  36.084  14.442   6.150
 8646POPC   GL267838  36.099  14.281   6.150
 8646POPC   C1A67839  36.111  14.409   6.450
 8646POPC   D2A67840  36.136  14.419   6.750
 8646POPC   C3A67841  36.102  14.358   7.050
 8646POPC   C4A67842  36.078  14.404   7.350
 8646POPC   C1B67843  36.141  14.135   6.450
 8646POPC   C2B67844  36.146  14.144   6.750
 8646POPC   C3B67845  36.089  14.145   7.050
 8646POPC   C4B67846  36.082  14.133   7.350
 8647POPC   NC367847   9.710   4.282   5.550
 8647POPC   PO467848   9.786   4.335   5.850
 8647POPC   GL167849   9.737   4.323   6.150
 8647POPC   GL267850   9.718   4.155   6.150
 8647POPC   C1A67851   9.724   4.269   6.450
 8647POPC   D2A67852   9.728   4.333   6.750
 8647POPC   C3A67853   9.722   4.324   7.050
 8647POPC   C4A67854   9.772   4.287   7.350
 8647POPC   C1B67855   9.659   4.092   6.450
 8647POPC   C2B67856   9.673   4.118   6.750
 8647POPC   C3B67857   9.672   4.114   7.050
 8647POPC   C4B67858   9.696   4.090   7.350
 8648POPC   NC367859  29.911  19.841   5.550
 8648POPC   PO467860  29.938  19.865   5.850
 8648POPC   GL167861  29.927  19.831   6.150
 8648POPC   GL267862  30.035  19.730   6.150
 8648POPC   C1A67863  29.896  19.865   6.450
 8648POPC   D2A67864  29.942  19.814   6.750
 8648POPC   C3A67865  29.952  19.855   7.050
 8648POPC   C4A67866  29.935  19.850   7.350
 8648POPC   C1B67867  30.084  19.647   6.450
 8648POPC   C2B67868  30.081  19.658   6.750
 8648POPC   C3B67869  30.121  19.633   7.050
 8648POPC   C4B67870  30.085  19.660   7.350
 8649POPC   NC367871  30.710  35.365   5.550
 8649POPC   PO467872  30.720  35.334   5.850
 8649POPC   GL167873  30.707  35.328   6.150
 8649POPC   GL267874  30.810  35.396   6.150
 8649POPC   C1A67875  30.651  35.311   6.450
 8649POPC   D2A67876  30.667  35.369   6.750
 8649POPC   C3A67877  30.711  35.386   7.050
 8649POPC   C4A67878  30.723  35.322   7.350
 8649POPC   C1B67879  30.864  35.526   6.450
 8649POPC   C2B67880  30.868  35.560   6.750
 8649POPC   C3B67881  30.836  35.544   7.050
 8649POPC   C4B67882  30.903  35.510   7.350
 8650POPC   NC367883  29.139   3.514   5.550
 8650POPC   PO467884  29.156   3.531   5.850
 8650POPC   GL167885  29.161   3.574   6.150
 8650POPC   GL267886  29.053   3.384   6.150
 8650POPC   C1A67887  29.121   3.517   6.450
 8650POPC   D2A67888  29.168   3.560   6.750
 8650POPC   C3A67889  29.105   3.505   7.050
 8650POPC   C4A67890  29.099   3.543   7.350
 8650POPC   C1B67891  29.006   3.305   6.450
 8650POPC   C2B67892  29.022   3.348   6.750
 8650POPC   C3B67893  29.022   3.282   7.050
 8650POPC   C4B67894  29.039   3.291   7.350
 8651POPC   NC367895  30.712  24.443   5.550
 8651POPC   PO467896  30.650  24.479   5.850
 8651POPC   GL167897  30.650  24.506   6.150
 8651POPC   GL267898  30.601  24.480   6.150
 8651POPC   C1A67899  30.677  24.482   6.450
 8651POPC   D2A67900  30.648  24.443   6.750
 8651POPC   C3A67901  30.719  24.440   7.050
 8651POPC   C4A67902  30.709  24.529   7.350
 8651POPC   C1B67903  30.459  24.465   6.450
 8651POPC   C2B67904  30.413  24.522   6.750
 8651POPC   C3B67905  30.399  24.506   7.050
 8651POPC   C4B67906  30.425  24.464   7.350
 8652POPC   NC367907  18.285  22.162   5.550
 8652POPC   PO467908  18.251  22.175   5.850
 8652POPC   GL167909  18.248  22.165   6.150
 8652POPC   GL267910  18.221  22.071   6.150
 8652POPC   C1A67911  18.310  22.195   6.450
 8652POPC   D2A67912  18.287  22.195   6.750
 8652POPC   C3A67913  18.255  22.158   7.050
 8652POPC   C4A67914  18.316  22.202   7.350
 8652POPC   C1B67915  18.134  21.962   6.450
 8652POPC   C2B67916  18.126  21.921   6.750
 8652POPC   C3B67917  18.149  21.920   7.050
 8652POPC   C4B67918  18.158  21.974   7.350
 8653POPC   NC367919  36.901  39.208   5.550
 8653POPC   PO467920  36.870  39.184   5.850
 8653POPC   GL167921  36.937  39.190   6.150
 8653POPC   GL267922  36.812  39.318   6.150
 8653POPC   C1A67923  36.871  39.277   6.450
 8653POPC   D2A67924  36.894  39.227   6.750
 8653POPC   C3A67925  36.951  39.182   7.050
 8653POPC   C4A67926  36.934  39.216   7.350
 8653POPC   C1B67927  36.800  39.464   6.450
 8653POPC   C2B67928  36.805  39.439   6.750
 8653POPC   C3B67929  36.795  39.391   7.050
 8653POPC   C4B67930  36.733  39.416   7.350
 8654POPC   NC367931  22.966  26.809   5.550
 8654POPC   PO467932  22.948  26.814   5.850
 8654POPC   GL167933  22.945  26.819   6.150
 8654POPC   GL267934  22.895  26.697   6.150
 8654POPC   C1A67935  22.936  26.856   6.450
 8654POPC   D2A67936  22.958  26.855   6.750
 8654POPC   C3A67937  22.959  26.816   7.050
 8654POPC   C4A67938  22.967  26.815   7.350
 8654POPC   C1B67939  22.806  26.673   6.450
 8654POPC   C2B67940  22.784  26.624   6.750
 8654POPC   C3B67941  22.807  26.622   7.050
 8654POPC   C4B67942  22.815  26.624   7.350
 8655POPC   NC367943  35.343  22.150   5.550
 8655POPC   PO467944  35.361  22.151   5.850
 8655POPC   GL167945  35.395  22.170   6.150
 8655POPC   GL267946  35.441  22.117   6.150
 8655POPC   C1A67947  35.330  22.117   6.450
 8655POPC   D2A67948  35.370  22.125   6.750
 8655POPC   C3A67949  35.319  22.128   7.050
 8655POPC   C4A67950  35.351  22.168   7.350
 8655POPC   C1B67951  35.572  22.090   6.450
 8655POPC   C2B67952  35.574  22.149   6.750
 8655POPC   C3B67953  35.641  22.080   7.050
 8655POPC   C4B67954  35.628  22.115   7.350
 8656POPC   NC367955  35.305   9.762   5.550
 8656POPC   PO467956  35.321   9.766   5.850
 8656POPC   GL167957  35.400   9.777   6.150
 8656POPC   GL267958  35.310   9.888   6.150
 8656POPC   C1A67959  35.354   9.776   6.450
 8656POPC   D2A67960  35.335   9.733   6.750
 8656POPC   C3A67961  35.306   9.796   7.050
 8656POPC   C4A67962  35.330   9.709   7.350
 8656POPC   C1B67963  35.264   9.995   6.450
 8656POPC   C2B67964  35.314  10.021   6.750
 8656POPC   C3B67965  35.273   9.942   7.050
 8656POPC   C4B67966  35.288   9.988   7.350
 8657POPC   NC367967  11.258  43.081   5.550
 8657POPC   PO467968  11.343  43.079   5.850
 8657POPC   GL167969  11.319  43.104   6.150
 8657POPC   GL267970  11.199  43.227   6.150
 8657POPC   C1A67971  11.278  43.062   6.450
 8657POPC   D2A67972  11.319  43.075   6.750
 8657POPC   C3A67973  11.350  43.120   7.050
 8657POPC   C4A67974  11.295  43.129   7.350
 8657POPC   C1B67975  11.124  43.291   6.450
 8657POPC   C2B67976  11.132  43.280   6.750
 8657POPC   C3B67977  11.149  43.281   7.050
 8657POPC   C4B67978  11.127  43.302   7.350
 8658POPC   NC367979  34.549   5.085   5.550
 8658POPC   PO467980  34.579   5.067   5.850
 8658POPC   GL167981  34.576   5.075   6.150
 8658POPC   GL267982  34.413   5.087   6.150
 8658POPC   C1A67983  34.578   5.066   6.450
 8658POPC   D2A67984  34.578   5.058   6.750
 8658POPC   C3A67985  34.621   5.100   7.050
 8658POPC   C4A67986  34.553   5.099   7.350
 8658POPC   C1B67987  34.305   5.143   6.450
 8658POPC   C2B67988  34.364   5.146   6.750
 8658POPC   C3B67989  34.357   5.139   7.050
 8658POPC   C4B67990  34.379   5.172   7.350
 8659POPC   NC367991  26.862  18.266   5.550
 8659POPC   PO467992  26.864  18.250   5.850
 8659POPC   GL167993  26.853  18.242   6.150
 8659POPC   GL267994  26.730  18.232   6.150
 8659POPC   C1A67995  26.836  18.245   6.450
 8659POPC   D2A67996  26.779  18.320   6.750
 8659POPC   C3A67997  26.778  18.262   7.050
 8659POPC   C4A67998  26.825  18.311   7.350
 8659POPC   C1B67999  26.621  18.133   6.450
 8659POPC   C2B68000  26.570  18.164   6.750
 8659POPC   C3B68001  26.594  18.127   7.050
 8659POPC   C4B68002  26.654  18.096   7.350
 8660POPC   NC368003  14.453  35.390   5.550
 8660POPC   PO468004  14.440  35.382   5.850
 8660POPC   GL168005  14.378  35.349   6.150
 8660POPC   GL268006  14.540  35.429   6.150
 8660POPC   C1A68007  14.416  35.357   6.450
 8660POPC   D2A68008  14.379  35.360   6.750
 8660POPC   C3A68009  14.407  35.361   7.050
 8660POPC   C4A68010  14.445  35.351   7.350
 8660POPC   C1B68011  14.603  35.386   6.450
 8660POPC   C2B68012  14.599  35.380   6.750
 8660POPC   C3B68013  14.634  35.436   7.050
 8660POPC   C4B68014  14.664  35.435   7.350
 8661POPC   NC368015   1.227  26.819   5.550
 8661POPC   PO468016   1.167  26.846   5.850
 8661POPC   GL168017   1.183  26.846   6.150
 8661POPC   GL268018   1.336  26.784   6.150
 8661POPC   C1A68019   1.233  26.851   6.450
 8661POPC   D2A68020   1.178  26.831   6.750
 8661POPC   C3A68021   1.227  26.846   7.050
 8661POPC   C4A68022   1.228  26.835   7.350
 8661POPC   C1B68023   1.457  26.724   6.450
 8661POPC   C2B68024   1.444  26.678   6.750
 8661POPC   C3B68025   1.481  26.652   7.050
 8661POPC   C4B68026   1.401  26.653   7.350
 8662POPC   NC368027  35.336   3.497   5.550
 8662POPC   PO468028  35.378   3.556   5.850
 8662POPC   GL168029  35.333   3.534   6.150
 8662POPC   GL268030  35.300   3.446   6.150
 8662POPC   C1A68031  35.321   3.526   6.450
 8662POPC   D2A68032  35.366   3.564   6.750
 8662POPC   C3A68033  35.354   3.562   7.050
 8662POPC   C4A68034  35.369   3.567   7.350
 8662POPC   C1B68035  35.141   3.348   6.450
 8662POPC   C2B68036  35.165   3.361   6.750
 8662POPC   C3B68037  35.194   3.308   7.050
 8662POPC   C4B68038  35.198   3.390   7.350
 8663POPC   NC368039   3.502  42.307   5.550
 8663POPC   PO468040   3.580  42.382   5.850
 8663POPC   GL168041   3.569  42.298   6.150
 8663POPC   GL268042   3.435  42.345   6.150
 8663POPC   C1A68043   3.544  42.321   6.450
 8663POPC   D2A68044   3.524  42.314   6.750
 8663POPC   C3A68045   3.508  42.375   7.050
 8663POPC   C4A68046   3.528  42.354   7.350
 8663POPC   C1B68047   3.243  42.284   6.450
 8663POPC   C2B68048   3.243  42.268   6.750
 8663POPC   C3B68049   3.340  42.339   7.050
 8663POPC   C4B68050   3.245  42.320   7.350
 8664POPC   NC368051  12.109   5.068   5.550
 8664POPC   PO468052  12.055   5.094   5.850
 8664POPC   GL168053  12.056   5.114   6.150
 8664POPC   GL268054  11.949   5.135   6.150
 8664POPC   C1A68055  12.078   5.073   6.450
 8664POPC   D2A68056  12.068   5.078   6.750
 8664POPC   C3A68057  12.045   5.114   7.050
 8664POPC   C4A68058  12.122   5.102   7.350
 8664POPC   C1B68059  11.823   5.132   6.450
 8664POPC   C2B68060  11.804   5.043   6.750
 8664POPC   C3B68061  11.824   5.091   7.050
 8664POPC   C4B68062  11.816   5.078   7.350
 8665POPC   NC368063  16.760  32.248   5.550
 8665POPC   PO468064  16.720  32.279   5.850
 8665POPC   GL168065  16.734  32.282   6.150
 8665POPC   GL268066  16.871  32.226   6.150
 8665POPC   C1A68067  16.683  32.291   6.450
 8665POPC   D2A68068  16.742  32.293   6.750
 8665POPC   C3A68069  16.744  32.278   7.050
 8665POPC   C4A68070  16.686  32.239   7.350
 8665POPC   C1B68071  16.940  32.206   6.450
 8665POPC   C2B68072  17.020  32.207   6.750
 8665POPC   C3B68073  17.011  32.258   7.050
 8665POPC   C4B68074  16.970  32.168   7.350
 8666POPC   NC368075  35.374  21.343   5.550
 8666POPC   PO468076  35.328  21.428   5.850
 8666POPC   GL168077  35.356  21.411   6.150
 8666POPC   GL268078  35.316  21.308   6.150
 8666POPC   C1A68079  35.382  21.420   6.450
 8666POPC   D2A68080  35.379  21.364   6.750
 8666POPC   C3A68081  35.380  21.385   7.050
 8666POPC   C4A68082  35.354  21.411   7.350
 8666POPC   C1B68083  35.204  21.238   6.450
 8666POPC   C2B68084  35.199  21.167   6.750
 8666POPC   C3B68085  35.235  21.151   7.050
 8666POPC   C4B68086  35.155  21.165   7.350
 8667POPC   NC368087  16.734  41.601   5.550
 8667POPC   PO468088  16.694  41.584   5.850
 8667POPC   GL168089  16.740  41.553   6.150
 8667POPC   GL268090  16.857  41.523   6.150
 8667POPC   C1A68091  16.741  41.543   6.450
 8667POPC   D2A68092  16.774  41.525   6.750
 8667POPC   C3A68093  16.742  41.603   7.050
 8667POPC   C4A68094  16.737  41.528   7.350
 8667POPC   C1B68095  16.952  41.477   6.450
 8667POPC   C2B68096  16.958  41.415   6.750
 8667POPC   C3B68097  16.945  41.484   7.050
 8667POPC   C4B68098  16.920  41.496   7.350
 8668POPC   NC368099  35.350  19.023   5.550
 8668POPC   PO468100  35.334  19.086   5.850
 8668POPC   GL168101  35.342  19.046   6.150
 8668POPC   GL268102  35.470  19.016   6.150
 8668POPC   C1A68103  35.333  19.046   6.450
 8668POPC   D2A68104  35.356  19.083   6.750
 8668POPC   C3A68105  35.303  19.047   7.050
 8668POPC   C4A68106  35.356  19.088   7.350
 8668POPC   C1B68107  35.628  19.027   6.450
 8668POPC   C2B68108  35.579  19.104   6.750
 8668POPC   C3B68109  35.645  19.118   7.050
 8668POPC   C4B68110  35.604  19.030   7.350
 8669POPC   NC368111  34.619  30.745   5.550
 8669POPC   PO468112  34.599  30.698   5.850
 8669POPC   GL168113  34.621  30.727   6.150
 8669POPC   GL268114  34.658  30.815   6.150
 8669POPC   C1A68115  34.528  30.684   6.450
 8669POPC   D2A68116  34.528  30.649   6.750
 8669POPC   C3A68117  34.613  30.654   7.050
 8669POPC   C4A68118  34.549  30.693   7.350
 8669POPC   C1B68119  34.687  30.894   6.450
 8669POPC   C2B68120  34.697  30.967   6.750
 8669POPC   C3B68121  34.624  30.981   7.050
 8669POPC   C4B68122  34.648  30.975   7.350
 8670POPC   NC368123   9.750  19.884   5.550
 8670POPC   PO468124   9.729  19.793   5.850
 8670POPC   GL168125   9.795  19.819   6.150
 8670POPC   GL268126   9.785  19.697   6.150
 8670POPC   C1A68127   9.747  19.863   6.450
 8670POPC   D2A68128   9.775  19.826   6.750
 8670POPC   C3A68129   9.699  19.844   7.050
 8670POPC   C4A68130   9.702  19.815   7.350
 8670POPC   C1B68131   9.885  19.651   6.450
 8670POPC   C2B68132   9.855  19.576   6.750
 8670POPC   C3B68133   9.874  19.648   7.050
 8670POPC   C4B68134   9.835  19.631   7.350
 8671POPC   NC368135  30.696  26.850   5.550
 8671POPC   PO468136  30.727  26.864   5.850
 8671POPC   GL168137  30.696  26.853   6.150
 8671POPC   GL268138  30.621  26.748   6.150
 8671POPC   C1A68139  30.723  26.865   6.450
 8671POPC   D2A68140  30.743  26.809   6.750
 8671POPC   C3A68141  30.689  26.774   7.050
 8671POPC   C4A68142  30.654  26.865   7.350
 8671POPC   C1B68143  30.564  26.670   6.450
 8671POPC   C2B68144  30.500  26.665   6.750
 8671POPC   C3B68145  30.487  26.605   7.050
 8671POPC   C4B68146  30.571  26.611   7.350
 8672POPC   NC368147  10.483  26.791   5.550
 8672POPC   PO468148  10.556  26.863   5.850
 8672POPC   GL168149  10.491  26.819   6.150
 8672POPC   GL268150  10.516  26.677   6.150
 8672POPC   C1A68151  10.519  26.806   6.450
 8672POPC   D2A68152  10.554  26.780   6.750
 8672POPC   C3A68153  10.571  26.782   7.050
 8672POPC   C4A68154  10.505  26.858   7.350
 8672POPC   C1B68155  10.415  26.607   6.450
 8672POPC   C2B68156  10.455  26.603   6.750
 8672POPC   C3B68157  10.413  26.627   7.050
 8672POPC   C4B68158  10.417  26.597   7.350
 8673POPC   NC368159  37.676   9.798   5.550
 8673POPC   PO468160  37.633   9.722   5.850
 8673POPC   GL168161  37.638   9.705   6.150
 8673POPC   GL268162  37.773   9.755   6.150
 8673POPC   C1A68163  37.699   9.795   6.450
 8673POPC   D2A68164  37.696   9.763   6.750
 8673POPC   C3A68165  37.652   9.728   7.050
 8673POPC   C4A68166  37.677   9.717   7.350
 8673POPC   C1B68167  37.922   9.781   6.450
 8673POPC   C2B68168  37.888   9.778   6.750
 8673POPC   C3B68169  37.965   9.838   7.050
 8673POPC   C4B68170  37.917   9.825   7.350
 8674POPC   NC368171  30.720  21.375   5.550
 8674POPC   PO468172  30.736  21.359   5.850
 8674POPC   GL168173  30.671  21.392   6.150
 8674POPC   GL268174  30.788  21.541   6.150
 8674POPC   C1A68175  30.739  21.361   6.450
 8674POPC   D2A68176  30.691  21.349   6.750
 8674POPC   C3A68177  30.708  21.420   7.050
 8674POPC   C4A68178  30.737  21.366   7.350
 8674POPC   C1B68179  30.775  21.590   6.450
 8674POPC   C2B68180  30.816  21.599   6.750
 8674POPC   C3B68181  30.781  21.598   7.050
 8674POPC   C4B68182  30.771  21.650   7.350
 8675POPC   NC368183  39.995  31.442   5.550
 8675POPC   PO468184  40.047  31.517   5.850
 8675POPC   GL168185  39.989  31.511   6.150
 8675POPC   GL268186  39.939  31.373   6.150
 8675POPC   C1A68187  40.007  31.430   6.450
 8675POPC   D2A68188  40.008  31.475   6.750
 8675POPC   C3A68189  40.039  31.469   7.050
 8675POPC   C4A68190  40.008  31.467   7.350
 8675POPC   C1B68191  39.863  31.278   6.450
 8675POPC   C2B68192  39.891  31.259   6.750
 8675POPC   C3B68193  39.864  31.252   7.050
 8675POPC   C4B68194  39.916  31.216   7.350
 8676POPC   NC368195  15.912  25.251   5.550
 8676POPC   PO468196  15.940  25.295   5.850
 8676POPC   GL168197  15.981  25.217   6.150
 8676POPC   GL268198  15.965  25.188   6.150
 8676POPC   C1A68199  15.974  25.239   6.450
 8676POPC   D2A68200  15.907  25.230   6.750
 8676POPC   C3A68201  15.911  25.245   7.050
 8676POPC   C4A68202  15.935  25.286   7.350
 8676POPC   C1B68203  15.863  25.023   6.450
 8676POPC   C2B68204  15.919  25.018   6.750
 8676POPC   C3B68205  15.827  25.017   7.050
 8676POPC   C4B68206  15.878  25.046   7.350
 8677POPC   NC368207   8.959  39.203   5.550
 8677POPC   PO468208   9.013  39.248   5.850
 8677POPC   GL168209   8.924  39.210   6.150
 8677POPC   GL268210   8.829  39.220   6.150
 8677POPC   C1A68211   9.013  39.253   6.450
 8677POPC   D2A68212   8.978  39.281   6.750
 8677POPC   C3A68213   8.994  39.278   7.050
 8677POPC   C4A68214   9.014  39.257   7.350
 8677POPC   C1B68215   8.719  39.277   6.450
 8677POPC   C2B68216   8.699  39.327   6.750
 8677POPC   C3B68217   8.707  39.307   7.050
 8677POPC   C4B68218   8.704  39.260   7.350
 8678POPC   NC368219   2.742  18.296   5.550
 8678POPC   PO468220   2.801  18.322   5.850
 8678POPC   GL168221   2.767  18.233   6.150
 8678POPC   GL268222   2.786  18.394   6.150
 8678POPC   C1A68223   2.800  18.327   6.450
 8678POPC   D2A68224   2.811  18.296   6.750
 8678POPC   C3A68225   2.738  18.327   7.050
 8678POPC   C4A68226   2.783  18.254   7.350
 8678POPC   C1B68227   2.761  18.527   6.450
 8678POPC   C2B68228   2.737  18.504   6.750
 8678POPC   C3B68229   2.748  18.538   7.050
 8678POPC   C4B68230   2.795  18.574   7.350
 8679POPC   NC368231  21.393  32.987   5.550
 8679POPC   PO468232  21.343  33.029   5.850
 8679POPC   GL168233  21.380  33.057   6.150
 8679POPC   GL268234  21.374  32.902   6.150
 8679POPC   C1A68235  21.378  32.998   6.450
 8679POPC   D2A68236  21.361  33.030   6.750
 8679POPC   C3A68237  21.373  33.059   7.050
 8679POPC   C4A68238  21.338  33.045   7.350
 8679POPC   C1B68239  21.413  32.767   6.450
 8679POPC   C2B68240  21.332  32.808   6.750
 8679POPC   C3B68241  21.338  32.793   7.050
 8679POPC   C4B68242  21.419  32.740   7.350
 8680POPC   NC368243  18.326   5.870   5.550
 8680POPC   PO468244  18.300   5.871   5.850
 8680POPC   GL168245  18.253   5.909   6.150
 8680POPC   GL268246  18.419   5.859   6.150
 8680POPC   C1A68247  18.309   5.829   6.450
 8680POPC   D2A68248  18.322   5.836   6.750
 8680POPC   C3A68249  18.305   5.824   7.050
 8680POPC   C4A68250  18.240   5.824   7.350
 8680POPC   C1B68251  18.562   5.872   6.450
 8680POPC   C2B68252  18.510   5.794   6.750
 8680POPC   C3B68253  18.575   5.835   7.050
 8680POPC   C4B68254  18.532   5.865   7.350
 8681POPC   NC368255  22.901  41.598   5.550
 8681POPC   PO468256  22.955  41.589   5.850
 8681POPC   GL168257  22.956  41.534   6.150
 8681POPC   GL268258  22.867  41.460   6.150
 8681POPC   C1A68259  22.914  41.514   6.450
 8681POPC   D2A68260  22.913  41.576   6.750
 8681POPC   C3A68261  22.934  41.529   7.050
 8681POPC   C4A68262  22.968  41.519   7.350
 8681POPC   C1B68263  22.756  41.361   6.450
 8681POPC   C2B68264  22.828  41.381   6.750
 8681POPC   C3B68265  22.751  41.328   7.050
 8681POPC   C4B68266  22.819  41.413   7.350
 8682POPC   NC368267  27.570  40.783   5.550
 8682POPC   PO468268  27.620  40.829   5.850
 8682POPC   GL168269  27.561  40.758   6.150
 8682POPC   GL268270  27.565  40.884   6.150
 8682POPC   C1A68271  27.643  40.789   6.450
 8682POPC   D2A68272  27.583  40.831   6.750
 8682POPC   C3A68273  27.570  40.751   7.050
 8682POPC   C4A68274  27.567  40.806   7.350
 8682POPC   C1B68275  27.543  41.055   6.450
 8682POPC   C2B68276  27.491  41.062   6.750
 8682POPC   C3B68277  27.461  41.028   7.050
 8682POPC   C4B68278  27.546  40.979   7.350
 8683POPC   NC368279  15.986  35.305   5.550
 8683POPC   PO468280  15.960  35.364   5.850
 8683POPC   GL168281  15.966  35.348   6.150
 8683POPC   GL268282  15.825  35.293   6.150
 8683POPC   C1A68283  15.989  35.302   6.450
 8683POPC   D2A68284  15.937  35.376   6.750
 8683POPC   C3A68285  15.922  35.310   7.050
 8683POPC   C4A68286  15.985  35.321   7.350
 8683POPC   C1B68287  15.674  35.291   6.450
 8683POPC   C2B68288  15.728  35.363   6.750
 8683POPC   C3B68289  15.732  35.343   7.050
 8683POPC   C4B68290  15.739  35.337   7.350
 8684POPC   NC368291   8.977  36.895   5.550
 8684POPC   PO468292   8.925  36.873   5.850
 8684POPC   GL168293   8.923  36.870   6.150
 8684POPC   GL268294   8.949  36.979   6.150
 8684POPC   C1A68295   8.931  36.931   6.450
 8684POPC   D2A68296   8.999  36.860   6.750
 8684POPC   C3A68297   8.945  36.884   7.050
 8684POPC   C4A68298   8.954  36.911   7.350
 8684POPC   C1B68299   8.973  37.138   6.450
 8684POPC   C2B68300   8.930  37.158   6.750
 8684POPC   C3B68301   8.988  37.180   7.050
 8684POPC   C4B68302   8.924  37.132   7.350
 8685POPC   NC368303  33.803  28.353   5.550
 8685POPC   PO468304  33.838  28.366   5.850
 8685POPC   GL168305  33.775  28.372   6.150
 8685POPC   GL268306  33.680  28.422   6.150
 8685POPC   C1A68307  33.769  28.358   6.450
 8685POPC   D2A68308  33.796  28.400   6.750
 8685POPC   C3A68309  33.821  28.391   7.050
 8685POPC   C4A68310  33.756  28.350   7.350
 8685POPC   C1B68311  33.571  28.485   6.450
 8685POPC   C2B68312  33.600  28.465   6.750
 8685POPC   C3B68313  33.530  28.457   7.050
 8685POPC   C4B68314  33.569  28.428   7.350
 8686POPC   NC368315  32.235  41.564   5.550
 8686POPC   PO468316  32.201  41.532   5.850
 8686POPC   GL168317  32.282  41.571   6.150
 8686POPC   GL268318  32.259  41.727   6.150
 8686POPC   C1A68319  32.261  41.511   6.450
 8686POPC   D2A68320  32.242  41.511   6.750
 8686POPC   C3A68321  32.267  41.596   7.050
 8686POPC   C4A68322  32.206  41.590   7.350
 8686POPC   C1B68323  32.298  41.774   6.450
 8686POPC   C2B68324  32.330  41.782   6.750
 8686POPC   C3B68325  32.264  41.760   7.050
 8686POPC   C4B68326  32.280  41.780   7.350
 8687POPC   NC368327  39.219  15.993   5.550
 8687POPC   PO468328  39.246  15.956   5.850
 8687POPC   GL168329  39.236  15.979   6.150
 8687POPC   GL268330  39.101  15.873   6.150
 8687POPC   C1A68331  39.240  15.916   6.450
 8687POPC   D2A68332  39.245  15.942   6.750
 8687POPC   C3A68333  39.191  15.953   7.050
 8687POPC   C4A68334  39.256  15.914   7.350
 8687POPC   C1B68335  39.036  15.898   6.450
 8687POPC   C2B68336  38.955  15.915   6.750
 8687POPC   C3B68337  38.956  15.864   7.050
 8687POPC   C4B68338  38.950  15.885   7.350
 8688POPC   NC368339   7.445  17.535   5.550
 8688POPC   PO468340   7.453  17.488   5.850
 8688POPC   GL168341   7.414  17.470   6.150
 8688POPC   GL268342   7.490  17.384   6.150
 8688POPC   C1A68343   7.413  17.470   6.450
 8688POPC   D2A68344   7.460  17.546   6.750
 8688POPC   C3A68345   7.432  17.463   7.050
 8688POPC   C4A68346   7.469  17.495   7.350
 8688POPC   C1B68347   7.553  17.256   6.450
 8688POPC   C2B68348   7.506  17.288   6.750
 8688POPC   C3B68349   7.549  17.261   7.050
 8688POPC   C4B68350   7.569  17.237   7.350
 8689POPC   NC368351  18.262  44.708   5.550
 8689POPC   PO468352  18.318  44.614   5.850
 8689POPC   GL168353  18.299  44.631   6.150
 8689POPC   GL268354  18.154  44.736   6.150
 8689POPC   C1A68355  18.243  44.664   6.450
 8689POPC   D2A68356  18.326  44.626   6.750
 8689POPC   C3A68357  18.243  44.631   7.050
 8689POPC   C4A68358  18.281  44.642   7.350
 8689POPC   C1B68359  18.012  44.766   6.450
 8689POPC   C2B68360  18.087  44.748   6.750
 8689POPC   C3B68361  18.070  44.735   7.050
 8689POPC   C4B68362  18.096  44.777   7.350
 8690POPC   NC368363   4.303  32.226   5.550
 8690POPC   PO468364   4.296  32.294   5.850
 8690POPC   GL168365   4.317  32.289   6.150
 8690POPC   GL268366   4.262  32.333   6.150
 8690POPC   C1A68367   4.318  32.204   6.450
 8690POPC   D2A68368   4.329  32.278   6.750
 8690POPC   C3A68369   4.325  32.263   7.050
 8690POPC   C4A68370   4.303  32.292   7.350
 8690POPC   C1B68371   4.239  32.461   6.450
 8690POPC   C2B68372   4.225  32.512   6.750
 8690POPC   C3B68373   4.238  32.492   7.050
 8690POPC   C4B68374   4.206  32.461   7.350
 8691POPC   NC368375   4.309   8.997   5.550
 8691POPC   PO468376   4.312   8.975   5.850
 8691POPC   GL168377   4.329   8.942   6.150
 8691POPC   GL268378   4.365   8.908   6.150
 8691POPC   C1A68379   4.366   8.943   6.450
 8691POPC   D2A68380   4.346   9.009   6.750
 8691POPC   C3A68381   4.337   8.992   7.050
 8691POPC   C4A68382   4.319   9.002   7.350
 8691POPC   C1B68383   4.436   8.751   6.450
 8691POPC   C2B68384   4.468   8.776   6.750
 8691POPC   C3B68385   4.419   8.717   7.050
 8691POPC   C4B68386   4.469   8.774   7.350
 8692POPC   NC368387  22.902   6.660   5.550
 8692POPC   PO468388  22.961   6.644   5.850
 8692POPC   GL168389  22.952   6.650   6.150
 8692POPC   GL268390  23.052   6.726   6.150
 8692POPC   C1A68391  22.936   6.663   6.450
 8692POPC   D2A68392  22.960   6.659   6.750
 8692POPC   C3A68393  22.933   6.654   7.050
 8692POPC   C4A68394  22.903   6.640   7.350
 8692POPC   C1B68395  23.102   6.812   6.450
 8692POPC   C2B68396  23.186   6.768   6.750
 8692POPC   C3B68397  23.111   6.791   7.050
 8692POPC   C4B68398  23.118   6.746   7.350
 8693POPC   NC368399  30.694  19.076   5.550
 8693POPC   PO468400  30.743  19.013   5.850
 8693POPC   GL168401  30.647  19.082   6.150
 8693POPC   GL268402  30.851  18.966   6.150
 8693POPC   C1A68403  30.709  19.043   6.450
 8693POPC   D2A68404  30.676  19.049   6.750
 8693POPC   C3A68405  30.655  19.089   7.050
 8693POPC   C4A68406  30.689  19.027   7.350
 8693POPC   C1B68407  30.895  18.964   6.450
 8693POPC   C2B68408  30.889  18.910   6.750
 8693POPC   C3B68409  30.879  18.975   7.050
 8693POPC   C4B68410  30.940  18.951   7.350
 8694POPC   NC368411  16.712   0.448   5.550
 8694POPC   PO468412  16.772   0.479   5.850
 8694POPC   GL168413  16.682   0.439   6.150
 8694POPC   GL268414  16.757   0.576   6.150
 8694POPC   C1A68415  16.741   0.459   6.450
 8694POPC   D2A68416  16.747   0.416   6.750
 8694POPC   C3A68417  16.757   0.481   7.050
 8694POPC   C4A68418  16.757   0.408   7.350
 8694POPC   C1B68419  16.875   0.608   6.450
 8694POPC   C2B68420  16.866   0.649   6.750
 8694POPC   C3B68421  16.857   0.695   7.050
 8694POPC   C4B68422  16.842   0.664   7.350
 8695POPC   NC368423  26.786  19.884   5.550
 8695POPC   PO468424  26.823  19.822   5.850
 8695POPC   GL168425  26.834  19.814   6.150
 8695POPC   GL268426  26.928  19.852   6.150
 8695POPC   C1A68427  26.850  19.786   6.450
 8695POPC   D2A68428  26.850  19.789   6.750
 8695POPC   C3A68429  26.825  19.872   7.050
 8695POPC   C4A68430  26.770  19.884   7.350
 8695POPC   C1B68431  27.017  19.827   6.450
 8695POPC   C2B68432  27.089  19.803   6.750
 8695POPC   C3B68433  27.046  19.858   7.050
 8695POPC   C4B68434  27.104  19.765   7.350
 8696POPC   NC368435  32.986   8.234   5.550
 8696POPC   PO468436  33.058   8.170   5.850
 8696POPC   GL168437  33.049   8.204   6.150
 8696POPC   GL268438  33.010   8.340   6.150
 8696POPC   C1A68439  33.026   8.184   6.450
 8696POPC   D2A68440  33.000   8.235   6.750
 8696POPC   C3A68441  33.030   8.211   7.050
 8696POPC   C4A68442  33.035   8.241   7.350
 8696POPC   C1B68443  33.023   8.450   6.450
 8696POPC   C2B68444  32.961   8.465   6.750
 8696POPC   C3B68445  32.978   8.444   7.050
 8696POPC   C4B68446  33.019   8.403   7.350
 8697POPC   NC368447  43.886  41.509   5.550
 8697POPC   PO468448  43.903  41.551   5.850
 8697POPC   GL168449  43.926  41.515   6.150
 8697POPC   GL268450  43.953  41.615   6.150
 8697POPC   C1A68451  43.845  41.604   6.450
 8697POPC   D2A68452  43.887  41.598   6.750
 8697POPC   C3A68453  43.860  41.603   7.050
 8697POPC   C4A68454  43.935  41.538   7.350
 8697POPC   C1B68455  44.006  41.807   6.450
 8697POPC   C2B68456  44.042  41.792   6.750
 8697POPC   C3B68457  44.075  41.727   7.050
 8697POPC   C4B68458  44.058  41.769   7.350
 8698POPC   NC368459  27.600  34.555   5.550
 8698POPC   PO468460  27.609  34.543   5.850
 8698POPC   GL168461  27.625  34.623   6.150
 8698POPC   GL268462  27.660  34.687   6.150
 8698POPC   C1A68463  27.599  34.582   6.450
 8698POPC   D2A68464  27.563  34.532   6.750
 8698POPC   C3A68465  27.613  34.564   7.050
 8698POPC   C4A68466  27.574  34.557   7.350
 8698POPC   C1B68467  27.629  34.867   6.450
 8698POPC   C2B68468  27.604  34.798   6.750
 8698POPC   C3B68469  27.650  34.836   7.050
 8698POPC   C4B68470  27.605  34.841   7.350
 8699POPC   NC368471  31.519   2.022   5.550
 8699POPC   PO468472  31.432   2.026   5.850
 8699POPC   GL168473  31.443   1.972   6.150
 8699POPC   GL268474  31.556   2.100   6.150
 8699POPC   C1A68475  31.432   1.972   6.450
 8699POPC   D2A68476  31.489   2.019   6.750
 8699POPC   C3A68477  31.518   1.972   7.050
 8699POPC   C4A68478  31.445   2.021   7.350
 8699POPC   C1B68479  31.692   2.164   6.450
 8699POPC   C2B68480  31.675   2.113   6.750
 8699POPC   C3B68481  31.636   2.082   7.050
 8699POPC   C4B68482  31.706   2.171   7.350
 8700POPC   NC368483   1.168  11.343   5.550
 8700POPC   PO468484   1.233  11.339   5.850
 8700POPC   GL168485   1.258  11.269   6.150
 8700POPC   GL268486   1.300  11.165   6.150
 8700POPC   C1A68487   1.245  11.323   6.450
 8700POPC   D2A68488   1.185  11.266   6.750
 8700POPC   C3A68489   1.235  11.318   7.050
 8700POPC   C4A68490   1.236  11.319   7.350
 8700POPC   C1B68491   1.334  11.102   6.450
 8700POPC   C2B68492   1.299  11.022   6.750
 8700POPC   C3B68493   1.305  11.055   7.050
 8700POPC   C4B68494   1.247  11.093   7.350
 8701POPC   NC368495   8.975  12.815   5.550
 8701POPC   PO468496   8.923  12.867   5.850
 8701POPC   GL168497   8.961  12.810   6.150
 8701POPC   GL268498   9.059  12.749   6.150
 8701POPC   C1A68499   9.016  12.809   6.450
 8701POPC   D2A68500   8.947  12.868   6.750
 8701POPC   C3A68501   9.006  12.888   7.050
 8701POPC   C4A68502   8.936  12.882   7.350
 8701POPC   C1B68503   9.091  12.616   6.450
 8701POPC   C2B68504   9.150  12.696   6.750
 8701POPC   C3B68505   9.181  12.625   7.050
 8701POPC   C4B68506   9.159  12.625   7.350
 8702POPC   NC368507  25.994  44.675   5.550
 8702POPC   PO468508  26.053  44.687   5.850
 8702POPC   GL168509  26.029  44.621   6.150
 8702POPC   GL268510  26.081  44.582   6.150
 8702POPC   C1A68511  26.018  44.636   6.450
 8702POPC   D2A68512  26.042  44.689   6.750
 8702POPC   C3A68513  26.039  44.628   7.050
 8702POPC   C4A68514  26.029  44.668   7.350
 8702POPC   C1B68515  26.145  44.469   6.450
 8702POPC   C2B68516  26.147  44.436   6.750
 8702POPC   C3B68517  26.149  44.483   7.050
 8702POPC   C4B68518  26.180  44.484   7.350
 8703POPC   NC368519  30.738  20.572   5.550
 8703POPC   PO468520  30.684  20.629   5.850
 8703POPC   GL168521  30.744  20.656   6.150
 8703POPC   GL268522  30.716  20.471   6.150
 8703POPC   C1A68523  30.725  20.647   6.450
 8703POPC   D2A68524  30.649  20.652   6.750
 8703POPC   C3A68525  30.732  20.649   7.050
 8703POPC   C4A68526  30.729  20.564   7.350
 8703POPC   C1B68527  30.791  20.379   6.450
 8703POPC   C2B68528  30.777  20.341   6.750
 8703POPC   C3B68529  30.707  20.368   7.050
 8703POPC   C4B68530  30.718  20.362   7.350
 8704POPC   NC368531  43.116  43.084   5.550
 8704POPC   PO468532  43.070  43.105   5.850
 8704POPC   GL168533  43.124  43.085   6.150
 8704POPC   GL268534  43.089  43.280   6.150
 8704POPC   C1A68535  43.111  43.147   6.450
 8704POPC   D2A68536  43.105  43.130   6.750
 8704POPC   C3A68537  43.131  43.110   7.050
 8704POPC   C4A68538  43.130  43.160   7.350
 8704POPC   C1B68539  43.117  43.327   6.450
 8704POPC   C2B68540  43.168  43.383   6.750
 8704POPC   C3B68541  43.172  43.327   7.050
 8704POPC   C4B68542  43.156  43.315   7.350
 8705POPC   NC368543  29.112  16.711   5.550
 8705POPC   PO468544  29.176  16.701   5.850
 8705POPC   GL168545  29.144  16.702   6.150
 8705POPC   GL268546  29.108  16.827   6.150
 8705POPC   C1A68547  29.184  16.727   6.450
 8705POPC   D2A68548  29.109  16.682   6.750
 8705POPC   C3A68549  29.136  16.684   7.050
 8705POPC   C4A68550  29.169  16.702   7.350
 8705POPC   C1B68551  29.216  16.953   6.450
 8705POPC   C2B68552  29.197  17.016   6.750
 8705POPC   C3B68553  29.196  16.981   7.050
 8705POPC   C4B68554  29.182  16.993   7.350
 8706POPC   NC368555   6.630  36.906   5.550
 8706POPC   PO468556   6.645  36.938   5.850
 8706POPC   GL168557   6.691  36.865   6.150
 8706POPC   GL268558   6.743  36.801   6.150
 8706POPC   C1A68559   6.650  36.868   6.450
 8706POPC   D2A68560   6.681  36.931   6.750
 8706POPC   C3A68561   6.665  36.860   7.050
 8706POPC   C4A68562   6.681  36.919   7.350
 8706POPC   C1B68563   6.774  36.681   6.450
 8706POPC   C2B68564   6.762  36.633   6.750
 8706POPC   C3B68565   6.744  36.709   7.050
 8706POPC   C4B68566   6.728  36.712   7.350
 8707POPC   NC368567  33.759   5.123   5.550
 8707POPC   PO468568  33.785   5.098   5.850
 8707POPC   GL168569  33.814   5.091   6.150
 8707POPC   GL268570  33.914   5.158   6.150
 8707POPC   C1A68571  33.828   5.109   6.450
 8707POPC   D2A68572  33.772   5.059   6.750
 8707POPC   C3A68573  33.848   5.090   7.050
 8707POPC   C4A68574  33.778   5.075   7.350
 8707POPC   C1B68575  34.067   5.127   6.450
 8707POPC   C2B68576  34.070   5.202   6.750
 8707POPC   C3B68577  34.010   5.162   7.050
 8707POPC   C4B68578  34.074   5.226   7.350
 8708POPC   NC368579  26.837  36.120   5.550
 8708POPC   PO468580  26.791  36.115   5.850
 8708POPC   GL168581  26.772  36.107   6.150
 8708POPC   GL268582  26.666  36.078   6.150
 8708POPC   C1A68583  26.786  36.166   6.450
 8708POPC   D2A68584  26.856  36.167   6.750
 8708POPC   C3A68585  26.782  36.079   7.050
 8708POPC   C4A68586  26.799  36.094   7.350
 8708POPC   C1B68587  26.609  36.069   6.450
 8708POPC   C2B68588  26.595  36.034   6.750
 8708POPC   C3B68589  26.552  36.054   7.050
 8708POPC   C4B68590  26.580  36.075   7.350
 8709POPC   NC368591   2.812   0.434   5.550
 8709POPC   PO468592   2.729   0.454   5.850
 8709POPC   GL168593   2.789   0.466   6.150
 8709POPC   GL268594   2.668   0.538   6.150
 8709POPC   C1A68595   2.756   0.396   6.450
 8709POPC   D2A68596   2.740   0.442   6.750
 8709POPC   C3A68597   2.812   0.464   7.050
 8709POPC   C4A68598   2.722   0.390   7.350
 8709POPC   C1B68599   2.682   0.696   6.450
 8709POPC   C2B68600   2.679   0.632   6.750
 8709POPC   C3B68601   2.619   0.648   7.050
 8709POPC   C4B68602   2.699   0.675   7.350
 8710POPC   NC368603   1.235   8.936   5.550
 8710POPC   PO468604   1.225   8.965   5.850
 8710POPC   GL168605   1.200   8.987   6.150
 8710POPC   GL268606   1.296   9.023   6.150
 8710POPC   C1A68607   1.168   9.004   6.450
 8710POPC   D2A68608   1.200   8.983   6.750
 8710POPC   C3A68609   1.239   8.935   7.050
 8710POPC   C4A68610   1.252   9.020   7.350
 8710POPC   C1B68611   1.421   9.044   6.450
 8710POPC   C2B68612   1.508   8.997   6.750
 8710POPC   C3B68613   1.479   8.973   7.050
 8710POPC   C4B68614   1.467   9.038   7.350
 8711POPC   NC368615  33.030   1.192   5.550
 8711POPC   PO468616  33.072   1.172   5.850
 8711POPC   GL168617  33.056   1.228   6.150
 8711POPC   GL268618  32.942   1.288   6.150
 8711POPC   C1A68619  32.999   1.228   6.450
 8711POPC   D2A68620  32.979   1.188   6.750
 8711POPC   C3A68621  32.994   1.241   7.050
 8711POPC   C4A68622  33.015   1.193   7.350
 8711POPC   C1B68623  32.878   1.381   6.450
 8711POPC   C2B68624  32.874   1.442   6.750
 8711POPC   C3B68625  32.821   1.424   7.050
 8711POPC   C4B68626  32.827   1.416   7.350
 8712POPC   NC368627  29.153  22.175   5.550
 8712POPC   PO468628  29.113  22.149   5.850
 8712POPC   GL168629  29.187  22.155   6.150
 8712POPC   GL268630  29.162  22.243   6.150
 8712POPC   C1A68631  29.133  22.154   6.450
 8712POPC   D2A68632  29.129  22.163   6.750
 8712POPC   C3A68633  29.172  22.127   7.050
 8712POPC   C4A68634  29.118  22.182   7.350
 8712POPC   C1B68635  29.103  22.423   6.450
 8712POPC   C2B68636  29.101  22.392   6.750
 8712POPC   C3B68637  29.146  22.430   7.050
 8712POPC   C4B68638  29.127  22.444   7.350
 8713POPC   NC368639  39.971  26.821   5.550
 8713POPC   PO468640  40.036  26.828   5.850
 8713POPC   GL168641  40.028  26.811   6.150
 8713POPC   GL268642  40.094  26.963   6.150
 8713POPC   C1A68643  40.010  26.822   6.450
 8713POPC   D2A68644  39.976  26.827   6.750
 8713POPC   C3A68645  40.023  26.772   7.050
 8713POPC   C4A68646  40.016  26.821   7.350
 8713POPC   C1B68647  40.105  27.018   6.450
 8713POPC   C2B68648  40.160  27.027   6.750
 8713POPC   C3B68649  40.145  26.985   7.050
 8713POPC   C4B68650  40.157  27.051   7.350
 8714POPC   NC368651  14.389   0.463   5.550
 8714POPC   PO468652  14.383   0.414   5.850
 8714POPC   GL168653  14.414   0.393   6.150
 8714POPC   GL268654  14.294   0.490   6.150
 8714POPC   C1A68655  14.420   0.440   6.450
 8714POPC   D2A68656  14.377   0.424   6.750
 8714POPC   C3A68657  14.400   0.440   7.050
 8714POPC   C4A68658  14.451   0.398   7.350
 8714POPC   C1B68659  14.175   0.590   6.450
 8714POPC   C2B68660  14.215   0.582   6.750
 8714POPC   C3B68661  14.177   0.556   7.050
 8714POPC   C4B68662  14.163   0.564   7.350
 8715POPC   NC368663  21.424  21.375   5.550
 8715POPC   PO468664  21.354  21.365   5.850
 8715POPC   GL168665  21.349  21.420   6.150
 8715POPC   GL268666  21.443  21.350   6.150
 8715POPC   C1A68667  21.391  21.405   6.450
 8715POPC   D2A68668  21.398  21.405   6.750
 8715POPC   C3A68669  21.382  21.344   7.050
 8715POPC   C4A68670  21.428  21.369   7.350
 8715POPC   C1B68671  21.613  21.234   6.450
 8715POPC   C2B68672  21.553  21.177   6.750
 8715POPC   C3B68673  21.583  21.198   7.050
 8715POPC   C4B68674  21.616  21.190   7.350
 8716POPC   NC368675  14.415  16.765   5.550
 8716POPC   PO468676  14.446  16.754   5.850
 8716POPC   GL168677  14.357  16.771   6.150
 8716POPC   GL268678  14.290  16.776   6.150
 8716POPC   C1A68679  14.386  16.734   6.450
 8716POPC   D2A68680  14.429  16.686   6.750
 8716POPC   C3A68681  14.382  16.705   7.050
 8716POPC   C4A68682  14.443  16.751   7.350
 8716POPC   C1B68683  14.155  16.753   6.450
 8716POPC   C2B68684  14.157  16.776   6.750
 8716POPC   C3B68685  14.129  16.768   7.050
 8716POPC   C4B68686  14.109  16.754   7.350
 8717POPC   NC368687  38.476  16.734   5.550
 8717POPC   PO468688  38.439  16.730   5.850
 8717POPC   GL168689  38.442  16.718   6.150
 8717POPC   GL268690  38.619  16.776   6.150
 8717POPC   C1A68691  38.490  16.743   6.450
 8717POPC   D2A68692  38.407  16.705   6.750
 8717POPC   C3A68693  38.480  16.755   7.050
 8717POPC   C4A68694  38.419  16.718   7.350
 8717POPC   C1B68695  38.706  16.764   6.450
 8717POPC   C2B68696  38.724  16.825   6.750
 8717POPC   C3B68697  38.742  16.771   7.050
 8717POPC   C4B68698  38.667  16.729   7.350
 8718POPC   NC368699  23.726  24.503   5.550
 8718POPC   PO468700  23.724  24.458   5.850
 8718POPC   GL168701  23.732  24.474   6.150
 8718POPC   GL268702  23.880  24.491   6.150
 8718POPC   C1A68703  23.695  24.470   6.450
 8718POPC   D2A68704  23.698  24.470   6.750
 8718POPC   C3A68705  23.677  24.445   7.050
 8718POPC   C4A68706  23.760  24.460   7.350
 8718POPC   C1B68707  23.922  24.432   6.450
 8718POPC   C2B68708  23.993  24.449   6.750
 8718POPC   C3B68709  23.989  24.463   7.050
 8718POPC   C4B68710  23.950  24.423   7.350
 8719POPC   NC368711  23.675  30.730   5.550
 8719POPC   PO468712  23.686  30.654   5.850
 8719POPC   GL168713  23.764  30.681   6.150
 8719POPC   GL268714  23.752  30.555   6.150
 8719POPC   C1A68715  23.729  30.735   6.450
 8719POPC   D2A68716  23.669  30.661   6.750
 8719POPC   C3A68717  23.689  30.700   7.050
 8719POPC   C4A68718  23.719  30.695   7.350
 8719POPC   C1B68719  23.835  30.478   6.450
 8719POPC   C2B68720  23.879  30.466   6.750
 8719POPC   C3B68721  23.794  30.458   7.050
 8719POPC   C4B68722  23.797  30.492   7.350
 8720POPC   NC368723  33.020  34.540   5.550
 8720POPC   PO468724  33.023  34.583   5.850
 8720POPC   GL168725  32.988  34.538   6.150
 8720POPC   GL268726  33.098  34.626   6.150
 8720POPC   C1A68727  32.981  34.580   6.450
 8720POPC   D2A68728  33.003  34.598   6.750
 8720POPC   C3A68729  32.986  34.609   7.050
 8720POPC   C4A68730  32.995  34.530   7.350
 8720POPC   C1B68731  33.308  34.698   6.450
 8720POPC   C2B68732  33.224  34.608   6.750
 8720POPC   C3B68733  33.226  34.636   7.050
 8720POPC   C4B68734  33.283  34.630   7.350
 8721POPC   NC368735  13.607  19.851   5.550
 8721POPC   PO468736  13.674  19.843   5.850
 8721POPC   GL168737  13.638  19.790   6.150
 8721POPC   GL268738  13.620  19.940   6.150
 8721POPC   C1A68739  13.590  19.790   6.450
 8721POPC   D2A68740  13.661  19.831   6.750
 8721POPC   C3A68741  13.655  19.839   7.050
 8721POPC   C4A68742  13.631  19.807   7.350
 8721POPC   C1B68743  13.697  20.065   6.450
 8721POPC   C2B68744  13.670  20.113   6.750
 8721POPC   C3B68745  13.667  20.087   7.050
 8721POPC   C4B68746  13.677  20.046   7.350
 8722POPC   NC368747  40.019  33.779   5.550
 8722POPC   PO468748  39.973  33.766   5.850
 8722POPC   GL168749  40.043  33.759   6.150
 8722POPC   GL268750  40.004  33.972   6.150
 8722POPC   C1A68751  40.037  33.771   6.450
 8722POPC   D2A68752  40.038  33.755   6.750
 8722POPC   C3A68753  39.974  33.846   7.050
 8722POPC   C4A68754  39.986  33.837   7.350
 8722POPC   C1B68755  39.990  34.004   6.450
 8722POPC   C2B68756  40.027  34.081   6.750
 8722POPC   C3B68757  40.040  34.096   7.050
 8722POPC   C4B68758  39.947  34.083   7.350
 8723POPC   NC368759   6.694  26.807   5.550
 8723POPC   PO468760   6.621  26.866   5.850
 8723POPC   GL168761   6.598  26.811   6.150
 8723POPC   GL268762   6.585  26.867   6.150
 8723POPC   C1A68763   6.636  26.864   6.450
 8723POPC   D2A68764   6.664  26.865   6.750
 8723POPC   C3A68765   6.607  26.861   7.050
 8723POPC   C4A68766   6.688  26.859   7.350
 8723POPC   C1B68767   6.488  26.949   6.450
 8723POPC   C2B68768   6.477  26.952   6.750
 8723POPC   C3B68769   6.462  26.968   7.050
 8723POPC   C4B68770   6.430  26.957   7.350
 8724POPC   NC368771  24.463  22.946   5.550
 8724POPC   PO468772  24.441  22.972   5.850
 8724POPC   GL168773  24.495  22.974   6.150
 8724POPC   GL268774  24.451  23.082   6.150
 8724POPC   C1A68775  24.513  22.985   6.450
 8724POPC   D2A68776  24.535  22.907   6.750
 8724POPC   C3A68777  24.489  22.892   7.050
 8724POPC   C4A68778  24.480  22.948   7.350
 8724POPC   C1B68779  24.436  23.227   6.450
 8724POPC   C2B68780  24.481  23.185   6.750
 8724POPC   C3B68781  24.487  23.221   7.050
 8724POPC   C4B68782  24.451  23.210   7.350
 8725POPC   NC368783   8.990  31.447   5.550
 8725POPC   PO468784   8.988  31.496   5.850
 8725POPC   GL168785   9.017  31.511   6.150
 8725POPC   GL268786   8.834  31.467   6.150
 8725POPC   C1A68787   8.933  31.499   6.450
 8725POPC   D2A68788   9.022  31.466   6.750
 8725POPC   C3A68789   9.002  31.521   7.050
 8725POPC   C4A68790   8.955  31.453   7.350
 8725POPC   C1B68791   8.766  31.478   6.450
 8725POPC   C2B68792   8.730  31.483   6.750
 8725POPC   C3B68793   8.710  31.558   7.050
 8725POPC   C4B68794   8.741  31.538   7.350
 8726POPC   NC368795  12.111  13.676   5.550
 8726POPC   PO468796  12.101  13.618   5.850
 8726POPC   GL168797  12.078  13.608   6.150
 8726POPC   GL268798  12.157  13.557   6.150
 8726POPC   C1A68799  12.057  13.579   6.450
 8726POPC   D2A68800  12.049  13.582   6.750
 8726POPC   C3A68801  12.028  13.605   7.050
 8726POPC   C4A68802  12.097  13.594   7.350
 8726POPC   C1B68803  12.348  13.526   6.450
 8726POPC   C2B68804  12.357  13.533   6.750
 8726POPC   C3B68805  12.321  13.522   7.050
 8726POPC   C4B68806  12.354  13.595   7.350
 8727POPC   NC368807  36.111  39.221   5.550
 8727POPC   PO468808  36.088  39.214   5.850
 8727POPC   GL168809  36.138  39.188   6.150
 8727POPC   GL268810  36.021  39.347   6.150
 8727POPC   C1A68811  36.091  39.247   6.450
 8727POPC   D2A68812  36.169  39.266   6.750
 8727POPC   C3A68813  36.133  39.274   7.050
 8727POPC   C4A68814  36.086  39.271   7.350
 8727POPC   C1B68815  35.928  39.369   6.450
 8727POPC   C2B68816  35.965  39.405   6.750
 8727POPC   C3B68817  35.918  39.384   7.050
 8727POPC   C4B68818  35.990  39.402   7.350
 8728POPC   NC368819  40.788  43.076   5.550
 8728POPC   PO468820  40.808  43.155   5.850
 8728POPC   GL168821  40.779  43.061   6.150
 8728POPC   GL268822  40.859  43.207   6.150
 8728POPC   C1A68823  40.772  43.138   6.450
 8728POPC   D2A68824  40.821  43.116   6.750
 8728POPC   C3A68825  40.811  43.064   7.050
 8728POPC   C4A68826  40.751  43.122   7.350
 8728POPC   C1B68827  40.980  43.296   6.450
 8728POPC   C2B68828  40.925  43.257   6.750
 8728POPC   C3B68829  40.974  43.318   7.050
 8728POPC   C4B68830  40.942  43.269   7.350
 8729POPC   NC368831   5.832  22.950   5.550
 8729POPC   PO468832   5.913  22.914   5.850
 8729POPC   GL168833   5.840  22.917   6.150
 8729POPC   GL268834   6.028  22.890   6.150
 8729POPC   C1A68835   5.826  22.956   6.450
 8729POPC   D2A68836   5.822  22.916   6.750
 8729POPC   C3A68837   5.821  22.935   7.050
 8729POPC   C4A68838   5.870  22.907   7.350
 8729POPC   C1B68839   6.099  22.804   6.450
 8729POPC   C2B68840   6.132  22.886   6.750
 8729POPC   C3B68841   6.091  22.797   7.050
 8729POPC   C4B68842   6.133  22.802   7.350
 8730POPC   NC368843   2.001   2.718   5.550
 8730POPC   PO468844   1.970   2.726   5.850
 8730POPC   GL168845   1.973   2.805   6.150
 8730POPC   GL268846   2.013   2.897   6.150
 8730POPC   C1A68847   2.026   2.768   6.450
 8730POPC   D2A68848   2.013   2.780   6.750
 8730POPC   C3A68849   1.985   2.760   7.050
 8730POPC   C4A68850   2.005   2.768   7.350
 8730POPC   C1B68851   2.004   3.016   6.450
 8730POPC   C2B68852   2.004   3.052   6.750
 8730POPC   C3B68853   2.044   2.972   7.050
 8730POPC   C4B68854   2.060   2.987   7.350
 8731POPC   NC368855  34.581  20.562   5.550
 8731POPC   PO468856  34.535  20.572   5.850
 8731POPC   GL168857  34.587  20.580   6.150
 8731POPC   GL268858  34.532  20.669   6.150
 8731POPC   C1A68859  34.575  20.572   6.450
 8731POPC   D2A68860  34.579  20.588   6.750
 8731POPC   C3A68861  34.574  20.648   7.050
 8731POPC   C4A68862  34.587  20.573   7.350
 8731POPC   C1B68863  34.452  20.832   6.450
 8731POPC   C2B68864  34.460  20.771   6.750
 8731POPC   C3B68865  34.443  20.856   7.050
 8731POPC   C4B68866  34.404  20.800   7.350
 8732POPC   NC368867   1.958  42.359   5.550
 8732POPC   PO468868   2.025  42.285   5.850
 8732POPC   GL168869   1.964  42.342   6.150
 8732POPC   GL268870   2.038  42.258   6.150
 8732POPC   C1A68871   1.996  42.379   6.450
 8732POPC   D2A68872   1.991  42.337   6.750
 8732POPC   C3A68873   2.032  42.288   7.050
 8732POPC   C4A68874   1.996  42.323   7.350
 8732POPC   C1B68875   2.112  42.132   6.450
 8732POPC   C2B68876   2.096  42.150   6.750
 8732POPC   C3B68877   2.145  42.151   7.050
 8732POPC   C4B68878   2.071  42.125   7.350
 8733POPC   NC368879   8.937   3.557   5.550
 8733POPC   PO468880   8.943   3.554   5.850
 8733POPC   GL168881   8.924   3.559   6.150
 8733POPC   GL268882   8.889   3.634   6.150
 8733POPC   C1A68883   9.021   3.543   6.450
 8733POPC   D2A68884   9.007   3.577   6.750
 8733POPC   C3A68885   9.002   3.545   7.050
 8733POPC   C4A68886   8.948   3.570   7.350
 8733POPC   C1B68887   8.895   3.798   6.450
 8733POPC   C2B68888   8.873   3.784   6.750
 8733POPC   C3B68889   8.832   3.776   7.050
 8733POPC   C4B68890   8.877   3.781   7.350
 8734POPC   NC368891  42.299  31.439   5.550
 8734POPC   PO468892  42.313  31.509   5.850
 8734POPC   GL168893  42.301  31.474   6.150
 8734POPC   GL268894  42.183  31.462   6.150
 8734POPC   C1A68895  42.350  31.489   6.450
 8734POPC   D2A68896  42.354  31.456   6.750
 8734POPC   C3A68897  42.330  31.488   7.050
 8734POPC   C4A68898  42.378  31.424   7.350
 8734POPC   C1B68899  42.077  31.592   6.450
 8734POPC   C2B68900  42.098  31.505   6.750
 8734POPC   C3B68901  42.132  31.543   7.050
 8734POPC   C4B68902  42.059  31.572   7.350
 8735POPC   NC368903  40.806  19.826   5.550
 8735POPC   PO468904  40.734  19.800   5.850
 8735POPC   GL168905  40.811  19.857   6.150
 8735POPC   GL268906  40.880  19.980   6.150
 8735POPC   C1A68907  40.750  19.832   6.450
 8735POPC   D2A68908  40.762  19.865   6.750
 8735POPC   C3A68909  40.805  19.841   7.050
 8735POPC   C4A68910  40.775  19.811   7.350
 8735POPC   C1B68911  40.881  20.064   6.450
 8735POPC   C2B68912  40.928  20.111   6.750
 8735POPC   C3B68913  40.916  20.109   7.050
 8735POPC   C4B68914  40.925  20.065   7.350
 8736POPC   NC368915   2.815  20.573   5.550
 8736POPC   PO468916   2.734  20.604   5.850
 8736POPC   GL168917   2.745  20.567   6.150
 8736POPC   GL268918   2.828  20.522   6.150
 8736POPC   C1A68919   2.728  20.585   6.450
 8736POPC   D2A68920   2.775  20.637   6.750
 8736POPC   C3A68921   2.771  20.605   7.050
 8736POPC   C4A68922   2.808  20.573   7.350
 8736POPC   C1B68923   2.870  20.397   6.450
 8736POPC   C2B68924   2.932  20.358   6.750
 8736POPC   C3B68925   2.903  20.413   7.050
 8736POPC   C4B68926   2.928  20.362   7.350
 8737POPC   NC368927  15.228  22.909   5.550
 8737POPC   PO468928  15.215  22.981   5.850
 8737POPC   GL168929  15.145  22.916   6.150
 8737POPC   GL268930  15.324  22.934   6.150
 8737POPC   C1A68931  15.222  22.906   6.450
 8737POPC   D2A68932  15.148  22.902   6.750
 8737POPC   C3A68933  15.191  22.924   7.050
 8737POPC   C4A68934  15.156  22.914   7.350
 8737POPC   C1B68935  15.418  23.015   6.450
 8737POPC   C2B68936  15.377  23.036   6.750
 8737POPC   C3B68937  15.422  23.059   7.050
 8737POPC   C4B68938  15.403  22.994   7.350
 8738POPC   NC368939  14.449  26.775   5.550
 8738POPC   PO468940  14.451  26.775   5.850
 8738POPC   GL168941  14.372  26.796   6.150
 8738POPC   GL268942  14.475  26.688   6.150
 8738POPC   C1A68943  14.452  26.854   6.450
 8738POPC   D2A68944  14.386  26.846   6.750
 8738POPC   C3A68945  14.391  26.865   7.050
 8738POPC   C4A68946  14.408  26.813   7.350
 8738POPC   C1B68947  14.479  26.558   6.450
 8738POPC   C2B68948  14.505  26.598   6.750
 8738POPC   C3B68949  14.522  26.622   7.050
 8738POPC   C4B68950  14.514  26.608   7.350
 8739POPC   NC368951   5.132  26.829   5.550
 8739POPC   PO468952   5.114  26.773   5.850
 8739POPC   GL168953   5.059  26.845   6.150
 8739POPC   GL268954   5.065  26.923   6.150
 8739POPC   C1A68955   5.107  26.818   6.450
 8739POPC   D2A68956   5.101  26.793   6.750
 8739POPC   C3A68957   5.065  26.778   7.050
 8739POPC   C4A68958   5.089  26.792   7.350
 8739POPC   C1B68959   5.135  27.116   6.450
 8739POPC   C2B68960   5.104  27.079   6.750
 8739POPC   C3B68961   5.104  27.076   7.050
 8739POPC   C4B68962   5.080  27.076   7.350
 8740POPC   NC368963  14.371   4.354   5.550
 8740POPC   PO468964  14.384   4.305   5.850
 8740POPC   GL168965  14.412   4.328   6.150
 8740POPC   GL268966  14.522   4.409   6.150
 8740POPC   C1A68967  14.418   4.365   6.450
 8740POPC   D2A68968  14.388   4.286   6.750
 8740POPC   C3A68969  14.375   4.286   7.050
 8740POPC   C4A68970  14.404   4.290   7.350
 8740POPC   C1B68971  14.597   4.444   6.450
 8740POPC   C2B68972  14.596   4.498   6.750
 8740POPC   C3B68973  14.582   4.440   7.050
 8740POPC   C4B68974  14.564   4.490   7.350
 8741POPC   NC368975  42.380   5.872   5.550
 8741POPC   PO468976  42.380   5.889   5.850
 8741POPC   GL168977  42.292   5.867   6.150
 8741POPC   GL268978  42.488   5.899   6.150
 8741POPC   C1A68979  42.305   5.873   6.450
 8741POPC   D2A68980  42.377   5.844   6.750
 8741POPC   C3A68981  42.382   5.890   7.050
 8741POPC   C4A68982  42.332   5.846   7.350
 8741POPC   C1B68983  42.567   5.878   6.450
 8741POPC   C2B68984  42.611   5.902   6.750
 8741POPC   C3B68985  42.561   5.933   7.050
 8741POPC   C4B68986  42.553   5.927   7.350
 8742POPC   NC368987  22.149  40.028   5.550
 8742POPC   PO468988  22.169  39.999   5.850
 8742POPC   GL168989  22.180  39.997   6.150
 8742POPC   GL268990  22.199  40.167   6.150
 8742POPC   C1A68991  22.146  40.002   6.450
 8742POPC   D2A68992  22.149  40.057   6.750
 8742POPC   C3A68993  22.127  40.051   7.050
 8742POPC   C4A68994  22.120  39.977   7.350
 8742POPC   C1B68995  22.197  40.250   6.450
 8742POPC   C2B68996  22.189  40.233   6.750
 8742POPC   C3B68997  22.173  40.216   7.050
 8742POPC   C4B68998  22.185  40.235   7.350
 8743POPC   NC368999  36.871  36.895   5.550
 8743POPC   PO469000  36.867  36.885   5.850
 8743POPC   GL169001  36.870  36.908   6.150
 8743POPC   GL269002  36.870  36.779   6.150
 8743POPC   C1A69003  36.944  36.903   6.450
 8743POPC   D2A69004  36.870  36.885   6.750
 8743POPC   C3A69005  36.937  36.907   7.050
 8743POPC   C4A69006  36.878  36.881   7.350
 8743POPC   C1B69007  36.766  36.733   6.450
 8743POPC   C2B69008  36.716  36.706   6.750
 8743POPC   C3B69009  36.710  36.662   7.050
 8743POPC   C4B69010  36.748  36.724   7.350
 8744POPC   NC369011  19.835   2.728   5.550
 8744POPC   PO469012  19.829   2.733   5.850
 8744POPC   GL169013  19.805   2.806   6.150
 8744POPC   GL269014  19.713   2.776   6.150
 8744POPC   C1A69015  19.841   2.775   6.450
 8744POPC   D2A69016  19.814   2.786   6.750
 8744POPC   C3A69017  19.840   2.796   7.050
 8744POPC   C4A69018  19.869   2.811   7.350
 8744POPC   C1B69019  19.546   2.727   6.450
 8744POPC   C2B69020  19.563   2.744   6.750
 8744POPC   C3B69021  19.564   2.710   7.050
 8744POPC   C4B69022  19.541   2.710   7.350
 8745POPC   NC369023  29.911  24.449   5.550
 8745POPC   PO469024  29.936  24.441   5.850
 8745POPC   GL169025  29.938  24.535   6.150
 8745POPC   GL269026  29.825  24.367   6.150
 8745POPC   C1A69027  29.939  24.476   6.450
 8745POPC   D2A69028  29.880  24.506   6.750
 8745POPC   C3A69029  29.893  24.488   7.050
 8745POPC   C4A69030  29.922  24.491   7.350
 8745POPC   C1B69031  29.758  24.351   6.450
 8745POPC   C2B69032  29.719  24.352   6.750
 8745POPC   C3B69033  29.769  24.323   7.050
 8745POPC   C4B69034  29.727  24.279   7.350
 8746POPC   NC369035  33.032  22.131   5.550
 8746POPC   PO469036  32.981  22.155   5.850
 8746POPC   GL169037  32.978  22.123   6.150
 8746POPC   GL269038  32.893  22.223   6.150
 8746POPC   C1A69039  33.006  22.121   6.450
 8746POPC   D2A69040  33.053  22.145   6.750
 8746POPC   C3A69041  33.010  22.195   7.050
 8746POPC   C4A69042  33.061  22.192   7.350
 8746POPC   C1B69043  32.772  22.279   6.450
 8746POPC   C2B69044  32.754  22.246   6.750
 8746POPC   C3B69045  32.771  22.286   7.050
 8746POPC   C4B69046  32.796  22.273   7.350
 8747POPC   NC369047  42.332   6.674   5.550
 8747POPC   PO469048  42.354   6.608   5.850
 8747POPC   GL169049  42.286   6.665   6.150
 8747POPC   GL269050  42.189   6.695   6.150
 8747POPC   C1A69051  42.338   6.634   6.450
 8747POPC   D2A69052  42.332   6.642   6.750
 8747POPC   C3A69053  42.353   6.623   7.050
 8747POPC   C4A69054  42.365   6.633   7.350
 8747POPC   C1B69055  42.044   6.688   6.450
 8747POPC   C2B69056  42.113   6.714   6.750
 8747POPC   C3B69057  42.121   6.635   7.050
 8747POPC   C4B69058  42.072   6.647   7.350
 8748POPC   NC369059  33.795  17.537   5.550
 8748POPC   PO469060  33.759  17.476   5.850
 8748POPC   GL169061  33.755  17.498   6.150
 8748POPC   GL269062  33.630  17.569   6.150
 8748POPC   C1A69063  33.820  17.511   6.450
 8748POPC   D2A69064  33.826  17.540   6.750
 8748POPC   C3A69065  33.784  17.479   7.050
 8748POPC   C4A69066  33.791  17.476   7.350
 8748POPC   C1B69067  33.582  17.540   6.450
 8748POPC   C2B69068  33.551  17.579   6.750
 8748POPC   C3B69069  33.545  17.515   7.050
 8748POPC   C4B69070  33.602  17.534   7.350
 8749POPC   NC369071  43.115  39.263   5.550
 8749POPC   PO469072  43.120  39.256   5.850
 8749POPC   GL169073  43.079  39.187   6.150
 8749POPC   GL269074  43.209  39.189   6.150
 8749POPC   C1A69075  43.095  39.264   6.450
 8749POPC   D2A69076  43.086  39.206   6.750
 8749POPC   C3A69077  43.149  39.235   7.050
 8749POPC   C4A69078  43.086  39.227   7.350
 8749POPC   C1B69079  43.325  39.193   6.450
 8749POPC   C2B69080  43.389  39.217   6.750
 8749POPC   C3B69081  43.371  39.249   7.050
 8749POPC   C4B69082  43.375  39.221   7.350
 8750POPC   NC369083  18.332  17.469   5.550
 8750POPC   PO469084  18.306  17.515   5.850
 8750POPC   GL169085  18.254  17.524   6.150
 8750POPC   GL269086  18.135  17.529   6.150
 8750POPC   C1A69087  18.253  17.521   6.450
 8750POPC   D2A69088  18.292  17.481   6.750
 8750POPC   C3A69089  18.274  17.471   7.050
 8750POPC   C4A69090  18.305  17.533   7.350
 8750POPC   C1B69091  17.995  17.626   6.450
 8750POPC   C2B69092  18.006  17.600   6.750
 8750POPC   C3B69093  18.050  17.608   7.050
 8750POPC   C4B69094  18.033  17.542   7.350
 8751POPC   NC369095  41.549  43.931   5.550
 8751POPC   PO469096  41.534  43.925   5.850
 8751POPC   GL169097  41.593  43.848   6.150
 8751POPC   GL269098  41.526  43.988   6.150
 8751POPC   C1A69099  41.560  43.878   6.450
 8751POPC   D2A69100  41.594  43.896   6.750
 8751POPC   C3A69101  41.553  43.924   7.050
 8751POPC   C4A69102  41.589  43.866   7.350
 8751POPC   C1B69103  41.529  44.149   6.450
 8751POPC   C2B69104  41.497  44.142   6.750
 8751POPC   C3B69105  41.573  44.134   7.050
 8751POPC   C4B69106  41.577  44.137   7.350
 8752POPC   NC369107   2.720  35.376   5.550
 8752POPC   PO469108   2.788  35.363   5.850
 8752POPC   GL169109   2.795  35.328   6.150
 8752POPC   GL269110   2.804  35.452   6.150
 8752POPC   C1A69111   2.795  35.363   6.450
 8752POPC   D2A69112   2.806  35.348   6.750
 8752POPC   C3A69113   2.732  35.338   7.050
 8752POPC   C4A69114   2.740  35.388   7.350
 8752POPC   C1B69115   2.861  35.574   6.450
 8752POPC   C2B69116   2.886  35.555   6.750
 8752POPC   C3B69117   2.822  35.601   7.050
 8752POPC   C4B69118   2.801  35.564   7.350
 8753POPC   NC369119  40.752  15.206   5.550
 8753POPC   PO469120  40.787  15.162   5.850
 8753POPC   GL169121  40.814  15.214   6.150
 8753POPC   GL269122  40.907  15.161   6.150
 8753POPC   C1A69123  40.744  15.169   6.450
 8753POPC   D2A69124  40.804  15.195   6.750
 8753POPC   C3A69125  40.822  15.149   7.050
 8753POPC   C4A69126  40.773  15.166   7.350
 8753POPC   C1B69127  40.968  15.067   6.450
 8753POPC   C2B69128  41.027  15.050   6.750
 8753POPC   C3B69129  41.028  15.093   7.050
 8753POPC   C4B69130  41.035  15.097   7.350
 8754POPC   NC369131   7.397  40.793   5.550
 8754POPC   PO469132   7.397  40.823   5.850
 8754POPC   GL169133   7.451  40.792   6.150
 8754POPC   GL269134   7.489  40.838   6.150
 8754POPC   C1A69135   7.390  40.776   6.450
 8754POPC   D2A69136   7.465  40.795   6.750
 8754POPC   C3A69137   7.410  40.749   7.050
 8754POPC   C4A69138   7.452  40.822   7.350
 8754POPC   C1B69139   7.611  40.967   6.450
 8754POPC   C2B69140   7.580  40.939   6.750
 8754POPC   C3B69141   7.611  41.032   7.050
 8754POPC   C4B69142   7.602  40.959   7.350
 8755POPC   NC369143  12.808  42.292   5.550
 8755POPC   PO469144  12.856  42.316   5.850
 8755POPC   GL169145  12.849  42.355   6.150
 8755POPC   GL269146  12.846  42.507   6.150
 8755POPC   C1A69147  12.849  42.372   6.450
 8755POPC   D2A69148  12.893  42.351   6.750
 8755POPC   C3A69149  12.873  42.297   7.050
 8755POPC   C4A69150  12.868  42.358   7.350
 8755POPC   C1B69151  12.897  42.552   6.450
 8755POPC   C2B69152  12.919  42.608   6.750
 8755POPC   C3B69153  12.842  42.619   7.050
 8755POPC   C4B69154  12.858  42.574   7.350
 8756POPC   NC369155  12.066  21.414   5.550
 8756POPC   PO469156  12.039  21.397   5.850
 8756POPC   GL169157  12.075  21.343   6.150
 8756POPC   GL269158  12.155  21.348   6.150
 8756POPC   C1A69159  12.095  21.378   6.450
 8756POPC   D2A69160  12.083  21.417   6.750
 8756POPC   C3A69161  12.048  21.370   7.050
 8756POPC   C4A69162  12.085  21.339   7.350
 8756POPC   C1B69163  12.328  21.329   6.450
 8756POPC   C2B69164  12.310  21.342   6.750
 8756POPC   C3B69165  12.274  21.273   7.050
 8756POPC   C4B69166  12.346  21.354   7.350
 8757POPC   NC369167  19.870  33.014   5.550
 8757POPC   PO469168  19.833  33.054   5.850
 8757POPC   GL169169  19.861  32.976   6.150
 8757POPC   GL269170  19.971  33.045   6.150
 8757POPC   C1A69171  19.841  32.976   6.450
 8757POPC   D2A69172  19.860  33.034   6.750
 8757POPC   C3A69173  19.819  33.010   7.050
 8757POPC   C4A69174  19.813  32.977   7.350
 8757POPC   C1B69175  20.091  33.031   6.450
 8757POPC   C2B69176  20.114  32.981   6.750
 8757POPC   C3B69177  20.064  32.978   7.050
 8757POPC   C4B69178  20.109  32.950   7.350
 8758POPC   NC369179   2.743   1.215   5.550
 8758POPC   PO469180   2.723   1.177   5.850
 8758POPC   GL169181   2.785   1.170   6.150
 8758POPC   GL269182   2.753   1.040   6.150
 8758POPC   C1A69183   2.767   1.244   6.450
 8758POPC   D2A69184   2.799   1.248   6.750
 8758POPC   C3A69185   2.790   1.167   7.050
 8758POPC   C4A69186   2.775   1.258   7.350
 8758POPC   C1B69187   2.782   1.004   6.450
 8758POPC   C2B69188   2.760   1.001   6.750
 8758POPC   C3B69189   2.715   0.916   7.050
 8758POPC   C4B69190   2.775   0.990   7.350
 8759POPC   NC369191  42.290  14.360   5.550
 8759POPC   PO469192  42.295  14.421   5.850
 8759POPC   GL169193  42.304  14.432   6.150
 8759POPC   GL269194  42.333  14.264   6.150
 8759POPC   C1A69195  42.285  14.371   6.450
 8759POPC   D2A69196  42.300  14.354   6.750
 8759POPC   C3A69197  42.365  14.413   7.050
 8759POPC   C4A69198  42.289  14.369   7.350
 8759POPC   C1B69199  42.390  14.206   6.450
 8759POPC   C2B69200  42.439  14.133   6.750
 8759POPC   C3B69201  42.385  14.122   7.050
 8759POPC   C4B69202  42.416  14.168   7.350
 8760POPC   NC369203  31.465  22.894   5.550
 8760POPC   PO469204  31.428  22.906   5.850
 8760POPC   GL169205  31.482  22.916   6.150
 8760POPC   GL269206  31.549  23.002   6.150
 8760POPC   C1A69207  31.462  22.919   6.450
 8760POPC   D2A69208  31.464  22.900   6.750
 8760POPC   C3A69209  31.507  22.924   7.050
 8760POPC   C4A69210  31.451  22.898   7.350
 8760POPC   C1B69211  31.710  23.026   6.450
 8760POPC   C2B69212  31.683  23.007   6.750
 8760POPC   C3B69213  31.678  23.011   7.050
 8760POPC   C4B69214  31.705  22.997   7.350
 8761POPC   NC369215  26.801  41.557   5.550
 8761POPC   PO469216  26.850  41.605   5.850
 8761POPC   GL169217  26.855  41.571   6.150
 8761POPC   GL269218  26.705  41.657   6.150
 8761POPC   C1A69219  26.835  41.608   6.450
 8761POPC   D2A69220  26.857  41.526   6.750
 8761POPC   C3A69221  26.799  41.525   7.050
 8761POPC   C4A69222  26.789  41.535   7.350
 8761POPC   C1B69223  26.662  41.774   6.450
 8761POPC   C2B69224  26.693  41.706   6.750
 8761POPC   C3B69225  26.704  41.765   7.050
 8761POPC   C4B69226  26.645  41.735   7.350
 8762POPC   NC369227  28.341  37.630   5.550
 8762POPC   PO469228  28.380  37.673   5.850
 8762POPC   GL169229  28.339  37.676   6.150
 8762POPC   GL269230  28.298  37.632   6.150
 8762POPC   C1A69231  28.344  37.704   6.450
 8762POPC   D2A69232  28.377  37.679   6.750
 8762POPC   C3A69233  28.391  37.676   7.050
 8762POPC   C4A69234  28.339  37.668   7.350
 8762POPC   C1B69235  28.148  37.538   6.450
 8762POPC   C2B69236  28.204  37.570   6.750
 8762POPC   C3B69237  28.190  37.569   7.050
 8762POPC   C4B69238  28.148  37.533   7.350
 8763POPC   NC369239  22.906   8.148   5.550
 8763POPC   PO469240  22.934   8.147   5.850
 8763POPC   GL169241  22.931   8.174   6.150
 8763POPC   GL269242  22.946   8.341   6.150
 8763POPC   C1A69243  22.903   8.244   6.450
 8763POPC   D2A69244  22.928   8.148   6.750
 8763POPC   C3A69245  22.903   8.245   7.050
 8763POPC   C4A69246  22.906   8.147   7.350
 8763POPC   C1B69247  22.972   8.406   6.450
 8763POPC   C2B69248  23.048   8.442   6.750
 8763POPC   C3B69249  23.019   8.449   7.050
 8763POPC   C4B69250  22.987   8.444   7.350
 8764POPC   NC369251  31.508  21.379   5.550
 8764POPC   PO469252  31.443  21.428   5.850
 8764POPC   GL169253  31.504  21.339   6.150
 8764POPC   GL269254  31.408  21.489   6.150
 8764POPC   C1A69255  31.511  21.416   6.450
 8764POPC   D2A69256  31.482  21.346   6.750
 8764POPC   C3A69257  31.460  21.384   7.050
 8764POPC   C4A69258  31.470  21.384   7.350
 8764POPC   C1B69259  31.280  21.527   6.450
 8764POPC   C2B69260  31.296  21.462   6.750
 8764POPC   C3B69261  31.277  21.531   7.050
 8764POPC   C4B69262  31.233  21.530   7.350
 8765POPC   NC369263  32.205  43.846   5.550
 8765POPC   PO469264  32.222  43.907   5.850
 8765POPC   GL169265  32.242  43.891   6.150
 8765POPC   GL269266  32.411  43.919   6.150
 8765POPC   C1A69267  32.274  43.893   6.450
 8765POPC   D2A69268  32.254  43.931   6.750
 8765POPC   C3A69269  32.295  43.930   7.050
 8765POPC   C4A69270  32.214  43.896   7.350
 8765POPC   C1B69271  32.488  43.910   6.450
 8765POPC   C2B69272  32.462  43.937   6.750
 8765POPC   C3B69273  32.460  43.885   7.050
 8765POPC   C4B69274  32.493  43.909   7.350
 8766POPC   NC369275  15.933  29.896   5.550
 8766POPC   PO469276  16.004  29.895   5.850
 8766POPC   GL169277  15.996  29.934   6.150
 8766POPC   GL269278  16.053  29.861   6.150
 8766POPC   C1A69279  15.929  29.911   6.450
 8766POPC   D2A69280  15.946  29.929   6.750
 8766POPC   C3A69281  15.980  29.913   7.050
 8766POPC   C4A69282  15.994  29.877   7.350
 8766POPC   C1B69283  16.183  29.783   6.450
 8766POPC   C2B69284  16.158  29.782   6.750
 8766POPC   C3B69285  16.191  29.764   7.050
 8766POPC   C4B69286  16.143  29.765   7.350
 8767POPC   NC369287  14.430  21.396   5.550
 8767POPC   PO469288  14.405  21.388   5.850
 8767POPC   GL169289  14.437  21.383   6.150
 8767POPC   GL269290  14.250  21.456   6.150
 8767POPC   C1A69291  14.402  21.369   6.450
 8767POPC   D2A69292  14.408  21.436   6.750
 8767POPC   C3A69293  14.419  21.422   7.050
 8767POPC   C4A69294  14.365  21.404   7.350
 8767POPC   C1B69295  14.180  21.495   6.450
 8767POPC   C2B69296  14.216  21.509   6.750
 8767POPC   C3B69297  14.224  21.496   7.050
 8767POPC   C4B69298  14.237  21.486   7.350
 8768POPC   NC369299   1.984  22.161   5.550
 8768POPC   PO469300   1.963  22.127   5.850
 8768POPC   GL169301   2.038  22.174   6.150
 8768POPC   GL269302   2.081  22.055   6.150
 8768POPC   C1A69303   1.950  22.115   6.450
 8768POPC   D2A69304   2.022  22.137   6.750
 8768POPC   C3A69305   2.013  22.202   7.050
 8768POPC   C4A69306   1.996  22.162   7.350
 8768POPC   C1B69307   2.133  22.023   6.450
 8768POPC   C2B69308   2.138  21.982   6.750
 8768POPC   C3B69309   2.207  21.947   7.050
 8768POPC   C4B69310   2.177  22.026   7.350
 8769POPC   NC369311  26.768  31.478   5.550
 8769POPC   PO469312  26.823  31.455   5.850
 8769POPC   GL169313  26.860  31.496   6.150
 8769POPC   GL269314  26.986  31.476   6.150
 8769POPC   C1A69315  26.800  31.500   6.450
 8769POPC   D2A69316  26.820  31.450   6.750
 8769POPC   C3A69317  26.834  31.436   7.050
 8769POPC   C4A69318  26.779  31.498   7.350
 8769POPC   C1B69319  27.077  31.390   6.450
 8769POPC   C2B69320  27.035  31.383   6.750
 8769POPC   C3B69321  27.013  31.419   7.050
 8769POPC   C4B69322  27.018  31.371   7.350
 8770POPC   NC369323  33.760   7.439   5.550
 8770POPC   PO469324  33.831   7.395   5.850
 8770POPC   GL169325  33.823   7.410   6.150
 8770POPC   GL269326  33.876   7.488   6.150
 8770POPC   C1A69327  33.780   7.468   6.450
 8770POPC   D2A69328  33.835   7.385   6.750
 8770POPC   C3A69329  33.846   7.450   7.050
 8770POPC   C4A69330  33.823   7.467   7.350
 8770POPC   C1B69331  33.995   7.565   6.450
 8770POPC   C2B69332  34.062   7.501   6.750
 8770POPC   C3B69333  34.028   7.524   7.050
 8770POPC   C4B69334  34.052   7.560   7.350
 8771POPC   NC369335  43.892  17.514   5.550
 8771POPC   PO469336  43.901  17.501   5.850
 8771POPC   GL169337  43.920  17.473   6.150
 8771POPC   GL269338  44.011  17.447   6.150
 8771POPC   C1A69339  43.862  17.508   6.450
 8771POPC   D2A69340  43.895  17.548   6.750
 8771POPC   C3A69341  43.860  17.481   7.050
 8771POPC   C4A69342  43.900  17.469   7.350
 8771POPC   C1B69343  44.104  17.421   6.450
 8771POPC   C2B69344  44.141  17.457   6.750
 8771POPC   C3B69345  44.110  17.420   7.050
 8771POPC   C4B69346  44.165  17.420   7.350
 8772POPC   NC369347  42.311  44.674   5.550
 8772POPC   PO469348  42.377  44.616   5.850
 8772POPC   GL169349  42.359  44.678   6.150
 8772POPC   GL269350  42.231  44.800   6.150
 8772POPC   C1A69351  42.376  44.648   6.450
 8772POPC   D2A69352  42.303  44.613   6.750
 8772POPC   C3A69353  42.315  44.620   7.050
 8772POPC   C4A69354  42.321  44.693   7.350
 8772POPC   C1B69355  42.187  44.802   6.450
 8772POPC   C2B69356  42.185  44.864   6.750
 8772POPC   C3B69357  42.206  44.887   7.050
 8772POPC   C4B69358  42.140  44.869   7.350
 8773POPC   NC369359  38.482   8.984   5.550
 8773POPC   PO469360  38.422   8.930   5.850
 8773POPC   GL169361  38.414   8.968   6.150
 8773POPC   GL269362  38.594   8.946   6.150
 8773POPC   C1A69363  38.485   8.943   6.450
 8773POPC   D2A69364  38.435   8.939   6.750
 8773POPC   C3A69365  38.441   8.937   7.050
 8773POPC   C4A69366  38.493   9.002   7.350
 8773POPC   C1B69367  38.699   8.881   6.450
 8773POPC   C2B69368  38.655   8.889   6.750
 8773POPC   C3B69369  38.623   8.854   7.050
 8773POPC   C4B69370  38.675   8.847   7.350
 8774POPC   NC369371  20.593  34.615   5.550
 8774POPC   PO469372  20.593  34.556   5.850
 8774POPC   GL169373  20.648  34.531   6.150
 8774POPC   GL269374  20.436  34.598   6.150
 8774POPC   C1A69375  20.599  34.616   6.450
 8774POPC   D2A69376  20.623  34.614   6.750
 8774POPC   C3A69377  20.595  34.530   7.050
 8774POPC   C4A69378  20.640  34.537   7.350
 8774POPC   C1B69379  20.325  34.575   6.450
 8774POPC   C2B69380  20.317  34.578   6.750
 8774POPC   C3B69381  20.365  34.565   7.050
 8774POPC   C4B69382  20.350  34.602   7.350
 8775POPC   NC369383  19.032   5.124   5.550
 8775POPC   PO469384  19.016   5.064   5.850
 8775POPC   GL169385  19.084   5.141   6.150
 8775POPC   GL269386  19.031   4.989   6.150
 8775POPC   C1A69387  19.099   5.140   6.450
 8775POPC   D2A69388  19.100   5.143   6.750
 8775POPC   C3A69389  19.046   5.091   7.050
 8775POPC   C4A69390  19.050   5.089   7.350
 8775POPC   C1B69391  19.088   4.873   6.450
 8775POPC   C2B69392  19.021   4.843   6.750
 8775POPC   C3B69393  19.079   4.843   7.050
 8775POPC   C4B69394  19.019   4.856   7.350
 8776POPC   NC369395  26.828  21.349   5.550
 8776POPC   PO469396  26.853  21.366   5.850
 8776POPC   GL169397  26.820  21.356   6.150
 8776POPC   GL269398  26.826  21.502   6.150
 8776POPC   C1A69399  26.785  21.341   6.450
 8776POPC   D2A69400  26.786  21.371   6.750
 8776POPC   C3A69401  26.810  21.428   7.050
 8776POPC   C4A69402  26.865  21.418   7.350
 8776POPC   C1B69403  26.874  21.680   6.450
 8776POPC   C2B69404  26.819  21.620   6.750
 8776POPC   C3B69405  26.903  21.681   7.050
 8776POPC   C4B69406  26.817  21.583   7.350
 8777POPC   NC369407   6.694  25.223   5.550
 8777POPC   PO469408   6.612  25.279   5.850
 8777POPC   GL169409   6.597  25.226   6.150
 8777POPC   GL269410   6.750  25.212   6.150
 8777POPC   C1A69411   6.638  25.233   6.450
 8777POPC   D2A69412   6.645  25.294   6.750
 8777POPC   C3A69413   6.629  25.249   7.050
 8777POPC   C4A69414   6.636  25.296   7.350
 8777POPC   C1B69415   6.877  25.148   6.450
 8777POPC   C2B69416   6.868  25.171   6.750
 8777POPC   C3B69417   6.898  25.168   7.050
 8777POPC   C4B69418   6.901  25.177   7.350
 8778POPC   NC369419  36.106  31.452   5.550
 8778POPC   PO469420  36.167  31.461   5.850
 8778POPC   GL169421  36.122  31.492   6.150
 8778POPC   GL269422  36.203  31.424   6.150
 8778POPC   C1A69423  36.104  31.474   6.450
 8778POPC   D2A69424  36.086  31.446   6.750
 8778POPC   C3A69425  36.093  31.516   7.050
 8778POPC   C4A69426  36.133  31.460   7.350
 8778POPC   C1B69427  36.342  31.414   6.450
 8778POPC   C2B69428  36.349  31.367   6.750
 8778POPC   C3B69429  36.354  31.395   7.050
 8778POPC   C4B69430  36.319  31.426   7.350
 8779POPC   NC369431  35.305  18.289   5.550
 8779POPC   PO469432  35.368  18.275   5.850
 8779POPC   GL169433  35.310  18.295   6.150
 8779POPC   GL269434  35.276  18.309   6.150
 8779POPC   C1A69435  35.392  18.306   6.450
 8779POPC   D2A69436  35.317  18.291   6.750
 8779POPC   C3A69437  35.337  18.273   7.050
 8779POPC   C4A69438  35.305  18.279   7.350
 8779POPC   C1B69439  35.072  18.329   6.450
 8779POPC   C2B69440  35.102  18.380   6.750
 8779POPC   C3B69441  35.098  18.357   7.050
 8779POPC   C4B69442  35.081  18.385   7.350
 8780POPC   NC369443  42.287  24.448   5.550
 8780POPC   PO469444  42.328  24.499   5.850
 8780POPC   GL169445  42.311  24.531   6.150
 8780POPC   GL269446  42.214  24.455   6.150
 8780POPC   C1A69447  42.287  24.539   6.450
 8780POPC   D2A69448  42.303  24.522   6.750
 8780POPC   C3A69449  42.353  24.456   7.050
 8780POPC   C4A69450  42.354  24.473   7.350
 8780POPC   C1B69451  42.171  24.341   6.450
 8780POPC   C2B69452  42.154  24.381   6.750
 8780POPC   C3B69453  42.146  24.404   7.050
 8780POPC   C4B69454  42.154  24.374   7.350
 8781POPC   NC369455  36.867  38.502   5.550
 8781POPC   PO469456  36.872  38.501   5.850
 8781POPC   GL169457  36.887  38.436   6.150
 8781POPC   GL269458  36.770  38.437   6.150
 8781POPC   C1A69459  36.885  38.505   6.450
 8781POPC   D2A69460  36.878  38.466   6.750
 8781POPC   C3A69461  36.863  38.408   7.050
 8781POPC   C4A69462  36.907  38.457   7.350
 8781POPC   C1B69463  36.685  38.380   6.450
 8781POPC   C2B69464  36.691  38.436   6.750
 8781POPC   C3B69465  36.685  38.385   7.050
 8781POPC   C4B69466  36.685  38.359   7.350
 8782POPC   NC369467  39.987   1.208   5.550
 8782POPC   PO469468  40.002   1.264   5.850
 8782POPC   GL169469  40.046   1.238   6.150
 8782POPC   GL269470  39.875   1.149   6.150
 8782POPC   C1A69471  40.018   1.256   6.450
 8782POPC   D2A69472  39.972   1.239   6.750
 8782POPC   C3A69473  39.998   1.254   7.050
 8782POPC   C4A69474  40.047   1.203   7.350
 8782POPC   C1B69475  39.740   1.073   6.450
 8782POPC   C2B69476  39.808   1.118   6.750
 8782POPC   C3B69477  39.785   1.149   7.050
 8782POPC   C4B69478  39.780   1.103   7.350
 8783POPC   NC369479  19.843  36.124   5.550
 8783POPC   PO469480  19.824  36.144   5.850
 8783POPC   GL169481  19.819  36.095   6.150
 8783POPC   GL269482  19.956  36.194   6.150
 8783POPC   C1A69483  19.799  36.119   6.450
 8783POPC   D2A69484  19.820  36.132   6.750
 8783POPC   C3A69485  19.822  36.102   7.050
 8783POPC   C4A69486  19.830  36.080   7.350
 8783POPC   C1B69487  20.091  36.299   6.450
 8783POPC   C2B69488  20.054  36.255   6.750
 8783POPC   C3B69489  20.029  36.272   7.050
 8783POPC   C4B69490  20.034  36.239   7.350
 8784POPC   NC369491  23.753   6.630   5.550
 8784POPC   PO469492  23.706   6.617   5.850
 8784POPC   GL169493  23.712   6.616   6.150
 8784POPC   GL269494  23.802   6.629   6.150
 8784POPC   C1A69495  23.746   6.609   6.450
 8784POPC   D2A69496  23.703   6.693   6.750
 8784POPC   C3A69497  23.682   6.666   7.050
 8784POPC   C4A69498  23.716   6.632   7.350
 8784POPC   C1B69499  23.945   6.614   6.450
 8784POPC   C2B69500  23.979   6.587   6.750
 8784POPC   C3B69501  23.988   6.612   7.050
 8784POPC   C4B69502  23.930   6.551   7.350
 8785POPC   NC369503  38.469  28.401   5.550
 8785POPC   PO469504  38.500  28.395   5.850
 8785POPC   GL169505  38.497  28.403   6.150
 8785POPC   GL269506  38.531  28.449   6.150
 8785POPC   C1A69507  38.457  28.376   6.450
 8785POPC   D2A69508  38.462  28.327   6.750
 8785POPC   C3A69509  38.460  28.372   7.050
 8785POPC   C4A69510  38.469  28.388   7.350
 8785POPC   C1B69511  38.579  28.542   6.450
 8785POPC   C2B69512  38.586  28.516   6.750
 8785POPC   C3B69513  38.664  28.549   7.050
 8785POPC   C4B69514  38.633  28.564   7.350
 8786POPC   NC369515   8.224  33.802   5.550
 8786POPC   PO469516   8.164  33.778   5.850
 8786POPC   GL169517   8.176  33.828   6.150
 8786POPC   GL269518   8.290  33.694   6.150
 8786POPC   C1A69519   8.150  33.816   6.450
 8786POPC   D2A69520   8.213  33.759   6.750
 8786POPC   C3A69521   8.166  33.833   7.050
 8786POPC   C4A69522   8.231  33.819   7.350
 8786POPC   C1B69523   8.411  33.604   6.450
 8786POPC   C2B69524   8.375  33.632   6.750
 8786POPC   C3B69525   8.392  33.575   7.050
 8786POPC   C4B69526   8.377  33.582   7.350
 8787POPC   NC369527   2.780   4.355   5.550
 8787POPC   PO469528   2.813   4.317   5.850
 8787POPC   GL169529   2.723   4.328   6.150
 8787POPC   GL269530   2.628   4.402   6.150
 8787POPC   C1A69531   2.780   4.300   6.450
 8787POPC   D2A69532   2.761   4.352   6.750
 8787POPC   C3A69533   2.738   4.322   7.050
 8787POPC   C4A69534   2.741   4.275   7.350
 8787POPC   C1B69535   2.536   4.416   6.450
 8787POPC   C2B69536   2.537   4.385   6.750
 8787POPC   C3B69537   2.562   4.349   7.050
 8787POPC   C4B69538   2.547   4.366   7.350
 8788POPC   NC369539  26.801  33.042   5.550
 8788POPC   PO469540  26.816  33.039   5.850
 8788POPC   GL169541  26.800  33.056   6.150
 8788POPC   GL269542  26.952  33.004   6.150
 8788POPC   C1A69543  26.865  33.066   6.450
 8788POPC   D2A69544  26.866  32.998   6.750
 8788POPC   C3A69545  26.814  33.045   7.050
 8788POPC   C4A69546  26.849  33.027   7.350
 8788POPC   C1B69547  27.030  33.029   6.450
 8788POPC   C2B69548  27.082  33.002   6.750
 8788POPC   C3B69549  27.076  33.063   7.050
 8788POPC   C4B69550  27.087  33.077   7.350
 8789POPC   NC369551  22.190  43.843   5.550
 8789POPC   PO469552  22.176  43.879   5.850
 8789POPC   GL169553  22.113  43.917   6.150
 8789POPC   GL269554  22.146  43.799   6.150
 8789POPC   C1A69555  22.130  43.923   6.450
 8789POPC   D2A69556  22.205  43.865   6.750
 8789POPC   C3A69557  22.154  43.869   7.050
 8789POPC   C4A69558  22.125  43.899   7.350
 8789POPC   C1B69559  22.085  43.657   6.450
 8789POPC   C2B69560  22.008  43.629   6.750
 8789POPC   C3B69561  22.092  43.693   7.050
 8789POPC   C4B69562  22.082  43.709   7.350
 8790POPC   NC369563  42.368  39.989   5.550
 8790POPC   PO469564  42.354  40.050   5.850
 8790POPC   GL169565  42.308  40.028   6.150
 8790POPC   GL269566  42.303  40.177   6.150
 8790POPC   C1A69567  42.382  40.000   6.450
 8790POPC   D2A69568  42.366  39.966   6.750
 8790POPC   C3A69569  42.353  39.971   7.050
 8790POPC   C4A69570  42.317  39.988   7.350
 8790POPC   C1B69571  42.379  40.305   6.450
 8790POPC   C2B69572  42.357  40.220   6.750
 8790POPC   C3B69573  42.339  40.288   7.050
 8790POPC   C4B69574  42.319  40.227   7.350
 8791POPC   NC369575  22.901   0.407   5.550
 8791POPC   PO469576  22.952   0.401   5.850
 8791POPC   GL169577  22.899   0.465   6.150
 8791POPC   GL269578  22.863   0.405   6.150
 8791POPC   C1A69579  22.923   0.472   6.450
 8791POPC   D2A69580  22.937   0.390   6.750
 8791POPC   C3A69581  22.932   0.412   7.050
 8791POPC   C4A69582  22.966   0.443   7.350
 8791POPC   C1B69583  22.724   0.475   6.450
 8791POPC   C2B69584  22.673   0.428   6.750
 8791POPC   C3B69585  22.711   0.500   7.050
 8791POPC   C4B69586  22.676   0.433   7.350
 8792POPC   NC369587  29.888   1.257   5.550
 8792POPC   PO469588  29.956   1.164   5.850
 8792POPC   GL169589  29.937   1.172   6.150
 8792POPC   GL269590  30.041   1.237   6.150
 8792POPC   C1A69591  29.917   1.256   6.450
 8792POPC   D2A69592  29.896   1.194   6.750
 8792POPC   C3A69593  29.957   1.195   7.050
 8792POPC   C4A69594  29.878   1.226   7.350
 8792POPC   C1B69595  30.124   1.269   6.450
 8792POPC   C2B69596  30.147   1.253   6.750
 8792POPC   C3B69597  30.132   1.348   7.050
 8792POPC   C4B69598  30.152   1.331   7.350
 8793POPC   NC369599  30.679  26.016   5.550
 8793POPC   PO469600  30.721  26.058   5.850
 8793POPC   GL169601  30.668  26.090   6.150
 8793POPC   GL269602  30.836  26.116   6.150
 8793POPC   C1A69603  30.681  26.067   6.450
 8793POPC   D2A69604  30.745  26.009   6.750
 8793POPC   C3A69605  30.730  26.065   7.050
 8793POPC   C4A69606  30.648  26.014   7.350
 8793POPC   C1B69607  30.926  26.177   6.450
 8793POPC   C2B69608  30.924  26.170   6.750
 8793POPC   C3B69609  30.897  26.179   7.050
 8793POPC   C4B69610  30.883  26.148   7.350
 8794POPC   NC369611   1.966  23.672   5.550
 8794POPC   PO469612   1.957  23.670   5.850
 8794POPC   GL169613   2.034  23.726   6.150
 8794POPC   GL269614   2.085  23.634   6.150
 8794POPC   C1A69615   2.002  23.713   6.450
 8794POPC   D2A69616   1.991  23.740   6.750
 8794POPC   C3A69617   1.973  23.749   7.050
 8794POPC   C4A69618   2.034  23.669   7.350
 8794POPC   C1B69619   2.115  23.526   6.450
 8794POPC   C2B69620   2.151  23.503   6.750
 8794POPC   C3B69621   2.110  23.501   7.050
 8794POPC   C4B69622   2.164  23.506   7.350
 8795POPC   NC369623  21.352  39.193   5.550
 8795POPC   PO469624  21.371  39.234   5.850
 8795POPC   GL169625  21.407  39.211   6.150
 8795POPC   GL269626  21.306  39.161   6.150
 8795POPC   C1A69627  21.365  39.238   6.450
 8795POPC   D2A69628  21.418  39.197   6.750
 8795POPC   C3A69629  21.351  39.280   7.050
 8795POPC   C4A69630  21.431  39.272   7.350
 8795POPC   C1B69631  21.218  39.078   6.450
 8795POPC   C2B69632  21.158  39.071   6.750
 8795POPC   C3B69633  21.206  39.084   7.050
 8795POPC   C4B69634  21.237  39.093   7.350
 8796POPC   NC369635  17.503  11.263   5.550
 8796POPC   PO469636  17.540  11.279   5.850
 8796POPC   GL169637  17.482  11.257   6.150
 8796POPC   GL269638  17.425  11.244   6.150
 8796POPC   C1A69639  17.527  11.291   6.450
 8796POPC   D2A69640  17.503  11.302   6.750
 8796POPC   C3A69641  17.489  11.278   7.050
 8796POPC   C4A69642  17.504  11.327   7.350
 8796POPC   C1B69643  17.270  11.202   6.450
 8796POPC   C2B69644  17.244  11.246   6.750
 8796POPC   C3B69645  17.214  11.210   7.050
 8796POPC   C4B69646  17.245  11.245   7.350
 8797POPC   NC369647  44.708  16.739   5.550
 8797POPC   PO469648  44.689  16.770   5.850
 8797POPC   GL169649  44.615  16.698   6.150
 8797POPC   GL269650  44.643  16.846   6.150
 8797POPC   C1A69651  44.612  16.729   6.450
 8797POPC   D2A69652  44.638  16.715   6.750
 8797POPC   C3A69653  44.626  16.763   7.050
 8797POPC   C4A69654  44.683  16.774   7.350
 8797POPC   C1B69655  44.692  16.955   6.450
 8797POPC   C2B69656  44.643  16.976   6.750
 8797POPC   C3B69657  44.620  16.937   7.050
 8797POPC   C4B69658  44.618  16.972   7.350
 8798POPC   NC369659  26.027  41.592   5.550
 8798POPC   PO469660  25.999  41.577   5.850
 8798POPC   GL169661  26.030  41.550   6.150
 8798POPC   GL269662  26.025  41.457   6.150
 8798POPC   C1A69663  26.001  41.543   6.450
 8798POPC   D2A69664  26.086  41.583   6.750
 8798POPC   C3A69665  26.068  41.586   7.050
 8798POPC   C4A69666  26.010  41.553   7.350
 8798POPC   C1B69667  26.050  41.353   6.450
 8798POPC   C2B69668  25.981  41.342   6.750
 8798POPC   C3B69669  25.995  41.292   7.050
 8798POPC   C4B69670  26.002  41.264   7.350
 8799POPC   NC369671  30.665   9.708   5.550
 8799POPC   PO469672  30.715   9.797   5.850
 8799POPC   GL169673  30.737   9.750   6.150
 8799POPC   GL269674  30.818   9.764   6.150
 8799POPC   C1A69675  30.681   9.796   6.450
 8799POPC   D2A69676  30.648   9.757   6.750
 8799POPC   C3A69677  30.663   9.754   7.050
 8799POPC   C4A69678  30.715   9.761   7.350
 8799POPC   C1B69679  30.921   9.810   6.450
 8799POPC   C2B69680  30.916   9.871   6.750
 8799POPC   C3B69681  30.965   9.872   7.050
 8799POPC   C4B69682  30.895   9.833   7.350
 8800POPC   NC369683   3.575  19.093   5.550
 8800POPC   PO469684   3.563  19.017   5.850
 8800POPC   GL169685   3.492  19.108   6.150
 8800POPC   GL269686   3.575  18.924   6.150
 8800POPC   C1A69687   3.525  19.052   6.450
 8800POPC   D2A69688   3.515  19.027   6.750
 8800POPC   C3A69689   3.549  19.092   7.050
 8800POPC   C4A69690   3.562  19.074   7.350
 8800POPC   C1B69691   3.602  18.802   6.450
 8800POPC   C2B69692   3.565  18.834   6.750
 8800POPC   C3B69693   3.566  18.798   7.050
 8800POPC   C4B69694   3.570  18.769   7.350
 8801POPC   NC369695  40.779  26.038   5.550
 8801POPC   PO469696  40.752  26.026   5.850
 8801POPC   GL169697  40.820  26.003   6.150
 8801POPC   GL269698  40.820  25.903   6.150
 8801POPC   C1A69699  40.771  26.028   6.450
 8801POPC   D2A69700  40.761  26.008   6.750
 8801POPC   C3A69701  40.744  26.053   7.050
 8801POPC   C4A69702  40.821  26.067   7.350
 8801POPC   C1B69703  40.933  25.808   6.450
 8801POPC   C2B69704  40.896  25.889   6.750
 8801POPC   C3B69705  40.920  25.880   7.050
 8801POPC   C4B69706  40.912  25.881   7.350
 8802POPC   NC369707   4.283  11.251   5.550
 8802POPC   PO469708   4.300  11.296   5.850
 8802POPC   GL169709   4.274  11.338   6.150
 8802POPC   GL269710   4.252  11.410   6.150
 8802POPC   C1A69711   4.302  11.304   6.450
 8802POPC   D2A69712   4.316  11.292   6.750
 8802POPC   C3A69713   4.297  11.346   7.050
 8802POPC   C4A69714   4.333  11.303   7.350
 8802POPC   C1B69715   4.139  11.511   6.450
 8802POPC   C2B69716   4.204  11.511   6.750
 8802POPC   C3B69717   4.150  11.514   7.050
 8802POPC   C4B69718   4.182  11.501   7.350
 8803POPC   NC369719  44.618  15.993   5.550
 8803POPC   PO469720  44.655  15.921   5.850
 8803POPC   GL169721  44.620  15.984   6.150
 8803POPC   GL269722  44.624  16.070   6.150
 8803POPC   C1A69723  44.709  16.003   6.450
 8803POPC   D2A69724  44.689  15.912   6.750
 8803POPC   C3A69725  44.660  15.996   7.050
 8803POPC   C4A69726  44.675  15.973   7.350
 8803POPC   C1B69727  44.726  16.227   6.450
 8803POPC   C2B69728  44.703  16.160   6.750
 8803POPC   C3B69729  44.719  16.254   7.050
 8803POPC   C4B69730  44.711  16.193   7.350
 8804POPC   NC369731  20.650  39.281   5.550
 8804POPC   PO469732  20.594  39.213   5.850
 8804POPC   GL169733  20.614  39.214   6.150
 8804POPC   GL269734  20.674  39.067   6.150
 8804POPC   C1A69735  20.607  39.236   6.450
 8804POPC   D2A69736  20.640  39.279   6.750
 8804POPC   C3A69737  20.656  39.280   7.050
 8804POPC   C4A69738  20.656  39.187   7.350
 8804POPC   C1B69739  20.674  38.977   6.450
 8804POPC   C2B69740  20.672  39.006   6.750
 8804POPC   C3B69741  20.661  39.037   7.050
 8804POPC   C4B69742  20.656  38.964   7.350
 8805POPC   NC369743   3.495  41.592   5.550
 8805POPC   PO469744   3.530  41.601   5.850
 8805POPC   GL169745   3.577  41.581   6.150
 8805POPC   GL269746   3.640  41.470   6.150
 8805POPC   C1A69747   3.493  41.516   6.450
 8805POPC   D2A69748   3.542  41.528   6.750
 8805POPC   C3A69749   3.515  41.515   7.050
 8805POPC   C4A69750   3.556  41.531   7.350
 8805POPC   C1B69751   3.767  41.431   6.450
 8805POPC   C2B69752   3.821  41.501   6.750
 8805POPC   C3B69753   3.733  41.441   7.050
 8805POPC   C4B69754   3.812  41.513   7.350
 8806POPC   NC369755  41.555  15.221   5.550
 8806POPC   PO469756  41.563  15.150   5.850
 8806POPC   GL169757  41.600  15.131   6.150
 8806POPC   GL269758  41.621  15.323   6.150
 8806POPC   C1A69759  41.604  15.199   6.450
 8806POPC   D2A69760  41.513  15.200   6.750
 8806POPC   C3A69761  41.608  15.181   7.050
 8806POPC   C4A69762  41.583  15.150   7.350
 8806POPC   C1B69763  41.701  15.389   6.450
 8806POPC   C2B69764  41.699  15.380   6.750
 8806POPC   C3B69765  41.673  15.430   7.050
 8806POPC   C4B69766  41.704  15.369   7.350
 8807POPC   NC369767  36.113  38.443   5.550
 8807POPC   PO469768  36.109  38.453   5.850
 8807POPC   GL169769  36.086  38.482   6.150
 8807POPC   GL269770  36.258  38.513   6.150
 8807POPC   C1A69771  36.140  38.421   6.450
 8807POPC   D2A69772  36.092  38.433   6.750
 8807POPC   C3A69773  36.089  38.425   7.050
 8807POPC   C4A69774  36.086  38.443   7.350
 8807POPC   C1B69775  36.283  38.584   6.450
 8807POPC   C2B69776  36.271  38.630   6.750
 8807POPC   C3B69777  36.270  38.595   7.050
 8807POPC   C4B69778  36.356  38.584   7.350
 8808POPC   NC369779  12.085   5.908   5.550
 8808POPC   PO469780  12.070   5.900   5.850
 8808POPC   GL169781  12.088   5.894   6.150
 8808POPC   GL269782  12.011   5.804   6.150
 8808POPC   C1A69783  12.075   5.824   6.450
 8808POPC   D2A69784  12.091   5.826   6.750
 8808POPC   C3A69785  12.096   5.833   7.050
 8808POPC   C4A69786  12.080   5.882   7.350
 8808POPC   C1B69787  11.809   5.778   6.450
 8808POPC   C2B69788  11.892   5.759   6.750
 8808POPC   C3B69789  11.870   5.799   7.050
 8808POPC   C4B69790  11.843   5.806   7.350
 8809POPC   NC369791  35.305  24.507   5.550
 8809POPC   PO469792  35.316  24.527   5.850
 8809POPC   GL169793  35.378  24.451   6.150
 8809POPC   GL269794  35.459  24.402   6.150
 8809POPC   C1A69795  35.393  24.450   6.450
 8809POPC   D2A69796  35.350  24.504   6.750
 8809POPC   C3A69797  35.368  24.521   7.050
 8809POPC   C4A69798  35.358  24.481   7.350
 8809POPC   C1B69799  35.547  24.262   6.450
 8809POPC   C2B69800  35.551  24.314   6.750
 8809POPC   C3B69801  35.481  24.266   7.050
 8809POPC   C4B69802  35.510  24.245   7.350
 8810POPC   NC369803   0.463   7.385   5.550
 8810POPC   PO469804   0.423   7.408   5.850
 8810POPC   GL169805   0.419   7.470   6.150
 8810POPC   GL269806   0.376   7.521   6.150
 8810POPC   C1A69807   0.478   7.466   6.450
 8810POPC   D2A69808   0.409   7.447   6.750
 8810POPC   C3A69809   0.466   7.464   7.050
 8810POPC   C4A69810   0.397   7.378   7.350
 8810POPC   C1B69811   0.303   7.599   6.450
 8810POPC   C2B69812   0.318   7.587   6.750
 8810POPC   C3B69813   0.329   7.582   7.050
 8810POPC   C4B69814   0.274   7.582   7.350
 8811POPC   NC369815  15.909  13.623   5.550
 8811POPC   PO469816  15.970  13.612   5.850
 8811POPC   GL169817  15.935  13.639   6.150
 8811POPC   GL269818  15.922  13.506   6.150
 8811POPC   C1A69819  15.964  13.602   6.450
 8811POPC   D2A69820  15.944  13.593   6.750
 8811POPC   C3A69821  15.991  13.614   7.050
 8811POPC   C4A69822  15.928  13.662   7.350
 8811POPC   C1B69823  15.843  13.440   6.450
 8811POPC   C2B69824  15.860  13.412   6.750
 8811POPC   C3B69825  15.814  13.380   7.050
 8811POPC   C4B69826  15.819  13.387   7.350
 8812POPC   NC369827  16.685  21.337   5.550
 8812POPC   PO469828  16.777  21.413   5.850
 8812POPC   GL169829  16.765  21.386   6.150
 8812POPC   GL269830  16.817  21.497   6.150
 8812POPC   C1A69831  16.733  21.359   6.450
 8812POPC   D2A69832  16.781  21.404   6.750
 8812POPC   C3A69833  16.729  21.412   7.050
 8812POPC   C4A69834  16.750  21.357   7.350
 8812POPC   C1B69835  16.872  21.604   6.450
 8812POPC   C2B69836  16.797  21.661   6.750
 8812POPC   C3B69837  16.798  21.603   7.050
 8812POPC   C4B69838  16.849  21.630   7.350
 8813POPC   NC369839  26.082  14.446   5.550
 8813POPC   PO469840  26.064  14.364   5.850
 8813POPC   GL169841  26.070  14.415   6.150
 8813POPC   GL269842  25.934  14.298   6.150
 8813POPC   C1A69843  26.060  14.448   6.450
 8813POPC   D2A69844  26.075  14.398   6.750
 8813POPC   C3A69845  26.048  14.443   7.050
 8813POPC   C4A69846  26.054  14.374   7.350
 8813POPC   C1B69847  25.875  14.146   6.450
 8813POPC   C2B69848  25.940  14.153   6.750
 8813POPC   C3B69849  25.933  14.179   7.050
 8813POPC   C4B69850  25.969  14.164   7.350
 8814POPC   NC369851  13.591  27.602   5.550
 8814POPC   PO469852  13.665  27.604   5.850
 8814POPC   GL169853  13.579  27.608   6.150
 8814POPC   GL269854  13.663  27.450   6.150
 8814POPC   C1A69855  13.649  27.634   6.450
 8814POPC   D2A69856  13.648  27.559   6.750
 8814POPC   C3A69857  13.660  27.625   7.050
 8814POPC   C4A69858  13.608  27.633   7.350
 8814POPC   C1B69859  13.730  27.317   6.450
 8814POPC   C2B69860  13.669  27.372   6.750
 8814POPC   C3B69861  13.750  27.341   7.050
 8814POPC   C4B69862  13.705  27.328   7.350
 8815POPC   NC369863   8.232   0.426   5.550
 8815POPC   PO469864   8.164   0.459   5.850
 8815POPC   GL169865   8.156   0.454   6.150
 8815POPC   GL269866   8.079   0.505   6.150
 8815POPC   C1A69867   8.236   0.479   6.450
 8815POPC   D2A69868   8.204   0.427   6.750
 8815POPC   C3A69869   8.147   0.436   7.050
 8815POPC   C4A69870   8.245   0.426   7.350
 8815POPC   C1B69871   7.997   0.614   6.450
 8815POPC   C2B69872   7.987   0.582   6.750
 8815POPC   C3B69873   7.973   0.540   7.050
 8815POPC   C4B69874   8.046   0.618   7.350
 8816POPC   NC369875  25.283  38.503   5.550
 8816POPC   PO469876  25.239  38.484   5.850
 8816POPC   GL169877  25.307  38.443   6.150
 8816POPC   GL269878  25.190  38.354   6.150
 8816POPC   C1A69879  25.226  38.412   6.450
 8816POPC   D2A69880  25.312  38.458   6.750
 8816POPC   C3A69881  25.284  38.422   7.050
 8816POPC   C4A69882  25.216  38.455   7.350
 8816POPC   C1B69883  25.032  38.335   6.450
 8816POPC   C2B69884  25.024  38.351   6.750
 8816POPC   C3B69885  25.074  38.326   7.050
 8816POPC   C4B69886  25.074  38.343   7.350
 8817POPC   NC369887  15.184  14.424   5.550
 8817POPC   PO469888  15.194  14.427   5.850
 8817POPC   GL169889  15.216  14.360   6.150
 8817POPC   GL269890  15.251  14.452   6.150
 8817POPC   C1A69891  15.203  14.417   6.450
 8817POPC   D2A69892  15.226  14.367   6.750
 8817POPC   C3A69893  15.208  14.401   7.050
 8817POPC   C4A69894  15.216  14.415   7.350
 8817POPC   C1B69895  15.401  14.480   6.450
 8817POPC   C2B69896  15.447  14.535   6.750
 8817POPC   C3B69897  15.400  14.517   7.050
 8817POPC   C4B69898  15.412  14.536   7.350
 8818POPC   NC369899  38.459  10.539   5.550
 8818POPC   PO469900  38.475  10.525   5.850
 8818POPC   GL169901  38.417  10.483   6.150
 8818POPC   GL269902  38.470  10.629   6.150
 8818POPC   C1A69903  38.449  10.549   6.450
 8818POPC   D2A69904  38.425  10.573   6.750
 8818POPC   C3A69905  38.454  10.553   7.050
 8818POPC   C4A69906  38.455  10.528   7.350
 8818POPC   C1B69907  38.408  10.800   6.450
 8818POPC   C2B69908  38.370  10.747   6.750
 8818POPC   C3B69909  38.443  10.769   7.050
 8818POPC   C4B69910  38.437  10.747   7.350
 8819POPC   NC369911  19.857  10.518   5.550
 8819POPC   PO469912  19.816  10.553   5.850
 8819POPC   GL169913  19.866  10.497   6.150
 8819POPC   GL269914  19.898  10.547   6.150
 8819POPC   C1A69915  19.799  10.574   6.450
 8819POPC   D2A69916  19.811  10.523   6.750
 8819POPC   C3A69917  19.804  10.569   7.050
 8819POPC   C4A69918  19.843  10.506   7.350
 8819POPC   C1B69919  20.031  10.609   6.450
 8819POPC   C2B69920  20.024  10.643   6.750
 8819POPC   C3B69921  20.039  10.637   7.050
 8819POPC   C4B69922  20.009  10.644   7.350
 8820POPC   NC369923  11.275  34.603   5.550
 8820POPC   PO469924  11.272  34.555   5.850
 8820POPC   GL169925  11.272  34.557   6.150
 8820POPC   GL269926  11.262  34.498   6.150
 8820POPC   C1A69927  11.340  34.586   6.450
 8820POPC   D2A69928  11.251  34.581   6.750
 8820POPC   C3A69929  11.327  34.588   7.050
 8820POPC   C4A69930  11.284  34.567   7.350
 8820POPC   C1B69931  11.324  34.288   6.450
 8820POPC   C2B69932  11.280  34.377   6.750
 8820POPC   C3B69933  11.239  34.359   7.050
 8820POPC   C4B69934  11.299  34.319   7.350
 8821POPC   NC369935  40.017  22.911   5.550
 8821POPC   PO469936  39.987  22.957   5.850
 8821POPC   GL169937  40.014  22.941   6.150
 8821POPC   GL269938  40.043  22.867   6.150
 8821POPC   C1A69939  39.996  22.958   6.450
 8821POPC   D2A69940  39.992  22.916   6.750
 8821POPC   C3A69941  40.027  22.946   7.050
 8821POPC   C4A69942  39.970  22.892   7.350
 8821POPC   C1B69943  40.203  22.733   6.450
 8821POPC   C2B69944  40.173  22.728   6.750
 8821POPC   C3B69945  40.128  22.773   7.050
 8821POPC   C4B69946  40.205  22.716   7.350
 8822POPC   NC369947   0.406   2.733   5.550
 8822POPC   PO469948   0.410   2.811   5.850
 8822POPC   GL169949   0.399   2.796   6.150
 8822POPC   GL269950   0.375   2.696   6.150
 8822POPC   C1A69951   0.428   2.757   6.450
 8822POPC   D2A69952   0.466   2.732   6.750
 8822POPC   C3A69953   0.435   2.811   7.050
 8822POPC   C4A69954   0.392   2.802   7.350
 8822POPC   C1B69955   0.220   2.631   6.450
 8822POPC   C2B69956   0.281   2.581   6.750
 8822POPC   C3B69957   0.234   2.598   7.050
 8822POPC   C4B69958   0.283   2.622   7.350
 8823POPC   NC369959  42.321   0.425   5.550
 8823POPC   PO469960  42.286   0.474   5.850
 8823POPC   GL169961  42.371   0.455   6.150
 8823POPC   GL269962  42.248   0.361   6.150
 8823POPC   C1A69963  42.334   0.388   6.450
 8823POPC   D2A69964  42.358   0.439   6.750
 8823POPC   C3A69965  42.347   0.469   7.050
 8823POPC   C4A69966  42.357   0.419   7.350
 8823POPC   C1B69967  42.063   0.354   6.450
 8823POPC   C2B69968  42.055   0.335   6.750
 8823POPC   C3B69969  42.084   0.392   7.050
 8823POPC   C4B69970  42.076   0.372   7.350
 8824POPC   NC369971  19.847  19.877   5.550
 8824POPC   PO469972  19.878  19.844   5.850
 8824POPC   GL169973  19.876  19.880   6.150
 8824POPC   GL269974  19.963  19.693   6.150
 8824POPC   C1A69975  19.850  19.835   6.450
 8824POPC   D2A69976  19.803  19.831   6.750
 8824POPC   C3A69977  19.823  19.801   7.050
 8824POPC   C4A69978  19.820  19.864   7.350
 8824POPC   C1B69979  20.013  19.692   6.450
 8824POPC   C2B69980  20.035  19.695   6.750
 8824POPC   C3B69981  20.014  19.696   7.050
 8824POPC   C4B69982  20.036  19.698   7.350
 8825POPC   NC369983  31.500  20.583   5.550
 8825POPC   PO469984  31.429  20.570   5.850
 8825POPC   GL169985  31.479  20.576   6.150
 8825POPC   GL269986  31.386  20.705   6.150
 8825POPC   C1A69987  31.487  20.610   6.450
 8825POPC   D2A69988  31.458  20.581   6.750
 8825POPC   C3A69989  31.474  20.588   7.050
 8825POPC   C4A69990  31.480  20.659   7.350
 8825POPC   C1B69991  31.316  20.859   6.450
 8825POPC   C2B69992  31.382  20.857   6.750
 8825POPC   C3B69993  31.319  20.881   7.050
 8825POPC   C4B69994  31.384  20.811   7.350
 8826POPC   NC369995   9.763  24.463   5.550
 8826POPC   PO469996   9.722  24.471   5.850
 8826POPC   GL169997   9.731  24.526   6.150
 8826POPC   GL269998   9.809  24.633   6.150
 8826POPC   C1A69999   9.753  24.502   6.450
 8826POPC   D2A70000   9.705  24.532   6.750
 8826POPC   C3A70001   9.713  24.448   7.050
 8826POPC   C4A70002   9.712  24.516   7.350
 8826POPC   C1B70003   9.922  24.680   6.450
 8826POPC   C2B70004   9.946  24.676   6.750
 8826POPC   C3B70005   9.912  24.671   7.050
 8826POPC   C4B70006   9.865  24.683   7.350
 8827POPC   NC370007   6.681  30.720   5.550
 8827POPC   PO470008   6.665  30.724   5.850
 8827POPC   GL170009   6.631  30.670   6.150
 8827POPC   GL270010   6.680  30.806   6.150
 8827POPC   C1A70011   6.679  30.742   6.450
 8827POPC   D2A70012   6.658  30.694   6.750
 8827POPC   C3A70013   6.634  30.731   7.050
 8827POPC   C4A70014   6.604  30.686   7.350
 8827POPC   C1B70015   6.783  30.896   6.450
 8827POPC   C2B70016   6.827  30.900   6.750
 8827POPC   C3B70017   6.808  30.904   7.050
 8827POPC   C4B70018   6.767  30.877   7.350
 8828POPC   NC370019  33.818   2.008   5.550
 8828POPC   PO470020  33.828   2.017   5.850
 8828POPC   GL170021  33.770   2.029   6.150
 8828POPC   GL270022  33.907   2.138   6.150
 8828POPC   C1A70023  33.824   1.997   6.450
 8828POPC   D2A70024  33.774   2.024   6.750
 8828POPC   C3A70025  33.799   1.993   7.050
 8828POPC   C4A70026  33.755   1.993   7.350
 8828POPC   C1B70027  33.994   2.150   6.450
 8828POPC   C2B70028  33.948   2.189   6.750
 8828POPC   C3B70029  33.916   2.169   7.050
 8828POPC   C4B70030  33.928   2.177   7.350
 8829POPC   NC370031  31.424  37.667   5.550
 8829POPC   PO470032  31.442  37.728   5.850
 8829POPC   GL170033  31.485  37.669   6.150
 8829POPC   GL270034  31.431  37.596   6.150
 8829POPC   C1A70035  31.500  37.722   6.450
 8829POPC   D2A70036  31.497  37.673   6.750
 8829POPC   C3A70037  31.493  37.634   7.050
 8829POPC   C4A70038  31.498  37.705   7.350
 8829POPC   C1B70039  31.450  37.438   6.450
 8829POPC   C2B70040  31.439  37.446   6.750
 8829POPC   C3B70041  31.504  37.461   7.050
 8829POPC   C4B70042  31.445  37.403   7.350
 8830POPC   NC370043   2.791  37.646   5.550
 8830POPC   PO470044   2.808  37.646   5.850
 8830POPC   GL170045   2.792  37.724   6.150
 8830POPC   GL270046   2.902  37.661   6.150
 8830POPC   C1A70047   2.768  37.714   6.450
 8830POPC   D2A70048   2.730  37.680   6.750
 8830POPC   C3A70049   2.777  37.684   7.050
 8830POPC   C4A70050   2.812  37.721   7.350
 8830POPC   C1B70051   3.016  37.585   6.450
 8830POPC   C2B70052   2.977  37.605   6.750
 8830POPC   C3B70053   3.029  37.562   7.050
 8830POPC   C4B70054   2.958  37.597   7.350
 8831POPC   NC370055   2.760  34.569   5.550
 8831POPC   PO470056   2.721  34.535   5.850
 8831POPC   GL170057   2.755  34.621   6.150
 8831POPC   GL270058   2.790  34.744   6.150
 8831POPC   C1A70059   2.786  34.602   6.450
 8831POPC   D2A70060   2.728  34.595   6.750
 8831POPC   C3A70061   2.807  34.612   7.050
 8831POPC   C4A70062   2.790  34.587   7.350
 8831POPC   C1B70063   2.785  34.855   6.450
 8831POPC   C2B70064   2.769  34.861   6.750
 8831POPC   C3B70065   2.780  34.873   7.050
 8831POPC   C4B70066   2.839  34.834   7.350
 8832POPC   NC370067  19.862   2.021   5.550
 8832POPC   PO470068  19.800   2.019   5.850
 8832POPC   GL170069  19.879   2.017   6.150
 8832POPC   GL270070  19.764   1.961   6.150
 8832POPC   C1A70071  19.859   2.020   6.450
 8832POPC   D2A70072  19.870   1.968   6.750
 8832POPC   C3A70073  19.812   2.036   7.050
 8832POPC   C4A70074  19.877   2.020   7.350
 8832POPC   C1B70075  19.587   1.868   6.450
 8832POPC   C2B70076  19.601   1.868   6.750
 8832POPC   C3B70077  19.600   1.864   7.050
 8832POPC   C4B70078  19.604   1.861   7.350
 8833POPC   NC370079  14.399  29.176   5.550
 8833POPC   PO470080  14.367  29.106   5.850
 8833POPC   GL170081  14.420  29.173   6.150
 8833POPC   GL270082  14.297  29.263   6.150
 8833POPC   C1A70083  14.381  29.159   6.450
 8833POPC   D2A70084  14.432  29.138   6.750
 8833POPC   C3A70085  14.441  29.180   7.050
 8833POPC   C4A70086  14.437  29.194   7.350
 8833POPC   C1B70087  14.243  29.303   6.450
 8833POPC   C2B70088  14.277  29.320   6.750
 8833POPC   C3B70089  14.293  29.321   7.050
 8833POPC   C4B70090  14.293  29.336   7.350
 8834POPC   NC370091  19.017  26.820   5.550
 8834POPC   PO470092  19.047  26.863   5.850
 8834POPC   GL170093  19.033  26.829   6.150
 8834POPC   GL270094  19.105  26.954   6.150
 8834POPC   C1A70095  19.012  26.785   6.450
 8834POPC   D2A70096  19.103  26.823   6.750
 8834POPC   C3A70097  19.030  26.866   7.050
 8834POPC   C4A70098  19.087  26.779   7.350
 8834POPC   C1B70099  19.189  27.016   6.450
 8834POPC   C2B70100  19.184  26.996   6.750
 8834POPC   C3B70101  19.158  26.979   7.050
 8834POPC   C4B70102  19.164  27.037   7.350
 8835POPC   NC370103  28.353  36.158   5.550
 8835POPC   PO470104  28.352  36.133   5.850
 8835POPC   GL170105  28.368  36.086   6.150
 8835POPC   GL270106  28.339  35.955   6.150
 8835POPC   C1A70107  28.385  36.095   6.450
 8835POPC   D2A70108  28.321  36.087   6.750
 8835POPC   C3A70109  28.400  36.148   7.050
 8835POPC   C4A70110  28.369  36.150   7.350
 8835POPC   C1B70111  28.377  35.902   6.450
 8835POPC   C2B70112  28.378  35.920   6.750
 8835POPC   C3B70113  28.362  35.871   7.050
 8835POPC   C4B70114  28.388  35.836   7.350
 8836POPC   NC370115   8.987   2.006   5.550
 8836POPC   PO470116   8.971   1.987   5.850
 8836POPC   GL170117   9.000   1.967   6.150
 8836POPC   GL270118   8.881   1.982   6.150
 8836POPC   C1A70119   8.947   1.961   6.450
 8836POPC   D2A70120   8.971   2.006   6.750
 8836POPC   C3A70121   9.010   1.946   7.050
 8836POPC   C4A70122   9.006   1.993   7.350
 8836POPC   C1B70123   8.732   1.973   6.450
 8836POPC   C2B70124   8.703   1.999   6.750
 8836POPC   C3B70125   8.731   1.992   7.050
 8836POPC   C4B70126   8.772   2.061   7.350
 8837POPC   NC370127  38.420  13.580   5.550
 8837POPC   PO470128  38.499  13.656   5.850
 8837POPC   GL170129  38.444  13.606   6.150
 8837POPC   GL270130  38.603  13.568   6.150
 8837POPC   C1A70131  38.460  13.582   6.450
 8837POPC   D2A70132  38.457  13.636   6.750
 8837POPC   C3A70133  38.437  13.627   7.050
 8837POPC   C4A70134  38.454  13.581   7.350
 8837POPC   C1B70135  38.657  13.483   6.450
 8837POPC   C2B70136  38.705  13.510   6.750
 8837POPC   C3B70137  38.701  13.486   7.050
 8837POPC   C4B70138  38.698  13.490   7.350
 8838POPC   NC370139  19.795  43.088   5.550
 8838POPC   PO470140  19.836  43.094   5.850
 8838POPC   GL170141  19.802  43.117   6.150
 8838POPC   GL270142  19.818  42.983   6.150
 8838POPC   C1A70143  19.858  43.094   6.450
 8838POPC   D2A70144  19.870  43.061   6.750
 8838POPC   C3A70145  19.805  43.070   7.050
 8838POPC   C4A70146  19.820  43.134   7.350
 8838POPC   C1B70147  19.748  42.872   6.450
 8838POPC   C2B70148  19.776  42.859   6.750
 8838POPC   C3B70149  19.748  42.861   7.050
 8838POPC   C4B70150  19.752  42.857   7.350
 8839POPC   NC370151  40.811   3.507   5.550
 8839POPC   PO470152  40.815   3.567   5.850
 8839POPC   GL170153  40.832   3.518   6.150
 8839POPC   GL270154  40.822   3.664   6.150
 8839POPC   C1A70155  40.782   3.589   6.450
 8839POPC   D2A70156  40.749   3.563   6.750
 8839POPC   C3A70157  40.760   3.497   7.050
 8839POPC   C4A70158  40.780   3.505   7.350
 8839POPC   C1B70159  40.894   3.735   6.450
 8839POPC   C2B70160  40.846   3.744   6.750
 8839POPC   C3B70161  40.862   3.781   7.050
 8839POPC   C4B70162  40.901   3.771   7.350
 8840POPC   NC370163  21.432  35.313   5.550
 8840POPC   PO470164  21.407  35.338   5.850
 8840POPC   GL170165  21.434  35.390   6.150
 8840POPC   GL270166  21.426  35.471   6.150
 8840POPC   C1A70167  21.383  35.324   6.450
 8840POPC   D2A70168  21.404  35.303   6.750
 8840POPC   C3A70169  21.364  35.317   7.050
 8840POPC   C4A70170  21.398  35.392   7.350
 8840POPC   C1B70171  21.496  35.620   6.450
 8840POPC   C2B70172  21.457  35.554   6.750
 8840POPC   C3B70173  21.521  35.538   7.050
 8840POPC   C4B70174  21.482  35.579   7.350
 8841POPC   NC370175   1.941   9.797   5.550
 8841POPC   PO470176   1.995   9.767   5.850
 8841POPC   GL170177   2.023   9.729   6.150
 8841POPC   GL270178   1.949   9.846   6.150
 8841POPC   C1A70179   1.972   9.727   6.450
 8841POPC   D2A70180   2.025   9.702   6.750
 8841POPC   C3A70181   1.980   9.785   7.050
 8841POPC   C4A70182   1.978   9.772   7.350
 8841POPC   C1B70183   1.823   9.893   6.450
 8841POPC   C2B70184   1.854   9.982   6.750
 8841POPC   C3B70185   1.874   9.906   7.050
 8841POPC   C4B70186   1.831   9.921   7.350
 8842POPC   NC370187  35.302  23.728   5.550
 8842POPC   PO470188  35.362  23.718   5.850
 8842POPC   GL170189  35.346  23.712   6.150
 8842POPC   GL270190  35.448  23.814   6.150
 8842POPC   C1A70191  35.381  23.762   6.450
 8842POPC   D2A70192  35.346  23.740   6.750
 8842POPC   C3A70193  35.339  23.733   7.050
 8842POPC   C4A70194  35.323  23.739   7.350
 8842POPC   C1B70195  35.426  23.898   6.450
 8842POPC   C2B70196  35.464  23.935   6.750
 8842POPC   C3B70197  35.428  23.953   7.050
 8842POPC   C4B70198  35.482  23.925   7.350
 8843POPC   NC370199  41.533  32.292   5.550
 8843POPC   PO470200  41.555  32.273   5.850
 8843POPC   GL170201  41.534  32.273   6.150
 8843POPC   GL270202  41.614  32.135   6.150
 8843POPC   C1A70203  41.609  32.243   6.450
 8843POPC   D2A70204  41.566  32.269   6.750
 8843POPC   C3A70205  41.588  32.229   7.050
 8843POPC   C4A70206  41.527  32.202   7.350
 8843POPC   C1B70207  41.601  31.972   6.450
 8843POPC   C2B70208  41.647  31.965   6.750
 8843POPC   C3B70209  41.577  31.989   7.050
 8843POPC   C4B70210  41.654  31.993   7.350
 8844POPC   NC370211  32.997  25.283   5.550
 8844POPC   PO470212  32.982  25.233   5.850
 8844POPC   GL170213  33.024  25.251   6.150
 8844POPC   GL270214  33.046  25.144   6.150
 8844POPC   C1A70215  32.988  25.314   6.450
 8844POPC   D2A70216  33.021  25.290   6.750
 8844POPC   C3A70217  33.002  25.247   7.050
 8844POPC   C4A70218  33.002  25.264   7.350
 8844POPC   C1B70219  33.096  25.057   6.450
 8844POPC   C2B70220  33.071  25.013   6.750
 8844POPC   C3B70221  33.063  25.000   7.050
 8844POPC   C4B70222  33.061  25.015   7.350
 8845POPC   NC370223  26.852  33.778   5.550
 8845POPC   PO470224  26.809  33.759   5.850
 8845POPC   GL170225  26.856  33.791   6.150
 8845POPC   GL270226  26.816  33.921   6.150
 8845POPC   C1A70227  26.836  33.754   6.450
 8845POPC   D2A70228  26.782  33.811   6.750
 8845POPC   C3A70229  26.817  33.836   7.050
 8845POPC   C4A70230  26.772  33.825   7.350
 8845POPC   C1B70231  26.872  34.067   6.450
 8845POPC   C2B70232  26.860  34.037   6.750
 8845POPC   C3B70233  26.831  34.085   7.050
 8845POPC   C4B70234  26.888  34.016   7.350
 8846POPC   NC370235  42.306  36.094   5.550
 8846POPC   PO470236  42.354  36.160   5.850
 8846POPC   GL170237  42.362  36.113   6.150
 8846POPC   GL270238  42.291  36.271   6.150
 8846POPC   C1A70239  42.342  36.166   6.450
 8846POPC   D2A70240  42.352  36.165   6.750
 8846POPC   C3A70241  42.295  36.144   7.050
 8846POPC   C4A70242  42.336  36.109   7.350
 8846POPC   C1B70243  42.255  36.326   6.450
 8846POPC   C2B70244  42.264  36.324   6.750
 8846POPC   C3B70245  42.193  36.381   7.050
 8846POPC   C4B70246  42.194  36.405   7.350
 8847POPC   NC370247  21.347   5.080   5.550
 8847POPC   PO470248  21.396   5.127   5.850
 8847POPC   GL170249  21.356   5.142   6.150
 8847POPC   GL270250  21.501   5.136   6.150
 8847POPC   C1A70251  21.426   5.053   6.450
 8847POPC   D2A70252  21.417   5.085   6.750
 8847POPC   C3A70253  21.395   5.046   7.050
 8847POPC   C4A70254  21.408   5.088   7.350
 8847POPC   C1B70255  21.515   5.293   6.450
 8847POPC   C2B70256  21.551   5.236   6.750
 8847POPC   C3B70257  21.547   5.244   7.050
 8847POPC   C4B70258  21.608   5.275   7.350
 8848POPC   NC370259  30.693  25.289   5.550
 8848POPC   PO470260  30.704  25.281   5.850
 8848POPC   GL170261  30.731  25.310   6.150
 8848POPC   GL270262  30.756  25.217   6.150
 8848POPC   C1A70263  30.706  25.262   6.450
 8848POPC   D2A70264  30.711  25.307   6.750
 8848POPC   C3A70265  30.662  25.291   7.050
 8848POPC   C4A70266  30.699  25.311   7.350
 8848POPC   C1B70267  30.923  25.145   6.450
 8848POPC   C2B70268  30.937  25.127   6.750
 8848POPC   C3B70269  30.929  25.157   7.050
 8848POPC   C4B70270  30.918  25.143   7.350
 8849POPC   NC370271  21.363  22.193   5.550
 8849POPC   PO470272  21.374  22.143   5.850
 8849POPC   GL170273  21.395  22.131   6.150
 8849POPC   GL270274  21.393  22.240   6.150
 8849POPC   C1A70275  21.423  22.117   6.450
 8849POPC   D2A70276  21.400  22.114   6.750
 8849POPC   C3A70277  21.369  22.166   7.050
 8849POPC   C4A70278  21.357  22.191   7.350
 8849POPC   C1B70279  21.395  22.411   6.450
 8849POPC   C2B70280  21.374  22.447   6.750
 8849POPC   C3B70281  21.426  22.388   7.050
 8849POPC   C4B70282  21.437  22.413   7.350
 8850POPC   NC370283   0.480   6.601   5.550
 8850POPC   PO470284   0.404   6.678   5.850
 8850POPC   GL170285   0.414   6.685   6.150
 8850POPC   GL270286   0.290   6.693   6.150
 8850POPC   C1A70287   0.472   6.689   6.450
 8850POPC   D2A70288   0.453   6.618   6.750
 8850POPC   C3A70289   0.406   6.617   7.050
 8850POPC   C4A70290   0.468   6.615   7.350
 8850POPC   C1B70291   0.179   6.762   6.450
 8850POPC   C2B70292   0.276   6.808   6.750
 8850POPC   C3B70293   0.268   6.811   7.050
 8850POPC   C4B70294   0.194   6.798   7.350
 8851POPC   NC370295  13.659  34.593   5.550
 8851POPC   PO470296  13.589  34.608   5.850
 8851POPC   GL170297  13.584  34.570   6.150
 8851POPC   GL270298  13.474  34.531   6.150
 8851POPC   C1A70299  13.586  34.605   6.450
 8851POPC   D2A70300  13.608  34.552   6.750
 8851POPC   C3A70301  13.630  34.554   7.050
 8851POPC   C4A70302  13.636  34.557   7.350
 8851POPC   C1B70303  13.348  34.521   6.450
 8851POPC   C2B70304  13.409  34.524   6.750
 8851POPC   C3B70305  13.355  34.505   7.050
 8851POPC   C4B70306  13.411  34.498   7.350
 8852POPC   NC370307  17.507  25.262   5.550
 8852POPC   PO470308  17.485  25.315   5.850
 8852POPC   GL170309  17.495  25.312   6.150
 8852POPC   GL270310  17.406  25.356   6.150
 8852POPC   C1A70311  17.474  25.259   6.450
 8852POPC   D2A70312  17.512  25.241   6.750
 8852POPC   C3A70313  17.555  25.314   7.050
 8852POPC   C4A70314  17.511  25.226   7.350
 8852POPC   C1B70315  17.309  25.459   6.450
 8852POPC   C2B70316  17.272  25.400   6.750
 8852POPC   C3B70317  17.274  25.415   7.050
 8852POPC   C4B70318  17.363  25.462   7.350
 8853POPC   NC370319  36.883  20.610   5.550
 8853POPC   PO470320  36.939  20.657   5.850
 8853POPC   GL170321  36.941  20.596   6.150
 8853POPC   GL270322  37.051  20.727   6.150
 8853POPC   C1A70323  36.888  20.654   6.450
 8853POPC   D2A70324  36.902  20.599   6.750
 8853POPC   C3A70325  36.859  20.619   7.050
 8853POPC   C4A70326  36.910  20.596   7.350
 8853POPC   C1B70327  37.145  20.765   6.450
 8853POPC   C2B70328  37.057  20.797   6.750
 8853POPC   C3B70329  37.051  20.810   7.050
 8853POPC   C4B70330  37.125  20.759   7.350
 8854POPC   NC370331   8.993   5.120   5.550
 8854POPC   PO470332   8.965   5.074   5.850
 8854POPC   GL170333   8.972   5.131   6.150
 8854POPC   GL270334   9.038   5.168   6.150
 8854POPC   C1A70335   9.018   5.065   6.450
 8854POPC   D2A70336   8.948   5.103   6.750
 8854POPC   C3A70337   8.998   5.100   7.050
 8854POPC   C4A70338   8.979   5.079   7.350
 8854POPC   C1B70339   8.972   5.299   6.450
 8854POPC   C2B70340   8.989   5.331   6.750
 8854POPC   C3B70341   9.000   5.361   7.050
 8854POPC   C4B70342   9.006   5.347   7.350
 8855POPC   NC370343  34.568  16.706   5.550
 8855POPC   PO470344  34.581  16.774   5.850
 8855POPC   GL170345  34.585  16.694   6.150
 8855POPC   GL270346  34.544  16.838   6.150
 8855POPC   C1A70347  34.587  16.723   6.450
 8855POPC   D2A70348  34.596  16.700   6.750
 8855POPC   C3A70349  34.614  16.734   7.050
 8855POPC   C4A70350  34.605  16.738   7.350
 8855POPC   C1B70351  34.515  17.003   6.450
 8855POPC   C2B70352  34.606  17.016   6.750
 8855POPC   C3B70353  34.591  16.945   7.050
 8855POPC   C4B70354  34.592  17.027   7.350
 8856POPC   NC370355  12.878  11.276   5.550
 8856POPC   PO470356  12.818  11.304   5.850
 8856POPC   GL170357  12.812  11.269   6.150
 8856POPC   GL270358  12.851  11.153   6.150
 8856POPC   C1A70359  12.823  11.274   6.450
 8856POPC   D2A70360  12.820  11.291   6.750
 8856POPC   C3A70361  12.818  11.276   7.050
 8856POPC   C4A70362  12.809  11.284   7.350
 8856POPC   C1B70363  12.846  11.053   6.450
 8856POPC   C2B70364  12.834  11.080   6.750
 8856POPC   C3B70365  12.808  11.091   7.050
 8856POPC   C4B70366  12.788  11.056   7.350
 8857POPC   NC370367  10.534  14.374   5.550
 8857POPC   PO470368  10.546  14.427   5.850
 8857POPC   GL170369  10.497  14.362   6.150
 8857POPC   GL270370  10.595  14.265   6.150
 8857POPC   C1A70371  10.557  14.387   6.450
 8857POPC   D2A70372  10.516  14.359   6.750
 8857POPC   C3A70373  10.492  14.386   7.050
 8857POPC   C4A70374  10.546  14.407   7.350
 8857POPC   C1B70375  10.596  14.161   6.450
 8857POPC   C2B70376  10.577  14.174   6.750
 8857POPC   C3B70377  10.581  14.121   7.050
 8857POPC   C4B70378  10.559  14.127   7.350
 8858POPC   NC370379  25.277  19.852   5.550
 8858POPC   PO470380  25.235  19.789   5.850
 8858POPC   GL170381  25.223  19.850   6.150
 8858POPC   GL270382  25.310  19.692   6.150
 8858POPC   C1A70383  25.281  19.880   6.450
 8858POPC   D2A70384  25.274  19.868   6.750
 8858POPC   C3A70385  25.270  19.799   7.050
 8858POPC   C4A70386  25.253  19.823   7.350
 8858POPC   C1B70387  25.454  19.687   6.450
 8858POPC   C2B70388  25.451  19.606   6.750
 8858POPC   C3B70389  25.403  19.667   7.050
 8858POPC   C4B70390  25.421  19.652   7.350
 8859POPC   NC370391  40.825  33.032   5.550
 8859POPC   PO470392  40.810  33.038   5.850
 8859POPC   GL170393  40.758  33.017   6.150
 8859POPC   GL270394  40.921  33.016   6.150
 8859POPC   C1A70395  40.798  33.051   6.450
 8859POPC   D2A70396  40.775  33.043   6.750
 8859POPC   C3A70397  40.772  33.003   7.050
 8859POPC   C4A70398  40.816  33.033   7.350
 8859POPC   C1B70399  40.983  33.011   6.450
 8859POPC   C2B70400  40.986  32.970   6.750
 8859POPC   C3B70401  41.073  32.986   7.050
 8859POPC   C4B70402  41.058  32.954   7.350
 8860POPC   NC370403  32.239   6.597   5.550
 8860POPC   PO470404  32.219   6.618   5.850
 8860POPC   GL170405  32.277   6.637   6.150
 8860POPC   GL270406  32.200   6.753   6.150
 8860POPC   C1A70407  32.288   6.622   6.450
 8860POPC   D2A70408  32.250   6.675   6.750
 8860POPC   C3A70409  32.266   6.627   7.050
 8860POPC   C4A70410  32.244   6.670   7.350
 8860POPC   C1B70411  32.271   6.927   6.450
 8860POPC   C2B70412  32.292   6.893   6.750
 8860POPC   C3B70413  32.269   6.888   7.050
 8860POPC   C4B70414  32.216   6.919   7.350
 8861POPC   NC370415  35.340  38.453   5.550
 8861POPC   PO470416  35.388  38.469   5.850
 8861POPC   GL170417  35.317  38.492   6.150
 8861POPC   GL270418  35.313  38.590   6.150
 8861POPC   C1A70419  35.348  38.426   6.450
 8861POPC   D2A70420  35.388  38.460   6.750
 8861POPC   C3A70421  35.355  38.472   7.050
 8861POPC   C4A70422  35.340  38.477   7.350
 8861POPC   C1B70423  35.209  38.635   6.450
 8861POPC   C2B70424  35.212  38.685   6.750
 8861POPC   C3B70425  35.246  38.671   7.050
 8861POPC   C4B70426  35.239  38.699   7.350
 8862POPC   NC370427  17.541   5.122   5.550
 8862POPC   PO470428  17.486   5.065   5.850
 8862POPC   GL170429  17.529   5.135   6.150
 8862POPC   GL270430  17.613   5.012   6.150
 8862POPC   C1A70431  17.486   5.084   6.450
 8862POPC   D2A70432  17.477   5.137   6.750
 8862POPC   C3A70433  17.479   5.111   7.050
 8862POPC   C4A70434  17.498   5.102   7.350
 8862POPC   C1B70435  17.666   4.914   6.450
 8862POPC   C2B70436  17.630   4.852   6.750
 8862POPC   C3B70437  17.646   4.886   7.050
 8862POPC   C4B70438  17.611   4.927   7.350
 8863POPC   NC370439  33.818  37.681   5.550
 8863POPC   PO470440  33.791  37.643   5.850
 8863POPC   GL170441  33.784  37.653   6.150
 8863POPC   GL270442  33.792  37.516   6.150
 8863POPC   C1A70443  33.850  37.709   6.450
 8863POPC   D2A70444  33.816  37.644   6.750
 8863POPC   C3A70445  33.834  37.660   7.050
 8863POPC   C4A70446  33.769  37.670   7.350
 8863POPC   C1B70447  33.815  37.418   6.450
 8863POPC   C2B70448  33.828  37.415   6.750
 8863POPC   C3B70449  33.818  37.382   7.050
 8863POPC   C4B70450  33.852  37.409   7.350
 8864POPC   NC370451  16.703  10.552   5.550
 8864POPC   PO470452  16.763  10.510   5.850
 8864POPC   GL170453  16.715  10.520   6.150
 8864POPC   GL270454  16.658  10.520   6.150
 8864POPC   C1A70455  16.687  10.478   6.450
 8864POPC   D2A70456  16.777  10.522   6.750
 8864POPC   C3A70457  16.696  10.504   7.050
 8864POPC   C4A70458  16.686  10.552   7.350
 8864POPC   C1B70459  16.534  10.464   6.450
 8864POPC   C2B70460  16.515  10.383   6.750
 8864POPC   C3B70461  16.548  10.477   7.050
 8864POPC   C4B70462  16.535  10.472   7.350
 8865POPC   NC370463   2.764  41.539   5.550
 8865POPC   PO470464   2.768  41.577   5.850
 8865POPC   GL170465   2.776  41.515   6.150
 8865POPC   GL270466   2.679  41.588   6.150
 8865POPC   C1A70467   2.789  41.533   6.450
 8865POPC   D2A70468   2.764  41.587   6.750
 8865POPC   C3A70469   2.764  41.515   7.050
 8865POPC   C4A70470   2.766  41.521   7.350
 8865POPC   C1B70471   2.561  41.508   6.450
 8865POPC   C2B70472   2.517  41.505   6.750
 8865POPC   C3B70473   2.530  41.585   7.050
 8865POPC   C4B70474   2.506  41.550   7.350
 8866POPC   NC370475  21.337  29.189   5.550
 8866POPC   PO470476  21.412  29.146   5.850
 8866POPC   GL170477  21.360  29.190   6.150
 8866POPC   GL270478  21.436  29.059   6.150
 8866POPC   C1A70479  21.374  29.154   6.450
 8866POPC   D2A70480  21.352  29.096   6.750
 8866POPC   C3A70481  21.414  29.171   7.050
 8866POPC   C4A70482  21.355  29.186   7.350
 8866POPC   C1B70483  21.485  28.962   6.450
 8866POPC   C2B70484  21.515  28.948   6.750
 8866POPC   C3B70485  21.570  28.981   7.050
 8866POPC   C4B70486  21.569  28.979   7.350
 8867POPC   NC370487  11.322  12.881   5.550
 8867POPC   PO470488  11.308  12.835   5.850
 8867POPC   GL170489  11.297  12.839   6.150
 8867POPC   GL270490  11.190  12.898   6.150
 8867POPC   C1A70491  11.283  12.812   6.450
 8867POPC   D2A70492  11.282  12.861   6.750
 8867POPC   C3A70493  11.301  12.813   7.050
 8867POPC   C4A70494  11.344  12.863   7.350
 8867POPC   C1B70495  11.028  12.876   6.450
 8867POPC   C2B70496  11.066  12.888   6.750
 8867POPC   C3B70497  11.037  12.879   7.050
 8867POPC   C4B70498  11.043  12.896   7.350
 8868POPC   NC370499   8.180  43.150   5.550
 8868POPC   PO470500   8.161  43.157   5.850
 8868POPC   GL170501   8.154  43.157   6.150
 8868POPC   GL270502   8.308  43.050   6.150
 8868POPC   C1A70503   8.217  43.114   6.450
 8868POPC   D2A70504   8.234  43.062   6.750
 8868POPC   C3A70505   8.180  43.154   7.050
 8868POPC   C4A70506   8.165  43.105   7.350
 8868POPC   C1B70507   8.394  42.949   6.450
 8868POPC   C2B70508   8.397  42.947   6.750
 8868POPC   C3B70509   8.385  42.959   7.050
 8868POPC   C4B70510   8.382  42.932   7.350
 8869POPC   NC370511  39.240  44.669   5.550
 8869POPC   PO470512  39.227  44.664   5.850
 8869POPC   GL170513  39.239  44.664   6.150
 8869POPC   GL270514  39.348  44.521   6.150
 8869POPC   C1A70515  39.204  44.708   6.450
 8869POPC   D2A70516  39.223  44.695   6.750
 8869POPC   C3A70517  39.265  44.618   7.050
 8869POPC   C4A70518  39.223  44.618   7.350
 8869POPC   C1B70519  39.372  44.502   6.450
 8869POPC   C2B70520  39.321  44.449   6.750
 8869POPC   C3B70521  39.398  44.476   7.050
 8869POPC   C4B70522  39.382  44.437   7.350
 8870POPC   NC370523  42.287  40.754   5.550
 8870POPC   PO470524  42.344  40.822   5.850
 8870POPC   GL170525  42.309  40.756   6.150
 8870POPC   GL270526  42.448  40.924   6.150
 8870POPC   C1A70527  42.364  40.765   6.450
 8870POPC   D2A70528  42.354  40.802   6.750
 8870POPC   C3A70529  42.300  40.825   7.050
 8870POPC   C4A70530  42.337  40.773   7.350
 8870POPC   C1B70531  42.543  40.948   6.450
 8870POPC   C2B70532  42.492  41.015   6.750
 8870POPC   C3B70533  42.494  41.019   7.050
 8870POPC   C4B70534  42.472  40.975   7.350
 8871POPC   NC370535  44.680  33.824   5.550
 8871POPC   PO470536  44.638  33.784   5.850
 8871POPC   GL170537  44.666  33.769   6.150
 8871POPC   GL270538  44.559  33.725   6.150
 8871POPC   C1A70539  44.687  33.846   6.450
 8871POPC   D2A70540  44.656  33.829   6.750
 8871POPC   C3A70541  44.683  33.769   7.050
 8871POPC   C4A70542  44.671  33.832   7.350
 8871POPC   C1B70543  44.440  33.690   6.450
 8871POPC   C2B70544  44.386  33.780   6.750
 8871POPC   C3B70545  44.441  33.722   7.050
 8871POPC   C4B70546  44.390  33.779   7.350
 8872POPC   NC370547  36.104  12.072   5.550
 8872POPC   PO470548  36.148  12.079   5.850
 8872POPC   GL170549  36.147  12.067   6.150
 8872POPC   GL270550  36.072  11.965   6.150
 8872POPC   C1A70551  36.177  12.116   6.450
 8872POPC   D2A70552  36.129  12.057   6.750
 8872POPC   C3A70553  36.162  12.030   7.050
 8872POPC   C4A70554  36.163  12.061   7.350
 8872POPC   C1B70555  35.942  11.852   6.450
 8872POPC   C2B70556  35.956  11.863   6.750
 8872POPC   C3B70557  36.026  11.856   7.050
 8872POPC   C4B70558  36.037  11.848   7.350
 8873POPC   NC370559  32.270   8.181   5.550
 8873POPC   PO470560  32.263   8.207   5.850
 8873POPC   GL170561  32.204   8.202   6.150
 8873POPC   GL270562  32.229   8.133   6.150
 8873POPC   C1A70563  32.274   8.154   6.450
 8873POPC   D2A70564  32.224   8.150   6.750
 8873POPC   C3A70565  32.251   8.174   7.050
 8873POPC   C4A70566  32.219   8.227   7.350
 8873POPC   C1B70567  32.154   8.036   6.450
 8873POPC   C2B70568  32.068   7.960   6.750
 8873POPC   C3B70569  32.083   8.024   7.050
 8873POPC   C4B70570  32.075   8.011   7.350
 8874POPC   NC370571  29.899   3.540   5.550
 8874POPC   PO470572  29.970   3.535   5.850
 8874POPC   GL170573  29.883   3.501   6.150
 8874POPC   GL270574  29.998   3.651   6.150
 8874POPC   C1A70575  29.902   3.532   6.450
 8874POPC   D2A70576  29.919   3.573   6.750
 8874POPC   C3A70577  29.921   3.589   7.050
 8874POPC   C4A70578  29.909   3.530   7.350
 8874POPC   C1B70579  30.030   3.752   6.450
 8874POPC   C2B70580  30.070   3.709   6.750
 8874POPC   C3B70581  30.020   3.721   7.050
 8874POPC   C4B70582  30.031   3.746   7.350
 8875POPC   NC370583  40.825  19.068   5.550
 8875POPC   PO470584  40.808  19.020   5.850
 8875POPC   GL170585  40.765  19.042   6.150
 8875POPC   GL270586  40.696  19.029   6.150
 8875POPC   C1A70587  40.736  19.029   6.450
 8875POPC   D2A70588  40.762  19.044   6.750
 8875POPC   C3A70589  40.831  19.043   7.050
 8875POPC   C4A70590  40.783  19.068   7.350
 8875POPC   C1B70591  40.567  18.917   6.450
 8875POPC   C2B70592  40.586  18.912   6.750
 8875POPC   C3B70593  40.579  18.922   7.050
 8875POPC   C4B70594  40.626  18.947   7.350
 8876POPC   NC370595  15.150  34.574   5.550
 8876POPC   PO470596  15.200  34.527   5.850
 8876POPC   GL170597  15.162  34.589   6.150
 8876POPC   GL270598  15.028  34.637   6.150
 8876POPC   C1A70599  15.175  34.553   6.450
 8876POPC   D2A70600  15.197  34.607   6.750
 8876POPC   C3A70601  15.173  34.526   7.050
 8876POPC   C4A70602  15.223  34.546   7.350
 8876POPC   C1B70603  14.930  34.572   6.450
 8876POPC   C2B70604  14.952  34.583   6.750
 8876POPC   C3B70605  14.936  34.630   7.050
 8876POPC   C4B70606  14.908  34.578   7.350
 8877POPC   NC370607  10.564  38.470   5.550
 8877POPC   PO470608  10.492  38.418   5.850
 8877POPC   GL170609  10.563  38.494   6.150
 8877POPC   GL270610  10.594  38.542   6.150
 8877POPC   C1A70611  10.530  38.414   6.450
 8877POPC   D2A70612  10.569  38.495   6.750
 8877POPC   C3A70613  10.500  38.488   7.050
 8877POPC   C4A70614  10.486  38.452   7.350
 8877POPC   C1B70615  10.703  38.544   6.450
 8877POPC   C2B70616  10.754  38.581   6.750
 8877POPC   C3B70617  10.718  38.605   7.050
 8877POPC   C4B70618  10.716  38.553   7.350
 8878POPC   NC370619   5.097  21.436   5.550
 8878POPC   PO470620   5.098  21.428   5.850
 8878POPC   GL170621   5.089  21.367   6.150
 8878POPC   GL270622   5.239  21.307   6.150
 8878POPC   C1A70623   5.047  21.385   6.450
 8878POPC   D2A70624   5.080  21.384   6.750
 8878POPC   C3A70625   5.124  21.344   7.050
 8878POPC   C4A70626   5.132  21.435   7.350
 8878POPC   C1B70627   5.342  21.220   6.450
 8878POPC   C2B70628   5.348  21.256   6.750
 8878POPC   C3B70629   5.287  21.278   7.050
 8878POPC   C4B70630   5.290  21.233   7.350
 8879POPC   NC370631  16.739  40.768   5.550
 8879POPC   PO470632  16.722  40.785   5.850
 8879POPC   GL170633  16.743  40.762   6.150
 8879POPC   GL270634  16.668  40.841   6.150
 8879POPC   C1A70635  16.768  40.769   6.450
 8879POPC   D2A70636  16.770  40.804   6.750
 8879POPC   C3A70637  16.720  40.813   7.050
 8879POPC   C4A70638  16.733  40.772   7.350
 8879POPC   C1B70639  16.524  40.964   6.450
 8879POPC   C2B70640  16.558  40.976   6.750
 8879POPC   C3B70641  16.488  40.957   7.050
 8879POPC   C4B70642  16.490  40.974   7.350
 8880POPC   NC370643  26.085  18.276   5.550
 8880POPC   PO470644  26.044  18.237   5.850
 8880POPC   GL170645  26.073  18.263   6.150
 8880POPC   GL270646  25.949  18.254   6.150
 8880POPC   C1A70647  26.023  18.265   6.450
 8880POPC   D2A70648  25.995  18.286   6.750
 8880POPC   C3A70649  26.014  18.260   7.050
 8880POPC   C4A70650  25.997  18.280   7.350
 8880POPC   C1B70651  25.787  18.339   6.450
 8880POPC   C2B70652  25.748  18.324   6.750
 8880POPC   C3B70653  25.793  18.280   7.050
 8880POPC   C4B70654  25.768  18.265   7.350
 8881POPC   NC370655  27.622   4.278   5.550
 8881POPC   PO470656  27.643   4.312   5.850
 8881POPC   GL170657  27.627   4.346   6.150
 8881POPC   GL270658  27.609   4.144   6.150
 8881POPC   C1A70659  27.620   4.303   6.450
 8881POPC   D2A70660  27.588   4.276   6.750
 8881POPC   C3A70661  27.632   4.288   7.050
 8881POPC   C4A70662  27.630   4.350   7.350
 8881POPC   C1B70663  27.621   4.057   6.450
 8881POPC   C2B70664  27.637   4.021   6.750
 8881POPC   C3B70665  27.581   4.093   7.050
 8881POPC   C4B70666  27.590   4.074   7.350
 8882POPC   NC370667  25.217  12.054   5.550
 8882POPC   PO470668  25.218  12.072   5.850
 8882POPC   GL170669  25.264  12.058   6.150
 8882POPC   GL270670  25.309  11.990   6.150
 8882POPC   C1A70671  25.301  12.072   6.450
 8882POPC   D2A70672  25.230  12.072   6.750
 8882POPC   C3A70673  25.218  12.036   7.050
 8882POPC   C4A70674  25.250  12.112   7.350
 8882POPC   C1B70675  25.450  11.938   6.450
 8882POPC   C2B70676  25.482  11.945   6.750
 8882POPC   C3B70677  25.442  11.857   7.050
 8882POPC   C4B70678  25.464  11.939   7.350
 8883POPC   NC370679  10.477  31.432   5.550
 8883POPC   PO470680  10.556  31.448   5.850
 8883POPC   GL170681  10.526  31.514   6.150
 8883POPC   GL270682  10.616  31.618   6.150
 8883POPC   C1A70683  10.493  31.452   6.450
 8883POPC   D2A70684  10.573  31.447   6.750
 8883POPC   C3A70685  10.490  31.472   7.050
 8883POPC   C4A70686  10.517  31.460   7.350
 8883POPC   C1B70687  10.619  31.687   6.450
 8883POPC   C2B70688  10.659  31.732   6.750
 8883POPC   C3B70689  10.667  31.694   7.050
 8883POPC   C4B70690  10.622  31.715   7.350
 8884POPC   NC370691  26.063  40.813   5.550
 8884POPC   PO470692  26.033  40.751   5.850
 8884POPC   GL170693  26.061  40.744   6.150
 8884POPC   GL270694  26.045  40.920   6.150
 8884POPC   C1A70695  26.077  40.762   6.450
 8884POPC   D2A70696  26.058  40.750   6.750
 8884POPC   C3A70697  26.065  40.776   7.050
 8884POPC   C4A70698  26.090  40.765   7.350
 8884POPC   C1B70699  26.036  40.997   6.450
 8884POPC   C2B70700  26.067  41.066   6.750
 8884POPC   C3B70701  26.075  40.996   7.050
 8884POPC   C4B70702  25.999  40.990   7.350
 8885POPC   NC370703  40.830   4.317   5.550
 8885POPC   PO470704  40.788   4.303   5.850
 8885POPC   GL170705  40.797   4.301   6.150
 8885POPC   GL270706  40.859   4.369   6.150
 8885POPC   C1A70707  40.765   4.275   6.450
 8885POPC   D2A70708  40.790   4.348   6.750
 8885POPC   C3A70709  40.765   4.313   7.050
 8885POPC   C4A70710  40.765   4.307   7.350
 8885POPC   C1B70711  40.952   4.485   6.450
 8885POPC   C2B70712  40.925   4.481   6.750
 8885POPC   C3B70713  40.935   4.492   7.050
 8885POPC   C4B70714  41.002   4.472   7.350
 8886POPC   NC370715   3.507  10.496   5.550
 8886POPC   PO470716   3.566  10.513   5.850
 8886POPC   GL170717   3.584  10.568   6.150
 8886POPC   GL270718   3.374  10.559   6.150
 8886POPC   C1A70719   3.544  10.537   6.450
 8886POPC   D2A70720   3.576  10.524   6.750
 8886POPC   C3A70721   3.552  10.541   7.050
 8886POPC   C4A70722   3.582  10.535   7.350
 8886POPC   C1B70723   3.278  10.522   6.450
 8886POPC   C2B70724   3.259  10.506   6.750
 8886POPC   C3B70725   3.316  10.475   7.050
 8886POPC   C4B70726   3.290  10.512   7.350
 8887POPC   NC370727  24.456  25.216   5.550
 8887POPC   PO470728  24.467  25.236   5.850
 8887POPC   GL170729  24.441  25.270   6.150
 8887POPC   GL270730  24.484  25.379   6.150
 8887POPC   C1A70731  24.441  25.223   6.450
 8887POPC   D2A70732  24.506  25.300   6.750
 8887POPC   C3A70733  24.472  25.253   7.050
 8887POPC   C4A70734  24.464  25.253   7.350
 8887POPC   C1B70735  24.535  25.515   6.450
 8887POPC   C2B70736  24.531  25.518   6.750
 8887POPC   C3B70737  24.511  25.475   7.050
 8887POPC   C4B70738  24.555  25.555   7.350
 8888POPC   NC370739   4.300  27.592   5.550
 8888POPC   PO470740   4.304  27.613   5.850
 8888POPC   GL170741   4.348  27.616   6.150
 8888POPC   GL270742   4.323  27.682   6.150
 8888POPC   C1A70743   4.298  27.544   6.450
 8888POPC   D2A70744   4.308  27.566   6.750
 8888POPC   C3A70745   4.362  27.633   7.050
 8888POPC   C4A70746   4.305  27.557   7.350
 8888POPC   C1B70747   4.280  27.795   6.450
 8888POPC   C2B70748   4.304  27.870   6.750
 8888POPC   C3B70749   4.303  27.826   7.050
 8888POPC   C4B70750   4.308  27.823   7.350
 8889POPC   NC370751  25.250  43.085   5.550
 8889POPC   PO470752  25.306  43.094   5.850
 8889POPC   GL170753  25.239  43.156   6.150
 8889POPC   GL270754  25.202  43.054   6.150
 8889POPC   C1A70755  25.274  43.062   6.450
 8889POPC   D2A70756  25.261  43.135   6.750
 8889POPC   C3A70757  25.295  43.130   7.050
 8889POPC   C4A70758  25.227  43.116   7.350
 8889POPC   C1B70759  25.039  43.000   6.450
 8889POPC   C2B70760  25.085  42.983   6.750
 8889POPC   C3B70761  25.102  42.954   7.050
 8889POPC   C4B70762  25.045  42.975   7.350
 8890POPC   NC370763   6.630  38.414   5.550
 8890POPC   PO470764   6.650  38.434   5.850
 8890POPC   GL170765   6.651  38.497   6.150
 8890POPC   GL270766   6.660  38.302   6.150
 8890POPC   C1A70767   6.620  38.431   6.450
 8890POPC   D2A70768   6.669  38.466   6.750
 8890POPC   C3A70769   6.677  38.485   7.050
 8890POPC   C4A70770   6.612  38.489   7.350
 8890POPC   C1B70771   6.762  38.203   6.450
 8890POPC   C2B70772   6.744  38.202   6.750
 8890POPC   C3B70773   6.735  38.187   7.050
 8890POPC   C4B70774   6.731  38.210   7.350
 8891POPC   NC370775  40.024  37.694   5.550
 8891POPC   PO470776  40.010  37.632   5.850
 8891POPC   GL170777  40.015  37.699   6.150
 8891POPC   GL270778  39.859  37.704   6.150
 8891POPC   C1A70779  39.970  37.656   6.450
 8891POPC   D2A70780  40.053  37.638   6.750
 8891POPC   C3A70781  40.047  37.664   7.050
 8891POPC   C4A70782  39.992  37.675   7.350
 8891POPC   C1B70783  39.732  37.671   6.450
 8891POPC   C2B70784  39.782  37.720   6.750
 8891POPC   C3B70785  39.735  37.702   7.050
 8891POPC   C4B70786  39.801  37.714   7.350
 8892POPC   NC370787  36.114   8.992   5.550
 8892POPC   PO470788  36.097   8.995   5.850
 8892POPC   GL170789  36.119   8.991   6.150
 8892POPC   GL270790  36.016   8.942   6.150
 8892POPC   C1A70791  36.089   9.011   6.450
 8892POPC   D2A70792  36.139   8.977   6.750
 8892POPC   C3A70793  36.168   8.943   7.050
 8892POPC   C4A70794  36.110   8.976   7.350
 8892POPC   C1B70795  35.919   8.943   6.450
 8892POPC   C2B70796  35.840   8.950   6.750
 8892POPC   C3B70797  35.874   8.984   7.050
 8892POPC   C4B70798  35.897   8.988   7.350
 8893POPC   NC370799  26.779  37.705   5.550
 8893POPC   PO470800  26.818  37.674   5.850
 8893POPC   GL170801  26.820  37.727   6.150
 8893POPC   GL270802  26.955  37.628   6.150
 8893POPC   C1A70803  26.776  37.647   6.450
 8893POPC   D2A70804  26.812  37.724   6.750
 8893POPC   C3A70805  26.782  37.694   7.050
 8893POPC   C4A70806  26.775  37.724   7.350
 8893POPC   C1B70807  27.013  37.665   6.450
 8893POPC   C2B70808  27.037  37.580   6.750
 8893POPC   C3B70809  27.027  37.634   7.050
 8893POPC   C4B70810  27.035  37.592   7.350
 8894POPC   NC370811  43.901   7.395   5.550
 8894POPC   PO470812  43.865   7.391   5.850
 8894POPC   GL170813  43.853   7.392   6.150
 8894POPC   GL270814  43.749   7.347   6.150
 8894POPC   C1A70815  43.847   7.408   6.450
 8894POPC   D2A70816  43.935   7.388   6.750
 8894POPC   C3A70817  43.911   7.425   7.050
 8894POPC   C4A70818  43.905   7.426   7.350
 8894POPC   C1B70819  43.721   7.313   6.450
 8894POPC   C2B70820  43.659   7.277   6.750
 8894POPC   C3B70821  43.723   7.312   7.050
 8894POPC   C4B70822  43.626   7.247   7.350
 8895POPC   NC370823  40.789  27.609   5.550
 8895POPC   PO470824  40.815  27.569   5.850
 8895POPC   GL170825  40.788  27.597   6.150
 8895POPC   GL270826  40.762  27.738   6.150
 8895POPC   C1A70827  40.765  27.589   6.450
 8895POPC   D2A70828  40.812  27.562   6.750
 8895POPC   C3A70829  40.809  27.570   7.050
 8895POPC   C4A70830  40.744  27.623   7.350
 8895POPC   C1B70831  40.751  27.854   6.450
 8895POPC   C2B70832  40.771  27.810   6.750
 8895POPC   C3B70833  40.726  27.858   7.050
 8895POPC   C4B70834  40.743  27.845   7.350
 8896POPC   NC370835  11.270  33.767   5.550
 8896POPC   PO470836  11.330  33.779   5.850
 8896POPC   GL170837  11.279  33.846   6.150
 8896POPC   GL270838  11.336  33.681   6.150
 8896POPC   C1A70839  11.270  33.823   6.450
 8896POPC   D2A70840  11.313  33.798   6.750
 8896POPC   C3A70841  11.284  33.810   7.050
 8896POPC   C4A70842  11.259  33.805   7.350
 8896POPC   C1B70843  11.463  33.569   6.450
 8896POPC   C2B70844  11.439  33.605   6.750
 8896POPC   C3B70845  11.438  33.557   7.050
 8896POPC   C4B70846  11.455  33.631   7.350
 8897POPC   NC370847  33.009   5.917   5.550
 8897POPC   PO470848  33.073   5.882   5.850
 8897POPC   GL170849  33.065   5.847   6.150
 8897POPC   GL270850  32.927   5.900   6.150
 8897POPC   C1A70851  33.003   5.864   6.450
 8897POPC   D2A70852  33.043   5.900   6.750
 8897POPC   C3A70853  33.040   5.859   7.050
 8897POPC   C4A70854  33.014   5.908   7.350
 8897POPC   C1B70855  32.859   6.069   6.450
 8897POPC   C2B70856  32.816   6.009   6.750
 8897POPC   C3B70857  32.865   6.066   7.050
 8897POPC   C4B70858  32.780   6.015   7.350
 8898POPC   NC370859  15.187  26.796   5.550
 8898POPC   PO470860  15.143  26.768   5.850
 8898POPC   GL170861  15.138  26.774   6.150
 8898POPC   GL270862  15.077  26.842   6.150
 8898POPC   C1A70863  15.172  26.790   6.450
 8898POPC   D2A70864  15.156  26.801   6.750
 8898POPC   C3A70865  15.161  26.779   7.050
 8898POPC   C4A70866  15.208  26.770   7.350
 8898POPC   C1B70867  14.941  26.894   6.450
 8898POPC   C2B70868  14.942  26.927   6.750
 8898POPC   C3B70869  14.951  26.854   7.050
 8898POPC   C4B70870  14.956  26.851   7.350
 8899POPC   NC370871   6.633  11.330   5.550
 8899POPC   PO470872   6.644  11.264   5.850
 8899POPC   GL170873   6.631  11.303   6.150
 8899POPC   GL270874   6.717  11.244   6.150
 8899POPC   C1A70875   6.600  11.313   6.450
 8899POPC   D2A70876   6.671  11.299   6.750
 8899POPC   C3A70877   6.628  11.253   7.050
 8899POPC   C4A70878   6.619  11.331   7.350
 8899POPC   C1B70879   6.899  11.215   6.450
 8899POPC   C2B70880   6.845  11.119   6.750
 8899POPC   C3B70881   6.886  11.124   7.050
 8899POPC   C4B70882   6.817  11.206   7.350
 8900POPC   NC370883  18.325  40.764   5.550
 8900POPC   PO470884  18.325  40.752   5.850
 8900POPC   GL170885  18.249  40.821   6.150
 8900POPC   GL270886  18.176  40.741   6.150
 8900POPC   C1A70887  18.284  40.755   6.450
 8900POPC   D2A70888  18.317  40.794   6.750
 8900POPC   C3A70889  18.243  40.755   7.050
 8900POPC   C4A70890  18.269  40.747   7.350
 8900POPC   C1B70891  18.054  40.613   6.450
 8900POPC   C2B70892  18.112  40.621   6.750
 8900POPC   C3B70893  18.128  40.655   7.050
 8900POPC   C4B70894  18.067  40.575   7.350
 8901POPC   NC370895  38.410  15.218   5.550
 8901POPC   PO470896  38.477  15.229   5.850
 8901POPC   GL170897  38.502  15.222   6.150
 8901POPC   GL270898  38.370  15.325   6.150
 8901POPC   C1A70899  38.458  15.228   6.450
 8901POPC   D2A70900  38.462  15.204   6.750
 8901POPC   C3A70901  38.406  15.153   7.050
 8901POPC   C4A70902  38.431  15.147   7.350
 8901POPC   C1B70903  38.353  15.424   6.450
 8901POPC   C2B70904  38.364  15.365   6.750
 8901POPC   C3B70905  38.329  15.342   7.050
 8901POPC   C4B70906  38.350  15.350   7.350
 8902POPC   NC370907  26.776  11.279   5.550
 8902POPC   PO470908  26.802  11.287   5.850
 8902POPC   GL170909  26.818  11.275   6.150
 8902POPC   GL270910  26.883  11.183   6.150
 8902POPC   C1A70911  26.785  11.325   6.450
 8902POPC   D2A70912  26.800  11.295   6.750
 8902POPC   C3A70913  26.792  11.310   7.050
 8902POPC   C4A70914  26.828  11.324   7.350
 8902POPC   C1B70915  27.064  11.180   6.450
 8902POPC   C2B70916  27.046  11.119   6.750
 8902POPC   C3B70917  27.044  11.146   7.050
 8902POPC   C4B70918  27.049  11.185   7.350
 8903POPC   NC370919  33.032  41.522   5.550
 8903POPC   PO470920  33.003  41.582   5.850
 8903POPC   GL170921  33.064  41.570   6.150
 8903POPC   GL270922  33.142  41.490   6.150
 8903POPC   C1A70923  33.018  41.577   6.450
 8903POPC   D2A70924  33.019  41.592   6.750
 8903POPC   C3A70925  32.983  41.544   7.050
 8903POPC   C4A70926  32.993  41.530   7.350
 8903POPC   C1B70927  33.219  41.495   6.450
 8903POPC   C2B70928  33.300  41.413   6.750
 8903POPC   C3B70929  33.251  41.447   7.050
 8903POPC   C4B70930  33.303  41.483   7.350
 8904POPC   NC370931   1.232  39.243   5.550
 8904POPC   PO470932   1.192  39.224   5.850
 8904POPC   GL170933   1.255  39.245   6.150
 8904POPC   GL270934   1.232  39.385   6.150
 8904POPC   C1A70935   1.181  39.215   6.450
 8904POPC   D2A70936   1.222  39.249   6.750
 8904POPC   C3A70937   1.234  39.244   7.050
 8904POPC   C4A70938   1.246  39.219   7.350
 8904POPC   C1B70939   1.283  39.433   6.450
 8904POPC   C2B70940   1.307  39.496   6.750
 8904POPC   C3B70941   1.262  39.506   7.050
 8904POPC   C4B70942   1.308  39.485   7.350
 8905POPC   NC370943  34.610  36.088   5.550
 8905POPC   PO470944  34.601  36.103   5.850
 8905POPC   GL170945  34.556  36.168   6.150
 8905POPC   GL270946  34.594  36.017   6.150
 8905POPC   C1A70947  34.552  36.149   6.450
 8905POPC   D2A70948  34.541  36.145   6.750
 8905POPC   C3A70949  34.578  36.092   7.050
 8905POPC   C4A70950  34.576  36.161   7.350
 8905POPC   C1B70951  34.648  35.839   6.450
 8905POPC   C2B70952  34.648  35.889   6.750
 8905POPC   C3B70953  34.645  35.878   7.050
 8905POPC   C4B70954  34.581  35.922   7.350
 8906POPC   NC370955  20.634   3.539   5.550
 8906POPC   PO470956  20.621   3.539   5.850
 8906POPC   GL170957  20.592   3.498   6.150
 8906POPC   GL270958  20.577   3.451   6.150
 8906POPC   C1A70959  20.638   3.530   6.450
 8906POPC   D2A70960  20.650   3.559   6.750
 8906POPC   C3A70961  20.596   3.543   7.050
 8906POPC   C4A70962  20.571   3.536   7.350
 8906POPC   C1B70963  20.477   3.382   6.450
 8906POPC   C2B70964  20.472   3.314   6.750
 8906POPC   C3B70965  20.473   3.355   7.050
 8906POPC   C4B70966  20.471   3.355   7.350
 8907POPC   NC370967  14.395   5.082   5.550
 8907POPC   PO470968  14.408   5.094   5.850
 8907POPC   GL170969  14.440   5.119   6.150
 8907POPC   GL270970  14.305   5.038   6.150
 8907POPC   C1A70971  14.388   5.048   6.450
 8907POPC   D2A70972  14.443   5.120   6.750
 8907POPC   C3A70973  14.360   5.113   7.050
 8907POPC   C4A70974  14.398   5.063   7.350
 8907POPC   C1B70975  14.197   5.108   6.450
 8907POPC   C2B70976  14.134   5.111   6.750
 8907POPC   C3B70977  14.115   5.082   7.050
 8907POPC   C4B70978  14.146   5.037   7.350
 8908POPC   NC370979  35.312  36.872   5.550
 8908POPC   PO470980  35.379  36.923   5.850
 8908POPC   GL170981  35.381  36.930   6.150
 8908POPC   GL270982  35.310  36.967   6.150
 8908POPC   C1A70983  35.393  36.887   6.450
 8908POPC   D2A70984  35.310  36.941   6.750
 8908POPC   C3A70985  35.349  36.894   7.050
 8908POPC   C4A70986  35.345  36.922   7.350
 8908POPC   C1B70987  35.127  37.075   6.450
 8908POPC   C2B70988  35.165  37.046   6.750
 8908POPC   C3B70989  35.125  37.089   7.050
 8908POPC   C4B70990  35.172  37.066   7.350
 8909POPC   NC370991  44.618  29.879   5.550
 8909POPC   PO470992  44.654  29.926   5.850
 8909POPC   GL170993  44.679  29.927   6.150
 8909POPC   GL270994  44.806  29.910   6.150
 8909POPC   C1A70995  44.635  29.907   6.450
 8909POPC   D2A70996  44.637  29.892   6.750
 8909POPC   C3A70997  44.613  29.963   7.050
 8909POPC   C4A70998  44.632  29.916   7.350
 8909POPC   C1B70999  44.900  29.956   6.450
 8909POPC   C2B71000  44.915  29.977   6.750
 8909POPC   C3B71001  44.955  29.952   7.050
 8909POPC   C4B71002  44.917  29.963   7.350
 8910POPC   NC371003   8.976  14.423   5.550
 8910POPC   PO471004   8.960  14.423   5.850
 8910POPC   GL171005   8.956  14.361   6.150
 8910POPC   GL271006   9.045  14.289   6.150
 8910POPC   C1A71007   8.985  14.453   6.450
 8910POPC   D2A71008   8.942  14.413   6.750
 8910POPC   C3A71009   9.019  14.416   7.050
 8910POPC   C4A71010   8.989  14.381   7.350
 8910POPC   C1B71011   8.994  14.184   6.450
 8910POPC   C2B71012   9.026  14.118   6.750
 8910POPC   C3B71013   9.004  14.124   7.050
 8910POPC   C4B71014   8.999  14.188   7.350
 8911POPC   NC371015  29.951  26.076   5.550
 8911POPC   PO471016  29.874  26.006   5.850
 8911POPC   GL171017  29.903  26.091   6.150
 8911POPC   GL271018  30.081  26.115   6.150
 8911POPC   C1A71019  29.939  26.087   6.450
 8911POPC   D2A71020  29.900  26.087   6.750
 8911POPC   C3A71021  29.916  26.036   7.050
 8911POPC   C4A71022  29.968  26.033   7.350
 8911POPC   C1B71023  30.116  26.105   6.450
 8911POPC   C2B71024  30.125  26.087   6.750
 8911POPC   C3B71025  30.127  26.125   7.050
 8911POPC   C4B71026  30.152  26.104   7.350
 8912POPC   NC371027  10.554  22.904   5.550
 8912POPC   PO471028  10.564  22.938   5.850
 8912POPC   GL171029  10.570  22.895   6.150
 8912POPC   GL271030  10.520  23.085   6.150
 8912POPC   C1A71031  10.489  22.948   6.450
 8912POPC   D2A71032  10.478  22.954   6.750
 8912POPC   C3A71033  10.529  22.916   7.050
 8912POPC   C4A71034  10.537  22.919   7.350
 8912POPC   C1B71035  10.540  23.226   6.450
 8912POPC   C2B71036  10.548  23.158   6.750
 8912POPC   C3B71037  10.563  23.230   7.050
 8912POPC   C4B71038  10.536  23.209   7.350
 8913POPC   NC371039   3.545  11.330   5.550
 8913POPC   PO471040   3.519  11.296   5.850
 8913POPC   GL171041   3.584  11.280   6.150
 8913POPC   GL271042   3.482  11.389   6.150
 8913POPC   C1A71043   3.564  11.263   6.450
 8913POPC   D2A71044   3.541  11.261   6.750
 8913POPC   C3A71045   3.543  11.251   7.050
 8913POPC   C4A71046   3.560  11.260   7.350
 8913POPC   C1B71047   3.429  11.530   6.450
 8913POPC   C2B71048   3.472  11.536   6.750
 8913POPC   C3B71049   3.428  11.497   7.050
 8913POPC   C4B71050   3.404  11.567   7.350
 8914POPC   NC371051  41.565  17.554   5.550
 8914POPC   PO471052  41.521  17.468   5.850
 8914POPC   GL171053  41.539  17.529   6.150
 8914POPC   GL271054  41.634  17.563   6.150
 8914POPC   C1A71055  41.530  17.483   6.450
 8914POPC   D2A71056  41.561  17.467   6.750
 8914POPC   C3A71057  41.550  17.492   7.050
 8914POPC   C4A71058  41.575  17.514   7.350
 8914POPC   C1B71059  41.756  17.607   6.450
 8914POPC   C2B71060  41.792  17.599   6.750
 8914POPC   C3B71061  41.805  17.634   7.050
 8914POPC   C4B71062  41.747  17.593   7.350
 8915POPC   NC371063  44.647   3.542   5.550
 8915POPC   PO471064  44.663   3.517   5.850
 8915POPC   GL171065  44.693   3.495   6.150
 8915POPC   GL271066  44.591   3.471   6.150
 8915POPC   C1A71067  44.683   3.557   6.450
 8915POPC   D2A71068  44.645   3.555   6.750
 8915POPC   C3A71069  44.684   3.589   7.050
 8915POPC   C4A71070  44.702   3.533   7.350
 8915POPC   C1B71071  44.579   3.337   6.450
 8915POPC   C2B71072  44.583   3.334   6.750
 8915POPC   C3B71073  44.630   3.295   7.050
 8915POPC   C4B71074  44.638   3.328   7.350
 8916POPC   NC371075  15.939  21.355   5.550
 8916POPC   PO471076  15.957  21.408   5.850
 8916POPC   GL171077  15.959  21.396   6.150
 8916POPC   GL271078  15.898  21.235   6.150
 8916POPC   C1A71079  15.971  21.433   6.450
 8916POPC   D2A71080  15.917  21.375   6.750
 8916POPC   C3A71081  15.979  21.337   7.050
 8916POPC   C4A71082  15.958  21.367   7.350
 8916POPC   C1B71083  15.771  21.165   6.450
 8916POPC   C2B71084  15.787  21.163   6.750
 8916POPC   C3B71085  15.858  21.221   7.050
 8916POPC   C4B71086  15.780  21.170   7.350
 8917POPC   NC371087  19.060  33.023   5.550
 8917POPC   PO471088  19.040  32.979   5.850
 8917POPC   GL171089  19.073  33.036   6.150
 8917POPC   GL271090  18.956  32.991   6.150
 8917POPC   C1A71091  19.079  33.060   6.450
 8917POPC   D2A71092  19.108  33.061   6.750
 8917POPC   C3A71093  19.073  32.978   7.050
 8917POPC   C4A71094  19.051  33.031   7.350
 8917POPC   C1B71095  18.775  33.008   6.450
 8917POPC   C2B71096  18.850  32.941   6.750
 8917POPC   C3B71097  18.803  32.972   7.050
 8917POPC   C4B71098  18.805  32.934   7.350
 8918POPC   NC371099   3.528   8.232   5.550
 8918POPC   PO471100   3.515   8.204   5.850
 8918POPC   GL171101   3.533   8.194   6.150
 8918POPC   GL271102   3.680   8.240   6.150
 8918POPC   C1A71103   3.568   8.175   6.450
 8918POPC   D2A71104   3.528   8.236   6.750
 8918POPC   C3A71105   3.557   8.224   7.050
 8918POPC   C4A71106   3.515   8.172   7.350
 8918POPC   C1B71107   3.761   8.184   6.450
 8918POPC   C2B71108   3.802   8.271   6.750
 8918POPC   C3B71109   3.774   8.211   7.050
 8918POPC   C4B71110   3.762   8.237   7.350
 8919POPC   NC371111   5.062  23.688   5.550
 8919POPC   PO471112   5.071  23.677   5.850
 8919POPC   GL171113   5.109  23.687   6.150
 8919POPC   GL271114   5.230  23.687   6.150
 8919POPC   C1A71115   5.050  23.738   6.450
 8919POPC   D2A71116   5.128  23.719   6.750
 8919POPC   C3A71117   5.052  23.703   7.050
 8919POPC   C4A71118   5.112  23.741   7.350
 8919POPC   C1B71119   5.355  23.635   6.450
 8919POPC   C2B71120   5.310  23.635   6.750
 8919POPC   C3B71121   5.306  23.612   7.050
 8919POPC   C4B71122   5.325  23.694   7.350
 8920POPC   NC371123   3.523  29.945   5.550
 8920POPC   PO471124   3.573  29.874   5.850
 8920POPC   GL171125   3.547  29.964   6.150
 8920POPC   GL271126   3.631  29.814   6.150
 8920POPC   C1A71127   3.566  29.926   6.450
 8920POPC   D2A71128   3.563  29.920   6.750
 8920POPC   C3A71129   3.505  29.912   7.050
 8920POPC   C4A71130   3.502  29.959   7.350
 8920POPC   C1B71131   3.682  29.721   6.450
 8920POPC   C2B71132   3.643  29.710   6.750
 8920POPC   C3B71133   3.713  29.666   7.050
 8920POPC   C4B71134   3.636  29.717   7.350
 8921POPC   NC371135  33.830   6.637   5.550
 8921POPC   PO471136  33.819   6.609   5.850
 8921POPC   GL171137  33.805   6.657   6.150
 8921POPC   GL271138  33.870   6.582   6.150
 8921POPC   C1A71139  33.789   6.605   6.450
 8921POPC   D2A71140  33.807   6.688   6.750
 8921POPC   C3A71141  33.775   6.678   7.050
 8921POPC   C4A71142  33.831   6.695   7.350
 8921POPC   C1B71143  33.916   6.463   6.450
 8921POPC   C2B71144  33.884   6.405   6.750
 8921POPC   C3B71145  33.909   6.468   7.050
 8921POPC   C4B71146  33.882   6.436   7.350
 8922POPC   NC371147  33.040   4.293   5.550
 8922POPC   PO471148  32.975   4.361   5.850
 8922POPC   GL171149  33.066   4.322   6.150
 8922POPC   GL271150  32.932   4.379   6.150
 8922POPC   C1A71151  33.048   4.340   6.450
 8922POPC   D2A71152  32.998   4.268   6.750
 8922POPC   C3A71153  33.029   4.328   7.050
 8922POPC   C4A71154  32.995   4.365   7.350
 8922POPC   C1B71155  32.805   4.444   6.450
 8922POPC   C2B71156  32.858   4.476   6.750
 8922POPC   C3B71157  32.858   4.493   7.050
 8922POPC   C4B71158  32.859   4.452   7.350
 8923POPC   NC371159  36.139  25.294   5.550
 8923POPC   PO471160  36.126  25.245   5.850
 8923POPC   GL171161  36.114  25.246   6.150
 8923POPC   GL271162  35.973  25.204   6.150
 8923POPC   C1A71163  36.126  25.265   6.450
 8923POPC   D2A71164  36.102  25.287   6.750
 8923POPC   C3A71165  36.082  25.286   7.050
 8923POPC   C4A71166  36.137  25.243   7.350
 8923POPC   C1B71167  35.930  25.151   6.450
 8923POPC   C2B71168  35.898  25.202   6.750
 8923POPC   C3B71169  35.896  25.181   7.050
 8923POPC   C4B71170  35.882  25.235   7.350
 8924POPC   NC371171  12.883   5.858   5.550
 8924POPC   PO471172  12.836   5.895   5.850
 8924POPC   GL171173  12.851   5.913   6.150
 8924POPC   GL271174  12.714   5.872   6.150
 8924POPC   C1A71175  12.874   5.860   6.450
 8924POPC   D2A71176  12.815   5.838   6.750
 8924POPC   C3A71177  12.866   5.825   7.050
 8924POPC   C4A71178  12.851   5.846   7.350
 8924POPC   C1B71179  12.641   5.801   6.450
 8924POPC   C2B71180  12.633   5.816   6.750
 8924POPC   C3B71181  12.580   5.806   7.050
 8924POPC   C4B71182  12.585   5.772   7.350
 8925POPC   NC371183   2.032  30.651   5.550
 8925POPC   PO471184   1.997  30.744   5.850
 8925POPC   GL171185   2.023  30.658   6.150
 8925POPC   GL271186   2.126  30.632   6.150
 8925POPC   C1A71187   1.956  30.662   6.450
 8925POPC   D2A71188   1.971  30.706   6.750
 8925POPC   C3A71189   2.029  30.704   7.050
 8925POPC   C4A71190   1.960  30.738   7.350
 8925POPC   C1B71191   2.233  30.602   6.450
 8925POPC   C2B71192   2.196  30.544   6.750
 8925POPC   C3B71193   2.203  30.531   7.050
 8925POPC   C4B71194   2.147  30.507   7.350
 8926POPC   NC371195  15.917  36.131   5.550
 8926POPC   PO471196  15.989  36.134   5.850
 8926POPC   GL171197  15.939  36.110   6.150
 8926POPC   GL271198  15.842  36.116   6.150
 8926POPC   C1A71199  15.956  36.149   6.450
 8926POPC   D2A71200  15.970  36.118   6.750
 8926POPC   C3A71201  15.975  36.152   7.050
 8926POPC   C4A71202  15.929  36.165   7.350
 8926POPC   C1B71203  15.753  36.094   6.450
 8926POPC   C2B71204  15.704  36.038   6.750
 8926POPC   C3B71205  15.707  36.018   7.050
 8926POPC   C4B71206  15.750  36.057   7.350
 8927POPC   NC371207   0.470   9.009   5.550
 8927POPC   PO471208   0.470   8.967   5.850
 8927POPC   GL171209   0.472   8.961   6.150
 8927POPC   GL271210   0.496   9.092   6.150
 8927POPC   C1A71211   0.401   8.963   6.450
 8927POPC   D2A71212   0.429   8.930   6.750
 8927POPC   C3A71213   0.469   9.001   7.050
 8927POPC   C4A71214   0.470   8.992   7.350
 8927POPC   C1B71215   0.474   9.216   6.450
 8927POPC   C2B71216   0.493   9.204   6.750
 8927POPC   C3B71217   0.484   9.180   7.050
 8927POPC   C4B71218   0.484   9.175   7.350
 8928POPC   NC371219  20.626  19.034   5.550
 8928POPC   PO471220  20.599  19.106   5.850
 8928POPC   GL171221  20.620  19.036   6.150
 8928POPC   GL271222  20.527  19.157   6.150
 8928POPC   C1A71223  20.628  19.086   6.450
 8928POPC   D2A71224  20.573  19.052   6.750
 8928POPC   C3A71225  20.618  19.014   7.050
 8928POPC   C4A71226  20.620  19.089   7.350
 8928POPC   C1B71227  20.373  19.170   6.450
 8928POPC   C2B71228  20.364  19.163   6.750
 8928POPC   C3B71229  20.415  19.126   7.050
 8928POPC   C4B71230  20.428  19.162   7.350
 8929POPC   NC371231  15.215  43.099   5.550
 8929POPC   PO471232  15.145  43.136   5.850
 8929POPC   GL171233  15.157  43.156   6.150
 8929POPC   GL271234  15.078  43.005   6.150
 8929POPC   C1A71235  15.205  43.078   6.450
 8929POPC   D2A71236  15.185  43.147   6.750
 8929POPC   C3A71237  15.203  43.067   7.050
 8929POPC   C4A71238  15.155  43.076   7.350
 8929POPC   C1B71239  15.059  42.933   6.450
 8929POPC   C2B71240  15.054  42.937   6.750
 8929POPC   C3B71241  15.030  42.944   7.050
 8929POPC   C4B71242  14.989  42.908   7.350
 8930POPC   NC371243  22.159  40.818   5.550
 8930POPC   PO471244  22.152  40.759   5.850
 8930POPC   GL171245  22.151  40.819   6.150
 8930POPC   GL271246  22.268  40.819   6.150
 8930POPC   C1A71247  22.131  40.793   6.450
 8930POPC   D2A71248  22.121  40.802   6.750
 8930POPC   C3A71249  22.188  40.821   7.050
 8930POPC   C4A71250  22.210  40.766   7.350
 8930POPC   C1B71251  22.346  40.924   6.450
 8930POPC   C2B71252  22.418  40.889   6.750
 8930POPC   C3B71253  22.402  40.855   7.050
 8930POPC   C4B71254  22.409  40.865   7.350
 8931POPC   NC371255  38.443  38.478   5.550
 8931POPC   PO471256  38.486  38.436   5.850
 8931POPC   GL171257  38.495  38.443   6.150
 8931POPC   GL271258  38.577  38.403   6.150
 8931POPC   C1A71259  38.457  38.411   6.450
 8931POPC   D2A71260  38.426  38.457   6.750
 8931POPC   C3A71261  38.421  38.485   7.050
 8931POPC   C4A71262  38.466  38.475   7.350
 8931POPC   C1B71263  38.707  38.306   6.450
 8931POPC   C2B71264  38.689  38.293   6.750
 8931POPC   C3B71265  38.640  38.318   7.050
 8931POPC   C4B71266  38.684  38.314   7.350
 8932POPC   NC371267  29.167  23.736   5.550
 8932POPC   PO471268  29.192  23.727   5.850
 8932POPC   GL171269  29.125  23.756   6.150
 8932POPC   GL271270  29.215  23.798   6.150
 8932POPC   C1A71271  29.107  23.712   6.450
 8932POPC   D2A71272  29.122  23.708   6.750
 8932POPC   C3A71273  29.130  23.736   7.050
 8932POPC   C4A71274  29.190  23.757   7.350
 8932POPC   C1B71275  29.352  23.835   6.450
 8932POPC   C2B71276  29.352  23.813   6.750
 8932POPC   C3B71277  29.362  23.860   7.050
 8932POPC   C4B71278  29.376  23.825   7.350
 8933POPC   NC371279  15.199  16.755   5.550
 8933POPC   PO471280  15.198  16.780   5.850
 8933POPC   GL171281  15.150  16.752   6.150
 8933POPC   GL271282  15.225  16.841   6.150
 8933POPC   C1A71283  15.183  16.714   6.450
 8933POPC   D2A71284  15.221  16.691   6.750
 8933POPC   C3A71285  15.134  16.697   7.050
 8933POPC   C4A71286  15.168  16.749   7.350
 8933POPC   C1B71287  15.313  16.970   6.450
 8933POPC   C2B71288  15.290  16.989   6.750
 8933POPC   C3B71289  15.245  16.967   7.050
 8933POPC   C4B71290  15.303  16.978   7.350
 8934POPC   NC371291  42.320  11.262   5.550
 8934POPC   PO471292  42.321  11.335   5.850
 8934POPC   GL171293  42.372  11.251   6.150
 8934POPC   GL271294  42.183  11.348   6.150
 8934POPC   C1A71295  42.373  11.324   6.450
 8934POPC   D2A71296  42.288  11.274   6.750
 8934POPC   C3A71297  42.346  11.309   7.050
 8934POPC   C4A71298  42.286  11.278   7.350
 8934POPC   C1B71299  42.118  11.399   6.450
 8934POPC   C2B71300  42.067  11.373   6.750
 8934POPC   C3B71301  42.152  11.450   7.050
 8934POPC   C4B71302  42.088  11.356   7.350
 8935POPC   NC371303  15.925  20.572   5.550
 8935POPC   PO471304  16.001  20.597   5.850
 8935POPC   GL171305  15.924  20.572   6.150
 8935POPC   GL271306  15.880  20.539   6.150
 8935POPC   C1A71307  16.001  20.623   6.450
 8935POPC   D2A71308  15.994  20.590   6.750
 8935POPC   C3A71309  15.940  20.578   7.050
 8935POPC   C4A71310  15.928  20.629   7.350
 8935POPC   C1B71311  15.849  20.412   6.450
 8935POPC   C2B71312  15.822  20.340   6.750
 8935POPC   C3B71313  15.845  20.418   7.050
 8935POPC   C4B71314  15.868  20.339   7.350
 8936POPC   NC371315  33.757  12.832   5.550
 8936POPC   PO471316  33.834  12.819   5.850
 8936POPC   GL171317  33.789  12.888   6.150
 8936POPC   GL271318  33.780  12.773   6.150
 8936POPC   C1A71319  33.810  12.831   6.450
 8936POPC   D2A71320  33.792  12.862   6.750
 8936POPC   C3A71321  33.810  12.806   7.050
 8936POPC   C4A71322  33.843  12.841   7.350
 8936POPC   C1B71323  33.702  12.641   6.450
 8936POPC   C2B71324  33.710  12.611   6.750
 8936POPC   C3B71325  33.647  12.664   7.050
 8936POPC   C4B71326  33.731  12.582   7.350
 8937POPC   NC371327   8.201  22.178   5.550
 8937POPC   PO471328   8.210  22.140   5.850
 8937POPC   GL171329   8.231  22.160   6.150
 8937POPC   GL271330   8.284  22.229   6.150
 8937POPC   C1A71331   8.202  22.124   6.450
 8937POPC   D2A71332   8.241  22.186   6.750
 8937POPC   C3A71333   8.226  22.121   7.050
 8937POPC   C4A71334   8.207  22.153   7.350
 8937POPC   C1B71335   8.399  22.315   6.450
 8937POPC   C2B71336   8.340  22.298   6.750
 8937POPC   C3B71337   8.339  22.387   7.050
 8937POPC   C4B71338   8.389  22.298   7.350
 8938POPC   NC371339  18.267  36.135   5.550
 8938POPC   PO471340  18.244  36.170   5.850
 8938POPC   GL171341  18.284  36.091   6.150
 8938POPC   GL271342  18.199  36.067   6.150
 8938POPC   C1A71343  18.320  36.117   6.450
 8938POPC   D2A71344  18.242  36.097   6.750
 8938POPC   C3A71345  18.262  36.124   7.050
 8938POPC   C4A71346  18.286  36.117   7.350
 8938POPC   C1B71347  18.117  35.986   6.450
 8938POPC   C2B71348  18.052  35.979   6.750
 8938POPC   C3B71349  18.086  36.020   7.050
 8938POPC   C4B71350  18.049  36.011   7.350
 8939POPC   NC371351  12.902  43.839   5.550
 8939POPC   PO471352  12.842  43.911   5.850
 8939POPC   GL171353  12.841  43.860   6.150
 8939POPC   GL271354  12.727  43.844   6.150
 8939POPC   C1A71355  12.849  43.860   6.450
 8939POPC   D2A71356  12.827  43.844   6.750
 8939POPC   C3A71357  12.816  43.876   7.050
 8939POPC   C4A71358  12.831  43.897   7.350
 8939POPC   C1B71359  12.616  43.838   6.450
 8939POPC   C2B71360  12.634  43.756   6.750
 8939POPC   C3B71361  12.658  43.779   7.050
 8939POPC   C4B71362  12.654  43.758   7.350
 8940POPC   NC371363   5.909  23.670   5.550
 8940POPC   PO471364   5.855  23.705   5.850
 8940POPC   GL171365   5.852  23.759   6.150
 8940POPC   GL271366   5.828  23.840   6.150
 8940POPC   C1A71367   5.885  23.717   6.450
 8940POPC   D2A71368   5.873  23.734   6.750
 8940POPC   C3A71369   5.878  23.701   7.050
 8940POPC   C4A71370   5.832  23.757   7.350
 8940POPC   C1B71371   5.795  23.989   6.450
 8940POPC   C2B71372   5.808  23.985   6.750
 8940POPC   C3B71373   5.757  23.941   7.050
 8940POPC   C4B71374   5.755  23.911   7.350
 8941POPC   NC371375   8.243  11.283   5.550
 8941POPC   PO471376   8.204  11.274   5.850
 8941POPC   GL171377   8.193  11.295   6.150
 8941POPC   GL271378   8.131  11.193   6.150
 8941POPC   C1A71379   8.236  11.263   6.450
 8941POPC   D2A71380   8.239  11.291   6.750
 8941POPC   C3A71381   8.210  11.337   7.050
 8941POPC   C4A71382   8.177  11.318   7.350
 8941POPC   C1B71383   8.007  11.134   6.450
 8941POPC   C2B71384   7.996  11.147   6.750
 8941POPC   C3B71385   7.974  11.195   7.050
 8941POPC   C4B71386   7.951  11.197   7.350
 8942POPC   NC371387  19.844  40.031   5.550
 8942POPC   PO471388  19.866  40.001   5.850
 8942POPC   GL171389  19.870  40.043   6.150
 8942POPC   GL271390  19.863  39.847   6.150
 8942POPC   C1A71391  19.868  39.995   6.450
 8942POPC   D2A71392  19.882  40.003   6.750
 8942POPC   C3A71393  19.800  40.016   7.050
 8942POPC   C4A71394  19.815  40.030   7.350
 8942POPC   C1B71395  19.827  39.799   6.450
 8942POPC   C2B71396  19.821  39.716   6.750
 8942POPC   C3B71397  19.872  39.765   7.050
 8942POPC   C4B71398  19.830  39.715   7.350
 8943POPC   NC371399  26.044  33.038   5.550
 8943POPC   PO471400  26.002  33.035   5.850
 8943POPC   GL171401  26.008  33.038   6.150
 8943POPC   GL271402  25.992  33.136   6.150
 8943POPC   C1A71403  26.030  33.061   6.450
 8943POPC   D2A71404  26.006  33.021   6.750
 8943POPC   C3A71405  25.994  32.977   7.050
 8943POPC   C4A71406  26.012  33.026   7.350
 8943POPC   C1B71407  25.953  33.279   6.450
 8943POPC   C2B71408  25.975  33.284   6.750
 8943POPC   C3B71409  25.983  33.281   7.050
 8943POPC   C4B71410  26.009  33.255   7.350
 8944POPC   NC371411  36.115  36.898   5.550
 8944POPC   PO471412  36.127  36.858   5.850
 8944POPC   GL171413  36.110  36.878   6.150
 8944POPC   GL271414  36.196  37.072   6.150
 8944POPC   C1A71415  36.098  36.930   6.450
 8944POPC   D2A71416  36.098  36.923   6.750
 8944POPC   C3A71417  36.087  36.905   7.050
 8944POPC   C4A71418  36.176  36.877   7.350
 8944POPC   C1B71419  36.154  37.110   6.450
 8944POPC   C2B71420  36.167  37.182   6.750
 8944POPC   C3B71421  36.181  37.174   7.050
 8944POPC   C4B71422  36.194  37.104   7.350
 8945POPC   NC371423  43.136  10.505   5.550
 8945POPC   PO471424  43.091  10.482   5.850
 8945POPC   GL171425  43.121  10.531   6.150
 8945POPC   GL271426  42.964  10.606   6.150
 8945POPC   C1A71427  43.114  10.489   6.450
 8945POPC   D2A71428  43.061  10.510   6.750
 8945POPC   C3A71429  43.103  10.549   7.050
 8945POPC   C4A71430  43.159  10.558   7.350
 8945POPC   C1B71431  42.877  10.698   6.450
 8945POPC   C2B71432  42.854  10.631   6.750
 8945POPC   C3B71433  42.934  10.699   7.050
 8945POPC   C4B71434  42.867  10.662   7.350
 8946POPC   NC371435  36.138  16.751   5.550
 8946POPC   PO471436  36.162  16.699   5.850
 8946POPC   GL171437  36.085  16.765   6.150
 8946POPC   GL271438  35.988  16.623   6.150
 8946POPC   C1A71439  36.131  16.754   6.450
 8946POPC   D2A71440  36.131  16.761   6.750
 8946POPC   C3A71441  36.168  16.773   7.050
 8946POPC   C4A71442  36.100  16.747   7.350
 8946POPC   C1B71443  35.926  16.510   6.450
 8946POPC   C2B71444  35.951  16.555   6.750
 8946POPC   C3B71445  35.990  16.585   7.050
 8946POPC   C4B71446  35.993  16.512   7.350
 8947POPC   NC371447  15.924  28.414   5.550
 8947POPC   PO471448  15.994  28.412   5.850
 8947POPC   GL171449  15.907  28.347   6.150
 8947POPC   GL271450  15.963  28.205   6.150
 8947POPC   C1A71451  15.969  28.351   6.450
 8947POPC   D2A71452  15.942  28.385   6.750
 8947POPC   C3A71453  15.917  28.400   7.050
 8947POPC   C4A71454  15.959  28.410   7.350
 8947POPC   C1B71455  16.035  28.180   6.450
 8947POPC   C2B71456  16.089  28.102   6.750
 8947POPC   C3B71457  16.066  28.171   7.050
 8947POPC   C4B71458  16.004  28.119   7.350
 8948POPC   NC371459  41.598  19.796   5.550
 8948POPC   PO471460  41.524  19.857   5.850
 8948POPC   GL171461  41.571  19.861   6.150
 8948POPC   GL271462  41.389  19.833   6.150
 8948POPC   C1A71463  41.527  19.787   6.450
 8948POPC   D2A71464  41.569  19.881   6.750
 8948POPC   C3A71465  41.598  19.859   7.050
 8948POPC   C4A71466  41.561  19.832   7.350
 8948POPC   C1B71467  41.321  19.893   6.450
 8948POPC   C2B71468  41.277  19.843   6.750
 8948POPC   C3B71469  41.270  19.895   7.050
 8948POPC   C4B71470  41.300  19.865   7.350
 8949POPC   NC371471   5.053  10.542   5.550
 8949POPC   PO471472   5.055  10.522   5.850
 8949POPC   GL171473   5.062  10.483   6.150
 8949POPC   GL271474   5.033  10.411   6.150
 8949POPC   C1A71475   5.088  10.547   6.450
 8949POPC   D2A71476   5.103  10.550   6.750
 8949POPC   C3A71477   5.118  10.530   7.050
 8949POPC   C4A71478   5.106  10.552   7.350
 8949POPC   C1B71479   4.870  10.393   6.450
 8949POPC   C2B71480   4.923  10.302   6.750
 8949POPC   C3B71481   4.887  10.323   7.050
 8949POPC   C4B71482   4.890  10.354   7.350
 8950POPC   NC371483  12.029   4.350   5.550
 8950POPC   PO471484  12.086   4.354   5.850
 8950POPC   GL171485  12.103   4.327   6.150
 8950POPC   GL271486  12.034   4.423   6.150
 8950POPC   C1A71487  12.058   4.304   6.450
 8950POPC   D2A71488  12.094   4.269   6.750
 8950POPC   C3A71489  12.033   4.342   7.050
 8950POPC   C4A71490  12.053   4.294   7.350
 8950POPC   C1B71491  11.934   4.556   6.450
 8950POPC   C2B71492  11.984   4.575   6.750
 8950POPC   C3B71493  11.989   4.564   7.050
 8950POPC   C4B71494  11.997   4.509   7.350
 8951POPC   NC371495  18.280   9.775   5.550
 8951POPC   PO471496  18.297   9.756   5.850
 8951POPC   GL171497  18.269   9.780   6.150
 8951POPC   GL271498  18.337   9.659   6.150
 8951POPC   C1A71499  18.286   9.753   6.450
 8951POPC   D2A71500  18.273   9.765   6.750
 8951POPC   C3A71501  18.262   9.731   7.050
 8951POPC   C4A71502  18.305   9.776   7.350
 8951POPC   C1B71503  18.445   9.502   6.450
 8951POPC   C2B71504  18.436   9.525   6.750
 8951POPC   C3B71505  18.445   9.542   7.050
 8951POPC   C4B71506  18.378   9.531   7.350
 8952POPC   NC371507  27.569  27.566   5.550
 8952POPC   PO471508  27.563  27.572   5.850
 8952POPC   GL171509  27.602  27.574   6.150
 8952POPC   GL271510  27.504  27.559   6.150
 8952POPC   C1A71511  27.543  27.553   6.450
 8952POPC   D2A71512  27.623  27.578   6.750
 8952POPC   C3A71513  27.626  27.548   7.050
 8952POPC   C4A71514  27.607  27.560   7.350
 8952POPC   C1B71515  27.342  27.525   6.450
 8952POPC   C2B71516  27.337  27.561   6.750
 8952POPC   C3B71517  27.354  27.508   7.050
 8952POPC   C4B71518  27.355  27.520   7.350
 8953POPC   NC371519  38.478  19.792   5.550
 8953POPC   PO471520  38.409  19.850   5.850
 8953POPC   GL171521  38.492  19.829   6.150
 8953POPC   GL271522  38.321  19.772   6.150
 8953POPC   C1A71523  38.483  19.864   6.450
 8953POPC   D2A71524  38.451  19.819   6.750
 8953POPC   C3A71525  38.454  19.865   7.050
 8953POPC   C4A71526  38.408  19.854   7.350
 8953POPC   C1B71527  38.196  19.736   6.450
 8953POPC   C2B71528  38.278  19.747   6.750
 8953POPC   C3B71529  38.192  19.666   7.050
 8953POPC   C4B71530  38.240  19.683   7.350
 8954POPC   NC371531  35.328   7.419   5.550
 8954POPC   PO471532  35.319   7.374   5.850
 8954POPC   GL171533  35.346   7.384   6.150
 8954POPC   GL271534  35.425   7.464   6.150
 8954POPC   C1A71535  35.331   7.455   6.450
 8954POPC   D2A71536  35.332   7.454   6.750
 8954POPC   C3A71537  35.317   7.407   7.050
 8954POPC   C4A71538  35.339   7.380   7.350
 8954POPC   C1B71539  35.610   7.504   6.450
 8954POPC   C2B71540  35.564   7.483   6.750
 8954POPC   C3B71541  35.572   7.492   7.050
 8954POPC   C4B71542  35.559   7.520   7.350
 8955POPC   NC371543  25.217   4.341   5.550
 8955POPC   PO471544  25.269   4.344   5.850
 8955POPC   GL171545  25.265   4.296   6.150
 8955POPC   GL271546  25.313   4.249   6.150
 8955POPC   C1A71547  25.283   4.300   6.450
 8955POPC   D2A71548  25.280   4.274   6.750
 8955POPC   C3A71549  25.262   4.297   7.050
 8955POPC   C4A71550  25.266   4.353   7.350
 8955POPC   C1B71551  25.389   4.121   6.450
 8955POPC   C2B71552  25.345   4.053   6.750
 8955POPC   C3B71553  25.390   4.123   7.050
 8955POPC   C4B71554  25.387   4.108   7.350
 8956POPC   NC371555  33.062  15.199   5.550
 8956POPC   PO471556  33.045  15.212   5.850
 8956POPC   GL171557  33.070  15.138   6.150
 8956POPC   GL271558  32.897  15.089   6.150
 8956POPC   C1A71559  33.042  15.194   6.450
 8956POPC   D2A71560  33.013  15.228   6.750
 8956POPC   C3A71561  33.025  15.132   7.050
 8956POPC   C4A71562  33.045  15.142   7.350
 8956POPC   C1B71563  32.788  15.067   6.450
 8956POPC   C2B71564  32.870  15.046   6.750
 8956POPC   C3B71565  32.821  15.081   7.050
 8956POPC   C4B71566  32.808  15.019   7.350
 8957POPC   NC371567  23.721  14.365   5.550
 8957POPC   PO471568  23.724  14.434   5.850
 8957POPC   GL171569  23.694  14.388   6.150
 8957POPC   GL271570  23.763  14.254   6.150
 8957POPC   C1A71571  23.726  14.435   6.450
 8957POPC   D2A71572  23.745  14.419   6.750
 8957POPC   C3A71573  23.734  14.453   7.050
 8957POPC   C4A71574  23.708  14.354   7.350
 8957POPC   C1B71575  23.762  14.169   6.450
 8957POPC   C2B71576  23.709  14.139   6.750
 8957POPC   C3B71577  23.793  14.114   7.050
 8957POPC   C4B71578  23.720  14.117   7.350
 8958POPC   NC371579  23.692  36.892   5.550
 8958POPC   PO471580  23.695  36.882   5.850
 8958POPC   GL171581  23.675  36.882   6.150
 8958POPC   GL271582  23.867  36.970   6.150
 8958POPC   C1A71583  23.675  36.921   6.450
 8958POPC   D2A71584  23.706  36.887   6.750
 8958POPC   C3A71585  23.740  36.935   7.050
 8958POPC   C4A71586  23.689  36.904   7.350
 8958POPC   C1B71587  23.937  36.944   6.450
 8958POPC   C2B71588  23.916  36.923   6.750
 8958POPC   C3B71589  23.949  36.954   7.050
 8958POPC   C4B71590  23.964  36.983   7.350
 8959POPC   NC371591  44.646  15.218   5.550
 8959POPC   PO471592  44.710  15.160   5.850
 8959POPC   GL171593  44.685  15.170   6.150
 8959POPC   GL271594  44.754  15.120   6.150
 8959POPC   C1A71595  44.659  15.160   6.450
 8959POPC   D2A71596  44.685  15.142   6.750
 8959POPC   C3A71597  44.693  15.183   7.050
 8959POPC   C4A71598  44.643  15.177   7.350
 8959POPC   C1B71599  44.900  15.068   6.450
 8959POPC   C2B71600  44.925  15.099   6.750
 8959POPC   C3B71601  44.937  15.054   7.050
 8959POPC   C4B71602  44.887  15.116   7.350
 8960POPC   NC371603  35.303  28.382   5.550
 8960POPC   PO471604  35.333  28.383   5.850
 8960POPC   GL171605  35.360  28.337   6.150
 8960POPC   GL271606  35.307  28.456   6.150
 8960POPC   C1A71607  35.375  28.406   6.450
 8960POPC   D2A71608  35.307  28.324   6.750
 8960POPC   C3A71609  35.362  28.337   7.050
 8960POPC   C4A71610  35.385  28.400   7.350
 8960POPC   C1B71611  35.232  28.565   6.450
 8960POPC   C2B71612  35.174  28.555   6.750
 8960POPC   C3B71613  35.187  28.576   7.050
 8960POPC   C4B71614  35.155  28.557   7.350
 8961POPC   NC371615  32.241  43.150   5.550
 8961POPC   PO471616  32.293  43.153   5.850
 8961POPC   GL171617  32.264  43.066   6.150
 8961POPC   GL271618  32.223  43.030   6.150
 8961POPC   C1A71619  32.267  43.110   6.450
 8961POPC   D2A71620  32.225  43.064   6.750
 8961POPC   C3A71621  32.251  43.075   7.050
 8961POPC   C4A71622  32.240  43.112   7.350
 8961POPC   C1B71623  32.115  42.899   6.450
 8961POPC   C2B71624  32.136  42.918   6.750
 8961POPC   C3B71625  32.177  42.910   7.050
 8961POPC   C4B71626  32.125  42.928   7.350
 8962POPC   NC371627  39.988   9.769   5.550
 8962POPC   PO471628  40.026   9.706   5.850
 8962POPC   GL171629  39.993   9.702   6.150
 8962POPC   GL271630  40.047   9.838   6.150
 8962POPC   C1A71631  40.021   9.796   6.450
 8962POPC   D2A71632  40.013   9.750   6.750
 8962POPC   C3A71633  40.042   9.699   7.050
 8962POPC   C4A71634  40.044   9.781   7.350
 8962POPC   C1B71635  40.114   9.985   6.450
 8962POPC   C2B71636  40.072   9.951   6.750
 8962POPC   C3B71637  40.119  10.014   7.050
 8962POPC   C4B71638  40.104   9.952   7.350
 8963POPC   NC371639  16.701  19.833   5.550
 8963POPC   PO471640  16.740  19.814   5.850
 8963POPC   GL171641  16.778  19.831   6.150
 8963POPC   GL271642  16.831  19.884   6.150
 8963POPC   C1A71643  16.695  19.787   6.450
 8963POPC   D2A71644  16.688  19.786   6.750
 8963POPC   C3A71645  16.732  19.815   7.050
 8963POPC   C4A71646  16.780  19.845   7.350
 8963POPC   C1B71647  16.920  19.947   6.450
 8963POPC   C2B71648  16.927  20.024   6.750
 8963POPC   C3B71649  16.885  19.988   7.050
 8963POPC   C4B71650  16.964  19.982   7.350
 8964POPC   NC371651  30.666  10.527   5.550
 8964POPC   PO471652  30.650  10.493   5.850
 8964POPC   GL171653  30.736  10.487   6.150
 8964POPC   GL271654  30.584  10.392   6.150
 8964POPC   C1A71655  30.731  10.506   6.450
 8964POPC   D2A71656  30.702  10.549   6.750
 8964POPC   C3A71657  30.647  10.574   7.050
 8964POPC   C4A71658  30.691  10.482   7.350
 8964POPC   C1B71659  30.557  10.322   6.450
 8964POPC   C2B71660  30.558  10.382   6.750
 8964POPC   C3B71661  30.565  10.306   7.050
 8964POPC   C4B71662  30.529  10.308   7.350
 8965POPC   NC371663  31.506   0.463   5.550
 8965POPC   PO471664  31.456   0.464   5.850
 8965POPC   GL171665  31.451   0.438   6.150
 8965POPC   GL271666  31.371   0.320   6.150
 8965POPC   C1A71667  31.520   0.438   6.450
 8965POPC   D2A71668  31.464   0.436   6.750
 8965POPC   C3A71669  31.468   0.448   7.050
 8965POPC   C4A71670  31.496   0.458   7.350
 8965POPC   C1B71671  31.314   0.232   6.450
 8965POPC   C2B71672  31.323   0.252   6.750
 8965POPC   C3B71673  31.301   0.177   7.050
 8965POPC   C4B71674  31.363   0.183   7.350
 8966POPC   NC371675   6.628  37.677   5.550
 8966POPC   PO471676   6.629  37.677   5.850
 8966POPC   GL171677   6.666  37.728   6.150
 8966POPC   GL271678   6.622  37.750   6.150
 8966POPC   C1A71679   6.667  37.636   6.450
 8966POPC   D2A71680   6.654  37.696   6.750
 8966POPC   C3A71681   6.687  37.673   7.050
 8966POPC   C4A71682   6.645  37.694   7.350
 8966POPC   C1B71683   6.554  37.929   6.450
 8966POPC   C2B71684   6.488  37.928   6.750
 8966POPC   C3B71685   6.562  37.925   7.050
 8966POPC   C4B71686   6.524  37.915   7.350
 8967POPC   NC371687  43.878  40.050   5.550
 8967POPC   PO471688  43.935  39.979   5.850
 8967POPC   GL171689  43.845  40.021   6.150
 8967POPC   GL271690  43.761  40.080   6.150
 8967POPC   C1A71691  43.909  39.978   6.450
 8967POPC   D2A71692  43.881  39.992   6.750
 8967POPC   C3A71693  43.902  40.028   7.050
 8967POPC   C4A71694  43.850  39.967   7.350
 8967POPC   C1B71695  43.654  40.155   6.450
 8967POPC   C2B71696  43.655  40.115   6.750
 8967POPC   C3B71697  43.661  40.078   7.050
 8967POPC   C4B71698  43.668  40.143   7.350
 8968POPC   NC371699   5.129  12.871   5.550
 8968POPC   PO471700   5.131  12.832   5.850
 8968POPC   GL171701   5.090  12.846   6.150
 8968POPC   GL271702   5.004  12.936   6.150
 8968POPC   C1A71703   5.081  12.880   6.450
 8968POPC   D2A71704   5.094  12.837   6.750
 8968POPC   C3A71705   5.130  12.823   7.050
 8968POPC   C4A71706   5.137  12.880   7.350
 8968POPC   C1B71707   4.864  12.956   6.450
 8968POPC   C2B71708   4.886  12.970   6.750
 8968POPC   C3B71709   4.904  13.028   7.050
 8968POPC   C4B71710   4.844  13.044   7.350
 8969POPC   NC371711  25.306  20.585   5.550
 8969POPC   PO471712  25.267  20.593   5.850
 8969POPC   GL171713  25.268  20.609   6.150
 8969POPC   GL271714  25.347  20.484   6.150
 8969POPC   C1A71715  25.269  20.620   6.450
 8969POPC   D2A71716  25.220  20.601   6.750
 8969POPC   C3A71717  25.299  20.607   7.050
 8969POPC   C4A71718  25.310  20.595   7.350
 8969POPC   C1B71719  25.467  20.388   6.450
 8969POPC   C2B71720  25.398  20.423   6.750
 8969POPC   C3B71721  25.388  20.433   7.050
 8969POPC   C4B71722  25.398  20.397   7.350
 8970POPC   NC371723   8.209  44.693   5.550
 8970POPC   PO471724   8.186  44.673   5.850
 8970POPC   GL171725   8.230  44.627   6.150
 8970POPC   GL271726   8.169  44.594   6.150
 8970POPC   C1A71727   8.246  44.690   6.450
 8970POPC   D2A71728   8.223  44.622   6.750
 8970POPC   C3A71729   8.200  44.695   7.050
 8970POPC   C4A71730   8.210  44.698   7.350
 8970POPC   C1B71731   8.120  44.386   6.450
 8970POPC   C2B71732   8.119  44.395   6.750
 8970POPC   C3B71733   8.085  44.394   7.050
 8970POPC   C4B71734   8.141  44.463   7.350
 8971POPC   NC371735  16.776  22.124   5.550
 8971POPC   PO471736  16.767  22.136   5.850
 8971POPC   GL171737  16.778  22.140   6.150
 8971POPC   GL271738  16.655  22.078   6.150
 8971POPC   C1A71739  16.690  22.188   6.450
 8971POPC   D2A71740  16.689  22.125   6.750
 8971POPC   C3A71741  16.772  22.208   7.050
 8971POPC   C4A71742  16.712  22.120   7.350
 8971POPC   C1B71743  16.537  22.065   6.450
 8971POPC   C2B71744  16.527  21.993   6.750
 8971POPC   C3B71745  16.541  22.047   7.050
 8971POPC   C4B71746  16.521  21.989   7.350
 8972POPC   NC371747  26.805  30.663   5.550
 8972POPC   PO471748  26.793  30.698   5.850
 8972POPC   GL171749  26.787  30.649   6.150
 8972POPC   GL271750  26.692  30.693   6.150
 8972POPC   C1A71751  26.847  30.716   6.450
 8972POPC   D2A71752  26.808  30.701   6.750
 8972POPC   C3A71753  26.823  30.671   7.050
 8972POPC   C4A71754  26.801  30.713   7.350
 8972POPC   C1B71755  26.576  30.691   6.450
 8972POPC   C2B71756  26.536  30.657   6.750
 8972POPC   C3B71757  26.530  30.625   7.050
 8972POPC   C4B71758  26.524  30.700   7.350
 8973POPC   NC371759  27.610   1.960   5.550
 8973POPC   PO471760  27.564   1.945   5.850
 8973POPC   GL171761  27.610   1.957   6.150
 8973POPC   GL271762  27.601   2.119   6.150
 8973POPC   C1A71763  27.613   2.035   6.450
 8973POPC   D2A71764  27.559   2.020   6.750
 8973POPC   C3A71765  27.567   2.004   7.050
 8973POPC   C4A71766  27.641   2.014   7.350
 8973POPC   C1B71767  27.626   2.265   6.450
 8973POPC   C2B71768  27.540   2.211   6.750
 8973POPC   C3B71769  27.612   2.272   7.050
 8973POPC   C4B71770  27.564   2.196   7.350
 8974POPC   NC371771  38.429  30.745   5.550
 8974POPC   PO471772  38.452  30.719   5.850
 8974POPC   GL171773  38.453  30.691   6.150
 8974POPC   GL271774  38.451  30.812   6.150
 8974POPC   C1A71775  38.455  30.663   6.450
 8974POPC   D2A71776  38.409  30.657   6.750
 8974POPC   C3A71777  38.482  30.705   7.050
 8974POPC   C4A71778  38.474  30.692   7.350
 8974POPC   C1B71779  38.480  30.949   6.450
 8974POPC   C2B71780  38.508  30.979   6.750
 8974POPC   C3B71781  38.490  30.973   7.050
 8974POPC   C4B71782  38.504  30.917   7.350
 8975POPC   NC371783  17.459  10.516   5.550
 8975POPC   PO471784  17.550  10.566   5.850
 8975POPC   GL171785  17.505  10.508   6.150
 8975POPC   GL271786  17.558  10.629   6.150
 8975POPC   C1A71787  17.499  10.571   6.450
 8975POPC   D2A71788  17.544  10.517   6.750
 8975POPC   C3A71789  17.468  10.568   7.050
 8975POPC   C4A71790  17.504  10.485   7.350
 8975POPC   C1B71791  17.696  10.707   6.450
 8975POPC   C2B71792  17.744  10.686   6.750
 8975POPC   C3B71793  17.679  10.651   7.050
 8975POPC   C4B71794  17.738  10.687   7.350
 8976POPC   NC371795  26.798  39.971   5.550
 8976POPC   PO471796  26.861  40.025   5.850
 8976POPC   GL171797  26.809  40.029   6.150
 8976POPC   GL271798  26.680  40.083   6.150
 8976POPC   C1A71799  26.840  39.980   6.450
 8976POPC   D2A71800  26.840  40.044   6.750
 8976POPC   C3A71801  26.774  39.973   7.050
 8976POPC   C4A71802  26.860  39.967   7.350
 8976POPC   C1B71803  26.565  40.187   6.450
 8976POPC   C2B71804  26.635  40.141   6.750
 8976POPC   C3B71805  26.656  40.129   7.050
 8976POPC   C4B71806  26.626  40.111   7.350
 8977POPC   NC371807   8.161  39.204   5.550
 8977POPC   PO471808   8.160  39.280   5.850
 8977POPC   GL171809   8.213  39.266   6.150
 8977POPC   GL271810   8.328  39.194   6.150
 8977POPC   C1A71811   8.173  39.229   6.450
 8977POPC   D2A71812   8.206  39.186   6.750
 8977POPC   C3A71813   8.228  39.262   7.050
 8977POPC   C4A71814   8.160  39.252   7.350
 8977POPC   C1B71815   8.348  39.070   6.450
 8977POPC   C2B71816   8.400  39.124   6.750
 8977POPC   C3B71817   8.345  39.055   7.050
 8977POPC   C4B71818   8.391  39.119   7.350
 8978POPC   NC371819  21.360   9.010   5.550
 8978POPC   PO471820  21.363   8.988   5.850
 8978POPC   GL171821  21.338   9.001   6.150
 8978POPC   GL271822  21.471   9.133   6.150
 8978POPC   C1A71823  21.422   8.938   6.450
 8978POPC   D2A71824  21.432   8.935   6.750
 8978POPC   C3A71825  21.398   9.016   7.050
 8978POPC   C4A71826  21.388   8.989   7.350
 8978POPC   C1B71827  21.473   9.188   6.450
 8978POPC   C2B71828  21.445   9.247   6.750
 8978POPC   C3B71829  21.439   9.205   7.050
 8978POPC   C4B71830  21.483   9.236   7.350
 8979POPC   NC371831   8.148  17.511   5.550
 8979POPC   PO471832   8.220  17.492   5.850
 8979POPC   GL171833   8.172  17.466   6.150
 8979POPC   GL271834   8.119  17.643   6.150
 8979POPC   C1A71835   8.232  17.476   6.450
 8979POPC   D2A71836   8.243  17.517   6.750
 8979POPC   C3A71837   8.234  17.539   7.050
 8979POPC   C4A71838   8.194  17.550   7.350
 8979POPC   C1B71839   8.041  17.728   6.450
 8979POPC   C2B71840   7.998  17.737   6.750
 8979POPC   C3B71841   8.055  17.671   7.050
 8979POPC   C4B71842   8.006  17.674   7.350
 8980POPC   NC371843  25.221  15.939   5.550
 8980POPC   PO471844  25.295  15.973   5.850
 8980POPC   GL171845  25.242  15.995   6.150
 8980POPC   GL271846  25.356  15.842   6.150
 8980POPC   C1A71847  25.260  16.002   6.450
 8980POPC   D2A71848  25.225  15.951   6.750
 8980POPC   C3A71849  25.315  15.949   7.050
 8980POPC   C4A71850  25.275  15.944   7.350
 8980POPC   C1B71851  25.339  15.688   6.450
 8980POPC   C2B71852  25.388  15.770   6.750
 8980POPC   C3B71853  25.367  15.688   7.050
 8980POPC   C4B71854  25.348  15.694   7.350
 8981POPC   NC371855  25.244  42.307   5.550
 8981POPC   PO471856  25.294  42.349   5.850
 8981POPC   GL171857  25.301  42.313   6.150
 8981POPC   GL271858  25.342  42.361   6.150
 8981POPC   C1A71859  25.307  42.383   6.450
 8981POPC   D2A71860  25.282  42.326   6.750
 8981POPC   C3A71861  25.217  42.310   7.050
 8981POPC   C4A71862  25.310  42.352   7.350
 8981POPC   C1B71863  25.493  42.332   6.450
 8981POPC   C2B71864  25.501  42.359   6.750
 8981POPC   C3B71865  25.541  42.366   7.050
 8981POPC   C4B71866  25.525  42.416   7.350
 8982POPC   NC371867  27.613  20.580   5.550
 8982POPC   PO471868  27.609  20.575   5.850
 8982POPC   GL171869  27.618  20.580   6.150
 8982POPC   GL271870  27.453  20.555   6.150
 8982POPC   C1A71871  27.586  20.608   6.450
 8982POPC   D2A71872  27.554  20.614   6.750
 8982POPC   C3A71873  27.641  20.632   7.050
 8982POPC   C4A71874  27.584  20.601   7.350
 8982POPC   C1B71875  27.365  20.436   6.450
 8982POPC   C2B71876  27.370  20.432   6.750
 8982POPC   C3B71877  27.416  20.459   7.050
 8982POPC   C4B71878  27.356  20.462   7.350
 8983POPC   NC371879  15.202  33.040   5.550
 8983POPC   PO471880  15.151  33.006   5.850
 8983POPC   GL171881  15.224  33.059   6.150
 8983POPC   GL271882  15.323  33.002   6.150
 8983POPC   C1A71883  15.189  33.035   6.450
 8983POPC   D2A71884  15.221  33.000   6.750
 8983POPC   C3A71885  15.147  33.070   7.050
 8983POPC   C4A71886  15.148  33.051   7.350
 8983POPC   C1B71887  15.452  33.053   6.450
 8983POPC   C2B71888  15.397  33.035   6.750
 8983POPC   C3B71889  15.471  33.070   7.050
 8983POPC   C4B71890  15.406  33.107   7.350
 8984POPC   NC371891  44.676  28.341   5.550
 8984POPC   PO471892  44.638  28.402   5.850
 8984POPC   GL171893  44.704  28.415   6.150
 8984POPC   GL271894  44.547  28.269   6.150
 8984POPC   C1A71895  44.699  28.401   6.450
 8984POPC   D2A71896  44.613  28.399   6.750
 8984POPC   C3A71897  44.680  28.339   7.050
 8984POPC   C4A71898  44.626  28.412   7.350
 8984POPC   C1B71899  44.529  28.191   6.450
 8984POPC   C2B71900  44.544  28.146   6.750
 8984POPC   C3B71901  44.448  28.176   7.050
 8984POPC   C4B71902  44.505  28.174   7.350
 8985POPC   NC371903  28.334  20.644   5.550
 8985POPC   PO471904  28.327  20.630   5.850
 8985POPC   GL171905  28.377  20.594   6.150
 8985POPC   GL271906  28.430  20.477   6.150
 8985POPC   C1A71907  28.340  20.657   6.450
 8985POPC   D2A71908  28.345  20.644   6.750
 8985POPC   C3A71909  28.405  20.653   7.050
 8985POPC   C4A71910  28.344  20.641   7.350
 8985POPC   C1B71911  28.544  20.394   6.450
 8985POPC   C2B71912  28.529  20.454   6.750
 8985POPC   C3B71913  28.541  20.399   7.050
 8985POPC   C4B71914  28.471  20.421   7.350
 8986POPC   NC371915  38.473  12.838   5.550
 8986POPC   PO471916  38.424  12.848   5.850
 8986POPC   GL171917  38.408  12.852   6.150
 8986POPC   GL271918  38.335  12.787   6.150
 8986POPC   C1A71919  38.472  12.819   6.450
 8986POPC   D2A71920  38.430  12.852   6.750
 8986POPC   C3A71921  38.439  12.869   7.050
 8986POPC   C4A71922  38.420  12.852   7.350
 8986POPC   C1B71923  38.267  12.708   6.450
 8986POPC   C2B71924  38.293  12.669   6.750
 8986POPC   C3B71925  38.232  12.664   7.050
 8986POPC   C4B71926  38.257  12.681   7.350
 8987POPC   NC371927   4.288  13.637   5.550
 8987POPC   PO471928   4.359  13.602   5.850
 8987POPC   GL171929   4.324  13.646   6.150
 8987POPC   GL271930   4.232  13.570   6.150
 8987POPC   C1A71931   4.287  13.666   6.450
 8987POPC   D2A71932   4.328  13.643   6.750
 8987POPC   C3A71933   4.290  13.618   7.050
 8987POPC   C4A71934   4.274  13.632   7.350
 8987POPC   C1B71935   4.118  13.465   6.450
 8987POPC   C2B71936   4.156  13.450   6.750
 8987POPC   C3B71937   4.103  13.510   7.050
 8987POPC   C4B71938   4.150  13.435   7.350
 8988POPC   NC371939  29.889  29.112   5.550
 8988POPC   PO471940  29.931  29.184   5.850
 8988POPC   GL171941  29.920  29.156   6.150
 8988POPC   GL271942  29.872  29.057   6.150
 8988POPC   C1A71943  29.947  29.132   6.450
 8988POPC   D2A71944  29.930  29.135   6.750
 8988POPC   C3A71945  29.938  29.164   7.050
 8988POPC   C4A71946  29.953  29.137   7.350
 8988POPC   C1B71947  29.882  28.942   6.450
 8988POPC   C2B71948  29.871  28.861   6.750
 8988POPC   C3B71949  29.835  28.857   7.050
 8988POPC   C4B71950  29.832  28.944   7.350
 8989POPC   NC371951  43.079  44.692   5.550
 8989POPC   PO471952  43.099  44.645   5.850
 8989POPC   GL171953  43.102  44.655   6.150
 8989POPC   GL271954  42.936  44.672   6.150
 8989POPC   C1A71955  43.153  44.617   6.450
 8989POPC   D2A71956  43.144  44.710   6.750
 8989POPC   C3A71957  43.139  44.615   7.050
 8989POPC   C4A71958  43.101  44.711   7.350
 8989POPC   C1B71959  42.841  44.640   6.450
 8989POPC   C2B71960  42.837  44.683   6.750
 8989POPC   C3B71961  42.813  44.635   7.050
 8989POPC   C4B71962  42.841  44.674   7.350
 8990POPC   NC371963  20.574  11.323   5.550
 8990POPC   PO471964  20.588  11.344   5.850
 8990POPC   GL171965  20.573  11.262   6.150
 8990POPC   GL271966  20.558  11.170   6.150
 8990POPC   C1A71967  20.635  11.315   6.450
 8990POPC   D2A71968  20.593  11.308   6.750
 8990POPC   C3A71969  20.607  11.306   7.050
 8990POPC   C4A71970  20.610  11.344   7.350
 8990POPC   C1B71971  20.536  11.035   6.450
 8990POPC   C2B71972  20.471  11.115   6.750
 8990POPC   C3B71973  20.483  11.123   7.050
 8990POPC   C4B71974  20.526  11.074   7.350
 8991POPC   NC371975  36.887  15.952   5.550
 8991POPC   PO471976  36.949  15.930   5.850
 8991POPC   GL171977  36.944  16.000   6.150
 8991POPC   GL271978  36.869  15.880   6.150
 8991POPC   C1A71979  36.860  15.932   6.450
 8991POPC   D2A71980  36.880  15.996   6.750
 8991POPC   C3A71981  36.895  15.995   7.050
 8991POPC   C4A71982  36.947  15.923   7.350
 8991POPC   C1B71983  36.853  15.745   6.450
 8991POPC   C2B71984  36.811  15.721   6.750
 8991POPC   C3B71985  36.828  15.720   7.050
 8991POPC   C4B71986  36.830  15.713   7.350
 8992POPC   NC371987  19.062  32.261   5.550
 8992POPC   PO471988  19.018  32.236   5.850
 8992POPC   GL171989  19.092  32.233   6.150
 8992POPC   GL271990  19.031  32.395   6.150
 8992POPC   C1A71991  19.106  32.200   6.450
 8992POPC   D2A71992  19.105  32.259   6.750
 8992POPC   C3A71993  19.086  32.261   7.050
 8992POPC   C4A71994  19.039  32.250   7.350
 8992POPC   C1B71995  19.088  32.527   6.450
 8992POPC   C2B71996  19.067  32.449   6.750
 8992POPC   C3B71997  19.037  32.458   7.050
 8992POPC   C4B71998  19.106  32.505   7.350
 8993POPC   NC371999  41.600  25.307   5.550
 8993POPC   PO472000  41.524  25.255   5.850
 8993POPC   GL172001  41.543  25.285   6.150
 8993POPC   GL272002  41.474  25.157   6.150
 8993POPC   C1A72003  41.601  25.230   6.450
 8993POPC   D2A72004  41.513  25.283   6.750
 8993POPC   C3A72005  41.536  25.268   7.050
 8993POPC   C4A72006  41.598  25.243   7.350
 8993POPC   C1B72007  41.380  25.126   6.450
 8993POPC   C2B72008  41.376  25.160   6.750
 8993POPC   C3B72009  41.307  25.196   7.050
 8993POPC   C4B72010  41.307  25.191   7.350
 8994POPC   NC372011   8.153  25.225   5.550
 8994POPC   PO472012   8.240  25.247   5.850
 8994POPC   GL172013   8.205  25.263   6.150
 8994POPC   GL272014   8.147  25.183   6.150
 8994POPC   C1A72015   8.229  25.247   6.450
 8994POPC   D2A72016   8.178  25.286   6.750
 8994POPC   C3A72017   8.205  25.234   7.050
 8994POPC   C4A72018   8.216  25.227   7.350
 8994POPC   C1B72019   8.142  25.073   6.450
 8994POPC   C2B72020   8.099  25.023   6.750
 8994POPC   C3B72021   8.129  25.080   7.050
 8994POPC   C4B72022   8.102  25.032   7.350
 8995POPC   NC372023  17.542  21.427   5.550
 8995POPC   PO472024  17.502  21.384   5.850
 8995POPC   GL172025  17.525  21.353   6.150
 8995POPC   GL272026  17.555  21.490   6.150
 8995POPC   C1A72027  17.538  21.432   6.450
 8995POPC   D2A72028  17.477  21.344   6.750
 8995POPC   C3A72029  17.512  21.407   7.050
 8995POPC   C4A72030  17.531  21.430   7.350
 8995POPC   C1B72031  17.660  21.585   6.450
 8995POPC   C2B72032  17.721  21.576   6.750
 8995POPC   C3B72033  17.749  21.558   7.050
 8995POPC   C4B72034  17.661  21.545   7.350
 8996POPC   NC372035   1.207  30.665   5.550
 8996POPC   PO472036   1.260  30.745   5.850
 8996POPC   GL172037   1.203  30.718   6.150
 8996POPC   GL272038   1.327  30.670   6.150
 8996POPC   C1A72039   1.205  30.727   6.450
 8996POPC   D2A72040   1.225  30.723   6.750
 8996POPC   C3A72041   1.247  30.660   7.050
 8996POPC   C4A72042   1.259  30.685   7.350
 8996POPC   C1B72043   1.428  30.561   6.450
 8996POPC   C2B72044   1.471  30.531   6.750
 8996POPC   C3B72045   1.413  30.534   7.050
 8996POPC   C4B72046   1.385  30.607   7.350
 8997POPC   NC372047  44.711  22.151   5.550
 8997POPC   PO472048  44.663  22.143   5.850
 8997POPC   GL172049  44.686  22.184   6.150
 8997POPC   GL272050  44.575  22.186   6.150
 8997POPC   C1A72051  44.693  22.193   6.450
 8997POPC   D2A72052  44.674  22.190   6.750
 8997POPC   C3A72053  44.637  22.202   7.050
 8997POPC   C4A72054  44.636  22.139   7.350
 8997POPC   C1B72055  44.378  22.092   6.450
 8997POPC   C2B72056  44.447  22.169   6.750
 8997POPC   C3B72057  44.375  22.121   7.050
 8997POPC   C4B72058  44.393  22.160   7.350
 8998POPC   NC372059  34.622  33.023   5.550
 8998POPC   PO472060  34.588  33.020   5.850
 8998POPC   GL172061  34.550  33.013   6.150
 8998POPC   GL272062  34.508  32.861   6.150
 8998POPC   C1A72063  34.601  33.010   6.450
 8998POPC   D2A72064  34.553  32.994   6.750
 8998POPC   C3A72065  34.609  33.032   7.050
 8998POPC   C4A72066  34.560  33.019   7.350
 8998POPC   C1B72067  34.511  32.770   6.450
 8998POPC   C2B72068  34.529  32.791   6.750
 8998POPC   C3B72069  34.536  32.821   7.050
 8998POPC   C4B72070  34.523  32.826   7.350
 8999POPC   NC372071  36.877  26.075   5.550
 8999POPC   PO472072  36.898  26.080   5.850
 8999POPC   GL172073  36.939  26.043   6.150
 8999POPC   GL272074  36.808  26.145   6.150
 8999POPC   C1A72075  36.863  26.002   6.450
 8999POPC   D2A72076  36.889  26.083   6.750
 8999POPC   C3A72077  36.937  26.069   7.050
 8999POPC   C4A72078  36.910  25.998   7.350
 8999POPC   C1B72079  36.699  26.189   6.450
 8999POPC   C2B72080  36.722  26.162   6.750
 8999POPC   C3B72081  36.685  26.128   7.050
 8999POPC   C4B72082  36.685  26.201   7.350
 9000POPC   NC372083  34.542  41.538   5.550
 9000POPC   PO472084  34.588  41.510   5.850
 9000POPC   GL172085  34.555  41.573   6.150
 9000POPC   GL272086  34.632  41.649   6.150
 9000POPC   C1A72087  34.548  41.538   6.450
 9000POPC   D2A72088  34.625  41.607   6.750
 9000POPC   C3A72089  34.529  41.523   7.050
 9000POPC   C4A72090  34.554  41.579   7.350
 9000POPC   C1B72091  34.807  41.722   6.450
 9000POPC   C2B72092  34.779  41.700   6.750
 9000POPC   C3B72093  34.783  41.682   7.050
 9000POPC   C4B72094  34.719  41.691   7.350
 9001POPC   NC372095  26.851  28.339   5.550
 9001POPC   PO472096  26.774  28.390   5.850
 9001POPC   GL172097  26.788  28.326   6.150
 9001POPC   GL272098  26.683  28.280   6.150
 9001POPC   C1A72099  26.772  28.416   6.450
 9001POPC   D2A72100  26.821  28.390   6.750
 9001POPC   C3A72101  26.788  28.326   7.050
 9001POPC   C4A72102  26.771  28.365   7.350
 9001POPC   C1B72103  26.604  28.246   6.450
 9001POPC   C2B72104  26.621  28.270   6.750
 9001POPC   C3B72105  26.563  28.270   7.050
 9001POPC   C4B72106  26.555  28.316   7.350
 9002POPC   NC372107  40.822  42.335   5.550
 9002POPC   PO472108  40.812  42.362   5.850
 9002POPC   GL172109  40.822  42.320   6.150
 9002POPC   GL272110  40.745  42.448   6.150
 9002POPC   C1A72111  40.815  42.294   6.450
 9002POPC   D2A72112  40.754  42.381   6.750
 9002POPC   C3A72113  40.742  42.316   7.050
 9002POPC   C4A72114  40.775  42.365   7.350
 9002POPC   C1B72115  40.770  42.617   6.450
 9002POPC   C2B72116  40.703  42.581   6.750
 9002POPC   C3B72117  40.757  42.605   7.050
 9002POPC   C4B72118  40.757  42.624   7.350
 9003POPC   NC372119  29.155  12.860   5.550
 9003POPC   PO472120  29.177  12.832   5.850
 9003POPC   GL172121  29.123  12.859   6.150
 9003POPC   GL272122  29.076  12.922   6.150
 9003POPC   C1A72123  29.171  12.888   6.450
 9003POPC   D2A72124  29.128  12.841   6.750
 9003POPC   C3A72125  29.172  12.841   7.050
 9003POPC   C4A72126  29.118  12.873   7.350
 9003POPC   C1B72127  28.970  12.992   6.450
 9003POPC   C2B72128  28.956  13.018   6.750
 9003POPC   C3B72129  28.997  13.069   7.050
 9003POPC   C4B72130  28.965  13.082   7.350
 9004POPC   NC372131  12.836   1.263   5.550
 9004POPC   PO472132  12.864   1.261   5.850
 9004POPC   GL172133  12.879   1.166   6.150
 9004POPC   GL272134  12.772   1.257   6.150
 9004POPC   C1A72135  12.802   1.176   6.450
 9004POPC   D2A72136  12.820   1.176   6.750
 9004POPC   C3A72137  12.855   1.178   7.050
 9004POPC   C4A72138  12.864   1.165   7.350
 9004POPC   C1B72139  12.625   1.296   6.450
 9004POPC   C2B72140  12.587   1.316   6.750
 9004POPC   C3B72141  12.601   1.282   7.050
 9004POPC   C4B72142  12.637   1.309   7.350
 9005POPC   NC372143  36.103  43.120   5.550
 9005POPC   PO472144  36.151  43.117   5.850
 9005POPC   GL172145  36.144  43.111   6.150
 9005POPC   GL272146  36.044  42.958   6.150
 9005POPC   C1A72147  36.101  43.160   6.450
 9005POPC   D2A72148  36.177  43.156   6.750
 9005POPC   C3A72149  36.149  43.066   7.050
 9005POPC   C4A72150  36.146  43.121   7.350
 9005POPC   C1B72151  36.024  42.870   6.450
 9005POPC   C2B72152  36.029  42.902   6.750
 9005POPC   C3B72153  36.021  42.932   7.050
 9005POPC   C4B72154  36.015  42.891   7.350
 9006POPC   NC372155  40.829  41.544   5.550
 9006POPC   PO472156  40.813  41.546   5.850
 9006POPC   GL172157  40.799  41.570   6.150
 9006POPC   GL272158  40.631  41.580   6.150
 9006POPC   C1A72159  40.758  41.574   6.450
 9006POPC   D2A72160  40.751  41.566   6.750
 9006POPC   C3A72161  40.810  41.562   7.050
 9006POPC   C4A72162  40.768  41.521   7.350
 9006POPC   C1B72163  40.523  41.641   6.450
 9006POPC   C2B72164  40.588  41.629   6.750
 9006POPC   C3B72165  40.546  41.707   7.050
 9006POPC   C4B72166  40.596  41.643   7.350
 9007POPC   NC372167   2.749  39.238   5.550
 9007POPC   PO472168   2.720  39.201   5.850
 9007POPC   GL172169   2.758  39.182   6.150
 9007POPC   GL272170   2.901  39.264   6.150
 9007POPC   C1A72171   2.768  39.191   6.450
 9007POPC   D2A72172   2.758  39.187   6.750
 9007POPC   C3A72173   2.799  39.189   7.050
 9007POPC   C4A72174   2.793  39.216   7.350
 9007POPC   C1B72175   2.942  39.306   6.450
 9007POPC   C2B72176   3.000  39.366   6.750
 9007POPC   C3B72177   2.994  39.338   7.050
 9007POPC   C4B72178   2.936  39.356   7.350
 9008POPC   NC372179  21.382  39.960   5.550
 9008POPC   PO472180  21.419  39.975   5.850
 9008POPC   GL172181  21.378  40.024   6.150
 9008POPC   GL272182  21.339  40.115   6.150
 9008POPC   C1A72183  21.342  39.986   6.450
 9008POPC   D2A72184  21.424  39.970   6.750
 9008POPC   C3A72185  21.405  39.993   7.050
 9008POPC   C4A72186  21.376  39.976   7.350
 9008POPC   C1B72187  21.321  40.273   6.450
 9008POPC   C2B72188  21.366  40.208   6.750
 9008POPC   C3B72189  21.390  40.247   7.050
 9008POPC   C4B72190  21.330  40.275   7.350
 9009POPC   NC372191   8.927  22.201   5.550
 9009POPC   PO472192   8.938  22.164   5.850
 9009POPC   GL172193   9.017  22.146   6.150
 9009POPC   GL272194   8.869  22.117   6.150
 9009POPC   C1A72195   8.970  22.153   6.450
 9009POPC   D2A72196   8.999  22.123   6.750
 9009POPC   C3A72197   8.976  22.155   7.050
 9009POPC   C4A72198   8.991  22.195   7.350
 9009POPC   C1B72199   8.682  22.057   6.450
 9009POPC   C2B72200   8.691  22.109   6.750
 9009POPC   C3B72201   8.764  22.094   7.050
 9009POPC   C4B72202   8.776  22.148   7.350
 9010POPC   NC372203  13.581  40.746   5.550
 9010POPC   PO472204  13.581  40.811   5.850
 9010POPC   GL172205  13.592  40.831   6.150
 9010POPC   GL272206  13.767  40.872   6.150
 9010POPC   C1A72207  13.624  40.819   6.450
 9010POPC   D2A72208  13.644  40.825   6.750
 9010POPC   C3A72209  13.665  40.764   7.050
 9010POPC   C4A72210  13.602  40.743   7.350
 9010POPC   C1B72211  13.828  40.890   6.450
 9010POPC   C2B72212  13.828  40.943   6.750
 9010POPC   C3B72213  13.815  40.893   7.050
 9010POPC   C4B72214  13.789  40.909   7.350
 9011POPC   NC372215  40.011  44.663   5.550
 9011POPC   PO472216  40.025  44.695   5.850
 9011POPC   GL172217  39.966  44.637   6.150
 9011POPC   GL272218  40.040  44.580   6.150
 9011POPC   C1A72219  40.006  44.692   6.450
 9011POPC   D2A72220  39.972  44.625   6.750
 9011POPC   C3A72221  40.041  44.667   7.050
 9011POPC   C4A72222  39.984  44.682   7.350
 9011POPC   C1B72223  39.995  44.399   6.450
 9011POPC   C2B72224  40.055  44.399   6.750
 9011POPC   C3B72225  39.996  44.456   7.050
 9011POPC   C4B72226  40.041  44.442   7.350
 9012POPC   NC372227  28.378  14.411   5.550
 9012POPC   PO472228  28.330  14.447   5.850
 9012POPC   GL172229  28.402  14.429   6.150
 9012POPC   GL272230  28.263  14.257   6.150
 9012POPC   C1A72231  28.376  14.404   6.450
 9012POPC   D2A72232  28.321  14.389   6.750
 9012POPC   C3A72233  28.329  14.373   7.050
 9012POPC   C4A72234  28.334  14.429   7.350
 9012POPC   C1B72235  28.216  14.226   6.450
 9012POPC   C2B72236  28.213  14.221   6.750
 9012POPC   C3B72237  28.214  14.216   7.050
 9012POPC   C4B72238  28.254  14.214   7.350
 9013POPC   NC372239   2.804  15.943   5.550
 9013POPC   PO472240   2.749  15.997   5.850
 9013POPC   GL172241   2.762  15.971   6.150
 9013POPC   GL272242   2.717  15.814   6.150
 9013POPC   C1A72243   2.783  15.987   6.450
 9013POPC   D2A72244   2.748  15.995   6.750
 9013POPC   C3A72245   2.776  15.917   7.050
 9013POPC   C4A72246   2.723  15.986   7.350
 9013POPC   C1B72247   2.612  15.692   6.450
 9013POPC   C2B72248   2.666  15.720   6.750
 9013POPC   C3B72249   2.656  15.701   7.050
 9013POPC   C4B72250   2.650  15.734   7.350
 9014POPC   NC372251  40.041   2.730   5.550
 9014POPC   PO472252  40.048   2.763   5.850
 9014POPC   GL172253  40.029   2.803   6.150
 9014POPC   GL272254  39.871   2.694   6.150
 9014POPC   C1A72255  39.996   2.719   6.450
 9014POPC   D2A72256  39.960   2.807   6.750
 9014POPC   C3A72257  39.976   2.759   7.050
 9014POPC   C4A72258  39.958   2.757   7.350
 9014POPC   C1B72259  39.760   2.683   6.450
 9014POPC   C2B72260  39.742   2.690   6.750
 9014POPC   C3B72261  39.762   2.644   7.050
 9014POPC   C4B72262  39.722   2.666   7.350
 9015POPC   NC372263  36.860  10.560   5.550
 9015POPC   PO472264  36.914  10.552   5.850
 9015POPC   GL172265  36.947  10.532   6.150
 9015POPC   GL272266  36.887  10.631   6.150
 9015POPC   C1A72267  36.886  10.552   6.450
 9015POPC   D2A72268  36.870  10.477   6.750
 9015POPC   C3A72269  36.891  10.562   7.050
 9015POPC   C4A72270  36.938  10.573   7.350
 9015POPC   C1B72271  36.860  10.793   6.450
 9015POPC   C2B72272  36.800  10.804   6.750
 9015POPC   C3B72273  36.816  10.764   7.050
 9015POPC   C4B72274  36.841  10.740   7.350
 9016POPC   NC372275  22.940   4.278   5.550
 9016POPC   PO472276  22.961   4.323   5.850
 9016POPC   GL172277  22.948   4.336   6.150
 9016POPC   GL272278  23.072   4.279   6.150
 9016POPC   C1A72279  22.921   4.291   6.450
 9016POPC   D2A72280  22.898   4.290   6.750
 9016POPC   C3A72281  22.981   4.278   7.050
 9016POPC   C4A72282  22.939   4.280   7.350
 9016POPC   C1B72283  23.163   4.329   6.450
 9016POPC   C2B72284  23.201   4.313   6.750
 9016POPC   C3B72285  23.165   4.267   7.050
 9016POPC   C4B72286  23.204   4.314   7.350
 9017POPC   NC372287   3.576  43.064   5.550
 9017POPC   PO472288   3.504  43.093   5.850
 9017POPC   GL172289   3.573  43.084   6.150
 9017POPC   GL272290   3.462  43.083   6.150
 9017POPC   C1A72291   3.564  43.131   6.450
 9017POPC   D2A72292   3.521  43.129   6.750
 9017POPC   C3A72293   3.504  43.075   7.050
 9017POPC   C4A72294   3.536  43.151   7.350
 9017POPC   C1B72295   3.281  42.987   6.450
 9017POPC   C2B72296   3.350  43.023   6.750
 9017POPC   C3B72297   3.280  42.962   7.050
 9017POPC   C4B72298   3.344  43.024   7.350
 9018POPC   NC372299   0.411  13.616   5.550
 9018POPC   PO472300   0.486  13.666   5.850
 9018POPC   GL172301   0.435  13.660   6.150
 9018POPC   GL272302   0.388  13.565   6.150
 9018POPC   C1A72303   0.428  13.620   6.450
 9018POPC   D2A72304   0.397  13.646   6.750
 9018POPC   C3A72305   0.446  13.656   7.050
 9018POPC   C4A72306   0.475  13.669   7.350
 9018POPC   C1B72307   0.224  13.456   6.450
 9018POPC   C2B72308   0.287  13.421   6.750
 9018POPC   C3B72309   0.279  13.458   7.050
 9018POPC   C4B72310   0.219  13.455   7.350
 9019POPC   NC372311  42.323  37.704   5.550
 9019POPC   PO472312  42.383  37.671   5.850
 9019POPC   GL172313  42.339  37.718   6.150
 9019POPC   GL272314  42.269  37.621   6.150
 9019POPC   C1A72315  42.380  37.669   6.450
 9019POPC   D2A72316  42.303  37.707   6.750
 9019POPC   C3A72317  42.339  37.728   7.050
 9019POPC   C4A72318  42.308  37.646   7.350
 9019POPC   C1B72319  42.163  37.518   6.450
 9019POPC   C2B72320  42.193  37.471   6.750
 9019POPC   C3B72321  42.226  37.447   7.050
 9019POPC   C4B72322  42.142  37.482   7.350
 9020POPC   NC372323  20.571  32.239   5.550
 9020POPC   PO472324  20.636  32.295   5.850
 9020POPC   GL172325  20.648  32.297   6.150
 9020POPC   GL272326  20.725  32.210   6.150
 9020POPC   C1A72327  20.604  32.280   6.450
 9020POPC   D2A72328  20.564  32.227   6.750
 9020POPC   C3A72329  20.596  32.204   7.050
 9020POPC   C4A72330  20.622  32.236   7.350
 9020POPC   C1B72331  20.791  32.117   6.450
 9020POPC   C2B72332  20.829  32.061   6.750
 9020POPC   C3B72333  20.755  32.067   7.050
 9020POPC   C4B72334  20.829  32.117   7.350
 9021POPC   NC372335  43.150  38.471   5.550
 9021POPC   PO472336  43.148  38.495   5.850
 9021POPC   GL172337  43.084  38.410   6.150
 9021POPC   GL272338  42.976  38.501   6.150
 9021POPC   C1A72339  43.086  38.461   6.450
 9021POPC   D2A72340  43.064  38.419   6.750
 9021POPC   C3A72341  43.145  38.405   7.050
 9021POPC   C4A72342  43.077  38.433   7.350
 9021POPC   C1B72343  42.815  38.409   6.450
 9021POPC   C2B72344  42.892  38.432   6.750
 9021POPC   C3B72345  42.896  38.412   7.050
 9021POPC   C4B72346  42.894  38.430   7.350
 9022POPC   NC372347  12.096  12.123   5.550
 9022POPC   PO472348  12.111  12.037   5.850
 9022POPC   GL172349  12.117  12.091   6.150
 9022POPC   GL272350  12.096  12.142   6.150
 9022POPC   C1A72351  12.057  12.099   6.450
 9022POPC   D2A72352  12.108  12.111   6.750
 9022POPC   C3A72353  12.054  12.090   7.050
 9022POPC   C4A72354  12.094  12.047   7.350
 9022POPC   C1B72355  12.159  12.255   6.450
 9022POPC   C2B72356  12.167  12.289   6.750
 9022POPC   C3B72357  12.229  12.315   7.050
 9022POPC   C4B72358  12.169  12.275   7.350
 9023POPC   NC372359   6.651  13.604   5.550
 9023POPC   PO472360   6.634  13.584   5.850
 9023POPC   GL172361   6.601  13.622   6.150
 9023POPC   GL272362   6.573  13.649   6.150
 9023POPC   C1A72363   6.638  13.662   6.450
 9023POPC   D2A72364   6.613  13.672   6.750
 9023POPC   C3A72365   6.655  13.632   7.050
 9023POPC   C4A72366   6.641  13.629   7.350
 9023POPC   C1B72367   6.412  13.733   6.450
 9023POPC   C2B72368   6.385  13.686   6.750
 9023POPC   C3B72369   6.444  13.762   7.050
 9023POPC   C4B72370   6.384  13.739   7.350
 9024POPC   NC372371  19.064   7.453   5.550
 9024POPC   PO472372  19.013   7.372   5.850
 9024POPC   GL172373  19.072   7.461   6.150
 9024POPC   GL272374  19.233   7.401   6.150
 9024POPC   C1A72375  19.082   7.464   6.450
 9024POPC   D2A72376  19.083   7.429   6.750
 9024POPC   C3A72377  19.033   7.467   7.050
 9024POPC   C4A72378  19.086   7.412   7.350
 9024POPC   C1B72379  19.345   7.388   6.450
 9024POPC   C2B72380  19.285   7.444   6.750
 9024POPC   C3B72381  19.315   7.373   7.050
 9024POPC   C4B72382  19.299   7.450   7.350
 9025POPC   NC372383  44.699  42.378   5.550
 9025POPC   PO472384  44.663  42.381   5.850
 9025POPC   GL172385  44.680  42.357   6.150
 9025POPC   GL272386  44.622  42.205   6.150
 9025POPC   C1A72387  44.655  42.371   6.450
 9025POPC   D2A72388  44.624  42.334   6.750
 9025POPC   C3A72389  44.639  42.325   7.050
 9025POPC   C4A72390  44.630  42.293   7.350
 9025POPC   C1B72391  44.648  42.075   6.450
 9025POPC   C2B72392  44.622  42.041   6.750
 9025POPC   C3B72393  44.606  42.094   7.050
 9025POPC   C4B72394  44.636  42.092   7.350
 9026POPC   NC372395  20.570  15.161   5.550
 9026POPC   PO472396  20.564  15.175   5.850
 9026POPC   GL172397  20.583  15.151   6.150
 9026POPC   GL272398  20.675  15.148   6.150
 9026POPC   C1A72399  20.574  15.203   6.450
 9026POPC   D2A72400  20.564  15.189   6.750
 9026POPC   C3A72401  20.651  15.210   7.050
 9026POPC   C4A72402  20.631  15.220   7.350
 9026POPC   C1B72403  20.789  15.067   6.450
 9026POPC   C2B72404  20.780  15.000   6.750
 9026POPC   C3B72405  20.799  14.982   7.050
 9026POPC   C4B72406  20.768  14.989   7.350
 9027POPC   NC372407   9.022  32.226   5.550
 9027POPC   PO472408   8.945  32.289   5.850
 9027POPC   GL172409   8.953  32.291   6.150
 9027POPC   GL272410   9.048  32.362   6.150
 9027POPC   C1A72411   8.970  32.284   6.450
 9027POPC   D2A72412   9.008  32.251   6.750
 9027POPC   C3A72413   9.012  32.243   7.050
 9027POPC   C4A72414   8.959  32.277   7.350
 9027POPC   C1B72415   9.040  32.506   6.450
 9027POPC   C2B72416   9.092  32.502   6.750
 9027POPC   C3B72417   9.038  32.492   7.050
 9027POPC   C4B72418   9.031  32.508   7.350
 9028POPC   NC372419   4.331  36.095   5.550
 9028POPC   PO472420   4.279  36.078   5.850
 9028POPC   GL172421   4.323  36.121   6.150
 9028POPC   GL272422   4.240  36.234   6.150
 9028POPC   C1A72423   4.345  36.122   6.450
 9028POPC   D2A72424   4.298  36.111   6.750
 9028POPC   C3A72425   4.354  36.114   7.050
 9028POPC   C4A72426   4.328  36.144   7.350
 9028POPC   C1B72427   4.126  36.309   6.450
 9028POPC   C2B72428   4.216  36.316   6.750
 9028POPC   C3B72429   4.120  36.302   7.050
 9028POPC   C4B72430   4.164  36.293   7.350
 9029POPC   NC372431  24.487  36.857   5.550
 9029POPC   PO472432  24.494  36.891   5.850
 9029POPC   GL172433  24.518  36.898   6.150
 9029POPC   GL272434  24.414  36.830   6.150
 9029POPC   C1A72435  24.464  36.857   6.450
 9029POPC   D2A72436  24.519  36.867   6.750
 9029POPC   C3A72437  24.489  36.868   7.050
 9029POPC   C4A72438  24.502  36.883   7.350
 9029POPC   C1B72439  24.413  36.710   6.450
 9029POPC   C2B72440  24.397  36.635   6.750
 9029POPC   C3B72441  24.416  36.708   7.050
 9029POPC   C4B72442  24.459  36.701   7.350
 9030POPC   NC372443  19.858   9.787   5.550
 9030POPC   PO472444  19.883   9.703   5.850
 9030POPC   GL172445  19.810   9.776   6.150
 9030POPC   GL272446  19.914   9.811   6.150
 9030POPC   C1A72447  19.850   9.765   6.450
 9030POPC   D2A72448  19.845   9.702   6.750
 9030POPC   C3A72449  19.795   9.771   7.050
 9030POPC   C4A72450  19.795   9.732   7.350
 9030POPC   C1B72451  20.055   9.847   6.450
 9030POPC   C2B72452  20.097   9.878   6.750
 9030POPC   C3B72453  20.031   9.880   7.050
 9030POPC   C4B72454  20.084   9.816   7.350
 9031POPC   NC372455   1.959  12.832   5.550
 9031POPC   PO472456   1.975  12.861   5.850
 9031POPC   GL172457   1.999  12.829   6.150
 9031POPC   GL272458   2.076  12.953   6.150
 9031POPC   C1A72459   2.012  12.901   6.450
 9031POPC   D2A72460   1.986  12.900   6.750
 9031POPC   C3A72461   1.954  12.826   7.050
 9031POPC   C4A72462   1.976  12.825   7.350
 9031POPC   C1B72463   2.190  13.063   6.450
 9031POPC   C2B72464   2.137  13.023   6.750
 9031POPC   C3B72465   2.167  13.072   7.050
 9031POPC   C4B72466   2.149  13.063   7.350
 9032POPC   NC372467  38.478  39.244   5.550
 9032POPC   PO472468  38.427  39.193   5.850
 9032POPC   GL172469  38.423  39.244   6.150
 9032POPC   GL272470  38.334  39.149   6.150
 9032POPC   C1A72471  38.455  39.217   6.450
 9032POPC   D2A72472  38.429  39.220   6.750
 9032POPC   C3A72473  38.412  39.247   7.050
 9032POPC   C4A72474  38.443  39.192   7.350
 9032POPC   C1B72475  38.320  39.087   6.450
 9032POPC   C2B72476  38.317  39.036   6.750
 9032POPC   C3B72477  38.317  39.053   7.050
 9032POPC   C4B72478  38.280  39.031   7.350
 9033POPC   NC372479   8.942  27.547   5.550
 9033POPC   PO472480   8.928  27.596   5.850
 9033POPC   GL172481   8.999  27.629   6.150
 9033POPC   GL272482   9.029  27.697   6.150
 9033POPC   C1A72483   8.961  27.586   6.450
 9033POPC   D2A72484   8.996  27.545   6.750
 9033POPC   C3A72485   8.989  27.631   7.050
 9033POPC   C4A72486   8.944  27.579   7.350
 9033POPC   C1B72487   9.160  27.813   6.450
 9033POPC   C2B72488   9.142  27.740   6.750
 9033POPC   C3B72489   9.181  27.820   7.050
 9033POPC   C4B72490   9.109  27.752   7.350
 9034POPC   NC372491  22.961  40.780   5.550
 9034POPC   PO472492  22.961  40.814   5.850
 9034POPC   GL172493  22.975  40.819   6.150
 9034POPC   GL272494  22.971  40.643   6.150
 9034POPC   C1A72495  22.931  40.742   6.450
 9034POPC   D2A72496  22.958  40.761   6.750
 9034POPC   C3A72497  22.956  40.735   7.050
 9034POPC   C4A72498  22.929  40.812   7.350
 9034POPC   C1B72499  23.119  40.571   6.450
 9034POPC   C2B72500  23.139  40.590   6.750
 9034POPC   C3B72501  23.062  40.607   7.050
 9034POPC   C4B72502  23.073  40.587   7.350
 9035POPC   NC372503   5.047  27.601   5.550
 9035POPC   PO472504   5.140  27.563   5.850
 9035POPC   GL172505   5.119  27.557   6.150
 9035POPC   GL272506   5.096  27.449   6.150
 9035POPC   C1A72507   5.070  27.607   6.450
 9035POPC   D2A72508   5.066  27.613   6.750
 9035POPC   C3A72509   5.098  27.634   7.050
 9035POPC   C4A72510   5.137  27.570   7.350
 9035POPC   C1B72511   5.134  27.364   6.450
 9035POPC   C2B72512   5.068  27.362   6.750
 9035POPC   C3B72513   5.114  27.358   7.050
 9035POPC   C4B72514   5.118  27.378   7.350
 9036POPC   NC372515  33.844  39.210   5.550
 9036POPC   PO472516  33.832  39.210   5.850
 9036POPC   GL172517  33.815  39.216   6.150
 9036POPC   GL272518  33.895  39.148   6.150
 9036POPC   C1A72519  33.758  39.250   6.450
 9036POPC   D2A72520  33.777  39.248   6.750
 9036POPC   C3A72521  33.811  39.213   7.050
 9036POPC   C4A72522  33.849  39.270   7.350
 9036POPC   C1B72523  33.952  39.083   6.450
 9036POPC   C2B72524  33.942  39.033   6.750
 9036POPC   C3B72525  34.010  39.083   7.050
 9036POPC   C4B72526  33.980  39.008   7.350
 9037POPC   NC372527  30.676  40.754   5.550
 9037POPC   PO472528  30.735  40.772   5.850
 9037POPC   GL172529  30.665  40.765   6.150
 9037POPC   GL272530  30.620  40.874   6.150
 9037POPC   C1A72531  30.717  40.792   6.450
 9037POPC   D2A72532  30.680  40.777   6.750
 9037POPC   C3A72533  30.668  40.776   7.050
 9037POPC   C4A72534  30.687  40.771   7.350
 9037POPC   C1B72535  30.544  40.972   6.450
 9037POPC   C2B72536  30.570  40.998   6.750
 9037POPC   C3B72537  30.566  40.949   7.050
 9037POPC   C4B72538  30.513  40.984   7.350
 9038POPC   NC372539  30.672  34.600   5.550
 9038POPC   PO472540  30.737  34.620   5.850
 9038POPC   GL172541  30.687  34.583   6.150
 9038POPC   GL272542  30.573  34.633   6.150
 9038POPC   C1A72543  30.734  34.592   6.450
 9038POPC   D2A72544  30.737  34.584   6.750
 9038POPC   C3A72545  30.708  34.542   7.050
 9038POPC   C4A72546  30.676  34.616   7.350
 9038POPC   C1B72547  30.442  34.636   6.450
 9038POPC   C2B72548  30.454  34.638   6.750
 9038POPC   C3B72549  30.428  34.686   7.050
 9038POPC   C4B72550  30.507  34.622   7.350
 9039POPC   NC372551   5.824  43.074   5.550
 9039POPC   PO472552   5.899  43.131   5.850
 9039POPC   GL172553   5.822  43.062   6.150
 9039POPC   GL272554   5.753  43.110   6.150
 9039POPC   C1A72555   5.915  43.147   6.450
 9039POPC   D2A72556   5.843  43.105   6.750
 9039POPC   C3A72557   5.846  43.063   7.050
 9039POPC   C4A72558   5.831  43.087   7.350
 9039POPC   C1B72559   5.654  43.068   6.450
 9039POPC   C2B72560   5.656  43.091   6.750
 9039POPC   C3B72561   5.571  43.042   7.050
 9039POPC   C4B72562   5.589  43.073   7.350
 9040POPC   NC372563  35.374  37.665   5.550
 9040POPC   PO472564  35.363  37.633   5.850
 9040POPC   GL172565  35.364  37.725   6.150
 9040POPC   GL272566  35.350  37.759   6.150
 9040POPC   C1A72567  35.347  37.725   6.450
 9040POPC   D2A72568  35.306  37.646   6.750
 9040POPC   C3A72569  35.316  37.676   7.050
 9040POPC   C4A72570  35.352  37.708   7.350
 9040POPC   C1B72571  35.354  37.913   6.450
 9040POPC   C2B72572  35.305  37.890   6.750
 9040POPC   C3B72573  35.356  37.965   7.050
 9040POPC   C4B72574  35.343  37.913   7.350
 9041POPC   NC372575  18.265  40.020   5.550
 9041POPC   PO472576  18.233  40.001   5.850
 9041POPC   GL172577  18.264  40.028   6.150
 9041POPC   GL272578  18.177  39.953   6.150
 9041POPC   C1A72579  18.239  39.959   6.450
 9041POPC   D2A72580  18.315  40.044   6.750
 9041POPC   C3A72581  18.243  40.055   7.050
 9041POPC   C4A72582  18.329  40.005   7.350
 9041POPC   C1B72583  18.026  39.978   6.450
 9041POPC   C2B72584  18.071  39.983   6.750
 9041POPC   C3B72585  18.032  39.958   7.050
 9041POPC   C4B72586  18.012  39.902   7.350
 9042POPC   NC372587  36.941  31.491   5.550
 9042POPC   PO472588  36.870  31.488   5.850
 9042POPC   GL172589  36.936  31.441   6.150
 9042POPC   GL272590  36.807  31.508   6.150
 9042POPC   C1A72591  36.859  31.511   6.450
 9042POPC   D2A72592  36.891  31.438   6.750
 9042POPC   C3A72593  36.862  31.432   7.050
 9042POPC   C4A72594  36.884  31.477   7.350
 9042POPC   C1B72595  36.680  31.476   6.450
 9042POPC   C2B72596  36.617  31.479   6.750
 9042POPC   C3B72597  36.616  31.508   7.050
 9042POPC   C4B72598  36.657  31.515   7.350
 9043POPC   NC372599  28.360  34.625   5.550
 9043POPC   PO472600  28.380  34.599   5.850
 9043POPC   GL172601  28.408  34.527   6.150
 9043POPC   GL272602  28.472  34.625   6.150
 9043POPC   C1A72603  28.388  34.605   6.450
 9043POPC   D2A72604  28.382  34.553   6.750
 9043POPC   C3A72605  28.352  34.594   7.050
 9043POPC   C4A72606  28.384  34.578   7.350
 9043POPC   C1B72607  28.590  34.649   6.450
 9043POPC   C2B72608  28.612  34.627   6.750
 9043POPC   C3B72609  28.581  34.609   7.050
 9043POPC   C4B72610  28.655  34.656   7.350
 9044POPC   NC372611  20.609  22.973   5.550
 9044POPC   PO472612  20.616  22.888   5.850
 9044POPC   GL172613  20.564  22.918   6.150
 9044POPC   GL272614  20.728  22.887   6.150
 9044POPC   C1A72615  20.582  22.949   6.450
 9044POPC   D2A72616  20.660  22.966   6.750
 9044POPC   C3A72617  20.642  22.950   7.050
 9044POPC   C4A72618  20.568  22.924   7.350
 9044POPC   C1B72619  20.781  22.831   6.450
 9044POPC   C2B72620  20.836  22.833   6.750
 9044POPC   C3B72621  20.819  22.848   7.050
 9044POPC   C4B72622  20.809  22.805   7.350
 9045POPC   NC372623  31.501   4.318   5.550
 9045POPC   PO472624  31.453   4.277   5.850
 9045POPC   GL172625  31.512   4.333   6.150
 9045POPC   GL272626  31.335   4.379   6.150
 9045POPC   C1A72627  31.436   4.279   6.450
 9045POPC   D2A72628  31.484   4.307   6.750
 9045POPC   C3A72629  31.478   4.337   7.050
 9045POPC   C4A72630  31.492   4.344   7.350
 9045POPC   C1B72631  31.259   4.415   6.450
 9045POPC   C2B72632  31.213   4.491   6.750
 9045POPC   C3B72633  31.257   4.437   7.050
 9045POPC   C4B72634  31.304   4.482   7.350
 9046POPC   NC372635  44.670  40.046   5.550
 9046POPC   PO472636  44.630  40.020   5.850
 9046POPC   GL172637  44.626  39.982   6.150
 9046POPC   GL272638  44.597  40.080   6.150
 9046POPC   C1A72639  44.674  40.006   6.450
 9046POPC   D2A72640  44.634  39.998   6.750
 9046POPC   C3A72641  44.636  39.965   7.050
 9046POPC   C4A72642  44.707  39.980   7.350
 9046POPC   C1B72643  44.489  40.181   6.450
 9046POPC   C2B72644  44.480  40.223   6.750
 9046POPC   C3B72645  44.490  40.190   7.050
 9046POPC   C4B72646  44.459  40.143   7.350
 9047POPC   NC372647  26.019   7.413   5.550
 9047POPC   PO472648  26.076   7.461   5.850
 9047POPC   GL172649  26.071   7.421   6.150
 9047POPC   GL272650  26.152   7.412   6.150
 9047POPC   C1A72651  26.075   7.402   6.450
 9047POPC   D2A72652  26.088   7.427   6.750
 9047POPC   C3A72653  26.052   7.459   7.050
 9047POPC   C4A72654  26.079   7.467   7.350
 9047POPC   C1B72655  26.284   7.399   6.450
 9047POPC   C2B72656  26.322   7.401   6.750
 9047POPC   C3B72657  26.250   7.390   7.050
 9047POPC   C4B72658  26.330   7.390   7.350
 9048POPC   NC372659   3.567  40.781   5.550
 9048POPC   PO472660   3.581  40.742   5.850
 9048POPC   GL172661   3.521  40.820   6.150
 9048POPC   GL272662   3.494  40.834   6.150
 9048POPC   C1A72663   3.565  40.749   6.450
 9048POPC   D2A72664   3.499  40.815   6.750
 9048POPC   C3A72665   3.579  40.804   7.050
 9048POPC   C4A72666   3.582  40.785   7.350
 9048POPC   C1B72667   3.354  40.990   6.450
 9048POPC   C2B72668   3.356  40.954   6.750
 9048POPC   C3B72669   3.397  40.934   7.050
 9048POPC   C4B72670   3.338  40.979   7.350
 9049POPC   NC372671  35.362  22.972   5.550
 9049POPC   PO472672  35.390  22.934   5.850
 9049POPC   GL172673  35.314  22.953   6.150
 9049POPC   GL272674  35.431  22.998   6.150
 9049POPC   C1A72675  35.308  22.898   6.450
 9049POPC   D2A72676  35.384  22.930   6.750
 9049POPC   C3A72677  35.370  22.953   7.050
 9049POPC   C4A72678  35.385  22.964   7.350
 9049POPC   C1B72679  35.577  23.086   6.450
 9049POPC   C2B72680  35.565  23.079   6.750
 9049POPC   C3B72681  35.524  23.084   7.050
 9049POPC   C4B72682  35.591  23.072   7.350
 9050POPC   NC372683   4.297  42.291   5.550
 9050POPC   PO472684   4.325  42.327   5.850
 9050POPC   GL172685   4.354  42.344   6.150
 9050POPC   GL272686   4.409  42.321   6.150
 9050POPC   C1A72687   4.310  42.294   6.450
 9050POPC   D2A72688   4.342  42.384   6.750
 9050POPC   C3A72689   4.365  42.318   7.050
 9050POPC   C4A72690   4.268  42.296   7.350
 9050POPC   C1B72691   4.605  42.257   6.450
 9050POPC   C2B72692   4.529  42.250   6.750
 9050POPC   C3B72693   4.567  42.306   7.050
 9050POPC   C4B72694   4.595  42.273   7.350
 9051POPC   NC372695  22.911  11.323   5.550
 9051POPC   PO472696  22.960  11.314   5.850
 9051POPC   GL172697  22.892  11.285   6.150
 9051POPC   GL272698  22.964  11.404   6.150
 9051POPC   C1A72699  22.910  11.278   6.450
 9051POPC   D2A72700  22.907  11.345   6.750
 9051POPC   C3A72701  22.973  11.256   7.050
 9051POPC   C4A72702  22.896  11.328   7.350
 9051POPC   C1B72703  22.940  11.590   6.450
 9051POPC   C2B72704  22.946  11.547   6.750
 9051POPC   C3B72705  23.003  11.507   7.050
 9051POPC   C4B72706  22.917  11.523   7.350
 9052POPC   NC372707  15.199  12.805   5.550
 9052POPC   PO472708  15.181  12.867   5.850
 9052POPC   GL172709  15.145  12.868   6.150
 9052POPC   GL272710  15.065  12.844   6.150
 9052POPC   C1A72711  15.139  12.862   6.450
 9052POPC   D2A72712  15.194  12.861   6.750
 9052POPC   C3A72713  15.173  12.839   7.050
 9052POPC   C4A72714  15.185  12.823   7.350
 9052POPC   C1B72715  14.978  12.778   6.450
 9052POPC   C2B72716  14.905  12.723   6.750
 9052POPC   C3B72717  14.957  12.731   7.050
 9052POPC   C4B72718  14.923  12.780   7.350
 9053POPC   NC372719  23.691  25.278   5.550
 9053POPC   PO472720  23.671  25.260   5.850
 9053POPC   GL172721  23.686  25.309   6.150
 9053POPC   GL272722  23.814  25.307   6.150
 9053POPC   C1A72723  23.686  25.230   6.450
 9053POPC   D2A72724  23.736  25.292   6.750
 9053POPC   C3A72725  23.672  25.274   7.050
 9053POPC   C4A72726  23.712  25.239   7.350
 9053POPC   C1B72727  23.943  25.453   6.450
 9053POPC   C2B72728  23.889  25.444   6.750
 9053POPC   C3B72729  23.857  25.477   7.050
 9053POPC   C4B72730  23.882  25.476   7.350
 9054POPC   NC372731  25.284   5.872   5.550
 9054POPC   PO472732  25.283   5.881   5.850
 9054POPC   GL172733  25.266   5.872   6.150
 9054POPC   GL272734  25.149   5.825   6.150
 9054POPC   C1A72735  25.237   5.821   6.450
 9054POPC   D2A72736  25.287   5.872   6.750
 9054POPC   C3A72737  25.297   5.884   7.050
 9054POPC   C4A72738  25.219   5.882   7.350
 9054POPC   C1B72739  25.061   5.853   6.450
 9054POPC   C2B72740  25.056   5.881   6.750
 9054POPC   C3B72741  24.983   5.846   7.050
 9054POPC   C4B72742  24.995   5.883   7.350
 9055POPC   NC372743   2.795   9.786   5.550
 9055POPC   PO472744   2.801   9.770   5.850
 9055POPC   GL172745   2.745   9.789   6.150
 9055POPC   GL272746   2.854   9.834   6.150
 9055POPC   C1A72747   2.778   9.766   6.450
 9055POPC   D2A72748   2.780   9.749   6.750
 9055POPC   C3A72749   2.737   9.722   7.050
 9055POPC   C4A72750   2.794   9.767   7.350
 9055POPC   C1B72751   2.885  10.014   6.450
 9055POPC   C2B72752   2.814   9.935   6.750
 9055POPC   C3B72753   2.849   9.950   7.050
 9055POPC   C4B72754   2.824  10.006   7.350
 9056POPC   NC372755   5.905   2.741   5.550
 9056POPC   PO472756   5.863   2.723   5.850
 9056POPC   GL172757   5.837   2.767   6.150
 9056POPC   GL272758   5.907   2.850   6.150
 9056POPC   C1A72759   5.840   2.796   6.450
 9056POPC   D2A72760   5.828   2.734   6.750
 9056POPC   C3A72761   5.853   2.738   7.050
 9056POPC   C4A72762   5.893   2.719   7.350
 9056POPC   C1B72763   5.834   3.001   6.450
 9056POPC   C2B72764   5.878   2.972   6.750
 9056POPC   C3B72765   5.829   2.975   7.050
 9056POPC   C4B72766   5.844   2.984   7.350
 9057POPC   NC372767   1.984   5.914   5.550
 9057POPC   PO472768   1.957   5.824   5.850
 9057POPC   GL172769   1.944   5.836   6.150
 9057POPC   GL272770   2.099   5.740   6.150
 9057POPC   C1A72771   1.992   5.881   6.450
 9057POPC   D2A72772   2.013   5.908   6.750
 9057POPC   C3A72773   2.028   5.866   7.050
 9057POPC   C4A72774   1.953   5.905   7.350
 9057POPC   C1B72775   2.090   5.686   6.450
 9057POPC   C2B72776   2.080   5.616   6.750
 9057POPC   C3B72777   2.132   5.653   7.050
 9057POPC   C4B72778   2.128   5.690   7.350
 9058POPC   NC372779  25.217  40.053   5.550
 9058POPC   PO472780  25.226  39.999   5.850
 9058POPC   GL172781  25.308  40.033   6.150
 9058POPC   GL272782  25.239  40.131   6.150
 9058POPC   C1A72783  25.289  39.969   6.450
 9058POPC   D2A72784  25.278  40.014   6.750
 9058POPC   C3A72785  25.234  40.003   7.050
 9058POPC   C4A72786  25.295  39.990   7.350
 9058POPC   C1B72787  25.311  40.231   6.450
 9058POPC   C2B72788  25.243  40.229   6.750
 9058POPC   C3B72789  25.300  40.232   7.050
 9058POPC   C4B72790  25.295  40.297   7.350
 9059POPC   NC372791  22.893  25.315   5.550
 9059POPC   PO472792  22.918  25.266   5.850
 9059POPC   GL172793  22.922  25.305   6.150
 9059POPC   GL272794  23.097  25.275   6.150
 9059POPC   C1A72795  22.959  25.255   6.450
 9059POPC   D2A72796  22.969  25.309   6.750
 9059POPC   C3A72797  22.903  25.280   7.050
 9059POPC   C4A72798  22.916  25.242   7.350
 9059POPC   C1B72799  23.209  25.366   6.450
 9059POPC   C2B72800  23.140  25.299   6.750
 9059POPC   C3B72801  23.194  25.373   7.050
 9059POPC   C4B72802  23.187  25.364   7.350
 9060POPC   NC372803   5.104  16.001   5.550
 9060POPC   PO472804   5.081  15.925   5.850
 9060POPC   GL172805   5.052  15.909   6.150
 9060POPC   GL272806   5.016  15.964   6.150
 9060POPC   C1A72807   5.124  15.987   6.450
 9060POPC   D2A72808   5.098  16.000   6.750
 9060POPC   C3A72809   5.063  15.940   7.050
 9060POPC   C4A72810   5.133  15.995   7.350
 9060POPC   C1B72811   4.817  15.868   6.450
 9060POPC   C2B72812   4.824  15.886   6.750
 9060POPC   C3B72813   4.867  15.902   7.050
 9060POPC   C4B72814   4.858  15.853   7.350
 9061POPC   NC372815  33.057  23.752   5.550
 9061POPC   PO472816  33.013  23.698   5.850
 9061POPC   GL172817  33.064  23.704   6.150
 9061POPC   GL272818  33.064  23.548   6.150
 9061POPC   C1A72819  33.041  23.732   6.450
 9061POPC   D2A72820  33.056  23.674   6.750
 9061POPC   C3A72821  32.981  23.674   7.050
 9061POPC   C4A72822  33.049  23.735   7.350
 9061POPC   C1B72823  33.048  23.460   6.450
 9061POPC   C2B72824  33.052  23.453   6.750
 9061POPC   C3B72825  33.077  23.487   7.050
 9061POPC   C4B72826  33.077  23.514   7.350
 9062POPC   NC372827  43.922  43.913   5.550
 9062POPC   PO472828  43.870  43.858   5.850
 9062POPC   GL172829  43.853  43.914   6.150
 9062POPC   GL272830  44.030  43.871   6.150
 9062POPC   C1A72831  43.853  43.902   6.450
 9062POPC   D2A72832  43.847  43.907   6.750
 9062POPC   C3A72833  43.925  43.917   7.050
 9062POPC   C4A72834  43.901  43.895   7.350
 9062POPC   C1B72835  44.151  43.803   6.450
 9062POPC   C2B72836  44.110  43.818   6.750
 9062POPC   C3B72837  44.079  43.790   7.050
 9062POPC   C4B72838  44.147  43.817   7.350
 9063POPC   NC372839  15.201  24.506   5.550
 9063POPC   PO472840  15.218  24.508   5.850
 9063POPC   GL172841  15.198  24.539   6.150
 9063POPC   GL272842  15.257  24.349   6.150
 9063POPC   C1A72843  15.229  24.510   6.450
 9063POPC   D2A72844  15.173  24.506   6.750
 9063POPC   C3A72845  15.151  24.489   7.050
 9063POPC   C4A72846  15.191  24.446   7.350
 9063POPC   C1B72847  15.340  24.276   6.450
 9063POPC   C2B72848  15.329  24.241   6.750
 9063POPC   C3B72849  15.281  24.239   7.050
 9063POPC   C4B72850  15.302  24.324   7.350
 9064POPC   NC372851  29.143  17.460   5.550
 9064POPC   PO472852  29.181  17.514   5.850
 9064POPC   GL172853  29.165  17.489   6.150
 9064POPC   GL272854  29.205  17.409   6.150
 9064POPC   C1A72855  29.179  17.534   6.450
 9064POPC   D2A72856  29.125  17.473   6.750
 9064POPC   C3A72857  29.183  17.480   7.050
 9064POPC   C4A72858  29.140  17.543   7.350
 9064POPC   C1B72859  29.197  17.211   6.450
 9064POPC   C2B72860  29.142  17.275   6.750
 9064POPC   C3B72861  29.144  17.251   7.050
 9064POPC   C4B72862  29.162  17.270   7.350
 9065POPC   NC372863   9.713   1.210   5.550
 9065POPC   PO472864   9.769   1.241   5.850
 9065POPC   GL172865   9.724   1.205   6.150
 9065POPC   GL272866   9.639   1.075   6.150
 9065POPC   C1A72867   9.733   1.200   6.450
 9065POPC   D2A72868   9.745   1.189   6.750
 9065POPC   C3A72869   9.751   1.222   7.050
 9065POPC   C4A72870   9.721   1.190   7.350
 9065POPC   C1B72871   9.596   1.014   6.450
 9065POPC   C2B72872   9.572   1.041   6.750
 9065POPC   C3B72873   9.618   0.980   7.050
 9065POPC   C4B72874   9.581   0.995   7.350
 9066POPC   NC372875   2.039  41.557   5.550
 9066POPC   PO472876   1.993  41.581   5.850
 9066POPC   GL172877   1.967  41.553   6.150
 9066POPC   GL272878   2.131  41.554   6.150
 9066POPC   C1A72879   1.955  41.526   6.450
 9066POPC   D2A72880   2.022  41.568   6.750
 9066POPC   C3A72881   2.021  41.527   7.050
 9066POPC   C4A72882   1.945  41.607   7.350
 9066POPC   C1B72883   2.208  41.488   6.450
 9066POPC   C2B72884   2.281  41.499   6.750
 9066POPC   C3B72885   2.216  41.560   7.050
 9066POPC   C4B72886   2.198  41.553   7.350
 9067POPC   NC372887  43.925  25.308   5.550
 9067POPC   PO472888  43.855  25.245   5.850
 9067POPC   GL172889  43.904  25.262   6.150
 9067POPC   GL272890  44.044  25.279   6.150
 9067POPC   C1A72891  43.935  25.241   6.450
 9067POPC   D2A72892  43.886  25.240   6.750
 9067POPC   C3A72893  43.908  25.299   7.050
 9067POPC   C4A72894  43.865  25.235   7.350
 9067POPC   C1B72895  44.072  25.384   6.450
 9067POPC   C2B72896  44.136  25.321   6.750
 9067POPC   C3B72897  44.127  25.389   7.050
 9067POPC   C4B72898  44.160  25.320   7.350
 9068POPC   NC372899  15.164  35.303   5.550
 9068POPC   PO472900  15.169  35.335   5.850
 9068POPC   GL172901  15.161  35.399   6.150
 9068POPC   GL272902  15.117  35.470   6.150
 9068POPC   C1A72903  15.227  35.364   6.450
 9068POPC   D2A72904  15.207  35.354   6.750
 9068POPC   C3A72905  15.137  35.353   7.050
 9068POPC   C4A72906  15.194  35.319   7.350
 9068POPC   C1B72907  15.107  35.555   6.450
 9068POPC   C2B72908  15.080  35.541   6.750
 9068POPC   C3B72909  15.082  35.561   7.050
 9068POPC   C4B72910  15.103  35.584   7.350
 9069POPC   NC372911  21.399  26.003   5.550
 9069POPC   PO472912  21.425  26.034   5.850
 9069POPC   GL172913  21.381  26.007   6.150
 9069POPC   GL272914  21.413  26.151   6.150
 9069POPC   C1A72915  21.376  26.020   6.450
 9069POPC   D2A72916  21.353  25.996   6.750
 9069POPC   C3A72917  21.361  26.004   7.050
 9069POPC   C4A72918  21.343  26.069   7.350
 9069POPC   C1B72919  21.355  26.255   6.450
 9069POPC   C2B72920  21.382  26.331   6.750
 9069POPC   C3B72921  21.393  26.313   7.050
 9069POPC   C4B72922  21.398  26.279   7.350
 9070POPC   NC372923   6.602  28.361   5.550
 9070POPC   PO472924   6.642  28.343   5.850
 9070POPC   GL172925   6.691  28.393   6.150
 9070POPC   GL272926   6.508  28.377   6.150
 9070POPC   C1A72927   6.637  28.352   6.450
 9070POPC   D2A72928   6.662  28.381   6.750
 9070POPC   C3A72929   6.667  28.409   7.050
 9070POPC   C4A72930   6.616  28.330   7.350
 9070POPC   C1B72931   6.368  28.364   6.450
 9070POPC   C2B72932   6.388  28.395   6.750
 9070POPC   C3B72933   6.418  28.396   7.050
 9070POPC   C4B72934   6.399  28.393   7.350
 9071POPC   NC372935  40.782  44.705   5.550
 9071POPC   PO472936  40.742  44.630   5.850
 9071POPC   GL172937  40.747  44.631   6.150
 9071POPC   GL272938  40.647  44.662   6.150
 9071POPC   C1A72939  40.777  44.619   6.450
 9071POPC   D2A72940  40.752  44.663   6.750
 9071POPC   C3A72941  40.780  44.702   7.050
 9071POPC   C4A72942  40.761  44.618   7.350
 9071POPC   C1B72943  40.510  44.769   6.450
 9071POPC   C2B72944  40.543  44.700   6.750
 9071POPC   C3B72945  40.500  44.683   7.050
 9071POPC   C4B72946  40.519  44.751   7.350
 9072POPC   NC372947  35.377  11.330   5.550
 9072POPC   PO472948  35.362  11.289   5.850
 9072POPC   GL172949  35.371  11.292   6.150
 9072POPC   GL272950  35.233  11.237   6.150
 9072POPC   C1A72951  35.379  11.338   6.450
 9072POPC   D2A72952  35.380  11.302   6.750
 9072POPC   C3A72953  35.315  11.273   7.050
 9072POPC   C4A72954  35.366  11.290   7.350
 9072POPC   C1B72955  35.144  11.160   6.450
 9072POPC   C2B72956  35.198  11.113   6.750
 9072POPC   C3B72957  35.112  11.187   7.050
 9072POPC   C4B72958  35.117  11.172   7.350
 9073POPC   NC372959  21.387   7.384   5.550
 9073POPC   PO472960  21.410   7.461   5.850
 9073POPC   GL172961  21.349   7.413   6.150
 9073POPC   GL272962  21.296   7.361   6.150
 9073POPC   C1A72963  21.397   7.374   6.450
 9073POPC   D2A72964  21.360   7.387   6.750
 9073POPC   C3A72965  21.419   7.450   7.050
 9073POPC   C4A72966  21.417   7.454   7.350
 9073POPC   C1B72967  21.237   7.220   6.450
 9073POPC   C2B72968  21.206   7.273   6.750
 9073POPC   C3B72969  21.175   7.234   7.050
 9073POPC   C4B72970  21.159   7.282   7.350
 9074POPC   NC372971  26.014  31.444   5.550
 9074POPC   PO472972  26.032  31.519   5.850
 9074POPC   GL172973  25.994  31.497   6.150
 9074POPC   GL272974  26.108  31.578   6.150
 9074POPC   C1A72975  26.064  31.443   6.450
 9074POPC   D2A72976  26.005  31.432   6.750
 9074POPC   C3A72977  25.994  31.441   7.050
 9074POPC   C4A72978  26.022  31.422   7.350
 9074POPC   C1B72979  26.153  31.728   6.450
 9074POPC   C2B72980  26.104  31.683   6.750
 9074POPC   C3B72981  26.188  31.706   7.050
 9074POPC   C4B72982  26.168  31.653   7.350
 9075POPC   NC372983   5.899  29.953   5.550
 9075POPC   PO472984   5.829  29.939   5.850
 9075POPC   GL172985   5.883  29.877   6.150
 9075POPC   GL272986   5.929  30.001   6.150
 9075POPC   C1A72987   5.842  29.944   6.450
 9075POPC   D2A72988   5.877  29.968   6.750
 9075POPC   C3A72989   5.885  29.963   7.050
 9075POPC   C4A72990   5.881  29.891   7.350
 9075POPC   C1B72991   6.029  30.127   6.450
 9075POPC   C2B72992   6.002  30.115   6.750
 9075POPC   C3B72993   6.007  30.088   7.050
 9075POPC   C4B72994   6.035  30.149   7.350
 9076POPC   NC372995   8.218  12.063   5.550
 9076POPC   PO472996   8.209  12.026   5.850
 9076POPC   GL172997   8.242  12.085   6.150
 9076POPC   GL272998   8.230  12.180   6.150
 9076POPC   C1A72999   8.205  12.075   6.450
 9076POPC   D2A73000   8.147  12.083   6.750
 9076POPC   C3A73001   8.147  12.061   7.050
 9076POPC   C4A73002   8.148  12.033   7.350
 9076POPC   C1B73003   8.266  12.348   6.450
 9076POPC   C2B73004   8.260  12.287   6.750
 9076POPC   C3B73005   8.292  12.268   7.050
 9076POPC   C4B73006   8.301  12.317   7.350
 9077POPC   NC373007   1.243   5.130   5.550
 9077POPC   PO473008   1.216   5.088   5.850
 9077POPC   GL173009   1.239   5.128   6.150
 9077POPC   GL273010   1.320   4.963   6.150
 9077POPC   C1A73011   1.263   5.138   6.450
 9077POPC   D2A73012   1.250   5.067   6.750
 9077POPC   C3A73013   1.230   5.116   7.050
 9077POPC   C4A73014   1.183   5.048   7.350
 9077POPC   C1B73015   1.406   4.915   6.450
 9077POPC   C2B73016   1.416   4.864   6.750
 9077POPC   C3B73017   1.393   4.875   7.050
 9077POPC   C4B73018   1.377   4.899   7.350
 9078POPC   NC373019   3.499   4.338   5.550
 9078POPC   PO473020   3.528   4.359   5.850
 9078POPC   GL173021   3.547   4.337   6.150
 9078POPC   GL273022   3.533   4.215   6.150
 9078POPC   C1A73023   3.518   4.289   6.450
 9078POPC   D2A73024   3.549   4.321   6.750
 9078POPC   C3A73025   3.565   4.273   7.050
 9078POPC   C4A73026   3.570   4.361   7.350
 9078POPC   C1B73027   3.638   4.103   6.450
 9078POPC   C2B73028   3.604   4.032   6.750
 9078POPC   C3B73029   3.571   4.028   7.050
 9078POPC   C4B73030   3.628   4.065   7.350
 9079POPC   NC373031   3.508  36.087   5.550
 9079POPC   PO473032   3.569  36.154   5.850
 9079POPC   GL173033   3.551  36.110   6.150
 9079POPC   GL273034   3.586  35.996   6.150
 9079POPC   C1A73035   3.583  36.144   6.450
 9079POPC   D2A73036   3.515  36.109   6.750
 9079POPC   C3A73037   3.503  36.171   7.050
 9079POPC   C4A73038   3.497  36.124   7.350
 9079POPC   C1B73039   3.651  35.844   6.450
 9079POPC   C2B73040   3.641  35.882   6.750
 9079POPC   C3B73041   3.586  35.911   7.050
 9079POPC   C4B73042   3.647  35.887   7.350
 9080POPC   NC373043  15.130  22.188   5.550
 9080POPC   PO473044  15.206  22.127   5.850
 9080POPC   GL173045  15.225  22.137   6.150
 9080POPC   GL273046  15.050  22.073   6.150
 9080POPC   C1A73047  15.169  22.189   6.450
 9080POPC   D2A73048  15.229  22.137   6.750
 9080POPC   C3A73049  15.173  22.126   7.050
 9080POPC   C4A73050  15.137  22.171   7.350
 9080POPC   C1B73051  14.988  22.021   6.450
 9080POPC   C2B73052  15.025  21.974   6.750
 9080POPC   C3B73053  15.035  22.001   7.050
 9080POPC   C4B73054  14.962  21.999   7.350
 9081POPC   NC373055  15.973  17.517   5.550
 9081POPC   PO473056  15.924  17.503   5.850
 9081POPC   GL173057  15.913  17.497   6.150
 9081POPC   GL273058  15.988  17.679   6.150
 9081POPC   C1A73059  15.961  17.460   6.450
 9081POPC   D2A73060  15.926  17.518   6.750
 9081POPC   C3A73061  15.931  17.513   7.050
 9081POPC   C4A73062  15.939  17.508   7.350
 9081POPC   C1B73063  15.942  17.732   6.450
 9081POPC   C2B73064  15.994  17.732   6.750
 9081POPC   C3B73065  16.015  17.731   7.050
 9081POPC   C4B73066  15.998  17.744   7.350
 9082POPC   NC373067   2.728  43.097   5.550
 9082POPC   PO473068   2.749  43.117   5.850
 9082POPC   GL173069   2.774  43.142   6.150
 9082POPC   GL273070   2.868  43.087   6.150
 9082POPC   C1A73071   2.741  43.135   6.450
 9082POPC   D2A73072   2.793  43.118   6.750
 9082POPC   C3A73073   2.740  43.079   7.050
 9082POPC   C4A73074   2.721  43.134   7.350
 9082POPC   C1B73075   2.969  42.963   6.450
 9082POPC   C2B73076   2.963  42.925   6.750
 9082POPC   C3B73077   2.933  42.999   7.050
 9082POPC   C4B73078   2.966  42.947   7.350
 9083POPC   NC373079  19.834  37.637   5.550
 9083POPC   PO473080  19.824  37.684   5.850
 9083POPC   GL173081  19.856  37.637   6.150
 9083POPC   GL273082  19.686  37.668   6.150
 9083POPC   C1A73083  19.876  37.673   6.450
 9083POPC   D2A73084  19.866  37.670   6.750
 9083POPC   C3A73085  19.849  37.716   7.050
 9083POPC   C4A73086  19.801  37.634   7.350
 9083POPC   C1B73087  19.576  37.608   6.450
 9083POPC   C2B73088  19.591  37.532   6.750
 9083POPC   C3B73089  19.651  37.606   7.050
 9083POPC   C4B73090  19.639  37.547   7.350
 9084POPC   NC373091  12.886  12.032   5.550
 9084POPC   PO473092  12.843  12.061   5.850
 9084POPC   GL173093  12.852  12.038   6.150
 9084POPC   GL273094  12.888  12.205   6.150
 9084POPC   C1A73095  12.854  12.114   6.450
 9084POPC   D2A73096  12.900  12.076   6.750
 9084POPC   C3A73097  12.880  12.048   7.050
 9084POPC   C4A73098  12.819  12.099   7.350
 9084POPC   C1B73099  12.914  12.370   6.450
 9084POPC   C2B73100  12.886  12.283   6.750
 9084POPC   C3B73101  12.938  12.275   7.050
 9084POPC   C4B73102  12.931  12.280   7.350
 9085POPC   NC373103  22.914  32.295   5.550
 9085POPC   PO473104  22.890  32.214   5.850
 9085POPC   GL173105  22.908  32.229   6.150
 9085POPC   GL273106  22.850  32.354   6.150
 9085POPC   C1A73107  22.959  32.282   6.450
 9085POPC   D2A73108  22.909  32.218   6.750
 9085POPC   C3A73109  22.905  32.234   7.050
 9085POPC   C4A73110  22.932  32.266   7.350
 9085POPC   C1B73111  22.790  32.458   6.450
 9085POPC   C2B73112  22.795  32.411   6.750
 9085POPC   C3B73113  22.797  32.415   7.050
 9085POPC   C4B73114  22.766  32.445   7.350
 9086POPC   NC373115  26.837  26.857   5.550
 9086POPC   PO473116  26.836  26.832   5.850
 9086POPC   GL173117  26.792  26.856   6.150
 9086POPC   GL273118  26.917  26.730   6.150
 9086POPC   C1A73119  26.858  26.827   6.450
 9086POPC   D2A73120  26.815  26.811   6.750
 9086POPC   C3A73121  26.822  26.839   7.050
 9086POPC   C4A73122  26.822  26.784   7.350
 9086POPC   C1B73123  27.089  26.716   6.450
 9086POPC   C2B73124  27.049  26.720   6.750
 9086POPC   C3B73125  27.004  26.762   7.050
 9086POPC   C4B73126  27.054  26.769   7.350
 9087POPC   NC373127  29.887  27.615   5.550
 9087POPC   PO473128  29.925  27.639   5.850
 9087POPC   GL173129  29.936  27.568   6.150
 9087POPC   GL273130  29.921  27.763   6.150
 9087POPC   C1A73131  29.926  27.623   6.450
 9087POPC   D2A73132  29.964  27.557   6.750
 9087POPC   C3A73133  29.926  27.614   7.050
 9087POPC   C4A73134  29.900  27.568   7.350
 9087POPC   C1B73135  29.908  27.887   6.450
 9087POPC   C2B73136  29.908  27.851   6.750
 9087POPC   C3B73137  29.979  27.860   7.050
 9087POPC   C4B73138  29.902  27.828   7.350
 9088POPC   NC373139  19.869  23.672   5.550
 9088POPC   PO473140  19.826  23.711   5.850
 9088POPC   GL173141  19.815  23.695   6.150
 9088POPC   GL273142  19.789  23.803   6.150
 9088POPC   C1A73143  19.800  23.742   6.450
 9088POPC   D2A73144  19.877  23.752   6.750
 9088POPC   C3A73145  19.869  23.730   7.050
 9088POPC   C4A73146  19.841  23.756   7.350
 9088POPC   C1B73147  19.785  24.002   6.450
 9088POPC   C2B73148  19.773  23.955   6.750
 9088POPC   C3B73149  19.783  23.959   7.050
 9088POPC   C4B73150  19.841  23.988   7.350
 9089POPC   NC373151  37.717  13.653   5.550
 9089POPC   PO473152  37.641  13.639   5.850
 9089POPC   GL173153  37.697  13.677   6.150
 9089POPC   GL273154  37.568  13.564   6.150
 9089POPC   C1A73155  37.656  13.654   6.450
 9089POPC   D2A73156  37.728  13.637   6.750
 9089POPC   C3A73157  37.691  13.592   7.050
 9089POPC   C4A73158  37.632  13.637   7.350
 9089POPC   C1B73159  37.543  13.453   6.450
 9089POPC   C2B73160  37.524  13.428   6.750
 9089POPC   C3B73161  37.448  13.450   7.050
 9089POPC   C4B73162  37.539  13.507   7.350
 9090POPC   NC373163  39.259  30.716   5.550
 9090POPC   PO473164  39.204  30.729   5.850
 9090POPC   GL173165  39.199  30.664   6.150
 9090POPC   GL273166  39.074  30.758   6.150
 9090POPC   C1A73167  39.230  30.728   6.450
 9090POPC   D2A73168  39.228  30.648   6.750
 9090POPC   C3A73169  39.265  30.691   7.050
 9090POPC   C4A73170  39.259  30.685   7.350
 9090POPC   C1B73171  39.023  30.798   6.450
 9090POPC   C2B73172  39.010  30.834   6.750
 9090POPC   C3B73173  38.965  30.816   7.050
 9090POPC   C4B73174  39.037  30.859   7.350
 9091POPC   NC373175   6.654  31.489   5.550
 9091POPC   PO473176   6.624  31.508   5.850
 9091POPC   GL173177   6.644  31.517   6.150
 9091POPC   GL273178   6.711  31.521   6.150
 9091POPC   C1A73179   6.671  31.465   6.450
 9091POPC   D2A73180   6.632  31.505   6.750
 9091POPC   C3A73181   6.616  31.472   7.050
 9091POPC   C4A73182   6.620  31.437   7.350
 9091POPC   C1B73183   6.820  31.591   6.450
 9091POPC   C2B73184   6.861  31.658   6.750
 9091POPC   C3B73185   6.885  31.628   7.050
 9091POPC   C4B73186   6.832  31.660   7.350
 9092POPC   NC373187   6.644  17.462   5.550
 9092POPC   PO473188   6.623  17.508   5.850
 9092POPC   GL173189   6.612  17.503   6.150
 9092POPC   GL273190   6.660  17.344   6.150
 9092POPC   C1A73191   6.671  17.537   6.450
 9092POPC   D2A73192   6.659  17.484   6.750
 9092POPC   C3A73193   6.686  17.550   7.050
 9092POPC   C4A73194   6.644  17.496   7.350
 9092POPC   C1B73195   6.538  17.290   6.450
 9092POPC   C2B73196   6.563  17.306   6.750
 9092POPC   C3B73197   6.581  17.244   7.050
 9092POPC   C4B73198   6.598  17.305   7.350
 9093POPC   NC373199   8.961  11.294   5.550
 9093POPC   PO473200   8.961  11.263   5.850
 9093POPC   GL173201   9.021  11.269   6.150
 9093POPC   GL273202   9.023  11.405   6.150
 9093POPC   C1A73203   8.930  11.301   6.450
 9093POPC   D2A73204   8.944  11.292   6.750
 9093POPC   C3A73205   8.954  11.251   7.050
 9093POPC   C4A73206   8.991  11.264   7.350
 9093POPC   C1B73207   9.145  11.469   6.450
 9093POPC   C2B73208   9.140  11.504   6.750
 9093POPC   C3B73209   9.140  11.523   7.050
 9093POPC   C4B73210   9.124  11.492   7.350
 9094POPC   NC373211  40.754  32.221   5.550
 9094POPC   PO473212  40.745  32.288   5.850
 9094POPC   GL173213  40.762  32.207   6.150
 9094POPC   GL273214  40.801  32.379   6.150
 9094POPC   C1A73215  40.755  32.245   6.450
 9094POPC   D2A73216  40.783  32.218   6.750
 9094POPC   C3A73217  40.810  32.255   7.050
 9094POPC   C4A73218  40.824  32.201   7.350
 9094POPC   C1B73219  40.784  32.523   6.450
 9094POPC   C2B73220  40.798  32.523   6.750
 9094POPC   C3B73221  40.845  32.491   7.050
 9094POPC   C4B73222  40.829  32.502   7.350
 9095POPC   NC373223   8.234  33.066   5.550
 9095POPC   PO473224   8.198  32.987   5.850
 9095POPC   GL173225   8.234  33.059   6.150
 9095POPC   GL273226   8.312  32.988   6.150
 9095POPC   C1A73227   8.165  33.042   6.450
 9095POPC   D2A73228   8.197  33.042   6.750
 9095POPC   C3A73229   8.233  33.071   7.050
 9095POPC   C4A73230   8.165  32.995   7.350
 9095POPC   C1B73231   8.450  33.048   6.450
 9095POPC   C2B73232   8.399  33.071   6.750
 9095POPC   C3B73233   8.472  32.995   7.050
 9095POPC   C4B73234   8.417  33.022   7.350
 9096POPC   NC373235  28.381  12.886   5.550
 9096POPC   PO473236  28.341  12.875   5.850
 9096POPC   GL173237  28.413  12.851   6.150
 9096POPC   GL273238  28.297  12.919   6.150
 9096POPC   C1A73239  28.351  12.859   6.450
 9096POPC   D2A73240  28.412  12.824   6.750
 9096POPC   C3A73241  28.363  12.871   7.050
 9096POPC   C4A73242  28.343  12.901   7.350
 9096POPC   C1B73243  28.226  12.989   6.450
 9096POPC   C2B73244  28.223  13.015   6.750
 9096POPC   C3B73245  28.143  13.012   7.050
 9096POPC   C4B73246  28.165  12.999   7.350
 9097POPC   NC373247  24.529  42.345   5.550
 9097POPC   PO473248  24.532  42.322   5.850
 9097POPC   GL173249  24.454  42.327   6.150
 9097POPC   GL273250  24.418  42.461   6.150
 9097POPC   C1A73251  24.500  42.294   6.450
 9097POPC   D2A73252  24.508  42.307   6.750
 9097POPC   C3A73253  24.457  42.363   7.050
 9097POPC   C4A73254  24.511  42.302   7.350
 9097POPC   C1B73255  24.331  42.483   6.450
 9097POPC   C2B73256  24.255  42.535   6.750
 9097POPC   C3B73257  24.323  42.521   7.050
 9097POPC   C4B73258  24.342  42.507   7.350
 9098POPC   NC373259   2.772   7.372   5.550
 9098POPC   PO473260   2.764   7.383   5.850
 9098POPC   GL173261   2.719   7.458   6.150
 9098POPC   GL273262   2.843   7.345   6.150
 9098POPC   C1A73263   2.810   7.460   6.450
 9098POPC   D2A73264   2.750   7.415   6.750
 9098POPC   C3A73265   2.793   7.376   7.050
 9098POPC   C4A73266   2.768   7.387   7.350
 9098POPC   C1B73267   2.974   7.315   6.450
 9098POPC   C2B73268   3.010   7.274   6.750
 9098POPC   C3B73269   2.983   7.331   7.050
 9098POPC   C4B73270   3.004   7.320   7.350
 9099POPC   NC373271  11.313   8.234   5.550
 9099POPC   PO473272  11.295   8.212   5.850
 9099POPC   GL173273  11.318   8.241   6.150
 9099POPC   GL273274  11.190   8.126   6.150
 9099POPC   C1A73275  11.250   8.198   6.450
 9099POPC   D2A73276  11.266   8.187   6.750
 9099POPC   C3A73277  11.257   8.196   7.050
 9099POPC   C4A73278  11.307   8.155   7.350
 9099POPC   C1B73279  11.173   8.005   6.450
 9099POPC   C2B73280  11.158   7.967   6.750
 9099POPC   C3B73281  11.150   7.971   7.050
 9099POPC   C4B73282  11.142   7.986   7.350
 9100POPC   NC373283  31.463  14.386   5.550
 9100POPC   PO473284  31.476  14.360   5.850
 9100POPC   GL173285  31.459  14.450   6.150
 9100POPC   GL273286  31.324  14.352   6.150
 9100POPC   C1A73287  31.436  14.357   6.450
 9100POPC   D2A73288  31.448  14.367   6.750
 9100POPC   C3A73289  31.510  14.450   7.050
 9100POPC   C4A73290  31.495  14.369   7.350
 9100POPC   C1B73291  31.284  14.296   6.450
 9100POPC   C2B73292  31.289  14.235   6.750
 9100POPC   C3B73293  31.239  14.279   7.050
 9100POPC   C4B73294  31.288  14.306   7.350
 9101POPC   NC373295  12.885  25.258   5.550
 9101POPC   PO473296  12.802  25.248   5.850
 9101POPC   GL173297  12.891  25.238   6.150
 9101POPC   GL273298  12.924  25.198   6.150
 9101POPC   C1A73299  12.896  25.249   6.450
 9101POPC   D2A73300  12.862  25.314   6.750
 9101POPC   C3A73301  12.855  25.304   7.050
 9101POPC   C4A73302  12.826  25.240   7.350
 9101POPC   C1B73303  13.060  25.120   6.450
 9101POPC   C2B73304  13.032  25.140   6.750
 9101POPC   C3B73305  13.115  25.112   7.050
 9101POPC   C4B73306  13.064  25.172   7.350
 9102POPC   NC373307  19.026   5.879   5.550
 9102POPC   PO473308  19.026   5.844   5.850
 9102POPC   GL173309  19.045   5.844   6.150
 9102POPC   GL273310  19.060   5.771   6.150
 9102POPC   C1A73311  19.029   5.889   6.450
 9102POPC   D2A73312  19.036   5.894   6.750
 9102POPC   C3A73313  19.038   5.847   7.050
 9102POPC   C4A73314  19.097   5.905   7.350
 9102POPC   C1B73315  19.004   5.633   6.450
 9102POPC   C2B73316  18.961   5.606   6.750
 9102POPC   C3B73317  19.017   5.576   7.050
 9102POPC   C4B73318  19.057   5.655   7.350
 9103POPC   NC373319   2.782  16.759   5.550
 9103POPC   PO473320   2.748  16.681   5.850
 9103POPC   GL173321   2.796  16.717   6.150
 9103POPC   GL273322   2.720  16.850   6.150
 9103POPC   C1A73323   2.749  16.748   6.450
 9103POPC   D2A73324   2.722  16.703   6.750
 9103POPC   C3A73325   2.781  16.707   7.050
 9103POPC   C4A73326   2.793  16.770   7.350
 9103POPC   C1B73327   2.804  17.021   6.450
 9103POPC   C2B73328   2.800  17.025   6.750
 9103POPC   C3B73329   2.771  16.938   7.050
 9103POPC   C4B73330   2.794  16.931   7.350
 9104POPC   NC373331  26.001  33.801   5.550
 9104POPC   PO473332  25.996  33.786   5.850
 9104POPC   GL173333  26.018  33.788   6.150
 9104POPC   GL273334  25.871  33.789   6.150
 9104POPC   C1A73335  25.992  33.802   6.450
 9104POPC   D2A73336  26.028  33.810   6.750
 9104POPC   C3A73337  26.048  33.795   7.050
 9104POPC   C4A73338  26.038  33.835   7.350
 9104POPC   C1B73339  25.788  33.850   6.450
 9104POPC   C2B73340  25.831  33.891   6.750
 9104POPC   C3B73341  25.797  33.874   7.050
 9104POPC   C4B73342  25.842  33.841   7.350
 9105POPC   NC373343  22.915  38.449   5.550
 9105POPC   PO473344  22.915  38.480   5.850
 9105POPC   GL173345  22.947  38.467   6.150
 9105POPC   GL273346  23.006  38.321   6.150
 9105POPC   C1A73347  22.893  38.417   6.450
 9105POPC   D2A73348  22.890  38.429   6.750
 9105POPC   C3A73349  22.900  38.490   7.050
 9105POPC   C4A73350  22.913  38.502   7.350
 9105POPC   C1B73351  23.004  38.224   6.450
 9105POPC   C2B73352  22.949  38.232   6.750
 9105POPC   C3B73353  22.977  38.242   7.050
 9105POPC   C4B73354  23.014  38.222   7.350
 9106POPC   NC373355   6.665  40.025   5.550
 9106POPC   PO473356   6.621  40.039   5.850
 9106POPC   GL173357   6.648  39.981   6.150
 9106POPC   GL273358   6.602  39.907   6.150
 9106POPC   C1A73359   6.600  40.024   6.450
 9106POPC   D2A73360   6.630  40.044   6.750
 9106POPC   C3A73361   6.647  40.017   7.050
 9106POPC   C4A73362   6.647  40.033   7.350
 9106POPC   C1B73363   6.539  39.761   6.450
 9106POPC   C2B73364   6.608  39.817   6.750
 9106POPC   C3B73365   6.531  39.818   7.050
 9106POPC   C4B73366   6.582  39.731   7.350
 9107POPC   NC373367  29.110  40.037   5.550
 9107POPC   PO473368  29.138  40.046   5.850
 9107POPC   GL173369  29.160  39.985   6.150
 9107POPC   GL273370  29.010  39.984   6.150
 9107POPC   C1A73371  29.122  40.017   6.450
 9107POPC   D2A73372  29.144  39.969   6.750
 9107POPC   C3A73373  29.183  40.054   7.050
 9107POPC   C4A73374  29.125  39.979   7.350
 9107POPC   C1B73375  28.918  39.868   6.450
 9107POPC   C2B73376  28.926  39.902   6.750
 9107POPC   C3B73377  28.934  39.857   7.050
 9107POPC   C4B73378  28.915  39.934   7.350
 9108POPC   NC373379   9.761  10.525   5.550
 9108POPC   PO473380   9.792  10.492   5.850
 9108POPC   GL173381   9.749  10.509   6.150
 9108POPC   GL273382   9.584  10.499   6.150
 9108POPC   C1A73383   9.746  10.533   6.450
 9108POPC   D2A73384   9.749  10.482   6.750
 9108POPC   C3A73385   9.797  10.549   7.050
 9108POPC   C4A73386   9.702  10.544   7.350
 9108POPC   C1B73387   9.461  10.540   6.450
 9108POPC   C2B73388   9.541  10.551   6.750
 9108POPC   C3B73389   9.502  10.509   7.050
 9108POPC   C4B73390   9.465  10.556   7.350
 9109POPC   NC373391  41.554  37.703   5.550
 9109POPC   PO473392  41.516  37.634   5.850
 9109POPC   GL173393  41.537  37.683   6.150
 9109POPC   GL273394  41.458  37.840   6.150
 9109POPC   C1A73395  41.528  37.688   6.450
 9109POPC   D2A73396  41.521  37.672   6.750
 9109POPC   C3A73397  41.511  37.642   7.050
 9109POPC   C4A73398  41.590  37.684   7.350
 9109POPC   C1B73399  41.462  37.903   6.450
 9109POPC   C2B73400  41.441  37.901   6.750
 9109POPC   C3B73401  41.436  37.869   7.050
 9109POPC   C4B73402  41.401  37.933   7.350
 9110POPC   NC373403  16.780   9.739   5.550
 9110POPC   PO473404  16.690   9.783   5.850
 9110POPC   GL173405  16.709   9.700   6.150
 9110POPC   GL273406  16.846   9.699   6.150
 9110POPC   C1A73407  16.718   9.793   6.450
 9110POPC   D2A73408  16.776   9.776   6.750
 9110POPC   C3A73409  16.725   9.782   7.050
 9110POPC   C4A73410  16.718   9.721   7.350
 9110POPC   C1B73411  16.992   9.707   6.450
 9110POPC   C2B73412  16.932   9.659   6.750
 9110POPC   C3B73413  16.942   9.619   7.050
 9110POPC   C4B73414  16.926   9.659   7.350
 9111POPC   NC373415  21.393   6.615   5.550
 9111POPC   PO473416  21.399   6.612   5.850
 9111POPC   GL173417  21.406   6.642   6.150
 9111POPC   GL273418  21.487   6.644   6.150
 9111POPC   C1A73419  21.418   6.646   6.450
 9111POPC   D2A73420  21.393   6.673   6.750
 9111POPC   C3A73421  21.374   6.625   7.050
 9111POPC   C4A73422  21.372   6.621   7.350
 9111POPC   C1B73423  21.648   6.665   6.450
 9111POPC   C2B73424  21.598   6.642   6.750
 9111POPC   C3B73425  21.653   6.657   7.050
 9111POPC   C4B73426  21.626   6.640   7.350
 9112POPC   NC373427  10.479   1.981   5.550
 9112POPC   PO473428  10.533   1.978   5.850
 9112POPC   GL173429  10.573   1.940   6.150
 9112POPC   GL273430  10.607   1.921   6.150
 9112POPC   C1A73431  10.476   2.003   6.450
 9112POPC   D2A73432  10.536   1.986   6.750
 9112POPC   C3A73433  10.554   2.016   7.050
 9112POPC   C4A73434  10.567   1.970   7.350
 9112POPC   C1B73435  10.784   1.894   6.450
 9112POPC   C2B73436  10.730   1.877   6.750
 9112POPC   C3B73437  10.703   1.860   7.050
 9112POPC   C4B73438  10.699   1.851   7.350
 9113POPC   NC373439  39.240  27.562   5.550
 9113POPC   PO473440  39.249  27.592   5.850
 9113POPC   GL173441  39.228  27.584   6.150
 9113POPC   GL273442  39.220  27.445   6.150
 9113POPC   C1A73443  39.229  27.624   6.450
 9113POPC   D2A73444  39.196  27.638   6.750
 9113POPC   C3A73445  39.202  27.629   7.050
 9113POPC   C4A73446  39.185  27.561   7.350
 9113POPC   C1B73447  39.191  27.354   6.450
 9113POPC   C2B73448  39.145  27.314   6.750
 9113POPC   C3B73449  39.169  27.314   7.050
 9113POPC   C4B73450  39.224  27.320   7.350
 9114POPC   NC373451   5.910  30.724   5.550
 9114POPC   PO473452   5.889  30.657   5.850
 9114POPC   GL173453   5.852  30.706   6.150
 9114POPC   GL273454   5.757  30.594   6.150
 9114POPC   C1A73455   5.898  30.655   6.450
 9114POPC   D2A73456   5.871  30.740   6.750
 9114POPC   C3A73457   5.893  30.650   7.050
 9114POPC   C4A73458   5.845  30.651   7.350
 9114POPC   C1B73459   5.718  30.544   6.450
 9114POPC   C2B73460   5.664  30.537   6.750
 9114POPC   C3B73461   5.633  30.525   7.050
 9114POPC   C4B73462   5.696  30.545   7.350
 9115POPC   NC373463  25.310  18.266   5.550
 9115POPC   PO473464  25.246  18.241   5.850
 9115POPC   GL173465  25.249  18.324   6.150
 9115POPC   GL273466  25.384  18.340   6.150
 9115POPC   C1A73467  25.295  18.326   6.450
 9115POPC   D2A73468  25.251  18.326   6.750
 9115POPC   C3A73469  25.313  18.244   7.050
 9115POPC   C4A73470  25.294  18.273   7.350
 9115POPC   C1B73471  25.439  18.391   6.450
 9115POPC   C2B73472  25.419  18.449   6.750
 9115POPC   C3B73473  25.480  18.472   7.050
 9115POPC   C4B73474  25.441  18.490   7.350
 9116POPC   NC373475  15.921  41.572   5.550
 9116POPC   PO473476  15.943  41.541   5.850
 9116POPC   GL173477  15.994  41.509   6.150
 9116POPC   GL273478  15.812  41.651   6.150
 9116POPC   C1A73479  15.913  41.558   6.450
 9116POPC   D2A73480  15.953  41.584   6.750
 9116POPC   C3A73481  15.985  41.588   7.050
 9116POPC   C4A73482  16.001  41.577   7.350
 9116POPC   C1B73483  15.742  41.704   6.450
 9116POPC   C2B73484  15.703  41.645   6.750
 9116POPC   C3B73485  15.734  41.675   7.050
 9116POPC   C4B73486  15.712  41.649   7.350
 9117POPC   NC373487  33.770  25.237   5.550
 9117POPC   PO473488  33.847  25.302   5.850
 9117POPC   GL173489  33.776  25.230   6.150
 9117POPC   GL273490  33.838  25.436   6.150
 9117POPC   C1A73491  33.824  25.280   6.450
 9117POPC   D2A73492  33.787  25.301   6.750
 9117POPC   C3A73493  33.796  25.287   7.050
 9117POPC   C4A73494  33.814  25.252   7.350
 9117POPC   C1B73495  33.855  25.470   6.450
 9117POPC   C2B73496  33.844  25.476   6.750
 9117POPC   C3B73497  33.877  25.539   7.050
 9117POPC   C4B73498  33.819  25.505   7.350
 9118POPC   NC373499  12.897  14.381   5.550
 9118POPC   PO473500  12.873  14.432   5.850
 9118POPC   GL173501  12.847  14.371   6.150
 9118POPC   GL273502  12.758  14.368   6.150
 9118POPC   C1A73503  12.816  14.446   6.450
 9118POPC   D2A73504  12.886  14.432   6.750
 9118POPC   C3A73505  12.814  14.367   7.050
 9118POPC   C4A73506  12.855  14.435   7.350
 9118POPC   C1B73507  12.614  14.202   6.450
 9118POPC   C2B73508  12.689  14.240   6.750
 9118POPC   C3B73509  12.625  14.205   7.050
 9118POPC   C4B73510  12.656  14.250   7.350
 9119POPC   NC373511  26.042  39.273   5.550
 9119POPC   PO473512  26.060  39.238   5.850
 9119POPC   GL173513  26.054  39.202   6.150
 9119POPC   GL273514  26.101  39.326   6.150
 9119POPC   C1A73515  26.023  39.206   6.450
 9119POPC   D2A73516  26.037  39.269   6.750
 9119POPC   C3A73517  26.083  39.241   7.050
 9119POPC   C4A73518  25.995  39.185   7.350
 9119POPC   C1B73519  26.271  39.383   6.450
 9119POPC   C2B73520  26.235  39.418   6.750
 9119POPC   C3B73521  26.210  39.393   7.050
 9119POPC   C4B73522  26.202  39.382   7.350
 9120POPC   NC373523   4.336  26.039   5.550
 9120POPC   PO473524   4.352  26.043   5.850
 9120POPC   GL173525   4.268  26.022   6.150
 9120POPC   GL273526   4.162  26.076   6.150
 9120POPC   C1A73527   4.293  26.042   6.450
 9120POPC   D2A73528   4.364  26.074   6.750
 9120POPC   C3A73529   4.291  26.000   7.050
 9120POPC   C4A73530   4.323  26.070   7.350
 9120POPC   C1B73531   4.078  26.079   6.450
 9120POPC   C2B73532   4.026  26.089   6.750
 9120POPC   C3B73533   4.080  26.015   7.050
 9120POPC   C4B73534   4.069  26.066   7.350
 9121POPC   NC373535  17.556  44.669   5.550
 9121POPC   PO473536  17.552  44.665   5.850
 9121POPC   GL173537  17.458  44.709   6.150
 9121POPC   GL273538  17.581  44.627   6.150
 9121POPC   C1A73539  17.486  44.696   6.450
 9121POPC   D2A73540  17.543  44.624   6.750
 9121POPC   C3A73541  17.528  44.701   7.050
 9121POPC   C4A73542  17.465  44.631   7.350
 9121POPC   C1B73543  17.719  44.587   6.450
 9121POPC   C2B73544  17.799  44.570   6.750
 9121POPC   C3B73545  17.711  44.565   7.050
 9121POPC   C4B73546  17.769  44.656   7.350
 9122POPC   NC373547   5.899  27.584   5.550
 9122POPC   PO473548   5.836  27.594   5.850
 9122POPC   GL173549   5.878  27.601   6.150
 9122POPC   GL273550   5.949  27.503   6.150
 9122POPC   C1A73551   5.885  27.575   6.450
 9122POPC   D2A73552   5.865  27.549   6.750
 9122POPC   C3A73553   5.855  27.600   7.050
 9122POPC   C4A73554   5.876  27.580   7.350
 9122POPC   C1B73555   6.061  27.481   6.450
 9122POPC   C2B73556   6.044  27.486   6.750
 9122POPC   C3B73557   6.089  27.434   7.050
 9122POPC   C4B73558   6.105  27.501   7.350
 9123POPC   NC373559   1.227  19.020   5.550
 9123POPC   PO473560   1.187  19.034   5.850
 9123POPC   GL173561   1.243  19.027   6.150
 9123POPC   GL273562   1.235  19.162   6.150
 9123POPC   C1A73563   1.203  19.070   6.450
 9123POPC   D2A73564   1.247  19.040   6.750
 9123POPC   C3A73565   1.246  19.031   7.050
 9123POPC   C4A73566   1.190  19.046   7.350
 9123POPC   C1B73567   1.162  19.330   6.450
 9123POPC   C2B73568   1.209  19.313   6.750
 9123POPC   C3B73569   1.167  19.324   7.050
 9123POPC   C4B73570   1.186  19.260   7.350
 9124POPC   NC373571  12.882  41.581   5.550
 9124POPC   PO473572  12.856  41.607   5.850
 9124POPC   GL173573  12.835  41.528   6.150
 9124POPC   GL273574  12.951  41.668   6.150
 9124POPC   C1A73575  12.886  41.548   6.450
 9124POPC   D2A73576  12.826  41.580   6.750
 9124POPC   C3A73577  12.833  41.567   7.050
 9124POPC   C4A73578  12.859  41.593   7.350
 9124POPC   C1B73579  13.055  41.660   6.450
 9124POPC   C2B73580  13.010  41.705   6.750
 9124POPC   C3B73581  13.084  41.737   7.050
 9124POPC   C4B73582  13.065  41.744   7.350
 9125POPC   NC373583   7.425  44.667   5.550
 9125POPC   PO473584   7.406  44.707   5.850
 9125POPC   GL173585   7.402  44.631   6.150
 9125POPC   GL273586   7.488  44.581   6.150
 9125POPC   C1A73587   7.433  44.703   6.450
 9125POPC   D2A73588   7.435  44.702   6.750
 9125POPC   C3A73589   7.448  44.695   7.050
 9125POPC   C4A73590   7.400  44.711   7.350
 9125POPC   C1B73591   7.588  44.507   6.450
 9125POPC   C2B73592   7.592  44.431   6.750
 9125POPC   C3B73593   7.543  44.470   7.050
 9125POPC   C4B73594   7.602  44.453   7.350
 9126POPC   NC373595   5.896  26.777   5.550
 9126POPC   PO473596   5.831  26.792   5.850
 9126POPC   GL173597   5.886  26.826   6.150
 9126POPC   GL273598   5.958  26.802   6.150
 9126POPC   C1A73599   5.839  26.864   6.450
 9126POPC   D2A73600   5.866  26.861   6.750
 9126POPC   C3A73601   5.834  26.862   7.050
 9126POPC   C4A73602   5.839  26.857   7.350
 9126POPC   C1B73603   6.139  26.848   6.450
 9126POPC   C2B73604   6.121  26.880   6.750
 9126POPC   C3B73605   6.103  26.894   7.050
 9126POPC   C4B73606   6.086  26.898   7.350
 9127POPC   NC373607  29.166  34.547   5.550
 9127POPC   PO473608  29.138  34.573   5.850
 9127POPC   GL173609  29.129  34.621   6.150
 9127POPC   GL273610  29.033  34.493   6.150
 9127POPC   C1A73611  29.165  34.624   6.450
 9127POPC   D2A73612  29.108  34.526   6.750
 9127POPC   C3A73613  29.160  34.582   7.050
 9127POPC   C4A73614  29.173  34.604   7.350
 9127POPC   C1B73615  28.990  34.376   6.450
 9127POPC   C2B73616  28.940  34.411   6.750
 9127POPC   C3B73617  28.990  34.398   7.050
 9127POPC   C4B73618  28.962  34.404   7.350
 9128POPC   NC373619  17.466  14.401   5.550
 9128POPC   PO473620  17.496  14.384   5.850
 9128POPC   GL173621  17.542  14.376   6.150
 9128POPC   GL273622  17.549  14.250   6.150
 9128POPC   C1A73623  17.458  14.377   6.450
 9128POPC   D2A73624  17.528  14.374   6.750
 9128POPC   C3A73625  17.534  14.419   7.050
 9128POPC   C4A73626  17.457  14.354   7.350
 9128POPC   C1B73627  17.498  14.184   6.450
 9128POPC   C2B73628  17.542  14.187   6.750
 9128POPC   C3B73629  17.549  14.125   7.050
 9128POPC   C4B73630  17.529  14.166   7.350
 9129POPC   NC373631  42.287  39.244   5.550
 9129POPC   PO473632  42.293  39.256   5.850
 9129POPC   GL173633  42.357  39.188   6.150
 9129POPC   GL273634  42.242  39.165   6.150
 9129POPC   C1A73635  42.363  39.226   6.450
 9129POPC   D2A73636  42.355  39.201   6.750
 9129POPC   C3A73637  42.366  39.208   7.050
 9129POPC   C4A73638  42.350  39.243   7.350
 9129POPC   C1B73639  42.185  39.054   6.450
 9129POPC   C2B73640  42.148  38.999   6.750
 9129POPC   C3B73641  42.164  39.059   7.050
 9129POPC   C4B73642  42.192  39.004   7.350
 9130POPC   NC373643  22.972   2.718   5.550
 9130POPC   PO473644  22.942   2.758   5.850
 9130POPC   GL173645  22.948   2.771   6.150
 9130POPC   GL273646  22.848   2.657   6.150
 9130POPC   C1A73647  22.960   2.812   6.450
 9130POPC   D2A73648  22.979   2.751   6.750
 9130POPC   C3A73649  22.961   2.750   7.050
 9130POPC   C4A73650  22.943   2.745   7.350
 9130POPC   C1B73651  22.791   2.538   6.450
 9130POPC   C2B73652  22.779   2.592   6.750
 9130POPC   C3B73653  22.774   2.524   7.050
 9130POPC   C4B73654  22.776   2.603   7.350
 9131POPC   NC373655   1.234  18.303   5.550
 9131POPC   PO473656   1.186  18.315   5.850
 9131POPC   GL173657   1.193  18.330   6.150
 9131POPC   GL273658   1.346  18.163   6.150
 9131POPC   C1A73659   1.245  18.316   6.450
 9131POPC   D2A73660   1.241  18.254   6.750
 9131POPC   C3A73661   1.172  18.327   7.050
 9131POPC   C4A73662   1.247  18.250   7.350
 9131POPC   C1B73663   1.412  18.105   6.450
 9131POPC   C2B73664   1.363  18.148   6.750
 9131POPC   C3B73665   1.414  18.147   7.050
 9131POPC   C4B73666   1.396  18.137   7.350
 9132POPC   NC373667  33.770  22.925   5.550
 9132POPC   PO473668  33.803  22.894   5.850
 9132POPC   GL173669  33.803  22.938   6.150
 9132POPC   GL273670  33.797  23.077   6.150
 9132POPC   C1A73671  33.773  22.980   6.450
 9132POPC   D2A73672  33.794  22.953   6.750
 9132POPC   C3A73673  33.824  22.981   7.050
 9132POPC   C4A73674  33.768  22.958   7.350
 9132POPC   C1B73675  33.828  23.214   6.450
 9132POPC   C2B73676  33.829  23.185   6.750
 9132POPC   C3B73677  33.859  23.163   7.050
 9132POPC   C4B73678  33.844  23.236   7.350
 9133POPC   NC373679  39.967  13.579   5.550
 9133POPC   PO473680  39.987  13.595   5.850
 9133POPC   GL173681  39.990  13.599   6.150
 9133POPC   GL273682  40.091  13.714   6.150
 9133POPC   C1A73683  39.971  13.644   6.450
 9133POPC   D2A73684  39.997  13.603   6.750
 9133POPC   C3A73685  40.045  13.676   7.050
 9133POPC   C4A73686  40.008  13.660   7.350
 9133POPC   C1B73687  40.185  13.749   6.450
 9133POPC   C2B73688  40.213  13.768   6.750
 9133POPC   C3B73689  40.276  13.720   7.050
 9133POPC   C4B73690  40.231  13.781   7.350
 9134POPC   NC373691  32.200  42.360   5.550
 9134POPC   PO473692  32.289  42.376   5.850
 9134POPC   GL173693  32.290  42.309   6.150
 9134POPC   GL273694  32.257  42.459   6.150
 9134POPC   C1A73695  32.223  42.369   6.450
 9134POPC   D2A73696  32.199  42.296   6.750
 9134POPC   C3A73697  32.229  42.375   7.050
 9134POPC   C4A73698  32.260  42.301   7.350
 9134POPC   C1B73699  32.340  42.581   6.450
 9134POPC   C2B73700  32.282  42.584   6.750
 9134POPC   C3B73701  32.250  42.604   7.050
 9134POPC   C4B73702  32.302  42.626   7.350
 9135POPC   NC373703  34.557  13.594   5.550
 9135POPC   PO473704  34.625  13.590   5.850
 9135POPC   GL173705  34.619  13.615   6.150
 9135POPC   GL273706  34.662  13.689   6.150
 9135POPC   C1A73707  34.603  13.593   6.450
 9135POPC   D2A73708  34.568  13.643   6.750
 9135POPC   C3A73709  34.592  13.581   7.050
 9135POPC   C4A73710  34.572  13.639   7.350
 9135POPC   C1B73711  34.772  13.771   6.450
 9135POPC   C2B73712  34.787  13.793   6.750
 9135POPC   C3B73713  34.780  13.788   7.050
 9135POPC   C4B73714  34.795  13.810   7.350
 9136POPC   NC373715   4.351  32.998   5.550
 9136POPC   PO473716   4.270  33.021   5.850
 9136POPC   GL173717   4.316  33.033   6.150
 9136POPC   GL273718   4.276  33.149   6.150
 9136POPC   C1A73719   4.284  33.011   6.450
 9136POPC   D2A73720   4.343  33.008   6.750
 9136POPC   C3A73721   4.326  33.057   7.050
 9136POPC   C4A73722   4.282  33.050   7.350
 9136POPC   C1B73723   4.169  33.249   6.450
 9136POPC   C2B73724   4.173  33.217   6.750
 9136POPC   C3B73725   4.245  33.273   7.050
 9136POPC   C4B73726   4.230  33.264   7.350
 9137POPC   NC373727   1.990  15.216   5.550
 9137POPC   PO473728   2.016  15.220   5.850
 9137POPC   GL173729   2.033  15.218   6.150
 9137POPC   GL273730   1.845  15.237   6.150
 9137POPC   C1A73731   2.025  15.185   6.450
 9137POPC   D2A73732   2.038  15.195   6.750
 9137POPC   C3A73733   1.997  15.146   7.050
 9137POPC   C4A73734   1.997  15.140   7.350
 9137POPC   C1B73735   1.787  15.236   6.450
 9137POPC   C2B73736   1.697  15.186   6.750
 9137POPC   C3B73737   1.694  15.240   7.050
 9137POPC   C4B73738   1.740  15.217   7.350
 9138POPC   NC373739  15.947   7.434   5.550
 9138POPC   PO473740  15.925   7.447   5.850
 9138POPC   GL173741  15.971   7.447   6.150
 9138POPC   GL273742  16.074   7.355   6.150
 9138POPC   C1A73743  15.922   7.470   6.450
 9138POPC   D2A73744  15.978   7.447   6.750
 9138POPC   C3A73745  15.954   7.440   7.050
 9138POPC   C4A73746  15.935   7.444   7.350
 9138POPC   C1B73747  16.161   7.227   6.450
 9138POPC   C2B73748  16.133   7.215   6.750
 9138POPC   C3B73749  16.130   7.215   7.050
 9138POPC   C4B73750  16.099   7.205   7.350
 9139POPC   NC373751   5.086  25.286   5.550
 9139POPC   PO473752   5.067  25.305   5.850
 9139POPC   GL173753   5.104  25.219   6.150
 9139POPC   GL273754   5.034  25.162   6.150
 9139POPC   C1A73755   5.117  25.286   6.450
 9139POPC   D2A73756   5.050  25.226   6.750
 9139POPC   C3A73757   5.046  25.242   7.050
 9139POPC   C4A73758   5.132  25.268   7.350
 9139POPC   C1B73759   4.919  25.188   6.450
 9139POPC   C2B73760   4.833  25.142   6.750
 9139POPC   C3B73761   4.872  25.095   7.050
 9139POPC   C4B73762   4.916  25.118   7.350
 9140POPC   NC373763   2.774  26.786   5.550
 9140POPC   PO473764   2.793  26.817   5.850
 9140POPC   GL173765   2.783  26.812   6.150
 9140POPC   GL273766   2.672  26.783   6.150
 9140POPC   C1A73767   2.787  26.807   6.450
 9140POPC   D2A73768   2.796  26.821   6.750
 9140POPC   C3A73769   2.762  26.857   7.050
 9140POPC   C4A73770   2.797  26.824   7.350
 9140POPC   C1B73771   2.562  26.719   6.450
 9140POPC   C2B73772   2.567  26.779   6.750
 9140POPC   C3B73773   2.491  26.692   7.050
 9140POPC   C4B73774   2.528  26.703   7.350
 9141POPC   NC373775  25.995  15.167   5.550
 9141POPC   PO473776  26.011  15.164   5.850
 9141POPC   GL173777  26.045  15.143   6.150
 9141POPC   GL273778  25.971  15.074   6.150
 9141POPC   C1A73779  26.044  15.138   6.450
 9141POPC   D2A73780  26.019  15.214   6.750
 9141POPC   C3A73781  26.044  15.188   7.050
 9141POPC   C4A73782  26.089  15.223   7.350
 9141POPC   C1B73783  25.998  14.948   6.450
 9141POPC   C2B73784  26.022  14.892   6.750
 9141POPC   C3B73785  25.957  14.889   7.050
 9141POPC   C4B73786  25.993  14.931   7.350
 9142POPC   NC373787  40.009  22.203   5.550
 9142POPC   PO473788  40.001  22.117   5.850
 9142POPC   GL173789  40.040  22.146   6.150
 9142POPC   GL273790  40.039  22.056   6.150
 9142POPC   C1A73791  39.957  22.192   6.450
 9142POPC   D2A73792  40.028  22.169   6.750
 9142POPC   C3A73793  39.964  22.198   7.050
 9142POPC   C4A73794  40.047  22.201   7.350
 9142POPC   C1B73795  40.174  21.944   6.450
 9142POPC   C2B73796  40.171  21.954   6.750
 9142POPC   C3B73797  40.169  21.987   7.050
 9142POPC   C4B73798  40.138  21.903   7.350
 9143POPC   NC373799  14.370  33.000   5.550
 9143POPC   PO473800  14.415  33.054   5.850
 9143POPC   GL173801  14.422  32.985   6.150
 9143POPC   GL273802  14.287  32.906   6.150
 9143POPC   C1A73803  14.424  33.018   6.450
 9143POPC   D2A73804  14.363  32.977   6.750
 9143POPC   C3A73805  14.431  33.025   7.050
 9143POPC   C4A73806  14.426  32.974   7.350
 9143POPC   C1B73807  14.255  32.831   6.450
 9143POPC   C2B73808  14.232  32.855   6.750
 9143POPC   C3B73809  14.217  32.820   7.050
 9143POPC   C4B73810  14.235  32.859   7.350
 9144POPC   NC373811   8.150  36.931   5.550
 9144POPC   PO473812   8.205  36.863   5.850
 9144POPC   GL173813   8.179  36.860   6.150
 9144POPC   GL273814   8.192  36.805   6.150
 9144POPC   C1A73815   8.234  36.942   6.450
 9144POPC   D2A73816   8.169  36.940   6.750
 9144POPC   C3A73817   8.167  36.905   7.050
 9144POPC   C4A73818   8.186  36.951   7.350
 9144POPC   C1B73819   8.126  36.671   6.450
 9144POPC   C2B73820   8.112  36.695   6.750
 9144POPC   C3B73821   8.125  36.631   7.050
 9144POPC   C4B73822   8.090  36.671   7.350
 9145POPC   NC373823   2.033  44.631   5.550
 9145POPC   PO473824   1.953  44.651   5.850
 9145POPC   GL173825   2.019  44.637   6.150
 9145POPC   GL273826   2.033  44.572   6.150
 9145POPC   C1A73827   1.979  44.668   6.450
 9145POPC   D2A73828   2.030  44.683   6.750
 9145POPC   C3A73829   1.942  44.694   7.050
 9145POPC   C4A73830   2.016  44.668   7.350
 9145POPC   C1B73831   2.077  44.395   6.450
 9145POPC   C2B73832   2.040  44.423   6.750
 9145POPC   C3B73833   2.062  44.427   7.050
 9145POPC   C4B73834   2.032  44.416   7.350
 9146POPC   NC373835   7.398   4.329   5.550
 9146POPC   PO473836   7.436   4.319   5.850
 9146POPC   GL173837   7.459   4.280   6.150
 9146POPC   GL273838   7.448   4.451   6.150
 9146POPC   C1A73839   7.395   4.293   6.450
 9146POPC   D2A73840   7.437   4.352   6.750
 9146POPC   C3A73841   7.452   4.334   7.050
 9146POPC   C4A73842   7.381   4.310   7.350
 9146POPC   C1B73843   7.478   4.527   6.450
 9146POPC   C2B73844   7.460   4.566   6.750
 9146POPC   C3B73845   7.472   4.572   7.050
 9146POPC   C4B73846   7.505   4.516   7.350
 9147POPC   NC373847   0.482  28.375   5.550
 9147POPC   PO473848   0.412  28.382   5.850
 9147POPC   GL173849   0.480  28.402   6.150
 9147POPC   GL273850   0.354  28.374   6.150
 9147POPC   C1A73851   0.468  28.381   6.450
 9147POPC   D2A73852   0.404  28.343   6.750
 9147POPC   C3A73853   0.440  28.330   7.050
 9147POPC   C4A73854   0.418  28.385   7.350
 9147POPC   C1B73855   0.200  28.391   6.450
 9147POPC   C2B73856   0.225  28.318   6.750
 9147POPC   C3B73857   0.198  28.374   7.050
 9147POPC   C4B73858   0.145  28.305   7.350
 9148POPC   NC373859  39.981  26.053   5.550
 9148POPC   PO473860  40.012  26.060   5.850
 9148POPC   GL173861  40.040  26.056   6.150
 9148POPC   GL273862  39.925  25.939   6.150
 9148POPC   C1A73863  40.055  26.046   6.450
 9148POPC   D2A73864  39.981  26.033   6.750
 9148POPC   C3A73865  40.039  26.017   7.050
 9148POPC   C4A73866  39.980  26.043   7.350
 9148POPC   C1B73867  39.799  25.836   6.450
 9148POPC   C2B73868  39.847  25.858   6.750
 9148POPC   C3B73869  39.777  25.867   7.050
 9148POPC   C4B73870  39.874  25.870   7.350
 9149POPC   NC373871  23.680   7.376   5.550
 9149POPC   PO473872  23.682   7.401   5.850
 9149POPC   GL173873  23.713   7.451   6.150
 9149POPC   GL273874  23.688   7.527   6.150
 9149POPC   C1A73875  23.698   7.459   6.450
 9149POPC   D2A73876  23.675   7.391   6.750
 9149POPC   C3A73877  23.719   7.451   7.050
 9149POPC   C4A73878  23.712   7.384   7.350
 9149POPC   C1B73879  23.656   7.620   6.450
 9149POPC   C2B73880  23.610   7.631   6.750
 9149POPC   C3B73881  23.684   7.647   7.050
 9149POPC   C4B73882  23.641   7.625   7.350
 9150POPC   NC373883  22.165  20.630   5.550
 9150POPC   PO473884  22.129  20.602   5.850
 9150POPC   GL173885  22.173  20.570   6.150
 9150POPC   GL273886  22.142  20.466   6.150
 9150POPC   C1A73887  22.173  20.655   6.450
 9150POPC   D2A73888  22.132  20.601   6.750
 9150POPC   C3A73889  22.205  20.604   7.050
 9150POPC   C4A73890  22.150  20.602   7.350
 9150POPC   C1B73891  22.093  20.337   6.450
 9150POPC   C2B73892  22.144  20.361   6.750
 9150POPC   C3B73893  22.073  20.403   7.050
 9150POPC   C4B73894  22.092  20.402   7.350
 9151POPC   NC373895  26.859  44.634   5.550
 9151POPC   PO473896  26.793  44.657   5.850
 9151POPC   GL173897  26.842  44.637   6.150
 9151POPC   GL273898  26.687  44.631   6.150
 9151POPC   C1A73899  26.785  44.689   6.450
 9151POPC   D2A73900  26.805  44.623   6.750
 9151POPC   C3A73901  26.800  44.667   7.050
 9151POPC   C4A73902  26.863  44.686   7.350
 9151POPC   C1B73903  26.614  44.505   6.450
 9151POPC   C2B73904  26.591  44.532   6.750
 9151POPC   C3B73905  26.602  44.527   7.050
 9151POPC   C4B73906  26.573  44.501   7.350
 9152POPC   NC373907  30.648   8.969   5.550
 9152POPC   PO473908  30.699   9.020   5.850
 9152POPC   GL173909  30.649   8.929   6.150
 9152POPC   GL273910  30.635   9.123   6.150
 9152POPC   C1A73911  30.651   8.950   6.450
 9152POPC   D2A73912  30.692   8.977   6.750
 9152POPC   C3A73913  30.662   8.947   7.050
 9152POPC   C4A73914  30.697   9.021   7.350
 9152POPC   C1B73915  30.533   9.182   6.450
 9152POPC   C2B73916  30.615   9.208   6.750
 9152POPC   C3B73917  30.568   9.147   7.050
 9152POPC   C4B73918  30.579   9.238   7.350
 9153POPC   NC373919  19.795  38.440   5.550
 9153POPC   PO473920  19.838  38.498   5.850
 9153POPC   GL173921  19.881  38.485   6.150
 9153POPC   GL273922  19.808  38.543   6.150
 9153POPC   C1A73923  19.836  38.465   6.450
 9153POPC   D2A73924  19.827  38.501   6.750
 9153POPC   C3A73925  19.843  38.406   7.050
 9153POPC   C4A73926  19.785  38.475   7.350
 9153POPC   C1B73927  19.755  38.718   6.450
 9153POPC   C2B73928  19.731  38.712   6.750
 9153POPC   C3B73929  19.669  38.673   7.050
 9153POPC   C4B73930  19.727  38.663   7.350
 9154POPC   NC373931  29.102  20.624   5.550
 9154POPC   PO473932  29.177  20.582   5.850
 9154POPC   GL173933  29.156  20.578   6.150
 9154POPC   GL273934  29.159  20.688   6.150
 9154POPC   C1A73935  29.134  20.649   6.450
 9154POPC   D2A73936  29.194  20.616   6.750
 9154POPC   C3A73937  29.168  20.643   7.050
 9154POPC   C4A73938  29.155  20.583   7.350
 9154POPC   C1B73939  29.097  20.878   6.450
 9154POPC   C2B73940  29.153  20.889   6.750
 9154POPC   C3B73941  29.127  20.900   7.050
 9154POPC   C4B73942  29.087  20.902   7.350
 9155POPC   NC373943   8.170   2.745   5.550
 9155POPC   PO473944   8.202   2.756   5.850
 9155POPC   GL173945   8.171   2.748   6.150
 9155POPC   GL273946   8.104   2.755   6.150
 9155POPC   C1A73947   8.223   2.737   6.450
 9155POPC   D2A73948   8.151   2.814   6.750
 9155POPC   C3A73949   8.151   2.804   7.050
 9155POPC   C4A73950   8.164   2.732   7.350
 9155POPC   C1B73951   7.918   2.727   6.450
 9155POPC   C2B73952   7.989   2.785   6.750
 9155POPC   C3B73953   7.942   2.738   7.050
 9155POPC   C4B73954   7.979   2.789   7.350
 9156POPC   NC373955   4.314   2.814   5.550
 9156POPC   PO473956   4.354   2.787   5.850
 9156POPC   GL173957   4.341   2.721   6.150
 9156POPC   GL273958   4.454   2.815   6.150
 9156POPC   C1A73959   4.327   2.771   6.450
 9156POPC   D2A73960   4.278   2.755   6.750
 9156POPC   C3A73961   4.302   2.741   7.050
 9156POPC   C4A73962   4.296   2.785   7.350
 9156POPC   C1B73963   4.556   2.828   6.450
 9156POPC   C2B73964   4.528   2.833   6.750
 9156POPC   C3B73965   4.535   2.813   7.050
 9156POPC   C4B73966   4.566   2.819   7.350
 9157POPC   NC373967  11.277  37.672   5.550
 9157POPC   PO473968  11.300  37.686   5.850
 9157POPC   GL173969  11.338  37.668   6.150
 9157POPC   GL273970  11.328  37.580   6.150
 9157POPC   C1A73971  11.335  37.653   6.450
 9157POPC   D2A73972  11.327  37.653   6.750
 9157POPC   C3A73973  11.319  37.630   7.050
 9157POPC   C4A73974  11.320  37.722   7.350
 9157POPC   C1B73975  11.322  37.412   6.450
 9157POPC   C2B73976  11.347  37.477   6.750
 9157POPC   C3B73977  11.377  37.477   7.050
 9157POPC   C4B73978  11.359  37.404   7.350
 9158POPC   NC373979  12.086  43.157   5.550
 9158POPC   PO473980  12.052  43.130   5.850
 9158POPC   GL173981  12.034  43.153   6.150
 9158POPC   GL273982  12.038  43.039   6.150
 9158POPC   C1A73983  12.084  43.131   6.450
 9158POPC   D2A73984  12.119  43.092   6.750
 9158POPC   C3A73985  12.116  43.114   7.050
 9158POPC   C4A73986  12.112  43.110   7.350
 9158POPC   C1B73987  11.880  42.892   6.450
 9158POPC   C2B73988  11.868  42.884   6.750
 9158POPC   C3B73989  11.914  42.940   7.050
 9158POPC   C4B73990  11.875  42.975   7.350
 9159POPC   NC373991  38.481  41.538   5.550
 9159POPC   PO473992  38.493  41.541   5.850
 9159POPC   GL173993  38.460  41.588   6.150
 9159POPC   GL273994  38.332  41.570   6.150
 9159POPC   C1A73995  38.460  41.529   6.450
 9159POPC   D2A73996  38.407  41.566   6.750
 9159POPC   C3A73997  38.428  41.536   7.050
 9159POPC   C4A73998  38.408  41.542   7.350
 9159POPC   C1B73999  38.190  41.692   6.450
 9159POPC   C2B74000  38.230  41.709   6.750
 9159POPC   C3B74001  38.186  41.685   7.050
 9159POPC   C4B74002  38.233  41.694   7.350
 9160POPC   NC374003  23.716   0.482   5.550
 9160POPC   PO474004  23.758   0.488   5.850
 9160POPC   GL174005  23.694   0.393   6.150
 9160POPC   GL274006  23.755   0.352   6.150
 9160POPC   C1A74007  23.704   0.462   6.450
 9160POPC   D2A74008  23.686   0.398   6.750
 9160POPC   C3A74009  23.705   0.449   7.050
 9160POPC   C4A74010  23.741   0.445   7.350
 9160POPC   C1B74011  23.910   0.267   6.450
 9160POPC   C2B74012  23.930   0.313   6.750
 9160POPC   C3B74013  23.885   0.272   7.050
 9160POPC   C4B74014  23.869   0.288   7.350
 9161POPC   NC374015  29.967   9.775   5.550
 9161POPC   PO474016  29.925   9.787   5.850
 9161POPC   GL174017  29.905   9.760   6.150
 9161POPC   GL274018  29.962   9.822   6.150
 9161POPC   C1A74019  29.915   9.774   6.450
 9161POPC   D2A74020  29.945   9.713   6.750
 9161POPC   C3A74021  29.879   9.756   7.050
 9161POPC   C4A74022  29.885   9.748   7.350
 9161POPC   C1B74023  29.987  10.023   6.450
 9161POPC   C2B74024  30.042   9.969   6.750
 9161POPC   C3B74025  30.031   9.992   7.050
 9161POPC   C4B74026  30.064  10.000   7.350
 9162POPC   NC374027  39.188  20.634   5.550
 9162POPC   PO474028  39.206  20.562   5.850
 9162POPC   GL174029  39.249  20.614   6.150
 9162POPC   GL274030  39.218  20.777   6.150
 9162POPC   C1A74031  39.252  20.616   6.450
 9162POPC   D2A74032  39.239  20.659   6.750
 9162POPC   C3A74033  39.198  20.569   7.050
 9162POPC   C4A74034  39.183  20.587   7.350
 9162POPC   C1B74035  39.266  20.822   6.450
 9162POPC   C2B74036  39.282  20.883   6.750
 9162POPC   C3B74037  39.220  20.896   7.050
 9162POPC   C4B74038  39.287  20.830   7.350
 9163POPC   NC374039  29.167  12.042   5.550
 9163POPC   PO474040  29.130  12.100   5.850
 9163POPC   GL174041  29.150  12.041   6.150
 9163POPC   GL274042  29.026  11.986   6.150
 9163POPC   C1A74043  29.135  12.055   6.450
 9163POPC   D2A74044  29.104  12.115   6.750
 9163POPC   C3A74045  29.145  12.072   7.050
 9163POPC   C4A74046  29.181  12.048   7.350
 9163POPC   C1B74047  28.968  11.937   6.450
 9163POPC   C2B74048  28.930  11.904   6.750
 9163POPC   C3B74049  28.939  11.862   7.050
 9163POPC   C4B74050  28.972  11.909   7.350
 9164POPC   NC374051  14.366  28.355   5.550
 9164POPC   PO474052  14.381  28.394   5.850
 9164POPC   GL174053  14.409  28.398   6.150
 9164POPC   GL274054  14.337  28.257   6.150
 9164POPC   C1A74055  14.453  28.335   6.450
 9164POPC   D2A74056  14.375  28.339   6.750
 9164POPC   C3A74057  14.446  28.331   7.050
 9164POPC   C4A74058  14.419  28.326   7.350
 9164POPC   C1B74059  14.231  28.276   6.450
 9164POPC   C2B74060  14.212  28.289   6.750
 9164POPC   C3B74061  14.218  28.280   7.050
 9164POPC   C4B74062  14.228  28.269   7.350
 9165POPC   NC374063  13.601  13.619   5.550
 9165POPC   PO474064  13.631  13.653   5.850
 9165POPC   GL174065  13.665  13.662   6.150
 9165POPC   GL274066  13.597  13.706   6.150
 9165POPC   C1A74067  13.638  13.603   6.450
 9165POPC   D2A74068  13.619  13.606   6.750
 9165POPC   C3A74069  13.586  13.608   7.050
 9165POPC   C4A74070  13.591  13.598   7.350
 9165POPC   C1B74071  13.576  13.852   6.450
 9165POPC   C2B74072  13.503  13.846   6.750
 9165POPC   C3B74073  13.505  13.828   7.050
 9165POPC   C4B74074  13.547  13.871   7.350
 9166POPC   NC374075   0.388  36.176   5.550
 9166POPC   PO474076   0.431  36.114   5.850
 9166POPC   GL174077   0.395  36.101   6.150
 9166POPC   GL274078   0.528  36.142   6.150
 9166POPC   C1A74079   0.487  36.143   6.450
 9166POPC   D2A74080   0.455  36.121   6.750
 9166POPC   C3A74081   0.486  36.173   7.050
 9166POPC   C4A74082   0.488  36.137   7.350
 9166POPC   C1B74083   0.661  36.116   6.450
 9166POPC   C2B74084   0.715  36.184   6.750
 9166POPC   C3B74085   0.697  36.097   7.050
 9166POPC   C4B74086   0.725  36.146   7.350
 9167POPC   NC374087  32.265  25.261   5.550
 9167POPC   PO474088  32.251  25.259   5.850
 9167POPC   GL174089  32.287  25.237   6.150
 9167POPC   GL274090  32.260  25.169   6.150
 9167POPC   C1A74091  32.226  25.271   6.450
 9167POPC   D2A74092  32.247  25.284   6.750
 9167POPC   C3A74093  32.239  25.268   7.050
 9167POPC   C4A74094  32.201  25.287   7.350
 9167POPC   C1B74095  32.273  24.988   6.450
 9167POPC   C2B74096  32.294  25.045   6.750
 9167POPC   C3B74097  32.286  25.005   7.050
 9167POPC   C4B74098  32.248  25.054   7.350
 9168POPC   NC374099  18.258   4.323   5.550
 9168POPC   PO474100  18.243   4.284   5.850
 9168POPC   GL174101  18.254   4.296   6.150
 9168POPC   GL274102  18.121   4.386   6.150
 9168POPC   C1A74103  18.296   4.274   6.450
 9168POPC   D2A74104  18.317   4.358   6.750
 9168POPC   C3A74105  18.239   4.330   7.050
 9168POPC   C4A74106  18.307   4.311   7.350
 9168POPC   C1B74107  18.086   4.407   6.450
 9168POPC   C2B74108  18.021   4.441   6.750
 9168POPC   C3B74109  18.058   4.431   7.050
 9168POPC   C4B74110  18.100   4.453   7.350
 9169POPC   NC374111   2.031  39.181   5.550
 9169POPC   PO474112   2.035  39.238   5.850
 9169POPC   GL174113   1.954  39.213   6.150
 9169POPC   GL274114   2.039  39.364   6.150
 9169POPC   C1A74115   2.009  39.199   6.450
 9169POPC   D2A74116   1.945  39.261   6.750
 9169POPC   C3A74117   2.003  39.274   7.050
 9169POPC   C4A74118   2.009  39.229   7.350
 9169POPC   C1B74119   2.090  39.456   6.450
 9169POPC   C2B74120   2.103  39.454   6.750
 9169POPC   C3B74121   2.091  39.429   7.050
 9169POPC   C4B74122   2.063  39.450   7.350
 9170POPC   NC374123  34.540  37.705   5.550
 9170POPC   PO474124  34.555  37.650   5.850
 9170POPC   GL174125  34.596  37.632   6.150
 9170POPC   GL274126  34.649  37.749   6.150
 9170POPC   C1A74127  34.531  37.654   6.450
 9170POPC   D2A74128  34.602  37.651   6.750
 9170POPC   C3A74129  34.555  37.676   7.050
 9170POPC   C4A74130  34.568  37.688   7.350
 9170POPC   C1B74131  34.670  37.915   6.450
 9170POPC   C2B74132  34.690  37.863   6.750
 9170POPC   C3B74133  34.754  37.890   7.050
 9170POPC   C4B74134  34.664  37.842   7.350
 9171POPC   NC374135  18.298   5.068   5.550
 9171POPC   PO474136  18.263   5.055   5.850
 9171POPC   GL174137  18.259   5.090   6.150
 9171POPC   GL274138  18.224   5.157   6.150
 9171POPC   C1A74139  18.236   5.117   6.450
 9171POPC   D2A74140  18.328   5.066   6.750
 9171POPC   C3A74141  18.278   5.143   7.050
 9171POPC   C4A74142  18.238   5.066   7.350
 9171POPC   C1B74143  18.049   5.225   6.450
 9171POPC   C2B74144  18.045   5.241   6.750
 9171POPC   C3B74145  18.078   5.256   7.050
 9171POPC   C4B74146  18.055   5.184   7.350
 9172POPC   NC374147  37.710  12.878   5.550
 9172POPC   PO474148  37.655  12.825   5.850
 9172POPC   GL174149  37.655  12.861   6.150
 9172POPC   GL274150  37.780  12.747   6.150
 9172POPC   C1A74151  37.721  12.829   6.450
 9172POPC   D2A74152  37.654  12.810   6.750
 9172POPC   C3A74153  37.691  12.870   7.050
 9172POPC   C4A74154  37.650  12.830   7.350
 9172POPC   C1B74155  37.908  12.677   6.450
 9172POPC   C2B74156  37.842  12.708   6.750
 9172POPC   C3B74157  37.837  12.702   7.050
 9172POPC   C4B74158  37.913  12.714   7.350
 9173POPC   NC374159   9.775  29.928   5.550
 9173POPC   PO474160   9.771  29.923   5.850
 9173POPC   GL174161   9.728  29.965   6.150
 9173POPC   GL274162   9.831  29.885   6.150
 9173POPC   C1A74163   9.789  29.896   6.450
 9173POPC   D2A74164   9.782  29.936   6.750
 9173POPC   C3A74165   9.729  29.891   7.050
 9173POPC   C4A74166   9.760  29.910   7.350
 9173POPC   C1B74167  10.021  29.884   6.450
 9173POPC   C2B74168  10.023  29.904   6.750
 9173POPC   C3B74169  10.004  29.844   7.050
 9173POPC   C4B74170  10.000  29.852   7.350
 9174POPC   NC374171  43.901   1.982   5.550
 9174POPC   PO474172  43.890   2.014   5.850
 9174POPC   GL174173  43.921   1.961   6.150
 9174POPC   GL274174  43.959   2.063   6.150
 9174POPC   C1A74175  43.882   2.029   6.450
 9174POPC   D2A74176  43.916   1.956   6.750
 9174POPC   C3A74177  43.867   1.983   7.050
 9174POPC   C4A74178  43.838   1.972   7.350
 9174POPC   C1B74179  44.035   2.194   6.450
 9174POPC   C2B74180  43.982   2.250   6.750
 9174POPC   C3B74181  43.984   2.202   7.050
 9174POPC   C4B74182  43.970   2.201   7.350
 9175POPC   NC374183  36.896  24.504   5.550
 9175POPC   PO474184  36.904  24.519   5.850
 9175POPC   GL174185  36.914  24.490   6.150
 9175POPC   GL274186  36.759  24.463   6.150
 9175POPC   C1A74187  36.922  24.440   6.450
 9175POPC   D2A74188  36.907  24.520   6.750
 9175POPC   C3A74189  36.872  24.465   7.050
 9175POPC   C4A74190  36.871  24.536   7.350
 9175POPC   C1B74191  36.653  24.350   6.450
 9175POPC   C2B74192  36.674  24.332   6.750
 9175POPC   C3B74193  36.726  24.324   7.050
 9175POPC   C4B74194  36.723  24.387   7.350
 9176POPC   NC374195  36.120  18.272   5.550
 9176POPC   PO474196  36.109  18.322   5.850
 9176POPC   GL174197  36.159  18.295   6.150
 9176POPC   GL274198  36.081  18.204   6.150
 9176POPC   C1A74199  36.148  18.279   6.450
 9176POPC   D2A74200  36.123  18.301   6.750
 9176POPC   C3A74201  36.169  18.314   7.050
 9176POPC   C4A74202  36.133  18.304   7.350
 9176POPC   C1B74203  35.993  18.070   6.450
 9176POPC   C2B74204  36.014  18.039   6.750
 9176POPC   C3B74205  35.955  18.071   7.050
 9176POPC   C4B74206  36.028  18.104   7.350
 9177POPC   NC374207   5.852  18.318   5.550
 9177POPC   PO474208   5.891  18.276   5.850
 9177POPC   GL174209   5.839  18.269   6.150
 9177POPC   GL274210   6.029  18.287   6.150
 9177POPC   C1A74211   5.852  18.311   6.450
 9177POPC   D2A74212   5.885  18.269   6.750
 9177POPC   C3A74213   5.820  18.251   7.050
 9177POPC   C4A74214   5.891  18.256   7.350
 9177POPC   C1B74215   6.134  18.273   6.450
 9177POPC   C2B74216   6.130  18.342   6.750
 9177POPC   C3B74217   6.156  18.268   7.050
 9177POPC   C4B74218   6.107  18.315   7.350
 9178POPC   NC374219  19.090  20.640   5.550
 9178POPC   PO474220  19.093  20.611   5.850
 9178POPC   GL174221  19.067  20.640   6.150
 9178POPC   GL274222  19.042  20.538   6.150
 9178POPC   C1A74223  19.012  20.656   6.450
 9178POPC   D2A74224  19.108  20.579   6.750
 9178POPC   C3A74225  19.108  20.656   7.050
 9178POPC   C4A74226  19.055  20.614   7.350
 9178POPC   C1B74227  19.136  20.342   6.450
 9178POPC   C2B74228  19.082  20.355   6.750
 9178POPC   C3B74229  19.156  20.325   7.050
 9178POPC   C4B74230  19.129  20.321   7.350
 9179POPC   NC374231  31.437  24.522   5.550
 9179POPC   PO474232  31.425  24.526   5.850
 9179POPC   GL174233  31.511  24.519   6.150
 9179POPC   GL274234  31.497  24.654   6.150
 9179POPC   C1A74235  31.424  24.491   6.450
 9179POPC   D2A74236  31.446  24.450   6.750
 9179POPC   C3A74237  31.500  24.462   7.050
 9179POPC   C4A74238  31.492  24.484   7.350
 9179POPC   C1B74239  31.468  24.746   6.450
 9179POPC   C2B74240  31.445  24.733   6.750
 9179POPC   C3B74241  31.451  24.716   7.050
 9179POPC   C4B74242  31.478  24.742   7.350
 9180POPC   NC374243   5.108  15.140   5.550
 9180POPC   PO474244   5.132  15.152   5.850
 9180POPC   GL174245   5.119  15.199   6.150
 9180POPC   GL274246   4.986  15.227   6.150
 9180POPC   C1A74247   5.048  15.217   6.450
 9180POPC   D2A74248   5.109  15.175   6.750
 9180POPC   C3A74249   5.139  15.145   7.050
 9180POPC   C4A74250   5.075  15.205   7.350
 9180POPC   C1B74251   4.886  15.240   6.450
 9180POPC   C2B74252   4.828  15.262   6.750
 9180POPC   C3B74253   4.883  15.269   7.050
 9180POPC   C4B74254   4.861  15.308   7.350
 9181POPC   NC374255  20.635  21.355   5.550
 9181POPC   PO474256  20.581  21.411   5.850
 9181POPC   GL174257  20.595  21.395   6.150
 9181POPC   GL274258  20.473  21.389   6.150
 9181POPC   C1A74259  20.569  21.341   6.450
 9181POPC   D2A74260  20.566  21.422   6.750
 9181POPC   C3A74261  20.659  21.416   7.050
 9181POPC   C4A74262  20.641  21.390   7.350
 9181POPC   C1B74263  20.409  21.368   6.450
 9181POPC   C2B74264  20.341  21.385   6.750
 9181POPC   C3B74265  20.337  21.368   7.050
 9181POPC   C4B74266  20.375  21.359   7.350
 9182POPC   NC374267  15.205  32.291   5.550
 9182POPC   PO474268  15.201  32.245   5.850
 9182POPC   GL174269  15.213  32.298   6.150
 9182POPC   GL274270  15.094  32.349   6.150
 9182POPC   C1A74271  15.133  32.274   6.450
 9182POPC   D2A74272  15.189  32.240   6.750
 9182POPC   C3A74273  15.210  32.285   7.050
 9182POPC   C4A74274  15.219  32.282   7.350
 9182POPC   C1B74275  15.080  32.465   6.450
 9182POPC   C2B74276  15.080  32.528   6.750
 9182POPC   C3B74277  15.091  32.446   7.050
 9182POPC   C4B74278  15.083  32.443   7.350
 9183POPC   NC374279  20.645  14.379   5.550
 9183POPC   PO474280  20.621  14.445   5.850
 9183POPC   GL174281  20.647  14.428   6.150
 9183POPC   GL274282  20.491  14.334   6.150
 9183POPC   C1A74283  20.613  14.365   6.450
 9183POPC   D2A74284  20.616  14.440   6.750
 9183POPC   C3A74285  20.598  14.356   7.050
 9183POPC   C4A74286  20.643  14.364   7.350
 9183POPC   C1B74287  20.403  14.338   6.450
 9183POPC   C2B74288  20.423  14.280   6.750
 9183POPC   C3B74289  20.398  14.309   7.050
 9183POPC   C4B74290  20.409  14.340   7.350
 9184POPC   NC374291  29.942  15.175   5.550
 9184POPC   PO474292  29.908  15.178   5.850
 9184POPC   GL174293  29.886  15.178   6.150
 9184POPC   GL274294  30.005  15.249   6.150
 9184POPC   C1A74295  29.920  15.150   6.450
 9184POPC   D2A74296  29.965  15.163   6.750
 9184POPC   C3A74297  29.922  15.218   7.050
 9184POPC   C4A74298  29.967  15.174   7.350
 9184POPC   C1B74299  30.121  15.362   6.450
 9184POPC   C2B74300  30.081  15.319   6.750
 9184POPC   C3B74301  30.096  15.385   7.050
 9184POPC   C4B74302  30.126  15.343   7.350
 9185POPC   NC374303  14.420  19.027   5.550
 9185POPC   PO474304  14.366  19.089   5.850
 9185POPC   GL174305  14.437  19.081   6.150
 9185POPC   GL274306  14.325  19.224   6.150
 9185POPC   C1A74307  14.408  19.036   6.450
 9185POPC   D2A74308  14.429  19.029   6.750
 9185POPC   C3A74309  14.381  19.015   7.050
 9185POPC   C4A74310  14.393  19.027   7.350
 9185POPC   C1B74311  14.389  19.339   6.450
 9185POPC   C2B74312  14.350  19.289   6.750
 9185POPC   C3B74313  14.307  19.276   7.050
 9185POPC   C4B74314  14.393  19.268   7.350
 9186POPC   NC374315  13.673  18.306   5.550
 9186POPC   PO474316  13.601  18.245   5.850
 9186POPC   GL174317  13.586  18.264   6.150
 9186POPC   GL274318  13.680  18.244   6.150
 9186POPC   C1A74319  13.624  18.279   6.450
 9186POPC   D2A74320  13.617  18.287   6.750
 9186POPC   C3A74321  13.641  18.320   7.050
 9186POPC   C4A74322  13.626  18.240   7.350
 9186POPC   C1B74323  13.816  18.183   6.450
 9186POPC   C2B74324  13.802  18.107   6.750
 9186POPC   C3B74325  13.817  18.164   7.050
 9186POPC   C4B74326  13.829  18.116   7.350
 9187POPC   NC374327  36.124  37.643   5.550
 9187POPC   PO474328  36.087  37.711   5.850
 9187POPC   GL174329  36.112  37.679   6.150
 9187POPC   GL274330  36.209  37.647   6.150
 9187POPC   C1A74331  36.153  37.714   6.450
 9187POPC   D2A74332  36.135  37.710   6.750
 9187POPC   C3A74333  36.164  37.691   7.050
 9187POPC   C4A74334  36.132  37.646   7.350
 9187POPC   C1B74335  36.380  37.634   6.450
 9187POPC   C2B74336  36.321  37.548   6.750
 9187POPC   C3B74337  36.385  37.577   7.050
 9187POPC   C4B74338  36.371  37.620   7.350
 9188POPC   NC374339  10.572  30.678   5.550
 9188POPC   PO474340  10.569  30.745   5.850
 9188POPC   GL174341  10.544  30.724   6.150
 9188POPC   GL274342  10.584  30.588   6.150
 9188POPC   C1A74343  10.481  30.676   6.450
 9188POPC   D2A74344  10.503  30.677   6.750
 9188POPC   C3A74345  10.495  30.687   7.050
 9188POPC   C4A74346  10.483  30.674   7.350
 9188POPC   C1B74347  10.752  30.483   6.450
 9188POPC   C2B74348  10.729  30.531   6.750
 9188POPC   C3B74349  10.701  30.485   7.050
 9188POPC   C4B74350  10.738  30.525   7.350
 9189POPC   NC374351  29.110  15.954   5.550
 9189POPC   PO474352  29.151  16.002   5.850
 9189POPC   GL174353  29.099  15.994   6.150
 9189POPC   GL274354  29.203  16.040   6.150
 9189POPC   C1A74355  29.137  15.978   6.450
 9189POPC   D2A74356  29.174  15.944   6.750
 9189POPC   C3A74357  29.191  15.921   7.050
 9189POPC   C4A74358  29.154  15.972   7.350
 9189POPC   C1B74359  29.365  16.111   6.450
 9189POPC   C2B74360  29.303  16.100   6.750
 9189POPC   C3B74361  29.397  16.096   7.050
 9189POPC   C4B74362  29.347  16.142   7.350
 9190POPC   NC374363  19.043  17.490   5.550
 9190POPC   PO474364  19.050  17.552   5.850
 9190POPC   GL174365  19.068  17.471   6.150
 9190POPC   GL274366  19.149  17.608   6.150
 9190POPC   C1A74367  19.026  17.541   6.450
 9190POPC   D2A74368  19.100  17.474   6.750
 9190POPC   C3A74369  19.093  17.550   7.050
 9190POPC   C4A74370  19.094  17.556   7.350
 9190POPC   C1B74371  19.279  17.677   6.450
 9190POPC   C2B74372  19.242  17.703   6.750
 9190POPC   C3B74373  19.234  17.651   7.050
 9190POPC   C4B74374  19.276  17.692   7.350
 9191POPC   NC374375  10.544  19.875   5.550
 9191POPC   PO474376  10.505  19.809   5.850
 9191POPC   GL174377  10.477  19.829   6.150
 9191POPC   GL274378  10.412  19.745   6.150
 9191POPC   C1A74379  10.496  19.876   6.450
 9191POPC   D2A74380  10.522  19.853   6.750
 9191POPC   C3A74381  10.478  19.831   7.050
 9191POPC   C4A74382  10.488  19.836   7.350
 9191POPC   C1B74383  10.359  19.651   6.450
 9191POPC   C2B74384  10.351  19.637   6.750
 9191POPC   C3B74385  10.364  19.672   7.050
 9191POPC   C4B74386  10.384  19.591   7.350
 9192POPC   NC374387  26.774  13.607   5.550
 9192POPC   PO474388  26.848  13.603   5.850
 9192POPC   GL174389  26.839  13.658   6.150
 9192POPC   GL274390  26.770  13.771   6.150
 9192POPC   C1A74391  26.770  13.599   6.450
 9192POPC   D2A74392  26.850  13.603   6.750
 9192POPC   C3A74393  26.842  13.587   7.050
 9192POPC   C4A74394  26.858  13.597   7.350
 9192POPC   C1B74395  26.686  13.810   6.450
 9192POPC   C2B74396  26.674  13.832   6.750
 9192POPC   C3B74397  26.706  13.800   7.050
 9192POPC   C4B74398  26.685  13.784   7.350
 9193POPC   NC374399  44.664   8.210   5.550
 9193POPC   PO474400  44.625   8.180   5.850
 9193POPC   GL174401  44.645   8.193   6.150
 9193POPC   GL274402  44.781   8.206   6.150
 9193POPC   C1A74403  44.690   8.240   6.450
 9193POPC   D2A74404  44.660   8.229   6.750
 9193POPC   C3A74405  44.641   8.221   7.050
 9193POPC   C4A74406  44.677   8.240   7.350
 9193POPC   C1B74407  44.950   8.149   6.450
 9193POPC   C2B74408  44.942   8.103   6.750
 9193POPC   C3B74409  44.920   8.177   7.050
 9193POPC   C4B74410  44.902   8.188   7.350
 9194POPC   NC374411  44.698  18.275   5.550
 9194POPC   PO474412  44.672  18.253   5.850
 9194POPC   GL174413  44.647  18.331   6.150
 9194POPC   GL274414  44.544  18.163   6.150
 9194POPC   C1A74415  44.644  18.258   6.450
 9194POPC   D2A74416  44.679  18.327   6.750
 9194POPC   C3A74417  44.659  18.305   7.050
 9194POPC   C4A74418  44.677  18.302   7.350
 9194POPC   C1B74419  44.457  18.090   6.450
 9194POPC   C2B74420  44.438  18.084   6.750
 9194POPC   C3B74421  44.470  18.151   7.050
 9194POPC   C4B74422  44.450  18.073   7.350
 9195POPC   NC374423  31.443  13.655   5.550
 9195POPC   PO474424  31.520  13.664   5.850
 9195POPC   GL174425  31.508  13.609   6.150
 9195POPC   GL274426  31.398  13.570   6.150
 9195POPC   C1A74427  31.477  13.654   6.450
 9195POPC   D2A74428  31.500  13.611   6.750
 9195POPC   C3A74429  31.517  13.608   7.050
 9195POPC   C4A74430  31.453  13.620   7.350
 9195POPC   C1B74431  31.237  13.506   6.450
 9195POPC   C2B74432  31.281  13.529   6.750
 9195POPC   C3B74433  31.255  13.536   7.050
 9195POPC   C4B74434  31.276  13.555   7.350
 9196POPC   NC374435   1.226  29.106   5.550
 9196POPC   PO474436   1.224  29.131   5.850
 9196POPC   GL174437   1.255  29.114   6.150
 9196POPC   GL274438   1.210  28.990   6.150
 9196POPC   C1A74439   1.255  29.177   6.450
 9196POPC   D2A74440   1.237  29.184   6.750
 9196POPC   C3A74441   1.249  29.161   7.050
 9196POPC   C4A74442   1.208  29.164   7.350
 9196POPC   C1B74443   1.259  28.905   6.450
 9196POPC   C2B74444   1.271  28.858   6.750
 9196POPC   C3B74445   1.267  28.950   7.050
 9196POPC   C4B74446   1.273  28.951   7.350
 9197POPC   NC374447   0.476  12.052   5.550
 9197POPC   PO474448   0.474  12.077   5.850
 9197POPC   GL174449   0.407  12.068   6.150
 9197POPC   GL274450   0.413  12.197   6.150
 9197POPC   C1A74451   0.396  12.067   6.450
 9197POPC   D2A74452   0.407  12.032   6.750
 9197POPC   C3A74453   0.470  12.076   7.050
 9197POPC   C4A74454   0.422  12.078   7.350
 9197POPC   C1B74455   0.509  12.331   6.450
 9197POPC   C2B74456   0.457  12.363   6.750
 9197POPC   C3B74457   0.444  12.357   7.050
 9197POPC   C4B74458   0.516  12.297   7.350
 9198POPC   NC374459  29.096  24.470   5.550
 9198POPC   PO474460  29.167  24.467   5.850
 9198POPC   GL174461  29.185  24.533   6.150
 9198POPC   GL274462  29.124  24.364   6.150
 9198POPC   C1A74463  29.136  24.455   6.450
 9198POPC   D2A74464  29.145  24.529   6.750
 9198POPC   C3A74465  29.172  24.502   7.050
 9198POPC   C4A74466  29.132  24.467   7.350
 9198POPC   C1B74467  29.110  24.280   6.450
 9198POPC   C2B74468  29.059  24.293   6.750
 9198POPC   C3B74469  29.129  24.248   7.050
 9198POPC   C4B74470  29.090  24.209   7.350
 9199POPC   NC374471  12.055  12.812   5.550
 9199POPC   PO474472  12.036  12.848   5.850
 9199POPC   GL174473  12.096  12.861   6.150
 9199POPC   GL274474  12.156  12.863   6.150
 9199POPC   C1A74475  12.122  12.890   6.450
 9199POPC   D2A74476  12.119  12.806   6.750
 9199POPC   C3A74477  12.031  12.829   7.050
 9199POPC   C4A74478  12.031  12.824   7.350
 9199POPC   C1B74479  12.303  12.872   6.450
 9199POPC   C2B74480  12.292  12.828   6.750
 9199POPC   C3B74481  12.337  12.850   7.050
 9199POPC   C4B74482  12.312  12.784   7.350
 9200POPC   NC374483  40.010  39.200   5.550
 9200POPC   PO474484  40.028  39.275   5.850
 9200POPC   GL174485  39.986  39.206   6.150
 9200POPC   GL274486  40.058  39.097   6.150
 9200POPC   C1A74487  39.968  39.216   6.450
 9200POPC   D2A74488  39.970  39.222   6.750
 9200POPC   C3A74489  40.015  39.223   7.050
 9200POPC   C4A74490  40.033  39.267   7.350
 9200POPC   C1B74491  40.224  39.008   6.450
 9200POPC   C2B74492  40.185  39.063   6.750
 9200POPC   C3B74493  40.186  39.019   7.050
 9200POPC   C4B74494  40.176  39.034   7.350
 9201POPC   NC374495   8.211  42.354   5.550
 9201POPC   PO474496   8.229  42.299   5.850
 9201POPC   GL174497   8.208  42.308   6.150
 9201POPC   GL274498   8.289  42.416   6.150
 9201POPC   C1A74499   8.149  42.295   6.450
 9201POPC   D2A74500   8.243  42.369   6.750
 9201POPC   C3A74501   8.203  42.331   7.050
 9201POPC   C4A74502   8.189  42.348   7.350
 9201POPC   C1B74503   8.462  42.445   6.450
 9201POPC   C2B74504   8.465  42.423   6.750
 9201POPC   C3B74505   8.411  42.457   7.050
 9201POPC   C4B74506   8.442  42.450   7.350
 9202POPC   NC374507  22.948  30.661   5.550
 9202POPC   PO474508  22.963  30.711   5.850
 9202POPC   GL174509  22.938  30.707   6.150
 9202POPC   GL274510  22.866  30.645   6.150
 9202POPC   C1A74511  22.918  30.741   6.450
 9202POPC   D2A74512  22.890  30.664   6.750
 9202POPC   C3A74513  22.979  30.737   7.050
 9202POPC   C4A74514  22.985  30.698   7.350
 9202POPC   C1B74515  22.730  30.627   6.450
 9202POPC   C2B74516  22.711  30.552   6.750
 9202POPC   C3B74517  22.737  30.592   7.050
 9202POPC   C4B74518  22.712  30.561   7.350
 9203POPC   NC374519   8.197  23.718   5.550
 9203POPC   PO474520   8.220  23.738   5.850
 9203POPC   GL174521   8.245  23.758   6.150
 9203POPC   GL274522   8.104  23.729   6.150
 9203POPC   C1A74523   8.218  23.669   6.450
 9203POPC   D2A74524   8.218  23.676   6.750
 9203POPC   C3A74525   8.167  23.711   7.050
 9203POPC   C4A74526   8.175  23.692   7.350
 9203POPC   C1B74527   7.955  23.874   6.450
 9203POPC   C2B74528   7.998  23.854   6.750
 9203POPC   C3B74529   7.931  23.806   7.050
 9203POPC   C4B74530   8.002  23.878   7.350
 9204POPC   NC374531  32.207  26.771   5.550
 9204POPC   PO474532  32.208  26.821   5.850
 9204POPC   GL174533  32.271  26.772   6.150
 9204POPC   GL274534  32.103  26.808   6.150
 9204POPC   C1A74535  32.284  26.821   6.450
 9204POPC   D2A74536  32.203  26.804   6.750
 9204POPC   C3A74537  32.267  26.833   7.050
 9204POPC   C4A74538  32.235  26.816   7.350
 9204POPC   C1B74539  32.038  26.781   6.450
 9204POPC   C2B74540  32.048  26.811   6.750
 9204POPC   C3B74541  31.995  26.789   7.050
 9204POPC   C4B74542  31.987  26.776   7.350
 9205POPC   NC374543  32.249  20.626   5.550
 9205POPC   PO474544  32.222  20.571   5.850
 9205POPC   GL174545  32.267  20.603   6.150
 9205POPC   GL274546  32.160  20.569   6.150
 9205POPC   C1A74547  32.203  20.627   6.450
 9205POPC   D2A74548  32.227  20.586   6.750
 9205POPC   C3A74549  32.277  20.651   7.050
 9205POPC   C4A74550  32.273  20.571   7.350
 9205POPC   C1B74551  31.991  20.530   6.450
 9205POPC   C2B74552  32.036  20.570   6.750
 9205POPC   C3B74553  32.033  20.592   7.050
 9205POPC   C4B74554  31.994  20.525   7.350
 9206POPC   NC374555   9.003   6.605   5.550
 9206POPC   PO474556   8.938   6.630   5.850
 9206POPC   GL174557   8.955   6.652   6.150
 9206POPC   GL274558   8.899   6.792   6.150
 9206POPC   C1A74559   8.983   6.639   6.450
 9206POPC   D2A74560   9.004   6.632   6.750
 9206POPC   C3A74561   8.984   6.615   7.050
 9206POPC   C4A74562   8.974   6.671   7.350
 9206POPC   C1B74563   8.855   6.920   6.450
 9206POPC   C2B74564   8.915   6.850   6.750
 9206POPC   C3B74565   8.863   6.871   7.050
 9206POPC   C4B74566   8.940   6.918   7.350
 9207POPC   NC374567  12.108  22.935   5.550
 9207POPC   PO474568  12.095  22.889   5.850
 9207POPC   GL174569  12.034  22.903   6.150
 9207POPC   GL274570  12.159  22.908   6.150
 9207POPC   C1A74571  12.090  22.891   6.450
 9207POPC   D2A74572  12.074  22.979   6.750
 9207POPC   C3A74573  12.052  22.901   7.050
 9207POPC   C4A74574  12.083  22.929   7.350
 9207POPC   C1B74575  12.259  22.821   6.450
 9207POPC   C2B74576  12.248  22.838   6.750
 9207POPC   C3B74577  12.262  22.753   7.050
 9207POPC   C4B74578  12.306  22.838   7.350
 9208POPC   NC374579  31.427  36.946   5.550
 9208POPC   PO474580  31.517  36.868   5.850
 9208POPC   GL174581  31.515  36.921   6.150
 9208POPC   GL274582  31.402  36.955   6.150
 9208POPC   C1A74583  31.464  36.939   6.450
 9208POPC   D2A74584  31.438  36.912   6.750
 9208POPC   C3A74585  31.466  36.915   7.050
 9208POPC   C4A74586  31.493  36.934   7.350
 9208POPC   C1B74587  31.288  37.089   6.450
 9208POPC   C2B74588  31.319  37.050   6.750
 9208POPC   C3B74589  31.302  37.061   7.050
 9208POPC   C4B74590  31.304  37.082   7.350
 9209POPC   NC374591  19.836   5.077   5.550
 9209POPC   PO474592  19.837   5.049   5.850
 9209POPC   GL174593  19.799   5.078   6.150
 9209POPC   GL274594  19.723   5.059   6.150
 9209POPC   C1A74595  19.805   5.110   6.450
 9209POPC   D2A74596  19.842   5.073   6.750
 9209POPC   C3A74597  19.808   5.090   7.050
 9209POPC   C4A74598  19.843   5.124   7.350
 9209POPC   C1B74599  19.552   5.133   6.450
 9209POPC   C2B74600  19.608   5.140   6.750
 9209POPC   C3B74601  19.609   5.097   7.050
 9209POPC   C4B74602  19.554   5.116   7.350
 9210POPC   NC374603  15.927  19.870   5.550
 9210POPC   PO474604  15.981  19.858   5.850
 9210POPC   GL174605  15.961  19.828   6.150
 9210POPC   GL274606  15.815  19.900   6.150
 9210POPC   C1A74607  15.916  19.820   6.450
 9210POPC   D2A74608  15.983  19.830   6.750
 9210POPC   C3A74609  15.935  19.873   7.050
 9210POPC   C4A74610  15.933  19.812   7.350
 9210POPC   C1B74611  15.728  19.953   6.450
 9210POPC   C2B74612  15.737  19.915   6.750
 9210POPC   C3B74613  15.705  19.900   7.050
 9210POPC   C4B74614  15.702  19.950   7.350
 9211POPC   NC374615  35.399  33.004   5.550
 9211POPC   PO474616  35.317  33.017   5.850
 9211POPC   GL174617  35.397  33.052   6.150
 9211POPC   GL274618  35.259  33.143   6.150
 9211POPC   C1A74619  35.399  33.022   6.450
 9211POPC   D2A74620  35.307  33.017   6.750
 9211POPC   C3A74621  35.312  32.999   7.050
 9211POPC   C4A74622  35.331  33.061   7.350
 9211POPC   C1B74623  35.202  33.201   6.450
 9211POPC   C2B74624  35.219  33.193   6.750
 9211POPC   C3B74625  35.219  33.208   7.050
 9211POPC   C4B74626  35.203  33.188   7.350
 9212POPC   NC374627   0.449  39.973   5.550
 9212POPC   PO474628   0.463  40.050   5.850
 9212POPC   GL174629   0.460  40.033   6.150
 9212POPC   GL274630   0.340  40.149   6.150
 9212POPC   C1A74631   0.403  39.993   6.450
 9212POPC   D2A74632   0.476  39.960   6.750
 9212POPC   C3A74633   0.414  39.987   7.050
 9212POPC   C4A74634   0.482  39.997   7.350
 9212POPC   C1B74635   0.309  40.164   6.450
 9212POPC   C2B74636   0.312  40.200   6.750
 9212POPC   C3B74637   0.268  40.238   7.050
 9212POPC   C4B74638   0.296  40.206   7.350
 9213POPC   NC374639  40.023  15.931   5.550
 9213POPC   PO474640  39.991  15.970   5.850
 9213POPC   GL174641  40.051  15.976   6.150
 9213POPC   GL274642  39.879  15.960   6.150
 9213POPC   C1A74643  40.004  15.941   6.450
 9213POPC   D2A74644  40.014  15.951   6.750
 9213POPC   C3A74645  40.015  15.948   7.050
 9213POPC   C4A74646  40.021  15.934   7.350
 9213POPC   C1B74647  39.751  16.029   6.450
 9213POPC   C2B74648  39.747  15.980   6.750
 9213POPC   C3B74649  39.740  15.969   7.050
 9213POPC   C4B74650  39.776  16.056   7.350
 9214POPC   NC374651  16.693  15.172   5.550
 9214POPC   PO474652  16.687  15.212   5.850
 9214POPC   GL174653  16.684  15.146   6.150
 9214POPC   GL274654  16.755  15.095   6.150
 9214POPC   C1A74655  16.682  15.195   6.450
 9214POPC   D2A74656  16.742  15.137   6.750
 9214POPC   C3A74657  16.774  15.145   7.050
 9214POPC   C4A74658  16.772  15.176   7.350
 9214POPC   C1B74659  16.858  14.981   6.450
 9214POPC   C2B74660  16.904  14.921   6.750
 9214POPC   C3B74661  16.844  14.923   7.050
 9214POPC   C4B74662  16.817  14.960   7.350
 9215POPC   NC374663  18.326   2.777   5.550
 9215POPC   PO474664  18.317   2.801   5.850
 9215POPC   GL174665  18.269   2.759   6.150
 9215POPC   GL274666  18.324   2.908   6.150
 9215POPC   C1A74667  18.262   2.807   6.450
 9215POPC   D2A74668  18.332   2.795   6.750
 9215POPC   C3A74669  18.301   2.768   7.050
 9215POPC   C4A74670  18.250   2.793   7.350
 9215POPC   C1B74671  18.441   2.974   6.450
 9215POPC   C2B74672  18.461   2.994   6.750
 9215POPC   C3B74673  18.402   3.006   7.050
 9215POPC   C4B74674  18.399   2.927   7.350
 9216POPC   NC374675   2.016  29.927   5.550
 9216POPC   PO474676   1.956  29.961   5.850
 9216POPC   GL174677   2.032  29.946   6.150
 9216POPC   GL274678   2.114  29.843   6.150
 9216POPC   C1A74679   2.028  29.947   6.450
 9216POPC   D2A74680   2.000  29.888   6.750
 9216POPC   C3A74681   2.031  29.954   7.050
 9216POPC   C4A74682   2.033  29.953   7.350
 9216POPC   C1B74683   2.222  29.814   6.450
 9216POPC   C2B74684   2.222  29.769   6.750
 9216POPC   C3B74685   2.161  29.736   7.050
 9216POPC   C4B74686   2.149  29.807   7.350
 9217POPC   NC374687  18.272  42.307   5.550
 9217POPC   PO474688  18.284  42.381   5.850
 9217POPC   GL174689  18.332  42.286   6.150
 9217POPC   GL274690  18.331  42.191   6.150
 9217POPC   C1A74691  18.262  42.338   6.450
 9217POPC   D2A74692  18.287  42.344   6.750
 9217POPC   C3A74693  18.277  42.356   7.050
 9217POPC   C4A74694  18.256  42.319   7.350
 9217POPC   C1B74695  18.339  42.142   6.450
 9217POPC   C2B74696  18.419  42.124   6.750
 9217POPC   C3B74697  18.381  42.118   7.050
 9217POPC   C4B74698  18.356  42.134   7.350
 9218POPC   NC374699  24.516  13.648   5.550
 9218POPC   PO474700  24.447  13.633   5.850
 9218POPC   GL174701  24.525  13.584   6.150
 9218POPC   GL274702  24.518  13.738   6.150
 9218POPC   C1A74703  24.505  13.585   6.450
 9218POPC   D2A74704  24.460  13.598   6.750
 9218POPC   C3A74705  24.521  13.659   7.050
 9218POPC   C4A74706  24.467  13.650   7.350
 9218POPC   C1B74707  24.627  13.857   6.450
 9218POPC   C2B74708  24.620  13.870   6.750
 9218POPC   C3B74709  24.641  13.831   7.050
 9218POPC   C4B74710  24.677  13.813   7.350
 9219POPC   NC374711  23.667   5.912   5.550
 9219POPC   PO474712  23.731   5.839   5.850
 9219POPC   GL174713  23.675   5.875   6.150
 9219POPC   GL274714  23.869   5.778   6.150
 9219POPC   C1A74715  23.753   5.910   6.450
 9219POPC   D2A74716  23.681   5.851   6.750
 9219POPC   C3A74717  23.691   5.874   7.050
 9219POPC   C4A74718  23.669   5.880   7.350
 9219POPC   C1B74719  23.942   5.767   6.450
 9219POPC   C2B74720  23.955   5.735   6.750
 9219POPC   C3B74721  23.911   5.731   7.050
 9219POPC   C4B74722  23.949   5.750   7.350
 9220POPC   NC374723   1.222  29.957   5.550
 9220POPC   PO474724   1.191  29.948   5.850
 9220POPC   GL174725   1.228  29.958   6.150
 9220POPC   GL274726   1.284  29.860   6.150
 9220POPC   C1A74727   1.238  29.886   6.450
 9220POPC   D2A74728   1.185  29.893   6.750
 9220POPC   C3A74729   1.200  29.890   7.050
 9220POPC   C4A74730   1.239  29.959   7.350
 9220POPC   C1B74731   1.439  29.827   6.450
 9220POPC   C2B74732   1.488  29.856   6.750
 9220POPC   C3B74733   1.485  29.791   7.050
 9220POPC   C4B74734   1.464  29.766   7.350
 9221POPC   NC374735  16.682  32.975   5.550
 9221POPC   PO474736  16.708  33.013   5.850
 9221POPC   GL174737  16.735  33.002   6.150
 9221POPC   GL274738  16.885  33.006   6.150
 9221POPC   C1A74739  16.693  33.004   6.450
 9221POPC   D2A74740  16.762  33.065   6.750
 9221POPC   C3A74741  16.748  33.048   7.050
 9221POPC   C4A74742  16.724  32.990   7.350
 9221POPC   C1B74743  17.003  32.990   6.450
 9221POPC   C2B74744  16.951  32.999   6.750
 9221POPC   C3B74745  17.001  32.989   7.050
 9221POPC   C4B74746  16.964  33.021   7.350
 9222POPC   NC374747  30.704  39.272   5.550
 9222POPC   PO474748  30.675  39.215   5.850
 9222POPC   GL174749  30.667  39.202   6.150
 9222POPC   GL274750  30.683  39.111   6.150
 9222POPC   C1A74751  30.673  39.189   6.450
 9222POPC   D2A74752  30.740  39.266   6.750
 9222POPC   C3A74753  30.715  39.186   7.050
 9222POPC   C4A74754  30.669  39.241   7.350
 9222POPC   C1B74755  30.670  38.995   6.450
 9222POPC   C2B74756  30.620  39.009   6.750
 9222POPC   C3B74757  30.709  38.963   7.050
 9222POPC   C4B74758  30.655  38.974   7.350
 9223POPC   NC374759  14.392  14.427   5.550
 9223POPC   PO474760  14.411  14.354   5.850
 9223POPC   GL174761  14.450  14.370   6.150
 9223POPC   GL274762  14.274  14.512   6.150
 9223POPC   C1A74763  14.379  14.357   6.450
 9223POPC   D2A74764  14.417  14.450   6.750
 9223POPC   C3A74765  14.395  14.375   7.050
 9223POPC   C4A74766  14.401  14.384   7.350
 9223POPC   C1B74767  14.193  14.561   6.450
 9223POPC   C2B74768  14.202  14.629   6.750
 9223POPC   C3B74769  14.249  14.560   7.050
 9223POPC   C4B74770  14.227  14.622   7.350
 9224POPC   NC374771   0.452  22.161   5.550
 9224POPC   PO474772   0.443  22.156   5.850
 9224POPC   GL174773   0.401  22.156   6.150
 9224POPC   GL274774   0.510  22.185   6.150
 9224POPC   C1A74775   0.416  22.142   6.450
 9224POPC   D2A74776   0.435  22.143   6.750
 9224POPC   C3A74777   0.467  22.185   7.050
 9224POPC   C4A74778   0.435  22.114   7.350
 9224POPC   C1B74779   0.699  22.276   6.450
 9224POPC   C2B74780   0.686  22.329   6.750
 9224POPC   C3B74781   0.702  22.318   7.050
 9224POPC   C4B74782   0.687  22.304   7.350
 9225POPC   NC374783  37.692  25.281   5.550
 9225POPC   PO474784  37.663  25.283   5.850
 9225POPC   GL174785  37.632  25.275   6.150
 9225POPC   GL274786  37.662  25.157   6.150
 9225POPC   C1A74787  37.682  25.299   6.450
 9225POPC   D2A74788  37.682  25.282   6.750
 9225POPC   C3A74789  37.691  25.276   7.050
 9225POPC   C4A74790  37.715  25.218   7.350
 9225POPC   C1B74791  37.555  25.030   6.450
 9225POPC   C2B74792  37.557  25.042   6.750
 9225POPC   C3B74793  37.597  25.084   7.050
 9225POPC   C4B74794  37.549  25.072   7.350
 9226POPC   NC374795  16.762  25.280   5.550
 9226POPC   PO474796  16.720  25.274   5.850
 9226POPC   GL174797  16.761  25.272   6.150
 9226POPC   GL274798  16.836  25.353   6.150
 9226POPC   C1A74799  16.771  25.217   6.450
 9226POPC   D2A74800  16.744  25.225   6.750
 9226POPC   C3A74801  16.688  25.260   7.050
 9226POPC   C4A74802  16.725  25.272   7.350
 9226POPC   C1B74803  16.922  25.449   6.450
 9226POPC   C2B74804  16.864  25.482   6.750
 9226POPC   C3B74805  16.832  25.490   7.050
 9226POPC   C4B74806  16.890  25.482   7.350
 9227POPC   NC374807  31.509  10.512   5.550
 9227POPC   PO474808  31.473  10.543   5.850
 9227POPC   GL174809  31.482  10.536   6.150
 9227POPC   GL274810  31.570  10.642   6.150
 9227POPC   C1A74811  31.470  10.501   6.450
 9227POPC   D2A74812  31.432  10.492   6.750
 9227POPC   C3A74813  31.466  10.542   7.050
 9227POPC   C4A74814  31.459  10.498   7.350
 9227POPC   C1B74815  31.647  10.673   6.450
 9227POPC   C2B74816  31.641  10.675   6.750
 9227POPC   C3B74817  31.622  10.698   7.050
 9227POPC   C4B74818  31.637  10.680   7.350
 9228POPC   NC374819  13.580   5.844   5.550
 9228POPC   PO474820  13.646   5.834   5.850
 9228POPC   GL174821  13.598   5.909   6.150
 9228POPC   GL274822  13.585   5.964   6.150
 9228POPC   C1A74823  13.593   5.878   6.450
 9228POPC   D2A74824  13.677   5.919   6.750
 9228POPC   C3A74825  13.632   5.840   7.050
 9228POPC   C4A74826  13.638   5.880   7.350
 9228POPC   C1B74827  13.529   6.129   6.450
 9228POPC   C2B74828  13.515   6.125   6.750
 9228POPC   C3B74829  13.568   6.095   7.050
 9228POPC   C4B74830  13.613   6.160   7.350
 9229POPC   NC374831  20.604   9.713   5.550
 9229POPC   PO474832  20.626   9.798   5.850
 9229POPC   GL174833  20.610   9.749   6.150
 9229POPC   GL274834  20.687   9.788   6.150
 9229POPC   C1A74835  20.619   9.714   6.450
 9229POPC   D2A74836  20.620   9.763   6.750
 9229POPC   C3A74837  20.631   9.726   7.050
 9229POPC   C4A74838  20.601   9.759   7.350
 9229POPC   C1B74839  20.807   9.890   6.450
 9229POPC   C2B74840  20.891   9.853   6.750
 9229POPC   C3B74841  20.817   9.832   7.050
 9229POPC   C4B74842  20.844   9.846   7.350
 9230POPC   NC374843  27.559  22.186   5.550
 9230POPC   PO474844  27.545  22.127   5.850
 9230POPC   GL174845  27.582  22.124   6.150
 9230POPC   GL274846  27.486  22.265   6.150
 9230POPC   C1A74847  27.638  22.151   6.450
 9230POPC   D2A74848  27.631  22.113   6.750
 9230POPC   C3A74849  27.571  22.169   7.050
 9230POPC   C4A74850  27.558  22.153   7.350
 9230POPC   C1B74851  27.468  22.399   6.450
 9230POPC   C2B74852  27.485  22.362   6.750
 9230POPC   C3B74853  27.432  22.341   7.050
 9230POPC   C4B74854  27.484  22.332   7.350
 9231POPC   NC374855   2.752   5.124   5.550
 9231POPC   PO474856   2.724   5.051   5.850
 9231POPC   GL174857   2.732   5.051   6.150
 9231POPC   GL274858   2.860   5.202   6.150
 9231POPC   C1A74859   2.735   5.050   6.450
 9231POPC   D2A74860   2.772   5.141   6.750
 9231POPC   C3A74861   2.807   5.096   7.050
 9231POPC   C4A74862   2.716   5.095   7.350
 9231POPC   C1B74863   2.970   5.255   6.450
 9231POPC   C2B74864   2.989   5.269   6.750
 9231POPC   C3B74865   2.945   5.193   7.050
 9231POPC   C4B74866   2.944   5.275   7.350
 9232POPC   NC374867  20.626  33.807   5.550
 9232POPC   PO474868  20.589  33.753   5.850
 9232POPC   GL174869  20.586  33.759   6.150
 9232POPC   GL274870  20.718  33.655   6.150
 9232POPC   C1A74871  20.565  33.770   6.450
 9232POPC   D2A74872  20.615  33.848   6.750
 9232POPC   C3A74873  20.609  33.844   7.050
 9232POPC   C4A74874  20.643  33.760   7.350
 9232POPC   C1B74875  20.705  33.619   6.450
 9232POPC   C2B74876  20.766  33.589   6.750
 9232POPC   C3B74877  20.758  33.612   7.050
 9232POPC   C4B74878  20.784  33.605   7.350
 9233POPC   NC374879   5.871  32.253   5.550
 9233POPC   PO474880   5.916  32.219   5.850
 9233POPC   GL174881   5.901  32.228   6.150
 9233POPC   GL274882   5.946  32.348   6.150
 9233POPC   C1A74883   5.912  32.288   6.450
 9233POPC   D2A74884   5.861  32.200   6.750
 9233POPC   C3A74885   5.897  32.214   7.050
 9233POPC   C4A74886   5.879  32.246   7.350
 9233POPC   C1B74887   6.097  32.404   6.450
 9233POPC   C2B74888   6.078  32.370   6.750
 9233POPC   C3B74889   6.085  32.352   7.050
 9233POPC   C4B74890   6.041  32.397   7.350
 9234POPC   NC374891   0.394  19.824   5.550
 9234POPC   PO474892   0.405  19.810   5.850
 9234POPC   GL174893   0.463  19.840   6.150
 9234POPC   GL274894   0.471  19.734   6.150
 9234POPC   C1A74895   0.393  19.790   6.450
 9234POPC   D2A74896   0.461  19.812   6.750
 9234POPC   C3A74897   0.486  19.841   7.050
 9234POPC   C4A74898   0.438  19.829   7.350
 9234POPC   C1B74899   0.440  19.610   6.450
 9234POPC   C2B74900   0.443  19.556   6.750
 9234POPC   C3B74901   0.385  19.612   7.050
 9234POPC   C4B74902   0.405  19.592   7.350
 9235POPC   NC374903  16.002  29.126   5.550
 9235POPC   PO474904  16.001  29.129   5.850
 9235POPC   GL174905  15.962  29.128   6.150
 9235POPC   GL274906  15.881  29.226   6.150
 9235POPC   C1A74907  15.912  29.130   6.450
 9235POPC   D2A74908  15.919  29.150   6.750
 9235POPC   C3A74909  15.913  29.179   7.050
 9235POPC   C4A74910  15.927  29.121   7.350
 9235POPC   C1B74911  15.764  29.276   6.450
 9235POPC   C2B74912  15.740  29.213   6.750
 9235POPC   C3B74913  15.768  29.244   7.050
 9235POPC   C4B74914  15.754  29.273   7.350
 9236POPC   NC374915  37.668  42.311   5.550
 9236POPC   PO474916  37.706  42.288   5.850
 9236POPC   GL174917  37.675  42.342   6.150
 9236POPC   GL274918  37.687  42.504   6.150
 9236POPC   C1A74919  37.707  42.359   6.450
 9236POPC   D2A74920  37.667  42.344   6.750
 9236POPC   C3A74921  37.729  42.320   7.050
 9236POPC   C4A74922  37.685  42.346   7.350
 9236POPC   C1B74923  37.611  42.572   6.450
 9236POPC   C2B74924  37.599  42.528   6.750
 9236POPC   C3B74925  37.650  42.573   7.050
 9236POPC   C4B74926  37.575  42.579   7.350
 9237POPC   NC374927  19.017  26.065   5.550
 9237POPC   PO474928  19.048  26.069   5.850
 9237POPC   GL174929  19.079  26.088   6.150
 9237POPC   GL274930  19.137  26.058   6.150
 9237POPC   C1A74931  19.095  26.033   6.450
 9237POPC   D2A74932  19.089  26.036   6.750
 9237POPC   C3A74933  19.031  25.995   7.050
 9237POPC   C4A74934  19.048  25.999   7.350
 9237POPC   C1B74935  19.283  26.043   6.450
 9237POPC   C2B74936  19.326  26.089   6.750
 9237POPC   C3B74937  19.277  26.130   7.050
 9237POPC   C4B74938  19.271  26.080   7.350
 9238POPC   NC374939  23.704  31.454   5.550
 9238POPC   PO474940  23.693  31.429   5.850
 9238POPC   GL174941  23.666  31.438   6.150
 9238POPC   GL274942  23.788  31.431   6.150
 9238POPC   C1A74943  23.700  31.467   6.450
 9238POPC   D2A74944  23.686  31.425   6.750
 9238POPC   C3A74945  23.747  31.478   7.050
 9238POPC   C4A74946  23.684  31.516   7.350
 9238POPC   C1B74947  23.922  31.353   6.450
 9238POPC   C2B74948  23.893  31.307   6.750
 9238POPC   C3B74949  23.979  31.308   7.050
 9238POPC   C4B74950  23.959  31.375   7.350
 9239POPC   NC374951   8.200  26.057   5.550
 9239POPC   PO474952   8.246  26.049   5.850
 9239POPC   GL174953   8.188  26.053   6.150
 9239POPC   GL274954   8.232  25.906   6.150
 9239POPC   C1A74955   8.237  26.055   6.450
 9239POPC   D2A74956   8.152  26.052   6.750
 9239POPC   C3A74957   8.176  26.083   7.050
 9239POPC   C4A74958   8.234  26.017   7.350
 9239POPC   C1B74959   8.206  25.754   6.450
 9239POPC   C2B74960   8.196  25.775   6.750
 9239POPC   C3B74961   8.234  25.835   7.050
 9239POPC   C4B74962   8.202  25.785   7.350
 9240POPC   NC374963  12.811   8.940   5.550
 9240POPC   PO474964  12.851   8.969   5.850
 9240POPC   GL174965  12.870   8.945   6.150
 9240POPC   GL274966  12.754   8.947   6.150
 9240POPC   C1A74967  12.844   8.934   6.450
 9240POPC   D2A74968  12.866   9.004   6.750
 9240POPC   C3A74969  12.876   9.017   7.050
 9240POPC   C4A74970  12.861   8.958   7.350
 9240POPC   C1B74971  12.587   8.933   6.450
 9240POPC   C2B74972  12.630   8.922   6.750
 9240POPC   C3B74973  12.572   8.869   7.050
 9240POPC   C4B74974  12.587   8.920   7.350
 9241POPC   NC374975  28.335  30.730   5.550
 9241POPC   PO474976  28.401  30.711   5.850
 9241POPC   GL174977  28.326  30.653   6.150
 9241POPC   GL274978  28.316  30.557   6.150
 9241POPC   C1A74979  28.378  30.649   6.450
 9241POPC   D2A74980  28.375  30.708   6.750
 9241POPC   C3A74981  28.343  30.741   7.050
 9241POPC   C4A74982  28.336  30.686   7.350
 9241POPC   C1B74983  28.224  30.537   6.450
 9241POPC   C2B74984  28.266  30.486   6.750
 9241POPC   C3B74985  28.185  30.451   7.050
 9241POPC   C4B74986  28.268  30.513   7.350
 9242POPC   NC374987  30.660   5.124   5.550
 9242POPC   PO474988  30.728   5.054   5.850
 9242POPC   GL174989  30.663   5.076   6.150
 9242POPC   GL274990  30.780   5.122   6.150
 9242POPC   C1A74991  30.725   5.129   6.450
 9242POPC   D2A74992  30.650   5.054   6.750
 9242POPC   C3A74993  30.697   5.099   7.050
 9242POPC   C4A74994  30.707   5.076   7.350
 9242POPC   C1B74995  30.908   5.167   6.450
 9242POPC   C2B74996  30.951   5.172   6.750
 9242POPC   C3B74997  30.935   5.130   7.050
 9242POPC   C4B74998  30.938   5.181   7.350
 9243POPC   NC374999  19.081  10.491   5.550
 9243POPC   PO475000  19.034  10.554   5.850
 9243POPC   GL175001  19.068  10.490   6.150
 9243POPC   GL275002  19.201  10.597   6.150
 9243POPC   C1A75003  19.089  10.558   6.450
 9243POPC   D2A75004  19.033  10.522   6.750
 9243POPC   C3A75005  19.016  10.555   7.050
 9243POPC   C4A75006  19.078  10.517   7.350
 9243POPC   C1B75007  19.283  10.649   6.450
 9243POPC   C2B75008  19.307  10.576   6.750
 9243POPC   C3B75009  19.257  10.664   7.050
 9243POPC   C4B75010  19.279  10.662   7.350
 9244POPC   NC375011  19.021  35.377   5.550
 9244POPC   PO475012  19.102  35.305   5.850
 9244POPC   GL175013  19.029  35.352   6.150
 9244POPC   GL275014  18.929  35.464   6.150
 9244POPC   C1A75015  19.060  35.319   6.450
 9244POPC   D2A75016  19.067  35.373   6.750
 9244POPC   C3A75017  19.040  35.374   7.050
 9244POPC   C4A75018  19.085  35.352   7.350
 9244POPC   C1B75019  18.872  35.565   6.450
 9244POPC   C2B75020  18.857  35.544   6.750
 9244POPC   C3B75021  18.845  35.573   7.050
 9244POPC   C4B75022  18.912  35.491   7.350
 9245POPC   NC375023   5.131  40.798   5.550
 9245POPC   PO475024   5.113  40.750   5.850
 9245POPC   GL175025   5.096  40.792   6.150
 9245POPC   GL275026   5.139  40.683   6.150
 9245POPC   C1A75027   5.058  40.738   6.450
 9245POPC   D2A75028   5.118  40.803   6.750
 9245POPC   C3A75029   5.067  40.820   7.050
 9245POPC   C4A75030   5.123  40.797   7.350
 9245POPC   C1B75031   5.270  40.610   6.450
 9245POPC   C2B75032   5.253  40.628   6.750
 9245POPC   C3B75033   5.200  40.589   7.050
 9245POPC   C4B75034   5.236  40.610   7.350
 9246POPC   NC375035  42.354   8.202   5.550
 9246POPC   PO475036  42.351   8.168   5.850
 9246POPC   GL175037  42.295   8.156   6.150
 9246POPC   GL275038  42.442   8.305   6.150
 9246POPC   C1A75039  42.308   8.158   6.450
 9246POPC   D2A75040  42.367   8.171   6.750
 9246POPC   C3A75041  42.334   8.225   7.050
 9246POPC   C4A75042  42.324   8.209   7.350
 9246POPC   C1B75043  42.489   8.387   6.450
 9246POPC   C2B75044  42.512   8.335   6.750
 9246POPC   C3B75045  42.499   8.329   7.050
 9246POPC   C4B75046  42.541   8.308   7.350
 9247POPC   NC375047  29.180   4.334   5.550
 9247POPC   PO475048  29.110   4.279   5.850
 9247POPC   GL175049  29.101   4.297   6.150
 9247POPC   GL275050  29.066   4.428   6.150
 9247POPC   C1A75051  29.171   4.278   6.450
 9247POPC   D2A75052  29.150   4.359   6.750
 9247POPC   C3A75053  29.167   4.269   7.050
 9247POPC   C4A75054  29.180   4.308   7.350
 9247POPC   C1B75055  28.960   4.504   6.450
 9247POPC   C2B75056  28.914   4.430   6.750
 9247POPC   C3B75057  28.942   4.425   7.050
 9247POPC   C4B75058  28.932   4.508   7.350
 9248POPC   NC375059  39.966  29.900   5.550
 9248POPC   PO475060  40.004  29.969   5.850
 9248POPC   GL175061  39.980  29.896   6.150
 9248POPC   GL275062  39.926  29.994   6.150
 9248POPC   C1A75063  40.031  29.917   6.450
 9248POPC   D2A75064  40.043  29.956   6.750
 9248POPC   C3A75065  40.009  29.906   7.050
 9248POPC   C4A75066  39.990  29.888   7.350
 9248POPC   C1B75067  39.737  30.048   6.450
 9248POPC   C2B75068  39.737  29.997   6.750
 9248POPC   C3B75069  39.825  29.966   7.050
 9248POPC   C4B75070  39.736  30.018   7.350
 9249POPC   NC375071  42.303  26.088   5.550
 9249POPC   PO475072  42.313  26.038   5.850
 9249POPC   GL175073  42.341  26.016   6.150
 9249POPC   GL275074  42.354  26.176   6.150
 9249POPC   C1A75075  42.324  26.067   6.450
 9249POPC   D2A75076  42.319  26.063   6.750
 9249POPC   C3A75077  42.290  26.077   7.050
 9249POPC   C4A75078  42.363  26.033   7.350
 9249POPC   C1B75079  42.437  26.229   6.450
 9249POPC   C2B75080  42.432  26.230   6.750
 9249POPC   C3B75081  42.417  26.265   7.050
 9249POPC   C4B75082  42.486  26.244   7.350
 9250POPC   NC375083  20.633  42.384   5.550
 9250POPC   PO475084  20.564  42.318   5.850
 9250POPC   GL175085  20.571  42.317   6.150
 9250POPC   GL275086  20.782  42.341   6.150
 9250POPC   C1A75087  20.586  42.343   6.450
 9250POPC   D2A75088  20.602  42.312   6.750
 9250POPC   C3A75089  20.564  42.370   7.050
 9250POPC   C4A75090  20.565  42.380   7.350
 9250POPC   C1B75091  20.826  42.282   6.450
 9250POPC   C2B75092  20.889  42.273   6.750
 9250POPC   C3B75093  20.865  42.301   7.050
 9250POPC   C4B75094  20.840  42.356   7.350
 9251POPC   NC375095   5.112  19.830   5.550
 9251POPC   PO475096   5.079  19.785   5.850
 9251POPC   GL175097   5.100  19.835   6.150
 9251POPC   GL275098   5.008  19.729   6.150
 9251POPC   C1A75099   5.075  19.802   6.450
 9251POPC   D2A75100   5.116  19.867   6.750
 9251POPC   C3A75101   5.068  19.794   7.050
 9251POPC   C4A75102   5.110  19.846   7.350
 9251POPC   C1B75103   4.888  19.660   6.450
 9251POPC   C2B75104   4.967  19.691   6.750
 9251POPC   C3B75105   4.941  19.602   7.050
 9251POPC   C4B75106   4.908  19.627   7.350
 9252POPC   NC375107  15.986   5.883   5.550
 9252POPC   PO475108  15.918   5.885   5.850
 9252POPC   GL175109  15.996   5.886   6.150
 9252POPC   GL275110  15.853   5.889   6.150
 9252POPC   C1A75111  15.938   5.822   6.450
 9252POPC   D2A75112  15.993   5.842   6.750
 9252POPC   C3A75113  15.930   5.902   7.050
 9252POPC   C4A75114  15.949   5.863   7.350
 9252POPC   C1B75115  15.703   5.973   6.450
 9252POPC   C2B75116  15.717   6.055   6.750
 9252POPC   C3B75117  15.737   5.975   7.050
 9252POPC   C4B75118  15.735   6.047   7.350
 9253POPC   NC375119  10.477  32.238   5.550
 9253POPC   PO475120  10.502  32.223   5.850
 9253POPC   GL175121  10.568  32.218   6.150
 9253POPC   GL275122  10.412  32.209   6.150
 9253POPC   C1A75123  10.502  32.210   6.450
 9253POPC   D2A75124  10.527  32.214   6.750
 9253POPC   C3A75125  10.538  32.234   7.050
 9253POPC   C4A75126  10.486  32.280   7.350
 9253POPC   C1B75127  10.307  32.283   6.450
 9253POPC   C2B75128  10.229  32.215   6.750
 9253POPC   C3B75129  10.237  32.272   7.050
 9253POPC   C4B75130  10.276  32.310   7.350
 9254POPC   NC375131  44.636  40.746   5.550
 9254POPC   PO475132  44.668  40.797   5.850
 9254POPC   GL175133  44.620  40.784   6.150
 9254POPC   GL275134  44.798  40.743   6.150
 9254POPC   C1A75135  44.673  40.803   6.450
 9254POPC   D2A75136  44.689  40.811   6.750
 9254POPC   C3A75137  44.615  40.775   7.050
 9254POPC   C4A75138  44.615  40.766   7.350
 9254POPC   C1B75139  44.860  40.695   6.450
 9254POPC   C2B75140  44.878  40.758   6.750
 9254POPC   C3B75141  44.938  40.692   7.050
 9254POPC   C4B75142  44.900  40.737   7.350
 9255POPC   NC375143  39.270  32.227   5.550
 9255POPC   PO475144  39.260  32.274   5.850
 9255POPC   GL175145  39.217  32.261   6.150
 9255POPC   GL275146  39.384  32.325   6.150
 9255POPC   C1A75147  39.224  32.264   6.450
 9255POPC   D2A75148  39.203  32.215   6.750
 9255POPC   C3A75149  39.261  32.224   7.050
 9255POPC   C4A75150  39.186  32.228   7.350
 9255POPC   C1B75151  39.423  32.299   6.450
 9255POPC   C2B75152  39.481  32.302   6.750
 9255POPC   C3B75153  39.500  32.350   7.050
 9255POPC   C4B75154  39.514  32.349   7.350
 9256POPC   NC375155   4.295  31.510   5.550
 9256POPC   PO475156   4.271  31.491   5.850
 9256POPC   GL175157   4.332  31.464   6.150
 9256POPC   GL275158   4.200  31.448   6.150
 9256POPC   C1A75159   4.316  31.507   6.450
 9256POPC   D2A75160   4.351  31.461   6.750
 9256POPC   C3A75161   4.358  31.491   7.050
 9256POPC   C4A75162   4.271  31.457   7.350
 9256POPC   C1B75163   4.106  31.365   6.450
 9256POPC   C2B75164   4.060  31.449   6.750
 9256POPC   C3B75165   4.085  31.461   7.050
 9256POPC   C4B75166   4.067  31.455   7.350
 9257POPC   NC375167  39.275  26.852   5.550
 9257POPC   PO475168  39.272  26.834   5.850
 9257POPC   GL175169  39.254  26.848   6.150
 9257POPC   GL275170  39.166  26.715   6.150
 9257POPC   C1A75171  39.202  26.778   6.450
 9257POPC   D2A75172  39.202  26.793   6.750
 9257POPC   C3A75173  39.191  26.852   7.050
 9257POPC   C4A75174  39.204  26.850   7.350
 9257POPC   C1B75175  39.115  26.548   6.450
 9257POPC   C2B75176  39.174  26.602   6.750
 9257POPC   C3B75177  39.148  26.565   7.050
 9257POPC   C4B75178  39.106  26.592   7.350
 9258POPC   NC375179  23.705  43.078   5.550
 9258POPC   PO475180  23.706  43.121   5.850
 9258POPC   GL175181  23.705  43.069   6.150
 9258POPC   GL275182  23.748  43.229   6.150
 9258POPC   C1A75183  23.719  43.122   6.450
 9258POPC   D2A75184  23.692  43.072   6.750
 9258POPC   C3A75185  23.685  43.114   7.050
 9258POPC   C4A75186  23.744  43.084   7.350
 9258POPC   C1B75187  23.745  43.392   6.450
 9258POPC   C2B75188  23.740  43.374   6.750
 9258POPC   C3B75189  23.715  43.352   7.050
 9258POPC   C4B75190  23.671  43.337   7.350
 9259POPC   NC375191   3.503  25.296   5.550
 9259POPC   PO475192   3.510  25.271   5.850
 9259POPC   GL175193   3.508  25.251   6.150
 9259POPC   GL275194   3.514  25.340   6.150
 9259POPC   C1A75195   3.516  25.265   6.450
 9259POPC   D2A75196   3.516  25.291   6.750
 9259POPC   C3A75197   3.568  25.271   7.050
 9259POPC   C4A75198   3.586  25.235   7.350
 9259POPC   C1B75199   3.381  25.469   6.450
 9259POPC   C2B75200   3.354  25.439   6.750
 9259POPC   C3B75201   3.357  25.426   7.050
 9259POPC   C4B75202   3.414  25.464   7.350
 9260POPC   NC375203  44.616  24.497   5.550
 9260POPC   PO475204  44.669  24.494   5.850
 9260POPC   GL175205  44.706  24.472   6.150
 9260POPC   GL275206  44.793  24.605   6.150
 9260POPC   C1A75207  44.698  24.532   6.450
 9260POPC   D2A75208  44.688  24.468   6.750
 9260POPC   C3A75209  44.702  24.534   7.050
 9260POPC   C4A75210  44.619  24.520   7.350
 9260POPC   C1B75211  44.849  24.677   6.450
 9260POPC   C2B75212  44.861  24.614   6.750
 9260POPC   C3B75213  44.816  24.632   7.050
 9260POPC   C4B75214  44.815  24.611   7.350
 9261POPC   NC375215  10.563  42.354   5.550
 9261POPC   PO475216  10.533  42.336   5.850
 9261POPC   GL175217  10.492  42.367   6.150
 9261POPC   GL275218  10.438  42.322   6.150
 9261POPC   C1A75219  10.531  42.342   6.450
 9261POPC   D2A75220  10.537  42.313   6.750
 9261POPC   C3A75221  10.518  42.295   7.050
 9261POPC   C4A75222  10.568  42.370   7.350
 9261POPC   C1B75223  10.289  42.220   6.450
 9261POPC   C2B75224  10.290  42.201   6.750
 9261POPC   C3B75225  10.332  42.261   7.050
 9261POPC   C4B75226  10.334  42.245   7.350
 9262POPC   NC375227   1.189  22.935   5.550
 9262POPC   PO475228   1.183  22.977   5.850
 9262POPC   GL175229   1.232  22.906   6.150
 9262POPC   GL275230   1.084  22.957   6.150
 9262POPC   C1A75231   1.210  22.917   6.450
 9262POPC   D2A75232   1.249  22.972   6.750
 9262POPC   C3A75233   1.190  22.987   7.050
 9262POPC   C4A75234   1.228  22.909   7.350
 9262POPC   C1B75235   0.974  22.893   6.450
 9262POPC   C2B75236   0.998  22.864   6.750
 9262POPC   C3B75237   1.005  22.877   7.050
 9262POPC   C4B75238   1.012  22.876   7.350
 9263POPC   NC375239  40.790   2.004   5.550
 9263POPC   PO475240  40.775   2.037   5.850
 9263POPC   GL175241  40.772   1.988   6.150
 9263POPC   GL275242  40.663   1.951   6.150
 9263POPC   C1A75243  40.767   2.031   6.450
 9263POPC   D2A75244  40.780   1.967   6.750
 9263POPC   C3A75245  40.802   1.956   7.050
 9263POPC   C4A75246  40.810   1.968   7.350
 9263POPC   C1B75247  40.534   1.899   6.450
 9263POPC   C2B75248  40.592   1.955   6.750
 9263POPC   C3B75249  40.526   1.905   7.050
 9263POPC   C4B75250  40.567   1.915   7.350
 9264POPC   NC375251  22.166  21.420   5.550
 9264POPC   PO475252  22.154  21.359   5.850
 9264POPC   GL175253  22.177  21.336   6.150
 9264POPC   GL275254  22.171  21.230   6.150
 9264POPC   C1A75255  22.133  21.430   6.450
 9264POPC   D2A75256  22.149  21.342   6.750
 9264POPC   C3A75257  22.206  21.410   7.050
 9264POPC   C4A75258  22.204  21.429   7.350
 9264POPC   C1B75259  22.150  21.096   6.450
 9264POPC   C2B75260  22.190  21.158   6.750
 9264POPC   C3B75261  22.181  21.150   7.050
 9264POPC   C4B75262  22.160  21.128   7.350
 9265POPC   NC375263  26.839   1.980   5.550
 9265POPC   PO475264  26.849   1.974   5.850
 9265POPC   GL175265  26.859   1.983   6.150
 9265POPC   GL275266  26.965   2.011   6.150
 9265POPC   C1A75267  26.830   2.033   6.450
 9265POPC   D2A75268  26.793   1.945   6.750
 9265POPC   C3A75269  26.805   2.016   7.050
 9265POPC   C4A75270  26.796   1.975   7.350
 9265POPC   C1B75271  27.077   2.068   6.450
 9265POPC   C2B75272  27.034   2.133   6.750
 9265POPC   C3B75273  27.016   2.121   7.050
 9265POPC   C4B75274  27.002   2.053   7.350
 9266POPC   NC375275  17.522   5.887   5.550
 9266POPC   PO475276  17.533   5.840   5.850
 9266POPC   GL175277  17.529   5.914   6.150
 9266POPC   GL275278  17.676   5.826   6.150
 9266POPC   C1A75279  17.541   5.909   6.450
 9266POPC   D2A75280  17.480   5.884   6.750
 9266POPC   C3A75281  17.491   5.898   7.050
 9266POPC   C4A75282  17.508   5.865   7.350
 9266POPC   C1B75283  17.764   5.838   6.450
 9266POPC   C2B75284  17.798   5.776   6.750
 9266POPC   C3B75285  17.760   5.791   7.050
 9266POPC   C4B75286  17.785   5.812   7.350
 9267POPC   NC375287  35.314  32.243   5.550
 9267POPC   PO475288  35.381  32.272   5.850
 9267POPC   GL175289  35.311  32.287   6.150
 9267POPC   GL275290  35.331  32.353   6.150
 9267POPC   C1A75291  35.373  32.256   6.450
 9267POPC   D2A75292  35.304  32.268   6.750
 9267POPC   C3A75293  35.386  32.257   7.050
 9267POPC   C4A75294  35.359  32.222   7.350
 9267POPC   C1B75295  35.260  32.485   6.450
 9267POPC   C2B75296  35.262  32.471   6.750
 9267POPC   C3B75297  35.332  32.446   7.050
 9267POPC   C4B75298  35.355  32.480   7.350
 9268POPC   NC375299   1.207   1.970   5.550
 9268POPC   PO475300   1.179   1.961   5.850
 9268POPC   GL175301   1.207   2.035   6.150
 9268POPC   GL275302   1.203   1.912   6.150
 9268POPC   C1A75303   1.225   1.981   6.450
 9268POPC   D2A75304   1.233   1.966   6.750
 9268POPC   C3A75305   1.246   1.941   7.050
 9268POPC   C4A75306   1.239   1.957   7.350
 9268POPC   C1B75307   1.266   1.718   6.450
 9268POPC   C2B75308   1.228   1.758   6.750
 9268POPC   C3B75309   1.242   1.709   7.050
 9268POPC   C4B75310   1.252   1.700   7.350
 9269POPC   NC375311  16.722  22.984   5.550
 9269POPC   PO475312  16.759  22.956   5.850
 9269POPC   GL175313  16.756  22.966   6.150
 9269POPC   GL275314  16.756  23.024   6.150
 9269POPC   C1A75315  16.773  22.957   6.450
 9269POPC   D2A75316  16.768  22.928   6.750
 9269POPC   C3A75317  16.739  22.904   7.050
 9269POPC   C4A75318  16.755  22.914   7.350
 9269POPC   C1B75319  16.638  23.216   6.450
 9269POPC   C2B75320  16.679  23.222   6.750
 9269POPC   C3B75321  16.667  23.157   7.050
 9269POPC   C4B75322  16.705  23.153   7.350
 9270POPC   NC375323  19.063  34.535   5.550
 9270POPC   PO475324  19.028  34.622   5.850
 9270POPC   GL175325  19.070  34.571   6.150
 9270POPC   GL275326  18.926  34.598   6.150
 9270POPC   C1A75327  19.024  34.541   6.450
 9270POPC   D2A75328  19.048  34.548   6.750
 9270POPC   C3A75329  19.015  34.616   7.050
 9270POPC   C4A75330  19.019  34.566   7.350
 9270POPC   C1B75331  18.796  34.731   6.450
 9270POPC   C2B75332  18.794  34.684   6.750
 9270POPC   C3B75333  18.824  34.659   7.050
 9270POPC   C4B75334  18.830  34.648   7.350
 9271POPC   NC375335   3.583   8.953   5.550
 9271POPC   PO475336   3.535   8.977   5.850
 9271POPC   GL175337   3.515   8.965   6.150
 9271POPC   GL275338   3.614   9.078   6.150
 9271POPC   C1A75339   3.584   8.970   6.450
 9271POPC   D2A75340   3.505   8.996   6.750
 9271POPC   C3A75341   3.520   8.942   7.050
 9271POPC   C4A75342   3.510   8.982   7.350
 9271POPC   C1B75343   3.621   9.183   6.450
 9271POPC   C2B75344   3.629   9.196   6.750
 9271POPC   C3B75345   3.620   9.208   7.050
 9271POPC   C4B75346   3.717   9.237   7.350
 9272POPC   NC375347   3.537  14.436   5.550
 9272POPC   PO475348   3.525  14.388   5.850
 9272POPC   GL175349   3.558  14.443   6.150
 9272POPC   GL275350   3.442  14.339   6.150
 9272POPC   C1A75351   3.541  14.415   6.450
 9272POPC   D2A75352   3.578  14.358   6.750
 9272POPC   C3A75353   3.526  14.400   7.050
 9272POPC   C4A75354   3.534  14.440   7.350
 9272POPC   C1B75355   3.399  14.195   6.450
 9272POPC   C2B75356   3.335  14.240   6.750
 9272POPC   C3B75357   3.332  14.241   7.050
 9272POPC   C4B75358   3.368  14.250   7.350
 9273POPC   NC375359  16.769  26.032   5.550
 9273POPC   PO475360  16.705  26.072   5.850
 9273POPC   GL175361  16.691  26.044   6.150
 9273POPC   GL275362  16.844  26.123   6.150
 9273POPC   C1A75363  16.727  26.039   6.450
 9273POPC   D2A75364  16.757  26.056   6.750
 9273POPC   C3A75365  16.741  26.055   7.050
 9273POPC   C4A75366  16.755  26.049   7.350
 9273POPC   C1B75367  16.913  26.214   6.450
 9273POPC   C2B75368  16.918  26.217   6.750
 9273POPC   C3B75369  16.899  26.240   7.050
 9273POPC   C4B75370  16.872  26.206   7.350
 9274POPC   NC375371  43.932  22.163   5.550
 9274POPC   PO475372  43.849  22.163   5.850
 9274POPC   GL175373  43.862  22.172   6.150
 9274POPC   GL275374  43.773  22.231   6.150
 9274POPC   C1A75375  43.896  22.151   6.450
 9274POPC   D2A75376  43.936  22.141   6.750
 9274POPC   C3A75377  43.874  22.184   7.050
 9274POPC   C4A75378  43.856  22.133   7.350
 9274POPC   C1B75379  43.642  22.234   6.450
 9274POPC   C2B75380  43.670  22.266   6.750
 9274POPC   C3B75381  43.621  22.252   7.050
 9274POPC   C4B75382  43.687  22.301   7.350
 9275POPC   NC375383  31.506  19.835   5.550
 9275POPC   PO475384  31.454  19.824   5.850
 9275POPC   GL175385  31.438  19.858   6.150
 9275POPC   GL275386  31.561  19.700   6.150
 9275POPC   C1A75387  31.511  19.828   6.450
 9275POPC   D2A75388  31.429  19.800   6.750
 9275POPC   C3A75389  31.423  19.815   7.050
 9275POPC   C4A75390  31.497  19.799   7.350
 9275POPC   C1B75391  31.613  19.632   6.450
 9275POPC   C2B75392  31.677  19.645   6.750
 9275POPC   C3B75393  31.612  19.603   7.050
 9275POPC   C4B75394  31.656  19.681   7.350
 9276POPC   NC375395  26.797  40.795   5.550
 9276POPC   PO475396  26.806  40.792   5.850
 9276POPC   GL175397  26.816  40.750   6.150
 9276POPC   GL275398  26.948  40.851   6.150
 9276POPC   C1A75399  26.849  40.749   6.450
 9276POPC   D2A75400  26.850  40.737   6.750
 9276POPC   C3A75401  26.790  40.814   7.050
 9276POPC   C4A75402  26.839  40.803   7.350
 9276POPC   C1B75403  27.044  40.913   6.450
 9276POPC   C2B75404  27.022  40.993   6.750
 9276POPC   C3B75405  26.960  40.972   7.050
 9276POPC   C4B75406  26.985  40.931   7.350
 9277POPC   NC375407   2.761  22.898   5.550
 9277POPC   PO475408   2.794  22.930   5.850
 9277POPC   GL175409   2.766  22.951   6.150
 9277POPC   GL275410   2.872  22.875   6.150
 9277POPC   C1A75411   2.799  22.950   6.450
 9277POPC   D2A75412   2.760  22.983   6.750
 9277POPC   C3A75413   2.792  22.981   7.050
 9277POPC   C4A75414   2.733  22.963   7.350
 9277POPC   C1B75415   3.011  22.788   6.450
 9277POPC   C2B75416   2.949  22.789   6.750
 9277POPC   C3B75417   2.947  22.796   7.050
 9277POPC   C4B75418   3.003  22.848   7.350
 9278POPC   NC375419   0.465  20.636   5.550
 9278POPC   PO475420   0.422  20.582   5.850
 9278POPC   GL175421   0.444  20.622   6.150
 9278POPC   GL275422   0.340  20.527   6.150
 9278POPC   C1A75423   0.476  20.637   6.450
 9278POPC   D2A75424   0.453  20.571   6.750
 9278POPC   C3A75425   0.417  20.591   7.050
 9278POPC   C4A75426   0.474  20.602   7.350
 9278POPC   C1B75427   0.304  20.471   6.450
 9278POPC   C2B75428   0.235  20.429   6.750
 9278POPC   C3B75429   0.275  20.379   7.050
 9278POPC   C4B75430   0.231  20.442   7.350
 9279POPC   NC375431  27.577  11.336   5.550
 9279POPC   PO475432  27.620  11.267   5.850
 9279POPC   GL175433  27.587  11.339   6.150
 9279POPC   GL275434  27.683  11.371   6.150
 9279POPC   C1A75435  27.625  11.302   6.450
 9279POPC   D2A75436  27.570  11.305   6.750
 9279POPC   C3A75437  27.611  11.254   7.050
 9279POPC   C4A75438  27.580  11.346   7.350
 9279POPC   C1B75439  27.729  11.463   6.450
 9279POPC   C2B75440  27.730  11.470   6.750
 9279POPC   C3B75441  27.744  11.497   7.050
 9279POPC   C4B75442  27.711  11.542   7.350
 9280POPC   NC375443   3.492  22.893   5.550
 9280POPC   PO475444   3.517  22.950   5.850
 9280POPC   GL175445   3.540  22.925   6.150
 9280POPC   GL275446   3.568  22.874   6.150
 9280POPC   C1A75447   3.570  22.909   6.450
 9280POPC   D2A75448   3.501  22.925   6.750
 9280POPC   C3A75449   3.539  22.915   7.050
 9280POPC   C4A75450   3.583  22.985   7.350
 9280POPC   C1B75451   3.674  22.679   6.450
 9280POPC   C2B75452   3.651  22.722   6.750
 9280POPC   C3B75453   3.640  22.666   7.050
 9280POPC   C4B75454   3.622  22.763   7.350
 9281POPC   NC375455  42.384  28.326   5.550
 9281POPC   PO475456  42.365  28.328   5.850
 9281POPC   GL175457  42.336  28.366   6.150
 9281POPC   GL275458  42.435  28.309   6.150
 9281POPC   C1A75459  42.286  28.367   6.450
 9281POPC   D2A75460  42.287  28.407   6.750
 9281POPC   C3A75461  42.305  28.367   7.050
 9281POPC   C4A75462  42.298  28.393   7.350
 9281POPC   C1B75463  42.600  28.249   6.450
 9281POPC   C2B75464  42.513  28.244   6.750
 9281POPC   C3B75465  42.582  28.222   7.050
 9281POPC   C4B75466  42.565  28.260   7.350
 9282POPC   NC375467   6.654   8.238   5.550
 9282POPC   PO475468   6.633   8.172   5.850
 9282POPC   GL175469   6.693   8.179   6.150
 9282POPC   GL275470   6.585   8.288   6.150
 9282POPC   C1A75471   6.598   8.213   6.450
 9282POPC   D2A75472   6.620   8.211   6.750
 9282POPC   C3A75473   6.652   8.160   7.050
 9282POPC   C4A75474   6.661   8.189   7.350
 9282POPC   C1B75475   6.543   8.449   6.450
 9282POPC   C2B75476   6.607   8.458   6.750
 9282POPC   C3B75477   6.562   8.478   7.050
 9282POPC   C4B75478   6.584   8.439   7.350
 9283POPC   NC375479  10.499  36.860   5.550
 9283POPC   PO475480  10.531  36.919   5.850
 9283POPC   GL175481  10.549  36.899   6.150
 9283POPC   GL275482  10.593  36.833   6.150
 9283POPC   C1A75483  10.513  36.858   6.450
 9283POPC   D2A75484  10.494  36.890   6.750
 9283POPC   C3A75485  10.573  36.950   7.050
 9283POPC   C4A75486  10.524  36.921   7.350
 9283POPC   C1B75487  10.710  36.778   6.450
 9283POPC   C2B75488  10.728  36.809   6.750
 9283POPC   C3B75489  10.781  36.753   7.050
 9283POPC   C4B75490  10.703  36.770   7.350
 9284POPC   NC375491  14.361   9.705   5.550
 9284POPC   PO475492  14.378   9.782   5.850
 9284POPC   GL175493  14.394   9.783   6.150
 9284POPC   GL275494  14.370   9.851   6.150
 9284POPC   C1A75495  14.410   9.727   6.450
 9284POPC   D2A75496  14.363   9.717   6.750
 9284POPC   C3A75497  14.387   9.755   7.050
 9284POPC   C4A75498  14.375   9.729   7.350
 9284POPC   C1B75499  14.290   9.984   6.450
 9284POPC   C2B75500  14.209   9.974   6.750
 9284POPC   C3B75501  14.213   9.964   7.050
 9284POPC   C4B75502  14.250   9.909   7.350
 9285POPC   NC375503  15.997  26.865   5.550
 9285POPC   PO475504  15.963  26.825   5.850
 9285POPC   GL175505  15.919  26.830   6.150
 9285POPC   GL275506  15.909  26.859   6.150
 9285POPC   C1A75507  15.956  26.780   6.450
 9285POPC   D2A75508  15.940  26.829   6.750
 9285POPC   C3A75509  15.935  26.774   7.050
 9285POPC   C4A75510  15.989  26.834   7.350
 9285POPC   C1B75511  15.811  27.016   6.450
 9285POPC   C2B75512  15.754  27.006   6.750
 9285POPC   C3B75513  15.790  27.032   7.050
 9285POPC   C4B75514  15.747  27.028   7.350
 9286POPC   NC375515  24.519  26.044   5.550
 9286POPC   PO475516  24.539  26.045   5.850
 9286POPC   GL175517  24.459  26.005   6.150
 9286POPC   GL275518  24.526  26.106   6.150
 9286POPC   C1A75519  24.450  26.072   6.450
 9286POPC   D2A75520  24.508  26.031   6.750
 9286POPC   C3A75521  24.469  26.041   7.050
 9286POPC   C4A75522  24.460  26.010   7.350
 9286POPC   C1B75523  24.636  26.190   6.450
 9286POPC   C2B75524  24.692  26.224   6.750
 9286POPC   C3B75525  24.635  26.238   7.050
 9286POPC   C4B75526  24.688  26.267   7.350
 9287POPC   NC375527  42.299  42.307   5.550
 9287POPC   PO475528  42.310  42.329   5.850
 9287POPC   GL175529  42.330  42.321   6.150
 9287POPC   GL275530  42.374  42.184   6.150
 9287POPC   C1A75531  42.374  42.347   6.450
 9287POPC   D2A75532  42.352  42.320   6.750
 9287POPC   C3A75533  42.311  42.297   7.050
 9287POPC   C4A75534  42.299  42.354   7.350
 9287POPC   C1B75535  42.341  42.037   6.450
 9287POPC   C2B75536  42.329  42.125   6.750
 9287POPC   C3B75537  42.350  42.063   7.050
 9287POPC   C4B75538  42.347  42.057   7.350
 9288POPC   NC375539  12.074  43.850   5.550
 9288POPC   PO475540  12.125  43.899   5.850
 9288POPC   GL175541  12.068  43.933   6.150
 9288POPC   GL275542  11.979  43.731   6.150
 9288POPC   C1A75543  12.111  43.841   6.450
 9288POPC   D2A75544  12.065  43.902   6.750
 9288POPC   C3A75545  12.109  43.847   7.050
 9288POPC   C4A75546  12.125  43.891   7.350
 9288POPC   C1B75547  11.934  43.699   6.450
 9288POPC   C2B75548  11.971  43.665   6.750
 9288POPC   C3B75549  11.932  43.696   7.050
 9288POPC   C4B75550  11.947  43.615   7.350
 9289POPC   NC375551  26.860   1.245   5.550
 9289POPC   PO475552  26.772   1.213   5.850
 9289POPC   GL175553  26.858   1.192   6.150
 9289POPC   GL275554  26.841   1.102   6.150
 9289POPC   C1A75555  26.787   1.194   6.450
 9289POPC   D2A75556  26.841   1.171   6.750
 9289POPC   C3A75557  26.845   1.255   7.050
 9289POPC   C4A75558  26.833   1.237   7.350
 9289POPC   C1B75559  26.832   0.919   6.450
 9289POPC   C2B75560  26.850   0.965   6.750
 9289POPC   C3B75561  26.892   0.985   7.050
 9289POPC   C4B75562  26.809   0.927   7.350
 9290POPC   NC375563  18.288  20.643   5.550
 9290POPC   PO475564  18.292  20.651   5.850
 9290POPC   GL175565  18.310  20.637   6.150
 9290POPC   GL275566  18.373  20.541   6.150
 9290POPC   C1A75567  18.248  20.582   6.450
 9290POPC   D2A75568  18.308  20.571   6.750
 9290POPC   C3A75569  18.271  20.573   7.050
 9290POPC   C4A75570  18.258  20.571   7.350
 9290POPC   C1B75571  18.440  20.431   6.450
 9290POPC   C2B75572  18.363  20.400   6.750
 9290POPC   C3B75573  18.372  20.337   7.050
 9290POPC   C4B75574  18.397  20.368   7.350
 9291POPC   NC375575  29.141  19.107   5.550
 9291POPC   PO475576  29.187  19.046   5.850
 9291POPC   GL175577  29.167  19.058   6.150
 9291POPC   GL275578  29.173  19.202   6.150
 9291POPC   C1A75579  29.173  19.070   6.450
 9291POPC   D2A75580  29.165  19.108   6.750
 9291POPC   C3A75581  29.181  19.042   7.050
 9291POPC   C4A75582  29.126  19.052   7.350
 9291POPC   C1B75583  29.227  19.324   6.450
 9291POPC   C2B75584  29.273  19.277   6.750
 9291POPC   C3B75585  29.253  19.315   7.050
 9291POPC   C4B75586  29.274  19.249   7.350
 9292POPC   NC375587   5.886  19.850   5.550
 9292POPC   PO475588   5.895  19.865   5.850
 9292POPC   GL175589   5.869  19.855   6.150
 9292POPC   GL275590   5.934  19.920   6.150
 9292POPC   C1A75591   5.848  19.853   6.450
 9292POPC   D2A75592   5.871  19.867   6.750
 9292POPC   C3A75593   5.825  19.836   7.050
 9292POPC   C4A75594   5.833  19.874   7.350
 9292POPC   C1B75595   6.030  20.010   6.450
 9292POPC   C2B75596   6.029  19.942   6.750
 9292POPC   C3B75597   6.035  19.974   7.050
 9292POPC   C4B75598   6.043  20.024   7.350
 9293POPC   NC375599  38.440  32.980   5.550
 9293POPC   PO475600  38.479  33.052   5.850
 9293POPC   GL175601  38.419  33.062   6.150
 9293POPC   GL275602  38.343  33.028   6.150
 9293POPC   C1A75603  38.473  33.008   6.450
 9293POPC   D2A75604  38.418  33.050   6.750
 9293POPC   C3A75605  38.483  32.988   7.050
 9293POPC   C4A75606  38.414  33.071   7.350
 9293POPC   C1B75607  38.246  32.992   6.450
 9293POPC   C2B75608  38.185  32.991   6.750
 9293POPC   C3B75609  38.232  32.941   7.050
 9293POPC   C4B75610  38.168  32.952   7.350
 9294POPC   NC375611  28.408  43.081   5.550
 9294POPC   PO475612  28.399  43.134   5.850
 9294POPC   GL175613  28.395  43.144   6.150
 9294POPC   GL275614  28.272  43.062   6.150
 9294POPC   C1A75615  28.343  43.146   6.450
 9294POPC   D2A75616  28.414  43.141   6.750
 9294POPC   C3A75617  28.385  43.123   7.050
 9294POPC   C4A75618  28.365  43.144   7.350
 9294POPC   C1B75619  28.232  42.878   6.450
 9294POPC   C2B75620  28.236  42.937   6.750
 9294POPC   C3B75621  28.190  42.939   7.050
 9294POPC   C4B75622  28.162  42.944   7.350
 9295POPC   NC375623   9.767  30.702   5.550
 9295POPC   PO475624   9.744  30.708   5.850
 9295POPC   GL175625   9.783  30.744   6.150
 9295POPC   GL275626   9.831  30.583   6.150
 9295POPC   C1A75627   9.700  30.705   6.450
 9295POPC   D2A75628   9.797  30.692   6.750
 9295POPC   C3A75629   9.708  30.699   7.050
 9295POPC   C4A75630   9.731  30.683   7.350
 9295POPC   C1B75631   9.882  30.453   6.450
 9295POPC   C2B75632   9.929  30.475   6.750
 9295POPC   C3B75633   9.871  30.456   7.050
 9295POPC   C4B75634   9.838  30.484   7.350
 9296POPC   NC375635  43.901  19.081   5.550
 9296POPC   PO475636  43.853  19.077   5.850
 9296POPC   GL175637  43.935  19.055   6.150
 9296POPC   GL275638  43.741  18.990   6.150
 9296POPC   C1A75639  43.912  19.060   6.450
 9296POPC   D2A75640  43.851  19.018   6.750
 9296POPC   C3A75641  43.882  19.021   7.050
 9296POPC   C4A75642  43.911  19.059   7.350
 9296POPC   C1B75643  43.650  18.944   6.450
 9296POPC   C2B75644  43.652  18.999   6.750
 9296POPC   C3B75645  43.614  18.948   7.050
 9296POPC   C4B75646  43.625  19.003   7.350
 9297POPC   NC375647  22.183  35.326   5.550
 9297POPC   PO475648  22.201  35.357   5.850
 9297POPC   GL175649  22.205  35.324   6.150
 9297POPC   GL275650  22.076  35.301   6.150
 9297POPC   C1A75651  22.133  35.315   6.450
 9297POPC   D2A75652  22.139  35.381   6.750
 9297POPC   C3A75653  22.179  35.308   7.050
 9297POPC   C4A75654  22.119  35.350   7.350
 9297POPC   C1B75655  21.916  35.216   6.450
 9297POPC   C2B75656  21.925  35.183   6.750
 9297POPC   C3B75657  21.977  35.241   7.050
 9297POPC   C4B75658  21.953  35.241   7.350
 9298POPC   NC375659  37.670  31.477   5.550
 9298POPC   PO475660  37.667  31.463   5.850
 9298POPC   GL175661  37.719  31.503   6.150
 9298POPC   GL275662  37.615  31.450   6.150
 9298POPC   C1A75663  37.693  31.498   6.450
 9298POPC   D2A75664  37.634  31.490   6.750
 9298POPC   C3A75665  37.694  31.427   7.050
 9298POPC   C4A75666  37.677  31.429   7.350
 9298POPC   C1B75667  37.423  31.397   6.450
 9298POPC   C2B75668  37.487  31.408   6.750
 9298POPC   C3B75669  37.448  31.318   7.050
 9298POPC   C4B75670  37.494  31.408   7.350
 9299POPC   NC375671  22.188  42.313   5.550
 9299POPC   PO475672  22.146  42.361   5.850
 9299POPC   GL175673  22.120  42.366   6.150
 9299POPC   GL275674  22.282  42.351   6.150
 9299POPC   C1A75675  22.184  42.328   6.450
 9299POPC   D2A75676  22.160  42.368   6.750
 9299POPC   C3A75677  22.211  42.375   7.050
 9299POPC   C4A75678  22.125  42.354   7.350
 9299POPC   C1B75679  22.374  42.390   6.450
 9299POPC   C2B75680  22.395  42.349   6.750
 9299POPC   C3B75681  22.407  42.346   7.050
 9299POPC   C4B75682  22.418  42.402   7.350
 9300POPC   NC375683   2.024   2.026   5.550
 9300POPC   PO475684   2.011   1.990   5.850
 9300POPC   GL175685   1.998   2.033   6.150
 9300POPC   GL275686   1.830   1.968   6.150
 9300POPC   C1A75687   2.032   1.963   6.450
 9300POPC   D2A75688   2.029   1.951   6.750
 9300POPC   C3A75689   1.952   1.948   7.050
 9300POPC   C4A75690   2.030   1.952   7.350
 9300POPC   C1B75691   1.711   1.965   6.450
 9300POPC   C2B75692   1.694   1.976   6.750
 9300POPC   C3B75693   1.762   1.952   7.050
 9300POPC   C4B75694   1.735   2.025   7.350
 9301POPC   NC375695  29.151  10.483   5.550
 9301POPC   PO475696  29.116  10.479   5.850
 9301POPC   GL175697  29.121  10.518   6.150
 9301POPC   GL275698  29.279  10.446   6.150
 9301POPC   C1A75699  29.102  10.492   6.450
 9301POPC   D2A75700  29.102  10.570   6.750
 9301POPC   C3A75701  29.127  10.550   7.050
 9301POPC   C4A75702  29.111  10.487   7.350
 9301POPC   C1B75703  29.391  10.364   6.450
 9301POPC   C2B75704  29.314  10.374   6.750
 9301POPC   C3B75705  29.308  10.384   7.050
 9301POPC   C4B75706  29.314  10.364   7.350
 9302POPC   NC375707   9.002  28.408   5.550
 9302POPC   PO475708   8.948  28.362   5.850
 9302POPC   GL175709   8.954  28.352   6.150
 9302POPC   GL275710   8.862  28.437   6.150
 9302POPC   C1A75711   8.942  28.391   6.450
 9302POPC   D2A75712   9.002  28.404   6.750
 9302POPC   C3A75713   8.926  28.411   7.050
 9302POPC   C4A75714   8.997  28.344   7.350
 9302POPC   C1B75715   8.777  28.458   6.450
 9302POPC   C2B75716   8.701  28.415   6.750
 9302POPC   C3B75717   8.750  28.394   7.050
 9302POPC   C4B75718   8.756  28.446   7.350
 9303POPC   NC375719  12.090  42.330   5.550
 9303POPC   PO475720  12.065  42.345   5.850
 9303POPC   GL175721  12.102  42.299   6.150
 9303POPC   GL275722  12.218  42.356   6.150
 9303POPC   C1A75723  12.092  42.300   6.450
 9303POPC   D2A75724  12.082  42.305   6.750
 9303POPC   C3A75725  12.030  42.306   7.050
 9303POPC   C4A75726  12.026  42.323   7.350
 9303POPC   C1B75727  12.306  42.382   6.450
 9303POPC   C2B75728  12.289  42.445   6.750
 9303POPC   C3B75729  12.360  42.425   7.050
 9303POPC   C4B75730  12.330  42.362   7.350
 9304POPC   NC375731  14.381  41.581   5.550
 9304POPC   PO475732  14.431  41.536   5.850
 9304POPC   GL175733  14.372  41.566   6.150
 9304POPC   GL275734  14.271  41.636   6.150
 9304POPC   C1A75735  14.408  41.560   6.450
 9304POPC   D2A75736  14.403  41.598   6.750
 9304POPC   C3A75737  14.394  41.549   7.050
 9304POPC   C4A75738  14.447  41.541   7.350
 9304POPC   C1B75739  14.162  41.663   6.450
 9304POPC   C2B75740  14.151  41.618   6.750
 9304POPC   C3B75741  14.177  41.598   7.050
 9304POPC   C4B75742  14.164  41.627   7.350
 9305POPC   NC375743  41.573   8.179   5.550
 9305POPC   PO475744  41.600   8.218   5.850
 9305POPC   GL175745  41.536   8.165   6.150
 9305POPC   GL275746  41.712   8.259   6.150
 9305POPC   C1A75747  41.545   8.226   6.450
 9305POPC   D2A75748  41.531   8.181   6.750
 9305POPC   C3A75749  41.545   8.179   7.050
 9305POPC   C4A75750  41.608   8.208   7.350
 9305POPC   C1B75751  41.765   8.207   6.450
 9305POPC   C2B75752  41.772   8.300   6.750
 9305POPC   C3B75753  41.846   8.284   7.050
 9305POPC   C4B75754  41.798   8.260   7.350
 9306POPC   NC375755  37.715  34.610   5.550
 9306POPC   PO475756  37.675  34.567   5.850
 9306POPC   GL175757  37.667  34.620   6.150
 9306POPC   GL275758  37.650  34.721   6.150
 9306POPC   C1A75759  37.719  34.580   6.450
 9306POPC   D2A75760  37.645  34.608   6.750
 9306POPC   C3A75761  37.687  34.571   7.050
 9306POPC   C4A75762  37.668  34.626   7.350
 9306POPC   C1B75763  37.628  34.779   6.450
 9306POPC   C2B75764  37.623  34.828   6.750
 9306POPC   C3B75765  37.628  34.840   7.050
 9306POPC   C4B75766  37.673  34.839   7.350
 9307POPC   NC375767  12.095  36.108   5.550
 9307POPC   PO475768  12.047  36.114   5.850
 9307POPC   GL175769  12.099  36.099   6.150
 9307POPC   GL275770  12.195  36.275   6.150
 9307POPC   C1A75771  12.057  36.164   6.450
 9307POPC   D2A75772  12.075  36.135   6.750
 9307POPC   C3A75773  12.050  36.140   7.050
 9307POPC   C4A75774  12.081  36.129   7.350
 9307POPC   C1B75775  12.274  36.319   6.450
 9307POPC   C2B75776  12.244  36.281   6.750
 9307POPC   C3B75777  12.232  36.336   7.050
 9307POPC   C4B75778  12.193  36.352   7.350
 9308POPC   NC375779  10.488   3.558   5.550
 9308POPC   PO475780  10.533   3.513   5.850
 9308POPC   GL175781  10.487   3.539   6.150
 9308POPC   GL275782  10.433   3.433   6.150
 9308POPC   C1A75783  10.503   3.524   6.450
 9308POPC   D2A75784  10.541   3.518   6.750
 9308POPC   C3A75785  10.563   3.553   7.050
 9308POPC   C4A75786  10.547   3.577   7.350
 9308POPC   C1B75787  10.392   3.293   6.450
 9308POPC   C2B75788  10.435   3.336   6.750
 9308POPC   C3B75789  10.394   3.294   7.050
 9308POPC   C4B75790  10.419   3.332   7.350
 9309POPC   NC375791  29.952  26.794   5.550
 9309POPC   PO475792  29.942  26.866   5.850
 9309POPC   GL175793  29.890  26.826   6.150
 9309POPC   GL275794  29.891  26.721   6.150
 9309POPC   C1A75795  29.927  26.800   6.450
 9309POPC   D2A75796  29.897  26.849   6.750
 9309POPC   C3A75797  29.952  26.839   7.050
 9309POPC   C4A75798  29.900  26.774   7.350
 9309POPC   C1B75799  29.818  26.606   6.450
 9309POPC   C2B75800  29.863  26.558   6.750
 9309POPC   C3B75801  29.809  26.558   7.050
 9309POPC   C4B75802  29.828  26.627   7.350
 9310POPC   NC375803   8.206  13.626   5.550
 9310POPC   PO475804   8.167  13.598   5.850
 9310POPC   GL175805   8.213  13.580   6.150
 9310POPC   GL275806   8.103  13.651   6.150
 9310POPC   C1A75807   8.187  13.591   6.450
 9310POPC   D2A75808   8.150  13.592   6.750
 9310POPC   C3A75809   8.214  13.620   7.050
 9310POPC   C4A75810   8.198  13.578   7.350
 9310POPC   C1B75811   7.984  13.789   6.450
 9310POPC   C2B75812   8.021  13.721   6.750
 9310POPC   C3B75813   8.020  13.786   7.050
 9310POPC   C4B75814   7.946  13.757   7.350
 9311POPC   NC375815  18.234  30.698   5.550
 9311POPC   PO475816  18.328  30.701   5.850
 9311POPC   GL175817  18.268  30.741   6.150
 9311POPC   GL275818  18.129  30.624   6.150
 9311POPC   C1A75819  18.321  30.731   6.450
 9311POPC   D2A75820  18.292  30.659   6.750
 9311POPC   C3A75821  18.251  30.684   7.050
 9311POPC   C4A75822  18.324  30.725   7.350
 9311POPC   C1B75823  18.069  30.580   6.450
 9311POPC   C2B75824  18.032  30.666   6.750
 9311POPC   C3B75825  18.004  30.659   7.050
 9311POPC   C4B75826  18.070  30.653   7.350
 9312POPC   NC375827  35.316  34.528   5.550
 9312POPC   PO475828  35.312  34.559   5.850
 9312POPC   GL175829  35.367  34.602   6.150
 9312POPC   GL275830  35.294  34.481   6.150
 9312POPC   C1A75831  35.320  34.622   6.450
 9312POPC   D2A75832  35.325  34.560   6.750
 9312POPC   C3A75833  35.339  34.535   7.050
 9312POPC   C4A75834  35.396  34.594   7.350
 9312POPC   C1B75835  35.197  34.379   6.450
 9312POPC   C2B75836  35.190  34.430   6.750
 9312POPC   C3B75837  35.177  34.432   7.050
 9312POPC   C4B75838  35.177  34.422   7.350
 9313POPC   NC375839  43.923   8.226   5.550
 9313POPC   PO475840  43.919   8.210   5.850
 9313POPC   GL175841  43.842   8.165   6.150
 9313POPC   GL275842  43.837   8.257   6.150
 9313POPC   C1A75843  43.883   8.223   6.450
 9313POPC   D2A75844  43.852   8.212   6.750
 9313POPC   C3A75845  43.842   8.176   7.050
 9313POPC   C4A75846  43.928   8.231   7.350
 9313POPC   C1B75847  43.687   8.345   6.450
 9313POPC   C2B75848  43.690   8.341   6.750
 9313POPC   C3B75849  43.733   8.346   7.050
 9313POPC   C4B75850  43.726   8.341   7.350
 9314POPC   NC375851  15.138  40.015   5.550
 9314POPC   PO475852  15.152  39.975   5.850
 9314POPC   GL175853  15.203  39.996   6.150
 9314POPC   GL275854  15.246  39.901   6.150
 9314POPC   C1A75855  15.130  39.995   6.450
 9314POPC   D2A75856  15.178  40.034   6.750
 9314POPC   C3A75857  15.144  39.958   7.050
 9314POPC   C4A75858  15.163  39.983   7.350
 9314POPC   C1B75859  15.380  39.859   6.450
 9314POPC   C2B75860  15.388  39.856   6.750
 9314POPC   C3B75861  15.372  39.780   7.050
 9314POPC   C4B75862  15.346  39.781   7.350
 9315POPC   NC375863  43.136  20.631   5.550
 9315POPC   PO475864  43.136  20.647   5.850
 9315POPC   GL175865  43.153  20.632   6.150
 9315POPC   GL275866  43.040  20.501   6.150
 9315POPC   C1A75867  43.092  20.637   6.450
 9315POPC   D2A75868  43.074  20.567   6.750
 9315POPC   C3A75869  43.074  20.622   7.050
 9315POPC   C4A75870  43.129  20.567   7.350
 9315POPC   C1B75871  43.022  20.360   6.450
 9315POPC   C2B75872  42.943  20.378   6.750
 9315POPC   C3B75873  42.978  20.366   7.050
 9315POPC   C4B75874  43.023  20.369   7.350
 9316POPC   NC375875  43.128  22.196   5.550
 9316POPC   PO475876  43.095  22.153   5.850
 9316POPC   GL175877  43.093  22.151   6.150
 9316POPC   GL275878  43.048  22.123   6.150
 9316POPC   C1A75879  43.142  22.188   6.450
 9316POPC   D2A75880  43.100  22.210   6.750
 9316POPC   C3A75881  43.103  22.204   7.050
 9316POPC   C4A75882  43.085  22.167   7.350
 9316POPC   C1B75883  42.886  22.036   6.450
 9316POPC   C2B75884  42.935  21.996   6.750
 9316POPC   C3B75885  42.852  22.043   7.050
 9316POPC   C4B75886  42.848  22.071   7.350
 9317POPC   NC375887  21.380  33.826   5.550
 9317POPC   PO475888  21.386  33.839   5.850
 9317POPC   GL175889  21.352  33.806   6.150
 9317POPC   GL275890  21.397  33.920   6.150
 9317POPC   C1A75891  21.419  33.811   6.450
 9317POPC   D2A75892  21.346  33.831   6.750
 9317POPC   C3A75893  21.420  33.814   7.050
 9317POPC   C4A75894  21.426  33.828   7.350
 9317POPC   C1B75895  21.505  34.077   6.450
 9317POPC   C2B75896  21.512  34.055   6.750
 9317POPC   C3B75897  21.449  34.054   7.050
 9317POPC   C4B75898  21.455  34.030   7.350
 9318POPC   NC375899  27.604  31.474   5.550
 9318POPC   PO475900  27.548  31.469   5.850
 9318POPC   GL175901  27.611  31.442   6.150
 9318POPC   GL275902  27.471  31.508   6.150
 9318POPC   C1A75903  27.599  31.522   6.450
 9318POPC   D2A75904  27.573  31.437   6.750
 9318POPC   C3A75905  27.570  31.511   7.050
 9318POPC   C4A75906  27.573  31.463   7.350
 9318POPC   C1B75907  27.360  31.571   6.450
 9318POPC   C2B75908  27.372  31.548   6.750
 9318POPC   C3B75909  27.414  31.620   7.050
 9318POPC   C4B75910  27.365  31.608   7.350
 9319POPC   NC375911  37.699  30.694   5.550
 9319POPC   PO475912  37.657  30.731   5.850
 9319POPC   GL175913  37.636  30.658   6.150
 9319POPC   GL275914  37.735  30.792   6.150
 9319POPC   C1A75915  37.635  30.671   6.450
 9319POPC   D2A75916  37.677  30.656   6.750
 9319POPC   C3A75917  37.672  30.675   7.050
 9319POPC   C4A75918  37.634  30.673   7.350
 9319POPC   C1B75919  37.872  30.794   6.450
 9319POPC   C2B75920  37.844  30.851   6.750
 9319POPC   C3B75921  37.909  30.809   7.050
 9319POPC   C4B75922  37.893  30.833   7.350
 9320POPC   NC375923  38.463  25.999   5.550
 9320POPC   PO475924  38.432  26.076   5.850
 9320POPC   GL175925  38.445  26.024   6.150
 9320POPC   GL275926  38.445  26.164   6.150
 9320POPC   C1A75927  38.490  26.090   6.450
 9320POPC   D2A75928  38.435  26.085   6.750
 9320POPC   C3A75929  38.451  26.055   7.050
 9320POPC   C4A75930  38.441  26.033   7.350
 9320POPC   C1B75931  38.422  26.320   6.450
 9320POPC   C2B75932  38.363  26.270   6.750
 9320POPC   C3B75933  38.387  26.331   7.050
 9320POPC   C4B75934  38.407  26.320   7.350
 9321POPC   NC375935  12.885   7.464   5.550
 9321POPC   PO475936  12.899   7.447   5.850
 9321POPC   GL175937  12.862   7.379   6.150
 9321POPC   GL275938  12.745   7.529   6.150
 9321POPC   C1A75939  12.846   7.407   6.450
 9321POPC   D2A75940  12.835   7.465   6.750
 9321POPC   C3A75941  12.861   7.423   7.050
 9321POPC   C4A75942  12.813   7.436   7.350
 9321POPC   C1B75943  12.648   7.609   6.450
 9321POPC   C2B75944  12.713   7.658   6.750
 9321POPC   C3B75945  12.734   7.638   7.050
 9321POPC   C4B75946  12.674   7.561   7.350
 9322POPC   NC375947   8.171   5.102   5.550
 9322POPC   PO475948   8.169   5.112   5.850
 9322POPC   GL175949   8.213   5.096   6.150
 9322POPC   GL275950   8.078   5.004   6.150
 9322POPC   C1A75951   8.192   5.052   6.450
 9322POPC   D2A75952   8.230   5.096   6.750
 9322POPC   C3A75953   8.186   5.131   7.050
 9322POPC   C4A75954   8.222   5.058   7.350
 9322POPC   C1B75955   7.978   4.904   6.450
 9322POPC   C2B75956   7.954   4.931   6.750
 9322POPC   C3B75957   7.966   4.900   7.050
 9322POPC   C4B75958   8.003   4.995   7.350
 9323POPC   NC375959  43.881  12.109   5.550
 9323POPC   PO475960  43.908  12.062   5.850
 9323POPC   GL175961  43.927  12.070   6.150
 9323POPC   GL275962  43.837  12.169   6.150
 9323POPC   C1A75963  43.866  12.106   6.450
 9323POPC   D2A75964  43.852  12.063   6.750
 9323POPC   C3A75965  43.859  12.118   7.050
 9323POPC   C4A75966  43.897  12.121   7.350
 9323POPC   C1B75967  43.745  12.231   6.450
 9323POPC   C2B75968  43.699  12.206   6.750
 9323POPC   C3B75969  43.712  12.292   7.050
 9323POPC   C4B75970  43.720  12.281   7.350
 9324POPC   NC375971  39.226  28.418   5.550
 9324POPC   PO475972  39.217  28.383   5.850
 9324POPC   GL175973  39.254  28.358   6.150
 9324POPC   GL275974  39.186  28.469   6.150
 9324POPC   C1A75975  39.192  28.356   6.450
 9324POPC   D2A75976  39.234  28.337   6.750
 9324POPC   C3A75977  39.201  28.377   7.050
 9324POPC   C4A75978  39.247  28.381   7.350
 9324POPC   C1B75979  39.203  28.636   6.450
 9324POPC   C2B75980  39.170  28.597   6.750
 9324POPC   C3B75981  39.214  28.639   7.050
 9324POPC   C4B75982  39.176  28.620   7.350
 9325POPC   NC375983  26.772   2.785   5.550
 9325POPC   PO475984  26.770   2.753   5.850
 9325POPC   GL175985  26.772   2.784   6.150
 9325POPC   GL275986  26.790   2.595   6.150
 9325POPC   C1A75987  26.855   2.790   6.450
 9325POPC   D2A75988  26.840   2.744   6.750
 9325POPC   C3A75989  26.798   2.792   7.050
 9325POPC   C4A75990  26.790   2.794   7.350
 9325POPC   C1B75991  26.801   2.541   6.450
 9325POPC   C2B75992  26.800   2.520   6.750
 9325POPC   C3B75993  26.792   2.466   7.050
 9325POPC   C4B75994  26.819   2.473   7.350
 9326POPC   NC375995  14.432  23.736   5.550
 9326POPC   PO475996  14.397  23.727   5.850
 9326POPC   GL175997  14.430  23.674   6.150
 9326POPC   GL275998  14.452  23.595   6.150
 9326POPC   C1A75999  14.388  23.727   6.450
 9326POPC   D2A76000  14.430  23.687   6.750
 9326POPC   C3A76001  14.365  23.684   7.050
 9326POPC   C4A76002  14.376  23.715   7.350
 9326POPC   C1B76003  14.488  23.500   6.450
 9326POPC   C2B76004  14.450  23.464   6.750
 9326POPC   C3B76005  14.493  23.525   7.050
 9326POPC   C4B76006  14.495  23.522   7.350
 9327POPC   NC376007  25.270  26.794   5.550
 9327POPC   PO476008  25.219  26.834   5.850
 9327POPC   GL176009  25.235  26.853   6.150
 9327POPC   GL276010  25.144  26.769   6.150
 9327POPC   C1A76011  25.218  26.795   6.450
 9327POPC   D2A76012  25.288  26.791   6.750
 9327POPC   C3A76013  25.235  26.845   7.050
 9327POPC   C4A76014  25.217  26.789   7.350
 9327POPC   C1B76015  24.996  26.834   6.450
 9327POPC   C2B76016  25.038  26.786   6.750
 9327POPC   C3B76017  25.052  26.764   7.050
 9327POPC   C4B76018  25.050  26.769   7.350
 9328POPC   NC376019  39.220  33.790   5.550
 9328POPC   PO476020  39.183  33.792   5.850
 9328POPC   GL176021  39.188  33.756   6.150
 9328POPC   GL276022  39.250  33.631   6.150
 9328POPC   C1A76023  39.279  33.817   6.450
 9328POPC   D2A76024  39.194  33.759   6.750
 9328POPC   C3A76025  39.208  33.754   7.050
 9328POPC   C4A76026  39.269  33.843   7.350
 9328POPC   C1B76027  39.275  33.570   6.450
 9328POPC   C2B76028  39.277  33.513   6.750
 9328POPC   C3B76029  39.284  33.559   7.050
 9328POPC   C4B76030  39.338  33.606   7.350
 9329POPC   NC376031  15.984  12.085   5.550
 9329POPC   PO476032  15.958  12.118   5.850
 9329POPC   GL176033  15.975  12.079   6.150
 9329POPC   GL276034  16.100  12.067   6.150
 9329POPC   C1A76035  15.969  12.068   6.450
 9329POPC   D2A76036  15.966  12.078   6.750
 9329POPC   C3A76037  15.937  12.052   7.050
 9329POPC   C4A76038  15.959  12.042   7.350
 9329POPC   C1B76039  16.235  12.096   6.450
 9329POPC   C2B76040  16.204  12.036   6.750
 9329POPC   C3B76041  16.235  12.030   7.050
 9329POPC   C4B76042  16.178  12.027   7.350
 9330POPC   NC376043  15.954   0.427   5.550
 9330POPC   PO476044  15.989   0.473   5.850
 9330POPC   GL176045  15.908   0.444   6.150
 9330POPC   GL276046  15.945   0.583   6.150
 9330POPC   C1A76047  15.993   0.446   6.450
 9330POPC   D2A76048  15.914   0.419   6.750
 9330POPC   C3A76049  15.937   0.406   7.050
 9330POPC   C4A76050  15.980   0.411   7.350
 9330POPC   C1B76051  15.919   0.705   6.450
 9330POPC   C2B76052  15.937   0.685   6.750
 9330POPC   C3B76053  15.913   0.654   7.050
 9330POPC   C4B76054  15.867   0.668   7.350
 9331POPC   NC376055  42.303  35.394   5.550
 9331POPC   PO476056  42.319  35.349   5.850
 9331POPC   GL176057  42.372  35.328   6.150
 9331POPC   GL276058  42.243  35.244   6.150
 9331POPC   C1A76059  42.344  35.380   6.450
 9331POPC   D2A76060  42.287  35.346   6.750
 9331POPC   C3A76061  42.333  35.346   7.050
 9331POPC   C4A76062  42.361  35.305   7.350
 9331POPC   C1B76063  42.149  35.144   6.450
 9331POPC   C2B76064  42.138  35.167   6.750
 9331POPC   C3B76065  42.171  35.161   7.050
 9331POPC   C4B76066  42.174  35.170   7.350
 9332POPC   NC376067  19.015  41.527   5.550
 9332POPC   PO476068  19.043  41.586   5.850
 9332POPC   GL176069  19.061  41.531   6.150
 9332POPC   GL276070  18.985  41.396   6.150
 9332POPC   C1A76071  19.073  41.593   6.450
 9332POPC   D2A76072  19.022  41.608   6.750
 9332POPC   C3A76073  19.019  41.512   7.050
 9332POPC   C4A76074  19.050  41.583   7.350
 9332POPC   C1B76075  19.029  41.322   6.450
 9332POPC   C2B76076  19.002  41.284   6.750
 9332POPC   C3B76077  18.999  41.325   7.050
 9332POPC   C4B76078  18.985  41.313   7.350
 9333POPC   NC376079  32.272  23.667   5.550
 9333POPC   PO476080  32.265  23.695   5.850
 9333POPC   GL176081  32.232  23.703   6.150
 9333POPC   GL276082  32.181  23.821   6.150
 9333POPC   C1A76083  32.266  23.759   6.450
 9333POPC   D2A76084  32.260  23.730   6.750
 9333POPC   C3A76085  32.213  23.724   7.050
 9333POPC   C4A76086  32.261  23.731   7.350
 9333POPC   C1B76087  32.105  23.987   6.450
 9333POPC   C2B76088  32.159  23.979   6.750
 9333POPC   C3B76089  32.169  23.946   7.050
 9333POPC   C4B76090  32.123  23.966   7.350
 9334POPC   NC376091  15.937  43.918   5.550
 9334POPC   PO476092  15.988  43.920   5.850
 9334POPC   GL176093  15.988  43.872   6.150
 9334POPC   GL276094  15.929  43.969   6.150
 9334POPC   C1A76095  15.949  43.907   6.450
 9334POPC   D2A76096  15.965  43.899   6.750
 9334POPC   C3A76097  15.978  43.860   7.050
 9334POPC   C4A76098  15.996  43.870   7.350
 9334POPC   C1B76099  15.871  44.109   6.450
 9334POPC   C2B76100  15.841  44.071   6.750
 9334POPC   C3B76101  15.895  44.116   7.050
 9334POPC   C4B76102  15.863  44.132   7.350
 9335POPC   NC376103  10.542  37.638   5.550
 9335POPC   PO476104  10.554  37.707   5.850
 9335POPC   GL176105  10.547  37.689   6.150
 9335POPC   GL276106  10.607  37.548   6.150
 9335POPC   C1A76107  10.568  37.702   6.450
 9335POPC   D2A76108  10.487  37.648   6.750
 9335POPC   C3A76109  10.525  37.674   7.050
 9335POPC   C4A76110  10.536  37.712   7.350
 9335POPC   C1B76111  10.691  37.421   6.450
 9335POPC   C2B76112  10.672  37.479   6.750
 9335POPC   C3B76113  10.618  37.425   7.050
 9335POPC   C4B76114  10.614  37.494   7.350
 9336POPC   NC376115  12.866   3.529   5.550
 9336POPC   PO476116  12.886   3.494   5.850
 9336POPC   GL176117  12.803   3.502   6.150
 9336POPC   GL276118  12.706   3.461   6.150
 9336POPC   C1A76119  12.832   3.528   6.450
 9336POPC   D2A76120  12.847   3.586   6.750
 9336POPC   C3A76121  12.805   3.583   7.050
 9336POPC   C4A76122  12.877   3.558   7.350
 9336POPC   C1B76123  12.642   3.418   6.450
 9336POPC   C2B76124  12.605   3.489   6.750
 9336POPC   C3B76125  12.599   3.481   7.050
 9336POPC   C4B76126  12.601   3.395   7.350
 9337POPC   NC376127  37.637  10.503   5.550
 9337POPC   PO476128  37.678  10.481   5.850
 9337POPC   GL176129  37.641  10.501   6.150
 9337POPC   GL276130  37.757  10.511   6.150
 9337POPC   C1A76131  37.698  10.498   6.450
 9337POPC   D2A76132  37.638  10.480   6.750
 9337POPC   C3A76133  37.634  10.537   7.050
 9337POPC   C4A76134  37.726  10.526   7.350
 9337POPC   C1B76135  37.945  10.595   6.450
 9337POPC   C2B76136  37.925  10.561   6.750
 9337POPC   C3B76137  37.934  10.525   7.050
 9337POPC   C4B76138  37.887  10.536   7.350
 9338POPC   NC376139  36.867  17.490   5.550
 9338POPC   PO476140  36.875  17.463   5.850
 9338POPC   GL176141  36.930  17.481   6.150
 9338POPC   GL276142  36.788  17.514   6.150
 9338POPC   C1A76143  36.873  17.493   6.450
 9338POPC   D2A76144  36.867  17.554   6.750
 9338POPC   C3A76145  36.906  17.501   7.050
 9338POPC   C4A76146  36.890  17.527   7.350
 9338POPC   C1B76147  36.681  17.584   6.450
 9338POPC   C2B76148  36.627  17.508   6.750
 9338POPC   C3B76149  36.613  17.569   7.050
 9338POPC   C4B76150  36.612  17.591   7.350
 9339POPC   NC376151  28.359  35.378   5.550
 9339POPC   PO476152  28.382  35.359   5.850
 9339POPC   GL176153  28.367  35.386   6.150
 9339POPC   GL276154  28.241  35.416   6.150
 9339POPC   C1A76155  28.365  35.305   6.450
 9339POPC   D2A76156  28.410  35.325   6.750
 9339POPC   C3A76157  28.341  35.345   7.050
 9339POPC   C4A76158  28.335  35.309   7.350
 9339POPC   C1B76159  28.120  35.430   6.450
 9339POPC   C2B76160  28.124  35.474   6.750
 9339POPC   C3B76161  28.114  35.450   7.050
 9339POPC   C4B76162  28.099  35.445   7.350
 9340POPC   NC376163   7.470  21.367   5.550
 9340POPC   PO476164   7.446  21.344   5.850
 9340POPC   GL176165   7.409  21.397   6.150
 9340POPC   GL276166   7.430  21.250   6.150
 9340POPC   C1A76167   7.400  21.352   6.450
 9340POPC   D2A76168   7.457  21.415   6.750
 9340POPC   C3A76169   7.467  21.372   7.050
 9340POPC   C4A76170   7.454  21.362   7.350
 9340POPC   C1B76171   7.387  21.154   6.450
 9340POPC   C2B76172   7.346  21.113   6.750
 9340POPC   C3B76173   7.423  21.149   7.050
 9340POPC   C4B76174   7.355  21.185   7.350
 9341POPC   NC376175   7.419  14.394   5.550
 9341POPC   PO476176   7.459  14.367   5.850
 9341POPC   GL176177   7.431  14.432   6.150
 9341POPC   GL276178   7.375  14.257   6.150
 9341POPC   C1A76179   7.392  14.394   6.450
 9341POPC   D2A76180   7.470  14.430   6.750
 9341POPC   C3A76181   7.439  14.382   7.050
 9341POPC   C4A76182   7.453  14.383   7.350
 9341POPC   C1B76183   7.429  14.157   6.450
 9341POPC   C2B76184   7.412  14.111   6.750
 9341POPC   C3B76185   7.398  14.138   7.050
 9341POPC   C4B76186   7.398  14.159   7.350
 9342POPC   NC376187   4.298   1.176   5.550
 9342POPC   PO476188   4.275   1.186   5.850
 9342POPC   GL176189   4.269   1.263   6.150
 9342POPC   GL276190   4.378   1.124   6.150
 9342POPC   C1A76191   4.291   1.214   6.450
 9342POPC   D2A76192   4.326   1.226   6.750
 9342POPC   C3A76193   4.297   1.247   7.050
 9342POPC   C4A76194   4.356   1.234   7.350
 9342POPC   C1B76195   4.526   1.068   6.450
 9342POPC   C2B76196   4.492   1.043   6.750
 9342POPC   C3B76197   4.556   1.090   7.050
 9342POPC   C4B76198   4.510   1.038   7.350
 9343POPC   NC376199   5.917   5.880   5.550
 9343POPC   PO476200   5.842   5.906   5.850
 9343POPC   GL176201   5.907   5.836   6.150
 9343POPC   GL276202   5.914   5.800   6.150
 9343POPC   C1A76203   5.853   5.878   6.450
 9343POPC   D2A76204   5.861   5.891   6.750
 9343POPC   C3A76205   5.842   5.852   7.050
 9343POPC   C4A76206   5.918   5.859   7.350
 9343POPC   C1B76207   5.990   5.623   6.450
 9343POPC   C2B76208   5.945   5.610   6.750
 9343POPC   C3B76209   6.016   5.633   7.050
 9343POPC   C4B76210   5.953   5.656   7.350
 9344POPC   NC376211  32.246   5.047   5.550
 9344POPC   PO476212  32.217   5.077   5.850
 9344POPC   GL176213  32.231   5.065   6.150
 9344POPC   GL276214  32.185   5.163   6.150
 9344POPC   C1A76215  32.237   5.087   6.450
 9344POPC   D2A76216  32.266   5.128   6.750
 9344POPC   C3A76217  32.285   5.047   7.050
 9344POPC   C4A76218  32.236   5.107   7.350
 9344POPC   C1B76219  32.132   5.345   6.450
 9344POPC   C2B76220  32.111   5.307   6.750
 9344POPC   C3B76221  32.136   5.327   7.050
 9344POPC   C4B76222  32.129   5.310   7.350
 9345POPC   NC376223  19.091  13.586   5.550
 9345POPC   PO476224  19.017  13.635   5.850
 9345POPC   GL176225  19.103  13.609   6.150
 9345POPC   GL276226  18.907  13.627   6.150
 9345POPC   C1A76227  19.101  13.668   6.450
 9345POPC   D2A76228  19.096  13.624   6.750
 9345POPC   C3A76229  19.029  13.637   7.050
 9345POPC   C4A76230  19.060  13.658   7.350
 9345POPC   C1B76231  18.850  13.749   6.450
 9345POPC   C2B76232  18.786  13.687   6.750
 9345POPC   C3B76233  18.782  13.656   7.050
 9345POPC   C4B76234  18.859  13.721   7.350
 9346POPC   NC376235  19.882  16.778   5.550
 9346POPC   PO476236  19.881  16.715   5.850
 9346POPC   GL176237  19.857  16.771   6.150
 9346POPC   GL276238  19.949  16.664   6.150
 9346POPC   C1A76239  19.825  16.779   6.450
 9346POPC   D2A76240  19.871  16.704   6.750
 9346POPC   C3A76241  19.843  16.690   7.050
 9346POPC   C4A76242  19.879  16.693   7.350
 9346POPC   C1B76243  20.033  16.579   6.450
 9346POPC   C2B76244  20.023  16.538   6.750
 9346POPC   C3B76245  20.013  16.576   7.050
 9346POPC   C4B76246  19.983  16.559   7.350
 9347POPC   NC376247  10.573  40.047   5.550
 9347POPC   PO476248  10.491  39.964   5.850
 9347POPC   GL176249  10.550  40.043   6.150
 9347POPC   GL276250  10.417  39.988   6.150
 9347POPC   C1A76251  10.533  39.974   6.450
 9347POPC   D2A76252  10.566  39.987   6.750
 9347POPC   C3A76253  10.512  40.020   7.050
 9347POPC   C4A76254  10.546  40.020   7.350
 9347POPC   C1B76255  10.245  40.004   6.450
 9347POPC   C2B76256  10.241  40.014   6.750
 9347POPC   C3B76257  10.235  39.992   7.050
 9347POPC   C4B76258  10.299  39.998   7.350
 9348POPC   NC376259   2.773  19.855   5.550
 9348POPC   PO476260   2.802  19.879   5.850
 9348POPC   GL176261   2.789  19.852   6.150
 9348POPC   GL276262   2.703  19.747   6.150
 9348POPC   C1A76263   2.717  19.867   6.450
 9348POPC   D2A76264   2.782  19.808   6.750
 9348POPC   C3A76265   2.777  19.806   7.050
 9348POPC   C4A76266   2.749  19.835   7.350
 9348POPC   C1B76267   2.541  19.691   6.450
 9348POPC   C2B76268   2.598  19.647   6.750
 9348POPC   C3B76269   2.552  19.690   7.050
 9348POPC   C4B76270   2.566  19.641   7.350
 9349POPC   NC376271  18.324  43.930   5.550
 9349POPC   PO476272  18.277  43.850   5.850
 9349POPC   GL176273  18.259  43.893   6.150
 9349POPC   GL276274  18.417  43.909   6.150
 9349POPC   C1A76275  18.310  43.848   6.450
 9349POPC   D2A76276  18.257  43.876   6.750
 9349POPC   C3A76277  18.248  43.868   7.050
 9349POPC   C4A76278  18.291  43.931   7.350
 9349POPC   C1B76279  18.536  43.842   6.450
 9349POPC   C2B76280  18.521  43.835   6.750
 9349POPC   C3B76281  18.561  43.893   7.050
 9349POPC   C4B76282  18.545  43.854   7.350
 9350POPC   NC376283  12.835   9.760   5.550
 9350POPC   PO476284  12.828   9.726   5.850
 9350POPC   GL176285  12.844   9.705   6.150
 9350POPC   GL276286  12.964   9.755   6.150
 9350POPC   C1A76287  12.826   9.722   6.450
 9350POPC   D2A76288  12.887   9.716   6.750
 9350POPC   C3A76289  12.901   9.708   7.050
 9350POPC   C4A76290  12.830   9.699   7.350
 9350POPC   C1B76291  13.147   9.757   6.450
 9350POPC   C2B76292  13.063   9.778   6.750
 9350POPC   C3B76293  13.100   9.787   7.050
 9350POPC   C4B76294  13.127   9.747   7.350
 9351POPC   NC376295  13.668  25.310   5.550
 9351POPC   PO476296  13.626  25.251   5.850
 9351POPC   GL176297  13.630  25.279   6.150
 9351POPC   GL276298  13.590  25.397   6.150
 9351POPC   C1A76299  13.626  25.278   6.450
 9351POPC   D2A76300  13.637  25.292   6.750
 9351POPC   C3A76301  13.592  25.298   7.050
 9351POPC   C4A76302  13.582  25.259   7.350
 9351POPC   C1B76303  13.477  25.452   6.450
 9351POPC   C2B76304  13.566  25.535   6.750
 9351POPC   C3B76305  13.500  25.493   7.050
 9351POPC   C4B76306  13.481  25.502   7.350
 9352POPC   NC376307   6.687  34.568   5.550
 9352POPC   PO476308   6.620  34.594   5.850
 9352POPC   GL176309   6.609  34.536   6.150
 9352POPC   GL276310   6.558  34.677   6.150
 9352POPC   C1A76311   6.658  34.619   6.450
 9352POPC   D2A76312   6.634  34.609   6.750
 9352POPC   C3A76313   6.617  34.556   7.050
 9352POPC   C4A76314   6.644  34.555   7.350
 9352POPC   C1B76315   6.595  34.816   6.450
 9352POPC   C2B76316   6.515  34.774   6.750
 9352POPC   C3B76317   6.565  34.763   7.050
 9352POPC   C4B76318   6.535  34.845   7.350
 9353POPC   NC376319  44.689   4.327   5.550
 9353POPC   PO476320  44.627   4.280   5.850
 9353POPC   GL176321  44.667   4.321   6.150
 9353POPC   GL276322  44.665   4.449   6.150
 9353POPC   C1A76323  44.688   4.316   6.450
 9353POPC   D2A76324  44.665   4.354   6.750
 9353POPC   C3A76325  44.626   4.319   7.050
 9353POPC   C4A76326  44.672   4.307   7.350
 9353POPC   C1B76327  44.611   4.598   6.450
 9353POPC   C2B76328  44.654   4.525   6.750
 9353POPC   C3B76329  44.662   4.559   7.050
 9353POPC   C4B76330  44.692   4.582   7.350
 9354POPC   NC376331  38.473  22.902   5.550
 9354POPC   PO476332  38.487  22.983   5.850
 9354POPC   GL176333  38.495  22.936   6.150
 9354POPC   GL276334  38.391  22.797   6.150
 9354POPC   C1A76335  38.485  22.966   6.450
 9354POPC   D2A76336  38.478  22.963   6.750
 9354POPC   C3A76337  38.467  22.906   7.050
 9354POPC   C4A76338  38.475  22.950   7.350
 9354POPC   C1B76339  38.313  22.673   6.450
 9354POPC   C2B76340  38.307  22.749   6.750
 9354POPC   C3B76341  38.378  22.766   7.050
 9354POPC   C4B76342  38.349  22.692   7.350
 9355POPC   NC376343   0.397  11.258   5.550
 9355POPC   PO476344   0.449  11.282   5.850
 9355POPC   GL176345   0.394  11.254   6.150
 9355POPC   GL276346   0.490  11.199   6.150
 9355POPC   C1A76347   0.401  11.341   6.450
 9355POPC   D2A76348   0.421  11.287   6.750
 9355POPC   C3A76349   0.468  11.343   7.050
 9355POPC   C4A76350   0.432  11.317   7.350
 9355POPC   C1B76351   0.519  11.108   6.450
 9355POPC   C2B76352   0.528  11.086   6.750
 9355POPC   C3B76353   0.503  11.027   7.050
 9355POPC   C4B76354   0.486  11.061   7.350
 9356POPC   NC376355  37.691  14.399   5.550
 9356POPC   PO476356  37.707  14.410   5.850
 9356POPC   GL176357  37.671  14.390   6.150
 9356POPC   GL276358  37.784  14.439   6.150
 9356POPC   C1A76359  37.676  14.371   6.450
 9356POPC   D2A76360  37.666  14.380   6.750
 9356POPC   C3A76361  37.645  14.367   7.050
 9356POPC   C4A76362  37.698  14.400   7.350
 9356POPC   C1B76363  37.957  14.419   6.450
 9356POPC   C2B76364  37.966  14.374   6.750
 9356POPC   C3B76365  37.900  14.386   7.050
 9356POPC   C4B76366  37.904  14.409   7.350
 9357POPC   NC376367   3.536  40.000   5.550
 9357POPC   PO476368   3.529  40.007   5.850
 9357POPC   GL176369   3.530  39.964   6.150
 9357POPC   GL276370   3.390  40.074   6.150
 9357POPC   C1A76371   3.521  39.974   6.450
 9357POPC   D2A76372   3.584  39.985   6.750
 9357POPC   C3A76373   3.585  40.013   7.050
 9357POPC   C4A76374   3.496  39.958   7.350
 9357POPC   C1B76375   3.266  40.032   6.450
 9357POPC   C2B76376   3.313  40.085   6.750
 9357POPC   C3B76377   3.305  40.108   7.050
 9357POPC   C4B76378   3.304  40.048   7.350
 9358POPC   NC376379  34.556  43.101   5.550
 9358POPC   PO476380  34.543  43.137   5.850
 9358POPC   GL176381  34.580  43.121   6.150
 9358POPC   GL276382  34.558  43.217   6.150
 9358POPC   C1A76383  34.554  43.078   6.450
 9358POPC   D2A76384  34.585  43.107   6.750
 9358POPC   C3A76385  34.573  43.117   7.050
 9358POPC   C4A76386  34.608  43.106   7.350
 9358POPC   C1B76387  34.469  43.393   6.450
 9358POPC   C2B76388  34.510  43.322   6.750
 9358POPC   C3B76389  34.456  43.376   7.050
 9358POPC   C4B76390  34.533  43.305   7.350
 9359POPC   NC376391  16.682  23.755   5.550
 9359POPC   PO476392  16.700  23.668   5.850
 9359POPC   GL176393  16.707  23.762   6.150
 9359POPC   GL276394  16.822  23.638   6.150
 9359POPC   C1A76395  16.716  23.696   6.450
 9359POPC   D2A76396  16.721  23.761   6.750
 9359POPC   C3A76397  16.700  23.681   7.050
 9359POPC   C4A76398  16.742  23.695   7.350
 9359POPC   C1B76399  16.946  23.597   6.450
 9359POPC   C2B76400  16.933  23.652   6.750
 9359POPC   C3B76401  16.983  23.588   7.050
 9359POPC   C4B76402  16.953  23.560   7.350
 9360POPC   NC376403  17.535   1.188   5.550
 9360POPC   PO476404  17.476   1.231   5.850
 9360POPC   GL176405  17.494   1.230   6.150
 9360POPC   GL276406  17.406   1.249   6.150
 9360POPC   C1A76407  17.473   1.254   6.450
 9360POPC   D2A76408  17.536   1.179   6.750
 9360POPC   C3A76409  17.555   1.170   7.050
 9360POPC   C4A76410  17.489   1.260   7.350
 9360POPC   C1B76411  17.217   1.243   6.450
 9360POPC   C2B76412  17.237   1.204   6.750
 9360POPC   C3B76413  17.276   1.207   7.050
 9360POPC   C4B76414  17.247   1.221   7.350
 9361POPC   NC376415  15.967   4.345   5.550
 9361POPC   PO476416  15.977   4.288   5.850
 9361POPC   GL176417  15.924   4.308   6.150
 9361POPC   GL276418  15.906   4.214   6.150
 9361POPC   C1A76419  15.916   4.295   6.450
 9361POPC   D2A76420  15.989   4.270   6.750
 9361POPC   C3A76421  15.944   4.330   7.050
 9361POPC   C4A76422  15.938   4.310   7.350
 9361POPC   C1B76423  15.824   4.120   6.450
 9361POPC   C2B76424  15.761   4.096   6.750
 9361POPC   C3B76425  15.742   4.151   7.050
 9361POPC   C4B76426  15.809   4.146   7.350
 9362POPC   NC376427  35.385  36.098   5.550
 9362POPC   PO476428  35.318  36.165   5.850
 9362POPC   GL176429  35.334  36.098   6.150
 9362POPC   GL276430  35.513  36.094   6.150
 9362POPC   C1A76431  35.357  36.103   6.450
 9362POPC   D2A76432  35.335  36.101   6.750
 9362POPC   C3A76433  35.350  36.127   7.050
 9362POPC   C4A76434  35.395  36.093   7.350
 9362POPC   C1B76435  35.584  36.092   6.450
 9362POPC   C2B76436  35.634  36.012   6.750
 9362POPC   C3B76437  35.542  36.054   7.050
 9362POPC   C4B76438  35.561  36.019   7.350
 9363POPC   NC376439  27.629  33.036   5.550
 9363POPC   PO476440  27.584  33.031   5.850
 9363POPC   GL176441  27.554  33.013   6.150
 9363POPC   GL276442  27.525  33.150   6.150
 9363POPC   C1A76443  27.631  32.986   6.450
 9363POPC   D2A76444  27.614  33.017   6.750
 9363POPC   C3A76445  27.563  32.986   7.050
 9363POPC   C4A76446  27.554  33.046   7.350
 9363POPC   C1B76447  27.455  33.229   6.450
 9363POPC   C2B76448  27.391  33.231   6.750
 9363POPC   C3B76449  27.453  33.198   7.050
 9363POPC   C4B76450  27.417  33.232   7.350
 9364POPC   NC376451  40.824  10.568   5.550
 9364POPC   PO476452  40.734  10.569   5.850
 9364POPC   GL176453  40.749  10.556   6.150
 9364POPC   GL276454  40.911  10.538   6.150
 9364POPC   C1A76455  40.782  10.507   6.450
 9364POPC   D2A76456  40.746  10.497   6.750
 9364POPC   C3A76457  40.786  10.501   7.050
 9364POPC   C4A76458  40.760  10.481   7.350
 9364POPC   C1B76459  41.078  10.540   6.450
 9364POPC   C2B76460  41.067  10.557   6.750
 9364POPC   C3B76461  41.015  10.574   7.050
 9364POPC   C4B76462  41.023  10.544   7.350
 9365POPC   NC376463  15.949  43.153   5.550
 9365POPC   PO476464  15.986  43.066   5.850
 9365POPC   GL176465  15.988  43.067   6.150
 9365POPC   GL276466  15.892  43.039   6.150
 9365POPC   C1A76467  15.949  43.151   6.450
 9365POPC   D2A76468  15.922  43.098   6.750
 9365POPC   C3A76469  15.993  43.095   7.050
 9365POPC   C4A76470  15.938  43.099   7.350
 9365POPC   C1B76471  15.771  42.956   6.450
 9365POPC   C2B76472  15.816  42.926   6.750
 9365POPC   C3B76473  15.830  42.945   7.050
 9365POPC   C4B76474  15.779  42.941   7.350
 9366POPC   NC376475  34.615  32.231   5.550
 9366POPC   PO476476  34.590  32.267   5.850
 9366POPC   GL176477  34.614  32.269   6.150
 9366POPC   GL276478  34.649  32.360   6.150
 9366POPC   C1A76479  34.615  32.277   6.450
 9366POPC   D2A76480  34.573  32.238   6.750
 9366POPC   C3A76481  34.601  32.259   7.050
 9366POPC   C4A76482  34.578  32.248   7.350
 9366POPC   C1B76483  34.699  32.442   6.450
 9366POPC   C2B76484  34.670  32.432   6.750
 9366POPC   C3B76485  34.723  32.495   7.050
 9366POPC   C4B76486  34.745  32.470   7.350
 9367POPC   NC376487  33.758  15.229   5.550
 9367POPC   PO476488  33.781  15.216   5.850
 9367POPC   GL176489  33.774  15.228   6.150
 9367POPC   GL276490  33.753  15.045   6.150
 9367POPC   C1A76491  33.815  15.217   6.450
 9367POPC   D2A76492  33.811  15.177   6.750
 9367POPC   C3A76493  33.790  15.147   7.050
 9367POPC   C4A76494  33.758  15.157   7.350
 9367POPC   C1B76495  33.742  14.944   6.450
 9367POPC   C2B76496  33.753  14.940   6.750
 9367POPC   C3B76497  33.738  14.919   7.050
 9367POPC   C4B76498  33.766  14.975   7.350
 9368POPC   NC376499  18.250  21.413   5.550
 9368POPC   PO476500  18.309  21.366   5.850
 9368POPC   GL176501  18.247  21.390   6.150
 9368POPC   GL276502  18.136  21.387   6.150
 9368POPC   C1A76503  18.327  21.431   6.450
 9368POPC   D2A76504  18.279  21.415   6.750
 9368POPC   C3A76505  18.320  21.350   7.050
 9368POPC   C4A76506  18.251  21.343   7.350
 9368POPC   C1B76507  18.047  21.270   6.450
 9368POPC   C2B76508  18.051  21.314   6.750
 9368POPC   C3B76509  18.095  21.326   7.050
 9368POPC   C4B76510  18.064  21.337   7.350
 9369POPC   NC376511  41.557  13.621   5.550
 9369POPC   PO476512  41.593  13.650   5.850
 9369POPC   GL176513  41.531  13.623   6.150
 9369POPC   GL276514  41.444  13.634   6.150
 9369POPC   C1A76515  41.607  13.653   6.450
 9369POPC   D2A76516  41.555  13.593   6.750
 9369POPC   C3A76517  41.583  13.670   7.050
 9369POPC   C4A76518  41.558  13.626   7.350
 9369POPC   C1B76519  41.290  13.639   6.450
 9369POPC   C2B76520  41.354  13.644   6.750
 9369POPC   C3B76521  41.308  13.681   7.050
 9369POPC   C4B76522  41.312  13.707   7.350
 9370POPC   NC376523  38.441   4.343   5.550
 9370POPC   PO476524  38.462   4.318   5.850
 9370POPC   GL176525  38.430   4.312   6.150
 9370POPC   GL276526  38.301   4.350   6.150
 9370POPC   C1A76527  38.423   4.326   6.450
 9370POPC   D2A76528  38.465   4.272   6.750
 9370POPC   C3A76529  38.452   4.275   7.050
 9370POPC   C4A76530  38.497   4.362   7.350
 9370POPC   C1B76531  38.225   4.297   6.450
 9370POPC   C2B76532  38.179   4.295   6.750
 9370POPC   C3B76533  38.251   4.347   7.050
 9370POPC   C4B76534  38.165   4.297   7.350
 9371POPC   NC376535  18.292  26.044   5.550
 9371POPC   PO476536  18.285  26.067   5.850
 9371POPC   GL176537  18.261  26.061   6.150
 9371POPC   GL276538  18.393  25.992   6.150
 9371POPC   C1A76539  18.246  26.052   6.450
 9371POPC   D2A76540  18.293  26.037   6.750
 9371POPC   C3A76541  18.278  25.996   7.050
 9371POPC   C4A76542  18.251  25.999   7.350
 9371POPC   C1B76543  18.562  26.033   6.450
 9371POPC   C2B76544  18.565  26.049   6.750
 9371POPC   C3B76545  18.581  26.050   7.050
 9371POPC   C4B76546  18.523  26.042   7.350
 9372POPC   NC376547  37.723  32.297   5.550
 9372POPC   PO476548  37.672  32.298   5.850
 9372POPC   GL176549  37.671  32.216   6.150
 9372POPC   GL276550  37.665  32.171   6.150
 9372POPC   C1A76551  37.684  32.271   6.450
 9372POPC   D2A76552  37.652  32.232   6.750
 9372POPC   C3A76553  37.658  32.232   7.050
 9372POPC   C4A76554  37.679  32.285   7.350
 9372POPC   C1B76555  37.633  32.037   6.450
 9372POPC   C2B76556  37.716  32.037   6.750
 9372POPC   C3B76557  37.625  32.042   7.050
 9372POPC   C4B76558  37.638  32.047   7.350
 9373POPC   NC376559  17.479   0.442   5.550
 9373POPC   PO476560  17.524   0.464   5.850
 9373POPC   GL176561  17.470   0.464   6.150
 9373POPC   GL276562  17.373   0.511   6.150
 9373POPC   C1A76563  17.487   0.392   6.450
 9373POPC   D2A76564  17.483   0.454   6.750
 9373POPC   C3A76565  17.475   0.442   7.050
 9373POPC   C4A76566  17.492   0.485   7.350
 9373POPC   C1B76567  17.284   0.594   6.450
 9373POPC   C2B76568  17.265   0.533   6.750
 9373POPC   C3B76569  17.302   0.593   7.050
 9373POPC   C4B76570  17.242   0.520   7.350
 9374POPC   NC376571   1.947  26.076   5.550
 9374POPC   PO476572   2.026  26.051   5.850
 9374POPC   GL176573   1.951  26.021   6.150
 9374POPC   GL276574   1.976  26.119   6.150
 9374POPC   C1A76575   1.964  26.048   6.450
 9374POPC   D2A76576   1.946  26.070   6.750
 9374POPC   C3A76577   2.008  25.999   7.050
 9374POPC   C4A76578   1.959  26.025   7.350
 9374POPC   C1B76579   1.878  26.289   6.450
 9374POPC   C2B76580   1.928  26.277   6.750
 9374POPC   C3B76581   1.902  26.258   7.050
 9374POPC   C4B76582   1.926  26.225   7.350
 9375POPC   NC376583   2.793  15.163   5.550
 9375POPC   PO476584   2.743  15.131   5.850
 9375POPC   GL176585   2.752  15.165   6.150
 9375POPC   GL276586   2.665  15.243   6.150
 9375POPC   C1A76587   2.766  15.229   6.450
 9375POPC   D2A76588   2.763  15.199   6.750
 9375POPC   C3A76589   2.808  15.156   7.050
 9375POPC   C4A76590   2.775  15.214   7.350
 9375POPC   C1B76591   2.649  15.350   6.450
 9375POPC   C2B76592   2.654  15.367   6.750
 9375POPC   C3B76593   2.640  15.403   7.050
 9375POPC   C4B76594   2.583  15.362   7.350
 9376POPC   NC376595   0.428   1.997   5.550
 9376POPC   PO476596   0.435   2.027   5.850
 9376POPC   GL176597   0.465   1.994   6.150
 9376POPC   GL276598   0.363   2.157   6.150
 9376POPC   C1A76599   0.463   2.011   6.450
 9376POPC   D2A76600   0.453   2.017   6.750
 9376POPC   C3A76601   0.397   2.015   7.050
 9376POPC   C4A76602   0.463   1.965   7.350
 9376POPC   C1B76603   0.370   2.207   6.450
 9376POPC   C2B76604   0.395   2.251   6.750
 9376POPC   C3B76605   0.350   2.255   7.050
 9376POPC   C4B76606   0.400   2.211   7.350
 9377POPC   NC376607  44.682  19.814   5.550
 9377POPC   PO476608  44.651  19.826   5.850
 9377POPC   GL176609  44.664  19.825   6.150
 9377POPC   GL276610  44.741  19.946   6.150
 9377POPC   C1A76611  44.634  19.863   6.450
 9377POPC   D2A76612  44.633  19.876   6.750
 9377POPC   C3A76613  44.643  19.854   7.050
 9377POPC   C4A76614  44.625  19.813   7.350
 9377POPC   C1B76615  44.782  20.061   6.450
 9377POPC   C2B76616  44.794  20.018   6.750
 9377POPC   C3B76617  44.774  19.984   7.050
 9377POPC   C4B76618  44.816  20.041   7.350
 9378POPC   NC376619   6.686  39.242   5.550
 9378POPC   PO476620   6.603  39.228   5.850
 9378POPC   GL176621   6.676  39.238   6.150
 9378POPC   GL276622   6.733  39.144   6.150
 9378POPC   C1A76623   6.610  39.243   6.450
 9378POPC   D2A76624   6.633  39.236   6.750
 9378POPC   C3A76625   6.666  39.239   7.050
 9378POPC   C4A76626   6.647  39.208   7.350
 9378POPC   C1B76627   6.807  39.041   6.450
 9378POPC   C2B76628   6.889  39.096   6.750
 9378POPC   C3B76629   6.802  39.130   7.050
 9378POPC   C4B76630   6.839  39.129   7.350
 9379POPC   NC376631  18.252  26.795   5.550
 9379POPC   PO476632  18.240  26.814   5.850
 9379POPC   GL176633  18.261  26.849   6.150
 9379POPC   GL276634  18.354  26.879   6.150
 9379POPC   C1A76635  18.245  26.836   6.450
 9379POPC   D2A76636  18.288  26.837   6.750
 9379POPC   C3A76637  18.292  26.808   7.050
 9379POPC   C4A76638  18.314  26.805   7.350
 9379POPC   C1B76639  18.516  26.902   6.450
 9379POPC   C2B76640  18.471  26.915   6.750
 9379POPC   C3B76641  18.484  26.950   7.050
 9379POPC   C4B76642  18.522  26.902   7.350
 9380POPC   NC376643  23.737  11.312   5.550
 9380POPC   PO476644  23.676  11.300   5.850
 9380POPC   GL176645  23.673  11.330   6.150
 9380POPC   GL276646  23.665  11.223   6.150
 9380POPC   C1A76647  23.706  11.322   6.450
 9380POPC   D2A76648  23.680  11.255   6.750
 9380POPC   C3A76649  23.678  11.274   7.050
 9380POPC   C4A76650  23.700  11.288   7.350
 9380POPC   C1B76651  23.597  11.094   6.450
 9380POPC   C2B76652  23.655  11.054   6.750
 9380POPC   C3B76653  23.590  11.087   7.050
 9380POPC   C4B76654  23.619  11.080   7.350
 9381POPC   NC376655  43.090   4.306   5.550
 9381POPC   PO476656  43.107   4.366   5.850
 9381POPC   GL176657  43.115   4.290   6.150
 9381POPC   GL276658  43.112   4.241   6.150
 9381POPC   C1A76659  43.078   4.342   6.450
 9381POPC   D2A76660  43.128   4.344   6.750
 9381POPC   C3A76661  43.103   4.299   7.050
 9381POPC   C4A76662  43.138   4.313   7.350
 9381POPC   C1B76663  43.180   4.067   6.450
 9381POPC   C2B76664  43.182   4.026   6.750
 9381POPC   C3B76665  43.168   4.090   7.050
 9381POPC   C4B76666  43.147   4.101   7.350
 9382POPC   NC376667   0.400  27.613   5.550
 9382POPC   PO476668   0.420  27.560   5.850
 9382POPC   GL176669   0.486  27.573   6.150
 9382POPC   GL276670   0.385  27.664   6.150
 9382POPC   C1A76671   0.403  27.594   6.450
 9382POPC   D2A76672   0.478  27.624   6.750
 9382POPC   C3A76673   0.427  27.608   7.050
 9382POPC   C4A76674   0.442  27.611   7.350
 9382POPC   C1B76675   0.272  27.843   6.450
 9382POPC   C2B76676   0.280  27.786   6.750
 9382POPC   C3B76677   0.319  27.821   7.050
 9382POPC   C4B76678   0.342  27.813   7.350
 9383POPC   NC376679   1.190  14.368   5.550
 9383POPC   PO476680   1.166  14.451   5.850
 9383POPC   GL176681   1.204  14.388   6.150
 9383POPC   GL276682   1.365  14.321   6.150
 9383POPC   C1A76683   1.207  14.399   6.450
 9383POPC   D2A76684   1.228  14.421   6.750
 9383POPC   C3A76685   1.254  14.426   7.050
 9383POPC   C4A76686   1.224  14.437   7.350
 9383POPC   C1B76687   1.475  14.354   6.450
 9383POPC   C2B76688   1.497  14.370   6.750
 9383POPC   C3B76689   1.479  14.284   7.050
 9383POPC   C4B76690   1.473  14.376   7.350
 9384POPC   NC376691  19.033   4.361   5.550
 9384POPC   PO476692  19.010   4.298   5.850
 9384POPC   GL176693  19.033   4.272   6.150
 9384POPC   GL276694  19.140   4.195   6.150
 9384POPC   C1A76695  19.066   4.361   6.450
 9384POPC   D2A76696  19.013   4.358   6.750
 9384POPC   C3A76697  19.068   4.309   7.050
 9384POPC   C4A76698  19.081   4.302   7.350
 9384POPC   C1B76699  19.108   4.048   6.450
 9384POPC   C2B76700  19.134   4.078   6.750
 9384POPC   C3B76701  19.122   4.106   7.050
 9384POPC   C4B76702  19.168   4.083   7.350
 9385POPC   NC376703  12.822  19.870   5.550
 9385POPC   PO476704  12.878  19.811   5.850
 9385POPC   GL176705  12.875  19.830   6.150
 9385POPC   GL276706  12.985  19.861   6.150
 9385POPC   C1A76707  12.847  19.809   6.450
 9385POPC   D2A76708  12.862  19.828   6.750
 9385POPC   C3A76709  12.899  19.807   7.050
 9385POPC   C4A76710  12.834  19.833   7.350
 9385POPC   C1B76711  13.037  19.884   6.450
 9385POPC   C2B76712  13.041  19.960   6.750
 9385POPC   C3B76713  13.095  19.913   7.050
 9385POPC   C4B76714  13.116  19.883   7.350
 9386POPC   NC376715  27.616   5.098   5.550
 9386POPC   PO476716  27.582   5.141   5.850
 9386POPC   GL176717  27.557   5.105   6.150
 9386POPC   GL276718  27.482   5.046   6.150
 9386POPC   C1A76719  27.593   5.066   6.450
 9386POPC   D2A76720  27.634   5.101   6.750
 9386POPC   C3A76721  27.629   5.081   7.050
 9386POPC   C4A76722  27.548   5.089   7.350
 9386POPC   C1B76723  27.336   5.075   6.450
 9386POPC   C2B76724  27.362   5.083   6.750
 9386POPC   C3B76725  27.326   5.066   7.050
 9386POPC   C4B76726  27.299   5.129   7.350
 9387POPC   NC376727  44.681  26.769   5.550
 9387POPC   PO476728  44.671  26.781   5.850
 9387POPC   GL176729  44.641  26.851   6.150
 9387POPC   GL276730  44.554  26.847   6.150
 9387POPC   C1A76731  44.700  26.864   6.450
 9387POPC   D2A76732  44.690  26.793   6.750
 9387POPC   C3A76733  44.685  26.857   7.050
 9387POPC   C4A76734  44.696  26.774   7.350
 9387POPC   C1B76735  44.425  26.859   6.450
 9387POPC   C2B76736  44.427  26.844   6.750
 9387POPC   C3B76737  44.452  26.835   7.050
 9387POPC   C4B76738  44.437  26.789   7.350
 9388POPC   NC376739  33.778  38.461   5.550
 9388POPC   PO476740  33.770  38.494   5.850
 9388POPC   GL176741  33.768  38.453   6.150
 9388POPC   GL276742  33.672  38.568   6.150
 9388POPC   C1A76743  33.794  38.429   6.450
 9388POPC   D2A76744  33.839  38.456   6.750
 9388POPC   C3A76745  33.783  38.479   7.050
 9388POPC   C4A76746  33.784  38.480   7.350
 9388POPC   C1B76747  33.610  38.649   6.450
 9388POPC   C2B76748  33.639  38.608   6.750
 9388POPC   C3B76749  33.615  38.692   7.050
 9388POPC   C4B76750  33.661  38.663   7.350
 9389POPC   NC376751  31.442  12.857   5.550
 9389POPC   PO476752  31.424  12.856   5.850
 9389POPC   GL176753  31.432  12.838   6.150
 9389POPC   GL276754  31.444  13.015   6.150
 9389POPC   C1A76755  31.512  12.841   6.450
 9389POPC   D2A76756  31.423  12.860   6.750
 9389POPC   C3A76757  31.484  12.855   7.050
 9389POPC   C4A76758  31.469  12.837   7.350
 9389POPC   C1B76759  31.458  13.079   6.450
 9389POPC   C2B76760  31.453  13.077   6.750
 9389POPC   C3B76761  31.443  13.052   7.050
 9389POPC   C4B76762  31.430  13.113   7.350
 9390POPC   NC376763  39.229  43.088   5.550
 9390POPC   PO476764  39.192  43.102   5.850
 9390POPC   GL176765  39.217  43.082   6.150
 9390POPC   GL276766  39.128  43.025   6.150
 9390POPC   C1A76767  39.211  43.160   6.450
 9390POPC   D2A76768  39.253  43.151   6.750
 9390POPC   C3A76769  39.183  43.105   7.050
 9390POPC   C4A76770  39.267  43.118   7.350
 9390POPC   C1B76771  39.039  43.008   6.450
 9390POPC   C2B76772  38.997  42.951   6.750
 9390POPC   C3B76773  38.989  42.952   7.050
 9390POPC   C4B76774  39.030  42.943   7.350
 9391POPC   NC376775  27.625  33.798   5.550
 9391POPC   PO476776  27.616  33.831   5.850
 9391POPC   GL176777  27.599  33.773   6.150
 9391POPC   GL276778  27.709  33.780   6.150
 9391POPC   C1A76779  27.642  33.771   6.450
 9391POPC   D2A76780  27.581  33.754   6.750
 9391POPC   C3A76781  27.570  33.773   7.050
 9391POPC   C4A76782  27.606  33.754   7.350
 9391POPC   C1B76783  27.859  33.820   6.450
 9391POPC   C2B76784  27.889  33.848   6.750
 9391POPC   C3B76785  27.796  33.805   7.050
 9391POPC   C4B76786  27.805  33.786   7.350
 9392POPC   NC376787   0.479  30.692   5.550
 9392POPC   PO476788   0.485  30.712   5.850
 9392POPC   GL176789   0.414  30.729   6.150
 9392POPC   GL276790   0.571  30.652   6.150
 9392POPC   C1A76791   0.475  30.667   6.450
 9392POPC   D2A76792   0.438  30.665   6.750
 9392POPC   C3A76793   0.463  30.701   7.050
 9392POPC   C4A76794   0.470  30.667   7.350
 9392POPC   C1B76795   0.659  30.502   6.450
 9392POPC   C2B76796   0.622  30.577   6.750
 9392POPC   C3B76797   0.575  30.481   7.050
 9392POPC   C4B76798   0.602  30.518   7.350
 9393POPC   NC376799  38.451   2.741   5.550
 9393POPC   PO476800  38.407   2.719   5.850
 9393POPC   GL176801  38.407   2.765   6.150
 9393POPC   GL276802  38.333   2.718   6.150
 9393POPC   C1A76803  38.454   2.763   6.450
 9393POPC   D2A76804  38.459   2.741   6.750
 9393POPC   C3A76805  38.426   2.741   7.050
 9393POPC   C4A76806  38.498   2.769   7.350
 9393POPC   C1B76807  38.313   2.556   6.450
 9393POPC   C2B76808  38.301   2.560   6.750
 9393POPC   C3B76809  38.306   2.552   7.050
 9393POPC   C4B76810  38.300   2.551   7.350
 9394POPC   NC376811  10.563   4.300   5.550
 9394POPC   PO476812  10.523   4.319   5.850
 9394POPC   GL176813  10.495   4.335   6.150
 9394POPC   GL276814  10.418   4.424   6.150
 9394POPC   C1A76815  10.526   4.307   6.450
 9394POPC   D2A76816  10.484   4.302   6.750
 9394POPC   C3A76817  10.478   4.291   7.050
 9394POPC   C4A76818  10.562   4.318   7.350
 9394POPC   C1B76819  10.272   4.490   6.450
 9394POPC   C2B76820  10.359   4.445   6.750
 9394POPC   C3B76821  10.331   4.436   7.050
 9394POPC   C4B76822  10.369   4.482   7.350
 9395POPC   NC376823  29.948  32.241   5.550
 9395POPC   PO476824  29.926  32.247   5.850
 9395POPC   GL176825  29.913  32.279   6.150
 9395POPC   GL276826  29.795  32.281   6.150
 9395POPC   C1A76827  29.918  32.233   6.450
 9395POPC   D2A76828  29.932  32.284   6.750
 9395POPC   C3A76829  29.970  32.241   7.050
 9395POPC   C4A76830  29.967  32.270   7.350
 9395POPC   C1B76831  29.701  32.371   6.450
 9395POPC   C2B76832  29.698  32.353   6.750
 9395POPC   C3B76833  29.692  32.426   7.050
 9395POPC   C4B76834  29.684  32.416   7.350
 9396POPC   NC376835  21.391   5.864   5.550
 9396POPC   PO476836  21.345   5.820   5.850
 9396POPC   GL176837  21.365   5.846   6.150
 9396POPC   GL276838  21.305   5.963   6.150
 9396POPC   C1A76839  21.368   5.898   6.450
 9396POPC   D2A76840  21.385   5.904   6.750
 9396POPC   C3A76841  21.386   5.878   7.050
 9396POPC   C4A76842  21.430   5.850   7.350
 9396POPC   C1B76843  21.302   6.049   6.450
 9396POPC   C2B76844  21.252   6.106   6.750
 9396POPC   C3B76845  21.273   6.082   7.050
 9396POPC   C4B76846  21.297   6.053   7.350
 9397POPC   NC376847   1.959   7.417   5.550
 9397POPC   PO476848   1.963   7.401   5.850
 9397POPC   GL176849   1.974   7.434   6.150
 9397POPC   GL276850   1.893   7.454   6.150
 9397POPC   C1A76851   2.016   7.461   6.450
 9397POPC   D2A76852   1.966   7.381   6.750
 9397POPC   C3A76853   1.963   7.447   7.050
 9397POPC   C4A76854   1.961   7.417   7.350
 9397POPC   C1B76855   1.814   7.531   6.450
 9397POPC   C2B76856   1.811   7.579   6.750
 9397POPC   C3B76857   1.725   7.505   7.050
 9397POPC   C4B76858   1.789   7.537   7.350
 9398POPC   NC376859   0.421  26.053   5.550
 9398POPC   PO476860   0.427  26.008   5.850
 9398POPC   GL176861   0.431  26.057   6.150
 9398POPC   GL276862   0.364  26.055   6.150
 9398POPC   C1A76863   0.467  26.024   6.450
 9398POPC   D2A76864   0.457  26.018   6.750
 9398POPC   C3A76865   0.470  26.038   7.050
 9398POPC   C4A76866   0.449  26.035   7.350
 9398POPC   C1B76867   0.242  26.077   6.450
 9398POPC   C2B76868   0.154  26.100   6.750
 9398POPC   C3B76869   0.197  26.134   7.050
 9398POPC   C4B76870   0.224  26.093   7.350
 9399POPC   NC376871   0.417  25.240   5.550
 9399POPC   PO476872   0.487  25.235   5.850
 9399POPC   GL176873   0.464  25.262   6.150
 9399POPC   GL276874   0.529  25.345   6.150
 9399POPC   C1A76875   0.407  25.276   6.450
 9399POPC   D2A76876   0.486  25.227   6.750
 9399POPC   C3A76877   0.391  25.295   7.050
 9399POPC   C4A76878   0.425  25.277   7.350
 9399POPC   C1B76879   0.691  25.334   6.450
 9399POPC   C2B76880   0.691  25.330   6.750
 9399POPC   C3B76881   0.652  25.353   7.050
 9399POPC   C4B76882   0.663  25.362   7.350
 9400POPC   NC376883  41.545  34.574   5.550
 9400POPC   PO476884  41.535  34.527   5.850
 9400POPC   GL176885  41.538  34.538   6.150
 9400POPC   GL276886  41.685  34.565   6.150
 9400POPC   C1A76887  41.529  34.552   6.450
 9400POPC   D2A76888  41.561  34.626   6.750
 9400POPC   C3A76889  41.560  34.540   7.050
 9400POPC   C4A76890  41.578  34.553   7.350
 9400POPC   C1B76891  41.774  34.592   6.450
 9400POPC   C2B76892  41.845  34.525   6.750
 9400POPC   C3B76893  41.849  34.574   7.050
 9400POPC   C4B76894  41.776  34.611   7.350
 9401POPC   NC376895  27.558  39.214   5.550
 9401POPC   PO476896  27.640  39.232   5.850
 9401POPC   GL176897  27.630  39.239   6.150
 9401POPC   GL276898  27.449  39.220   6.150
 9401POPC   C1A76899  27.640  39.253   6.450
 9401POPC   D2A76900  27.594  39.253   6.750
 9401POPC   C3A76901  27.612  39.227   7.050
 9401POPC   C4A76902  27.571  39.252   7.350
 9401POPC   C1B76903  27.374  39.286   6.450
 9401POPC   C2B76904  27.330  39.210   6.750
 9401POPC   C3B76905  27.348  39.202   7.050
 9401POPC   C4B76906  27.383  39.211   7.350
 9402POPC   NC376907  33.011  10.515   5.550
 9402POPC   PO476908  33.004  10.571   5.850
 9402POPC   GL176909  32.997  10.510   6.150
 9402POPC   GL276910  32.971  10.429   6.150
 9402POPC   C1A76911  33.025  10.547   6.450
 9402POPC   D2A76912  33.065  10.568   6.750
 9402POPC   C3A76913  32.983  10.532   7.050
 9402POPC   C4A76914  33.029  10.495   7.350
 9402POPC   C1B76915  32.996  10.241   6.450
 9402POPC   C2B76916  32.956  10.278   6.750
 9402POPC   C3B76917  32.986  10.309   7.050
 9402POPC   C4B76918  32.972  10.255   7.350
 9403POPC   NC376919  30.691  31.517   5.550
 9403POPC   PO476920  30.693  31.477   5.850
 9403POPC   GL176921  30.724  31.457   6.150
 9403POPC   GL276922  30.787  31.376   6.150
 9403POPC   C1A76923  30.714  31.522   6.450
 9403POPC   D2A76924  30.731  31.500   6.750
 9403POPC   C3A76925  30.732  31.458   7.050
 9403POPC   C4A76926  30.688  31.430   7.350
 9403POPC   C1B76927  30.852  31.244   6.450
 9403POPC   C2B76928  30.782  31.245   6.750
 9403POPC   C3B76929  30.785  31.250   7.050
 9403POPC   C4B76930  30.782  31.282   7.350
 9404POPC   NC376931  37.693  40.806   5.550
 9404POPC   PO476932  37.659  40.751   5.850
 9404POPC   GL176933  37.677  40.794   6.150
 9404POPC   GL276934  37.740  40.882   6.150
 9404POPC   C1A76935  37.697  40.777   6.450
 9404POPC   D2A76936  37.633  40.806   6.750
 9404POPC   C3A76937  37.656  40.833   7.050
 9404POPC   C4A76938  37.645  40.774   7.350
 9404POPC   C1B76939  37.891  41.014   6.450
 9404POPC   C2B76940  37.867  41.000   6.750
 9404POPC   C3B76941  37.866  40.965   7.050
 9404POPC   C4B76942  37.814  40.934   7.350
 9405POPC   NC376943  42.376  32.265   5.550
 9405POPC   PO476944  42.317  32.275   5.850
 9405POPC   GL176945  42.364  32.289   6.150
 9405POPC   GL276946  42.249  32.167   6.150
 9405POPC   C1A76947  42.288  32.201   6.450
 9405POPC   D2A76948  42.340  32.218   6.750
 9405POPC   C3A76949  42.305  32.254   7.050
 9405POPC   C4A76950  42.379  32.289   7.350
 9405POPC   C1B76951  42.116  32.097   6.450
 9405POPC   C2B76952  42.110  32.123   6.750
 9405POPC   C3B76953  42.088  32.086   7.050
 9405POPC   C4B76954  42.105  32.125   7.350
 9406POPC   NC376955  44.628  20.570   5.550
 9406POPC   PO476956  44.634  20.649   5.850
 9406POPC   GL176957  44.640  20.589   6.150
 9406POPC   GL276958  44.770  20.548   6.150
 9406POPC   C1A76959  44.709  20.600   6.450
 9406POPC   D2A76960  44.626  20.660   6.750
 9406POPC   C3A76961  44.711  20.639   7.050
 9406POPC   C4A76962  44.669  20.570   7.350
 9406POPC   C1B76963  44.861  20.488   6.450
 9406POPC   C2B76964  44.919  20.469   6.750
 9406POPC   C3B76965  44.876  20.479   7.050
 9406POPC   C4B76966  44.852  20.435   7.350
 9407POPC   NC376967   5.069  11.298   5.550
 9407POPC   PO476968   5.090  11.270   5.850
 9407POPC   GL176969   5.099  11.299   6.150
 9407POPC   GL276970   5.192  11.297   6.150
 9407POPC   C1A76971   5.142  11.269   6.450
 9407POPC   D2A76972   5.092  11.283   6.750
 9407POPC   C3A76973   5.053  11.348   7.050
 9407POPC   C4A76974   5.112  11.272   7.350
 9407POPC   C1B76975   5.300  11.424   6.450
 9407POPC   C2B76976   5.301  11.410   6.750
 9407POPC   C3B76977   5.332  11.345   7.050
 9407POPC   C4B76978   5.368  11.386   7.350
 9408POPC   NC376979  43.123   2.040   5.550
 9408POPC   PO476980  43.116   1.976   5.850
 9408POPC   GL176981  43.141   2.017   6.150
 9408POPC   GL276982  43.020   1.841   6.150
 9408POPC   C1A76983  43.073   2.037   6.450
 9408POPC   D2A76984  43.103   2.022   6.750
 9408POPC   C3A76985  43.154   2.014   7.050
 9408POPC   C4A76986  43.134   1.968   7.350
 9408POPC   C1B76987  42.966   1.775   6.450
 9408POPC   C2B76988  42.994   1.758   6.750
 9408POPC   C3B76989  42.976   1.759   7.050
 9408POPC   C4B76990  43.021   1.781   7.350
 9409POPC   NC376991  29.165   8.965   5.550
 9409POPC   PO476992  29.112   9.014   5.850
 9409POPC   GL176993  29.123   9.008   6.150
 9409POPC   GL276994  29.004   8.871   6.150
 9409POPC   C1A76995  29.105   8.962   6.450
 9409POPC   D2A76996  29.103   8.985   6.750
 9409POPC   C3A76997  29.165   8.984   7.050
 9409POPC   C4A76998  29.118   8.994   7.350
 9409POPC   C1B76999  28.928   8.810   6.450
 9409POPC   C2B77000  28.943   8.830   6.750
 9409POPC   C3B77001  28.938   8.851   7.050
 9409POPC   C4B77002  28.914   8.863   7.350
 9410POPC   NC377003  12.079  37.663   5.550
 9410POPC   PO477004  12.037  37.677   5.850
 9410POPC   GL177005  12.029  37.655   6.150
 9410POPC   GL277006  12.163  37.655   6.150
 9410POPC   C1A77007  12.027  37.712   6.450
 9410POPC   D2A77008  12.040  37.649   6.750
 9410POPC   C3A77009  12.092  37.718   7.050
 9410POPC   C4A77010  12.069  37.729   7.350
 9410POPC   C1B77011  12.361  37.628   6.450
 9410POPC   C2B77012  12.368  37.570   6.750
 9410POPC   C3B77013  12.335  37.580   7.050
 9410POPC   C4B77014  12.295  37.585   7.350
 9411POPC   NC377015   1.245  43.924   5.550
 9411POPC   PO477016   1.206  43.907   5.850
 9411POPC   GL177017   1.194  43.913   6.150
 9411POPC   GL277018   1.227  44.058   6.150
 9411POPC   C1A77019   1.238  43.930   6.450
 9411POPC   D2A77020   1.221  43.930   6.750
 9411POPC   C3A77021   1.203  43.926   7.050
 9411POPC   C4A77022   1.259  43.898   7.350
 9411POPC   C1B77023   1.232  44.136   6.450
 9411POPC   C2B77024   1.239  44.166   6.750
 9411POPC   C3B77025   1.315  44.127   7.050
 9411POPC   C4B77026   1.288  44.139   7.350
 9412POPC   NC377027  23.704  23.763   5.550
 9412POPC   PO477028  23.745  23.730   5.850
 9412POPC   GL177029  23.682  23.700   6.150
 9412POPC   GL277030  23.789  23.630   6.150
 9412POPC   C1A77031  23.716  23.726   6.450
 9412POPC   D2A77032  23.695  23.724   6.750
 9412POPC   C3A77033  23.762  23.690   7.050
 9412POPC   C4A77034  23.759  23.761   7.350
 9412POPC   C1B77035  23.867  23.601   6.450
 9412POPC   C2B77036  23.953  23.513   6.750
 9412POPC   C3B77037  23.872  23.574   7.050
 9412POPC   C4B77038  23.902  23.593   7.350
 9413POPC   NC377039  29.872   0.460   5.550
 9413POPC   PO477040  29.940   0.483   5.850
 9413POPC   GL177041  29.963   0.435   6.150
 9413POPC   GL277042  29.991   0.477   6.150
 9413POPC   C1A77043  29.947   0.483   6.450
 9413POPC   D2A77044  29.911   0.471   6.750
 9413POPC   C3A77045  29.949   0.412   7.050
 9413POPC   C4A77046  29.944   0.483   7.350
 9413POPC   C1B77047  30.146   0.616   6.450
 9413POPC   C2B77048  30.076   0.583   6.750
 9413POPC   C3B77049  30.132   0.617   7.050
 9413POPC   C4B77050  30.121   0.606   7.350
 9414POPC   NC377051  15.968   1.964   5.550
 9414POPC   PO477052  15.951   1.998   5.850
 9414POPC   GL177053  15.905   1.994   6.150
 9414POPC   GL277054  16.001   2.110   6.150
 9414POPC   C1A77055  16.003   1.996   6.450
 9414POPC   D2A77056  15.974   2.015   6.750
 9414POPC   C3A77057  15.968   2.018   7.050
 9414POPC   C4A77058  15.995   2.028   7.350
 9414POPC   C1B77059  16.148   2.150   6.450
 9414POPC   C2B77060  16.102   2.131   6.750
 9414POPC   C3B77061  16.119   2.131   7.050
 9414POPC   C4B77062  16.155   2.135   7.350
 9415POPC   NC377063  29.165  14.425   5.550
 9415POPC   PO477064  29.195  14.409   5.850
 9415POPC   GL177065  29.101  14.430   6.150
 9415POPC   GL277066  29.132  14.529   6.150
 9415POPC   C1A77067  29.101  14.415   6.450
 9415POPC   D2A77068  29.168  14.422   6.750
 9415POPC   C3A77069  29.167  14.357   7.050
 9415POPC   C4A77070  29.112  14.450   7.350
 9415POPC   C1B77071  29.177  14.640   6.450
 9415POPC   C2B77072  29.170  14.611   6.750
 9415POPC   C3B77073  29.217  14.639   7.050
 9415POPC   C4B77074  29.191  14.666   7.350
 9416POPC   NC377075  11.251  26.830   5.550
 9416POPC   PO477076  11.315  26.833   5.850
 9416POPC   GL177077  11.278  26.830   6.150
 9416POPC   GL277078  11.293  26.678   6.150
 9416POPC   C1A77079  11.302  26.863   6.450
 9416POPC   D2A77080  11.257  26.821   6.750
 9416POPC   C3A77081  11.336  26.844   7.050
 9416POPC   C4A77082  11.252  26.839   7.350
 9416POPC   C1B77083  11.357  26.543   6.450
 9416POPC   C2B77084  11.391  26.545   6.750
 9416POPC   C3B77085  11.373  26.536   7.050
 9416POPC   C4B77086  11.350  26.528   7.350
 9417POPC   NC377087  40.760  12.065   5.550
 9417POPC   PO477088  40.811  12.053   5.850
 9417POPC   GL177089  40.769  12.083   6.150
 9417POPC   GL277090  40.701  12.187   6.150
 9417POPC   C1A77091  40.760  12.103   6.450
 9417POPC   D2A77092  40.797  12.072   6.750
 9417POPC   C3A77093  40.778  12.067   7.050
 9417POPC   C4A77094  40.782  12.037   7.350
 9417POPC   C1B77095  40.649  12.256   6.450
 9417POPC   C2B77096  40.639  12.304   6.750
 9417POPC   C3B77097  40.624  12.276   7.050
 9417POPC   C4B77098  40.682  12.294   7.350
 9418POPC   NC377099  43.081  29.894   5.550
 9418POPC   PO477100  43.068  29.890   5.850
 9418POPC   GL177101  43.160  29.935   6.150
 9418POPC   GL277102  43.212  29.951   6.150
 9418POPC   C1A77103  43.097  29.945   6.450
 9418POPC   D2A77104  43.062  29.915   6.750
 9418POPC   C3A77105  43.100  29.915   7.050
 9418POPC   C4A77106  43.070  29.876   7.350
 9418POPC   C1B77107  43.335  29.960   6.450
 9418POPC   C2B77108  43.352  29.913   6.750
 9418POPC   C3B77109  43.333  29.993   7.050
 9418POPC   C4B77110  43.328  30.005   7.350
 9419POPC   NC377111   3.541   5.065   5.550
 9419POPC   PO477112   3.553   5.071   5.850
 9419POPC   GL177113   3.545   5.106   6.150
 9419POPC   GL277114   3.438   5.069   6.150
 9419POPC   C1A77115   3.493   5.080   6.450
 9419POPC   D2A77116   3.591   5.071   6.750
 9419POPC   C3A77117   3.507   5.057   7.050
 9419POPC   C4A77118   3.497   5.073   7.350
 9419POPC   C1B77119   3.297   5.021   6.450
 9419POPC   C2B77120   3.316   4.966   6.750
 9419POPC   C3B77121   3.280   5.048   7.050
 9419POPC   C4B77122   3.300   4.957   7.350
 9420POPC   NC377123  30.726  32.204   5.550
 9420POPC   PO477124  30.708  32.239   5.850
 9420POPC   GL177125  30.665  32.241   6.150
 9420POPC   GL277126  30.603  32.267   6.150
 9420POPC   C1A77127  30.674  32.274   6.450
 9420POPC   D2A77128  30.658  32.270   6.750
 9420POPC   C3A77129  30.723  32.266   7.050
 9420POPC   C4A77130  30.737  32.245   7.350
 9420POPC   C1B77131  30.427  32.295   6.450
 9420POPC   C2B77132  30.488  32.295   6.750
 9420POPC   C3B77133  30.499  32.344   7.050
 9420POPC   C4B77134  30.460  32.316   7.350
 9421POPC   NC377135   9.718  31.458   5.550
 9421POPC   PO477136   9.729  31.511   5.850
 9421POPC   GL177137   9.773  31.496   6.150
 9421POPC   GL277138   9.904  31.419   6.150
 9421POPC   C1A77139   9.791  31.452   6.450
 9421POPC   D2A77140   9.748  31.487   6.750
 9421POPC   C3A77141   9.754  31.458   7.050
 9421POPC   C4A77142   9.784  31.510   7.350
 9421POPC   C1B77143   9.968  31.432   6.450
 9421POPC   C2B77144  10.005  31.480   6.750
 9421POPC   C3B77145   9.970  31.503   7.050
 9421POPC   C4B77146  10.030  31.449   7.350
 9422POPC   NC377147  22.191  19.791   5.550
 9422POPC   PO477148  22.191  19.849   5.850
 9422POPC   GL177149  22.195  19.859   6.150
 9422POPC   GL277150  22.239  19.945   6.150
 9422POPC   C1A77151  22.198  19.807   6.450
 9422POPC   D2A77152  22.158  19.846   6.750
 9422POPC   C3A77153  22.144  19.877   7.050
 9422POPC   C4A77154  22.195  19.810   7.350
 9422POPC   C1B77155  22.274  20.018   6.450
 9422POPC   C2B77156  22.286  20.006   6.750
 9422POPC   C3B77157  22.338  20.011   7.050
 9422POPC   C4B77158  22.309  19.988   7.350
 9423POPC   NC377159  33.054  36.920   5.550
 9423POPC   PO477160  33.068  36.888   5.850
 9423POPC   GL177161  33.061  36.889   6.150
 9423POPC   GL277162  33.014  37.042   6.150
 9423POPC   C1A77163  33.037  36.950   6.450
 9423POPC   D2A77164  32.978  36.940   6.750
 9423POPC   C3A77165  32.978  36.911   7.050
 9423POPC   C4A77166  33.064  36.921   7.350
 9423POPC   C1B77167  32.929  37.101   6.450
 9423POPC   C2B77168  32.914  37.098   6.750
 9423POPC   C3B77169  32.978  37.123   7.050
 9423POPC   C4B77170  32.907  37.176   7.350
 9424POPC   NC377171  33.030  29.884   5.550
 9424POPC   PO477172  33.019  29.954   5.850
 9424POPC   GL177173  32.989  29.896   6.150
 9424POPC   GL277174  33.137  29.815   6.150
 9424POPC   C1A77175  33.020  29.914   6.450
 9424POPC   D2A77176  33.069  29.915   6.750
 9424POPC   C3A77177  33.020  29.934   7.050
 9424POPC   C4A77178  33.053  29.885   7.350
 9424POPC   C1B77179  33.240  29.727   6.450
 9424POPC   C2B77180  33.225  29.769   6.750
 9424POPC   C3B77181  33.258  29.731   7.050
 9424POPC   C4B77182  33.272  29.786   7.350
 9425POPC   NC377183   5.837   8.236   5.550
 9425POPC   PO477184   5.908   8.179   5.850
 9425POPC   GL177185   5.872   8.218   6.150
 9425POPC   GL277186   5.755   8.131   6.150
 9425POPC   C1A77187   5.861   8.239   6.450
 9425POPC   D2A77188   5.896   8.150   6.750
 9425POPC   C3A77189   5.880   8.216   7.050
 9425POPC   C4A77190   5.841   8.193   7.350
 9425POPC   C1B77191   5.654   8.146   6.450
 9425POPC   C2B77192   5.660   8.074   6.750
 9425POPC   C3B77193   5.674   8.133   7.050
 9425POPC   C4B77194   5.664   8.080   7.350
 9426POPC   NC377195  36.141  20.625   5.550
 9426POPC   PO477196  36.174  20.657   5.850
 9426POPC   GL177197  36.098  20.605   6.150
 9426POPC   GL277198  36.239  20.724   6.150
 9426POPC   C1A77199  36.131  20.614   6.450
 9426POPC   D2A77200  36.145  20.578   6.750
 9426POPC   C3A77201  36.128  20.656   7.050
 9426POPC   C4A77202  36.120  20.568   7.350
 9426POPC   C1B77203  36.346  20.732   6.450
 9426POPC   C2B77204  36.368  20.703   6.750
 9426POPC   C3B77205  36.361  20.758   7.050
 9426POPC   C4B77206  36.323  20.764   7.350
 9427POPC   NC377207  39.213   9.771   5.550
 9427POPC   PO477208  39.215   9.771   5.850
 9427POPC   GL177209  39.242   9.704   6.150
 9427POPC   GL277210  39.228   9.874   6.150
 9427POPC   C1A77211  39.215   9.729   6.450
 9427POPC   D2A77212  39.259   9.741   6.750
 9427POPC   C3A77213  39.244   9.761   7.050
 9427POPC   C4A77214  39.187   9.764   7.350
 9427POPC   C1B77215  39.154  10.011   6.450
 9427POPC   C2B77216  39.169   9.990   6.750
 9427POPC   C3B77217  39.171   9.987   7.050
 9427POPC   C4B77218  39.152   9.998   7.350
 9428POPC   NC377219   8.975  30.662   5.550
 9428POPC   PO477220   8.929  30.674   5.850
 9428POPC   GL177221   9.021  30.680   6.150
 9428POPC   GL277222   9.006  30.582   6.150
 9428POPC   C1A77223   8.988  30.745   6.450
 9428POPC   D2A77224   8.967  30.735   6.750
 9428POPC   C3A77225   9.009  30.686   7.050
 9428POPC   C4A77226   8.986  30.673   7.350
 9428POPC   C1B77227   9.033  30.445   6.450
 9428POPC   C2B77228   9.045  30.434   6.750
 9428POPC   C3B77229   8.974  30.430   7.050
 9428POPC   C4B77230   9.042  30.427   7.350
 9429POPC   NC377231  41.604  16.722   5.550
 9429POPC   PO477232  41.569  16.773   5.850
 9429POPC   GL177233  41.570  16.739   6.150
 9429POPC   GL277234  41.644  16.711   6.150
 9429POPC   C1A77235  41.571  16.686   6.450
 9429POPC   D2A77236  41.577  16.720   6.750
 9429POPC   C3A77237  41.523  16.723   7.050
 9429POPC   C4A77238  41.560  16.772   7.350
 9429POPC   C1B77239  41.836  16.686   6.450
 9429POPC   C2B77240  41.757  16.651   6.750
 9429POPC   C3B77241  41.799  16.653   7.050
 9429POPC   C4B77242  41.826  16.645   7.350
 9430POPC   NC377243  19.065   1.957   5.550
 9430POPC   PO477244  19.090   2.038   5.850
 9430POPC   GL177245  19.052   1.963   6.150
 9430POPC   GL277246  19.184   1.906   6.150
 9430POPC   C1A77247  19.085   2.023   6.450
 9430POPC   D2A77248  19.107   2.011   6.750
 9430POPC   C3A77249  19.079   1.992   7.050
 9430POPC   C4A77250  19.072   1.943   7.350
 9430POPC   C1B77251  19.270   1.814   6.450
 9430POPC   C2B77252  19.258   1.909   6.750
 9430POPC   C3B77253  19.276   1.863   7.050
 9430POPC   C4B77254  19.223   1.820   7.350
 9431POPC   NC377255  42.352  19.057   5.550
 9431POPC   PO477256  42.301  19.009   5.850
 9431POPC   GL177257  42.358  19.056   6.150
 9431POPC   GL277258  42.387  18.935   6.150
 9431POPC   C1A77259  42.307  19.095   6.450
 9431POPC   D2A77260  42.370  19.085   6.750
 9431POPC   C3A77261  42.355  19.058   7.050
 9431POPC   C4A77262  42.310  19.072   7.350
 9431POPC   C1B77263  42.469  18.856   6.450
 9431POPC   C2B77264  42.451  18.893   6.750
 9431POPC   C3B77265  42.502  18.836   7.050
 9431POPC   C4B77266  42.440  18.878   7.350
 9432POPC   NC377267  24.452  43.914   5.550
 9432POPC   PO477268  24.449  43.849   5.850
 9432POPC   GL177269  24.492  43.844   6.150
 9432POPC   GL277270  24.520  43.717   6.150
 9432POPC   C1A77271  24.457  43.838   6.450
 9432POPC   D2A77272  24.533  43.896   6.750
 9432POPC   C3A77273  24.513  43.911   7.050
 9432POPC   C4A77274  24.446  43.869   7.350
 9432POPC   C1B77275  24.579  43.684   6.450
 9432POPC   C2B77276  24.558  43.638   6.750
 9432POPC   C3B77277  24.537  43.690   7.050
 9432POPC   C4B77278  24.534  43.618   7.350
 9433POPC   NC377279  41.540  29.150   5.550
 9433POPC   PO477280  41.597  29.163   5.850
 9433POPC   GL177281  41.519  29.166   6.150
 9433POPC   GL277282  41.550  29.243   6.150
 9433POPC   C1A77283  41.582  29.130   6.450
 9433POPC   D2A77284  41.549  29.152   6.750
 9433POPC   C3A77285  41.529  29.095   7.050
 9433POPC   C4A77286  41.583  29.190   7.350
 9433POPC   C1B77287  41.481  29.376   6.450
 9433POPC   C2B77288  41.542  29.399   6.750
 9433POPC   C3B77289  41.487  29.361   7.050
 9433POPC   C4B77290  41.530  29.428   7.350
 9434POPC   NC377291   9.780  42.353   5.550
 9434POPC   PO477292   9.716  42.313   5.850
 9434POPC   GL177293   9.750  42.376   6.150
 9434POPC   GL277294   9.588  42.354   6.150
 9434POPC   C1A77295   9.758  42.333   6.450
 9434POPC   D2A77296   9.715  42.348   6.750
 9434POPC   C3A77297   9.737  42.296   7.050
 9434POPC   C4A77298   9.739  42.294   7.350
 9434POPC   C1B77299   9.466  42.350   6.450
 9434POPC   C2B77300   9.505  42.407   6.750
 9434POPC   C3B77301   9.498  42.363   7.050
 9434POPC   C4B77302   9.466  42.444   7.350
 9435POPC   NC377303  26.061  43.147   5.550
 9435POPC   PO477304  26.025  43.139   5.850
 9435POPC   GL177305  26.057  43.148   6.150
 9435POPC   GL277306  25.924  43.230   6.150
 9435POPC   C1A77307  26.035  43.144   6.450
 9435POPC   D2A77308  26.049  43.109   6.750
 9435POPC   C3A77309  26.078  43.098   7.050
 9435POPC   C4A77310  26.065  43.104   7.350
 9435POPC   C1B77311  25.876  43.328   6.450
 9435POPC   C2B77312  25.913  43.330   6.750
 9435POPC   C3B77313  25.908  43.331   7.050
 9435POPC   C4B77314  25.821  43.269   7.350
 9436POPC   NC377315  38.470   6.662   5.550
 9436POPC   PO477316  38.457   6.682   5.850
 9436POPC   GL177317  38.466   6.627   6.150
 9436POPC   GL277318  38.312   6.561   6.150
 9436POPC   C1A77319  38.430   6.668   6.450
 9436POPC   D2A77320  38.413   6.616   6.750
 9436POPC   C3A77321  38.420   6.615   7.050
 9436POPC   C4A77322  38.411   6.684   7.350
 9436POPC   C1B77323  38.201   6.504   6.450
 9436POPC   C2B77324  38.210   6.482   6.750
 9436POPC   C3B77325  38.274   6.548   7.050
 9436POPC   C4B77326  38.252   6.515   7.350
 9437POPC   NC377327  40.010  11.277   5.550
 9437POPC   PO477328  40.048  11.278   5.850
 9437POPC   GL177329  40.035  11.340   6.150
 9437POPC   GL277330  40.153  11.355   6.150
 9437POPC   C1A77331  40.004  11.334   6.450
 9437POPC   D2A77332  40.010  11.300   6.750
 9437POPC   C3A77333  40.030  11.270   7.050
 9437POPC   C4A77334  40.040  11.276   7.350
 9437POPC   C1B77335  40.192  11.359   6.450
 9437POPC   C2B77336  40.196  11.398   6.750
 9437POPC   C3B77337  40.265  11.356   7.050
 9437POPC   C4B77338  40.254  11.378   7.350
 9438POPC   NC377339  36.950  11.341   5.550
 9438POPC   PO477340  36.909  11.303   5.850
 9438POPC   GL177341  36.937  11.266   6.150
 9438POPC   GL277342  36.915  11.439   6.150
 9438POPC   C1A77343  36.880  11.256   6.450
 9438POPC   D2A77344  36.929  11.310   6.750
 9438POPC   C3A77345  36.933  11.339   7.050
 9438POPC   C4A77346  36.872  11.291   7.350
 9438POPC   C1B77347  36.933  11.584   6.450
 9438POPC   C2B77348  36.959  11.563   6.750
 9438POPC   C3B77349  36.936  11.567   7.050
 9438POPC   C4B77350  36.919  11.578   7.350
 9439POPC   NC377351  13.637  14.446   5.550
 9439POPC   PO477352  13.592  14.382   5.850
 9439POPC   GL177353  13.581  14.430   6.150
 9439POPC   GL277354  13.513  14.520   6.150
 9439POPC   C1A77355  13.641  14.397   6.450
 9439POPC   D2A77356  13.673  14.383   6.750
 9439POPC   C3A77357  13.672  14.400   7.050
 9439POPC   C4A77358  13.589  14.394   7.350
 9439POPC   C1B77359  13.455  14.627   6.450
 9439POPC   C2B77360  13.471  14.592   6.750
 9439POPC   C3B77361  13.451  14.617   7.050
 9439POPC   C4B77362  13.400  14.619   7.350
 9440POPC   NC377363   6.641  21.339   5.550
 9440POPC   PO477364   6.647  21.355   5.850
 9440POPC   GL177365   6.614  21.411   6.150
 9440POPC   GL277366   6.667  21.244   6.150
 9440POPC   C1A77367   6.596  21.342   6.450
 9440POPC   D2A77368   6.623  21.367   6.750
 9440POPC   C3A77369   6.625  21.418   7.050
 9440POPC   C4A77370   6.656  21.380   7.350
 9440POPC   C1B77371   6.778  21.135   6.450
 9440POPC   C2B77372   6.750  21.137   6.750
 9440POPC   C3B77373   6.736  21.127   7.050
 9440POPC   C4B77374   6.707  21.179   7.350
 9441POPC   NC377375  23.677  22.985   5.550
 9441POPC   PO477376  23.664  22.973   5.850
 9441POPC   GL177377  23.702  22.944   6.150
 9441POPC   GL277378  23.760  22.789   6.150
 9441POPC   C1A77379  23.693  22.940   6.450
 9441POPC   D2A77380  23.735  22.913   6.750
 9441POPC   C3A77381  23.759  22.945   7.050
 9441POPC   C4A77382  23.678  22.913   7.350
 9441POPC   C1B77383  23.861  22.735   6.450
 9441POPC   C2B77384  23.824  22.681   6.750
 9441POPC   C3B77385  23.845  22.757   7.050
 9441POPC   C4B77386  23.851  22.712   7.350
 9442POPC   NC377387  14.408   5.895   5.550
 9442POPC   PO477388  14.439   5.874   5.850
 9442POPC   GL177389  14.369   5.916   6.150
 9442POPC   GL277390  14.397   5.714   6.150
 9442POPC   C1A77391  14.438   5.854   6.450
 9442POPC   D2A77392  14.385   5.839   6.750
 9442POPC   C3A77393  14.431   5.828   7.050
 9442POPC   C4A77394  14.379   5.872   7.350
 9442POPC   C1B77395  14.384   5.641   6.450
 9442POPC   C2B77396  14.391   5.599   6.750
 9442POPC   C3B77397  14.404   5.671   7.050
 9442POPC   C4B77398  14.358   5.623   7.350
 9443POPC   NC377399  16.683  19.025   5.550
 9443POPC   PO477400  16.780  19.025   5.850
 9443POPC   GL177401  16.693  19.022   6.150
 9443POPC   GL277402  16.716  18.948   6.150
 9443POPC   C1A77403  16.688  19.100   6.450
 9443POPC   D2A77404  16.718  19.057   6.750
 9443POPC   C3A77405  16.774  19.072   7.050
 9443POPC   C4A77406  16.738  19.016   7.350
 9443POPC   C1B77407  16.734  18.838   6.450
 9443POPC   C2B77408  16.727  18.835   6.750
 9443POPC   C3B77409  16.754  18.817   7.050
 9443POPC   C4B77410  16.735  18.825   7.350
 9444POPC   NC377411  38.433   5.051   5.550
 9444POPC   PO477412  38.434   5.046   5.850
 9444POPC   GL177413  38.443   5.094   6.150
 9444POPC   GL277414  38.541   5.235   6.150
 9444POPC   C1A77415  38.466   5.137   6.450
 9444POPC   D2A77416  38.483   5.083   6.750
 9444POPC   C3A77417  38.416   5.060   7.050
 9444POPC   C4A77418  38.497   5.055   7.350
 9444POPC   C1B77419  38.533   5.286   6.450
 9444POPC   C2B77420  38.540   5.295   6.750
 9444POPC   C3B77421  38.532   5.324   7.050
 9444POPC   C4B77422  38.546   5.352   7.350
 9445POPC   NC377423  32.229  15.189   5.550
 9445POPC   PO477424  32.242  15.176   5.850
 9445POPC   GL177425  32.260  15.196   6.150
 9445POPC   GL277426  32.204  15.293   6.150
 9445POPC   C1A77427  32.201  15.133   6.450
 9445POPC   D2A77428  32.227  15.171   6.750
 9445POPC   C3A77429  32.239  15.161   7.050
 9445POPC   C4A77430  32.243  15.133   7.350
 9445POPC   C1B77431  32.205  15.403   6.450
 9445POPC   C2B77432  32.196  15.456   6.750
 9445POPC   C3B77433  32.173  15.383   7.050
 9445POPC   C4B77434  32.235  15.381   7.350
 9446POPC   NC377435  22.203   7.465   5.550
 9446POPC   PO477436  22.156   7.412   5.850
 9446POPC   GL177437  22.141   7.414   6.150
 9446POPC   GL277438  22.025   7.470   6.150
 9446POPC   C1A77439  22.136   7.390   6.450
 9446POPC   D2A77440  22.127   7.397   6.750
 9446POPC   C3A77441  22.173   7.395   7.050
 9446POPC   C4A77442  22.128   7.410   7.350
 9446POPC   C1B77443  21.941   7.539   6.450
 9446POPC   C2B77444  21.962   7.543   6.750
 9446POPC   C3B77445  21.897   7.500   7.050
 9446POPC   C4B77446  21.901   7.572   7.350
 9447POPC   NC377447  43.122  21.368   5.550
 9447POPC   PO477448  43.106  21.434   5.850
 9447POPC   GL177449  43.113  21.412   6.150
 9447POPC   GL277450  43.034  21.297   6.150
 9447POPC   C1A77451  43.076  21.432   6.450
 9447POPC   D2A77452  43.094  21.371   6.750
 9447POPC   C3A77453  43.078  21.421   7.050
 9447POPC   C4A77454  43.139  21.431   7.350
 9447POPC   C1B77455  42.996  21.200   6.450
 9447POPC   C2B77456  42.965  21.186   6.750
 9447POPC   C3B77457  42.904  21.165   7.050
 9447POPC   C4B77458  43.000  21.224   7.350
 9448POPC   NC377459  39.245  12.087   5.550
 9448POPC   PO477460  39.190  12.095   5.850
 9448POPC   GL177461  39.242  12.054   6.150
 9448POPC   GL277462  39.148  12.103   6.150
 9448POPC   C1A77463  39.244  12.106   6.450
 9448POPC   D2A77464  39.252  12.038   6.750
 9448POPC   C3A77465  39.196  12.040   7.050
 9448POPC   C4A77466  39.247  12.052   7.350
 9448POPC   C1B77467  38.995  12.086   6.450
 9448POPC   C2B77468  38.998  12.040   6.750
 9448POPC   C3B77469  39.028  12.057   7.050
 9448POPC   C4B77470  38.990  12.135   7.350
 9449POPC   NC377471  32.254  29.115   5.550
 9449POPC   PO477472  32.288  29.193   5.850
 9449POPC   GL177473  32.208  29.139   6.150
 9449POPC   GL277474  32.266  29.050   6.150
 9449POPC   C1A77475  32.218  29.186   6.450
 9449POPC   D2A77476  32.286  29.186   6.750
 9449POPC   C3A77477  32.206  29.123   7.050
 9449POPC   C4A77478  32.265  29.099   7.350
 9449POPC   C1B77479  32.363  28.972   6.450
 9449POPC   C2B77480  32.416  28.912   6.750
 9449POPC   C3B77481  32.368  28.892   7.050
 9449POPC   C4B77482  32.425  28.917   7.350
 9450POPC   NC377483  22.185  10.554   5.550
 9450POPC   PO477484  22.114  10.570   5.850
 9450POPC   GL177485  22.156  10.540   6.150
 9450POPC   GL277486  22.282  10.467   6.150
 9450POPC   C1A77487  22.165  10.487   6.450
 9450POPC   D2A77488  22.167  10.501   6.750
 9450POPC   C3A77489  22.193  10.572   7.050
 9450POPC   C4A77490  22.156  10.536   7.350
 9450POPC   C1B77491  22.369  10.483   6.450
 9450POPC   C2B77492  22.434  10.413   6.750
 9450POPC   C3B77493  22.393  10.497   7.050
 9450POPC   C4B77494  22.367  10.433   7.350
 9451POPC   NC377495  38.464  29.940   5.550
 9451POPC   PO477496  38.476  29.965   5.850
 9451POPC   GL177497  38.503  29.939   6.150
 9451POPC   GL277498  38.586  29.808   6.150
 9451POPC   C1A77499  38.453  29.948   6.450
 9451POPC   D2A77500  38.422  29.915   6.750
 9451POPC   C3A77501  38.418  29.961   7.050
 9451POPC   C4A77502  38.434  29.889   7.350
 9451POPC   C1B77503  38.684  29.803   6.450
 9451POPC   C2B77504  38.704  29.816   6.750
 9451POPC   C3B77505  38.658  29.826   7.050
 9451POPC   C4B77506  38.695  29.787   7.350
 9452POPC   NC377507  25.279   6.676   5.550
 9452POPC   PO477508  25.305   6.674   5.850
 9452POPC   GL177509  25.313   6.643   6.150
 9452POPC   GL277510  25.360   6.622   6.150
 9452POPC   C1A77511  25.273   6.613   6.450
 9452POPC   D2A77512  25.225   6.664   6.750
 9452POPC   C3A77513  25.220   6.619   7.050
 9452POPC   C4A77514  25.273   6.677   7.350
 9452POPC   C1B77515  25.539   6.626   6.450
 9452POPC   C2B77516  25.531   6.624   6.750
 9452POPC   C3B77517  25.468   6.628   7.050
 9452POPC   C4B77518  25.474   6.667   7.350
 9453POPC   NC377519   5.853  40.047   5.550
 9453POPC   PO477520   5.885  39.990   5.850
 9453POPC   GL177521   5.916  40.007   6.150
 9453POPC   GL277522   5.841  40.125   6.150
 9453POPC   C1A77523   5.902  39.980   6.450
 9453POPC   D2A77524   5.914  40.051   6.750
 9453POPC   C3A77525   5.862  40.004   7.050
 9453POPC   C4A77526   5.830  40.010   7.350
 9453POPC   C1B77527   5.740  40.218   6.450
 9453POPC   C2B77528   5.807  40.211   6.750
 9453POPC   C3B77529   5.800  40.224   7.050
 9453POPC   C4B77530   5.789  40.225   7.350
 9454POPC   NC377531  43.868   4.270   5.550
 9454POPC   PO477532  43.839   4.293   5.850
 9454POPC   GL177533  43.925   4.308   6.150
 9454POPC   GL277534  43.754   4.245   6.150
 9454POPC   C1A77535  43.895   4.301   6.450
 9454POPC   D2A77536  43.857   4.334   6.750
 9454POPC   C3A77537  43.879   4.306   7.050
 9454POPC   C4A77538  43.915   4.320   7.350
 9454POPC   C1B77539  43.621   4.289   6.450
 9454POPC   C2B77540  43.603   4.221   6.750
 9454POPC   C3B77541  43.680   4.235   7.050
 9454POPC   C4B77542  43.656   4.235   7.350
 9455POPC   NC377543  42.352  29.153   5.550
 9455POPC   PO477544  42.306  29.142   5.850
 9455POPC   GL177545  42.377  29.129   6.150
 9455POPC   GL277546  42.253  29.280   6.150
 9455POPC   C1A77547  42.381  29.164   6.450
 9455POPC   D2A77548  42.370  29.182   6.750
 9455POPC   C3A77549  42.337  29.116   7.050
 9455POPC   C4A77550  42.331  29.107   7.350
 9455POPC   C1B77551  42.227  29.305   6.450
 9455POPC   C2B77552  42.182  29.335   6.750
 9455POPC   C3B77553  42.165  29.327   7.050
 9455POPC   C4B77554  42.151  29.311   7.350
 9456POPC   NC377555  19.070  18.279   5.550
 9456POPC   PO477556  19.036  18.323   5.850
 9456POPC   GL177557  19.092  18.233   6.150
 9456POPC   GL277558  18.914  18.258   6.150
 9456POPC   C1A77559  19.040  18.255   6.450
 9456POPC   D2A77560  19.104  18.244   6.750
 9456POPC   C3A77561  19.041  18.284   7.050
 9456POPC   C4A77562  19.062  18.251   7.350
 9456POPC   C1B77563  18.822  18.256   6.450
 9456POPC   C2B77564  18.821  18.186   6.750
 9456POPC   C3B77565  18.827  18.220   7.050
 9456POPC   C4B77566  18.849  18.225   7.350
 9457POPC   NC377567   7.463  34.544   5.550
 9457POPC   PO477568   7.446  34.529   5.850
 9457POPC   GL177569   7.386  34.582   6.150
 9457POPC   GL277570   7.291  34.588   6.150
 9457POPC   C1A77571   7.455  34.582   6.450
 9457POPC   D2A77572   7.467  34.539   6.750
 9457POPC   C3A77573   7.417  34.593   7.050
 9457POPC   C4A77574   7.444  34.531   7.350
 9457POPC   C1B77575   7.199  34.620   6.450
 9457POPC   C2B77576   7.228  34.693   6.750
 9457POPC   C3B77577   7.164  34.636   7.050
 9457POPC   C4B77578   7.201  34.656   7.350
 9458POPC   NC377579  26.797  36.873   5.550
 9458POPC   PO477580  26.783  36.942   5.850
 9458POPC   GL177581  26.774  36.879   6.150
 9458POPC   GL277582  26.888  36.950   6.150
 9458POPC   C1A77583  26.811  36.933   6.450
 9458POPC   D2A77584  26.771  36.945   6.750
 9458POPC   C3A77585  26.814  36.914   7.050
 9458POPC   C4A77586  26.850  36.863   7.350
 9458POPC   C1B77587  27.045  37.010   6.450
 9458POPC   C2B77588  27.086  37.013   6.750
 9458POPC   C3B77589  27.079  37.066   7.050
 9458POPC   C4B77590  27.045  37.041   7.350
 9459POPC   NC377591  19.873  34.568   5.550
 9459POPC   PO477592  19.824  34.604   5.850
 9459POPC   GL177593  19.829  34.589   6.150
 9459POPC   GL277594  19.798  34.480   6.150
 9459POPC   C1A77595  19.815  34.554   6.450
 9459POPC   D2A77596  19.851  34.535   6.750
 9459POPC   C3A77597  19.806  34.601   7.050
 9459POPC   C4A77598  19.866  34.539   7.350
 9459POPC   C1B77599  19.670  34.436   6.450
 9459POPC   C2B77600  19.652  34.358   6.750
 9459POPC   C3B77601  19.647  34.386   7.050
 9459POPC   C4B77602  19.672  34.407   7.350
 9460POPC   NC377603  25.240   8.155   5.550
 9460POPC   PO477604  25.283   8.244   5.850
 9460POPC   GL177605  25.267   8.207   6.150
 9460POPC   GL277606  25.211   8.319   6.150
 9460POPC   C1A77607  25.237   8.229   6.450
 9460POPC   D2A77608  25.278   8.148   6.750
 9460POPC   C3A77609  25.306   8.229   7.050
 9460POPC   C4A77610  25.279   8.219   7.350
 9460POPC   C1B77611  25.068   8.383   6.450
 9460POPC   C2B77612  25.106   8.351   6.750
 9460POPC   C3B77613  25.094   8.408   7.050
 9460POPC   C4B77614  25.150   8.409   7.350
 9461POPC   NC377615   4.341   4.327   5.550
 9461POPC   PO477616   4.310   4.276   5.850
 9461POPC   GL177617   4.299   4.280   6.150
 9461POPC   GL277618   4.293   4.220   6.150
 9461POPC   C1A77619   4.279   4.345   6.450
 9461POPC   D2A77620   4.341   4.363   6.750
 9461POPC   C3A77621   4.316   4.288   7.050
 9461POPC   C4A77622   4.312   4.269   7.350
 9461POPC   C1B77623   4.305   4.078   6.450
 9461POPC   C2B77624   4.302   4.065   6.750
 9461POPC   C3B77625   4.342   4.080   7.050
 9461POPC   C4B77626   4.259   4.083   7.350
 9462POPC   NC377627   4.354  14.448   5.550
 9462POPC   PO477628   4.324  14.438   5.850
 9462POPC   GL177629   4.285  14.358   6.150
 9462POPC   GL277630   4.220  14.394   6.150
 9462POPC   C1A77631   4.316  14.420   6.450
 9462POPC   D2A77632   4.325  14.364   6.750
 9462POPC   C3A77633   4.296  14.359   7.050
 9462POPC   C4A77634   4.359  14.389   7.350
 9462POPC   C1B77635   4.080  14.388   6.450
 9462POPC   C2B77636   4.059  14.450   6.750
 9462POPC   C3B77637   4.036  14.393   7.050
 9462POPC   C4B77638   4.073  14.448   7.350
 9463POPC   NC377639   1.193  32.248   5.550
 9463POPC   PO477640   1.222  32.298   5.850
 9463POPC   GL177641   1.182  32.232   6.150
 9463POPC   GL277642   1.112  32.229   6.150
 9463POPC   C1A77643   1.203  32.281   6.450
 9463POPC   D2A77644   1.234  32.241   6.750
 9463POPC   C3A77645   1.220  32.295   7.050
 9463POPC   C4A77646   1.176  32.216   7.350
 9463POPC   C1B77647   0.922  32.226   6.450
 9463POPC   C2B77648   0.955  32.212   6.750
 9463POPC   C3B77649   0.957  32.237   7.050
 9463POPC   C4B77650   0.982  32.227   7.350
 9464POPC   NC377651  17.537   4.310   5.550
 9464POPC   PO477652  17.531   4.354   5.850
 9464POPC   GL177653  17.465   4.318   6.150
 9464POPC   GL277654  17.512   4.212   6.150
 9464POPC   C1A77655  17.489   4.323   6.450
 9464POPC   D2A77656  17.523   4.333   6.750
 9464POPC   C3A77657  17.547   4.335   7.050
 9464POPC   C4A77658  17.498   4.279   7.350
 9464POPC   C1B77659  17.544   4.088   6.450
 9464POPC   C2B77660  17.560   4.089   6.750
 9464POPC   C3B77661  17.618   4.094   7.050
 9464POPC   C4B77662  17.550   4.111   7.350
 9465POPC   NC377663  22.942   5.880   5.550
 9465POPC   PO477664  22.952   5.877   5.850
 9465POPC   GL177665  22.919   5.906   6.150
 9465POPC   GL277666  23.044   5.732   6.150
 9465POPC   C1A77667  22.967   5.857   6.450
 9465POPC   D2A77668  22.906   5.919   6.750
 9465POPC   C3A77669  22.980   5.907   7.050
 9465POPC   C4A77670  22.959   5.857   7.350
 9465POPC   C1B77671  23.082   5.681   6.450
 9465POPC   C2B77672  23.085   5.720   6.750
 9465POPC   C3B77673  23.149   5.671   7.050
 9465POPC   C4B77674  23.080   5.695   7.350
 9466POPC   NC377675  18.249  36.896   5.550
 9466POPC   PO477676  18.284  36.937   5.850
 9466POPC   GL177677  18.310  36.879   6.150
 9466POPC   GL277678  18.234  36.791   6.150
 9466POPC   C1A77679  18.274  36.885   6.450
 9466POPC   D2A77680  18.332  36.935   6.750
 9466POPC   C3A77681  18.309  36.899   7.050
 9466POPC   C4A77682  18.295  36.912   7.350
 9466POPC   C1B77683  18.308  36.695   6.450
 9466POPC   C2B77684  18.277  36.678   6.750
 9466POPC   C3B77685  18.313  36.647   7.050
 9466POPC   C4B77686  18.304  36.619   7.350
 9467POPC   NC377687   1.248   2.759   5.550
 9467POPC   PO477688   1.232   2.788   5.850
 9467POPC   GL177689   1.175   2.759   6.150
 9467POPC   GL277690   1.091   2.682   6.150
 9467POPC   C1A77691   1.241   2.806   6.450
 9467POPC   D2A77692   1.201   2.805   6.750
 9467POPC   C3A77693   1.241   2.750   7.050
 9467POPC   C4A77694   1.221   2.798   7.350
 9467POPC   C1B77695   0.985   2.610   6.450
 9467POPC   C2B77696   1.007   2.627   6.750
 9467POPC   C3B77697   1.056   2.638   7.050
 9467POPC   C4B77698   0.996   2.560   7.350
 9468POPC   NC377699  28.387  33.016   5.550
 9468POPC   PO477700  28.395  33.002   5.850
 9468POPC   GL177701  28.411  33.029   6.150
 9468POPC   GL277702  28.411  32.939   6.150
 9468POPC   C1A77703  28.377  33.001   6.450
 9468POPC   D2A77704  28.337  32.980   6.750
 9468POPC   C3A77705  28.419  33.074   7.050
 9468POPC   C4A77706  28.384  33.053   7.350
 9468POPC   C1B77707  28.417  32.797   6.450
 9468POPC   C2B77708  28.466  32.789   6.750
 9468POPC   C3B77709  28.474  32.760   7.050
 9468POPC   C4B77710  28.410  32.737   7.350
 9469POPC   NC377711  15.223  13.607   5.550
 9469POPC   PO477712  15.204  13.582   5.850
 9469POPC   GL177713  15.200  13.584   6.150
 9469POPC   GL277714  15.222  13.490   6.150
 9469POPC   C1A77715  15.181  13.624   6.450
 9469POPC   D2A77716  15.202  13.666   6.750
 9469POPC   C3A77717  15.181  13.647   7.050
 9469POPC   C4A77718  15.136  13.667   7.350
 9469POPC   C1B77719  15.233  13.387   6.450
 9469POPC   C2B77720  15.230  13.409   6.750
 9469POPC   C3B77721  15.251  13.344   7.050
 9469POPC   C4B77722  15.201  13.396   7.350
 9470POPC   NC377723  10.513  13.676   5.550
 9470POPC   PO477724  10.500  13.657   5.850
 9470POPC   GL177725  10.569  13.617   6.150
 9470POPC   GL277726  10.482  13.754   6.150
 9470POPC   C1A77727  10.557  13.660   6.450
 9470POPC   D2A77728  10.546  13.621   6.750
 9470POPC   C3A77729  10.529  13.627   7.050
 9470POPC   C4A77730  10.568  13.591   7.350
 9470POPC   C1B77731  10.463  13.868   6.450
 9470POPC   C2B77732  10.455  13.921   6.750
 9470POPC   C3B77733  10.490  13.920   7.050
 9470POPC   C4B77734  10.487  13.857   7.350
 9471POPC   NC377735  24.511  41.522   5.550
 9471POPC   PO477736  24.472  41.525   5.850
 9471POPC   GL177737  24.487  41.571   6.150
 9471POPC   GL277738  24.506  41.415   6.150
 9471POPC   C1A77739  24.491  41.577   6.450
 9471POPC   D2A77740  24.508  41.572   6.750
 9471POPC   C3A77741  24.457  41.549   7.050
 9471POPC   C4A77742  24.519  41.514   7.350
 9471POPC   C1B77743  24.515  41.333   6.450
 9471POPC   C2B77744  24.544  41.262   6.750
 9471POPC   C3B77745  24.515  41.300   7.050
 9471POPC   C4B77746  24.541  41.317   7.350
 9472POPC   NC377747  41.565  30.654   5.550
 9472POPC   PO477748  41.552  30.664   5.850
 9472POPC   GL177749  41.583  30.737   6.150
 9472POPC   GL277750  41.462  30.648   6.150
 9472POPC   C1A77751  41.592  30.692   6.450
 9472POPC   D2A77752  41.553  30.706   6.750
 9472POPC   C3A77753  41.570  30.678   7.050
 9472POPC   C4A77754  41.518  30.692   7.350
 9472POPC   C1B77755  41.340  30.540   6.450
 9472POPC   C2B77756  41.319  30.597   6.750
 9472POPC   C3B77757  41.289  30.556   7.050
 9472POPC   C4B77758  41.360  30.547   7.350
 9473POPC   NC377759  13.676  29.170   5.550
 9473POPC   PO477760  13.640  29.138   5.850
 9473POPC   GL177761  13.666  29.106   6.150
 9473POPC   GL277762  13.513  29.110   6.150
 9473POPC   C1A77763  13.634  29.186   6.450
 9473POPC   D2A77764  13.594  29.126   6.750
 9473POPC   C3A77765  13.642  29.150   7.050
 9473POPC   C4A77766  13.614  29.137   7.350
 9473POPC   C1B77767  13.413  29.027   6.450
 9473POPC   C2B77768  13.465  29.048   6.750
 9473POPC   C3B77769  13.445  28.988   7.050
 9473POPC   C4B77770  13.441  28.990   7.350
 9474POPC   NC377771   8.230   7.429   5.550
 9474POPC   PO477772   8.154   7.390   5.850
 9474POPC   GL177773   8.148   7.393   6.150
 9474POPC   GL277774   8.271   7.405   6.150
 9474POPC   C1A77775   8.193   7.466   6.450
 9474POPC   D2A77776   8.163   7.405   6.750
 9474POPC   C3A77777   8.147   7.433   7.050
 9474POPC   C4A77778   8.187   7.433   7.350
 9474POPC   C1B77779   8.458   7.395   6.450
 9474POPC   C2B77780   8.487   7.397   6.750
 9474POPC   C3B77781   8.493   7.402   7.050
 9474POPC   C4B77782   8.473   7.359   7.350
 9475POPC   NC377783  43.873  36.862   5.550
 9475POPC   PO477784  43.925  36.940   5.850
 9475POPC   GL177785  43.893  36.895   6.150
 9475POPC   GL277786  44.008  36.885   6.150
 9475POPC   C1A77787  43.882  36.917   6.450
 9475POPC   D2A77788  43.842  36.919   6.750
 9475POPC   C3A77789  43.929  36.931   7.050
 9475POPC   C4A77790  43.890  36.949   7.350
 9475POPC   C1B77791  44.157  36.916   6.450
 9475POPC   C2B77792  44.113  36.920   6.750
 9475POPC   C3B77793  44.134  36.920   7.050
 9475POPC   C4B77794  44.161  36.933   7.350
 9476POPC   NC377795  37.655  36.871   5.550
 9476POPC   PO477796  37.727  36.870   5.850
 9476POPC   GL177797  37.683  36.859   6.150
 9476POPC   GL277798  37.802  37.004   6.150
 9476POPC   C1A77799  37.633  36.880   6.450
 9476POPC   D2A77800  37.709  36.875   6.750
 9476POPC   C3A77801  37.711  36.927   7.050
 9476POPC   C4A77802  37.630  36.943   7.350
 9476POPC   C1B77803  37.898  37.037   6.450
 9476POPC   C2B77804  37.914  37.072   6.750
 9476POPC   C3B77805  37.855  37.009   7.050
 9476POPC   C4B77806  37.906  37.097   7.350
 9477POPC   NC377807   8.964  34.616   5.550
 9477POPC   PO477808   8.976  34.530   5.850
 9477POPC   GL177809   8.953  34.588   6.150
 9477POPC   GL277810   9.031  34.480   6.150
 9477POPC   C1A77811   8.967  34.542   6.450
 9477POPC   D2A77812   9.012  34.547   6.750
 9477POPC   C3A77813   9.002  34.546   7.050
 9477POPC   C4A77814   8.950  34.556   7.350
 9477POPC   C1B77815   9.215  34.416   6.450
 9477POPC   C2B77816   9.192  34.382   6.750
 9477POPC   C3B77817   9.191  34.457   7.050
 9477POPC   C4B77818   9.206  34.444   7.350
 9478POPC   NC377819  36.924  22.900   5.550
 9478POPC   PO477820  36.917  22.910   5.850
 9478POPC   GL177821  36.902  22.966   6.150
 9478POPC   GL277822  36.968  23.006   6.150
 9478POPC   C1A77823  36.906  22.972   6.450
 9478POPC   D2A77824  36.932  22.957   6.750
 9478POPC   C3A77825  36.894  22.898   7.050
 9478POPC   C4A77826  36.916  22.946   7.350
 9478POPC   C1B77827  37.086  23.033   6.450
 9478POPC   C2B77828  37.134  23.128   6.750
 9478POPC   C3B77829  37.121  23.088   7.050
 9478POPC   C4B77830  37.089  23.092   7.350
 9479POPC   NC377831  38.421  26.845   5.550
 9479POPC   PO477832  38.451  26.794   5.850
 9479POPC   GL177833  38.502  26.849   6.150
 9479POPC   GL277834  38.556  26.705   6.150
 9479POPC   C1A77835  38.421  26.838   6.450
 9479POPC   D2A77836  38.407  26.788   6.750
 9479POPC   C3A77837  38.438  26.800   7.050
 9479POPC   C4A77838  38.410  26.858   7.350
 9479POPC   C1B77839  38.580  26.616   6.450
 9479POPC   C2B77840  38.576  26.611   6.750
 9479POPC   C3B77841  38.567  26.596   7.050
 9479POPC   C4B77842  38.575  26.644   7.350
 9480POPC   NC377843  26.063  10.519   5.550
 9480POPC   PO477844  26.053  10.542   5.850
 9480POPC   GL177845  26.047  10.479   6.150
 9480POPC   GL277846  26.133  10.578   6.150
 9480POPC   C1A77847  26.038  10.566   6.450
 9480POPC   D2A77848  26.013  10.558   6.750
 9480POPC   C3A77849  26.011  10.532   7.050
 9480POPC   C4A77850  26.053  10.566   7.350
 9480POPC   C1B77851  26.308  10.533   6.450
 9480POPC   C2B77852  26.286  10.511   6.750
 9480POPC   C3B77853  26.291  10.568   7.050
 9480POPC   C4B77854  26.282  10.514   7.350
 9481POPC   NC377855  19.023   9.737   5.550
 9481POPC   PO477856  19.016   9.715   5.850
 9481POPC   GL177857  19.102   9.712   6.150
 9481POPC   GL277858  19.166   9.833   6.150
 9481POPC   C1A77859  19.014   9.771   6.450
 9481POPC   D2A77860  19.108   9.712   6.750
 9481POPC   C3A77861  19.072   9.725   7.050
 9481POPC   C4A77862  19.037   9.719   7.350
 9481POPC   C1B77863  19.178   9.972   6.450
 9481POPC   C2B77864  19.150   9.980   6.750
 9481POPC   C3B77865  19.219   9.923   7.050
 9481POPC   C4B77866  19.186  10.011   7.350
 9482POPC   NC377867   8.948   9.791   5.550
 9482POPC   PO477868   8.972   9.782   5.850
 9482POPC   GL177869   9.005   9.758   6.150
 9482POPC   GL277870   8.958   9.641   6.150
 9482POPC   C1A77871   8.989   9.746   6.450
 9482POPC   D2A77872   8.975   9.703   6.750
 9482POPC   C3A77873   8.932   9.741   7.050
 9482POPC   C4A77874   9.011   9.752   7.350
 9482POPC   C1B77875   8.852   9.522   6.450
 9482POPC   C2B77876   8.894   9.540   6.750
 9482POPC   C3B77877   8.845   9.543   7.050
 9482POPC   C4B77878   8.860   9.467   7.350
 9483POPC   NC377879   6.629  29.948   5.550
 9483POPC   PO477880   6.602  29.954   5.850
 9483POPC   GL177881   6.658  29.881   6.150
 9483POPC   GL277882   6.590  29.864   6.150
 9483POPC   C1A77883   6.647  29.934   6.450
 9483POPC   D2A77884   6.646  29.928   6.750
 9483POPC   C3A77885   6.676  29.925   7.050
 9483POPC   C4A77886   6.689  29.901   7.350
 9483POPC   C1B77887   6.512  29.752   6.450
 9483POPC   C2B77888   6.450  29.711   6.750
 9483POPC   C3B77889   6.448  29.770   7.050
 9483POPC   C4B77890   6.462  29.683   7.350
 9484POPC   NC377891  24.530  20.615   5.550
 9484POPC   PO477892  24.466  20.589   5.850
 9484POPC   GL177893  24.456  20.562   6.150
 9484POPC   GL277894  24.482  20.691   6.150
 9484POPC   C1A77895  24.456  20.566   6.450
 9484POPC   D2A77896  24.487  20.590   6.750
 9484POPC   C3A77897  24.476  20.603   7.050
 9484POPC   C4A77898  24.459  20.576   7.350
 9484POPC   C1B77899  24.565  20.806   6.450
 9484POPC   C2B77900  24.497  20.850   6.750
 9484POPC   C3B77901  24.564  20.902   7.050
 9484POPC   C4B77902  24.529  20.805   7.350
 9485POPC   NC377903  36.135  15.908   5.550
 9485POPC   PO477904  36.120  16.005   5.850
 9485POPC   GL177905  36.115  15.918   6.150
 9485POPC   GL277906  36.111  15.807   6.150
 9485POPC   C1A77907  36.137  15.941   6.450
 9485POPC   D2A77908  36.092  15.978   6.750
 9485POPC   C3A77909  36.097  15.993   7.050
 9485POPC   C4A77910  36.156  15.995   7.350
 9485POPC   C1B77911  35.963  15.780   6.450
 9485POPC   C2B77912  36.019  15.693   6.750
 9485POPC   C3B77913  35.973  15.759   7.050
 9485POPC   C4B77914  35.960  15.719   7.350
 9486POPC   NC377915   4.294   9.788   5.550
 9486POPC   PO477916   4.273   9.700   5.850
 9486POPC   GL177917   4.308   9.746   6.150
 9486POPC   GL277918   4.181   9.691   6.150
 9486POPC   C1A77919   4.280   9.707   6.450
 9486POPC   D2A77920   4.281   9.749   6.750
 9486POPC   C3A77921   4.346   9.734   7.050
 9486POPC   C4A77922   4.340   9.783   7.350
 9486POPC   C1B77923   4.093   9.724   6.450
 9486POPC   C2B77924   4.112   9.757   6.750
 9486POPC   C3B77925   4.077   9.677   7.050
 9486POPC   C4B77926   4.087   9.754   7.350
 9487POPC   NC377927   8.931  33.767   5.550
 9487POPC   PO477928   8.945  33.833   5.850
 9487POPC   GL177929   8.925  33.802   6.150
 9487POPC   GL277930   8.879  33.762   6.150
 9487POPC   C1A77931   8.923  33.765   6.450
 9487POPC   D2A77932   8.957  33.809   6.750
 9487POPC   C3A77933   9.013  33.768   7.050
 9487POPC   C4A77934   9.002  33.788   7.350
 9487POPC   C1B77935   8.742  33.656   6.450
 9487POPC   C2B77936   8.751  33.651   6.750
 9487POPC   C3B77937   8.773  33.638   7.050
 9487POPC   C4B77938   8.763  33.607   7.350
 9488POPC   NC377939  36.090  26.058   5.550
 9488POPC   PO477940  36.119  26.085   5.850
 9488POPC   GL177941  36.100  26.073   6.150
 9488POPC   GL277942  36.117  25.948   6.150
 9488POPC   C1A77943  36.082  26.037   6.450
 9488POPC   D2A77944  36.079  26.022   6.750
 9488POPC   C3A77945  36.128  26.077   7.050
 9488POPC   C4A77946  36.161  26.063   7.350
 9488POPC   C1B77947  36.096  25.831   6.450
 9488POPC   C2B77948  36.062  25.828   6.750
 9488POPC   C3B77949  36.128  25.817   7.050
 9488POPC   C4B77950  36.142  25.817   7.350
 9489POPC   NC377951  37.703   3.588   5.550
 9489POPC   PO477952  37.641   3.562   5.850
 9489POPC   GL177953  37.707   3.534   6.150
 9489POPC   GL277954  37.728   3.386   6.150
 9489POPC   C1A77955  37.653   3.530   6.450
 9489POPC   D2A77956  37.706   3.555   6.750
 9489POPC   C3A77957  37.671   3.534   7.050
 9489POPC   C4A77958  37.645   3.528   7.350
 9489POPC   C1B77959  37.665   3.281   6.450
 9489POPC   C2B77960  37.654   3.283   6.750
 9489POPC   C3B77961  37.678   3.320   7.050
 9489POPC   C4B77962  37.687   3.269   7.350
 9490POPC   NC377963  21.350  12.058   5.550
 9490POPC   PO477964  21.405  12.086   5.850
 9490POPC   GL177965  21.344  12.104   6.150
 9490POPC   GL277966  21.420  12.193   6.150
 9490POPC   C1A77967  21.354  12.044   6.450
 9490POPC   D2A77968  21.348  12.065   6.750
 9490POPC   C3A77969  21.354  12.058   7.050
 9490POPC   C4A77970  21.421  12.090   7.350
 9490POPC   C1B77971  21.459  12.259   6.450
 9490POPC   C2B77972  21.447  12.332   6.750
 9490POPC   C3B77973  21.485  12.309   7.050
 9490POPC   C4B77974  21.442  12.347   7.350
 9491POPC   NC377975  32.990   6.675   5.550
 9491POPC   PO477976  33.045   6.611   5.850
 9491POPC   GL177977  33.029   6.600   6.150
 9491POPC   GL277978  33.027   6.531   6.150
 9491POPC   C1A77979  33.012   6.616   6.450
 9491POPC   D2A77980  33.005   6.679   6.750
 9491POPC   C3A77981  33.048   6.598   7.050
 9491POPC   C4A77982  33.039   6.653   7.350
 9491POPC   C1B77983  33.118   6.363   6.450
 9491POPC   C2B77984  33.039   6.424   6.750
 9491POPC   C3B77985  33.127   6.416   7.050
 9491POPC   C4B77986  33.118   6.441   7.350
 9492POPC   NC377987  26.029  19.868   5.550
 9492POPC   PO477988  26.055  19.818   5.850
 9492POPC   GL177989  26.006  19.797   6.150
 9492POPC   GL277990  26.087  19.715   6.150
 9492POPC   C1A77991  26.041  19.800   6.450
 9492POPC   D2A77992  26.023  19.785   6.750
 9492POPC   C3A77993  26.031  19.877   7.050
 9492POPC   C4A77994  26.027  19.819   7.350
 9492POPC   C1B77995  26.089  19.573   6.450
 9492POPC   C2B77996  26.064  19.630   6.750
 9492POPC   C3B77997  26.092  19.544   7.050
 9492POPC   C4B77998  26.132  19.591   7.350
 9493POPC   NC377999   3.534  12.817   5.550
 9493POPC   PO478000   3.538  12.825   5.850
 9493POPC   GL178001   3.521  12.836   6.150
 9493POPC   GL278002   3.691  12.836   6.150
 9493POPC   C1A78003   3.559  12.841   6.450
 9493POPC   D2A78004   3.573  12.858   6.750
 9493POPC   C3A78005   3.505  12.864   7.050
 9493POPC   C4A78006   3.553  12.861   7.350
 9493POPC   C1B78007   3.804  12.879   6.450
 9493POPC   C2B78008   3.771  12.852   6.750
 9493POPC   C3B78009   3.821  12.851   7.050
 9493POPC   C4B78010   3.807  12.824   7.350
 9494POPC   NC378011   8.167  12.807   5.550
 9494POPC   PO478012   8.227  12.863   5.850
 9494POPC   GL178013   8.240  12.850   6.150
 9494POPC   GL278014   8.178  12.961   6.150
 9494POPC   C1A78015   8.182  12.858   6.450
 9494POPC   D2A78016   8.223  12.808   6.750
 9494POPC   C3A78017   8.186  12.842   7.050
 9494POPC   C4A78018   8.192  12.815   7.350
 9494POPC   C1B78019   8.218  13.056   6.450
 9494POPC   C2B78020   8.265  13.092   6.750
 9494POPC   C3B78021   8.258  13.102   7.050
 9494POPC   C4B78022   8.264  13.084   7.350
 9495POPC   NC378023  19.058  14.427   5.550
 9495POPC   PO478024  19.010  14.409   5.850
 9495POPC   GL178025  19.088  14.419   6.150
 9495POPC   GL278026  19.172  14.428   6.150
 9495POPC   C1A78027  19.088  14.394   6.450
 9495POPC   D2A78028  19.094  14.385   6.750
 9495POPC   C3A78029  19.082  14.429   7.050
 9495POPC   C4A78030  19.090  14.374   7.350
 9495POPC   C1B78031  19.266  14.506   6.450
 9495POPC   C2B78032  19.263  14.479   6.750
 9495POPC   C3B78033  19.296  14.527   7.050
 9495POPC   C4B78034  19.295  14.497   7.350
 9496POPC   NC378035  33.005  14.393   5.550
 9496POPC   PO478036  33.012  14.439   5.850
 9496POPC   GL178037  33.047  14.402   6.150
 9496POPC   GL278038  32.927  14.308   6.150
 9496POPC   C1A78039  33.009  14.435   6.450
 9496POPC   D2A78040  33.054  14.370   6.750
 9496POPC   C3A78041  33.015  14.406   7.050
 9496POPC   C4A78042  33.033  14.451   7.350
 9496POPC   C1B78043  32.952  14.151   6.450
 9496POPC   C2B78044  32.918  14.204   6.750
 9496POPC   C3B78045  32.893  14.128   7.050
 9496POPC   C4B78046  32.955  14.149   7.350
 9497POPC   NC378047  19.068  12.057   5.550
 9497POPC   PO478048  19.076  12.116   5.850
 9497POPC   GL178049  19.095  12.034   6.150
 9497POPC   GL278050  18.987  12.186   6.150
 9497POPC   C1A78051  19.046  12.048   6.450
 9497POPC   D2A78052  19.065  12.038   6.750
 9497POPC   C3A78053  19.013  12.032   7.050
 9497POPC   C4A78054  19.101  12.062   7.350
 9497POPC   C1B78055  18.990  12.318   6.450
 9497POPC   C2B78056  18.977  12.325   6.750
 9497POPC   C3B78057  19.026  12.270   7.050
 9497POPC   C4B78058  18.983  12.304   7.350
 9498POPC   NC378059  12.892   4.328   5.550
 9498POPC   PO478060  12.859   4.289   5.850
 9498POPC   GL178061  12.866   4.329   6.150
 9498POPC   GL278062  12.986   4.246   6.150
 9498POPC   C1A78063  12.826   4.340   6.450
 9498POPC   D2A78064  12.804   4.270   6.750
 9498POPC   C3A78065  12.814   4.338   7.050
 9498POPC   C4A78066  12.820   4.336   7.350
 9498POPC   C1B78067  13.018   4.101   6.450
 9498POPC   C2B78068  13.052   4.147   6.750
 9498POPC   C3B78069  13.035   4.126   7.050
 9498POPC   C4B78070  13.044   4.177   7.350
 9499POPC   NC378071   1.990  11.294   5.550
 9499POPC   PO478072   1.958  11.263   5.850
 9499POPC   GL178073   1.959  11.262   6.150
 9499POPC   GL278074   2.015  11.199   6.150
 9499POPC   C1A78075   2.036  11.342   6.450
 9499POPC   D2A78076   2.022  11.263   6.750
 9499POPC   C3A78077   2.020  11.250   7.050
 9499POPC   C4A78078   1.967  11.336   7.350
 9499POPC   C1B78079   1.994  11.045   6.450
 9499POPC   C2B78080   1.998  11.042   6.750
 9499POPC   C3B78081   2.014  11.074   7.050
 9499POPC   C4B78082   1.933  11.028   7.350
 9500POPC   NC378083  43.895  29.873   5.550
 9500POPC   PO478084  43.881  29.909   5.850
 9500POPC   GL178085  43.879  29.878   6.150
 9500POPC   GL278086  43.843  30.062   6.150
 9500POPC   C1A78087  43.916  29.872   6.450
 9500POPC   D2A78088  43.882  29.895   6.750
 9500POPC   C3A78089  43.876  29.947   7.050
 9500POPC   C4A78090  43.935  29.932   7.350
 9500POPC   C1B78091  43.830  30.136   6.450
 9500POPC   C2B78092  43.866  30.207   6.750
 9500POPC   C3B78093  43.866  30.208   7.050
 9500POPC   C4B78094  43.841  30.141   7.350
 9501POPC   NC378095  35.377  29.170   5.550
 9501POPC   PO478096  35.394  29.140   5.850
 9501POPC   GL178097  35.395  29.154   6.150
 9501POPC   GL278098  35.295  29.285   6.150
 9501POPC   C1A78099  35.350  29.187   6.450
 9501POPC   D2A78100  35.334  29.112   6.750
 9501POPC   C3A78101  35.332  29.174   7.050
 9501POPC   C4A78102  35.371  29.184   7.350
 9501POPC   C1B78103  35.182  29.369   6.450
 9501POPC   C2B78104  35.255  29.364   6.750
 9501POPC   C3B78105  35.226  29.376   7.050
 9501POPC   C4B78106  35.201  29.346   7.350
 9502POPC   NC378107  39.193  36.170   5.550
 9502POPC   PO478108  39.232  36.160   5.850
 9502POPC   GL178109  39.192  36.145   6.150
 9502POPC   GL278110  39.150  35.994   6.150
 9502POPC   C1A78111  39.271  36.143   6.450
 9502POPC   D2A78112  39.253  36.133   6.750
 9502POPC   C3A78113  39.191  36.141   7.050
 9502POPC   C4A78114  39.244  36.172   7.350
 9502POPC   C1B78115  39.192  35.857   6.450
 9502POPC   C2B78116  39.105  35.857   6.750
 9502POPC   C3B78117  39.101  35.906   7.050
 9502POPC   C4B78118  39.105  35.916   7.350
 9503POPC   NC378119  13.612  42.301   5.550
 9503POPC   PO478120  13.648  42.342   5.850
 9503POPC   GL178121  13.583  42.363   6.150
 9503POPC   GL278122  13.521  42.358   6.150
 9503POPC   C1A78123  13.613  42.376   6.450
 9503POPC   D2A78124  13.659  42.341   6.750
 9503POPC   C3A78125  13.604  42.373   7.050
 9503POPC   C4A78126  13.630  42.366   7.350
 9503POPC   C1B78127  13.411  42.368   6.450
 9503POPC   C2B78128  13.372  42.414   6.750
 9503POPC   C3B78129  13.428  42.372   7.050
 9503POPC   C4B78130  13.350  42.351   7.350
 9504POPC   NC378131  19.840  12.036   5.550
 9504POPC   PO478132  19.846  12.120   5.850
 9504POPC   GL178133  19.795  12.078   6.150
 9504POPC   GL278134  19.708  12.065   6.150
 9504POPC   C1A78135  19.879  12.026   6.450
 9504POPC   D2A78136  19.816  12.057   6.750
 9504POPC   C3A78137  19.810  12.117   7.050
 9504POPC   C4A78138  19.820  12.113   7.350
 9504POPC   C1B78139  19.587  11.966   6.450
 9504POPC   C2B78140  19.623  11.939   6.750
 9504POPC   C3B78141  19.650  11.960   7.050
 9504POPC   C4B78142  19.663  11.945   7.350
 9505POPC   NC378143  18.307   3.522   5.550
 9505POPC   PO478144  18.242   3.530   5.850
 9505POPC   GL178145  18.257   3.509   6.150
 9505POPC   GL278146  18.371   3.545   6.150
 9505POPC   C1A78147  18.261   3.560   6.450
 9505POPC   D2A78148  18.250   3.583   6.750
 9505POPC   C3A78149  18.314   3.579   7.050
 9505POPC   C4A78150  18.274   3.543   7.350
 9505POPC   C1B78151  18.538   3.551   6.450
 9505POPC   C2B78152  18.524   3.503   6.750
 9505POPC   C3B78153  18.493   3.520   7.050
 9505POPC   C4B78154  18.554   3.523   7.350
 9506POPC   NC378155  13.668  22.921   5.550
 9506POPC   PO478156  13.626  22.909   5.850
 9506POPC   GL178157  13.632  22.952   6.150
 9506POPC   GL278158  13.494  22.819   6.150
 9506POPC   C1A78159  13.621  22.967   6.450
 9506POPC   D2A78160  13.676  22.960   6.750
 9506POPC   C3A78161  13.594  22.970   7.050
 9506POPC   C4A78162  13.607  22.926   7.350
 9506POPC   C1B78163  13.455  22.765   6.450
 9506POPC   C2B78164  13.462  22.783   6.750
 9506POPC   C3B78165  13.472  22.792   7.050
 9506POPC   C4B78166  13.410  22.837   7.350
 9507POPC   NC378167  33.844  40.022   5.550
 9507POPC   PO478168  33.754  40.009   5.850
 9507POPC   GL178169  33.796  39.979   6.150
 9507POPC   GL278170  33.942  40.001   6.150
 9507POPC   C1A78171  33.760  39.962   6.450
 9507POPC   D2A78172  33.787  39.983   6.750
 9507POPC   C3A78173  33.841  39.976   7.050
 9507POPC   C4A78174  33.798  40.017   7.350
 9507POPC   C1B78175  34.006  40.029   6.450
 9507POPC   C2B78176  34.068  40.040   6.750
 9507POPC   C3B78177  34.036  40.078   7.050
 9507POPC   C4B78178  34.021  40.017   7.350
 9508POPC   NC378179  11.285   3.514   5.550
 9508POPC   PO478180  11.272   3.582   5.850
 9508POPC   GL178181  11.340   3.511   6.150
 9508POPC   GL278182  11.326   3.427   6.150
 9508POPC   C1A78183  11.310   3.573   6.450
 9508POPC   D2A78184  11.307   3.586   6.750
 9508POPC   C3A78185  11.262   3.536   7.050
 9508POPC   C4A78186  11.329   3.591   7.350
 9508POPC   C1B78187  11.348   3.328   6.450
 9508POPC   C2B78188  11.377   3.329   6.750
 9508POPC   C3B78189  11.424   3.286   7.050
 9508POPC   C4B78190  11.377   3.279   7.350
 9509POPC   NC378191   6.656   5.070   5.550
 9509POPC   PO478192   6.686   5.136   5.850
 9509POPC   GL178193   6.622   5.072   6.150
 9509POPC   GL278194   6.560   4.994   6.150
 9509POPC   C1A78195   6.674   5.120   6.450
 9509POPC   D2A78196   6.692   5.086   6.750
 9509POPC   C3A78197   6.645   5.062   7.050
 9509POPC   C4A78198   6.619   5.052   7.350
 9509POPC   C1B78199   6.544   4.865   6.450
 9509POPC   C2B78200   6.561   4.923   6.750
 9509POPC   C3B78201   6.520   4.895   7.050
 9509POPC   C4B78202   6.487   4.839   7.350
 9510POPC   NC378203  22.210  37.726   5.550
 9510POPC   PO478204  22.208  37.704   5.850
 9510POPC   GL178205  22.138  37.687   6.150
 9510POPC   GL278206  22.265  37.776   6.150
 9510POPC   C1A78207  22.194  37.657   6.450
 9510POPC   D2A78208  22.160  37.687   6.750
 9510POPC   C3A78209  22.198  37.712   7.050
 9510POPC   C4A78210  22.134  37.631   7.350
 9510POPC   C1B78211  22.317  37.874   6.450
 9510POPC   C2B78212  22.317  37.854   6.750
 9510POPC   C3B78213  22.329  37.814   7.050
 9510POPC   C4B78214  22.365  37.885   7.350
 9511POPC   NC378215   4.331   8.241   5.550
 9511POPC   PO478216   4.332   8.233   5.850
 9511POPC   GL178217   4.346   8.195   6.150
 9511POPC   GL278218   4.387   8.081   6.150
 9511POPC   C1A78219   4.357   8.245   6.450
 9511POPC   D2A78220   4.329   8.223   6.750
 9511POPC   C3A78221   4.288   8.232   7.050
 9511POPC   C4A78222   4.299   8.151   7.350
 9511POPC   C1B78223   4.410   7.943   6.450
 9511POPC   C2B78224   4.390   7.992   6.750
 9511POPC   C3B78225   4.342   7.955   7.050
 9511POPC   C4B78226   4.351   7.993   7.350
 9512POPC   NC378227  24.504  19.081   5.550
 9512POPC   PO478228  24.474  19.073   5.850
 9512POPC   GL178229  24.449  19.102   6.150
 9512POPC   GL278230  24.579  19.188   6.150
 9512POPC   C1A78231  24.452  19.022   6.450
 9512POPC   D2A78232  24.486  19.046   6.750
 9512POPC   C3A78233  24.497  19.073   7.050
 9512POPC   C4A78234  24.445  19.049   7.350
 9512POPC   C1B78235  24.628  19.213   6.450
 9512POPC   C2B78236  24.664  19.247   6.750
 9512POPC   C3B78237  24.613  19.269   7.050
 9512POPC   C4B78238  24.664  19.263   7.350
 9513POPC   NC378239   9.720  36.889   5.550
 9513POPC   PO478240   9.776  36.945   5.850
 9513POPC   GL178241   9.782  36.909   6.150
 9513POPC   GL278242   9.656  36.976   6.150
 9513POPC   C1A78243   9.721  36.905   6.450
 9513POPC   D2A78244   9.774  36.856   6.750
 9513POPC   C3A78245   9.781  36.871   7.050
 9513POPC   C4A78246   9.781  36.856   7.350
 9513POPC   C1B78247   9.527  37.016   6.450
 9513POPC   C2B78248   9.596  37.014   6.750
 9513POPC   C3B78249   9.540  37.007   7.050
 9513POPC   C4B78250   9.535  37.070   7.350
 9514POPC   NC378251   0.392  44.682   5.550
 9514POPC   PO478252   0.447  44.689   5.850
 9514POPC   GL178253   0.438  44.686   6.150
 9514POPC   GL278254   0.516  44.555   6.150
 9514POPC   C1A78255   0.450  44.620   6.450
 9514POPC   D2A78256   0.394  44.706   6.750
 9514POPC   C3A78257   0.412  44.700   7.050
 9514POPC   C4A78258   0.429  44.642   7.350
 9514POPC   C1B78259   0.554  44.451   6.450
 9514POPC   C2B78260   0.549  44.487   6.750
 9514POPC   C3B78261   0.573  44.461   7.050
 9514POPC   C4B78262   0.541  44.404   7.350
 9515POPC   NC378263  41.561  22.196   5.550
 9515POPC   PO478264  41.516  22.175   5.850
 9515POPC   GL178265  41.602  22.211   6.150
 9515POPC   GL278266  41.513  22.083   6.150
 9515POPC   C1A78267  41.518  22.182   6.450
 9515POPC   D2A78268  41.575  22.116   6.750
 9515POPC   C3A78269  41.558  22.113   7.050
 9515POPC   C4A78270  41.536  22.180   7.350
 9515POPC   C1B78271  41.403  21.974   6.450
 9515POPC   C2B78272  41.482  21.919   6.750
 9515POPC   C3B78273  41.442  21.909   7.050
 9515POPC   C4B78274  41.411  21.927   7.350
 9516POPC   NC378275  33.786   4.313   5.550
 9516POPC   PO478276  33.827   4.293   5.850
 9516POPC   GL178277  33.829   4.286   6.150
 9516POPC   GL278278  33.691   4.379   6.150
 9516POPC   C1A78279  33.842   4.276   6.450
 9516POPC   D2A78280  33.800   4.286   6.750
 9516POPC   C3A78281  33.778   4.275   7.050
 9516POPC   C4A78282  33.758   4.290   7.350
 9516POPC   C1B78283  33.614   4.459   6.450
 9516POPC   C2B78284  33.643   4.520   6.750
 9516POPC   C3B78285  33.632   4.520   7.050
 9516POPC   C4B78286  33.600   4.502   7.350
 9517POPC   NC378287   3.516  13.626   5.550
 9517POPC   PO478288   3.591  13.635   5.850
 9517POPC   GL178289   3.506  13.598   6.150
 9517POPC   GL278290   3.519  13.519   6.150
 9517POPC   C1A78291   3.567  13.652   6.450
 9517POPC   D2A78292   3.556  13.675   6.750
 9517POPC   C3A78293   3.563  13.612   7.050
 9517POPC   C4A78294   3.568  13.664   7.350
 9517POPC   C1B78295   3.482  13.385   6.450
 9517POPC   C2B78296   3.437  13.409   6.750
 9517POPC   C3B78297   3.487  13.377   7.050
 9517POPC   C4B78298   3.486  13.401   7.350
 9518POPC   NC378299   2.021  26.770   5.550
 9518POPC   PO478300   1.966  26.845   5.850
 9518POPC   GL178301   2.029  26.778   6.150
 9518POPC   GL278302   2.076  26.894   6.150
 9518POPC   C1A78303   1.953  26.829   6.450
 9518POPC   D2A78304   2.038  26.815   6.750
 9518POPC   C3A78305   2.032  26.772   7.050
 9518POPC   C4A78306   1.991  26.810   7.350
 9518POPC   C1B78307   2.204  26.948   6.450
 9518POPC   C2B78308   2.223  26.959   6.750
 9518POPC   C3B78309   2.170  26.919   7.050
 9518POPC   C4B78310   2.214  26.965   7.350
 9519POPC   NC378311  22.178  36.863   5.550
 9519POPC   PO478312  22.112  36.928   5.850
 9519POPC   GL178313  22.118  36.864   6.150
 9519POPC   GL278314  22.087  36.981   6.150
 9519POPC   C1A78315  22.145  36.915   6.450
 9519POPC   D2A78316  22.212  36.938   6.750
 9519POPC   C3A78317  22.155  36.879   7.050
 9519POPC   C4A78318  22.129  36.900   7.350
 9519POPC   C1B78319  21.995  37.071   6.450
 9519POPC   C2B78320  22.015  37.092   6.750
 9519POPC   C3B78321  22.023  37.101   7.050
 9519POPC   C4B78322  22.013  37.073   7.350
 9520POPC   NC378323   8.234  36.108   5.550
 9520POPC   PO478324   8.212  36.084   5.850
 9520POPC   GL178325   8.207  36.173   6.150
 9520POPC   GL278326   8.096  36.227   6.150
 9520POPC   C1A78327   8.164  36.119   6.450
 9520POPC   D2A78328   8.221  36.166   6.750
 9520POPC   C3A78329   8.151  36.094   7.050
 9520POPC   C4A78330   8.219  36.119   7.350
 9520POPC   C1B78331   8.090  36.334   6.450
 9520POPC   C2B78332   8.082  36.298   6.750
 9520POPC   C3B78333   8.017  36.354   7.050
 9520POPC   C4B78334   8.033  36.327   7.350
 9521POPC   NC378335  15.982  40.024   5.550
 9521POPC   PO478336  15.924  40.004   5.850
 9521POPC   GL178337  15.974  40.019   6.150
 9521POPC   GL278338  15.834  39.890   6.150
 9521POPC   C1A78339  15.946  40.004   6.450
 9521POPC   D2A78340  15.941  40.020   6.750
 9521POPC   C3A78341  15.963  40.044   7.050
 9521POPC   C4A78342  15.950  40.052   7.350
 9521POPC   C1B78343  15.840  39.807   6.450
 9521POPC   C2B78344  15.800  39.829   6.750
 9521POPC   C3B78345  15.789  39.771   7.050
 9521POPC   C4B78346  15.815  39.802   7.350
 9522POPC   NC378347  16.779  16.683   5.550
 9522POPC   PO478348  16.769  16.717   5.850
 9522POPC   GL178349  16.700  16.756   6.150
 9522POPC   GL278350  16.750  16.595   6.150
 9522POPC   C1A78351  16.686  16.703   6.450
 9522POPC   D2A78352  16.691  16.765   6.750
 9522POPC   C3A78353  16.732  16.681   7.050
 9522POPC   C4A78354  16.749  16.715   7.350
 9522POPC   C1B78355  16.761  16.525   6.450
 9522POPC   C2B78356  16.756  16.464   6.750
 9522POPC   C3B78357  16.784  16.484   7.050
 9522POPC   C4B78358  16.776  16.494   7.350
 9523POPC   NC378359  10.506  20.658   5.550
 9523POPC   PO478360  10.555  20.657   5.850
 9523POPC   GL178361  10.563  20.584   6.150
 9523POPC   GL278362  10.656  20.584   6.150
 9523POPC   C1A78363  10.554  20.596   6.450
 9523POPC   D2A78364  10.515  20.576   6.750
 9523POPC   C3A78365  10.550  20.599   7.050
 9523POPC   C4A78366  10.492  20.568   7.350
 9523POPC   C1B78367  10.757  20.628   6.450
 9523POPC   C2B78368  10.737  20.560   6.750
 9523POPC   C3B78369  10.725  20.656   7.050
 9523POPC   C4B78370  10.814  20.618   7.350
 9524POPC   NC378371  36.151  11.261   5.550
 9524POPC   PO478372  36.111  11.346   5.850
 9524POPC   GL178373  36.176  11.347   6.150
 9524POPC   GL278374  36.006  11.386   6.150
 9524POPC   C1A78375  36.129  11.255   6.450
 9524POPC   D2A78376  36.102  11.290   6.750
 9524POPC   C3A78377  36.113  11.315   7.050
 9524POPC   C4A78378  36.157  11.263   7.350
 9524POPC   C1B78379  35.930  11.414   6.450
 9524POPC   C2B78380  35.888  11.489   6.750
 9524POPC   C3B78381  35.944  11.420   7.050
 9524POPC   C4B78382  35.903  11.410   7.350
 9525POPC   NC378383  36.091  33.782   5.550
 9525POPC   PO478384  36.139  33.779   5.850
 9525POPC   GL178385  36.169  33.838   6.150
 9525POPC   GL278386  36.082  33.696   6.150
 9525POPC   C1A78387  36.176  33.801   6.450
 9525POPC   D2A78388  36.084  33.782   6.750
 9525POPC   C3A78389  36.091  33.764   7.050
 9525POPC   C4A78390  36.080  33.794   7.350
 9525POPC   C1B78391  35.952  33.593   6.450
 9525POPC   C2B78392  35.993  33.574   6.750
 9525POPC   C3B78393  35.994  33.567   7.050
 9525POPC   C4B78394  35.943  33.556   7.350
 9526POPC   NC378395  31.439  12.090   5.550
 9526POPC   PO478396  31.436  12.031   5.850
 9526POPC   GL178397  31.488  12.058   6.150
 9526POPC   GL278398  31.482  12.192   6.150
 9526POPC   C1A78399  31.502  12.087   6.450
 9526POPC   D2A78400  31.514  12.125   6.750
 9526POPC   C3A78401  31.508  12.060   7.050
 9526POPC   C4A78402  31.509  12.123   7.350
 9526POPC   C1B78403  31.475  12.327   6.450
 9526POPC   C2B78404  31.470  12.276   6.750
 9526POPC   C3B78405  31.432  12.305   7.050
 9526POPC   C4B78406  31.470  12.371   7.350
 9527POPC   NC378407  17.507  35.388   5.550
 9527POPC   PO478408  17.532  35.361   5.850
 9527POPC   GL178409  17.494  35.340   6.150
 9527POPC   GL278410  17.440  35.306   6.150
 9527POPC   C1A78411  17.461  35.386   6.450
 9527POPC   D2A78412  17.469  35.383   6.750
 9527POPC   C3A78413  17.525  35.396   7.050
 9527POPC   C4A78414  17.505  35.309   7.350
 9527POPC   C1B78415  17.347  35.145   6.450
 9527POPC   C2B78416  17.376  35.204   6.750
 9527POPC   C3B78417  17.343  35.173   7.050
 9527POPC   C4B78418  17.372  35.194   7.350
 9528POPC   NC378419  18.266  18.244   5.550
 9528POPC   PO478420  18.248  18.315   5.850
 9528POPC   GL178421  18.328  18.254   6.150
 9528POPC   GL278422  18.376  18.259   6.150
 9528POPC   C1A78423  18.281  18.323   6.450
 9528POPC   D2A78424  18.317  18.330   6.750
 9528POPC   C3A78425  18.316  18.303   7.050
 9528POPC   C4A78426  18.298  18.285   7.350
 9528POPC   C1B78427  18.550  18.234   6.450
 9528POPC   C2B78428  18.521  18.175   6.750
 9528POPC   C3B78429  18.466  18.146   7.050
 9528POPC   C4B78430  18.552  18.215   7.350
 9529POPC   NC378431   6.650  44.669   5.550
 9529POPC   PO478432   6.668  44.691   5.850
 9529POPC   GL178433   6.665  44.621   6.150
 9529POPC   GL278434   6.688  44.708   6.150
 9529POPC   C1A78435   6.626  44.619   6.450
 9529POPC   D2A78436   6.608  44.627   6.750
 9529POPC   C3A78437   6.598  44.705   7.050
 9529POPC   C4A78438   6.674  44.705   7.350
 9529POPC   C1B78439   6.820  44.810   6.450
 9529POPC   C2B78440   6.814  44.789   6.750
 9529POPC   C3B78441   6.836  44.875   7.050
 9529POPC   C4B78442   6.860  44.849   7.350
 9530POPC   NC378443  27.603  18.293   5.550
 9530POPC   PO478444  27.631  18.237   5.850
 9530POPC   GL178445  27.615  18.248   6.150
 9530POPC   GL278446  27.659  18.150   6.150
 9530POPC   C1A78447  27.630  18.246   6.450
 9530POPC   D2A78448  27.577  18.277   6.750
 9530POPC   C3A78449  27.586  18.292   7.050
 9530POPC   C4A78450  27.598  18.312   7.350
 9530POPC   C1B78451  27.747  18.137   6.450
 9530POPC   C2B78452  27.719  18.050   6.750
 9530POPC   C3B78453  27.761  18.073   7.050
 9530POPC   C4B78454  27.771  18.055   7.350
 9531POPC   NC378455  29.871  39.195   5.550
 9531POPC   PO478456  29.878  39.246   5.850
 9531POPC   GL178457  29.940  39.241   6.150
 9531POPC   GL278458  29.935  39.363   6.150
 9531POPC   C1A78459  29.963  39.187   6.450
 9531POPC   D2A78460  29.906  39.248   6.750
 9531POPC   C3A78461  29.896  39.185   7.050
 9531POPC   C4A78462  29.892  39.212   7.350
 9531POPC   C1B78463  30.092  39.451   6.450
 9531POPC   C2B78464  30.067  39.414   6.750
 9531POPC   C3B78465  30.065  39.455   7.050
 9531POPC   C4B78466  30.076  39.482   7.350
 9532POPC   NC378467  43.069  19.093   5.550
 9532POPC   PO478468  43.076  19.016   5.850
 9532POPC   GL178469  43.090  19.108   6.150
 9532POPC   GL278470  42.984  18.966   6.150
 9532POPC   C1A78471  43.134  19.019   6.450
 9532POPC   D2A78472  43.096  19.053   6.750
 9532POPC   C3A78473  43.078  19.104   7.050
 9532POPC   C4A78474  43.073  19.097   7.350
 9532POPC   C1B78475  42.910  18.961   6.450
 9532POPC   C2B78476  42.835  18.957   6.750
 9532POPC   C3B78477  42.908  18.946   7.050
 9532POPC   C4B78478  42.871  19.009   7.350
 9533POPC   NC378479  12.870  40.005   5.550
 9533POPC   PO478480  12.848  40.021   5.850
 9533POPC   GL178481  12.841  39.977   6.150
 9533POPC   GL278482  12.987  40.078   6.150
 9533POPC   C1A78483  12.809  39.995   6.450
 9533POPC   D2A78484  12.826  39.961   6.750
 9533POPC   C3A78485  12.873  39.982   7.050
 9533POPC   C4A78486  12.864  40.039   7.350
 9533POPC   C1B78487  13.052  40.037   6.450
 9533POPC   C2B78488  13.041  40.108   6.750
 9533POPC   C3B78489  13.106  40.049   7.050
 9533POPC   C4B78490  13.100  40.050   7.350
 9534POPC   NC378491  24.496  31.445   5.550
 9534POPC   PO478492  24.500  31.448   5.850
 9534POPC   GL178493  24.503  31.431   6.150
 9534POPC   GL278494  24.546  31.335   6.150
 9534POPC   C1A78495  24.508  31.520   6.450
 9534POPC   D2A78496  24.499  31.433   6.750
 9534POPC   C3A78497  24.483  31.488   7.050
 9534POPC   C4A78498  24.449  31.434   7.350
 9534POPC   C1B78499  24.678  31.310   6.450
 9534POPC   C2B78500  24.614  31.307   6.750
 9534POPC   C3B78501  24.675  31.252   7.050
 9534POPC   C4B78502  24.609  31.317   7.350
 9535POPC   NC378503   2.002  21.349   5.550
 9535POPC   PO478504   1.979  21.416   5.850
 9535POPC   GL178505   1.962  21.377   6.150
 9535POPC   GL278506   2.076  21.313   6.150
 9535POPC   C1A78507   1.992  21.366   6.450
 9535POPC   D2A78508   2.037  21.361   6.750
 9535POPC   C3A78509   1.940  21.364   7.050
 9535POPC   C4A78510   2.037  21.401   7.350
 9535POPC   C1B78511   2.269  21.366   6.450
 9535POPC   C2B78512   2.201  21.356   6.750
 9535POPC   C3B78513   2.242  21.290   7.050
 9535POPC   C4B78514   2.199  21.277   7.350
 9536POPC   NC378515   5.070  14.359   5.550
 9536POPC   PO478516   5.133  14.385   5.850
 9536POPC   GL178517   5.130  14.420   6.150
 9536POPC   GL278518   5.226  14.466   6.150
 9536POPC   C1A78519   5.074  14.393   6.450
 9536POPC   D2A78520   5.048  14.362   6.750
 9536POPC   C3A78521   5.121  14.420   7.050
 9536POPC   C4A78522   5.093  14.415   7.350
 9536POPC   C1B78523   5.355  14.422   6.450
 9536POPC   C2B78524   5.290  14.494   6.750
 9536POPC   C3B78525   5.316  14.476   7.050
 9536POPC   C4B78526   5.372  14.505   7.350
 9537POPC   NC378527  17.517   2.765   5.550
 9537POPC   PO478528  17.464   2.773   5.850
 9537POPC   GL178529  17.482   2.730   6.150
 9537POPC   GL278530  17.410   2.805   6.150
 9537POPC   C1A78531  17.530   2.780   6.450
 9537POPC   D2A78532  17.525   2.787   6.750
 9537POPC   C3A78533  17.488   2.752   7.050
 9537POPC   C4A78534  17.521   2.812   7.350
 9537POPC   C1B78535  17.241   2.856   6.450
 9537POPC   C2B78536  17.256   2.933   6.750
 9537POPC   C3B78537  17.277   2.858   7.050
 9537POPC   C4B78538  17.312   2.867   7.350
 9538POPC   NC378539   8.168  31.429   5.550
 9538POPC   PO478540   8.181  31.484   5.850
 9538POPC   GL178541   8.200  31.498   6.150
 9538POPC   GL278542   8.297  31.593   6.150
 9538POPC   C1A78543   8.225  31.500   6.450
 9538POPC   D2A78544   8.237  31.478   6.750
 9538POPC   C3A78545   8.230  31.433   7.050
 9538POPC   C4A78546   8.199  31.520   7.350
 9538POPC   C1B78547   8.348  31.659   6.450
 9538POPC   C2B78548   8.343  31.624   6.750
 9538POPC   C3B78549   8.343  31.631   7.050
 9538POPC   C4B78550   8.422  31.662   7.350
 9539POPC   NC378551  29.928  30.744   5.550
 9539POPC   PO478552  29.951  30.685   5.850
 9539POPC   GL178553  29.950  30.676   6.150
 9539POPC   GL278554  30.016  30.782   6.150
 9539POPC   C1A78555  29.932  30.694   6.450
 9539POPC   D2A78556  29.906  30.680   6.750
 9539POPC   C3A78557  29.925  30.738   7.050
 9539POPC   C4A78558  29.924  30.741   7.350
 9539POPC   C1B78559  30.175  30.773   6.450
 9539POPC   C2B78560  30.176  30.758   6.750
 9539POPC   C3B78561  30.110  30.752   7.050
 9539POPC   C4B78562  30.172  30.838   7.350
 9540POPC   NC378563  12.077   2.008   5.550
 9540POPC   PO478564  12.101   1.955   5.850
 9540POPC   GL178565  12.081   1.946   6.150
 9540POPC   GL278566  12.203   1.976   6.150
 9540POPC   C1A78567  12.074   1.976   6.450
 9540POPC   D2A78568  12.099   1.970   6.750
 9540POPC   C3A78569  12.045   1.961   7.050
 9540POPC   C4A78570  12.081   1.947   7.350
 9540POPC   C1B78571  12.358   1.941   6.450
 9540POPC   C2B78572  12.277   1.995   6.750
 9540POPC   C3B78573  12.360   1.930   7.050
 9540POPC   C4B78574  12.299   1.952   7.350
 9541POPC   NC378575  30.732  43.905   5.550
 9541POPC   PO478576  30.685  43.923   5.850
 9541POPC   GL178577  30.746  43.847   6.150
 9541POPC   GL278578  30.775  43.939   6.150
 9541POPC   C1A78579  30.740  43.876   6.450
 9541POPC   D2A78580  30.712  43.912   6.750
 9541POPC   C3A78581  30.712  43.845   7.050
 9541POPC   C4A78582  30.696  43.916   7.350
 9541POPC   C1B78583  30.941  44.032   6.450
 9541POPC   C2B78584  30.896  43.969   6.750
 9541POPC   C3B78585  30.916  44.007   7.050
 9541POPC   C4B78586  30.888  43.989   7.350
 9542POPC   NC378587   8.999   2.762   5.550
 9542POPC   PO478588   8.995   2.814   5.850
 9542POPC   GL178589   8.989   2.752   6.150
 9542POPC   GL278590   8.980   2.639   6.150
 9542POPC   C1A78591   8.925   2.777   6.450
 9542POPC   D2A78592   8.996   2.750   6.750
 9542POPC   C3A78593   8.942   2.746   7.050
 9542POPC   C4A78594   8.982   2.776   7.350
 9542POPC   C1B78595   9.082   2.500   6.450
 9542POPC   C2B78596   9.028   2.513   6.750
 9542POPC   C3B78597   9.048   2.512   7.050
 9542POPC   C4B78598   9.027   2.558   7.350
 9543POPC   NC378599   1.980  22.900   5.550
 9543POPC   PO478600   1.968  22.935   5.850
 9543POPC   GL178601   2.013  22.964   6.150
 9543POPC   GL278602   1.929  22.822   6.150
 9543POPC   C1A78603   1.954  22.894   6.450
 9543POPC   D2A78604   1.956  22.935   6.750
 9543POPC   C3A78605   2.039  22.902   7.050
 9543POPC   C4A78606   1.978  22.968   7.350
 9543POPC   C1B78607   1.832  22.828   6.450
 9543POPC   C2B78608   1.737  22.841   6.750
 9543POPC   C3B78609   1.750  22.820   7.050
 9543POPC   C4B78610   1.779  22.786   7.350
 9544POPC   NC378611   1.165   8.164   5.550
 9544POPC   PO478612   1.197   8.155   5.850
 9544POPC   GL178613   1.179   8.229   6.150
 9544POPC   GL278614   1.133   8.213   6.150
 9544POPC   C1A78615   1.175   8.221   6.450
 9544POPC   D2A78616   1.242   8.219   6.750
 9544POPC   C3A78617   1.214   8.193   7.050
 9544POPC   C4A78618   1.166   8.155   7.350
 9544POPC   C1B78619   0.975   8.145   6.450
 9544POPC   C2B78620   0.947   8.136   6.750
 9544POPC   C3B78621   0.979   8.178   7.050
 9544POPC   C4B78622   0.967   8.136   7.350
 9545POPC   NC378623  39.222   1.206   5.550
 9545POPC   PO478624  39.276   1.255   5.850
 9545POPC   GL178625  39.196   1.210   6.150
 9545POPC   GL278626  39.178   1.137   6.150
 9545POPC   C1A78627  39.204   1.218   6.450
 9545POPC   D2A78628  39.224   1.229   6.750
 9545POPC   C3A78629  39.276   1.195   7.050
 9545POPC   C4A78630  39.243   1.179   7.350
 9545POPC   C1B78631  39.061   1.036   6.450
 9545POPC   C2B78632  39.026   1.060   6.750
 9545POPC   C3B78633  39.083   1.013   7.050
 9545POPC   C4B78634  39.083   1.082   7.350
 9546POPC   NC378635  32.204  24.515   5.550
 9546POPC   PO478636  32.204  24.531   5.850
 9546POPC   GL178637  32.293  24.502   6.150
 9546POPC   GL278638  32.201  24.542   6.150
 9546POPC   C1A78639  32.284  24.463   6.450
 9546POPC   D2A78640  32.210  24.516   6.750
 9546POPC   C3A78641  32.217  24.476   7.050
 9546POPC   C4A78642  32.216  24.447   7.350
 9546POPC   C1B78643  32.045  24.626   6.450
 9546POPC   C2B78644  32.070  24.658   6.750
 9546POPC   C3B78645  32.063  24.653   7.050
 9546POPC   C4B78646  32.076  24.683   7.350
 9547POPC   NC378647  33.792  36.108   5.550
 9547POPC   PO478648  33.781  36.164   5.850
 9547POPC   GL178649  33.802  36.105   6.150
 9547POPC   GL278650  33.762  36.211   6.150
 9547POPC   C1A78651  33.833  36.133   6.450
 9547POPC   D2A78652  33.799  36.103   6.750
 9547POPC   C3A78653  33.786  36.125   7.050
 9547POPC   C4A78654  33.805  36.147   7.350
 9547POPC   C1B78655  33.821  36.352   6.450
 9547POPC   C2B78656  33.836  36.385   6.750
 9547POPC   C3B78657  33.765  36.415   7.050
 9547POPC   C4B78658  33.803  36.397   7.350
 9548POPC   NC378659   4.274   0.431   5.550
 9548POPC   PO478660   4.305   0.468   5.850
 9548POPC   GL178661   4.357   0.473   6.150
 9548POPC   GL278662   4.333   0.311   6.150
 9548POPC   C1A78663   4.339   0.437   6.450
 9548POPC   D2A78664   4.326   0.427   6.750
 9548POPC   C3A78665   4.329   0.465   7.050
 9548POPC   C4A78666   4.314   0.431   7.350
 9548POPC   C1B78667   4.409   0.152   6.450
 9548POPC   C2B78668   4.352   0.236   6.750
 9548POPC   C3B78669   4.355   0.211   7.050
 9548POPC   C4B78670   4.359   0.219   7.350
 9549POPC   NC378671  12.844   5.092   5.550
 9549POPC   PO478672  12.850   5.098   5.850
 9549POPC   GL178673  12.899   5.095   6.150
 9549POPC   GL278674  12.899   5.013   6.150
 9549POPC   C1A78675  12.826   5.094   6.450
 9549POPC   D2A78676  12.885   5.053   6.750
 9549POPC   C3A78677  12.821   5.094   7.050
 9549POPC   C4A78678  12.815   5.053   7.350
 9549POPC   C1B78679  12.979   4.905   6.450
 9549POPC   C2B78680  13.024   4.903   6.750
 9549POPC   C3B78681  13.038   4.869   7.050
 9549POPC   C4B78682  13.003   4.879   7.350
 9550POPC   NC378683  12.865  27.555   5.550
 9550POPC   PO478684  12.884  27.545   5.850
 9550POPC   GL178685  12.866  27.554   6.150
 9550POPC   GL278686  12.953  27.698   6.150
 9550POPC   C1A78687  12.882  27.620   6.450
 9550POPC   D2A78688  12.804  27.609   6.750
 9550POPC   C3A78689  12.853  27.615   7.050
 9550POPC   C4A78690  12.848  27.609   7.350
 9550POPC   C1B78691  13.036  27.769   6.450
 9550POPC   C2B78692  13.049  27.807   6.750
 9550POPC   C3B78693  12.987  27.752   7.050
 9550POPC   C4B78694  13.017  27.752   7.350
 9551POPC   NC378695  25.217   2.746   5.550
 9551POPC   PO478696  25.223   2.792   5.850
 9551POPC   GL178697  25.266   2.716   6.150
 9551POPC   GL278698  25.315   2.932   6.150
 9551POPC   C1A78699  25.312   2.766   6.450
 9551POPC   D2A78700  25.259   2.780   6.750
 9551POPC   C3A78701  25.268   2.730   7.050
 9551POPC   C4A78702  25.308   2.743   7.350
 9551POPC   C1B78703  25.320   3.049   6.450
 9551POPC   C2B78704  25.313   3.017   6.750
 9551POPC   C3B78705  25.300   3.031   7.050
 9551POPC   C4B78706  25.313   2.975   7.350
 9552POPC   NC378707  35.395  16.736   5.550
 9552POPC   PO478708  35.397  16.781   5.850
 9552POPC   GL178709  35.346  16.766   6.150
 9552POPC   GL278710  35.487  16.685   6.150
 9552POPC   C1A78711  35.312  16.752   6.450
 9552POPC   D2A78712  35.339  16.766   6.750
 9552POPC   C3A78713  35.356  16.739   7.050
 9552POPC   C4A78714  35.365  16.765   7.350
 9552POPC   C1B78715  35.618  16.660   6.450
 9552POPC   C2B78716  35.609  16.642   6.750
 9552POPC   C3B78717  35.604  16.665   7.050
 9552POPC   C4B78718  35.595  16.683   7.350
 9553POPC   NC378719  43.116  14.430   5.550
 9553POPC   PO478720  43.146  14.408   5.850
 9553POPC   GL178721  43.135  14.438   6.150
 9553POPC   GL278722  43.031  14.288   6.150
 9553POPC   C1A78723  43.114  14.409   6.450
 9553POPC   D2A78724  43.121  14.364   6.750
 9553POPC   C3A78725  43.072  14.403   7.050
 9553POPC   C4A78726  43.142  14.363   7.350
 9553POPC   C1B78727  42.930  14.227   6.450
 9553POPC   C2B78728  42.895  14.171   6.750
 9553POPC   C3B78729  42.919  14.241   7.050
 9553POPC   C4B78730  42.912  14.171   7.350
 9554POPC   NC378731  18.243  24.502   5.550
 9554POPC   PO478732  18.323  24.538   5.850
 9554POPC   GL178733  18.306  24.529   6.150
 9554POPC   GL278734  18.320  24.365   6.150
 9554POPC   C1A78735  18.287  24.516   6.450
 9554POPC   D2A78736  18.236  24.495   6.750
 9554POPC   C3A78737  18.332  24.510   7.050
 9554POPC   C4A78738  18.284  24.539   7.350
 9554POPC   C1B78739  18.302  24.265   6.450
 9554POPC   C2B78740  18.275  24.194   6.750
 9554POPC   C3B78741  18.341  24.268   7.050
 9554POPC   C4B78742  18.260  24.202   7.350
 9555POPC   NC378743  15.213  40.766   5.550
 9555POPC   PO478744  15.161  40.790   5.850
 9555POPC   GL178745  15.129  40.787   6.150
 9555POPC   GL278746  15.147  40.643   6.150
 9555POPC   C1A78747  15.209  40.747   6.450
 9555POPC   D2A78748  15.225  40.808   6.750
 9555POPC   C3A78749  15.217  40.768   7.050
 9555POPC   C4A78750  15.193  40.818   7.350
 9555POPC   C1B78751  15.089  40.544   6.450
 9555POPC   C2B78752  15.072  40.578   6.750
 9555POPC   C3B78753  15.057  40.544   7.050
 9555POPC   C4B78754  15.093  40.519   7.350
 9556POPC   NC378755   8.223  39.978   5.550
 9556POPC   PO478756   8.228  39.959   5.850
 9556POPC   GL178757   8.164  40.029   6.150
 9556POPC   GL278758   8.113  40.131   6.150
 9556POPC   C1A78759   8.234  39.983   6.450
 9556POPC   D2A78760   8.176  40.039   6.750
 9556POPC   C3A78761   8.165  40.040   7.050
 9556POPC   C4A78762   8.237  39.977   7.350
 9556POPC   C1B78763   8.037  40.126   6.450
 9556POPC   C2B78764   7.993  40.180   6.750
 9556POPC   C3B78765   8.034  40.154   7.050
 9556POPC   C4B78766   7.960  40.121   7.350
 9557POPC   NC378767  22.186   8.991   5.550
 9557POPC   PO478768  22.184   8.999   5.850
 9557POPC   GL178769  22.210   8.997   6.150
 9557POPC   GL278770  22.056   8.999   6.150
 9557POPC   C1A78771  22.131   9.015   6.450
 9557POPC   D2A78772  22.156   8.995   6.750
 9557POPC   C3A78773  22.116   8.975   7.050
 9557POPC   C4A78774  22.154   9.006   7.350
 9557POPC   C1B78775  21.939   9.049   6.450
 9557POPC   C2B78776  21.974   9.099   6.750
 9557POPC   C3B78777  21.916   9.062   7.050
 9557POPC   C4B78778  21.951   9.049   7.350
 9558POPC   NC378779  10.553   6.644   5.550
 9558POPC   PO478780  10.572   6.639   5.850
 9558POPC   GL178781  10.551   6.659   6.150
 9558POPC   GL278782  10.421   6.687   6.150
 9558POPC   C1A78783  10.546   6.599   6.450
 9558POPC   D2A78784  10.505   6.627   6.750
 9558POPC   C3A78785  10.480   6.686   7.050
 9558POPC   C4A78786  10.561   6.611   7.350
 9558POPC   C1B78787  10.303   6.799   6.450
 9558POPC   C2B78788  10.350   6.842   6.750
 9558POPC   C3B78789  10.359   6.765   7.050
 9558POPC   C4B78790  10.347   6.829   7.350
 9559POPC   NC378791  30.744  29.958   5.550
 9559POPC   PO478792  30.689  29.957   5.850
 9559POPC   GL178793  30.724  29.907   6.150
 9559POPC   GL278794  30.549  29.984   6.150
 9559POPC   C1A78795  30.745  29.936   6.450
 9559POPC   D2A78796  30.691  29.949   6.750
 9559POPC   C3A78797  30.733  29.925   7.050
 9559POPC   C4A78798  30.673  29.903   7.350
 9559POPC   C1B78799  30.498  29.997   6.450
 9559POPC   C2B78800  30.510  29.985   6.750
 9559POPC   C3B78801  30.493  29.986   7.050
 9559POPC   C4B78802  30.416  29.990   7.350
 9560POPC   NC378803   8.969  10.553   5.550
 9560POPC   PO478804   8.929  10.493   5.850
 9560POPC   GL178805   8.996  10.508   6.150
 9560POPC   GL278806   8.844  10.470   6.150
 9560POPC   C1A78807   9.011  10.545   6.450
 9560POPC   D2A78808   8.928  10.560   6.750
 9560POPC   C3A78809   9.004  10.494   7.050
 9560POPC   C4A78810   8.984  10.547   7.350
 9560POPC   C1B78811   8.750  10.518   6.450
 9560POPC   C2B78812   8.715  10.517   6.750
 9560POPC   C3B78813   8.758  10.525   7.050
 9560POPC   C4B78814   8.711  10.555   7.350
 9561POPC   NC378815  24.525   8.216   5.550
 9561POPC   PO478816  24.520   8.172   5.850
 9561POPC   GL178817  24.486   8.239   6.150
 9561POPC   GL278818  24.651   8.183   6.150
 9561POPC   C1A78819  24.482   8.201   6.450
 9561POPC   D2A78820  24.505   8.219   6.750
 9561POPC   C3A78821  24.521   8.226   7.050
 9561POPC   C4A78822  24.457   8.212   7.350
 9561POPC   C1B78823  24.757   8.159   6.450
 9561POPC   C2B78824  24.696   8.191   6.750
 9561POPC   C3B78825  24.730   8.119   7.050
 9561POPC   C4B78826  24.695   8.165   7.350
 9562POPC   NC378827  40.005  36.922   5.550
 9562POPC   PO478828  40.040  36.896   5.850
 9562POPC   GL178829  40.025  36.892   6.150
 9562POPC   GL278830  40.042  36.804   6.150
 9562POPC   C1A78831  40.042  36.854   6.450
 9562POPC   D2A78832  40.039  36.891   6.750
 9562POPC   C3A78833  40.008  36.890   7.050
 9562POPC   C4A78834  40.047  36.908   7.350
 9562POPC   C1B78835  40.114  36.665   6.450
 9562POPC   C2B78836  40.137  36.694   6.750
 9562POPC   C3B78837  40.180  36.710   7.050
 9562POPC   C4B78838  40.147  36.658   7.350
 9563POPC   NC378839  11.254  22.113   5.550
 9563POPC   PO478840  11.254  22.210   5.850
 9563POPC   GL178841  11.288  22.167   6.150
 9563POPC   GL278842  11.391  22.237   6.150
 9563POPC   C1A78843  11.282  22.168   6.450
 9563POPC   D2A78844  11.318  22.205   6.750
 9563POPC   C3A78845  11.332  22.132   7.050
 9563POPC   C4A78846  11.349  22.183   7.350
 9563POPC   C1B78847  11.522  22.258   6.450
 9563POPC   C2B78848  11.590  22.246   6.750
 9563POPC   C3B78849  11.535  22.187   7.050
 9563POPC   C4B78850  11.516  22.173   7.350
 9564POPC   NC378851  36.098  12.872   5.550
 9564POPC   PO478852  36.160  12.868   5.850
 9564POPC   GL178853  36.114  12.819   6.150
 9564POPC   GL278854  36.038  12.937   6.150
 9564POPC   C1A78855  36.091  12.838   6.450
 9564POPC   D2A78856  36.112  12.843   6.750
 9564POPC   C3A78857  36.108  12.882   7.050
 9564POPC   C4A78858  36.116  12.832   7.350
 9564POPC   C1B78859  35.979  13.039   6.450
 9564POPC   C2B78860  35.967  13.066   6.750
 9564POPC   C3B78861  35.979  13.050   7.050
 9564POPC   C4B78862  35.956  13.040   7.350
 9565POPC   NC378863  18.297  33.791   5.550
 9565POPC   PO478864  18.304  33.823   5.850
 9565POPC   GL178865  18.260  33.751   6.150
 9565POPC   GL278866  18.323  33.705   6.150
 9565POPC   C1A78867  18.257  33.818   6.450
 9565POPC   D2A78868  18.297  33.849   6.750
 9565POPC   C3A78869  18.239  33.796   7.050
 9565POPC   C4A78870  18.300  33.833   7.350
 9565POPC   C1B78871  18.462  33.622   6.450
 9565POPC   C2B78872  18.385  33.587   6.750
 9565POPC   C3B78873  18.432  33.624   7.050
 9565POPC   C4B78874  18.458  33.542   7.350
 9566POPC   NC378875  15.195   2.790   5.550
 9566POPC   PO478876  15.164   2.765   5.850
 9566POPC   GL178877  15.185   2.778   6.150
 9566POPC   GL278878  15.098   2.733   6.150
 9566POPC   C1A78879  15.144   2.804   6.450
 9566POPC   D2A78880  15.185   2.718   6.750
 9566POPC   C3A78881  15.159   2.766   7.050
 9566POPC   C4A78882  15.223   2.764   7.350
 9566POPC   C1B78883  14.940   2.724   6.450
 9566POPC   C2B78884  14.906   2.717   6.750
 9566POPC   C3B78885  14.919   2.681   7.050
 9566POPC   C4B78886  14.926   2.682   7.350
 9567POPC   NC378887  17.512  40.799   5.550
 9567POPC   PO478888  17.529  40.824   5.850
 9567POPC   GL178889  17.470  40.770   6.150
 9567POPC   GL278890  17.517  40.889   6.150
 9567POPC   C1A78891  17.535  40.799   6.450
 9567POPC   D2A78892  17.470  40.821   6.750
 9567POPC   C3A78893  17.485  40.827   7.050
 9567POPC   C4A78894  17.557  40.804   7.350
 9567POPC   C1B78895  17.451  41.080   6.450
 9567POPC   C2B78896  17.473  41.007   6.750
 9567POPC   C3B78897  17.530  41.069   7.050
 9567POPC   C4B78898  17.483  41.021   7.350
 9568POPC   NC378899  33.777  22.141   5.550
 9568POPC   PO478900  33.758  22.172   5.850
 9568POPC   GL178901  33.751  22.113   6.150
 9568POPC   GL278902  33.761  22.041   6.150
 9568POPC   C1A78903  33.769  22.192   6.450
 9568POPC   D2A78904  33.773  22.186   6.750
 9568POPC   C3A78905  33.789  22.162   7.050
 9568POPC   C4A78906  33.840  22.155   7.350
 9568POPC   C1B78907  33.713  21.938   6.450
 9568POPC   C2B78908  33.696  21.914   6.750
 9568POPC   C3B78909  33.702  21.957   7.050
 9568POPC   C4B78910  33.766  21.901   7.350
 9569POPC   NC378911  36.079   8.182   5.550
 9569POPC   PO478912  36.088   8.175   5.850
 9569POPC   GL178913  36.105   8.218   6.150
 9569POPC   GL278914  36.242   8.330   6.150
 9569POPC   C1A78915  36.176   8.182   6.450
 9569POPC   D2A78916  36.142   8.227   6.750
 9569POPC   C3A78917  36.173   8.229   7.050
 9569POPC   C4A78918  36.115   8.231   7.350
 9569POPC   C1B78919  36.318   8.358   6.450
 9569POPC   C2B78920  36.286   8.354   6.750
 9569POPC   C3B78921  36.318   8.374   7.050
 9569POPC   C4B78922  36.293   8.421   7.350
 9570POPC   NC378923  24.522   9.748   5.550
 9570POPC   PO478924  24.461   9.729   5.850
 9570POPC   GL178925  24.478   9.747   6.150
 9570POPC   GL278926  24.586   9.686   6.150
 9570POPC   C1A78927  24.536   9.759   6.450
 9570POPC   D2A78928  24.491   9.717   6.750
 9570POPC   C3A78929  24.511   9.717   7.050
 9570POPC   C4A78930  24.513   9.783   7.350
 9570POPC   C1B78931  24.682   9.619   6.450
 9570POPC   C2B78932  24.724   9.610   6.750
 9570POPC   C3B78933  24.704   9.582   7.050
 9570POPC   C4B78934  24.725   9.632   7.350
 9571POPC   NC378935  20.573  30.710   5.550
 9571POPC   PO478936  20.653  30.694   5.850
 9571POPC   GL178937  20.568  30.726   6.150
 9571POPC   GL278938  20.456  30.641   6.150
 9571POPC   C1A78939  20.630  30.730   6.450
 9571POPC   D2A78940  20.652  30.648   6.750
 9571POPC   C3A78941  20.643  30.717   7.050
 9571POPC   C4A78942  20.630  30.703   7.350
 9571POPC   C1B78943  20.343  30.628   6.450
 9571POPC   C2B78944  20.401  30.654   6.750
 9571POPC   C3B78945  20.404  30.651   7.050
 9571POPC   C4B78946  20.352  30.704   7.350
 9572POPC   NC378947  36.946   8.950   5.550
 9572POPC   PO478948  36.866   8.926   5.850
 9572POPC   GL178949  36.922   8.953   6.150
 9572POPC   GL278950  37.007   8.869   6.150
 9572POPC   C1A78951  36.953   8.943   6.450
 9572POPC   D2A78952  36.939   8.988   6.750
 9572POPC   C3A78953  36.943   8.943   7.050
 9572POPC   C4A78954  36.884   8.999   7.350
 9572POPC   C1B78955  37.008   8.748   6.450
 9572POPC   C2B78956  37.042   8.729   6.750
 9572POPC   C3B78957  36.979   8.763   7.050
 9572POPC   C4B78958  37.009   8.793   7.350
 9573POPC   NC378959  42.306  19.836   5.550
 9573POPC   PO478960  42.351  19.877   5.850
 9573POPC   GL178961  42.345  19.857   6.150
 9573POPC   GL278962  42.308  19.695   6.150
 9573POPC   C1A78963  42.343  19.791   6.450
 9573POPC   D2A78964  42.289  19.848   6.750
 9573POPC   C3A78965  42.346  19.879   7.050
 9573POPC   C4A78966  42.377  19.874   7.350
 9573POPC   C1B78967  42.279  19.586   6.450
 9573POPC   C2B78968  42.283  19.594   6.750
 9573POPC   C3B78969  42.278  19.608   7.050
 9573POPC   C4B78970  42.284  19.618   7.350
 9574POPC   NC378971  38.445  43.091   5.550
 9574POPC   PO478972  38.493  43.094   5.850
 9574POPC   GL178973  38.466  43.125   6.150
 9574POPC   GL278974  38.574  43.059   6.150
 9574POPC   C1A78975  38.489  43.141   6.450
 9574POPC   D2A78976  38.492  43.083   6.750
 9574POPC   C3A78977  38.412  43.097   7.050
 9574POPC   C4A78978  38.487  43.073   7.350
 9574POPC   C1B78979  38.656  43.043   6.450
 9574POPC   C2B78980  38.712  43.095   6.750
 9574POPC   C3B78981  38.728  43.026   7.050
 9574POPC   C4B78982  38.722  43.104   7.350
 9575POPC   NC378983  17.461  43.866   5.550
 9575POPC   PO478984  17.488  43.928   5.850
 9575POPC   GL178985  17.508  43.917   6.150
 9575POPC   GL278986  17.504  43.999   6.150
 9575POPC   C1A78987  17.483  43.847   6.450
 9575POPC   D2A78988  17.525  43.838   6.750
 9575POPC   C3A78989  17.525  43.876   7.050
 9575POPC   C4A78990  17.544  43.874   7.350
 9575POPC   C1B78991  17.508  44.170   6.450
 9575POPC   C2B78992  17.561  44.096   6.750
 9575POPC   C3B78993  17.494  44.092   7.050
 9575POPC   C4B78994  17.485  44.173   7.350
 9576POPC   NC378995   1.243  19.800   5.550
 9576POPC   PO478996   1.197  19.818   5.850
 9576POPC   GL178997   1.174  19.869   6.150
 9576POPC   GL278998   1.101  19.721   6.150
 9576POPC   C1A78999   1.182  19.858   6.450
 9576POPC   D2A79000   1.165  19.884   6.750
 9576POPC   C3A79001   1.256  19.855   7.050
 9576POPC   C4A79002   1.189  19.819   7.350
 9576POPC   C1B79003   1.025  19.668   6.450
 9576POPC   C2B79004   1.001  19.653   6.750
 9576POPC   C3B79005   1.031  19.683   7.050
 9576POPC   C4B79006   1.012  19.672   7.350
 9577POPC   NC379007   9.795  38.410   5.550
 9577POPC   PO479008   9.701  38.499   5.850
 9577POPC   GL179009   9.753  38.481   6.150
 9577POPC   GL279010   9.796  38.524   6.150
 9577POPC   C1A79011   9.791  38.478   6.450
 9577POPC   D2A79012   9.789  38.504   6.750
 9577POPC   C3A79013   9.729  38.433   7.050
 9577POPC   C4A79014   9.774  38.453   7.350
 9577POPC   C1B79015   9.910  38.653   6.450
 9577POPC   C2B79016   9.955  38.621   6.750
 9577POPC   C3B79017   9.899  38.639   7.050
 9577POPC   C4B79018   9.951  38.634   7.350
 9578POPC   NC379019  16.770  12.098   5.550
 9578POPC   PO479020  16.756  12.053   5.850
 9578POPC   GL179021  16.751  12.074   6.150
 9578POPC   GL279022  16.723  12.244   6.150
 9578POPC   C1A79023  16.698  12.037   6.450
 9578POPC   D2A79024  16.779  12.097   6.750
 9578POPC   C3A79025  16.755  12.071   7.050
 9578POPC   C4A79026  16.751  12.066   7.350
 9578POPC   C1B79027  16.655  12.360   6.450
 9578POPC   C2B79028  16.667  12.289   6.750
 9578POPC   C3B79029  16.675  12.352   7.050
 9578POPC   C4B79030  16.614  12.358   7.350
 9579POPC   NC379031  13.654  15.952   5.550
 9579POPC   PO479032  13.671  15.984   5.850
 9579POPC   GL179033  13.590  15.954   6.150
 9579POPC   GL279034  13.537  15.881   6.150
 9579POPC   C1A79035  13.581  15.991   6.450
 9579POPC   D2A79036  13.644  15.999   6.750
 9579POPC   C3A79037  13.595  15.916   7.050
 9579POPC   C4A79038  13.663  15.972   7.350
 9579POPC   C1B79039  13.474  15.693   6.450
 9579POPC   C2B79040  13.500  15.687   6.750
 9579POPC   C3B79041  13.494  15.705   7.050
 9579POPC   C4B79042  13.556  15.730   7.350
 9580POPC   NC379043  42.303  22.115   5.550
 9580POPC   PO479044  42.334  22.161   5.850
 9580POPC   GL179045  42.338  22.194   6.150
 9580POPC   GL279046  42.211  22.114   6.150
 9580POPC   C1A79047  42.382  22.202   6.450
 9580POPC   D2A79048  42.377  22.192   6.750
 9580POPC   C3A79049  42.368  22.130   7.050
 9580POPC   C4A79050  42.299  22.202   7.350
 9580POPC   C1B79051  42.117  22.136   6.450
 9580POPC   C2B79052  42.095  22.104   6.750
 9580POPC   C3B79053  42.096  22.162   7.050
 9580POPC   C4B79054  42.088  22.105   7.350
 9581POPC   NC379055   7.391  20.598   5.550
 9581POPC   PO479056   7.422  20.587   5.850
 9581POPC   GL179057   7.380  20.581   6.150
 9581POPC   GL279058   7.590  20.592   6.150
 9581POPC   C1A79059   7.418  20.596   6.450
 9581POPC   D2A79060   7.446  20.573   6.750
 9581POPC   C3A79061   7.403  20.571   7.050
 9581POPC   C4A79062   7.388  20.583   7.350
 9581POPC   C1B79063   7.633  20.562   6.450
 9581POPC   C2B79064   7.636  20.546   6.750
 9581POPC   C3B79065   7.675  20.617   7.050
 9581POPC   C4B79066   7.703  20.626   7.350
 9582POPC   NC379067  36.153  41.559   5.550
 9582POPC   PO479068  36.137  41.588   5.850
 9582POPC   GL179069  36.146  41.519   6.150
 9582POPC   GL279070  36.193  41.655   6.150
 9582POPC   C1A79071  36.176  41.562   6.450
 9582POPC   D2A79072  36.087  41.578   6.750
 9582POPC   C3A79073  36.125  41.526   7.050
 9582POPC   C4A79074  36.084  41.523   7.350
 9582POPC   C1B79075  36.288  41.743   6.450
 9582POPC   C2B79076  36.318  41.743   6.750
 9582POPC   C3B79077  36.370  41.735   7.050
 9582POPC   C4B79078  36.343  41.656   7.350
 9583POPC   NC379079  12.109  19.842   5.550
 9583POPC   PO479080  12.058  19.815   5.850
 9583POPC   GL179081  12.089  19.815   6.150
 9583POPC   GL279082  11.994  19.808   6.150
 9583POPC   C1A79083  12.098  19.832   6.450
 9583POPC   D2A79084  12.046  19.796   6.750
 9583POPC   C3A79085  12.082  19.820   7.050
 9583POPC   C4A79086  12.084  19.841   7.350
 9583POPC   C1B79087  11.858  19.869   6.450
 9583POPC   C2B79088  11.813  19.799   6.750
 9583POPC   C3B79089  11.798  19.840   7.050
 9583POPC   C4B79090  11.814  19.880   7.350
 9584POPC   NC379091  24.515  19.801   5.550
 9584POPC   PO479092  24.474  19.852   5.850
 9584POPC   GL179093  24.500  19.793   6.150
 9584POPC   GL279094  24.399  19.792   6.150
 9584POPC   C1A79095  24.469  19.877   6.450
 9584POPC   D2A79096  24.458  19.845   6.750
 9584POPC   C3A79097  24.520  19.824   7.050
 9584POPC   C4A79098  24.533  19.848   7.350
 9584POPC   C1B79099  24.331  19.632   6.450
 9584POPC   C2B79100  24.333  19.693   6.750
 9584POPC   C3B79101  24.273  19.694   7.050
 9584POPC   C4B79102  24.287  19.666   7.350
 9585POPC   NC379103  23.705  43.867   5.550
 9585POPC   PO479104  23.715  43.893   5.850
 9585POPC   GL179105  23.698  43.837   6.150
 9585POPC   GL279106  23.812  43.807   6.150
 9585POPC   C1A79107  23.749  43.879   6.450
 9585POPC   D2A79108  23.667  43.886   6.750
 9585POPC   C3A79109  23.700  43.926   7.050
 9585POPC   C4A79110  23.698  43.843   7.350
 9585POPC   C1B79111  23.939  43.705   6.450
 9585POPC   C2B79112  23.941  43.687   6.750
 9585POPC   C3B79113  23.936  43.757   7.050
 9585POPC   C4B79114  23.888  43.756   7.350
 9586POPC   NC379115   1.993  20.585   5.550
 9586POPC   PO479116   1.943  20.568   5.850
 9586POPC   GL179117   1.941  20.601   6.150
 9586POPC   GL279118   1.881  20.750   6.150
 9586POPC   C1A79119   1.959  20.625   6.450
 9586POPC   D2A79120   2.032  20.570   6.750
 9586POPC   C3A79121   2.017  20.636   7.050
 9586POPC   C4A79122   1.959  20.562   7.350
 9586POPC   C1B79123   1.861  20.794   6.450
 9586POPC   C2B79124   1.889  20.815   6.750
 9586POPC   C3B79125   1.880  20.818   7.050
 9586POPC   C4B79126   1.816  20.797   7.350
 9587POPC   NC379127  19.816  14.434   5.550
 9587POPC   PO479128  19.807  14.442   5.850
 9587POPC   GL179129  19.807  14.377   6.150
 9587POPC   GL279130  19.666  14.398   6.150
 9587POPC   C1A79131  19.842  14.355   6.450
 9587POPC   D2A79132  19.826  14.443   6.750
 9587POPC   C3A79133  19.815  14.392   7.050
 9587POPC   C4A79134  19.844  14.406   7.350
 9587POPC   C1B79135  19.552  14.498   6.450
 9587POPC   C2B79136  19.639  14.459   6.750
 9587POPC   C3B79137  19.630  14.478   7.050
 9587POPC   C4B79138  19.580  14.441   7.350
 9588POPC   NC379139  33.044   0.472   5.550
 9588POPC   PO479140  33.056   0.407   5.850
 9588POPC   GL179141  33.021   0.427   6.150
 9588POPC   GL279142  33.093   0.547   6.150
 9588POPC   C1A79143  32.986   0.431   6.450
 9588POPC   D2A79144  33.028   0.439   6.750
 9588POPC   C3A79145  32.993   0.466   7.050
 9588POPC   C4A79146  33.050   0.432   7.350
 9588POPC   C1B79147  33.166   0.600   6.450
 9588POPC   C2B79148  33.244   0.572   6.750
 9588POPC   C3B79149  33.160   0.652   7.050
 9588POPC   C4B79150  33.224   0.582   7.350
 9589POPC   NC379151  26.069   2.036   5.550
 9589POPC   PO479152  26.050   2.019   5.850
 9589POPC   GL179153  26.026   1.969   6.150
 9589POPC   GL279154  26.129   2.029   6.150
 9589POPC   C1A79155  26.066   1.971   6.450
 9589POPC   D2A79156  26.078   1.985   6.750
 9589POPC   C3A79157  26.078   2.030   7.050
 9589POPC   C4A79158  26.088   2.039   7.350
 9589POPC   C1B79159  26.263   1.989   6.450
 9589POPC   C2B79160  26.268   2.036   6.750
 9589POPC   C3B79161  26.254   1.983   7.050
 9589POPC   C4B79162  26.302   2.025   7.350
 9590POPC   NC379163  33.752  44.643   5.550
 9590POPC   PO479164  33.846  44.651   5.850
 9590POPC   GL179165  33.822  44.676   6.150
 9590POPC   GL279166  33.950  44.722   6.150
 9590POPC   C1A79167  33.790  44.639   6.450
 9590POPC   D2A79168  33.837  44.670   6.750
 9590POPC   C3A79169  33.811  44.648   7.050
 9590POPC   C4A79170  33.818  44.668   7.350
 9590POPC   C1B79171  34.062  44.684   6.450
 9590POPC   C2B79172  34.027  44.672   6.750
 9590POPC   C3B79173  34.043  44.701   7.050
 9590POPC   C4B79174  34.091  44.716   7.350
 9591POPC   NC379175  40.823  16.739   5.550
 9591POPC   PO479176  40.773  16.699   5.850
 9591POPC   GL179177  40.814  16.704   6.150
 9591POPC   GL279178  40.778  16.596   6.150
 9591POPC   C1A79179  40.770  16.766   6.450
 9591POPC   D2A79180  40.751  16.681   6.750
 9591POPC   C3A79181  40.746  16.728   7.050
 9591POPC   C4A79182  40.794  16.748   7.350
 9591POPC   C1B79183  40.687  16.449   6.450
 9591POPC   C2B79184  40.717  16.501   6.750
 9591POPC   C3B79185  40.728  16.450   7.050
 9591POPC   C4B79186  40.679  16.459   7.350
 9592POPC   NC379187  28.323  15.201   5.550
 9592POPC   PO479188  28.391  15.189   5.850
 9592POPC   GL179189  28.332  15.152   6.150
 9592POPC   GL279190  28.207  15.280   6.150
 9592POPC   C1A79191  28.354  15.141   6.450
 9592POPC   D2A79192  28.405  15.168   6.750
 9592POPC   C3A79193  28.415  15.201   7.050
 9592POPC   C4A79194  28.380  15.146   7.350
 9592POPC   C1B79195  28.116  15.246   6.450
 9592POPC   C2B79196  28.108  15.313   6.750
 9592POPC   C3B79197  28.187  15.266   7.050
 9592POPC   C4B79198  28.121  15.254   7.350
 9593POPC   NC379199  29.941  43.061   5.550
 9593POPC   PO479200  29.884  43.112   5.850
 9593POPC   GL179201  29.934  43.157   6.150
 9593POPC   GL279202  30.009  43.071   6.150
 9593POPC   C1A79203  29.949  43.095   6.450
 9593POPC   D2A79204  29.910  43.102   6.750
 9593POPC   C3A79205  29.943  43.152   7.050
 9593POPC   C4A79206  29.909  43.124   7.350
 9593POPC   C1B79207  30.140  43.021   6.450
 9593POPC   C2B79208  30.169  43.029   6.750
 9593POPC   C3B79209  30.184  42.989   7.050
 9593POPC   C4B79210  30.120  42.996   7.350
 9594POPC   NC379211  36.115  19.027   5.550
 9594POPC   PO479212  36.148  19.049   5.850
 9594POPC   GL179213  36.138  19.049   6.150
 9594POPC   GL279214  36.093  19.159   6.150
 9594POPC   C1A79215  36.160  19.038   6.450
 9594POPC   D2A79216  36.167  19.049   6.750
 9594POPC   C3A79217  36.152  19.076   7.050
 9594POPC   C4A79218  36.162  19.015   7.350
 9594POPC   C1B79219  36.075  19.253   6.450
 9594POPC   C2B79220  36.052  19.308   6.750
 9594POPC   C3B79221  35.987  19.267   7.050
 9594POPC   C4B79222  36.060  19.258   7.350
 9595POPC   NC379223  43.914  11.341   5.550
 9595POPC   PO479224  43.932  11.336   5.850
 9595POPC   GL179225  43.901  11.310   6.150
 9595POPC   GL279226  43.985  11.282   6.150
 9595POPC   C1A79227  43.902  11.322   6.450
 9595POPC   D2A79228  43.858  11.260   6.750
 9595POPC   C3A79229  43.880  11.330   7.050
 9595POPC   C4A79230  43.879  11.344   7.350
 9595POPC   C1B79231  44.078  11.198   6.450
 9595POPC   C2B79232  44.120  11.157   6.750
 9595POPC   C3B79233  44.166  11.235   7.050
 9595POPC   C4B79234  44.131  11.212   7.350
 9596POPC   NC379235  17.511  15.145   5.550
 9596POPC   PO479236  17.501  15.186   5.850
 9596POPC   GL179237  17.459  15.177   6.150
 9596POPC   GL279238  17.508  15.337   6.150
 9596POPC   C1A79239  17.527  15.133   6.450
 9596POPC   D2A79240  17.467  15.193   6.750
 9596POPC   C3A79241  17.555  15.153   7.050
 9596POPC   C4A79242  17.493  15.209   7.350
 9596POPC   C1B79243  17.610  15.384   6.450
 9596POPC   C2B79244  17.579  15.449   6.750
 9596POPC   C3B79245  17.632  15.363   7.050
 9596POPC   C4B79246  17.635  15.447   7.350
 9597POPC   NC379247  19.852  18.324   5.550
 9597POPC   PO479248  19.827  18.244   5.850
 9597POPC   GL179249  19.803  18.256   6.150
 9597POPC   GL279250  19.969  18.232   6.150
 9597POPC   C1A79251  19.787  18.279   6.450
 9597POPC   D2A79252  19.826  18.266   6.750
 9597POPC   C3A79253  19.822  18.327   7.050
 9597POPC   C4A79254  19.865  18.244   7.350
 9597POPC   C1B79255  20.041  18.177   6.450
 9597POPC   C2B79256  20.040  18.213   6.750
 9597POPC   C3B79257  20.089  18.157   7.050
 9597POPC   C4B79258  20.065  18.151   7.350
 9598POPC   NC379259  12.056  22.118   5.550
 9598POPC   PO479260  12.064  22.178   5.850
 9598POPC   GL179261  12.097  22.155   6.150
 9598POPC   GL279262  12.183  22.281   6.150
 9598POPC   C1A79263  12.124  22.178   6.450
 9598POPC   D2A79264  12.105  22.190   6.750
 9598POPC   C3A79265  12.046  22.147   7.050
 9598POPC   C4A79266  12.084  22.173   7.350
 9598POPC   C1B79267  12.284  22.353   6.450
 9598POPC   C2B79268  12.289  22.298   6.750
 9598POPC   C3B79269  12.273  22.351   7.050
 9598POPC   C4B79270  12.270  22.360   7.350
 9599POPC   NC379271   9.732  26.065   5.550
 9599POPC   PO479272   9.787  26.007   5.850
 9599POPC   GL179273   9.712  26.067   6.150
 9599POPC   GL279274   9.660  26.177   6.150
 9599POPC   C1A79275   9.714  26.038   6.450
 9599POPC   D2A79276   9.741  26.074   6.750
 9599POPC   C3A79277   9.750  26.089   7.050
 9599POPC   C4A79278   9.738  26.084   7.350
 9599POPC   C1B79279   9.696  26.243   6.450
 9599POPC   C2B79280   9.609  26.265   6.750
 9599POPC   C3B79281   9.684  26.314   7.050
 9599POPC   C4B79282   9.614  26.225   7.350
 9600POPC   NC379283   8.175  27.623   5.550
 9600POPC   PO479284   8.154  27.617   5.850
 9600POPC   GL179285   8.192  27.567   6.150
 9600POPC   GL279286   8.324  27.552   6.150
 9600POPC   C1A79287   8.196  27.547   6.450
 9600POPC   D2A79288   8.218  27.637   6.750
 9600POPC   C3A79289   8.234  27.554   7.050
 9600POPC   C4A79290   8.160  27.643   7.350
 9600POPC   C1B79291   8.391  27.391   6.450
 9600POPC   C2B79292   8.363  27.446   6.750
 9600POPC   C3B79293   8.356  27.387   7.050
 9600POPC   C4B79294   8.413  27.398   7.350
 9601POPC   NC379295   9.761  25.286   5.550
 9601POPC   PO479296   9.749  25.256   5.850
 9601POPC   GL179297   9.729  25.279   6.150
 9601POPC   GL279298   9.851  25.300   6.150
 9601POPC   C1A79299   9.712  25.251   6.450
 9601POPC   D2A79300   9.794  25.281   6.750
 9601POPC   C3A79301   9.788  25.266   7.050
 9601POPC   C4A79302   9.718  25.282   7.350
 9601POPC   C1B79303   9.966  25.379   6.450
 9601POPC   C2B79304   9.915  25.452   6.750
 9601POPC   C3B79305   9.948  25.400   7.050
 9601POPC   C4B79306   9.945  25.477   7.350
 9602POPC   NC379307  37.691  15.224   5.550
 9602POPC   PO479308  37.686  15.156   5.850
 9602POPC   GL179309  37.710  15.181   6.150
 9602POPC   GL279310  37.652  15.115   6.150
 9602POPC   C1A79311  37.651  15.137   6.450
 9602POPC   D2A79312  37.666  15.186   6.750
 9602POPC   C3A79313  37.722  15.164   7.050
 9602POPC   C4A79314  37.709  15.204   7.350
 9602POPC   C1B79315  37.543  14.950   6.450
 9602POPC   C2B79316  37.555  14.997   6.750
 9602POPC   C3B79317  37.495  14.923   7.050
 9602POPC   C4B79318  37.564  14.988   7.350
 9603POPC   NC379319   2.754  44.685   5.550
 9603POPC   PO479320   2.768  44.689   5.850
 9603POPC   GL179321   2.780  44.665   6.150
 9603POPC   GL279322   2.913  44.695   6.150
 9603POPC   C1A79323   2.771  44.656   6.450
 9603POPC   D2A79324   2.765  44.696   6.750
 9603POPC   C3A79325   2.798  44.625   7.050
 9603POPC   C4A79326   2.798  44.699   7.350
 9603POPC   C1B79327   2.952  44.768   6.450
 9603POPC   C2B79328   3.032  44.780   6.750
 9603POPC   C3B79329   2.979  44.776   7.050
 9603POPC   C4B79330   3.040  44.768   7.350
 9604POPC   NC379331  20.561  26.822   5.550
 9604POPC   PO479332  20.588  26.774   5.850
 9604POPC   GL179333  20.632  26.815   6.150
 9604POPC   GL279334  20.691  26.783   6.150
 9604POPC   C1A79335  20.613  26.771   6.450
 9604POPC   D2A79336  20.605  26.831   6.750
 9604POPC   C3A79337  20.638  26.861   7.050
 9604POPC   C4A79338  20.642  26.792   7.350
 9604POPC   C1B79339  20.844  26.786   6.450
 9604POPC   C2B79340  20.902  26.838   6.750
 9604POPC   C3B79341  20.820  26.826   7.050
 9604POPC   C4B79342  20.891  26.857   7.350
 9605POPC   NC379343  19.844   4.278   5.550
 9605POPC   PO479344  19.812   4.366   5.850
 9605POPC   GL179345  19.814   4.280   6.150
 9605POPC   GL279346  19.748   4.321   6.150
 9605POPC   C1A79347  19.814   4.315   6.450
 9605POPC   D2A79348  19.787   4.344   6.750
 9605POPC   C3A79349  19.857   4.333   7.050
 9605POPC   C4A79350  19.822   4.324   7.350
 9605POPC   C1B79351  19.595   4.319   6.450
 9605POPC   C2B79352  19.540   4.346   6.750
 9605POPC   C3B79353  19.631   4.323   7.050
 9605POPC   C4B79354  19.572   4.397   7.350
 9606POPC   NC379355  29.968  41.599   5.550
 9606POPC   PO479356  29.930  41.537   5.850
 9606POPC   GL179357  29.955  41.600   6.150
 9606POPC   GL279358  30.021  41.496   6.150
 9606POPC   C1A79359  29.955  41.595   6.450
 9606POPC   D2A79360  29.910  41.550   6.750
 9606POPC   C3A79361  29.968  41.528   7.050
 9606POPC   C4A79362  29.912  41.540   7.350
 9606POPC   C1B79363  30.058  41.348   6.450
 9606POPC   C2B79364  30.081  41.401   6.750
 9606POPC   C3B79365  30.087  41.318   7.050
 9606POPC   C4B79366  30.037  41.369   7.350
 9607POPC   NC379367   2.785  12.829   5.550
 9607POPC   PO479368   2.767  12.805   5.850
 9607POPC   GL179369   2.779  12.835   6.150
 9607POPC   GL279370   2.646  12.843   6.150
 9607POPC   C1A79371   2.753  12.858   6.450
 9607POPC   D2A79372   2.724  12.845   6.750
 9607POPC   C3A79373   2.730  12.901   7.050
 9607POPC   C4A79374   2.732  12.838   7.350
 9607POPC   C1B79375   2.493  12.835   6.450
 9607POPC   C2B79376   2.537  12.830   6.750
 9607POPC   C3B79377   2.557  12.830   7.050
 9607POPC   C4B79378   2.488  12.777   7.350
 9608POPC   NC379379  10.476  10.551   5.550
 9608POPC   PO479380  10.493  10.493   5.850
 9608POPC   GL179381  10.570  10.497   6.150
 9608POPC   GL279382  10.653  10.585   6.150
 9608POPC   C1A79383  10.525  10.541   6.450
 9608POPC   D2A79384  10.538  10.485   6.750
 9608POPC   C3A79385  10.510  10.528   7.050
 9608POPC   C4A79386  10.507  10.553   7.350
 9608POPC   C1B79387  10.719  10.625   6.450
 9608POPC   C2B79388  10.750  10.632   6.750
 9608POPC   C3B79389  10.786  10.618   7.050
 9608POPC   C4B79390  10.724  10.680   7.350
 9609POPC   NC379391  36.896  41.551   5.550
 9609POPC   PO479392  36.868  41.515   5.850
 9609POPC   GL179393  36.856  41.602   6.150
 9609POPC   GL279394  37.043  41.622   6.150
 9609POPC   C1A79395  36.878  41.544   6.450
 9609POPC   D2A79396  36.886  41.588   6.750
 9609POPC   C3A79397  36.911  41.545   7.050
 9609POPC   C4A79398  36.884  41.546   7.350
 9609POPC   C1B79399  37.126  41.659   6.450
 9609POPC   C2B79400  37.094  41.685   6.750
 9609POPC   C3B79401  37.143  41.721   7.050
 9609POPC   C4B79402  37.133  41.694   7.350
 9610POPC   NC379403   9.007  25.313   5.550
 9610POPC   PO479404   8.991  25.295   5.850
 9610POPC   GL179405   8.931  25.304   6.150
 9610POPC   GL279406   8.820  25.241   6.150
 9610POPC   C1A79407   8.943  25.266   6.450
 9610POPC   D2A79408   8.929  25.284   6.750
 9610POPC   C3A79409   8.935  25.282   7.050
 9610POPC   C4A79410   8.930  25.253   7.350
 9610POPC   C1B79411   8.769  25.246   6.450
 9610POPC   C2B79412   8.687  25.304   6.750
 9610POPC   C3B79413   8.754  25.293   7.050
 9610POPC   C4B79414   8.715  25.313   7.350
 9611POPC   NC379415  36.856  40.752   5.550
 9611POPC   PO479416  36.950  40.801   5.850
 9611POPC   GL179417  36.926  40.831   6.150
 9611POPC   GL279418  36.943  40.613   6.150
 9611POPC   C1A79419  36.946  40.745   6.450
 9611POPC   D2A79420  36.923  40.777   6.750
 9611POPC   C3A79421  36.872  40.786   7.050
 9611POPC   C4A79422  36.908  40.739   7.350
 9611POPC   C1B79423  36.964  40.542   6.450
 9611POPC   C2B79424  36.903  40.565   6.750
 9611POPC   C3B79425  36.909  40.485   7.050
 9611POPC   C4B79426  36.896  40.537   7.350
 9612POPC   NC379427  15.131  41.515   5.550
 9612POPC   PO479428  15.168  41.560   5.850
 9612POPC   GL179429  15.149  41.582   6.150
 9612POPC   GL279430  15.043  41.487   6.150
 9612POPC   C1A79431  15.136  41.595   6.450
 9612POPC   D2A79432  15.221  41.541   6.750
 9612POPC   C3A79433  15.210  41.537   7.050
 9612POPC   C4A79434  15.216  41.568   7.350
 9612POPC   C1B79435  14.927  41.531   6.450
 9612POPC   C2B79436  14.983  41.511   6.750
 9612POPC   C3B79437  14.952  41.530   7.050
 9612POPC   C4B79438  14.900  41.538   7.350
 9613POPC   NC379439  43.920   8.983   5.550
 9613POPC   PO479440  43.903   8.951   5.850
 9613POPC   GL179441  43.869   8.949   6.150
 9613POPC   GL279442  43.814   8.979   6.150
 9613POPC   C1A79443  43.896   8.994   6.450
 9613POPC   D2A79444  43.889   8.964   6.750
 9613POPC   C3A79445  43.886   9.019   7.050
 9613POPC   C4A79446  43.896   8.931   7.350
 9613POPC   C1B79447  43.632   9.094   6.450
 9613POPC   C2B79448  43.633   9.026   6.750
 9613POPC   C3B79449  43.697   9.114   7.050
 9613POPC   C4B79450  43.624   9.091   7.350
 9614POPC   NC379451   6.612  42.304   5.550
 9614POPC   PO479452   6.641  42.306   5.850
 9614POPC   GL179453   6.627  42.304   6.150
 9614POPC   GL279454   6.727  42.240   6.150
 9614POPC   C1A79455   6.596  42.286   6.450
 9614POPC   D2A79456   6.632  42.381   6.750
 9614POPC   C3A79457   6.679  42.346   7.050
 9614POPC   C4A79458   6.674  42.324   7.350
 9614POPC   C1B79459   6.870  42.166   6.450
 9614POPC   C2B79460   6.881  42.192   6.750
 9614POPC   C3B79461   6.814  42.206   7.050
 9614POPC   C4B79462   6.815  42.204   7.350
 9615POPC   NC379463  32.988  40.820   5.550
 9615POPC   PO479464  33.014  40.765   5.850
 9615POPC   GL179465  33.009  40.810   6.150
 9615POPC   GL279466  32.916  40.722   6.150
 9615POPC   C1A79467  33.044  40.753   6.450
 9615POPC   D2A79468  32.999  40.748   6.750
 9615POPC   C3A79469  33.054  40.821   7.050
 9615POPC   C4A79470  33.048  40.804   7.350
 9615POPC   C1B79471  32.911  40.570   6.450
 9615POPC   C2B79472  32.902  40.583   6.750
 9615POPC   C3B79473  32.911  40.626   7.050
 9615POPC   C4B79474  32.857  40.615   7.350
 9616POPC   NC379475  29.145  18.240   5.550
 9616POPC   PO479476  29.185  18.305   5.850
 9616POPC   GL179477  29.129  18.291   6.150
 9616POPC   GL279478  29.236  18.310   6.150
 9616POPC   C1A79479  29.114  18.282   6.450
 9616POPC   D2A79480  29.170  18.309   6.750
 9616POPC   C3A79481  29.135  18.243   7.050
 9616POPC   C4A79482  29.193  18.284   7.350
 9616POPC   C1B79483  29.364  18.422   6.450
 9616POPC   C2B79484  29.337  18.439   6.750
 9616POPC   C3B79485  29.344  18.382   7.050
 9616POPC   C4B79486  29.319  18.448   7.350
 9617POPC   NC379487  15.215   7.395   5.550
 9617POPC   PO479488  15.150   7.403   5.850
 9617POPC   GL179489  15.220   7.373   6.150
 9617POPC   GL279490  15.122   7.334   6.150
 9617POPC   C1A79491  15.135   7.380   6.450
 9617POPC   D2A79492  15.178   7.469   6.750
 9617POPC   C3A79493  15.200   7.460   7.050
 9617POPC   C4A79494  15.196   7.374   7.350
 9617POPC   C1B79495  15.097   7.206   6.450
 9617POPC   C2B79496  15.105   7.230   6.750
 9617POPC   C3B79497  15.084   7.167   7.050
 9617POPC   C4B79498  15.082   7.170   7.350
 9618W        W79499  34.427  37.338  11.411
 9619W        W79500  17.269  34.947  10.640
 9620W        W79501  16.789  10.769   3.647
 9621W        W79502   4.448  19.584   4.700
 9622W        W79503  13.337  38.862   4.280
 9623W        W79504  21.616  11.274   4.207
 9624W        W79505   9.745  16.078  13.522
 9625W        W79506  17.701  25.095   4.705
 9626W        W79507  39.333  18.782   4.253
 9627W        W79508  43.906  35.903   2.270
 9628W        W79509  31.128   5.243  10.952
 9629W        W79510  10.834  43.477  14.487
 9630W        W79511  27.676   0.476  13.837
 9631W        W79512  41.833   5.313  11.597
 9632W        W79513  21.220   1.739  12.420
 9633W        W79514  34.523  33.120  11.607
 9634W        W79515  22.520  10.666  10.497
 9635W        W79516   3.439   0.861  13.056
 9636W        W79517  11.832  43.909   4.716
 9637W        W79518   3.837   4.264  10.426
 9638W        W79519  15.241   5.931   1.334
 9639W        W79520  22.626  10.234  10.432
 9640W        W79521   3.227  12.841  13.351
 9641W        W79522  27.155  32.416   3.156
 9642W        W79523   0.457  30.628   0.961
 9643W        W79524  24.541  33.885  10.449
 9644W        W79525  28.595  29.528  14.452
 9645W        W79526  21.642  35.958  12.485
 9646W        W79527  36.936  35.594   1.799
 9647W        W79528  23.196  36.479  14.825
 9648W        W79529  30.003  39.937   3.291
 9649W        W79530  13.132  44.329   2.376
 9650W        W79531  41.922  12.694   0.443
 9651W        W79532   6.763   2.461  12.013
 9652W        W79533  20.637   3.947  12.039
 9653W        W79534  10.876  21.042  13.356
 9654W        W79535  29.147  40.802   4.795
 9655W        W79536  18.134   8.203   2.205
 9656W        W79537  44.901  42.457  11.392
 9657W        W79538  29.507  37.907  12.440
 9658W        W79539  38.398  13.114   2.315
 9659W        W79540   2.411  43.964  11.061
 9660W        W79541  20.045  34.521   0.405
 9661W        W79542  20.753  14.333   2.240
 9662W        W79543  24.622  11.701   0.344
 9663W        W79544  28.441  29.428  10.560
 9664W        W79545   5.272  14.144  12.055
 9665W        W79546   2.371  11.188   0.331
 9666W        W79547   0.918   2.751   4.714
 9667W        W79548   9.889   9.283  13.026
 9668W        W79549  38.939  37.877   2.831
 9669W        W79550  36.982  38.886   2.840
 9670W        W79551  17.632  22.107   0.950
 9671W        W79552  34.560   4.419   0.842
 9672W        W79553  30.647   6.309   5.199
 9673W        W79554   5.396  26.973   1.908
 9674W        W79555  16.077  29.494   1.740
 9675W        W79556  42.826  41.413   1.420
 9676W        W79557   4.758   7.214   1.696
 9677W        W79558  20.630   0.306  10.580
 9678W        W79559  10.751   2.876  10.971
 9679W        W79560  13.292  22.099   0.346
 9680W        W79561  43.996  29.530   0.373
 9681W        W79562   2.808  16.216  11.898
 9682W        W79563  37.407  20.040   3.176
 9683W        W79564  34.892   1.879  13.811
 9684W        W79565  28.156  36.960   2.846
 9685W        W79566  22.995  28.532   3.327
 9686W        W79567  10.283   8.172  11.083
 9687W        W79568  10.826  44.437   3.338
 9688W        W79569  23.622  23.224   4.351
 9689W        W79570  19.170  16.689   3.777
 9690W        W79571   3.301  17.679   2.875
 9691W        W79572  21.726  28.156   4.808
 9692W        W79573  13.144   3.924   0.731
 9693W        W79574  23.525   3.754   4.204
 9694W        W79575  22.743   1.302   4.601
 9695W        W79576  42.374  30.155   1.777
 9696W        W79577  29.065  12.298   2.712
 9697W        W79578  32.018  29.149   1.764
 9698W        W79579  10.647   0.914  11.523
 9699W        W79580  33.945  16.615   0.243
 9700W        W79581   1.415  20.255  12.473
 9701W        W79582  24.045  13.256   4.754
 9702W        W79583   2.779  11.220  12.990
 9703W        W79584  42.383  32.084   4.826
 9704W        W79585  15.636  33.877  14.870
 9705W        W79586  28.066  10.764  14.376
 9706W        W79587  23.202  15.694   1.902
 9707W        W79588  13.167  20.750  10.629
 9708W        W79589   6.699  38.540  10.408
 9709W        W79590  14.288  24.145   2.807
 9710W        W79591  40.308  33.011  11.031
 9711W        W79592  15.708  13.724  10.468
 9712W        W79593  24.715  33.558  14.301
 9713W        W79594  41.006   8.387  14.975
 9714W        W79595  29.007  30.948  10.949
 9715W        W79596  16.312   4.702   3.340
 9716W        W79597   5.840   4.391   1.871
 9717W        W79598  27.573   0.383  14.420
 9718W        W79599  25.062   3.723   4.146
 9719W        W79600  21.198   4.354   4.609
 9720W        W79601  11.817   3.429  12.449
 9721W        W79602  21.739  39.920  13.333
 9722W        W79603  15.090  39.408   1.340
 9723W        W79604  30.530  22.642   4.658
 9724W        W79605  32.128  32.121   4.177
 9725W        W79606  26.666   0.276  13.978
 9726W        W79607  14.770  16.640   4.821
 9727W        W79608  17.614  26.697   3.234
 9728W        W79609  26.097  37.399  10.993
 9729W        W79610   8.346   9.154  12.987
 9730W        W79611  32.043   8.710   4.223
 9731W        W79612  27.119   2.901  14.831
 9732W        W79613  20.031  22.729  12.046
 9733W        W79614   5.221  14.218  12.364
 9734W        W79615  37.959   1.756  14.975
 9735W        W79616  41.491  22.155  14.772
 9736W        W79617  22.538  24.033   5.199
 9737W        W79618  14.329   2.366   3.813
 9738W        W79619  12.262   4.918  13.830
 9739W        W79620  19.260   5.903   4.166
 9740W        W79621  27.506  28.645  13.459
 9741W        W79622  35.484  17.782   1.376
 9742W        W79623  25.175  38.945   3.756
 9743W        W79624  12.314  11.197   4.611
 9744W        W79625   4.728  40.888   4.807
 9745W        W79626  22.709  44.001  11.008
 9746W        W79627  14.596  34.880   1.317
 9747W        W79628  15.742   4.311   1.694
 9748W        W79629   9.199  12.819   2.288
 9749W        W79630  23.490  23.228   3.792
 9750W        W79631  38.901  26.139  13.030
 9751W        W79632   6.353   8.162  13.538
 9752W        W79633  41.479  21.039   2.760
 9753W        W79634  20.547  13.625   3.805
 9754W        W79635  38.962  33.573   1.815
 9755W        W79636  43.775  42.944   3.846
 9756W        W79637  28.143  26.475   9.964
 9757W        W79638  43.360  37.465   4.679
 9758W        W79639  21.061  30.486  14.025
 9759W        W79640  22.596  32.572  14.932
 9760W        W79641  43.512  31.617  13.354
 9761W        W79642  12.822  42.397  11.085
 9762W        W79643  29.934  39.350   0.932
 9763W        W79644   5.705  40.488   1.316
 9764W        W79645  17.153  28.091   4.158
 9765W        W79646  33.563  39.463   1.828
 9766W        W79647   4.246  19.695  11.072
 9767W        W79648   8.737  36.455   2.702
 9768W        W79649  36.447  27.020  10.553
 9769W        W79650  36.446  43.330   3.642
 9770W        W79651  40.011  37.884   2.307
 9771W        W79652  35.532  23.630  11.588
 9772W        W79653  31.630  39.909   4.279
 9773W        W79654  30.997  31.451   2.662
 9774W        W79655  30.144  35.496  11.557
 9775W        W79656  34.102   6.704   4.763
 9776W        W79657  42.494  39.848   1.796
 9777W        W79658   8.165  33.101   3.218
 9778W        W79659  26.077  24.591  14.371
 9779W        W79660  40.842  12.244  12.381
 9780W        W79661   2.442  33.608  12.951
 9781W        W79662  38.008  10.773   2.372
 9782W        W79663   9.339   7.814   4.730
 9783W        W79664  11.177   2.347  13.438
 9784W        W79665  25.003   7.780   0.407
 9785W        W79666   5.741  21.732   0.827
 9786W        W79667  16.644  26.579  13.370
 9787W        W79668  41.007   3.855   4.280
 9788W        W79669  18.202   1.835   1.719
 9789W        W79670  38.354  40.001   2.220
 9790W        W79671   8.845   8.193  12.541
 9791W        W79672  31.114  10.203  13.030
 9792W        W79673  21.142  25.585   3.777
 9793W        W79674   0.258  44.846  14.283
 9794W        W79675  30.562  18.651  13.407
 9795W        W79676  17.636  35.023   1.223
 9796W        W79677  30.927   9.708  10.906
 9797W        W79678  12.210  24.011   4.162
 9798W        W79679   6.737   8.747   0.300
 9799W        W79680   0.294  32.024   2.677
 9800W        W79681  42.892  30.096  11.046
 9801W        W79682  32.572  42.316  14.383
 9802W        W79683  37.935  14.203  14.435
 9803W        W79684   7.714  37.044   0.355
 9804W        W79685   0.912  17.129  12.382
 9805W        W79686  31.015  38.878   3.834
 9806W        W79687   3.316   2.355   0.455
 9807W        W79688  22.228  31.936   1.330
 9808W        W79689  27.660  34.408  11.040
 9809W        W79690   2.866   7.348   4.248
 9810W        W79691  27.183  26.605   1.397
 9811W        W79692  22.501  32.122  11.490
 9812W        W79693   0.818  29.584   0.767
 9813W        W79694  25.187   2.409  13.972
 9814W        W79695  37.377  30.921  11.396
 9815W        W79696   1.746   6.325   3.286
 9816W        W79697  20.693  43.832   3.766
 9817W        W79698  16.272  32.516   1.278
 9818W        W79699  24.714  25.686  11.427
 9819W        W79700  31.138  35.470   2.695
 9820W        W79701  23.647  38.998   0.433
 9821W        W79702  42.902  11.162  14.936
 9822W        W79703  29.019  39.375  11.603
 9823W        W79704   6.344   4.744  13.483
 9824W        W79705  35.420   0.921   1.875
 9825W        W79706  40.821  21.157   1.403
 9826W        W79707  25.511   4.812   4.125
 9827W        W79708  25.541  29.545  14.788
 9828W        W79709  43.364   6.200  14.338
 9829W        W79710  16.733   5.819  12.395
 9830W        W79711  20.109  10.814   1.310
 9831W        W79712  33.390  31.494   3.815
 9832W        W79713  21.563  39.897  14.479
 9833W        W79714  31.421  18.740  13.991
 9834W        W79715  28.663  38.337  14.281
 9835W        W79716  16.201  43.774  11.539
 9836W        W79717  25.170  37.888  11.510
 9837W        W79718  22.104  32.459  12.862
 9838W        W79719   4.408  13.160   2.728
 9839W        W79720  41.980   5.694   4.263
 9840W        W79721  37.372  40.389  14.935
 9841W        W79722  41.927  26.548   3.825
 9842W        W79723  42.481  23.685  14.433
 9843W        W79724  23.018  12.350   4.639
 9844W        W79725   3.392  13.801   3.819
 9845W        W79726  21.101  10.327  10.458
 9846W        W79727  29.157   1.473   1.895
 9847W        W79728   1.876  18.584  13.356
 9848W        W79729  28.097  26.147   3.351
 9849W        W79730  11.232  19.184   1.329
 9850W        W79731  11.854  25.645   1.879
 9851W        W79732   2.346  42.950  11.439
 9852W        W79733  16.089  10.744   0.244
 9853W        W79734   8.714  19.553   1.441
 9854W        W79735  30.582  43.280   2.683
 9855W        W79736  14.212  33.101   2.407
 9856W        W79737   9.274  15.136   1.852
 9857W        W79738   7.283   4.926  13.321
 9858W        W79739  38.829  19.769   5.086
 9859W        W79740   9.165  40.324  14.837
 9860W        W79741  15.296   3.737  12.990
 9861W        W79742   7.905  43.363  11.387
 9862W        W79743  32.583   5.324   1.791
 9863W        W79744  33.565   2.724   1.316
 9864W        W79745  10.642  14.590   4.752
 9865W        W79746  12.354   3.272  13.483
 9866W        W79747  44.007   4.874   3.632
 9867W        W79748  27.450  39.818  12.027
 9868W        W79749  35.515   9.721  12.406
 9869W        W79750  35.021   1.858  12.429
 9870W        W79751  18.783  31.450  14.974
 9871W        W79752   1.821   2.448   3.329
 9872W        W79753  10.759   7.379   0.254
 9873W        W79754  18.058   9.687   4.338
 9874W        W79755  43.793  13.269   0.306
 9875W        W79756  14.758  29.478   1.827
 9876W        W79757  25.633  25.181   3.864
 9877W        W79758  44.858  24.998  11.455
 9878W        W79759  34.574  15.629  10.495
 9879W        W79760   9.835  27.589   0.392
 9880W        W79761  34.603  15.613  14.866
 9881W        W79762   7.413  39.026  13.463
 9882W        W79763  19.777  22.527   2.390
 9883W        W79764  16.742   7.695   1.865
 9884W        W79765  26.596   2.329   3.223
 9885W        W79766  19.252  44.807   1.926
 9886W        W79767   0.425  35.363  13.345
 9887W        W79768  12.197  18.278   3.261
 9888W        W79769  44.844  30.140   3.853
 9889W        W79770  24.531  35.932  14.848
 9890W        W79771   1.882  15.325   4.737
 9891W        W79772  13.115   6.188   1.261
 9892W        W79773  27.972  41.525   3.858
 9893W        W79774  17.198  44.930  12.421
 9894W        W79775  41.516  27.953  14.787
 9895W        W79776  39.981  17.288   0.391
 9896W        W79777   2.437  13.118   1.853
 9897W        W79778  37.374  17.093   2.748
 9898W        W79779   8.239  16.572   4.621
 9899W        W79780  23.511  16.184   3.345
 9900W        W79781  28.068  19.255  11.512
 9901W        W79782  11.864  34.451  13.415
 9902W        W79783  18.757  24.047  12.481
 9903W        W79784  32.943  21.703  11.442
 9904W        W79785  34.893  22.057  11.962
 9905W        W79786  41.972   2.816  11.103
 9906W        W79787   6.780   2.746   4.145
 9907W        W79788  44.819  39.958  11.913
 9908W        W79789  40.417  29.023   3.246
 9909W        W79790   0.275  37.865  13.844
 9910W        W79791  39.852  38.003   3.640
 9911W        W79792  35.403  40.970  11.070
 9912W        W79793  13.315  35.447   0.277
 9913W        W79794  11.807   5.771  11.937
 9914W        W79795  28.561  27.019  13.863
 9915W        W79796  21.548  40.932  14.007
 9916W        W79797  18.233   0.799  13.462
 9917W        W79798  33.933  27.480  10.488
 9918W        W79799  16.288  27.530  14.885
 9919W        W79800   3.925  40.899  10.556
 9920W        W79801  16.294   4.285  11.435
 9921W        W79802  38.477  10.872  14.457
 9922W        W79803   6.219  32.013   3.809
 9923W        W79804  26.635   4.421  11.436
 9924W        W79805   0.910  27.547  11.901
 9925W        W79806  41.968  33.041   4.134
 9926W        W79807  30.041  43.013  11.422
 9927W        W79808  44.799  16.748  13.413
 9928W        W79809   6.685  20.029  14.832
 9929W        W79810  32.496  36.010   0.328
 9930W        W79811  40.983  27.986   4.714
 9931W        W79812  19.173  11.734  11.427
 9932W        W79813  25.511  20.535  11.018
 9933W        W79814  39.056  19.561   4.786
 9934W        W79815  42.944  36.984  11.961
 9935W        W79816   2.763  16.572   0.280
 9936W        W79817  29.924  29.941  11.126
 9937W        W79818   7.292  42.969  14.362
 9938W        W79819  37.918  14.832  14.002
 9939W        W79820  31.445  17.741  11.473
 9940W        W79821  35.464  22.196  14.342
 9941W        W79822  14.181  18.566   0.294
 9942W        W79823   9.160  31.519   1.253
 9943W        W79824  44.460  26.998   2.892
 9944W        W79825  28.643   2.919   2.812
 9945W        W79826  37.863   9.671  10.591
 9946W        W79827  35.071  31.544   0.430
 9947W        W79828  41.843  40.380  13.531
 9948W        W79829  12.775  36.418  13.976
 9949W        W79830   0.961   0.339  12.566
 9950W        W79831  16.608  35.577  14.891
 9951W        W79832  11.698   3.316   1.905
 9952W        W79833  33.421  40.438  12.414
 9953W        W79834  38.515  29.572   2.316
 9954W        W79835  16.655  42.860  10.539
 9955W        W79836  29.014   4.428   3.843
 9956W        W79837   2.964  40.499  13.867
 9957W        W79838  19.570  16.632  14.000
 9958W        W79839  33.589  18.169  14.772
 9959W        W79840  32.141   7.297  12.462
 9960W        W79841  24.715  37.832   3.147
 9961W        W79842  14.177  25.962   4.310
 9962W        W79843  31.138  12.176  11.468
 9963W        W79844  38.566  19.255   2.728
 9964W        W79845  18.208  34.558  14.901
 9965W        W79846  10.254  31.148  13.383
 9966W        W79847  19.184  44.959  12.922
 9967W        W79848   6.755  33.451  13.538
 9968W        W79849  37.008  44.838   1.832
 9969W        W79850  28.652   6.385  14.454
 9970W        W79851  44.271   4.443  12.539
 9971W        W79852   2.428  19.699  11.044
 9972W        W79853  15.109  15.231  10.427
 9973W        W79854   2.432   2.336   0.377
 9974W        W79855  42.340  11.353   2.357
 9975W        W79856  26.525   2.294   4.749
 9976W        W79857  17.188  28.623  11.400
 9977W        W79858  22.020   3.338  13.005
 9978W        W79859   9.793  25.542   1.344
 9979W        W79860  29.607  44.484   1.419
 9980W        W79861  40.405  41.514  10.931
 9981W        W79862  25.964  17.794   2.411
 9982W        W79863  11.345   8.323   4.189
 9983W        W79864  44.897  39.364  14.876
 9984W        W79865  12.181  11.281   1.292
 9985W        W79866  34.604  24.699   4.213
 9986W        W79867  42.410  26.195  11.021
 9987W        W79868  39.450   4.763   0.255
 9988W        W79869  23.142  18.170  10.972
 9989W        W79870  41.322  36.438   0.451
 9990W        W79871  12.811  34.527   0.835
 9991W        W79872  32.390  40.891  12.966
 9992W        W79873  14.333   6.890  11.855
 9993W        W79874  32.529  10.292   4.138
 9994W        W79875  19.100   6.424  15.000
 9995W        W79876  40.993  25.063   1.258
 9996W        W79877   9.167  13.800   4.674
 9997W        W79878   9.350  28.630   4.310
 9998W        W79879  38.892  15.300  14.017
 9999W        W79880  18.259   8.804   3.251
10000W        W79881  10.216   7.194   2.258
10001W        W79882  21.513  27.566   3.165
10002W        W79883   7.858   6.713   0.761
10003W        W79884  25.187   7.238  14.766
10004W        W79885  31.611  32.937  12.433
10005W        W79886  38.424   7.333   0.750
10006W        W79887  29.563  26.033   4.167
10007W        W79888  23.071  19.683   2.745
10008W        W79889   9.848  20.229   3.236
10009W        W79890  30.025  28.067   0.359
10010W        W79891  37.368  32.509  13.834
10011W        W79892  18.623   7.339   3.278
10012W        W79893  30.951  33.971   3.290
10013W        W79894  25.708   7.780   3.803
10014W        W79895  33.428  34.587  11.518
10015W        W79896  40.451  26.096  13.500
10016W        W79897  34.523  26.096   4.312
10017W        W79898  17.163   5.314  13.313
10018W        W79899  23.588   9.233  14.313
10019W        W79900  14.152   8.898   5.105
10020W        W79901  31.586  35.561  12.375
10021W        W79902  43.507  44.806   0.823
10022W        W79903  31.942  42.370   4.702
10023W        W79904  40.308  20.678   0.396
10024W        W79905  33.981  43.468   1.357
10025W        W79906   7.673  35.016   2.376
10026W        W79907  28.154  33.548   9.973
10027W        W79908   0.333  16.710   2.287
10028W        W79909  27.610   2.398   3.734
10029W        W79910   5.756  39.873   4.297
10030W        W79911  33.445   0.481   2.232
10031W        W79912   1.460  44.786   0.828
10032W        W79913  40.347  43.923  14.955
10033W        W79914  37.340  25.512  10.962
10034W        W79915  20.146  44.349   3.233
10035W        W79916  18.204  25.606   2.772
10036W        W79917   9.276  38.363   2.760
10037W        W79918  16.768  28.091  14.935
10038W        W79919   3.279  29.608   0.876
10039W        W79920  23.732  24.654   0.873
10040W        W79921  31.599   5.807  14.398
10041W        W79922  20.067   6.298  13.025
10042W        W79923   2.357  24.187   4.189
10043W        W79924  17.069  40.429  13.320
10044W        W79925   3.918  25.045  13.929
10045W        W79926  34.458  40.026   2.729
10046W        W79927   7.248  14.171   3.835
10047W        W79928   9.852  17.139   5.724
10048W        W79929  40.003  16.118   2.353
10049W        W79930  37.435  15.820  13.397
10050W        W79931  17.262  43.485  14.998
10051W        W79932  30.089  32.001  11.018
10052W        W79933  38.569  18.716  14.999
10053W        W79934  25.506   3.846   0.777
10054W        W79935   6.392  40.373  11.888
10055W        W79936  31.467  41.336  14.324
10056W        W79937  28.553  14.113   0.867
10057W        W79938   6.369  44.943  13.798
10058W        W79939   0.765  15.636   3.366
10059W        W79940  37.943  38.551  13.502
10060W        W79941  22.243  34.049   2.363
10061W        W79942  23.567   4.929  12.953
10062W        W79943  24.665  23.144   0.865
10063W        W79944  11.854  12.274   0.865
10064W        W79945   3.916   4.861   3.317
10065W        W79946  28.550  10.376  10.892
10066W        W79947  41.809  40.039   2.816
10067W        W79948  27.530  42.945   3.702
10068W        W79949  31.464  33.481   3.838
10069W        W79950  34.916  11.335  11.007
10070W        W79951  28.082  21.659  13.995
10071W        W79952  29.924  22.036   2.348
10072W        W79953  25.547  33.035   1.218
10073W        W79954  11.281   6.217   3.169
10074W        W79955  23.701  20.604   3.748
10075W        W79956  27.017  23.644  13.917
10076W        W79957   6.822   4.718  13.506
10077W        W79958  43.385  16.742   3.251
10078W        W79959  38.483  31.631   3.706
10079W        W79960  19.159  34.410   3.199
10080W        W79961  10.764  21.611   3.195
10081W        W79962  31.487  17.622  10.049
10082W        W79963   5.894  33.935   1.404
10083W        W79964   1.937  21.195   0.835
10084W        W79965  38.980  38.441  14.009
10085W        W79966  22.071  36.935  11.062
10086W        W79967  11.717  10.373  14.401
10087W        W79968  27.058  20.120  13.999
10088W        W79969  36.920   7.241  13.941
10089W        W79970   8.248   5.436   3.293
10090W        W79971  11.216  16.107   0.437
10091W        W79972  14.653  33.054   1.862
10092W        W79973  11.183  32.560  14.346
10093W        W79974  38.872  33.439  11.045
10094W        W79975  12.743   8.252   4.306
10095W        W79976   2.843  25.212   0.804
10096W        W79977  35.487  37.858   4.126
10097W        W79978  18.277   7.823  12.964
10098W        W79979  16.259   9.185  14.797
10099W        W79980   8.707   3.931  10.464
10100W        W79981  10.769  18.780  10.922
10101W        W79982  43.944  31.911  12.947
10102W        W79983   7.268  27.027  10.987
10103W        W79984  25.595  44.316   2.321
10104W        W79985  12.337   1.410  13.006
10105W        W79986  13.324  25.158  10.530
10106W        W79987  12.150  27.975  13.384
10107W        W79988  39.049  42.881  13.372
10108W        W79989  29.943  43.989  10.954
10109W        W79990   8.197  18.643  10.522
10110W        W79991  17.254  40.507   0.277
10111W        W79992  44.814   6.291  13.316
10112W        W79993   7.784  35.420   2.282
10113W        W79994  21.579  26.099   4.779
10114W        W79995  15.752  18.138   2.853
10115W        W79996   4.239  19.183  11.426
10116W        W79997  30.608   3.398   0.358
10117W        W79998  28.060   6.245   4.227
10118W        W79999   0.811   0.351   3.803
10119W        W80000  26.671   1.976  11.955
10120W        W80001  20.589  42.822  12.004
10121W        W80002  12.336  14.749  11.435
10122W        W80003  10.678  23.716   1.784
10123W        W80004  18.674  23.645   4.322
10124W        W80005  23.638  15.718  14.319
10125W        W80006  16.311  28.938   0.863
10126W        W80007  23.206  37.854   3.212
10127W        W80008  44.475   0.801   3.257
10128W        W80009  19.572  35.596  11.020
10129W        W80010   5.844  41.027  14.003
10130W        W80011  40.436  39.476  12.490
10131W        W80012  34.534   4.436  12.872
10132W        W80013  37.509  15.739  13.804
10133W        W80014   0.494  22.720  12.524
10134W        W80015   4.289   7.189  10.966
10135W        W80016  41.942  11.663  12.356
10136W        W80017   2.879  40.947  11.039
10137W        W80018  26.058  22.125   1.355
10138W        W80019  31.911   0.909   4.114
10139W        W80020  37.080   8.206   4.771
10140W        W80021  31.911  30.468   2.860
10141W        W80022  25.202  12.274  14.503
10142W        W80023  11.852   3.800  11.023
10143W        W80024  28.017  21.219  10.486
10144W        W80025  13.238  31.496  11.867
10145W        W80026  32.966  19.086   0.449
10146W        W80027  38.879  30.017  11.094
10147W        W80028   0.820  28.939  11.899
10148W        W80029   4.723   1.370  10.609
10149W        W80030  24.587   3.858  14.281
10150W        W80031  22.099  13.673  14.813
10151W        W80032   9.840  23.628   1.795
10152W        W80033  39.051  31.064  13.792
10153W        W80034  26.508  21.738  14.279
10154W        W80035  27.645  32.430   0.422
10155W        W80036  23.029  32.119  12.014
10156W        W80037   0.842  41.481   3.317
10157W        W80038  19.165  31.489   2.876
10158W        W80039   9.847  30.081   1.211
10159W        W80040   8.872   8.365   4.348
10160W        W80041  19.041  10.175  11.421
10161W        W80042   7.235   0.403  12.417
10162W        W80043  20.683  34.566  10.580
10163W        W80044   5.257  10.846   4.684
10164W        W80045  42.809  34.944   0.429
10165W        W80046  42.830  36.347  12.466
10166W        W80047  30.004  15.234   1.869
10167W        W80048  13.672  27.071   1.802
10168W        W80049   6.239  33.989  11.504
10169W        W80050  14.333  43.775   1.363
10170W        W80051   1.916   0.254   3.700
10171W        W80052   9.349   8.697  13.536
10172W        W80053  39.914  42.444   1.333
10173W        W80054  19.744  22.598  13.428
10174W        W80055   9.197  19.177  11.861
10175W        W80056  32.573   8.344   1.910
10176W        W80057  30.914  21.157   4.704
10177W        W80058  30.627  28.573  11.090
10178W        W80059  32.556  31.143  14.929
10179W        W80060  29.496  44.936  12.378
10180W        W80061   7.352  28.594  10.944
10181W        W80062   7.212  30.080   1.796
10182W        W80063  21.581   8.866   0.303
10183W        W80064   0.949  16.292  11.037
10184W        W80065   5.376   9.808  11.578
10185W        W80066  21.621  35.565  12.920
10186W        W80067   0.460   6.712   0.813
10187W        W80068  44.412  33.101  13.869
10188W        W80069  15.137  17.194  11.969
10189W        W80070  16.076  36.087  11.428
10190W        W80071  29.954  17.297  13.947
10191W        W80072  16.246   5.402   4.203
10192W        W80073  15.698  43.320  11.565
10193W        W80074  21.724   9.711   2.683
10194W        W80075  38.906  43.770  11.082
10195W        W80076  41.933  41.386   4.599
10196W        W80077  19.769   8.353   2.671
10197W        W80078  11.847  15.734  10.486
10198W        W80079   5.842  35.517  13.391
10199W        W80080  23.566  33.919  10.946
10200W        W80081   5.706  18.074  14.851
10201W        W80082   2.811   3.335  10.627
10202W        W80083   6.303  32.105   3.342
10203W        W80084  38.561  28.122  13.422
10204W        W80085  31.483  38.461  10.509
10205W        W80086  28.934  30.004  13.487
10206W        W80087  33.985  35.084  13.398
10207W        W80088  40.047  40.511  14.954
10208W        W80089  36.539  12.624   9.961
10209W        W80090  42.507  28.951  11.108
10210W        W80091  23.602  28.452   0.462
10211W        W80092   4.802  12.720   2.701
10212W        W80093   7.720  20.630  10.919
10213W        W80094  16.775  19.225  11.551
10214W        W80095   4.400  15.107   3.257
10215W        W80096  42.785  30.496   2.204
10216W        W80097   3.873  28.569   0.770
10217W        W80098  36.888  22.564   3.178
10218W        W80099  21.712  34.595   2.719
10219W        W80100  15.201  43.496   3.326
10220W        W80101  32.092  31.957  13.907
10221W        W80102  25.042  12.157  13.038
10222W        W80103   7.885  14.238  10.972
10223W        W80104  17.674  43.501   3.795
10224W        W80105  32.127  42.445   4.320
10225W        W80106  33.460   7.379  11.114
10226W        W80107   5.725  31.442  13.339
10227W        W80108  13.177  21.694  14.326
10228W        W80109  25.989  25.032   2.319
10229W        W80110  40.988   4.757   0.898
10230W        W80111  31.594   3.774  12.884
10231W        W80112   8.833  25.645   2.855
10232W        W80113  19.103  34.922  12.530
10233W        W80114  37.975   8.297  10.478
10234W        W80115  39.327  19.743   5.292
10235W        W80116  42.463  18.188  13.914
10236W        W80117  23.138  35.110   2.877
10237W        W80118  43.500  34.374  10.435
10238W        W80119   0.439  26.113   3.677
10239W        W80120  29.944  39.011  11.452
10240W        W80121   4.214  12.788   2.765
10241W        W80122  20.032  22.519   1.774
10242W        W80123  31.627  40.802   3.185
10243W        W80124  38.351   1.872   4.160
10244W        W80125  38.373  41.972  14.800
10245W        W80126   6.784  18.250   0.728
10246W        W80127   5.194   8.859   1.774
10247W        W80128  41.024  34.564   0.319
10248W        W80129  35.867   2.467   5.172
10249W        W80130  33.590  43.512  10.526
10250W        W80131  34.614  25.133  13.487
10251W        W80132  19.677   5.859  13.850
10252W        W80133  35.575  41.853   4.293
10253W        W80134  42.522   1.946   2.671
10254W        W80135   9.247  25.529  11.423
10255W        W80136  39.367  43.962  14.818
10256W        W80137   3.427  44.867  10.455
10257W        W80138   1.269  23.518   3.749
10258W        W80139  15.662  26.506   0.408
10259W        W80140  22.191  29.649   1.922
10260W        W80141  30.968  29.102  14.774
10261W        W80142  26.588   7.175   0.257
10262W        W80143   9.804  25.040  11.993
10263W        W80144  12.257  10.241   1.268
10264W        W80145  10.343  36.591   2.678
10265W        W80146  30.513  20.136  14.008
10266W        W80147  41.441  39.422   3.829
10267W        W80148  40.894  36.962   1.862
10268W        W80149   6.772   8.314  14.888
10269W        W80150  22.682   6.807  11.878
10270W        W80151  10.377  17.100  11.101
10271W        W80152  17.633  27.028   3.148
10272W        W80153   1.264  12.190  14.803
10273W        W80154  15.145   9.870  11.603
10274W        W80155  35.596  29.012   3.853
10275W        W80156   9.293   3.300   3.838
10276W        W80157  34.529  26.630  13.802
10277W        W80158   2.883   6.824   1.284
10278W        W80159   2.456   8.280   0.303
10279W        W80160   3.401  42.828   1.263
10280W        W80161  36.009   9.311   4.702
10281W        W80162   9.384  13.688  14.369
10282W        W80163   1.391  43.812  11.919
10283W        W80164  30.504  21.565  13.391
10284W        W80165  19.244   6.875   4.191
10285W        W80166   7.817  17.707   0.768
10286W        W80167  42.475  25.597   2.833
10287W        W80168  11.760  11.735   1.723
10288W        W80169   7.769  34.466  10.098
10289W        W80170  19.053  17.643  12.876
10290W        W80171  31.036  41.008  11.590
10291W        W80172  21.561  36.539  13.398
10292W        W80173   0.491  13.836  11.509
10293W        W80174  22.132  20.761   0.899
10294W        W80175  27.120  37.877   2.200
10295W        W80176   8.742  41.917  10.928
10296W        W80177  33.959  12.833  11.544
10297W        W80178  43.001  37.087  11.487
10298W        W80179  32.980   4.307   1.335
10299W        W80180  36.036  24.048  11.415
10300W        W80181  16.698  12.679   3.649
10301W        W80182  20.172  10.820  13.959
10302W        W80183  41.996  38.522  11.547
10303W        W80184   7.356  28.071   1.716
10304W        W80185  43.454  44.887   3.766
10305W        W80186  34.896  31.555  12.972
10306W        W80187  39.007   7.218  10.161
10307W        W80188  39.979  20.534   1.356
10308W        W80189  13.305  12.758   2.199
10309W        W80190  32.070  13.163   1.247
10310W        W80191  34.474  21.709   1.834
10311W        W80192  34.526   1.767   4.169
10312W        W80193  16.762  42.459  12.958
10313W        W80194  27.640  26.180  14.848
10314W        W80195   3.892  18.229  10.644
10315W        W80196  22.157  22.607   0.332
10316W        W80197  30.595  20.704   1.703
10317W        W80198  10.253  21.217   5.261
10318W        W80199  15.268  14.283   1.427
10319W        W80200  29.447   9.240   3.208
10320W        W80201  22.628  13.771   2.411
10321W        W80202   1.978  23.690  12.556
10322W        W80203   0.835  19.285   0.262
10323W        W80204  31.123  19.172   0.470
10324W        W80205  18.607  43.516   3.356
10325W        W80206  37.580  17.692   4.601
10326W        W80207   1.976   5.389   4.300
10327W        W80208  24.651  30.559  12.381
10328W        W80209  31.098  37.972   3.635
10329W        W80210  39.935  20.170   1.450
10330W        W80211  43.985   6.426  13.343
10331W        W80212  14.719   9.871  13.899
10332W        W80213   4.326  14.774  12.398
10333W        W80214  14.160  34.965   4.805
10334W        W80215  23.727  41.366  13.034
10335W        W80216  17.227  37.940   1.807
10336W        W80217  30.574  37.526  12.865
10337W        W80218   5.756  13.320   3.330
10338W        W80219  35.402  28.618  12.934
10339W        W80220  24.987   4.932  10.408
10340W        W80221  14.808  16.307  12.046
10341W        W80222  36.428  15.194  14.920
10342W        W80223  13.755   4.224  14.482
10343W        W80224   1.919  25.027   2.706
10344W        W80225  37.489   1.746  14.380
10345W        W80226  17.572  27.946   4.680
10346W        W80227  24.619  20.756  14.760
10347W        W80228  30.953   0.885   1.418
10348W        W80229  17.189   9.393   0.311
10349W        W80230   3.740   3.860  14.325
10350W        W80231  39.998  29.561   2.271
10351W        W80232   0.354  25.573  11.881
10352W        W80233  29.176  18.549   3.155
10353W        W80234  12.627  19.589   2.259
10354W        W80235  21.524  39.457  13.802
10355W        W80236   8.880  31.104   2.234
10356W        W80237  16.265  31.087   2.418
10357W        W80238  18.701   8.383   0.844
10358W        W80239  38.537  19.124   0.282
10359W        W80240  42.396  16.709  10.478
10360W        W80241  26.576   0.935  11.909
10361W        W80242  11.253   2.835   0.414
10362W        W80243  30.565  24.112   0.384
10363W        W80244  15.639  17.796  11.926
10364W        W80245  27.630   6.297   2.369
10365W        W80246  38.925   3.454   2.783
10366W        W80247  42.826  19.150  12.467
10367W        W80248  33.448  23.720  14.308
10368W        W80249  38.488  26.584  13.363
10369W        W80250   9.381   1.823   2.819
10370W        W80251   7.769  10.178   3.290
10371W        W80252  34.077   8.372  13.440
10372W        W80253   8.853  32.619  10.464
10373W        W80254  43.791  23.074   1.414
10374W        W80255  16.733  14.660   2.869
10375W        W80256  39.033  15.803   3.738
10376W        W80257  12.840   8.760  13.412
10377W        W80258  39.869   7.734  13.540
10378W        W80259  31.427   8.228   2.855
10379W        W80260  19.660  33.957  14.429
10380W        W80261  22.718   7.785  13.397
10381W        W80262  26.535  14.328   3.792
10382W        W80263   1.319   4.900  10.455
10383W        W80264  20.630  44.280   0.870
10384W        W80265  25.004  14.747  10.435
10385W        W80266   2.460  26.530   3.269
10386W        W80267   6.196  29.532  10.431
10387W        W80268  10.354  14.339   0.413
10388W        W80269  39.007  28.676   1.894
10389W        W80270   1.735  33.931  14.369
10390W        W80271  11.344  44.354   2.382
10391W        W80272  34.036  38.468  12.988
10392W        W80273  12.681  14.666  11.006
10393W        W80274  17.091  34.593  13.353
10394W        W80275  37.041   4.408   3.646
10395W        W80276   6.904  31.063  13.484
10396W        W80277  37.571   0.749   0.345
10397W        W80278  21.696   1.819  14.457
10398W        W80279  44.463  34.020  12.864
10399W        W80280  26.085  10.258   1.268
10400W        W80281  34.981  39.554   0.452
10401W        W80282   1.315  34.099  11.039
10402W        W80283  34.595  32.550  11.124
10403W        W80284  36.505  27.119  13.511
10404W        W80285  13.802  10.149   3.742
10405W        W80286  40.938  14.770  11.397
10406W        W80287  29.934  42.976   4.748
10407W        W80288  10.817  30.452   0.954
10408W        W80289   1.379  29.512   3.792
10409W        W80290  36.019  17.186  12.896
10410W        W80291  32.455  25.982   0.878
10411W        W80292  23.508  22.653  13.806
10412W        W80293  27.484  28.093  14.776
10413W        W80294  31.630  36.958   1.445
10414W        W80295  31.897  15.259  10.996
10415W        W80296  42.954  33.954   2.306
10416W        W80297  19.211  31.931  14.342
10417W        W80298  39.376  39.379   0.860
10418W        W80299   5.194  17.621  11.507
10419W        W80300  44.820  10.157  11.930
10420W        W80301  25.527  29.578  12.467
10421W        W80302   2.839  16.191  11.464
10422W        W80303  13.766  21.612  11.534
10423W        W80304  40.411  29.433  10.509
10424W        W80305  18.070  40.049   0.901
10425W        W80306  37.845  11.756   0.966
10426W        W80307  43.787  40.913  11.407
10427W        W80308  11.735  19.645  14.781
10428W        W80309  41.030   2.937   1.723
10429W        W80310  31.086  15.241   4.746
10430W        W80311  37.074   0.800   4.643
10431W        W80312  16.274   1.918  13.422
10432W        W80313  16.760  23.212  13.820
10433W        W80314   9.758  26.198  13.799
10434W        W80315  25.684  12.746  11.878
10435W        W80316  16.250  19.662  13.933
10436W        W80317  40.449  19.049  10.953
10437W        W80318  18.545  36.003  10.068
10438W        W80319  24.098  36.470   1.725
10439W        W80320  40.494   9.697   0.818
10440W        W80321   1.314   9.655  12.991
10441W        W80322   6.314  43.494  13.367
10442W        W80323   1.822  15.805   0.255
10443W        W80324  14.633  35.980  11.515
10444W        W80325   1.438   3.880   4.681
10445W        W80326  22.057  31.461   1.266
10446W        W80327   6.823  25.566  11.584
10447W        W80328  41.946  23.038  14.477
10448W        W80329  18.095  36.870  12.560
10449W        W80330  34.906  24.565   2.326
10450W        W80331  38.047  42.912  11.125
10451W        W80332  10.666   8.751  10.891
10452W        W80333  34.035  31.945   9.950
10453W        W80334  41.035  39.489  13.426
10454W        W80335   5.909  31.480  11.520
10455W        W80336  42.519   2.868   1.705
10456W        W80337  31.446  40.342  11.534
10457W        W80338   1.952  38.510   3.709
10458W        W80339  41.373  40.444   2.809
10459W        W80340   8.835  33.481  13.514
10460W        W80341  18.713  20.629   4.298
10461W        W80342  33.023  24.702  11.422
10462W        W80343  23.159  25.986  10.563
10463W        W80344   8.729  16.221  13.509
10464W        W80345  25.589  25.166   4.141
10465W        W80346  28.453  26.973  12.082
10466W        W80347   1.952  37.844  12.030
10467W        W80348  24.622  35.857   1.779
10468W        W80349   0.265   4.291  12.570
10469W        W80350  37.372  37.564  14.296
10470W        W80351  34.614  18.063   0.962
10471W        W80352  20.086  36.979   4.726
10472W        W80353  44.258  42.288  11.977
10473W        W80354   6.698  13.234  14.809
10474W        W80355   5.269  44.797  11.112
10475W        W80356  27.445   8.394  12.410
10476W        W80357  10.206  18.595   5.754
10477W        W80358  38.969  28.969   3.719
10478W        W80359  10.358  36.566  11.422
10479W        W80360   8.178  40.944   4.768
10480W        W80361  14.803  17.266  12.942
10481W        W80362  30.451  34.063  14.809
10482W        W80363  40.391  36.855  10.906
10483W        W80364  21.229   7.784  13.994
10484W        W80365  18.559  16.604   4.725
10485W        W80366   9.168  30.657  12.061
10486W        W80367  34.020  40.485   0.777
10487W        W80368  40.051  42.856  13.931
10488W        W80369   8.822  17.110   1.727
10489W        W80370  39.435  11.146   0.739
10490W        W80371  41.925   2.288   2.754
10491W        W80372  37.529  39.939  13.016
10492W        W80373   6.792   1.861  10.968
10493W        W80374  26.109   0.350  14.910
10494W        W80375  41.466  23.553   1.805
10495W        W80376  32.562  40.416  10.552
10496W        W80377  27.027  24.626  11.498
10497W        W80378  28.071  16.147  13.534
10498W        W80379  44.394  25.143  11.094
10499W        W80380  18.740  29.638  11.530
10500W        W80381  11.344  29.947  12.966
10501W        W80382  24.155  29.942  13.366
10502W        W80383  42.877  37.906   3.664
10503W        W80384  17.084  11.740   0.903
10504W        W80385  20.652  19.173  12.348
10505W        W80386  36.471  32.629  14.480
10506W        W80387   4.432  43.380   4.353
10507W        W80388   6.211  31.573  12.069
10508W        W80389  27.609  21.104   0.884
10509W        W80390  41.363  43.344  14.426
10510W        W80391  14.179  36.906  13.032
10511W        W80392  18.783  22.636   0.370
10512W        W80393  14.159   8.695  12.082
10513W        W80394  43.501  25.039  11.425
10514W        W80395  20.226  12.146   2.890
10515W        W80396   5.193  16.166   1.876
10516W        W80397  14.198  31.043   3.718
10517W        W80398  29.957  21.203   2.275
10518W        W80399  34.497   2.427  12.844
10519W        W80400  38.530   3.383   2.184
10520W        W80401  24.087   3.239   5.193
10521W        W80402  15.611  23.995   5.126
10522W        W80403  37.835  40.031   0.773
10523W        W80404  16.237  19.705  13.437
10524W        W80405  25.024  38.049   0.862
10525W        W80406   4.711   0.354  11.118
10526W        W80407  28.599  31.953  10.614
10527W        W80408   5.256  44.960   2.215
10528W        W80409  19.228  40.989   0.274
10529W        W80410  33.504  41.432  11.496
10530W        W80411  28.164  23.500   3.710
10531W        W80412   0.949   5.278  13.895
10532W        W80413  18.553  18.557   3.377
10533W        W80414   3.333  37.366   3.208
10534W        W80415   8.889   1.329   2.733
10535W        W80416  37.458  11.261  11.913
10536W        W80417  16.756  26.178  14.414
10537W        W80418  44.762  17.206   1.889
10538W        W80419  18.653  34.083  11.103
10539W        W80420  10.278  34.590   4.757
10540W        W80421  14.800  31.947   2.265
10541W        W80422  12.171  40.825   4.807
10542W        W80423  25.543  30.013   2.805
10543W        W80424   7.827  39.066   9.944
10544W        W80425  44.296   5.845   0.376
10545W        W80426  18.549   4.299   2.697
10546W        W80427  42.457   1.278   3.364
10547W        W80428  19.226   2.864   4.831
10548W        W80429  15.605  44.772  14.302
10549W        W80430  18.693  29.502  14.941
10550W        W80431  23.554  40.437  11.127
10551W        W80432  42.999   3.437  14.386
10552W        W80433  33.613  31.407  14.472
10553W        W80434  29.488  37.402  14.004
10554W        W80435  24.141  10.349   0.262
10555W        W80436   7.415   6.730   1.887
10556W        W80437  18.209  42.349  13.913
10557W        W80438  13.820  42.871   5.230
10558W        W80439  40.413  16.746  14.014
10559W        W80440  18.563   1.855   2.316
10560W        W80441  26.582   1.357  12.892
10561W        W80442   4.441  12.125   0.794
10562W        W80443   7.820  15.607   1.819
10563W        W80444  35.056  36.928  14.998
10564W        W80445  44.908  14.148  13.463
10565W        W80446  12.610   7.783   4.298
10566W        W80447  34.583  41.314   1.746
10567W        W80448  38.346  20.060  10.476
10568W        W80449  31.082  31.940   2.418
10569W        W80450  44.953  23.007  10.465
10570W        W80451   9.692  39.055   3.204
10571W        W80452  11.220  14.249  13.801
10572W        W80453  14.221  36.400   3.209
10573W        W80454  33.000  28.060  13.466
10574W        W80455  37.030   9.302  11.860
10575W        W80456  16.217  27.944  10.552
10576W        W80457  29.640  33.991   4.733
10577W        W80458  18.127  42.879  13.847
10578W        W80459   2.735  36.550   1.317
10579W        W80460   7.321  10.661  10.412
10580W        W80461  15.587   1.418  11.497
10581W        W80462  10.277   5.758   2.889
10582W        W80463  38.377  36.060   0.311
10583W        W80464  14.739  34.551   1.351
10584W        W80465  28.662   9.842  11.407
10585W        W80466   3.398   3.792  11.583
10586W        W80467  32.489  35.361   3.760
10587W        W80468  25.481  27.460   3.170
10588W        W80469   8.690   7.900  13.352
10589W        W80470  16.625   9.198  11.039
10590W        W80471  30.598  36.460  10.573
10591W        W80472  12.124  15.761  12.447
10592W        W80473  37.004  43.808   2.761
10593W        W80474  26.992  11.765   2.847
10594W        W80475  15.753  10.163  14.974
10595W        W80476  14.265  27.045   4.326
10596W        W80477  31.029  36.896   3.189
10597W        W80478  35.004  43.785   2.896
10598W        W80479  19.590  21.229   2.717
10599W        W80480  13.279  42.828   1.303
10600W        W80481   4.232  14.647  13.043
10601W        W80482  12.288   1.296   4.761
10602W        W80483   4.787  28.150   4.719
10603W        W80484   4.447   2.438   1.776
10604W        W80485  17.723  30.415  14.009
10605W        W80486  28.446  36.536   4.673
10606W        W80487  29.172  10.144  11.973
10607W        W80488  42.506  41.393   1.715
10608W        W80489  19.098  38.343  14.004
10609W        W80490  24.630  22.133   2.818
10610W        W80491  23.044  18.706   4.647
10611W        W80492  25.034  40.968  14.027
10612W        W80493  18.781  29.017   4.835
10613W        W80494  38.826  22.647  12.055
10614W        W80495   9.338  29.599  14.826
10615W        W80496  18.664  22.747   2.898
10616W        W80497  37.074   4.939  11.491
10617W        W80498  40.031   1.308  13.544
10618W        W80499  29.976  38.340   4.823
10619W        W80500   9.872  23.212   4.833
10620W        W80501  27.002   7.213  13.833
10621W        W80502   5.229  30.068   0.372
10622W        W80503  40.982  14.693   3.861
10623W        W80504   0.859  44.427  13.951
10624W        W80505  18.064   3.879  14.502
10625W        W80506   7.754   1.402  10.569
10626W        W80507  39.904  12.340   0.797
10627W        W80508  16.275  44.849  14.370
10628W        W80509  27.483  31.602   0.761
10629W        W80510  29.957   5.890  12.345
10630W        W80511   2.356  28.024   4.334
10631W        W80512  27.981  36.568  10.893
10632W        W80513  38.454  44.944  13.450
10633W        W80514  21.081  15.305  14.420
10634W        W80515  43.314  30.947  10.957
10635W        W80516  41.963  38.426  14.328
10636W        W80517  43.413  17.155  12.363
10637W        W80518   9.687  27.102   4.804
10638W        W80519  19.259  26.059   3.178
10639W        W80520  13.191   7.762   3.833
10640W        W80521  40.998  28.611  11.050
10641W        W80522  28.147  37.962   1.918
10642W        W80523  43.485  15.118  12.858
10643W        W80524   8.882  29.425   4.238
10644W        W80525  12.327  10.875   2.368
10645W        W80526  31.925   1.884  13.863
10646W        W80527  32.996  37.440  13.391
10647W        W80528   7.819  12.181   0.410
10648W        W80529  16.265   7.743   0.902
10649W        W80530  23.688   4.449   2.819
10650W        W80531  32.420  24.230   1.392
10651W        W80532  21.044  39.843  14.983
10652W        W80533  10.323  10.329   1.831
10653W        W80534  17.229  20.760  10.623
10654W        W80535  23.181  42.356   4.620
10655W        W80536  40.317  15.325   1.879
10656W        W80537  23.579  13.334   1.227
10657W        W80538  41.403   4.233   2.817
10658W        W80539  42.353  14.225   4.153
10659W        W80540  11.811  15.816  12.095
10660W        W80541  18.271   8.766   0.317
10661W        W80542  19.593  33.505   1.315
10662W        W80543  28.580  19.136  10.500
10663W        W80544  43.297  23.615  14.503
10664W        W80545  10.231  28.518   4.348
10665W        W80546  32.529  28.034   2.278
10666W        W80547  13.775  10.832  14.349
10667W        W80548  17.263  42.797  12.560
10668W        W80549  11.130   4.259   4.785
10669W        W80550  40.431   4.322   0.445
10670W        W80551  32.119  17.165   0.939
10671W        W80552  21.637   6.796   3.721
10672W        W80553  41.366   7.825   4.257
10673W        W80554  20.769  44.961   4.349
10674W        W80555   1.933   6.387   1.294
10675W        W80556  18.207  40.831   4.665
10676W        W80557  14.140  24.129  11.917
10677W        W80558  27.978  16.295   4.629
10678W        W80559   0.775  17.239  13.900
10679W        W80560  14.772  29.482  12.553
10680W        W80561  30.076  31.478  12.406
10681W        W80562  28.467   0.486   4.798
10682W        W80563  28.017   4.769  14.314
10683W        W80564  18.146  15.251  11.585
10684W        W80565  37.371  26.676   3.865
10685W        W80566  38.514   6.839  11.413
10686W        W80567  28.654  11.675   4.230
10687W        W80568  16.743  38.996   3.790
10688W        W80569  37.945  28.988   4.722
10689W        W80570  14.619  13.826   1.894
10690W        W80571  36.018  37.545   4.299
10691W        W80572  24.008  13.111   0.841
10692W        W80573  37.893   1.824   3.318
10693W        W80574   5.909  18.610  11.911
10694W        W80575  11.352   5.204  14.346
10695W        W80576   0.345  23.069   0.755
10696W        W80577   2.775  15.254  10.588
10697W        W80578  43.787  23.560   3.254
10698W        W80579   0.849   8.287   3.649
10699W        W80580   0.890  26.018   1.346
10700W        W80581  38.072  19.561  13.347
10701W        W80582  29.473  10.776   3.217
10702W        W80583  39.913  13.817  10.967
10703W        W80584  44.283  37.423   1.736
10704W        W80585  19.678  27.588   3.198
10705W        W80586  35.056  28.161  11.568
10706W        W80587  19.127   1.771  13.490
10707W        W80588  41.844  16.201  12.825
10708W        W80589  10.215  44.354   0.878
10709W        W80590  13.173  42.801  10.892
10710W        W80591  25.476  17.214  10.521
10711W        W80592  25.624  44.416  12.878
10712W        W80593  35.873  42.936   2.205
10713W        W80594  16.299  37.375   2.178
10714W        W80595  28.049  41.337  13.318
10715W        W80596  22.247  41.385   3.866
10716W        W80597   1.435   7.345   0.737
10717W        W80598  14.697  17.144  11.105
10718W        W80599   4.843  24.081  11.027
10719W        W80600  39.343   0.847   2.809
10720W        W80601  42.457   1.818  13.347
10721W        W80602  30.997  16.147   3.710
10722W        W80603  15.205  32.633   1.378
10723W        W80604  21.530  21.030   1.728
10724W        W80605  34.964  30.066   1.350
10725W        W80606  42.424  43.995   2.233
10726W        W80607  15.234  27.583   3.168
10727W        W80608  38.496  18.107  13.337
10728W        W80609   2.744  10.693  14.389
10729W        W80610  29.508   4.850   3.818
10730W        W80611  23.143  14.710  11.411
10731W        W80612  17.136  10.818  11.434
10732W        W80613  36.508  24.500   2.881
10733W        W80614   0.964  41.960  11.374
10734W        W80615   0.866  42.485   2.274
10735W        W80616  12.275  28.642   3.658
10736W        W80617  23.728  33.577   3.689
10737W        W80618  27.513   1.739  14.398
10738W        W80619  16.254  39.424   2.344
10739W        W80620  41.002  10.836  11.054
10740W        W80621  35.594  20.695   3.284
10741W        W80622  29.545  18.617  12.463
10742W        W80623  33.538   5.894   3.172
10743W        W80624  12.683  21.194  14.908
10744W        W80625  35.535   6.193  10.577
10745W        W80626  18.781  12.245   1.828
10746W        W80627   1.732  23.579  13.998
10747W        W80628  23.063  16.791   4.151
10748W        W80629  30.952  43.287   4.691
10749W        W80630   9.784  14.209  11.963
10750W        W80631  13.671  22.155  10.983
10751W        W80632  18.673  28.503  12.481
10752W        W80633  20.127  30.036   3.296
10753W        W80634  16.717  20.734  12.893
10754W        W80635  37.517  31.629   0.357
10755W        W80636  16.698  19.573  13.445
10756W        W80637   5.822  36.025   1.359
10757W        W80638  20.229  16.143   2.359
10758W        W80639  36.055   4.809   1.916
10759W        W80640   8.867  29.557   2.850
10760W        W80641  40.319  12.301  12.829
10761W        W80642   6.409  12.618  13.329
10762W        W80643  17.586  38.976   0.276
10763W        W80644  31.560   0.321   3.834
10764W        W80645  41.019  26.482   4.716
10765W        W80646  42.479  43.381   2.275
10766W        W80647  30.473  41.032   1.398
10767W        W80648   2.262  15.137  11.401
10768W        W80649   9.743  37.077  10.457
10769W        W80650  41.042  27.086  11.880
10770W        W80651   3.738  36.909   3.236
10771W        W80652  32.138  11.673   3.167
10772W        W80653  22.070  10.345   2.203
10773W        W80654  34.472   1.756   2.349
10774W        W80655  17.578  22.542   2.327
10775W        W80656   6.679  15.283  10.492
10776W        W80657  16.629  27.457   2.268
10777W        W80658  37.041   2.429   4.304
10778W        W80659  37.531   5.277   4.789
10779W        W80660  35.485  42.479   1.397
10780W        W80661  24.040  14.218  11.473
10781W        W80662  43.463  40.542  14.942
10782W        W80663   3.913  20.257   3.340
10783W        W80664  26.999  14.334  10.427
10784W        W80665  16.710  25.214  14.323
10785W        W80666   1.357  42.024  13.410
10786W        W80667  25.967  43.977  10.474
10787W        W80668  30.657  23.676   0.298
10788W        W80669  13.629  34.395   1.407
10789W        W80670  27.994  28.656   2.330
10790W        W80671   5.252  40.506   4.611
10791W        W80672  25.640  21.174  11.877
10792W        W80673   2.940  37.392   1.236
10793W        W80674  27.555  44.923   3.752
10794W        W80675  14.649  42.423  14.938
10795W        W80676  30.563  33.492  13.315
10796W        W80677  16.801  24.164   4.347
10797W        W80678  23.513  30.485   4.785
10798W        W80679   8.232  18.187   0.443
10799W        W80680  29.123  35.450  13.021
10800W        W80681  32.417  28.981  14.313
10801W        W80682  20.151  32.135  11.049
10802W        W80683  14.717  14.215  12.550
10803W        W80684   1.459  44.295  14.862
10804W        W80685  19.684  30.530   4.803
10805W        W80686  44.423  35.507   1.383
10806W        W80687   6.793   1.761   2.304
10807W        W80688  18.675  15.260  10.994
10808W        W80689   8.864  11.828   3.152
10809W        W80690  14.810  19.541  14.889
10810W        W80691  22.665  36.953   0.450
10811W        W80692  44.803   6.190  12.349
10812W        W80693  10.735  38.942   0.834
10813W        W80694  37.530  21.242  10.444
10814W        W80695  38.471  25.705  11.105
10815W        W80696   0.812  31.455   1.276
10816W        W80697  13.132  33.068   3.757
10817W        W80698  42.521  42.000   2.194
10818W        W80699   3.255  25.641   4.256
10819W        W80700   3.745   5.809   3.243
10820W        W80701  34.875  35.081   0.731
10821W        W80702  37.566  16.600  12.023
10822W        W80703  15.170   0.745   1.215
10823W        W80704  34.003  38.979   4.749
10824W        W80705   2.732  17.126   4.834
10825W        W80706  34.107  24.973  13.057
10826W        W80707   2.723  24.099   1.297
10827W        W80708  20.246  42.898  11.544
10828W        W80709  27.507  24.036  11.119
10829W        W80710   7.831   5.303  12.024
10830W        W80711  25.642  26.506  11.990
10831W        W80712  36.881  35.954   1.695
10832W        W80713  39.417  41.323   1.229
10833W        W80714  22.585   0.891  12.875
10834W        W80715  15.690  14.240   1.837
10835W        W80716  10.261  13.697   0.308
10836W        W80717  25.705  39.398   1.884
10837W        W80718  11.626  28.656  11.899
10838W        W80719  14.254  41.480   2.797
10839W        W80720  34.979  34.420  14.468
10840W        W80721  11.694  44.280  10.424
10841W        W80722   1.842  12.705   1.864
10842W        W80723  11.372  23.240  11.554
10843W        W80724   8.773  44.313   1.892
10844W        W80725  44.288   5.302  12.932
10845W        W80726  23.586  23.165  13.907
10846W        W80727  22.634  18.776  14.893
10847W        W80728  26.474  16.114   1.756
10848W        W80729  18.218  16.137   1.737
10849W        W80730  25.973  15.788   2.278
10850W        W80731  25.193  12.735   0.412
10851W        W80732   8.202  15.270  12.895
10852W        W80733  21.209  36.957  14.893
10853W        W80734  13.646  14.594  11.456
10854W        W80735   1.419   7.768   0.339
10855W        W80736  26.688  25.978  11.449
10856W        W80737  40.045  25.557   2.669
10857W        W80738   7.711   4.326   4.160
10858W        W80739  42.841  38.027  13.938
10859W        W80740   2.449  31.620   1.447
10860W        W80741  21.720   9.690  14.395
10861W        W80742   4.307   7.373  13.341
10862W        W80743  24.993  10.863   4.229
10863W        W80744   2.389  33.028  13.423
10864W        W80745  13.304  17.733  12.911
10865W        W80746   3.943  29.124   1.300
10866W        W80747  16.239  33.004   4.182
10867W        W80748  22.648   3.441   5.252
10868W        W80749  33.515  10.262   0.861
10869W        W80750   9.190  35.602   0.418
10870W        W80751  28.536  28.467   0.787
10871W        W80752  31.047   3.953   4.684
10872W        W80753  15.724  15.085  11.587
10873W        W80754  30.138  34.447   1.287
10874W        W80755   2.285  42.832   4.190
10875W        W80756  43.915   4.727  10.150
10876W        W80757  38.398  12.220  14.459
10877W        W80758  15.589  27.011   0.351
10878W        W80759  42.432  38.844  10.467
10879W        W80760  34.613  27.611  11.040
10880W        W80761  11.713  26.624  13.449
10881W        W80762  13.269  40.995   0.922
10882W        W80763  26.570  17.067   1.308
10883W        W80764   9.739   0.912  11.903
10884W        W80765  17.073  32.108   1.797
10885W        W80766   9.179   3.917  13.956
10886W        W80767   5.912  44.349   1.224
10887W        W80768  26.151   9.865   2.397
10888W        W80769   4.414  26.642   3.681
10889W        W80770   3.842  43.276  13.392
10890W        W80771  30.632  41.997  12.043
10891W        W80772  17.715   1.367   0.279
10892W        W80773   5.890  44.489  10.600
10893W        W80774   1.784  11.193  14.452
10894W        W80775  24.033  11.130   0.732
10895W        W80776  20.028  23.021   4.171
10896W        W80777   7.883  35.026  11.077
10897W        W80778  34.428  39.830  11.474
10898W        W80779  20.095  39.835  13.962
10899W        W80780  41.011   5.306  14.775
10900W        W80781  11.260  34.872  14.848
10901W        W80782  22.643  28.086  14.007
10902W        W80783  35.430   9.839   4.659
10903W        W80784   4.227  37.510  10.609
10904W        W80785  12.233  32.485  12.073
10905W        W80786  36.047  37.065  13.338
10906W        W80787   8.180  18.258   0.789
10907W        W80788   5.921  40.367   2.347
10908W        W80789  19.686  31.030  10.102
10909W        W80790  23.014  30.133  12.411
10910W        W80791  25.498  41.320   2.413
10911W        W80792  21.618  12.222  11.117
10912W        W80793  29.950  44.495   1.857
10913W        W80794  40.355  21.120   3.650
10914W        W80795  35.390  39.968  10.430
10915W        W80796   6.766  27.986   3.346
10916W        W80797   2.847  42.510   2.414
10917W        W80798  26.024  21.624  11.903
10918W        W80799  30.977   3.901  13.349
10919W        W80800  24.646   5.909  13.856
10920W        W80801  35.110   3.338   3.377
10921W        W80802  16.195   6.272   9.973
10922W        W80803  42.400   7.416  12.958
10923W        W80804  41.862  42.339  14.277
10924W        W80805  41.516   5.194   1.882
10925W        W80806  44.951   2.778  12.907
10926W        W80807  24.478   7.852   4.265
10927W        W80808  44.789   4.290  11.910
10928W        W80809  11.678   4.369  10.961
10929W        W80810   5.253   0.924   1.728
10930W        W80811   3.307  18.595  14.490
10931W        W80812  18.091  40.325  10.495
10932W        W80813  31.951  29.463   5.145
10933W        W80814   8.716   6.709   1.325
10934W        W80815  22.548  28.173  14.275
10935W        W80816  32.066   8.225  11.038
10936W        W80817  14.272   4.776   4.687
10937W        W80818  33.491   6.255   9.930
10938W        W80819  18.248  20.604  13.035
10939W        W80820  11.143   8.728   2.774
10940W        W80821   1.348   8.366   0.916
10941W        W80822  29.482  35.089  11.399
10942W        W80823  18.074  23.013   2.394
10943W        W80824  34.489  33.538  11.902
10944W        W80825  44.260  37.512  12.829
10945W        W80826  44.909  29.996   3.188
10946W        W80827  30.477  11.631  12.041
10947W        W80828  20.071  35.953  13.337
10948W        W80829   4.703  44.990   3.314
10949W        W80830  25.085  18.284   1.819
10950W        W80831   6.830  36.014  12.360
10951W        W80832  15.285  28.546  12.882
10952W        W80833  37.905  38.494   2.228
10953W        W80834   6.857  38.951   3.254
10954W        W80835  19.676   8.245   1.281
10955W        W80836  38.933  30.139  14.443
10956W        W80837  38.929  29.549   4.610
10957W        W80838  14.748  11.798   5.194
10958W        W80839   5.898  13.331   0.958
10959W        W80840  31.025  22.505  11.086
10960W        W80841   0.830  12.210   2.360
10961W        W80842  24.034  25.594   0.276
10962W        W80843  31.617  15.773   4.230
10963W        W80844  21.553  34.118   2.851
10964W        W80845   1.853  12.711  13.411
10965W        W80846  34.917  44.335   1.802
10966W        W80847  40.492  22.688  11.117
10967W        W80848   6.193  39.917   1.784
10968W        W80849  35.100  26.527   4.352
10969W        W80850  27.979   6.275   3.315
10970W        W80851  19.047   3.745  13.841
10971W        W80852   5.247  41.455  13.410
10972W        W80853  21.733  38.855   2.698
10973W        W80854  39.961  21.075   3.239
10974W        W80855  28.164  42.820   2.724
10975W        W80856  38.839   7.193   3.829
10976W        W80857  28.571  11.306   0.347
10977W        W80858  36.924   7.351   1.278
10978W        W80859  42.311  27.461   2.294
10979W        W80860   4.783  32.115  14.857
10980W        W80861  41.877   7.231  13.431
10981W        W80862  17.772  31.418   2.313
10982W        W80863  43.357  38.838  13.964
10983W        W80864  23.075   9.851   0.806
10984W        W80865   7.401  32.966  11.914
10985W        W80866  18.242  28.618  10.973
10986W        W80867  26.561   4.404   3.331
10987W        W80868  11.631  42.291  13.802
10988W        W80869  43.924  35.890  14.459
10989W        W80870  11.196  42.888   1.733
10990W        W80871  29.026  20.635   1.738
10991W        W80872  17.088  38.982   0.393
10992W        W80873   8.875  29.918   3.261
10993W        W80874  21.581  19.604  10.427
10994W        W80875  15.121  43.792  12.029
10995W        W80876  27.100  43.289  11.566
10996W        W80877   8.731   7.359   4.662
10997W        W80878  36.979   7.186   1.934
10998W        W80879  30.651   1.253   3.310
10999W        W80880  17.184   2.853   3.688
11000W        W80881  32.076   5.928  14.464
11001W        W80882   7.864  13.752   3.805
11002W        W80883  41.384   1.478   2.357
11003W        W80884  36.479   0.258  12.519
11004W        W80885  25.494  30.081  11.998
11005W        W80886  28.165  20.563   1.815
11006W        W80887  20.089  17.132  13.810
11007W        W80888  20.766  39.917   0.862
11008W        W80889  17.097  41.381   2.262
11009W        W80890   4.447  12.297   2.692
11010W        W80891  37.046  32.529  12.068
11011W        W80892   0.884   5.771  14.902
11012W        W80893  22.143  12.839  11.564
11013W        W80894   1.971  19.164   4.236
11014W        W80895  33.993  20.204  14.806
11015W        W80896  41.523   5.799   3.283
11016W        W80897  15.599  26.046   0.808
11017W        W80898   3.368  40.405  10.963
11018W        W80899  41.356   0.313  13.366
11019W        W80900  19.589  26.496  14.865
11020W        W80901  26.477  19.599  10.559
11021W        W80902  36.476  11.645  11.948
11022W        W80903  32.547  15.705   0.781
11023W        W80904  33.937  33.958   4.704
11024W        W80905   4.370  18.581   0.464
11025W        W80906  18.051  18.275   3.794
11026W        W80907  20.077  29.558  12.964
11027W        W80908  32.980  13.263   3.234
11028W        W80909  21.027  26.680  11.933
11029W        W80910  36.847  17.214   4.336
11030W        W80911   4.860  32.536   0.477
11031W        W80912  21.696   9.713   3.860
11032W        W80913  12.712  37.425   0.480
11033W        W80914  34.457  23.650  13.986
11034W        W80915  33.549  29.586   5.087
11035W        W80916  13.180  23.734   4.355
11036W        W80917  15.615  38.399  11.890
11037W        W80918   0.344  20.111   4.222
11038W        W80919  33.892   7.668   1.780
11039W        W80920   7.681  38.917  10.505
11040W        W80921  41.324  26.553   3.166
11041W        W80922  29.513  42.795  11.543
11042W        W80923  30.507  16.229   3.270
11043W        W80924  16.301  15.213   0.913
11044W        W80925   6.897  35.592  10.989
11045W        W80926   2.278   0.842   2.362
11046W        W80927  29.589  29.102  12.976
11047W        W80928  29.173   9.315   4.605
11048W        W80929  12.274   5.321  13.907
11049W        W80930  23.568  33.583  14.795
11050W        W80931  37.471  17.605  12.964
11051W        W80932  32.002  35.418  12.415
11052W        W80933  10.246  37.439   0.769
11053W        W80934   9.308  19.067   4.821
11054W        W80935  29.097  22.227   3.776
11055W        W80936  11.235  41.970  11.118
11056W        W80937  17.112  15.645   4.773
11057W        W80938   4.302   3.792  11.396
11058W        W80939  30.513  17.188   4.159
11059W        W80940   5.406  16.133  14.936
11060W        W80941  35.884  11.721   2.677
11061W        W80942  14.626  10.810   2.184
11062W        W80943   9.268  15.160  10.487
11063W        W80944  26.985  14.739   4.599
11064W        W80945   6.747  34.885   1.719
11065W        W80946  26.535  13.299  13.487
11066W        W80947  18.182  14.683   1.295
11067W        W80948  27.012   9.246  12.988
11068W        W80949  31.543   0.477   0.756
11069W        W80950  26.046  18.147   4.647
11070W        W80951  13.611  18.664   4.263
11071W        W80952   2.922  19.672  10.959
11072W        W80953   6.417   1.974  10.950
11073W        W80954  10.263   6.299   1.723
11074W        W80955  25.010   7.360  13.490
11075W        W80956  17.289  12.673  11.003
11076W        W80957  29.046  22.595   3.794
11077W        W80958  30.950  28.054   1.320
11078W        W80959  23.669  22.520   2.417
11079W        W80960   1.761  33.571   0.395
11080W        W80961  12.825   1.422  12.988
11081W        W80962  36.940  24.556   1.871
11082W        W80963  26.113   2.246  11.977
11083W        W80964  12.281  11.373  12.902
11084W        W80965  26.507   4.922   2.708
11085W        W80966  35.939   8.263  14.316
11086W        W80967  21.188  18.150  10.636
11087W        W80968   6.240  35.983   5.196
11088W        W80969   7.409  38.390   3.213
11089W        W80970  26.115  24.140   1.838
11090W        W80971  22.031  39.425   0.869
11091W        W80972   4.699  23.509  14.413
11092W        W80973  31.087   9.293  10.492
11093W        W80974  40.978  18.660   2.351
11094W        W80975  11.816  36.959  11.974
11095W        W80976   4.700  11.742  10.546
11096W        W80977   4.215  21.161  14.979
11097W        W80978  31.914  40.970  10.621
11098W        W80979  24.142  31.538   3.173
11099W        W80980  17.132  39.384  13.857
11100W        W80981  29.953  28.560  12.044
11101W        W80982   8.262  42.848   2.684
11102W        W80983  34.893  37.940   4.151
11103W        W80984  25.100   2.272   2.231
11104W        W80985  30.942  12.612   2.344
11105W        W80986  11.777  18.264   3.829
11106W        W80987  26.068  22.059  11.075
11107W        W80988  33.089   0.831  11.589
11108W        W80989  26.030   4.288  10.577
11109W        W80990  38.405   4.326  12.486
11110W        W80991   8.726  27.614   3.728
11111W        W80992  17.107  42.503  12.456
11112W        W80993  26.112  20.036   2.418
11113W        W80994   8.691  13.836   4.628
11114W        W80995  42.452  34.020  14.890
11115W        W80996  27.044  20.134   0.466
11116W        W80997  42.349   8.267  14.396
11117W        W80998   1.354   7.698  11.913
11118W        W80999  20.698  29.071  13.357
11119W        W81000   0.418  19.196   3.323
11120W        W81001  24.083  13.688   1.750
11121W        W81002  15.712  24.038   4.175
11122W        W81003  29.981  25.657   4.290
11123W        W81004  19.657  34.033   2.216
11124W        W81005  31.959  43.506   1.304
11125W        W81006   7.852  38.984   0.246
11126W        W81007  39.860  12.174   4.311
11127W        W81008   4.312  37.943  11.881
11128W        W81009   5.900  21.154   2.782
11129W        W81010  31.616  37.876   2.346
11130W        W81011  42.334   3.418   2.776
11131W        W81012   0.755  44.467  10.600
11132W        W81013   0.921  18.124  12.373
11133W        W81014  28.169  27.165   2.708
11134W        W81015  31.531  13.167   3.668
11135W        W81016  22.516  43.938   3.195
11136W        W81017   0.435  12.274  12.419
11137W        W81018  34.012  10.322   2.301
11138W        W81019  31.026  15.143   0.929
11139W        W81020   9.278  44.347  12.905
11140W        W81021  14.757  23.573   0.245
11141W        W81022   5.865  26.180  10.429
11142W        W81023  13.161  22.612  14.383
11143W        W81024  22.222  11.672   3.696
11144W        W81025  12.349  39.993   2.792
11145W        W81026  41.310  22.169  10.998
11146W        W81027  18.139  29.138   4.698
11147W        W81028  39.439  30.026   4.629
11148W        W81029  23.148  36.873   3.723
11149W        W81030  23.984  44.466  12.415
11150W        W81031   4.310  32.432  13.882
11151W        W81032  35.099  17.583  12.993
11152W        W81033  33.100  13.757  10.484
11153W        W81034  34.074   1.381  12.982
11154W        W81035  38.029  42.366   0.832
11155W        W81036  37.477  28.535  14.830
11156W        W81037   2.894  24.977   3.824
11157W        W81038  35.989  15.320  12.018
11158W        W81039  24.656   6.239   1.386
11159W        W81040  11.652  21.714   1.761
11160W        W81041  26.689   6.762  14.914
11161W        W81042   4.375  31.499   0.861
11162W        W81043  43.449  44.955  14.867
11163W        W81044  16.113  13.126  11.577
11164W        W81045  12.851   3.426   2.684
11165W        W81046  38.904  35.579   1.777
11166W        W81047  22.698  33.446  13.970
11167W        W81048  30.062  19.197  14.836
11168W        W81049  35.941  11.633   3.227
11169W        W81050  28.679   5.898   4.752
11170W        W81051  27.658  13.325   2.712
11171W        W81052  24.999  34.552  14.360
11172W        W81053   0.759   2.411   1.791
11173W        W81054  19.115  38.459  12.534
11174W        W81055  21.079  43.497  11.880
11175W        W81056  39.416  11.686  12.426
11176W        W81057  24.130  17.081   2.692
11177W        W81058  32.472  14.236  10.509
11178W        W81059   7.219  36.895   1.748
11179W        W81060  41.999   9.831   1.765
11180W        W81061  26.638  28.444   3.686
11181W        W81062   9.857  44.895  12.581
11182W        W81063  20.540  30.547  14.438
11183W        W81064   6.874  25.213  14.941
11184W        W81065  30.130  28.147   0.841
11185W        W81066  34.542  40.823   1.345
11186W        W81067  13.197  13.171   3.716
11187W        W81068  17.213  24.692   3.648
11188W        W81069  29.114  34.105   4.296
11189W        W81070   6.821  24.539  13.438
11190W        W81071  41.886  18.252   4.749
11191W        W81072  28.525   2.951   3.170
11192W        W81073  30.957   1.908   0.750
11193W        W81074   4.429   8.828   3.807
11194W        W81075  36.905  31.153   4.263
11195W        W81076  24.991  41.003  12.861
11196W        W81077  42.487  14.210  14.946
11197W        W81078  28.541  44.415   4.302
11198W        W81079  37.950  42.805  13.526
11199W        W81080   9.210  23.237   2.231
11200W        W81081   2.389  14.191  11.873
11201W        W81082  21.138  26.060  13.972
11202W        W81083  12.645  38.070  11.607
11203W        W81084  32.912  12.294   3.664
11204W        W81085   1.423  22.709  12.420
11205W        W81086  19.196   1.935  10.448
11206W        W81087  37.474  12.214   4.713
11207W        W81088  18.678  18.759   4.754
11208W        W81089  14.774  12.834   0.942
11209W        W81090  27.186  28.523  10.453
11210W        W81091  18.569   7.398  12.981
11211W        W81092  11.189  20.701   2.741
11212W        W81093  17.280  42.776   3.721
11213W        W81094  33.010  16.703   5.633
11214W        W81095  31.466  27.569   1.270
11215W        W81096  28.486  10.173  10.621
11216W        W81097  41.379   6.217   2.755
11217W        W81098  40.493  39.026  14.453
11218W        W81099  21.047  40.357   5.204
11219W        W81100   3.757  30.062  14.312
11220W        W81101  11.148  32.997  13.414
11221W        W81102  42.796  41.464   3.679
11222W        W81103  44.417  34.991  10.588
11223W        W81104   1.298   6.811   3.819
11224W        W81105   9.696   5.294   2.734
11225W        W81106  26.549  30.595   2.347
11226W        W81107  41.409  17.697  13.388
11227W        W81108  29.126  13.739   2.206
11228W        W81109  37.372   1.739   2.416
11229W        W81110  22.509  19.161  11.863
11230W        W81111   6.831  17.284   3.285
11231W        W81112   6.231   3.356   2.252
11232W        W81113  37.846   0.836  12.065
11233W        W81114  28.653  26.563  12.849
11234W        W81115   7.382  44.011  12.518
11235W        W81116  10.724  18.151  14.450
11236W        W81117  16.089  34.931  14.427
11237W        W81118  11.134  26.597  13.511
11238W        W81119   2.280  32.060  11.463
11239W        W81120  14.267  27.681  10.587
11240W        W81121  31.506  28.607   2.786
11241W        W81122  22.109  21.699  13.351
11242W        W81123  17.206  26.207   1.772
11243W        W81124   2.825  17.751   0.263
11244W        W81125  41.410  13.719   3.664
11245W        W81126  12.281  44.413   2.883
11246W        W81127  19.206   1.383  11.439
11247W        W81128  13.645  27.534  10.908
11248W        W81129  22.036  16.675  10.595
11249W        W81130   7.827   2.465  10.953
11250W        W81131  16.705  37.934   2.384
11251W        W81132   7.740  14.191  13.364
11252W        W81133   4.930  12.616   5.215
11253W        W81134  39.559  39.419  14.363
11254W        W81135  18.294  37.959  11.472
11255W        W81136  27.135   1.289  14.468
11256W        W81137  30.103   4.791   0.373
11257W        W81138  34.601  12.298  13.363
11258W        W81139  23.529   0.840  13.373
11259W        W81140  36.914   4.256   4.252
11260W        W81141   5.777   0.810   2.887
11261W        W81142  26.003  28.488  11.503
11262W        W81143  33.446  28.984   0.449
11263W        W81144  22.691  37.429   1.439
11264W        W81145   2.966   8.749   0.316
11265W        W81146  11.778  16.785   3.249
11266W        W81147  14.832  20.189   2.403
11267W        W81148  17.715  19.681   0.746
11268W        W81149  27.955  42.892   1.357
11269W        W81150  43.350  15.659  14.509
11270W        W81151  32.398   5.208  10.554
11271W        W81152  12.137   2.929  12.871
11272W        W81153  13.837   9.210  14.771
11273W        W81154  26.066  36.021  11.924
11274W        W81155  11.757  42.324   4.189
11275W        W81156  22.542  23.518  13.818
11276W        W81157  33.927  38.342   3.864
11277W        W81158  17.793   6.314  11.072
11278W        W81159  19.174   9.762   3.687
11279W        W81160  22.677  25.708   0.399
11280W        W81161  34.078   6.836  13.496
11281W        W81162  13.731  43.420  14.454
11282W        W81163  17.563  42.393   4.682
11283W        W81164  32.045  37.857   4.778
11284W        W81165  29.656  38.996  10.592
11285W        W81166  43.977  26.990   3.204
11286W        W81167  32.978  35.978   3.650
11287W        W81168   9.779  31.024   2.244
11288W        W81169  43.402  21.547  12.571
11289W        W81170  13.605  38.997  12.469
11290W        W81171  12.798  35.857  12.950
11291W        W81172  13.780  23.519  11.960
11292W        W81173  39.517  26.610  14.880
11293W        W81174  27.604   7.674  10.941
11294W        W81175  19.195  44.297   1.216
11295W        W81176  30.458  36.886  12.429
11296W        W81177  31.119  27.644   2.757
11297W        W81178  11.754  12.622   2.416
11298W        W81179  10.301  10.279  14.288
11299W        W81180   2.931  25.684  12.984
11300W        W81181  41.495  41.022   4.618
11301W        W81182  12.730  27.166  11.005
11302W        W81183  21.183   4.879   0.945
11303W        W81184  43.014   1.776  11.440
11304W        W81185  22.061  37.517  14.316
11305W        W81186  24.645   8.658   3.354
11306W        W81187   3.800  18.068   3.731
11307W        W81188   6.262  30.002  12.422
11308W        W81189   9.319  41.361  14.868
11309W        W81190  37.460   6.426  12.463
11310W        W81191  26.510   8.847  13.344
11311W        W81192  40.898  15.174  12.935
11312W        W81193  40.348  12.313   1.292
11313W        W81194   4.944   6.249   2.204
11314W        W81195  25.620  14.835   0.280
11315W        W81196  31.581  11.354  14.797
11316W        W81197  24.557  13.316   0.787
11317W        W81198  19.114  44.007  12.889
11318W        W81199  22.153  35.081   4.793
11319W        W81200  25.583   9.857   4.615
11320W        W81201  43.773  29.001   2.203
11321W        W81202  16.128   7.768  13.429
11322W        W81203  38.380  18.258  12.533
11323W        W81204   5.365   8.324   1.846
11324W        W81205  20.151  17.147   2.335
11325W        W81206  36.097   4.301   4.247
11326W        W81207  28.596   3.227  10.970
11327W        W81208  11.279  34.899  12.487
11328W        W81209  28.027  22.522  10.922
11329W        W81210  30.015  43.880  14.987
11330W        W81211  35.511  31.931  13.038
11331W        W81212   8.236  20.689   1.418
11332W        W81213  37.983  38.369  12.868
11333W        W81214  26.054  24.687  11.506
11334W        W81215  32.014  28.957   3.383
11335W        W81216  24.178  27.592   2.804
11336W        W81217   6.828   9.738   4.663
11337W        W81218  10.759  42.954   1.930
11338W        W81219   8.766  10.311  14.970
11339W        W81220  13.646  13.274  14.502
11340W        W81221   6.718  19.055  13.536
11341W        W81222  33.618   7.240   0.483
11342W        W81223   6.904  34.380  12.376
11343W        W81224  10.171   1.373  13.394
11344W        W81225  20.549   0.909  11.075
11345W        W81226  14.338  26.468   1.902
11346W        W81227  24.688  10.721  14.489
11347W        W81228  17.769   2.404   0.275
11348W        W81229  40.939   8.782   4.619
11349W        W81230  38.060  43.904  13.905
11350W        W81231  36.373  31.137  12.004
11351W        W81232  11.217   9.314   4.823
11352W        W81233  27.095  36.528   3.150
11353W        W81234  32.028  35.943   0.432
11354W        W81235  26.665  35.922   4.303
11355W        W81236  23.232   6.382   0.364
11356W        W81237  22.232  33.934   0.440
11357W        W81238  19.729   0.766   2.891
11358W        W81239  42.374  44.399   2.417
11359W        W81240  42.831  42.343  14.924
11360W        W81241  20.537  30.001  11.549
11361W        W81242  41.334  27.182   1.781
11362W        W81243   6.290  41.808  14.864
11363W        W81244   6.357  22.551  12.954
11364W        W81245  37.912  40.442   1.259
11365W        W81246  14.142  38.850  11.928
11366W        W81247  21.263  16.644   4.267
11367W        W81248  40.310  29.564  14.857
11368W        W81249   8.744  16.132   0.446
11369W        W81250  41.826   2.284  11.453
11370W        W81251  12.632  11.166  13.453
11371W        W81252  11.765  16.721  13.470
11372W        W81253  43.798  23.649  12.424
11373W        W81254  31.091   2.235   1.748
11374W        W81255  19.773  10.383  14.834
11375W        W81256   4.273  39.898  12.014
11376W        W81257  30.918   8.894   1.862
11377W        W81258  43.867  28.183  12.930
11378W        W81259  19.125   2.749   3.683
11379W        W81260  32.445  43.829  11.499
11380W        W81261  30.504  19.686  13.856
11381W        W81262  30.528  17.208   0.281
11382W        W81263  17.215  11.679   3.751
11383W        W81264  15.174  23.670  12.874
11384W        W81265  43.275  24.550   3.730
11385W        W81266  42.446   7.263  11.410
11386W        W81267  34.597  44.914   2.716
11387W        W81268  13.742  43.803   3.244
11388W        W81269  32.554   7.227  14.494
11389W        W81270  13.753  30.541  14.498
11390W        W81271  23.160  44.281  12.429
11391W        W81272  35.569  12.185  14.495
11392W        W81273  39.365  28.436  11.104
11393W        W81274   8.361  39.384  13.973
11394W        W81275   8.684  11.205  10.459
11395W        W81276  42.516   9.186   1.821
11396W        W81277  21.129  27.450  10.105
11397W        W81278  33.459  40.014  14.891
11398W        W81279  41.526  25.124  13.435
11399W        W81280  14.302   8.340  12.353
11400W        W81281  24.160  38.531  14.457
11401W        W81282   7.379  17.694  11.907
11402W        W81283  12.670  37.074   5.087
11403W        W81284  39.502  16.772   0.368
11404W        W81285   4.225  31.444  13.481
11405W        W81286   9.179  30.473  12.512
11406W        W81287  39.815  15.090  11.583
11407W        W81288  23.644  15.590  13.428
11408W        W81289   5.403   1.802  11.037
11409W        W81290  12.187  26.977   1.255
11410W        W81291  35.888  42.795  12.045
11411W        W81292  16.252  15.302   4.116
11412W        W81293  18.077   7.396  10.935
11413W        W81294  16.645  31.942   0.728
11414W        W81295  42.897  40.379   3.753
11415W        W81296  20.226  37.084  11.934
11416W        W81297  34.527  18.619  13.993
11417W        W81298  12.666  38.476   3.366
11418W        W81299  38.570   4.771  13.047
11419W        W81300   7.263   7.257   1.231
11420W        W81301   9.362  38.019   3.168
11421W        W81302   1.322  39.549  12.511
11422W        W81303  26.667  23.565  11.066
11423W        W81304  12.178  14.114   1.368
11424W        W81305   2.736  37.558  11.596
11425W        W81306  17.225  29.059  10.637
11426W        W81307  27.162  19.230   0.767
11427W        W81308   0.857   7.313  10.536
11428W        W81309   1.261  18.683  12.542
11429W        W81310   5.758  18.101  10.562
11430W        W81311   5.268  34.521   1.349
11431W        W81312   1.354  25.537  11.605
11432W        W81313  43.314   4.935  13.846
11433W        W81314  38.858  36.457   1.308
11434W        W81315  16.597  32.092   5.286
11435W        W81316  32.938  28.974   1.843
11436W        W81317  38.393  38.353  10.592
11437W        W81318  29.650   9.315  12.885
11438W        W81319  19.100  31.514   1.411
11439W        W81320   9.808   4.823  10.512
11440W        W81321   2.760  27.495  12.429
11441W        W81322  37.426  10.855  11.095
11442W        W81323   7.723   2.306  14.490
11443W        W81324   7.260  27.999  12.875
11444W        W81325  39.953  27.559   0.815
11445W        W81326  35.585  18.097   1.789
11446W        W81327   1.974   0.976  11.897
11447W        W81328  40.889  21.712  10.411
11448W        W81329   0.369  19.230  13.800
11449W        W81330  19.199  43.838  11.091
11450W        W81331  44.266  18.254  12.539
11451W        W81332  30.117  15.799  13.827
11452W        W81333  31.526   4.313  14.313
11453W        W81334   1.803  36.351   0.258
11454W        W81335  19.117  38.832   0.449
11455W        W81336  19.081  22.118  12.445
11456W        W81337  23.120  26.126   1.742
11457W        W81338  31.482  21.135   4.665
11458W        W81339  38.523  18.205   4.828
11459W        W81340  18.250  16.194  10.580
11460W        W81341  18.090   0.837   2.752
11461W        W81342   6.337  33.077  11.464
11462W        W81343   9.716   0.335  14.006
11463W        W81344  31.949   7.383   1.275
11464W        W81345  27.026  11.684  13.344
11465W        W81346  39.928  28.455   0.385
11466W        W81347  14.681   8.300  13.388
11467W        W81348   7.373  29.163   0.275
11468W        W81349  37.462  41.490   2.274
11469W        W81350  37.023  31.135   0.737
11470W        W81351  20.606  28.050   9.522
11471W        W81352  11.642   3.810   3.233
11472W        W81353  33.487  22.508   2.742
11473W        W81354   3.736  27.979  10.643
11474W        W81355  22.671  22.527  12.499
11475W        W81356  20.737   5.282  11.021
11476W        W81357  23.127  33.919  14.932
11477W        W81358   5.719  22.047  11.020
11478W        W81359  28.056  25.582  13.494
11479W        W81360  13.163  14.688  11.469
11480W        W81361  10.787   3.260  12.918
11481W        W81362  41.951  40.474  14.465
11482W        W81363   7.194  32.977  11.558
11483W        W81364  15.224  40.350   0.421
11484W        W81365  40.832  15.800   2.689
11485W        W81366  29.519  33.016  13.462
11486W        W81367  11.371  18.667   3.164
11487W        W81368  34.510  29.943   3.710
11488W        W81369  20.564  34.399  11.558
11489W        W81370  17.254  32.094  13.919
11490W        W81371   2.294  24.613   2.855
11491W        W81372   8.878  14.135   1.231
11492W        W81373  36.510  11.245   4.747
11493W        W81374  32.619   8.767  12.376
11494W        W81375  27.555  19.071  12.995
11495W        W81376   3.406  14.780  14.863
11496W        W81377  30.096  32.014   4.611
11497W        W81378  39.415  24.553   0.735
11498W        W81379   4.446   9.184   4.349
11499W        W81380  39.835  19.677  12.932
11500W        W81381  14.693  18.706   4.601
11501W        W81382   4.232  41.788  14.303
11502W        W81383  11.702  36.456   0.784
11503W        W81384  35.389   3.873  14.308
11504W        W81385  10.224  16.580   1.829
11505W        W81386  42.857  32.423   2.689
11506W        W81387  18.098  41.945   2.862
11507W        W81388  15.085   3.764  12.043
11508W        W81389   8.752  25.986  13.503
11509W        W81390  34.867  23.547   3.248
11510W        W81391  43.998  35.524  13.409
11511W        W81392  14.155  44.756   4.166
11512W        W81393  16.598   2.413   0.967
11513W        W81394  24.521  34.897   1.267
11514W        W81395  15.681  35.413  14.329
11515W        W81396  28.124  37.049   9.947
11516W        W81397  20.153  41.830  14.887
11517W        W81398  44.435  33.878   4.298
11518W        W81399  30.995  25.078  13.540
11519W        W81400  11.174  21.531   2.875
11520W        W81401  41.917  32.952   2.675
11521W        W81402  25.070  39.830   3.170
11522W        W81403  26.190  27.027   4.634
11523W        W81404  19.762   2.239  10.539
11524W        W81405  28.678  30.559   3.762
11525W        W81406  34.945  38.860   2.243
11526W        W81407  15.814  31.508  12.833
11527W        W81408  36.084   4.784   2.326
11528W        W81409  32.429   6.919   0.792
11529W        W81410  38.333  25.047   2.861
11530W        W81411  37.555   8.259   1.218
11531W        W81412   5.249  31.487  13.029
11532W        W81413  22.629  16.717   4.813
11533W        W81414  38.914  36.581   0.250
11534W        W81415  40.958  42.940  10.126
11535W        W81416  19.134   5.878   0.358
11536W        W81417   1.826  22.536   0.298
11537W        W81418  23.547  30.493   2.743
11538W        W81419   6.691  42.015  10.489
11539W        W81420  44.959  43.014   0.913
11540W        W81421  26.524   5.914  13.334
11541W        W81422  37.420   6.300   1.730
11542W        W81423  14.291  33.991   0.338
11543W        W81424  28.531   6.676  13.950
11544W        W81425   8.724   9.228  14.280
11545W        W81426  29.602  42.475   2.201
11546W        W81427  40.546  25.021   3.258
11547W        W81428  30.526  36.050   1.840
11548W        W81429  28.092  36.959  13.849
11549W        W81430  20.124  11.317   1.696
11550W        W81431  37.925  23.537   2.364
11551W        W81432  31.606  37.342   4.269
11552W        W81433  39.381  19.678  12.874
11553W        W81434  38.022  35.482  14.863
11554W        W81435  44.912  27.484  12.497
11555W        W81436   7.241  13.112   4.174
11556W        W81437  40.862   7.760   0.746
11557W        W81438  42.820  24.108  12.415
11558W        W81439  40.495   3.804  14.322
11559W        W81440  28.620  37.508  11.009
11560W        W81441  24.689  41.377   1.930
11561W        W81442  33.892   0.832  11.531
11562W        W81443  37.548  14.799   1.295
11563W        W81444   4.881  22.503   0.393
11564W        W81445  17.732  30.494  14.831
11565W        W81446  22.107  29.607  11.593
11566W        W81447  44.902  34.086   1.790
11567W        W81448   1.836   3.743  11.578
11568W        W81449  29.068  19.714  13.900
11569W        W81450  37.052  27.566  14.387
11570W        W81451  43.418  35.454   2.792
11571W        W81452  39.845  14.691  14.469
11572W        W81453  40.947  24.173  13.035
11573W        W81454   0.471   3.802   0.337
11574W        W81455   1.865  24.635   2.184
11575W        W81456   8.172   2.846   3.213
11576W        W81457  39.900  16.700  10.569
11577W        W81458  15.781  34.040   2.349
11578W        W81459   9.232  31.445   4.181
11579W        W81460   7.403  43.935   3.309
11580W        W81461  30.561   1.819   3.145
11581W        W81462  30.110  25.694  14.905
11582W        W81463  15.323   6.280  12.527
11583W        W81464  14.698  18.251  14.867
11584W        W81465   6.746  14.663   2.240
11585W        W81466   7.231   0.381   3.859
11586W        W81467  42.847  20.643  13.488
11587W        W81468  23.100  18.181   1.292
11588W        W81469   2.847  21.150   3.640
11589W        W81470  43.873   2.313  13.390
11590W        W81471  44.868  44.862  11.958
11591W        W81472  44.479  23.601   9.981
11592W        W81473  23.596   7.317  13.345
11593W        W81474  40.986  10.693  11.590
11594W        W81475  44.360  44.330   2.691
11595W        W81476   7.690   9.267  13.955
11596W        W81477  40.925  29.097   4.620
11597W        W81478  10.706  23.211   4.784
11598W        W81479  26.662  33.524  12.004
11599W        W81480   3.418   9.372  10.544
11600W        W81481  22.232  30.041   0.397
11601W        W81482  16.280  19.213  10.618
11602W        W81483  36.087   7.337   3.286
11603W        W81484   4.792  11.669   1.925
11604W        W81485  36.426  42.790   3.666
11605W        W81486  37.356   6.367  11.946
11606W        W81487  14.768  43.944  14.004
11607W        W81488  38.480  15.300  13.478
11608W        W81489  43.778  37.419   1.229
11609W        W81490   1.737  16.716   3.667
11610W        W81491  34.551  40.030   2.300
11611W        W81492   1.341  18.735   0.407
11612W        W81493  37.555  36.508  12.902
11613W        W81494   1.395  36.003   2.747
11614W        W81495  24.623  18.120   9.977
11615W        W81496  25.983  17.774   1.872
11616W        W81497  17.722  25.033  13.041
11617W        W81498  17.217  26.542   3.740
11618W        W81499  16.652  44.879  10.624
11619W        W81500  40.521   6.424   3.361
11620W        W81501   3.724  37.879  10.507
11621W        W81502  44.273  34.093  12.409
11622W        W81503  43.449   7.742   4.809
11623W        W81504  41.993  19.080   2.888
11624W        W81505  38.964  21.576   2.730
11625W        W81506  41.790   8.811  11.028
11626W        W81507  40.818  10.659  10.460
11627W        W81508   7.790  42.376  10.422
11628W        W81509  41.801  17.680   0.336
11629W        W81510  11.666  34.387  14.800
11630W        W81511  19.134   3.843  11.500
11631W        W81512  25.576  14.651   0.834
11632W        W81513  32.957  15.677   1.740
11633W        W81514   3.955  12.771   0.905
11634W        W81515  35.427  21.736   1.769
11635W        W81516  22.099  41.958   2.753
11636W        W81517  14.288  25.187  11.981
11637W        W81518  28.943  38.508   0.251
11638W        W81519  38.412  11.852  10.529
11639W        W81520   4.233  43.494   1.314
11640W        W81521  17.580  43.422   4.120
11641W        W81522  35.389  18.123   2.814
11642W        W81523  31.480  41.891  11.399
11643W        W81524  21.205  12.282   3.245
11644W        W81525  29.461  27.550   0.290
11645W        W81526  16.072   0.779   3.869
11646W        W81527  11.695  23.027  10.510
11647W        W81528  44.482  28.561   4.641
11648W        W81529  41.800  20.532   3.630
11649W        W81530  21.578  39.347  10.986
11650W        W81531  36.543  15.193   4.612
11651W        W81532   0.816   3.368   2.866
11652W        W81533  34.979  23.611  13.324
11653W        W81534  22.052  15.644   4.141
11654W        W81535  22.053  33.956   4.741
11655W        W81536  39.914  10.225   3.666
11656W        W81537  24.162  16.146  14.310
11657W        W81538  40.544  13.635   0.785
11658W        W81539  38.368  10.654   2.736
11659W        W81540  21.203  12.223   2.412
11660W        W81541  27.148   4.315   4.272
11661W        W81542  38.421   2.337   1.859
11662W        W81543  13.208  38.436  12.383
11663W        W81544   8.875   0.283  11.984
11664W        W81545  26.481  24.618  12.949
11665W        W81546  28.120  22.999  14.450
11666W        W81547   8.210   8.230   0.769
11667W        W81548  14.255  18.754  14.469
11668W        W81549   4.241  44.851   0.416
11669W        W81550  36.530   3.277   2.884
11670W        W81551  17.295  37.860   1.277
11671W        W81552  44.276  29.578  10.934
11672W        W81553  16.189  29.012  13.315
11673W        W81554   1.802   5.846   1.336
11674W        W81555  10.679   2.843  14.516
11675W        W81556   9.203  18.204  13.506
11676W        W81557  42.419  14.644  14.312
11677W        W81558  31.920  29.027   0.949
11678W        W81559  11.820  39.526   2.667
11679W        W81560   9.864  30.570  14.030
11680W        W81561  43.952  23.063  14.789
11681W        W81562  41.497   4.714  14.488
11682W        W81563  12.249  42.916  12.371
11683W        W81564  41.983  28.038   3.184
11684W        W81565  14.214  28.163  13.347
11685W        W81566  18.097   3.746   0.471
11686W        W81567  18.650  24.103  13.473
11687W        W81568  23.719  29.485   4.256
11688W        W81569  26.078  33.008  13.879
11689W        W81570  34.472  41.495  13.954
11690W        W81571  31.516  39.018  14.005
11691W        W81572   1.958   7.718   1.850
11692W        W81573  28.169  24.697   1.313
11693W        W81574  44.377  16.114   1.343
11694W        W81575   6.379  17.285  11.531
11695W        W81576  34.457  40.428  14.894
11696W        W81577  44.348  30.637  10.107
11697W        W81578   3.787  29.149  12.394
11698W        W81579  15.306  37.924  12.369
11699W        W81580  18.567   1.437  11.108
11700W        W81581   6.839   2.317   0.261
11701W        W81582  35.858   8.166   3.637
11702W        W81583  30.116   6.750   1.896
11703W        W81584  18.632  42.300  10.888
11704W        W81585  40.032  39.965  11.043
11705W        W81586  13.716  24.600  14.323
11706W        W81587  40.536  26.157   0.303
11707W        W81588  42.358  25.661  14.859
11708W        W81589  34.946  11.789  10.894
11709W        W81590  19.279  29.089  12.950
11710W        W81591   7.316  14.619  12.358
11711W        W81592  32.141  36.403   5.211
11712W        W81593  26.537  10.294   4.693
11713W        W81594  34.992  15.806   3.696
11714W        W81595   9.834   9.206  13.433
11715W        W81596  40.860  30.043  13.367
11716W        W81597  32.087  29.482   1.894
11717W        W81598  41.450  24.693   2.698
11718W        W81599  40.548  28.582   1.706
11719W        W81600  12.694  34.050   2.308
11720W        W81601  14.287  42.309   4.698
11721W        W81602  29.082  10.194  12.473
11722W        W81603  14.766  17.591  13.833
11723W        W81604  21.239  12.306   1.709
11724W        W81605  44.364  29.020   5.217
11725W        W81606  17.751  14.292  13.928
11726W        W81607  20.756  24.498  10.889
11727W        W81608  29.513  14.170   1.934
11728W        W81609  37.038  10.217   1.210
11729W        W81610  38.900   4.874  11.385
11730W        W81611  43.423  39.449   1.342
11731W        W81612  29.522  37.943   4.334
11732W        W81613  36.453  28.050   1.346
11733W        W81614  33.446  14.707  14.842
11734W        W81615  36.565   8.365   0.428
11735W        W81616  10.815  15.686  11.865
11736W        W81617  19.084  16.285   2.745
11737W        W81618  25.065  12.284  12.063
11738W        W81619  34.061  19.673  13.810
11739W        W81620  14.097  31.913   1.763
11740W        W81621  21.160  24.599  14.303
11741W        W81622  41.869  22.535   4.117
11742W        W81623  18.231  41.331  14.314
11743W        W81624  19.736  18.614  14.005
11744W        W81625  31.995   4.909   0.392
11745W        W81626  25.591   3.382  11.109
11746W        W81627   6.211  17.238   2.263
11747W        W81628  18.713  10.379   2.857
11748W        W81629   6.916  27.607   4.661
11749W        W81630  15.225  11.329  10.588
11750W        W81631   3.413  37.880  13.530
11751W        W81632   6.210   8.848   0.842
11752W        W81633  14.626  33.996   1.848
11753W        W81634  23.162  37.949  14.485
11754W        W81635   2.722  40.943   1.370
11755W        W81636   3.718   2.334   1.402
11756W        W81637  12.221  38.397  13.966
11757W        W81638  27.973   1.386  12.425
11758W        W81639  22.203  40.965   3.239
11759W        W81640   3.333  41.305   0.750
11760W        W81641  36.509  27.590  13.019
11761W        W81642   3.340  17.230  11.903
11762W        W81643  24.715  24.110  14.840
11763W        W81644  28.088  20.743   3.303
11764W        W81645   0.884  43.438  10.611
11765W        W81646  24.662  12.196  14.334
11766W        W81647  10.813  18.220  13.526
11767W        W81648  21.136  24.170  13.492
11768W        W81649  22.738  40.969   0.386
11769W        W81650   0.839  28.627  14.431
11770W        W81651  43.839   8.257   3.149
11771W        W81652  31.617  18.727  10.006
11772W        W81653   0.810  12.227   3.190
11773W        W81654  16.159  25.080  11.494
11774W        W81655  18.053  32.106   0.400
11775W        W81656  21.129   5.842  10.600
11776W        W81657  35.876  14.694  13.449
11777W        W81658  40.377   8.248  14.385
11778W        W81659   3.910  37.976  11.015
11779W        W81660  31.548  20.040  10.574
11780W        W81661  43.309   2.381   2.682
11781W        W81662  29.081  17.110  12.068
11782W        W81663  35.579   1.256   2.360
11783W        W81664  18.218  20.091   0.854
11784W        W81665  30.655  23.675  10.569
11785W        W81666  23.198   7.706   1.884
11786W        W81667  19.260  30.938   2.407
11787W        W81668  39.426  16.567  13.024
11788W        W81669   2.301  24.212   3.735
11789W        W81670   6.700  11.138   2.186
11790W        W81671   9.239  35.879  12.561
11791W        W81672   2.381  37.940   0.257
11792W        W81673  14.772  41.944  11.440
11793W        W81674  11.651  14.263   3.308
11794W        W81675  15.699  39.537   2.331
11795W        W81676  28.681  15.591   1.908
11796W        W81677  40.486  16.639   0.298
11797W        W81678   4.758  27.998  10.613
11798W        W81679  19.258  20.681  13.809
11799W        W81680   4.758   4.398  14.347
11800W        W81681   8.337  36.013   2.252
11801W        W81682  15.800  18.762  11.425
11802W        W81683  14.334  14.628  10.501
11803W        W81684  10.282   6.777   3.215
11804W        W81685  31.483  11.798  12.556
11805W        W81686  19.661  31.548   3.244
11806W        W81687  26.183  37.848   2.688
11807W        W81688  17.709   8.306   0.459
11808W        W81689  23.046  19.176  12.373
11809W        W81690  26.199   4.702   4.600
11810W        W81691   9.211  28.611  11.056
11811W        W81692  38.559  33.385  13.929
11812W        W81693   3.906  44.937   1.290
11813W        W81694  34.049  13.174  12.076
11814W        W81695  37.050  42.410   0.746
11815W        W81696  41.790  41.369   5.138
11816W        W81697  25.660  15.800   2.364
11817W        W81698  13.742  43.818   1.728
11818W        W81699  38.558  31.417   2.310
11819W        W81700  33.478  16.692  14.415
11820W        W81701  23.065  18.296   1.921
11821W        W81702  32.540  36.484   1.420
11822W        W81703   1.483  26.539   3.291
11823W        W81704  31.539  44.847   3.758
11824W        W81705  42.463  26.956   1.746
11825W        W81706  38.025  44.361  14.910
11826W        W81707  23.200  25.569   2.314
11827W        W81708   0.837  37.545  13.381
11828W        W81709  11.165  27.485   0.845
11829W        W81710   1.837   7.860  10.491
11830W        W81711  21.619  22.173  10.471
11831W        W81712  38.426  17.671  14.992
11832W        W81713  14.258  30.586   4.248
11833W        W81714  41.998   4.388  14.893
11834W        W81715  11.153  35.487   3.669
11835W        W81716  35.531  43.951   3.661
11836W        W81717  10.770  15.222  11.121
11837W        W81718  41.504   4.938   4.776
11838W        W81719  16.649  40.526   3.766
11839W        W81720   3.456  15.586   0.878
11840W        W81721  42.362  10.772   4.321
11841W        W81722   6.687  44.993  11.023
11842W        W81723  36.040   8.705   5.239
11843W        W81724  10.692  24.622  10.533
11844W        W81725  42.437   2.343  10.499
11845W        W81726  17.168  18.650  10.472
11846W        W81727  13.122  23.114  12.558
11847W        W81728  27.066  12.317   4.749
11848W        W81729   7.193   0.374   0.862
11849W        W81730   2.782  24.526  14.477
11850W        W81731   4.276  13.620   2.305
11851W        W81732  29.638   6.347   1.306
11852W        W81733  20.691  42.442  11.479
11853W        W81734   3.754  26.187  13.908
11854W        W81735  14.720  32.078  14.925
11855W        W81736   1.430   5.332  13.465
11856W        W81737  22.147  32.410  14.296
11857W        W81738  32.912  39.505  11.558
11858W        W81739  40.475  23.034  13.817
11859W        W81740  19.154  12.817   0.406
11860W        W81741  41.442  17.269  13.897
11861W        W81742   4.292  29.986   1.897
11862W        W81743  35.481   3.876   3.247
11863W        W81744  12.724   7.671  10.423
11864W        W81745  31.639  13.144   4.166
11865W        W81746   7.849  41.022  14.489
11866W        W81747  41.932   6.862  11.046
11867W        W81748  44.002  16.626   3.332
11868W        W81749  40.829  38.897  14.844
11869W        W81750  37.547  12.760  11.094
11870W        W81751   6.710  25.007   4.739
11871W        W81752  31.529  12.238   3.235
11872W        W81753  10.333  16.296  14.472
11873W        W81754  35.083  15.665   0.449
11874W        W81755  25.048  40.884   4.279
11875W        W81756  32.001  16.781   4.698
11876W        W81757  33.455  40.427   0.954
11877W        W81758  25.563  13.336   2.236
11878W        W81759  40.499  12.208  11.582
11879W        W81760  12.270  28.544  14.397
11880W        W81761  26.670  40.423   2.349
11881W        W81762  43.783   1.846   2.675
11882W        W81763  26.680  17.727  12.379
11883W        W81764   8.887  30.153   0.457
11884W        W81765  16.633  43.359   0.296
11885W        W81766  23.609  35.970  12.971
11886W        W81767  19.596  39.007   0.872
11887W        W81768   2.249  23.694  13.493
11888W        W81769  28.475  27.950  10.142
11889W        W81770  21.628   8.753   3.802
11890W        W81771   1.945  44.862  12.430
11891W        W81772  40.412  16.646   4.765
11892W        W81773  37.004  35.879  12.407
11893W        W81774   6.183   6.798  10.928
11894W        W81775  30.161  29.446  10.453
11895W        W81776   0.489  26.703   4.350
11896W        W81777  25.967  34.970   4.817
11897W        W81778  20.756  28.576  14.834
11898W        W81779  22.503  43.381   4.837
11899W        W81780  44.273  37.362  13.450
11900W        W81781  11.127  30.054  10.019
11901W        W81782  14.147  39.942   1.211
11902W        W81783  43.973   0.879  12.535
11903W        W81784  10.733  18.617   1.914
11904W        W81785  24.002   2.452  13.051
11905W        W81786  21.682  25.102  12.860
11906W        W81787  19.106  44.307  13.375
11907W        W81788  23.168  17.559   2.349
11908W        W81789  12.281  30.583   4.337
11909W        W81790  39.043  39.540   0.435
11910W        W81791  24.655  28.529  10.637
11911W        W81792  24.975   7.778   2.759
11912W        W81793  20.092  41.042  12.375
11913W        W81794  19.048   8.658   2.696
11914W        W81795  39.395   4.734  11.031
11915W        W81796  13.332   1.417  14.465
11916W        W81797   8.657  29.087  12.426
11917W        W81798  29.941   3.835   3.286
11918W        W81799   1.914  44.406  14.431
11919W        W81800  17.108  41.309  10.540
11920W        W81801  17.304  18.240  13.041
11921W        W81802  43.017   4.308   3.300
11922W        W81803   8.843  33.516  10.548
11923W        W81804   3.362  24.001   0.453
11924W        W81805  35.518  29.602   4.631
11925W        W81806  30.483   9.320  14.933
11926W        W81807  44.773  35.604  14.276
11927W        W81808  36.073  44.264   3.697
11928W        W81809  16.182  25.147  12.890
11929W        W81810  41.788  35.598  10.928
11930W        W81811  11.310  39.445  14.308
11931W        W81812  16.190  35.031   0.344
11932W        W81813  21.114  37.839  13.318
11933W        W81814  25.470  29.525  12.059
11934W        W81815  19.707  34.424  14.929
11935W        W81816  25.134  43.949   2.405
11936W        W81817  23.042  18.771  11.865
11937W        W81818  27.987  12.172  11.587
11938W        W81819  26.582  30.421  11.879
11939W        W81820   7.746  43.940  13.309
11940W        W81821  11.755   9.359  10.955
11941W        W81822   5.325  15.096  13.539
11942W        W81823  43.920  21.021  10.895
11943W        W81824  17.101   9.688  14.863
11944W        W81825  21.039  24.162   2.809
11945W        W81826  11.178  30.432   4.659
11946W        W81827   6.681  22.207   0.967
11947W        W81828   0.468   1.977  10.575
11948W        W81829  10.377  19.659  10.536
11949W        W81830  23.993   2.774   0.412
11950W        W81831   0.787  12.664   5.091
11951W        W81832  13.229  35.486  11.455
11952W        W81833   8.666  22.694  10.514
11953W        W81834  28.679   6.809   2.781
11954W        W81835   7.386  33.481  14.822
11955W        W81836  28.970  21.162  13.516
11956W        W81837   0.436  10.293  14.359
11957W        W81838  21.516   5.871  11.048
11958W        W81839   9.665  17.693   4.740
11959W        W81840  33.584  15.578   0.425
11960W        W81841  11.823  26.031   0.822
11961W        W81842   7.264  42.946   4.623
11962W        W81843   4.434   3.712  12.909
11963W        W81844   7.824  17.674   3.219
11964W        W81845  22.034  41.031  14.818
11965W        W81846   5.230  34.987  13.809
11966W        W81847  44.492  23.676  14.425
11967W        W81848  18.165  25.090   0.752
11968W        W81849   7.264  15.685   3.334
11969W        W81850  11.324  11.181  13.519
11970W        W81851  30.522   1.431   4.622
11971W        W81852  40.031  17.795  10.940
11972W        W81853  14.716   5.871   3.680
11973W        W81854   1.420   6.705   2.709
11974W        W81855  18.078  12.825   0.300
11975W        W81856  13.648  38.891   5.136
11976W        W81857  28.030  34.104  14.805
11977W        W81858  26.546   6.400  10.643
11978W        W81859  29.161   5.303  10.452
11979W        W81860   5.909  24.993  14.478
11980W        W81861  34.615  18.284   4.188
11981W        W81862  15.299   9.343   4.117
11982W        W81863  28.641  31.526  13.864
11983W        W81864  27.195  10.838  11.034
11984W        W81865  16.650   0.820   3.282
11985W        W81866  36.025  10.693   4.793
11986W        W81867  18.276  31.947  14.357
11987W        W81868  42.799  23.091   0.926
11988W        W81869  30.980  44.963  14.871
11989W        W81870  39.033  28.055   4.836
11990W        W81871  29.112  19.270   4.323
11991W        W81872   7.839  42.313   4.812
11992W        W81873  37.370   3.943  12.528
11993W        W81874   7.829  26.637   2.311
11994W        W81875  42.496  28.471  14.512
11995W        W81876  30.021   9.337   5.212
11996W        W81877  15.153   8.164   3.694
11997W        W81878  20.531  21.574   2.270
11998W        W81879  34.089  31.460   4.661
11999W        W81880  16.095  30.126  10.556
12000W        W81881  11.693  42.003   4.337
12001W        W81882  31.002   1.957   2.201
12002W        W81883  34.900  30.651   0.369
12003W        W81884  36.080   4.390   2.772
12004W        W81885   5.426  17.291  10.574
12005W        W81886  33.432   7.393  12.005
12006W        W81887  32.476  42.435   2.712
12007W        W81888  17.595  32.062  14.398
12008W        W81889   6.391  34.969  14.803
12009W        W81890  16.690  25.557  12.423
12010W        W81891  16.089  36.955  14.400
12011W        W81892  41.898  34.881   1.783
12012W        W81893   0.417  22.048   3.230
12013W        W81894  43.366  34.025   4.685
12014W        W81895  25.097  40.039   2.704
12015W        W81896  15.277  15.247  12.449
12016W        W81897  23.136  31.459  12.385
12017W        W81898  35.366   2.754   3.778
12018W        W81899  36.487  33.417   0.332
12019W        W81900  34.068  22.545  14.952
12020W        W81901   8.729   8.234  13.441
12021W        W81902  30.550  17.601   4.136
12022W        W81903  32.989   4.806   1.311
12023W        W81904  42.926  43.953  14.946
12024W        W81905  21.207  26.002  10.121
12025W        W81906  22.588   4.225   3.273
12026W        W81907  19.218   2.922  12.015
12027W        W81908  41.438  31.134   2.713
12028W        W81909   8.888  12.729  13.519
12029W        W81910  33.958  44.818   4.227
12030W        W81911  15.800  23.018  14.784
12031W        W81912  23.690  14.735  14.837
12032W        W81913   7.676  39.052  14.483
12033W        W81914   6.705  24.516   4.280
12034W        W81915  16.663  20.603  13.369
12035W        W81916   3.926  33.538   3.315
12036W        W81917  35.427  30.419  12.089
12037W        W81918  44.410  11.148   0.382
12038W        W81919   3.732  31.123  11.093
12039W        W81920  29.094  38.052  12.980
12040W        W81921   0.802  11.162   0.376
12041W        W81922  38.330  35.002  10.573
12042W        W81923  43.403   4.265  11.588
12043W        W81924  28.544  24.140   1.214
12044W        W81925  12.767  14.274   4.651
12045W        W81926  22.176  42.882   0.767
12046W        W81927  11.772  42.364   1.279
12047W        W81928  40.399  14.219   0.790
12048W        W81929  23.512  33.100   1.399
12049W        W81930  13.798  27.452   0.362
12050W        W81931  26.611  29.483  14.502
12051W        W81932  33.110  38.057   3.702
12052W        W81933  42.488  15.274   0.359
12053W        W81934  40.882  16.634   3.314
12054W        W81935  21.629   3.954  14.918
12055W        W81936   8.287  35.051   0.760
12056W        W81937  38.553   0.373  11.924
12057W        W81938  25.470  26.200   3.181
12058W        W81939  41.882   5.788  10.891
12059W        W81940  37.080   1.788   1.221
12060W        W81941   4.209  10.239  14.888
12061W        W81942   0.286   6.395  13.389
12062W        W81943   6.282  25.599   0.800
12063W        W81944  36.355   5.437   2.294
12064W        W81945  36.562  22.183   3.230
12065W        W81946  28.589  29.960   4.266
12066W        W81947   9.161   0.951   4.215
12067W        W81948  11.662   8.712   5.251
12068W        W81949  29.018  19.096  14.907
12069W        W81950   4.714  33.545  10.466
12070W        W81951  40.802  44.909  14.881
12071W        W81952  28.598  37.856  12.509
12072W        W81953   4.274   3.937   1.827
12073W        W81954  22.709  23.133  14.759
12074W        W81955  13.753  37.877  10.545
12075W        W81956  34.892   0.308   1.931
12076W        W81957  41.356  10.853  10.895
12077W        W81958  16.588   2.748   4.691
12078W        W81959  44.452  21.617  10.985
12079W        W81960  17.664   5.849   3.359
12080W        W81961  30.651   4.934   2.213
12081W        W81962   3.235  35.529   1.843
12082W        W81963  28.983  35.510   0.321
12083W        W81964  17.304  38.936   4.762
12084W        W81965  32.563  39.531   2.182
12085W        W81966  25.570  36.930   2.369
12086W        W81967  27.993  23.113   1.215
12087W        W81968  36.420  22.693   4.725
12088W        W81969  16.672  14.285   3.309
12089W        W81970   0.298  35.552   2.857
12090W        W81971   9.377  38.981   0.802
12091W        W81972  16.732  19.086  14.872
12092W        W81973  21.155  42.851   3.269
12093W        W81974   9.228  13.846  14.979
12094W        W81975  38.859   5.768   4.821
12095W        W81976   9.869  17.079  11.503
12096W        W81977  40.894  16.733  13.049
12097W        W81978  44.415  23.221  14.846
12098W        W81979  25.480  14.113  10.981
12099W        W81980   0.865  27.647   4.216
12100W        W81981  13.304  30.925  12.883
12101W        W81982   7.737  41.866   2.690
12102W        W81983  40.832   7.781  11.610
12103W        W81984  37.832  32.077   4.687
12104W        W81985   4.741   3.383  11.065
12105W        W81986  17.201  28.044  13.887
12106W        W81987  30.081  14.732   4.145
12107W        W81988  31.045   4.265   4.150
12108W        W81989  34.536  27.039  11.009
12109W        W81990  28.551  33.499   0.266
12110W        W81991  26.203  26.055   3.724
12111W        W81992   5.195  16.075   1.450
12112W        W81993  15.641  17.687   3.682
12113W        W81994  41.358  40.881   1.873
12114W        W81995  22.165  37.871   3.685
12115W        W81996  40.873  18.709   2.730
12116W        W81997  29.955   1.769  12.444
12117W        W81998   7.405   9.851  11.920
12118W        W81999  23.610   1.316   0.786
12119W        W82000  42.797   7.729   3.351
12120W        W82001  38.949  10.792   3.243
12121W        W82002  43.873  16.150  14.378
12122W        W82003   6.715  11.142   0.301
12123W        W82004   6.311  27.995   0.737
12124W        W82005   9.806  21.202   3.318
12125W        W82006   1.905  24.148  10.588
12126W        W82007  17.246  13.276  12.413
12127W        W82008  12.714  29.123   2.831
12128W        W82009  16.689   2.335   4.677
12129W        W82010  37.883  42.287  10.603
12130W        W82011  41.936  24.514   0.884
12131W        W82012  11.801  14.762  11.435
12132W        W82013   3.415  14.286  14.293
12133W        W82014  25.132  21.038  14.860
12134W        W82015  29.576  38.413   2.780
12135W        W82016  11.150  17.194   4.620
12136W        W82017   9.675   2.412   3.301
12137W        W82018  44.477  37.535  12.089
12138W        W82019  32.484  19.742   3.841
12139W        W82020  34.052  41.971   0.951
12140W        W82021  24.182   1.873  13.934
12141W        W82022  23.617  37.481  14.448
12142W        W82023   0.426  12.216  11.864
12143W        W82024  41.971   3.358  14.295
12144W        W82025  13.624   6.315   4.601
12145W        W82026  12.761  24.538  10.431
12146W        W82027  18.171  39.055   2.812
12147W        W82028  12.847  40.505  12.000
12148W        W82029  23.201  43.837  13.031
12149W        W82030  24.152  12.314   2.763
12150W        W82031  33.948  24.138   2.882
12151W        W82032  30.907  38.395   1.309
12152W        W82033  17.256   6.338   3.204
12153W        W82034   6.714  10.664   4.213
12154W        W82035  18.165  22.162   3.868
12155W        W82036  35.585  32.919  11.008
12156W        W82037  14.151  42.004  10.578
12157W        W82038  40.813   7.755  12.470
12158W        W82039  29.495   8.193   3.370
12159W        W82040  43.432   7.203   3.154
12160W        W82041  22.711  25.173  10.443
12161W        W82042  24.492   9.156  12.542
12162W        W82043  30.624  28.660  11.436
12163W        W82044   4.397  38.831  14.031
12164W        W82045  19.581  16.182   2.278
12165W        W82046  36.880  25.636   1.283
12166W        W82047  15.743  21.225   5.182
12167W        W82048  24.591  17.706  11.096
12168W        W82049  38.984  28.167   2.228
12169W        W82050  40.517   3.755   1.418
12170W        W82051   0.373  24.632  11.608
12171W        W82052   4.944  21.666   3.281
12172W        W82053  17.564  19.202  10.406
12173W        W82054   0.288  21.211   3.850
12174W        W82055  41.908  20.640  14.419
12175W        W82056  13.797  28.587  11.078
12176W        W82057  18.100   6.709   3.732
12177W        W82058  29.540  12.744  11.070
12178W        W82059  33.021   4.400  13.336
12179W        W82060   7.713   5.357   2.870
12180W        W82061  30.926  24.627   1.354
12181W        W82062  30.492  39.528   0.469
12182W        W82063   7.375   9.743   0.248
12183W        W82064  20.672  12.622  10.467
12184W        W82065  44.377   4.209   5.273
12185W        W82066  28.080  27.182  11.882
12186W        W82067  40.885  15.727  12.924
12187W        W82068  17.122  41.525   4.765
12188W        W82069  26.169  17.210  14.809
12189W        W82070  26.145  28.995  11.376
12190W        W82071   1.255  40.971  10.915
12191W        W82072  37.968  31.520   4.793
12192W        W82073  19.766  27.126  12.859
12193W        W82074  41.808  15.229   3.742
12194W        W82075   0.349  31.060   1.441
12195W        W82076  32.624  34.098   2.854
12196W        W82077  41.787   8.799  14.328
12197W        W82078  17.779   7.809   1.433
12198W        W82079  40.458  43.771   3.639
12199W        W82080  21.522  10.662   4.802
12200W        W82081   5.305  30.601   2.356
12201W        W82082  39.365  15.164  10.620
12202W        W82083   6.273  29.542   2.392
12203W        W82084   4.413  20.079   0.808
12204W        W82085  11.825  29.534  14.795
12205W        W82086  43.973  32.992   2.892
12206W        W82087   0.792   4.880  13.508
12207W        W82088  37.911  39.346   1.925
12208W        W82089  37.973  39.471  10.433
12209W        W82090   9.291  14.125  10.610
12210W        W82091  31.112  30.554   5.241
12211W        W82092   8.899  27.483   1.257
12212W        W82093  33.584  35.596   2.216
12213W        W82094  11.308   5.243  11.880
12214W        W82095  14.215  10.154   5.223
12215W        W82096  18.692   0.330   1.318
12216W        W82097  33.600  29.138  11.043
12217W        W82098  43.814  44.401   3.752
12218W        W82099  16.103  41.515   4.664
12219W        W82100  31.929  31.463   3.631
12220W        W82101  18.637  19.114   1.352
12221W        W82102  35.563   8.276  10.622
12222W        W82103  14.142  14.164  10.983
12223W        W82104  36.379   8.321  10.888
12224W        W82105  35.909  36.468  11.601
12225W        W82106  30.659   8.750  14.884
12226W        W82107   7.864  10.143   1.417
12227W        W82108  37.983  26.693   2.346
12228W        W82109  21.227   7.793  12.923
12229W        W82110  22.549  34.512  13.502
12230W        W82111  26.655  38.849  13.402
12231W        W82112  43.981  32.489   4.829
12232W        W82113   5.923  15.599  12.031
12233W        W82114  31.484  18.243   2.194
12234W        W82115   3.894   6.780  12.018
12235W        W82116  38.543   2.436  13.833
12236W        W82117  14.205  27.599  14.996
12237W        W82118  27.043  14.251   3.386
12238W        W82119  36.510  41.800  10.925
12239W        W82120   9.700  22.073   4.637
12240W        W82121   5.366  21.231   0.303
12241W        W82122  28.464   2.874   4.186
12242W        W82123   7.687   2.257  10.579
12243W        W82124  40.990  23.534   3.248
12244W        W82125  29.432  13.330   0.419
12245W        W82126  12.131  32.410  10.489
12246W        W82127  19.057   9.318  12.539
12247W        W82128  36.467  39.939  13.811
12248W        W82129   1.858  43.017  13.942
12249W        W82130  34.555  30.913  11.386
12250W        W82131   2.407  17.592   4.121
12251W        W82132  27.645   8.240  14.011
12252W        W82133  36.585  20.260  14.503
12253W        W82134   0.453  44.397  12.891
12254W        W82135   4.217  20.634  12.897
12255W        W82136  23.021  16.197   0.431
12256W        W82137  23.575   7.781   1.697
12257W        W82138  35.090  38.397  11.051
12258W        W82139  44.281  41.397  13.456
12259W        W82140  25.555   6.258  10.085
12260W        W82141  22.631   4.705   0.769
12261W        W82142  39.427  30.914   2.411
12262W        W82143   4.812   3.456  14.474
12263W        W82144  22.530  43.002  11.573
12264W        W82145  28.677  14.595  11.400
12265W        W82146  29.161  37.946   4.748
12266W        W82147  22.068  11.242   4.762
12267W        W82148  31.055  18.713   2.207
12268W        W82149  20.658  24.519   1.701
12269W        W82150  19.252   9.377   4.689
12270W        W82151  24.555  37.436  11.952
12271W        W82152  39.822  21.595  12.860
12272W        W82153  38.506  33.041   3.687
12273W        W82154  11.666  19.778  12.894
12274W        W82155  24.062  33.560  11.507
12275W        W82156  40.811   3.245   4.617
12276W        W82157   5.225  29.095  13.841
12277W        W82158   8.296  38.864   0.932
12278W        W82159  31.575   9.164   4.710
12279W        W82160  19.079   4.301   2.772
12280W        W82161   0.329  39.922  11.024
12281W        W82162   3.383  14.239   2.728
12282W        W82163   6.782   4.911   0.945
12283W        W82164  12.317  32.038  10.405
12284W        W82165   3.841   3.438   2.369
12285W        W82166  26.603  41.867  13.507
12286W        W82167   1.280  33.916   0.350
12287W        W82168  25.085  18.719  12.982
12288W        W82169  42.920  32.943   0.312
12289W        W82170  23.712  13.268  12.082
12290W        W82171  44.475  18.242  13.057
12291W        W82172  22.203   6.349   2.321
12292W        W82173   4.831  33.524   3.218
12293W        W82174   1.910  10.853  11.572
12294W        W82175  40.387  11.194   3.376
12295W        W82176  24.721   9.216   1.719
12296W        W82177  26.172  19.199  14.837
12297W        W82178   8.835   1.239   4.283
12298W        W82179  33.569  41.535   4.334
12299W        W82180  19.120   5.866  10.958
12300W        W82181  13.105   4.742  11.901
12301W        W82182  20.677  37.489  13.532
12302W        W82183  11.351  25.661   2.897
12303W        W82184  33.541  36.368   3.343
12304W        W82185   8.848  25.546  14.916
12305W        W82186  42.398   7.868  10.431
12306W        W82187  33.453  37.976   0.884
12307W        W82188  12.646  28.621   2.354
12308W        W82189  37.902  24.540   1.781
12309W        W82190  24.709   4.933   1.252
12310W        W82191   3.948  32.031   1.289
12311W        W82192  24.500  24.578  11.019
12312W        W82193   7.861  34.044   0.866
12313W        W82194  33.598   5.766   4.342
12314W        W82195  13.232   3.246  11.870
12315W        W82196  19.147  11.834  12.933
12316W        W82197  11.632  22.674  14.494
12317W        W82198   9.849  38.563   3.349
12318W        W82199  40.315  32.588  13.324
12319W        W82200  32.432  34.035  11.480
12320W        W82201  32.014  24.982  11.435
12321W        W82202  44.281  12.314   1.842
12322W        W82203  34.031  29.615  11.438
12323W        W82204  21.563  43.799  10.569
12324W        W82205  41.042  37.022  11.886
12325W        W82206   7.707  40.541   3.816
12326W        W82207  39.370  17.166  13.385
12327W        W82208   3.308  17.144  13.350
12328W        W82209   7.845  14.691  13.320
12329W        W82210  33.007   8.324  12.529
12330W        W82211  26.476  17.754  14.768
12331W        W82212  21.149   7.289  10.891
12332W        W82213   7.312  21.697   3.299
12333W        W82214   8.735   7.343  13.316
12334W        W82215  25.555  39.361   1.211
12335W        W82216  35.360  15.221  11.934
12336W        W82217  21.185  39.064  10.508
12337W        W82218  41.292  44.969  10.465
12338W        W82219  16.107   3.775  10.936
12339W        W82220  39.997  23.204   1.385
12340W        W82221   6.835  36.013  11.947
12341W        W82222  37.855   5.230  13.539
12342W        W82223  13.231   7.189   3.267
12343W        W82224  29.112  14.667   2.352
12344W        W82225  12.679   9.649   2.662
12345W        W82226  23.662  13.745   4.822
12346W        W82227  22.055   6.709   4.323
12347W        W82228  28.135  43.838  14.015
12348W        W82229  35.958  36.964   1.816
12349W        W82230  43.377  31.966  13.527
12350W        W82231  15.259  26.571  10.591
12351W        W82232  31.985   5.733   9.997
12352W        W82233  18.190   6.289  13.532
12353W        W82234  26.071  14.203  11.103
12354W        W82235  20.553  37.357  11.609
12355W        W82236  42.028  21.182  12.503
12356W        W82237  39.972  21.594  13.929
12357W        W82238  30.033  16.138  12.479
12358W        W82239   3.269  30.504  14.393
12359W        W82240  34.025  22.716   2.379
12360W        W82241  23.029  32.110  14.802
12361W        W82242  40.449  24.545  12.888
12362W        W82243   8.810  17.685   3.367
12363W        W82244  21.191  23.111   2.209
12364W        W82245   4.409  32.080  10.466
12365W        W82246  19.725   0.849  11.869
12366W        W82247  26.055  23.110  13.956
12367W        W82248  35.527   6.364  13.342
12368W        W82249  38.963  24.624  14.358
12369W        W82250  26.674  14.721   0.297
12370W        W82251  35.906  41.843   4.675
12371W        W82252  28.061  40.522   2.734
12372W        W82253  38.828  31.600   4.225
12373W        W82254  37.918  38.995  12.905
12374W        W82255  22.617  28.162   4.631
12375W        W82256  16.792  37.486   0.790
12376W        W82257  44.867   0.891  13.969
12377W        W82258   9.329   9.257   4.256
12378W        W82259  16.690  34.488  10.978
12379W        W82260  13.148   4.219  14.314
12380W        W82261  20.704  22.155   1.739
12381W        W82262   5.857  17.197  10.939
12382W        W82263   9.802   3.405  10.498
12383W        W82264  35.367   2.912   2.320
12384W        W82265   8.730  37.565  13.485
12385W        W82266  27.053   3.812   2.309
12386W        W82267   9.242   5.888   3.652
12387W        W82268   5.722  41.303  11.517
12388W        W82269  44.276  19.580   2.821
12389W        W82270   1.440   6.873   0.356
12390W        W82271   8.660  36.525  13.833
12391W        W82272   1.867  35.076  13.411
12392W        W82273  34.927  42.424   2.353
12393W        W82274  37.547  13.787  11.035
12394W        W82275   5.296  12.170  14.321
12395W        W82276  31.062  38.996   1.354
12396W        W82277  42.784  36.848  12.488
12397W        W82278  29.056  28.447   4.321
12398W        W82279  17.140   1.910   0.329
12399W        W82280  26.082  43.350   4.195
12400W        W82281  13.741   3.336   2.328
12401W        W82282  23.656  18.249   3.259
12402W        W82283  12.678  23.090   1.709
12403W        W82284  36.533   8.193  12.948
12404W        W82285  33.121   0.894  14.762
12405W        W82286  28.025  27.631   3.311
12406W        W82287  44.501  43.466   5.254
12407W        W82288  44.896  30.455   1.338
12408W        W82289  16.208  30.439  11.893
12409W        W82290  14.312  17.672  12.984
12410W        W82291  38.513   0.456   3.236
12411W        W82292  28.547  22.662   4.303
12412W        W82293  16.252  23.539  10.642
12413W        W82294  22.713  10.831  13.799
12414W        W82295  24.061  32.570   0.275
12415W        W82296  18.725  17.617   2.409
12416W        W82297   5.412  14.302  11.046
12417W        W82298  13.706  11.862   2.392
12418W        W82299  34.073  24.088  11.113
12419W        W82300  15.207  29.061   2.408
12420W        W82301  34.043   2.838  12.010
12421W        W82302  13.121  13.698   3.821
12422W        W82303   4.868   8.304   1.279
12423W        W82304   9.165  29.517   4.333
12424W        W82305   3.942  44.924  10.940
12425W        W82306  22.211  27.692  13.375
12426W        W82307   9.300  26.042   4.629
12427W        W82308  34.091  44.916   3.685
12428W        W82309  25.137  15.623  13.859
12429W        W82310  25.667  39.381  13.890
12430W        W82311  42.775  38.040   2.745
12431W        W82312   0.973  41.877  12.544
12432W        W82313  25.055  23.098  13.893
12433W        W82314  16.176  27.688  10.897
12434W        W82315  11.214   0.371  13.950
12435W        W82316  37.965  10.763   1.366
12436W        W82317  10.694  19.679   5.219
12437W        W82318   8.811  11.180   2.789
12438W        W82319  40.453   4.733  11.889
12439W        W82320  26.118   2.373  13.980
12440W        W82321  22.630   7.415  12.946
12441W        W82322  11.268  24.992   0.829
12442W        W82323   2.735  12.612   3.164
12443W        W82324   0.428  25.481  10.960
12444W        W82325  15.129  32.053  14.918
12445W        W82326  31.417  16.259  11.003
12446W        W82327  42.414   2.360   0.271
12447W        W82328   0.470  27.197  13.828
12448W        W82329  33.464  33.621   4.835
12449W        W82330  21.024  19.591  10.065
12450W        W82331  34.914  32.403  13.041
12451W        W82332  34.893  17.192  10.889
12452W        W82333  11.668  27.116   4.631
12453W        W82334  20.762  38.390  14.813
12454W        W82335   8.808  40.381  14.388
12455W        W82336   8.838  34.479   2.298
12456W        W82337   8.784  15.767   3.812
12457W        W82338  13.150  25.563   0.915
12458W        W82339  17.176  44.331  13.032
12459W        W82340   1.974  43.460  11.379
12460W        W82341  39.430  27.017  13.500
12461W        W82342   3.737   5.810  10.522
12462W        W82343   7.762  42.884   5.143
12463W        W82344   5.360  23.109  14.760
12464W        W82345  40.405  40.506   0.417
12465W        W82346   4.248  39.820   4.686
12466W        W82347  10.659  15.307  14.337
12467W        W82348  36.416   1.363  14.513
12468W        W82349  18.220  31.088   2.735
12469W        W82350  32.567  18.635  10.637
12470W        W82351  13.662  11.315   4.833
12471W        W82352  25.511  44.913  11.026
12472W        W82353  43.868  19.217  12.955
12473W        W82354  15.823  14.749  10.406
12474W        W82355  39.471  35.014   4.611
12475W        W82356  14.812  12.737   1.883
12476W        W82357  17.091  18.213  14.439
12477W        W82358  40.413  32.526  11.560
12478W        W82359  41.316  41.369  12.516
12479W        W82360  39.043  42.335  14.421
12480W        W82361  12.629  43.020   3.266
12481W        W82362   4.815  12.329   1.934
12482W        W82363   3.232  28.136  14.457
12483W        W82364   6.877  38.424   0.393
12484W        W82365  20.047  25.664  11.067
12485W        W82366  42.810  21.533   2.726
12486W        W82367  39.369   8.226  11.994
12487W        W82368  43.466  14.207   3.322
12488W        W82369   9.667  18.213   4.143
12489W        W82370   5.807  36.084   2.846
12490W        W82371  22.734   7.892   2.663
12491W        W82372  24.565  17.678  12.468
12492W        W82373  27.162  34.447  10.905
12493W        W82374  32.427  36.027  11.905
12494W        W82375  41.322  20.768   1.313
12495W        W82376  23.187  42.786   2.402
12496W        W82377  27.655  37.920   3.341
12497W        W82378  25.614  20.547  14.843
12498W        W82379  26.492  17.785   3.630
12499W        W82380  43.447  35.487   3.814
12500W        W82381  28.674  28.102  14.404
12501W        W82382   9.727  44.340   2.896
12502W        W82383  26.025  41.470  14.008
12503W        W82384  36.098  34.507  10.923
12504W        W82385  34.886  32.996  13.375
12505W        W82386  41.791  33.041   3.722
12506W        W82387  27.646  34.892   1.769
12507W        W82388   0.435   1.792  14.790
12508W        W82389  44.982  30.117   1.272
12509W        W82390  12.354  12.796  12.920
12510W        W82391  22.620   1.393   1.327
12511W        W82392  16.312   5.427  12.957
12512W        W82393  13.305  17.091   3.333
12513W        W82394   3.310  42.394   1.240
12514W        W82395  18.746  34.984  14.958
12515W        W82396  15.131   9.241  11.461
12516W        W82397  19.094  11.178  12.499
12517W        W82398   9.670  12.631  12.409
12518W        W82399   2.304   2.929   2.844
12519W        W82400  14.597   0.423  11.458
12520W        W82401  22.717  26.169   2.846
12521W        W82402   0.443   5.364  11.023
12522W        W82403  43.002  23.549  14.404
12523W        W82404  11.364  36.081  11.539
12524W        W82405   5.771  22.589   4.665
12525W        W82406  38.466  40.365   1.788
12526W        W82407   3.340   8.684   0.731
12527W        W82408  36.457  28.138  11.971
12528W        W82409  30.475   1.283   2.730
12529W        W82410  21.572   1.438  12.492
12530W        W82411  32.554  35.030  11.892
12531W        W82412  35.911  37.023  14.402
12532W        W82413  16.202  39.903  12.970
12533W        W82414   9.368  12.848  14.445
12534W        W82415   5.268  21.250  12.952
12535W        W82416  11.353  36.444   2.836
12536W        W82417  34.543  14.226   2.838
12537W        W82418  40.801  22.729  13.890
12538W        W82419  25.484  38.445  10.494
12539W        W82420  18.789   6.366  11.374
12540W        W82421  31.609  39.401  14.933
12541W        W82422  40.023  28.594  11.049
12542W        W82423   6.774  19.655  10.899
12543W        W82424  44.496  10.689  13.380
12544W        W82425   9.852  44.834   3.702
12545W        W82426  26.075  26.153   5.165
12546W        W82427   5.201  43.491  10.432
12547W        W82428  32.093   9.188   0.450
12548W        W82429  15.228  39.863  10.530
12549W        W82430  28.043  26.637  13.926
12550W        W82431  26.026  11.248  14.928
12551W        W82432   5.858  37.908  12.895
12552W        W82433  22.548  38.967  13.417
12553W        W82434   4.308   1.345   3.818
12554W        W82435   1.406   4.877   0.932
12555W        W82436   5.828   8.400  14.805
12556W        W82437  21.732  35.878   2.359
12557W        W82438  29.524  41.349   2.333
12558W        W82439  21.049  38.031  11.523
12559W        W82440  37.929  30.033   0.380
12560W        W82441  28.019  26.500   0.832
12561W        W82442  17.681  40.990  12.920
12562W        W82443   0.810  16.594   4.657
12563W        W82444  15.752  37.577  11.422
12564W        W82445   4.327  36.872  11.384
12565W        W82446  30.553  18.749   0.320
12566W        W82447  14.299  12.695  11.017
12567W        W82448  32.081   0.829  14.892
12568W        W82449  12.831  11.220   2.811
12569W        W82450  16.244  41.796  12.860
12570W        W82451   1.347   1.387   4.332
12571W        W82452  44.291  22.540   1.714
12572W        W82453  18.650  23.112   0.303
12573W        W82454   3.871  10.850  14.777
12574W        W82455   9.222  29.991   1.284
12575W        W82456  21.124  39.043   0.819
12576W        W82457   3.783  38.504  14.854
12577W        W82458  27.128   2.243   4.270
12578W        W82459   1.294   5.789   2.680
12579W        W82460  36.463  16.089  10.549
12580W        W82461  26.582   9.653   1.698
12581W        W82462   4.855  44.887  13.991
12582W        W82463  23.615   9.310  14.948
12583W        W82464  12.674  43.773   2.326
12584W        W82465   0.958   2.903   1.372
12585W        W82466  10.238  33.879   3.292
12586W        W82467  36.942  44.882  12.060
12587W        W82468  12.842  26.085  13.895
12588W        W82469  13.757   9.170   1.399
12589W        W82470  32.574   9.760   1.260
12590W        W82471   9.877   6.372   1.217
12591W        W82472  36.396  13.313   3.177
12592W        W82473  36.443  23.722  14.356
12593W        W82474  41.385  31.620  14.484
12594W        W82475  37.389  27.087  13.369
12595W        W82476   5.358  35.460  13.002
12596W        W82477  11.200  37.400   4.287
12597W        W82478   0.978   7.772  14.970
12598W        W82479  28.650  24.094  14.993
12599W        W82480  10.871  44.883  13.519
12600W        W82481  34.502   7.677   4.759
12601W        W82482  10.688  42.318  14.288
12602W        W82483  41.850   6.818   3.324
12603W        W82484   0.762  22.196  10.500
12604W        W82485  24.510  43.398   1.701
12605W        W82486  23.107  25.523   1.908
12606W        W82487  31.095  17.280   2.733
12607W        W82488  43.825  25.696   3.710
12608W        W82489  27.084  26.618   3.673
12609W        W82490  44.922  13.707   1.250
12610W        W82491  18.225  26.030   0.325
12611W        W82492   0.304  13.687   4.632
12612W        W82493  17.081  10.355   4.741
12613W        W82494  10.206  42.999  11.953
12614W        W82495  22.522  41.868  14.973
12615W        W82496  33.425  19.117  14.503
12616W        W82497  42.844  31.041  10.520
12617W        W82498  21.202   8.235   4.152
12618W        W82499   0.354   3.225  13.359
12619W        W82500  34.036  44.278   0.900
12620W        W82501   7.830  28.180   1.274
12621W        W82502  33.919  31.959   2.871
12622W        W82503  25.502  20.737  11.437
12623W        W82504   2.837   4.704  13.978
12624W        W82505  41.842  33.006  13.401
12625W        W82506  28.457  32.000  11.442
12626W        W82507  38.925  20.600   2.216
12627W        W82508   3.413  38.453   3.346
12628W        W82509  37.442  43.385  14.427
12629W        W82510  40.490  29.540  11.553
12630W        W82511  15.701  36.020  10.904
12631W        W82512   5.274  28.939   4.257
12632W        W82513  20.755  31.586   4.778
12633W        W82514  21.068  15.815  11.957
12634W        W82515  23.578  42.316   0.324
12635W        W82516  41.476  31.418  12.945
12636W        W82517  31.031  30.164  11.469
12637W        W82518  18.265  40.026  13.010
12638W        W82519   6.273   0.839  10.609
12639W        W82520  20.632  19.664   1.308
12640W        W82521   8.887  42.444   3.699
12641W        W82522  25.210  28.620   4.755
12642W        W82523  35.380   4.785   3.640
12643W        W82524   8.837   3.253  14.836
12644W        W82525  11.253  43.932   2.755
12645W        W82526  13.839  41.843   3.361
12646W        W82527  44.839  24.995   0.275
12647W        W82528  39.391  16.128   1.871
12648W        W82529  22.196  21.096   1.917
12649W        W82530  10.248  23.732  10.124
12650W        W82531  33.546   1.930   3.668
12651W        W82532  30.533  13.328  13.864
12652W        W82533   2.768  27.055   0.807
12653W        W82534  38.467  21.149  10.458
12654W        W82535  14.108  25.102  14.966
12655W        W82536   7.388  38.561   0.435
12656W        W82537  39.439  37.931   2.735
12657W        W82538  40.487   6.757   1.395
12658W        W82539  37.050   6.879   3.275
12659W        W82540  40.050  29.965   1.341
12660W        W82541  18.227  39.529   0.915
12661W        W82542  16.572  35.466  11.907
12662W        W82543  44.004  38.507   0.853
12663W        W82544  26.681  17.653  13.881
12664W        W82545  15.245  32.946  10.567
12665W        W82546   8.814  21.661   3.176
12666W        W82547   5.227  40.387  12.367
12667W        W82548  14.830   9.680  14.895
12668W        W82549  35.104  26.703  11.031
12669W        W82550  40.536  22.072   0.465
12670W        W82551   1.835   3.814  13.479
12671W        W82552  31.909  29.135  14.970
12672W        W82553  35.527  31.645   0.843
12673W        W82554  36.385  38.339   1.795
12674W        W82555  20.165  39.545  14.433
12675W        W82556  42.805  11.181   0.324
12676W        W82557   1.904  20.096  13.983
12677W        W82558  37.876  30.120  11.554
12678W        W82559  13.257   4.339   2.212
12679W        W82560  13.214  34.426   3.373
12680W        W82561  30.918  37.352  10.463
12681W        W82562  43.906  21.713   2.849
12682W        W82563  40.417   6.839  12.522
12683W        W82564  19.067  44.983  14.431
12684W        W82565  16.224   8.659  13.457
12685W        W82566   2.825  28.937  14.928
12686W        W82567   1.774  19.116   1.317
12687W        W82568  31.959  32.624   4.612
12688W        W82569  18.132  14.738   4.254
12689W        W82570   6.301   3.412   3.809
12690W        W82571   9.331   3.786  13.449
12691W        W82572  26.159  23.103  12.005
12692W        W82573  44.460  22.707   2.900
12693W        W82574  40.919   9.380  10.431
12694W        W82575  11.177  44.505   0.418
12695W        W82576  13.127  34.076   4.237
12696W        W82577   9.761  13.807  11.999
12697W        W82578  39.912   0.402   1.756
12698W        W82579  23.616  21.094   2.839
12699W        W82580  34.383  33.064  10.920
12700W        W82581   2.763  41.930  12.048
12701W        W82582  12.302  28.547  13.332
12702W        W82583  37.989  36.490   2.336
12703W        W82584  15.615  20.152   4.684
12704W        W82585  28.119  31.617   4.318
12705W        W82586  29.130  24.995  11.502
12706W        W82587  10.742  42.937   4.158
12707W        W82588  33.096  29.943   0.266
12708W        W82589  18.764  34.114  12.052
12709W        W82590  37.940  20.176   2.717
12710W        W82591  21.182   5.255   2.218
12711W        W82592  16.212  25.138   3.647
12712W        W82593  28.155  11.794  14.302
12713W        W82594  15.256   2.406  12.494
12714W        W82595  31.065  40.360  10.466
12715W        W82596  17.676  30.628  13.523
12716W        W82597  18.576  31.082   2.230
12717W        W82598  37.993  21.245   4.353
12718W        W82599   9.355  43.931   3.239
12719W        W82600   1.351  38.031   2.751
12720W        W82601  44.488   6.804   1.336
12721W        W82602   6.904  26.461   1.876
12722W        W82603  34.585  19.661   4.308
12723W        W82604  30.964  27.621  13.506
12724W        W82605  29.478  27.471   2.786
12725W        W82606  10.788  43.004  13.519
12726W        W82607  34.451  44.393  11.437
12727W        W82608  12.815  23.055  12.416
12728W        W82609  26.703  28.605   0.253
12729W        W82610   8.892  24.657   2.193
12730W        W82611  40.830  41.023  14.296
12731W        W82612  14.649   5.839  12.472
12732W        W82613  10.214  35.104   2.837
12733W        W82614  14.113  13.255   0.414
12734W        W82615  40.351   3.264  11.967
12735W        W82616   2.467  40.538  13.849
12736W        W82617  38.505  31.539   4.168
12737W        W82618  27.006  19.258  13.319
12738W        W82619  12.811  37.571   0.804
12739W        W82620   6.859  30.578   4.828
12740W        W82621   5.801  12.703  13.323
12741W        W82622   6.760  24.221   4.645
12742W        W82623   8.874  28.101   5.127
12743W        W82624   7.216  42.784   0.283
12744W        W82625   7.304  40.925  12.855
12745W        W82626  36.903  12.640   3.179
12746W        W82627   6.718  27.035   0.471
12747W        W82628  35.595   1.955   0.274
12748W        W82629  33.941  30.135   1.236
12749W        W82630  28.982  20.696  12.529
12750W        W82631   1.913  11.228  12.466
12751W        W82632   1.467   5.887  13.921
12752W        W82633  15.280  14.234   3.832
12753W        W82634   4.427  15.641   1.891
12754W        W82635  30.038  26.016  12.073
12755W        W82636  16.115  24.976   1.451
12756W        W82637  14.218  17.084   2.222
12757W        W82638  13.768  10.259  12.066
12758W        W82639  27.540  23.986   1.438
12759W        W82640   1.748  26.604  14.880
12760W        W82641  22.727   4.728   4.227
12761W        W82642   0.416  32.438  13.806
12762W        W82643  15.798  13.238   2.691
12763W        W82644  39.415  35.510   0.379
12764W        W82645  30.914  28.937   4.161
12765W        W82646   3.750  37.473   4.176
12766W        W82647  19.684   8.404   1.919
12767W        W82648  17.775  42.930  14.414
12768W        W82649  32.010  25.620   0.845
12769W        W82650  26.568  29.040   3.846
12770W        W82651  39.370  24.542  13.937
12771W        W82652  44.939   7.815  10.452
12772W        W82653  10.838  42.781  13.833
12773W        W82654  13.157   8.164   4.667
12774W        W82655  33.008   7.687  12.084
12775W        W82656  43.303   6.237  13.488
12776W        W82657  10.148  21.034  11.557
12777W        W82658  36.949   7.814   1.898
12778W        W82659  13.298  20.139   0.326
12779W        W82660  44.337  13.609   0.416
12780W        W82661   8.743   9.293   0.913
12781W        W82662  22.518  27.981   0.375
12782W        W82663  17.252  34.411   2.866
12783W        W82664  15.680   2.345  10.153
12784W        W82665  13.716  29.075  14.360
12785W        W82666  28.130  32.516  14.971
12786W        W82667  36.410  37.850  11.024
12787W        W82668  12.663   8.746   0.243
12788W        W82669  22.643  21.644   1.782
12789W        W82670  41.397  31.054  14.761
12790W        W82671  13.737  19.154  11.007
12791W        W82672  10.876  38.417   3.674
12792W        W82673  23.731  23.107   0.332
12793W        W82674  10.313  17.283  13.384
12794W        W82675  26.643  40.313  13.906
12795W        W82676   4.269  43.474   0.847
12796W        W82677  37.511  39.877   4.825
12797W        W82678  43.776  44.260  13.328
12798W        W82679  20.114  41.471  12.432
12799W        W82680  43.783   6.364   3.785
12800W        W82681  19.711   7.803  13.028
12801W        W82682  31.909  16.658  13.457
12802W        W82683  25.074   5.293  14.933
12803W        W82684   9.315  13.169  10.971
12804W        W82685  27.612  23.056   2.680
12805W        W82686   9.783  28.531  13.921
12806W        W82687  44.767   7.344  12.056
12807W        W82688  30.028  25.983  13.039
12808W        W82689  22.115  37.338   2.323
12809W        W82690   8.319  25.991   0.424
12810W        W82691  19.667   5.281  14.489
12811W        W82692  44.917   1.253  14.862
12812W        W82693  23.672  12.296  12.905
12813W        W82694  30.954   1.385   4.192
12814W        W82695  40.037  11.180  10.896
12815W        W82696  34.439  12.262   1.709
12816W        W82697  22.652  32.053   0.950
12817W        W82698  30.436  12.776  12.577
12818W        W82699   6.209  23.527   1.774
12819W        W82700  13.190  15.743  11.081
12820W        W82701  40.014  27.673  12.093
12821W        W82702  22.687  31.899   4.835
12822W        W82703  32.493  36.935   4.174
12823W        W82704  25.124  37.405   3.631
12824W        W82705  28.458  22.047  10.463
12825W        W82706  31.476  25.090   0.897
12826W        W82707   0.939  17.643   2.798
12827W        W82708  12.828   3.228  14.886
12828W        W82709  39.456  40.850   4.208
12829W        W82710  37.542  42.788   1.246
12830W        W82711  38.460  34.073   3.350
12831W        W82712  30.465  39.025   4.303
12832W        W82713  13.156  36.861   5.205
12833W        W82714  29.471  34.030   1.925
12834W        W82715  20.607  19.610  11.525
12835W        W82716   1.254  21.584   3.718
12836W        W82717   8.174  13.235   4.122
12837W        W82718  18.159  43.369  12.926
12838W        W82719  32.547  43.849   4.732
12839W        W82720  11.175  30.579   0.839
12840W        W82721   0.393  38.064   1.825
12841W        W82722  39.925  31.938   4.237
12842W        W82723  10.199  17.069  14.848
12843W        W82724  19.669  38.568   1.907
12844W        W82725  18.744  27.196  11.602
12845W        W82726  22.554  23.684  14.484
12846W        W82727  14.183  30.143   0.956
12847W        W82728  22.636  21.229  11.897
12848W        W82729  30.003  29.097  14.898
12849W        W82730  37.854  11.229   4.341
12850W        W82731  35.531   4.837  13.491
12851W        W82732   4.745  36.023  11.470
12852W        W82733  37.499  34.047  11.112
12853W        W82734  20.157   8.303  13.879
12854W        W82735  28.546   4.376   3.293
12855W        W82736  30.996  20.159   0.380
12856W        W82737  35.944  32.025  10.566
12857W        W82738  34.080  28.654  12.853
12858W        W82739  32.489  16.269   1.241
12859W        W82740  33.035  20.738  14.820
12860W        W82741  27.683  29.448  13.516
12861W        W82742   7.194  42.903   0.741
12862W        W82743  42.437  30.158  14.471
12863W        W82744  41.483  43.447   4.123
12864W        W82745   6.756   8.817  13.495
12865W        W82746   6.280  38.923  12.963
12866W        W82747   9.854  22.239  10.410
12867W        W82748  11.830  24.554   3.755
12868W        W82749  33.997  11.170  11.470
12869W        W82750  19.073  21.046  10.415
12870W        W82751   2.281  12.632   3.283
12871W        W82752  28.058   4.427  11.090
12872W        W82753  26.000  43.499  14.983
12873W        W82754  26.129  36.451   1.930
12874W        W82755  14.653   0.409   0.297
12875W        W82756  33.069  23.196  10.508
12876W        W82757  33.578  25.645  13.444
12877W        W82758  14.253  29.967  10.556
12878W        W82759  42.925  12.670  14.779
12879W        W82760  23.616  37.923  13.014
12880W        W82761  41.421   9.791  11.063
12881W        W82762   2.248   8.159  13.480
12882W        W82763  13.290  43.912   0.881
12883W        W82764  28.544  24.064  12.873
12884W        W82765   8.349  42.393  14.313
12885W        W82766  16.743   3.241   2.371
12886W        W82767   9.392  16.240  13.427
12887W        W82768  32.476  25.092  13.001
12888W        W82769   6.788  13.678  14.939
12889W        W82770  31.023  13.694   2.729
12890W        W82771  36.945   8.176   4.153
12891W        W82772  37.356   7.901  13.481
12892W        W82773  12.653  30.078  13.803
12893W        W82774   0.460  38.413  11.942
12894W        W82775   9.801  28.942  10.957
12895W        W82776  14.662  15.664   4.316
12896W        W82777  18.295  28.634   3.364
12897W        W82778  33.963  34.010   1.812
12898W        W82779  41.999  29.611   0.313
12899W        W82780   6.696  24.502   2.716
12900W        W82781  18.191  44.912   3.220
12901W        W82782  31.529   8.291   5.206
12902W        W82783  19.703  29.480   4.125
12903W        W82784   6.212  38.018   2.408
12904W        W82785  28.171  22.545   4.203
12905W        W82786  29.007  33.584  12.456
12906W        W82787  31.988   5.811  10.519
12907W        W82788   7.248   2.923   0.383
12908W        W82789  32.406  40.859   1.842
12909W        W82790  22.060  26.025   4.311
12910W        W82791  18.778  14.598   3.281
12911W        W82792  30.519  25.472  14.511
12912W        W82793  27.183  14.739   1.862
12913W        W82794   3.433  23.170  12.467
12914W        W82795  42.947  19.644  11.396
12915W        W82796  22.028  39.049  12.946
12916W        W82797  12.187  40.304   2.672
12917W        W82798  33.002  10.632  12.895
12918W        W82799  16.764   1.465   1.720
12919W        W82800  16.739  17.733   4.349
12920W        W82801   3.229  22.045  10.888
12921W        W82802  16.255  14.177  14.332
12922W        W82803  22.999  44.867  14.326
12923W        W82804  11.269   3.847   2.773
12924W        W82805   0.897   9.169  13.961
12925W        W82806  15.289  42.907   3.383
12926W        W82807  24.216  37.469   3.744
12927W        W82808  43.507   6.372   2.814
12928W        W82809  40.453   3.816   2.704
12929W        W82810  29.637   8.895   3.216
12930W        W82811  11.326  12.277  13.986
12931W        W82812  21.185   5.821  10.082
12932W        W82813  40.510  44.311   4.719
12933W        W82814  38.478  11.247  11.385
12934W        W82815  35.465  11.142  11.555
12935W        W82816  26.585  22.238   2.333
12936W        W82817   5.862  42.889   3.741
12937W        W82818  43.937  13.724   1.711
12938W        W82819  16.697  38.006   3.384
12939W        W82820  32.582  17.141  10.099
12940W        W82821  40.845   1.263  11.445
12941W        W82822  28.535  30.651  13.317
12942W        W82823  31.553  43.021   3.838
12943W        W82824  13.601  37.891   3.348
12944W        W82825   4.799  26.623  11.527
12945W        W82826  12.269  32.906   0.290
12946W        W82827  34.056  24.977   0.320
12947W        W82828  11.244  38.356   4.176
12948W        W82829   3.787   3.334   1.879
12949W        W82830   3.821  31.437   3.682
12950W        W82831  27.000  24.664   0.922
12951W        W82832   8.748  32.140  13.528
12952W        W82833  18.158  37.386   2.193
12953W        W82834  20.579  34.589   2.377
12954W        W82835  22.195  40.449   0.354
12955W        W82836  40.877  37.946   1.300
12956W        W82837   6.324  24.719   0.283
12957W        W82838  42.467  28.111   3.678
12958W        W82839  41.970   6.319   0.846
12959W        W82840  37.917  16.714  11.904
12960W        W82841  14.820  14.218  14.972
12961W        W82842  23.129  19.176   4.220
12962W        W82843  35.581  15.191  11.025
12963W        W82844  37.536   8.201  11.965
12964W        W82845  35.550  27.522  12.465
12965W        W82846   0.844  10.202  14.353
12966W        W82847   6.709  22.056  10.570
12967W        W82848  22.660  33.026  14.983
12968W        W82849  32.512  38.890  14.311
12969W        W82850   8.773  21.021  11.123
12970W        W82851  24.005   6.757  13.364
12971W        W82852   6.377  35.604  14.024
12972W        W82853  17.168  43.381  13.475
12973W        W82854  29.468  16.302   3.788
12974W        W82855  22.016  37.516   3.239
12975W        W82856  21.199   8.838   4.779
12976W        W82857  34.099  36.000   1.299
12977W        W82858  18.069  12.249  12.044
12978W        W82859  28.599   2.872  12.844
12979W        W82860  33.427  15.716   1.328
12980W        W82861  31.932  41.527  10.106
12981W        W82862   8.276  37.430   1.718
12982W        W82863  27.181   9.795   0.318
12983W        W82864  11.373   4.826  12.871
12984W        W82865  14.339  10.310  14.980
12985W        W82866  40.460   1.882  13.373
12986W        W82867  20.106  15.176  14.396
12987W        W82868   9.687   9.164  14.496
12988W        W82869  40.882  20.122   1.323
12989W        W82870  23.234  31.947   3.678
12990W        W82871  25.518  34.492  12.541
12991W        W82872  36.373   8.747  13.513
12992W        W82873  27.007  30.591   4.318
12993W        W82874  19.070  35.552   1.917
12994W        W82875   6.857  10.146   3.269
12995W        W82876  12.682  15.295   3.310
12996W        W82877  17.797   0.926  12.950
12997W        W82878  29.469  15.666   4.215
12998W        W82879  10.658  41.490  13.377
12999W        W82880  42.879   1.935  13.023
13000W        W82881  16.656  17.569   0.907
13001W        W82882  26.958  39.511  13.951
13002W        W82883   7.305   2.784  11.490
13003W        W82884  14.597  14.324  11.471
13004W        W82885  40.479   4.761  14.766
13005W        W82886  19.259  33.125   1.824
13006W        W82887  36.409   8.349   3.340
13007W        W82888  13.789   4.301  12.997
13008W        W82889  43.457  41.918   1.250
13009W        W82890   3.945   0.903  14.980
13010W        W82891  26.193  44.820   1.355
13011W        W82892  17.183  21.598  11.577
13012W        W82893  36.359  33.129   0.963
13013W        W82894  44.423   7.186   1.332
13014W        W82895  19.194  44.429  14.854
13015W        W82896  42.015   5.844   0.424
13016W        W82897  35.939  19.095  14.509
13017W        W82898   5.434  31.420   4.798
13018W        W82899  31.636  29.131  13.384
13019W        W82900  18.598  15.118  12.937
13020W        W82901  44.825  35.075  12.345
13021W        W82902  39.045  44.881   0.784
13022W        W82903  18.198  20.194  14.304
13023W        W82904  34.462  23.537  12.422
13024W        W82905  21.104  24.662   1.828
13025W        W82906  37.068  31.647   1.257
13026W        W82907  18.751  14.604  10.991
13027W        W82908   4.813  18.060  11.378
13028W        W82909  23.233   6.785   4.269
13029W        W82910  10.164  20.153   4.792
13030W        W82911  40.818  25.531  13.414
13031W        W82912  33.055  38.968   3.703
13032W        W82913  43.818  40.813  12.420
13033W        W82914  44.413  12.720  12.885
13034W        W82915   9.820   3.439  14.324
13035W        W82916   5.284  22.179  11.471
13036W        W82917  17.755  22.542  10.979
13037W        W82918  11.771  19.208  11.923
13038W        W82919  19.778  25.585  14.850
13039W        W82920  30.065  18.787  11.041
13040W        W82921  10.287  12.753  11.585
13041W        W82922  17.149   2.931   4.170
13042W        W82923   8.880  44.483  10.952
13043W        W82924  25.057  14.750   4.703
13044W        W82925   8.403  40.917  11.942
13045W        W82926   4.937  25.581  13.990
13046W        W82927   9.335  31.577   1.749
13047W        W82928  30.469  42.947  11.128
13048W        W82929  10.854  11.130  13.896
13049W        W82930  35.059  25.065   1.333
13050W        W82931  34.592   1.402   2.197
13051W        W82932  43.330  22.090   4.671
13052W        W82933  29.664  43.009   2.190
13053W        W82934  16.216  33.031   0.728
13054W        W82935  14.606  41.454  11.438
13055W        W82936  11.163  34.987  10.624
13056W        W82937   2.724   1.402   3.197
13057W        W82938  25.116   4.785  12.996
13058W        W82939   3.756   4.869  12.339
13059W        W82940  32.927  40.834   4.323
13060W        W82941  37.901   8.220  14.343
13061W        W82942  42.809  35.871   1.362
13062W        W82943   5.826  29.964   3.820
13063W        W82944  41.961   7.837   3.314
13064W        W82945  23.709  41.883  12.456
13065W        W82946   1.433  11.829   2.807
13066W        W82947  12.626  40.532   0.950
13067W        W82948  34.014  25.972   2.393
13068W        W82949  40.042  25.091   0.281
13069W        W82950  35.459  22.605  12.904
13070W        W82951  41.300   7.764   0.323
13071W        W82952  44.496  26.130  11.476
13072W        W82953  26.165  28.614   3.248
13073W        W82954   3.845   6.833  13.544
13074W        W82955  31.000  22.113   4.319
13075W        W82956  25.104   8.295  10.444
13076W        W82957  33.112  21.126   3.632
13077W        W82958   8.163  35.010  12.472
13078W        W82959   3.789  16.141   3.784
13079W        W82960   1.960  40.333   4.754
13080W        W82961  18.619  20.050  13.389
13081W        W82962  28.166  23.156  11.468
13082W        W82963  22.107  43.801  10.451
13083W        W82964  32.619  30.638   1.862
13084W        W82965  39.883  38.433  14.884
13085W        W82966  12.679  16.179  12.382
13086W        W82967  13.682  22.586   2.259
13087W        W82968   9.690  27.082   2.190
13088W        W82969   1.303  15.598   0.964
13089W        W82970  25.024  10.652   2.678
13090W        W82971   8.816  17.090  13.977
13091W        W82972  30.615   6.400   9.920
13092W        W82973  22.066  29.604   0.362
13093W        W82974  13.324   3.253   9.932
13094W        W82975  21.624  41.536  11.924
13095W        W82976  10.208  16.630   3.704
13096W        W82977  33.064   7.290  12.467
13097W        W82978  30.067  41.822   3.756
13098W        W82979  41.508  35.889   0.451
13099W        W82980  28.482  38.360  10.959
13100W        W82981  38.859  32.466   1.793
13101W        W82982  28.039  13.711  11.555
13102W        W82983  27.495  41.834   3.291
13103W        W82984  21.184  34.447   2.243
13104W        W82985  12.223  17.118   5.255
13105W        W82986  18.287  20.212   4.328
13106W        W82987  33.993  29.037   3.177
13107W        W82988  11.735  29.064   3.247
13108W        W82989  17.153  44.267   2.367
13109W        W82990  24.593   2.461  14.880
13110W        W82991  27.472   2.356  14.323
13111W        W82992  17.188  28.052  12.421
13112W        W82993  43.378  31.481   3.723
13113W        W82994  41.519  34.095  13.969
13114W        W82995  44.363  40.477  14.335
13115W        W82996  23.661  41.956   1.740
13116W        W82997  20.083  11.634   3.747
13117W        W82998   2.817   2.430  11.549
13118W        W82999   2.296  40.847   4.725
13119W        W83000  18.105  18.631   1.703
13120W        W83001   0.932   5.725   0.938
13121W        W83002   3.258   0.827   1.720
13122W        W83003   2.839  13.182   1.359
13123W        W83004  28.103   3.713  13.873
13124W        W83005   3.793   7.384   4.329
13125W        W83006  34.504  35.576  14.790
13126W        W83007  43.879  37.075   3.157
13127W        W83008  33.485   4.208   0.351
13128W        W83009   5.221  43.364  13.009
13129W        W83010  31.632  24.194  14.277
13130W        W83011  17.756  16.279  11.454
13131W        W83012  44.789  31.575   3.845
13132W        W83013  31.137  27.006   3.864
13133W        W83014  36.503  15.263   0.836
13134W        W83015  15.303  21.029  11.023
13135W        W83016  29.642  35.566   0.275
13136W        W83017  13.735  37.960   1.904
13137W        W83018   9.318  26.643  11.553
13138W        W83019  26.172  39.853  11.014
13139W        W83020  17.195  41.855  13.402
13140W        W83021  33.493  22.199   2.897
13141W        W83022  34.003  11.201   1.441
13142W        W83023  20.708  13.218  10.930
13143W        W83024  15.731  44.377   1.888
13144W        W83025  37.852  23.692   4.797
13145W        W83026  17.668  19.669   5.178
13146W        W83027  29.617  17.757  14.455
13147W        W83028  35.450  29.138  11.525
13148W        W83029  22.622  31.900   9.944
13149W        W83030  35.091   3.297   1.743
13150W        W83031  28.174   2.855  11.041
13151W        W83032  25.210  24.166   2.849
13152W        W83033  21.172  10.829   2.362
13153W        W83034  26.034  35.391   0.428
13154W        W83035  12.851  39.360  12.941
13155W        W83036  24.534  14.147   1.884
13156W        W83037  10.195  43.768  10.088
13157W        W83038  21.665  19.110   3.235
13158W        W83039  22.520  42.363  14.886
13159W        W83040  20.608  20.115   2.751
13160W        W83041   6.888   7.842   1.231
13161W        W83042  25.701   2.762  14.781
13162W        W83043  10.816  43.955   1.802
13163W        W83044  15.755   0.307   3.833
13164W        W83045  37.926  37.850  13.063
13165W        W83046  30.138   9.351  13.034
13166W        W83047  41.369   8.293  11.936
13167W        W83048  31.564  31.978  11.552
13168W        W83049   3.742  33.391   0.254
13169W        W83050  40.332  30.077   0.735
13170W        W83051   4.375   2.229  12.875
13171W        W83052  30.458   4.371  14.983
13172W        W83053  40.441   5.430  11.943
13173W        W83054  27.168   3.815  13.047
13174W        W83055  26.972  28.999   1.777
13175W        W83056  29.518  32.443   4.714
13176W        W83057   0.479  15.135  13.943
13177W        W83058  34.550  18.581  12.410
13178W        W83059  37.346  44.348   4.199
13179W        W83060  31.499  41.906   4.315
13180W        W83061  13.746  40.453   1.803
13181W        W83062  35.473   5.253  10.632
13182W        W83063  34.534  15.120  13.405
13183W        W83064  20.143  27.648   4.763
13184W        W83065   0.958  40.804  14.993
13185W        W83066   7.872   5.300  14.771
13186W        W83067   4.320  29.119   3.856
13187W        W83068  25.692  28.125   2.864
13188W        W83069  10.733  10.856   2.884
13189W        W83070  43.437   5.764  13.004
13190W        W83071   3.357   0.744   0.889
13191W        W83072  25.969   0.916  10.923
13192W        W83073  34.041  32.422  11.477
13193W        W83074  36.946  37.441   4.152
13194W        W83075   8.757  12.123  13.810
13195W        W83076  23.516  25.072  14.453
13196W        W83077  41.341  21.522  11.477
13197W        W83078  16.288   5.725   1.234
13198W        W83079  41.325  19.108   4.245
13199W        W83080  43.397   3.411   2.882
13200W        W83081  14.243   5.273   1.260
13201W        W83082  30.491  16.075  11.946
13202W        W83083  32.949  23.119  14.025
13203W        W83084  16.188  22.115  11.128
13204W        W83085  35.980  14.768  12.933
13205W        W83086  36.048  15.269  12.434
13206W        W83087  22.244  12.280  13.859
13207W        W83088  16.318   2.858   1.241
13208W        W83089   0.908  15.191  11.586
13209W        W83090  28.137  31.970   3.831
13210W        W83091  18.784  25.538  14.448
13211W        W83092  12.662  31.950   4.694
13212W        W83093  20.609  41.792   4.354
13213W        W83094  19.657  43.334  12.896
13214W        W83095  33.052  34.051  12.857
13215W        W83096  29.996  35.102   3.324
13216W        W83097  23.670   9.666   1.451
13217W        W83098   1.480  19.218  12.055
13218W        W83099   8.311  43.846  12.949
13219W        W83100  10.294   2.469  13.993
13220W        W83101  40.509  24.160   0.266
13221W        W83102  15.798  15.658   2.336
13222W        W83103   5.317  15.290  12.049
13223W        W83104  32.545  17.698   9.993
13224W        W83105  11.163  21.643  10.594
13225W        W83106  12.132  38.956  13.980
13226W        W83107  40.894  16.663  13.398
13227W        W83108  29.624  10.252  11.943
13228W        W83109  11.189  29.167   3.655
13229W        W83110   2.465  38.854   1.882
13230W        W83111  25.655  31.943   2.743
13231W        W83112  27.173   2.248   0.455
13232W        W83113  11.837  27.511   9.586
13233W        W83114  42.990  29.587  14.297
13234W        W83115  26.129  37.871  12.484
13235W        W83116  34.972  18.219   4.246
13236W        W83117  36.548  44.010  13.963
13237W        W83118   6.763  25.513  12.562
13238W        W83119  15.750  39.435   2.849
13239W        W83120  11.146   1.407  10.894
13240W        W83121  39.410  14.299   4.163
13241W        W83122   6.706   4.366   3.799
13242W        W83123  10.328  25.975   1.809
13243W        W83124  11.131   3.403  10.938
13244W        W83125   1.927  12.633  14.800
13245W        W83126  28.638  15.654   2.215
13246W        W83127  38.971   0.377   3.214
13247W        W83128   7.356  33.554   0.871
13248W        W83129   1.814   3.814   2.719
13249W        W83130  20.093  19.187  14.345
13250W        W83131  39.884  26.689   1.377
13251W        W83132  14.262  40.815   4.355
13252W        W83133  28.058   7.305   1.902
13253W        W83134  11.851  34.595   0.331
13254W        W83135  12.818   1.767   4.718
13255W        W83136  16.804  15.786   3.853
13256W        W83137  34.378  40.539   0.796
13257W        W83138  41.934   6.332   4.168
13258W        W83139  43.343  29.462   1.795
13259W        W83140  12.802   7.850  10.938
13260W        W83141  31.130  36.868  12.343
13261W        W83142  44.303  23.078   9.965
13262W        W83143  34.513  34.108  12.026
13263W        W83144   9.770  11.662  14.910
13264W        W83145  43.335  36.024   2.843
13265W        W83146   2.934  12.715   3.819
13266W        W83147  38.540  19.278   2.263
13267W        W83148  41.873  22.559  14.941
13268W        W83149  17.666  33.890   3.701
13269W        W83150  28.673  32.088  13.883
13270W        W83151  36.589  26.624  12.852
13271W        W83152  16.667  10.714   3.167
13272W        W83153  13.202  20.092  12.353
13273W        W83154   4.755  32.584   5.280
13274W        W83155  13.759  26.684   4.339
13275W        W83156   3.390  19.092  10.929
13276W        W83157  23.514   8.777   2.398
13277W        W83158  42.918  40.988  11.560
13278W        W83159   9.270  38.976   4.241
13279W        W83160  19.239   8.838  14.364
13280W        W83161   7.280  14.170  10.450
13281W        W83162  30.933  30.652   0.779
13282W        W83163  42.783   1.373  13.439
13283W        W83164  18.671  29.929   4.597
13284W        W83165  34.471  10.288   0.480
13285W        W83166  25.159  25.483  13.327
13286W        W83167  31.997  22.177  13.053
13287W        W83168  35.028  24.155   0.396
13288W        W83169  33.914  34.118   2.272
13289W        W83170  19.093  33.126  13.363
13290W        W83171  42.518  23.671  13.840
13291W        W83172  29.089   3.451  13.902
13292W        W83173  17.645  31.138   0.942
13293W        W83174  36.347  42.945  14.486
13294W        W83175  25.154  16.744   0.297
13295W        W83176  16.792  39.984  13.331
13296W        W83177  24.580  37.382   3.226
13297W        W83178  24.977  33.053  12.354
13298W        W83179  33.131   8.302  13.325
13299W        W83180  41.375  43.429   2.391
13300W        W83181  15.108   9.331  10.574
13301W        W83182  29.479  12.301   0.465
13302W        W83183  43.804  44.755   2.756
13303W        W83184  23.222   1.441   2.354
13304W        W83185  38.428  22.624  11.551
13305W        W83186  23.086  44.445   2.313
13306W        W83187  24.540  30.085   1.408
13307W        W83188  32.494  39.977   1.795
13308W        W83189  13.821  36.399  11.575
13309W        W83190  10.244   9.216   1.386
13310W        W83191  25.150  27.985  10.901
13311W        W83192  21.104   4.929   1.847
13312W        W83193   1.377  25.093   0.449
13313W        W83194  10.775  35.517  14.349
13314W        W83195  39.385  41.985   4.248
13315W        W83196   7.719  43.275   4.293
13316W        W83197  36.562   9.733   2.339
13317W        W83198   7.715   5.257   2.265
13318W        W83199  24.189  27.130  12.999
13319W        W83200  11.303  32.942   4.305
13320W        W83201  26.178  27.627   2.288
13321W        W83202  31.040  17.112  11.897
13322W        W83203  33.439  41.515   3.237
13323W        W83204   6.820  10.190  11.553
13324W        W83205  18.670  25.515   1.358
13325W        W83206  22.140  13.314  12.832
13326W        W83207  14.782  36.495   9.551
13327W        W83208  19.770  16.090   3.246
13328W        W83209   3.733  43.395   0.730
13329W        W83210  19.163  15.206   1.769
13330W        W83211  16.295  28.637   4.183
13331W        W83212   6.241  27.965  14.306
13332W        W83213  24.157  15.747  11.888
13333W        W83214  11.708  21.657  10.918
13334W        W83215  35.881  30.161   4.713
13335W        W83216  42.786  13.642  12.833
13336W        W83217  38.491  33.934  12.066
13337W        W83218   8.786  26.691   4.793
13338W        W83219   1.893  30.647   2.830
13339W        W83220  26.133  16.684  12.501
13340W        W83221   5.406  30.576   3.236
13341W        W83222  41.975   3.925   3.363
13342W        W83223   4.401  32.037  10.040
13343W        W83224  10.818   4.296   3.243
13344W        W83225  19.077  11.702   3.260
13345W        W83226  39.348  11.775   4.235
13346W        W83227   6.822  44.326  13.814
13347W        W83228   2.269  26.477  13.533
13348W        W83229  30.050  43.396  14.490
13349W        W83230   8.900  21.745  11.432
13350W        W83231  12.127  37.498  13.016
13351W        W83232  41.529   7.311   3.378
13352W        W83233  19.129  10.721  11.979
13353W        W83234  11.622  12.343  13.383
13354W        W83235  42.878  25.627   3.648
13355W        W83236  38.891  12.814  10.918
13356W        W83237  27.654  27.605  13.797
13357W        W83238  42.808  36.472  13.825
13358W        W83239  15.180   7.324   3.734
13359W        W83240  12.230   3.896  11.059
13360W        W83241   6.351   0.813  11.498
13361W        W83242   3.393  27.084   4.283
13362W        W83243  42.470  14.260   0.291
13363W        W83244  11.370  14.643  13.349
13364W        W83245  10.365  42.835   2.261
13365W        W83246  29.504  14.667   2.364
13366W        W83247   9.804   5.789   1.811
13367W        W83248  11.281  29.426  11.420
13368W        W83249  36.885   7.359   0.326
13369W        W83250  11.820   5.208   4.138
13370W        W83251  22.542  43.510  14.497
13371W        W83252   5.711  22.135  13.487
13372W        W83253  21.240   2.343  10.568
13373W        W83254  16.812  16.141   3.344
13374W        W83255  17.556  24.082  13.528
13375W        W83256   7.840   7.741   4.752
13376W        W83257  14.650  42.820  13.988
13377W        W83258  42.795   1.420  11.902
13378W        W83259   2.230   4.246  10.518
13379W        W83260  38.356  31.126  11.482
13380W        W83261   7.838  42.317   2.759
13381W        W83262  30.650  41.023  13.027
13382W        W83263  32.060  29.970  14.898
13383W        W83264  21.735  36.347  14.927
13384W        W83265  12.691  18.635   3.244
13385W        W83266  21.696  30.569  10.419
13386W        W83267  28.185  23.149   2.756
13387W        W83268   0.343  18.183   1.835
13388W        W83269   3.266  41.790  12.560
13389W        W83270  12.822  19.646  11.594
13390W        W83271  33.077  37.974   4.151
13391W        W83272  30.469   6.724  10.465
13392W        W83273  32.044  18.157   1.260
13393W        W83274  39.817   4.443  13.968
13394W        W83275  20.043  22.250   0.903
13395W        W83276  29.947  42.489   0.902
13396W        W83277   3.354  31.141   5.301
13397W        W83278   5.856   8.809  11.520
13398W        W83279  38.902  11.163   2.753
13399W        W83280   7.245  43.348   3.645
13400W        W83281  14.787  18.760   3.160
13401W        W83282  39.370  23.561   1.850
13402W        W83283  31.021  41.787   0.801
13403W        W83284  31.636  30.978  14.861
13404W        W83285   2.886  27.079  10.577
13405W        W83286   4.378  30.547   3.344
13406W        W83287   6.795  38.842   2.266
13407W        W83288   3.950   4.443  11.600
13408W        W83289  16.226  40.394  14.909
13409W        W83290  39.505  43.886  13.884
13410W        W83291  34.969  16.107   3.773
13411W        W83292  40.007  18.730  12.841
13412W        W83293  13.162  20.074  11.067
13413W        W83294   7.293  23.135   4.202
13414W        W83295  32.480  21.214  12.083
13415W        W83296  26.100   0.454   3.669
13416W        W83297  25.154   3.761   3.732
13417W        W83298  35.415  18.545  11.002
13418W        W83299   3.866  17.235  10.537
13419W        W83300  19.277   3.324  10.424
13420W        W83301   7.212  18.761   3.832
13421W        W83302   5.324  35.508   4.172
13422W        W83303  35.452  43.809   2.776
13423W        W83304   2.425   0.255   1.336
13424W        W83305  25.096  21.512   4.729
13425W        W83306  21.696  38.978  10.429
13426W        W83307  32.138  39.825   1.823
13427W        W83308  25.563   4.333   3.284
13428W        W83309  12.257  25.080   1.752
13429W        W83310  17.760   2.781  13.862
13430W        W83311  10.248  16.625   3.195
13431W        W83312  28.120  29.974   2.825
13432W        W83313  29.447  43.407  13.849
13433W        W83314  12.251  20.106  14.932
13434W        W83315  10.645   6.694   2.775
13435W        W83316  18.684   7.696  11.527
13436W        W83317   6.183  43.334   0.396
13437W        W83318  12.745  20.170  14.343
13438W        W83319  38.917  29.604  11.593
13439W        W83320  14.720  36.566  12.535
13440W        W83321  44.958  20.154   0.432
13441W        W83322   8.370  44.772   4.789
13442W        W83323   7.767   1.916   3.199
13443W        W83324  44.904  10.812  14.991
13444W        W83325  36.044  17.683   2.399
13445W        W83326   3.453  37.581   2.667
13446W        W83327  32.580  34.046  11.925
13447W        W83328  16.659  26.676   4.637
13448W        W83329  27.684  30.419   4.624
13449W        W83330  16.634  11.229  12.405
13450W        W83331  43.290  15.145  13.511
13451W        W83332  12.164  15.776  12.022
13452W        W83333  18.287  29.085  11.899
13453W        W83334   2.403  28.650   3.365
13454W        W83335  23.186   4.806   0.776
13455W        W83336  34.464  25.538  14.452
13456W        W83337   8.658   6.791   1.715
13457W        W83338  17.289  43.991  13.816
13458W        W83339  37.546  35.421  13.528
13459W        W83340  40.815  30.482   0.751
13460W        W83341  40.527  27.652  11.480
13461W        W83342   1.946  42.383  13.943
13462W        W83343  41.938  34.439   1.742
13463W        W83344  29.438  36.043  14.406
13464W        W83345  16.275  31.546   2.391
13465W        W83346   3.347  40.908  14.465
13466W        W83347   9.158  14.819  10.454
13467W        W83348   8.248  35.582   1.300
13468W        W83349  23.726  42.316   2.700
13469W        W83350  27.690  27.471   4.250
13470W        W83351  37.907  14.191   2.715
13471W        W83352  12.207  36.010  13.471
13472W        W83353  25.073  22.086  14.958
13473W        W83354  44.826  37.980   3.221
13474W        W83355  41.416  31.136   2.419
13475W        W83356  37.503  21.576   2.739
13476W        W83357   0.864  19.129   1.242
13477W        W83358  34.547  42.283   0.299
13478W        W83359  13.788   9.339   2.330
13479W        W83360  26.522   5.311   3.291
13480W        W83361  27.576  20.051  13.034
13481W        W83362   6.733  14.598  13.532
13482W        W83363   1.937   4.323  14.940
13483W        W83364  40.430  17.074   1.772
13484W        W83365   7.818  10.229  11.913
13485W        W83366   9.824  24.587   0.923
13486W        W83367   1.968  28.055   0.830
13487W        W83368  35.001   1.889   4.739
13488W        W83369  31.114   7.390  11.123
13489W        W83370  15.109  30.964  10.523
13490W        W83371  15.579  33.023  13.897
13491W        W83372   2.231  32.482   4.308
13492W        W83373  39.860  34.460  12.991
13493W        W83374  32.573   2.766   3.237
13494W        W83375  26.131  16.263   1.788
13495W        W83376  14.138   3.905  10.594
13496W        W83377  14.262  36.432   9.975
13497W        W83378  19.223  35.971   4.755
13498W        W83379  37.869  42.394   0.277
13499W        W83380  23.986  43.898   2.863
13500W        W83381   4.710  24.619   1.304
13501W        W83382   8.663   0.872   4.642
13502W        W83383  18.785   6.351   0.321
13503W        W83384  31.488   7.204   3.375
13504W        W83385  15.195  13.268  13.973
13505W        W83386  42.353  16.645   2.356
13506W        W83387  41.859  24.660   1.852
13507W        W83388  42.871  38.351  10.411
13508W        W83389  42.526  40.470   3.316
13509W        W83390  32.549   8.217   0.819
13510W        W83391  25.601  35.030  14.290
13511W        W83392  33.979  26.079   0.891
13512W        W83393   8.666   3.812  14.982
13513W        W83394   6.819  42.370   2.843
13514W        W83395  38.911  18.105  10.405
13515W        W83396   7.392  20.241  14.021
13516W        W83397  27.656  23.182   1.771
13517W        W83398  13.222  42.946  12.988
13518W        W83399  30.600  28.029   4.179
13519W        W83400   4.834  30.456   2.747
13520W        W83401  29.563  19.597  12.360
13521W        W83402   1.743  43.832  11.058
13522W        W83403  37.991  19.578   5.262
13523W        W83404  41.818   9.217  14.029
13524W        W83405  34.574  15.168   0.323
13525W        W83406   0.751  31.004   3.261
13526W        W83407   3.894  25.115   1.857
13527W        W83408  33.048  26.039   0.803
13528W        W83409  14.315  13.726  12.377
13529W        W83410  23.200  41.401  13.810
13530W        W83411   7.214  25.179  14.017
13531W        W83412  14.314  26.162  14.828
13532W        W83413  25.966  37.840   0.457
13533W        W83414  13.708  24.156  13.500
13534W        W83415  36.977   6.411  12.005
13535W        W83416   2.779  18.133  10.485
13536W        W83417  15.624  30.465   0.937
13537W        W83418   3.461  26.540  13.548
13538W        W83419  13.218   8.813  10.607
13539W        W83420  28.659  34.405   4.160
13540W        W83421  11.815   0.308  11.590
13541W        W83422  36.976  41.014   0.442
13542W        W83423  13.738  25.634  11.040
13543W        W83424  42.966  43.893   0.811
13544W        W83425  37.578  13.616   4.622
13545W        W83426  16.102  23.676   2.375
13546W        W83427   1.920  20.036  10.573
13547W        W83428  42.480  32.409   3.703
13548W        W83429  15.176   0.395   0.756
13549W        W83430   3.224  32.559  11.122
13550W        W83431   1.740   3.800  13.060
13551W        W83432  15.637  40.977   4.606
13552W        W83433  30.024   5.296   4.193
13553W        W83434  12.277  39.891  10.543
13554W        W83435   1.295   2.303   4.316
13555W        W83436   5.703   9.286   4.771
13556W        W83437  10.225  40.351   4.600
13557W        W83438  35.052  37.832   2.885
13558W        W83439  33.555  28.162   3.795
13559W        W83440   0.369  27.082  11.120
13560W        W83441  29.480  27.671   1.306
13561W        W83442  11.353  19.204   9.998
13562W        W83443  32.443  33.453   0.333
13563W        W83444  26.140  34.948   0.250
13564W        W83445  19.265  13.778   4.205
13565W        W83446  12.659  33.512  13.442
13566W        W83447  20.062  32.991   3.357
13567W        W83448  16.168  18.187   1.285
13568W        W83449  18.764  35.917  10.440
13569W        W83450  38.507  17.692   3.803
13570W        W83451  36.869  12.305   2.364
13571W        W83452   6.713   3.223   0.465
13572W        W83453   5.337  42.848  12.459
13573W        W83454  36.389   3.401   9.981
13574W        W83455  28.186  27.466  11.500
13575W        W83456  17.670  16.295   4.664
13576W        W83457  29.507  10.654  14.016
13577W        W83458  22.120  16.265  14.797
13578W        W83459  34.055  37.934   2.726
13579W        W83460  33.492  23.663  13.817
13580W        W83461  15.085   5.289  14.367
13581W        W83462  33.082  36.367  13.887
13582W        W83463  15.329   6.686  13.018
13583W        W83464  21.044  38.870   4.600
13584W        W83465  12.652  13.276   0.756
13585W        W83466  37.384  11.189   1.763
13586W        W83467  44.333  34.417   4.688
13587W        W83468   4.930  44.881   2.282
13588W        W83469  28.956  36.850  14.945
13589W        W83470  33.542  20.766   1.392
13590W        W83471  42.815  30.450  13.495
13591W        W83472  34.946  21.622   3.318
13592W        W83473  24.219  18.176   1.254
13593W        W83474  18.147  44.365   1.428
13594W        W83475  42.374  25.630  12.871
13595W        W83476   5.823  11.855  13.825
13596W        W83477  18.290  28.041   1.323
13597W        W83478  27.574  12.798   0.289
13598W        W83479  23.494   1.250  10.479
13599W        W83480  17.729  40.897   1.245
13600W        W83481  44.505  23.576  14.918
13601W        W83482  23.202   9.824  14.807
13602W        W83483  35.363  40.303  11.425
13603W        W83484  22.732  11.668  13.375
13604W        W83485  20.258  17.728  11.591
13605W        W83486  22.745  17.206  11.121
13606W        W83487  26.952  43.269  12.576
13607W        W83488  15.615  32.018   1.432
13608W        W83489  20.195   0.786   1.445
13609W        W83490  15.171  42.955  14.283
13610W        W83491  38.332  23.663   4.823
13611W        W83492  30.528  28.021   4.721
13612W        W83493  26.992  23.049   4.149
13613W        W83494  24.695  41.814  11.868
13614W        W83495  18.610  39.347  11.494
13615W        W83496  33.512  36.553   2.253
13616W        W83497   6.850  24.556   1.928
13617W        W83498  25.204   7.225   1.839
13618W        W83499  21.101  27.080  13.411
13619W        W83500   9.210  40.938  10.503
13620W        W83501  28.545  28.180  13.538
13621W        W83502  13.689  31.521   4.804
13622W        W83503   3.295  36.541   1.830
13623W        W83504  17.582  27.173  10.495
13624W        W83505   9.327  11.330  12.540
13625W        W83506  19.212  44.479   5.760
13626W        W83507   8.212  44.815  14.911
13627W        W83508   2.745  22.516   4.327
13628W        W83509  41.467  26.667   3.761
13629W        W83510  32.055  37.578   1.890
13630W        W83511  39.020  26.020   3.701
13631W        W83512  27.094  25.614  11.986
13632W        W83513   2.245  10.305   4.718
13633W        W83514  30.055  43.977  13.373
13634W        W83515  41.872  36.460  13.996
13635W        W83516  12.213  25.162   3.854
13636W        W83517  37.056  24.568  14.511
13637W        W83518  31.024  28.645  11.521
13638W        W83519  43.429  31.459   0.414
13639W        W83520  30.086  16.587   2.859
13640W        W83521   9.856   6.346  13.542
13641W        W83522  17.173  19.164  10.070
13642W        W83523  21.712  13.186   1.908
13643W        W83524  14.643   0.796  10.431
13644W        W83525  34.878  23.554  11.943
13645W        W83526  39.000   7.382   0.943
13646W        W83527  16.266  13.654  14.463
13647W        W83528   2.788  12.854   2.364
13648W        W83529  21.698  25.967  12.401
13649W        W83530  44.794   6.831  10.535
13650W        W83531  36.090  19.185   4.259
13651W        W83532  14.248   8.874   1.217
13652W        W83533   1.747  41.909   0.271
13653W        W83534  28.176   0.968  13.334
13654W        W83535  18.553  43.820   0.333
13655W        W83536  25.012  36.581   2.356
13656W        W83537  13.247  15.770  14.854
13657W        W83538   7.218  34.116   4.771
13658W        W83539  31.086   7.324   0.365
13659W        W83540   8.835  40.888  11.419
13660W        W83541  35.512  16.726  10.592
13661W        W83542  32.063   3.931   4.230
13662W        W83543  33.901  12.270  10.950
13663W        W83544   3.841  29.653   4.113
13664W        W83545  15.216  29.980  14.490
13665W        W83546  11.236   8.733   0.346
13666W        W83547  20.233   1.265  10.511
13667W        W83548   2.803  23.186  13.943
13668W        W83549  42.441  19.146   3.333
13669W        W83550  12.231  35.884   1.868
13670W        W83551  39.873  19.729   3.166
13671W        W83552  19.670  20.216   1.277
13672W        W83553  13.766  24.654   0.425
13673W        W83554   9.889  11.663   0.374
13674W        W83555  19.196  21.112   4.323
13675W        W83556  15.300  37.069  10.077
13676W        W83557  25.037  43.964  11.586
13677W        W83558  41.835  15.638   2.758
13678W        W83559  18.667  44.359  13.922
13679W        W83560  28.572  38.025   4.636
13680W        W83561  17.578  21.715  14.768
13681W        W83562  20.237  44.355  14.775
13682W        W83563  38.925  10.649   4.221
13683W        W83564  21.134  42.377  14.969
13684W        W83565  36.022  16.129   3.246
13685W        W83566   8.273   2.925  14.997
13686W        W83567   1.476   6.896  10.918
13687W        W83568  23.055  15.252   3.706
13688W        W83569  29.489  13.251   0.749
13689W        W83570  26.975  15.690   0.467
13690W        W83571   9.286  21.126  13.379
13691W        W83572  13.713  15.099   4.132
13692W        W83573  42.877  18.626   0.743
13693W        W83574  37.572  18.256  11.876
13694W        W83575   6.312  31.003   3.269
13695W        W83576  22.565   0.784  10.039
13696W        W83577  25.475  42.502   0.384
13697W        W83578  18.263   1.397  13.845
13698W        W83579  16.153  19.122  14.481
13699W        W83580  37.051  20.179   3.812
13700W        W83581  13.159  37.486  10.485
13701W        W83582  43.381  25.012   4.173
13702W        W83583  41.857  22.056   4.115
13703W        W83584  13.694  41.042  12.910
13704W        W83585  36.872  22.583   1.211
13705W        W83586   1.763  44.962  14.976
13706W        W83587  24.117  25.486  13.476
13707W        W83588  29.998  34.511   4.347
13708W        W83589  15.097  30.044  14.813
13709W        W83590  34.028   9.376   2.223
13710W        W83591  28.526  33.024  12.479
13711W        W83592   2.445  37.576  13.357
13712W        W83593  26.097  23.630   1.796
13713W        W83594  22.702  20.741   2.866
13714W        W83595  41.347   2.788  13.056
13715W        W83596  12.660  33.916  13.870
13716W        W83597   1.408  10.140   1.303
13717W        W83598  14.755  27.536   2.184
13718W        W83599  40.484   8.729  12.352
13719W        W83600  30.128  11.672  14.320
13720W        W83601  37.562  25.570   4.789
13721W        W83602  44.503  20.640  13.519
13722W        W83603  29.447  26.539  14.357
13723W        W83604  26.469   2.436   0.961
13724W        W83605  34.454  22.507   0.942
13725W        W83606  12.123  28.972   3.780
13726W        W83607  23.986   1.444   2.294
13727W        W83608   5.200  10.371  14.452
13728W        W83609  42.831   6.256   3.263
13729W        W83610   6.898  21.530  11.474
13730W        W83611  13.131  20.769  14.813
13731W        W83612  25.031  44.979  11.553
13732W        W83613  17.729  25.023  12.572
13733W        W83614  11.289  12.795  10.478
13734W        W83615  34.587   0.769  14.316
13735W        W83616  14.764  38.480  10.507
13736W        W83617   6.897  20.052  14.500
13737W        W83618  11.853  40.804   4.167
13738W        W83619  11.305  35.006   3.827
13739W        W83620  11.667  23.643  12.066
13740W        W83621   0.889   4.433  14.440
13741W        W83622  14.129  16.776   3.177
13742W        W83623  28.633  43.374   3.203
13743W        W83624  41.814  17.704  13.440
13744W        W83625  34.533  35.403  13.867
13745W        W83626  17.640  22.150   3.701
13746W        W83627   8.678   0.757  13.498
13747W        W83628   3.906  31.574  11.531
13748W        W83629  13.347   0.300   1.267
13749W        W83630  28.495   8.759   2.894
13750W        W83631  35.969  27.183  14.778
13751W        W83632  19.641   4.376   2.771
13752W        W83633  26.503  13.136   2.794
13753W        W83634  27.581  13.185   1.879
13754W        W83635   6.739  21.675  13.828
13755W        W83636  30.516  26.156  12.524
13756W        W83637  37.915  10.371  10.976
13757W        W83638  20.063  32.468  11.938
13758W        W83639  33.018   7.696   1.369
13759W        W83640  42.917  38.001  10.494
13760W        W83641  39.504  15.299   3.856
13761W        W83642  44.503  26.539   5.171
13762W        W83643  20.734  22.521  10.644
13763W        W83644  39.828  32.599   3.860
13764W        W83645  37.391  37.000   3.361
13765W        W83646  42.415  29.502  11.943
13766W        W83647  42.470  25.500  12.482
13767W        W83648  32.462  24.201  13.880
13768W        W83649  12.356   0.786  10.579
13769W        W83650   9.818  26.134   1.763
13770W        W83651  31.114  30.529  11.054
13771W        W83652  40.404  41.485   3.286
13772W        W83653  40.913  40.421  11.453
13773W        W83654   6.345  27.517  11.471
13774W        W83655  19.250  25.219   4.201
13775W        W83656  13.645  14.195  11.378
13776W        W83657  11.721   0.918  14.815
13777W        W83658  33.121   4.882  12.957
13778W        W83659  44.418   7.818   0.327
13779W        W83660  28.953  21.175   1.769
13780W        W83661   3.407  37.422  10.931
13781W        W83662  42.882  34.587   1.720
13782W        W83663  18.284  36.453  14.825
13783W        W83664  33.626  25.488  10.888
13784W        W83665  24.006   7.670   1.750
13785W        W83666  28.946  36.480   1.218
13786W        W83667  16.707   4.891   4.282
13787W        W83668  17.759  27.568   2.252
13788W        W83669  12.202  29.638   4.716
13789W        W83670  23.138  26.697   4.276
13790W        W83671  32.527  25.657  13.475
13791W        W83672  28.175  39.044  12.355
13792W        W83673  38.330  32.634   1.769
13793W        W83674  25.968  12.671   4.814
13794W        W83675  37.013  21.023   4.677
13795W        W83676  21.642   8.401   0.924
13796W        W83677   9.737  32.495  12.572
13797W        W83678  34.010   3.253  13.491
13798W        W83679  16.797  29.644   0.786
13799W        W83680  22.576   5.812   2.775
13800W        W83681  10.355  38.001   2.827
13801W        W83682  18.627  42.443   1.798
13802W        W83683  23.084  28.582  12.853
13803W        W83684  29.482   9.238  12.509
13804W        W83685  39.899  23.704  13.062
13805W        W83686   8.812  43.344  11.921
13806W        W83687  16.199  43.442   0.466
13807W        W83688  42.288   5.422  10.404
13808W        W83689   8.195   7.761   4.833
13809W        W83690   5.267  13.673  11.408
13810W        W83691  15.164  31.090  12.431
13811W        W83692  20.244  31.028   5.136
13812W        W83693  22.154  14.622   2.331
13813W        W83694  39.912  11.635  10.928
13814W        W83695  40.816  35.885  13.987
13815W        W83696  34.614  40.932  11.572
13816W        W83697   6.348   2.455   4.648
13817W        W83698  15.120  25.030  14.315
13818W        W83699   0.462  43.830  11.970
13819W        W83700  16.238   1.932  14.994
13820W        W83701  12.832  38.995   1.280
13821W        W83702   7.212   4.384  14.964
13822W        W83703  35.032   5.394   0.338
13823W        W83704  16.603  15.638  14.326
13824W        W83705  13.277  21.571  12.444
13825W        W83706  24.680  35.448   4.759
13826W        W83707   3.832  32.915   1.218
13827W        W83708  37.925  22.715  14.880
13828W        W83709  20.566  40.390  12.383
13829W        W83710  29.968  10.827  14.512
13830W        W83711  20.214  12.284  11.506
13831W        W83712  15.606  12.158   3.656
13832W        W83713   0.787  37.364  12.349
13833W        W83714  40.833   1.383  10.566
13834W        W83715  18.071  16.744   0.798
13835W        W83716  44.265  12.123   2.865
13836W        W83717   3.898   2.951   1.873
13837W        W83718   1.291  26.052   4.706
13838W        W83719  43.959  37.032  11.423
13839W        W83720  18.600   0.292   1.729
13840W        W83721  30.933   0.472  12.019
13841W        W83722   8.847  20.259  12.401
13842W        W83723  20.142  19.109   0.964
13843W        W83724   4.728  17.103   0.257
13844W        W83725  22.233  26.196  14.985
13845W        W83726  12.225  16.619  14.452
13846W        W83727  17.734  33.067   1.819
13847W        W83728  37.512  22.022  10.580
13848W        W83729  24.508  11.649   3.263
13849W        W83730  32.463  18.176   0.782
13850W        W83731   9.204  26.089   0.291
13851W        W83732  14.135   8.708  12.508
13852W        W83733   3.939  28.006   3.735
13853W        W83734  13.845  25.112   0.475
13854W        W83735   8.292  37.406  10.117
13855W        W83736  14.147   0.854  11.079
13856W        W83737  35.878  39.816  13.413
13857W        W83738  30.426   6.792  13.514
13858W        W83739   1.328  18.743  10.938
13859W        W83740  13.748   6.897  13.047
13860W        W83741  42.858  15.800   1.865
13861W        W83742  18.791   8.258  13.433
13862W        W83743  32.496  39.413  13.455
13863W        W83744  21.020  43.843   4.770
13864W        W83745  11.201  38.454   1.447
13865W        W83746  31.463   0.912   0.340
13866W        W83747   8.767   9.212   4.185
13867W        W83748  17.579  23.548   1.731
13868W        W83749   6.922  27.624  14.507
13869W        W83750  11.718  19.256   4.807
13870W        W83751   8.700   8.801  10.577
13871W        W83752  20.663   8.174  13.939
13872W        W83753   9.871  31.054  13.325
13873W        W83754  41.460   9.252  11.939
13874W        W83755   2.948  40.939   3.293
13875W        W83756  20.229  42.502   2.314
13876W        W83757  23.516  30.985   3.805
13877W        W83758  44.339  31.955   2.781
13878W        W83759  16.637  20.681   1.866
13879W        W83760  13.600  28.540   1.851
13880W        W83761   0.770  16.203  12.530
13881W        W83762  41.932  44.466  10.062
13882W        W83763  25.648  18.254  10.625
13883W        W83764  37.033  25.129  12.036
13884W        W83765   7.191  29.533   0.956
13885W        W83766  26.680  27.102  12.462
13886W        W83767  18.567   9.788   0.246
13887W        W83768  39.977  30.624  14.326
13888W        W83769  26.679  27.452   1.861
13889W        W83770  28.989  40.352  11.970
13890W        W83771   3.238  16.174   4.122
13891W        W83772  14.162  19.103  12.485
13892W        W83773  10.216  19.054  14.791
13893W        W83774  44.929  27.182   3.656
13894W        W83775  31.522  13.787  11.432
13895W        W83776  43.444  15.185   2.834
13896W        W83777  31.593  35.016   3.286
13897W        W83778   4.250   4.256   4.716
13898W        W83779  24.008  26.115   2.324
13899W        W83780  15.252   4.399   0.758
13900W        W83781  42.300   8.243   2.377
13901W        W83782   8.160  27.116  12.447
13902W        W83783  33.927   5.837   3.831
13903W        W83784  42.427  24.202  13.423
13904W        W83785   8.721  22.567   4.638
13905W        W83786  17.065  37.419   0.778
13906W        W83787  34.011  28.561  14.856
13907W        W83788   1.935  36.885   3.720
13908W        W83789  17.282  42.978   5.222
13909W        W83790   9.648  17.266  13.871
13910W        W83791  20.051  25.699  12.913
13911W        W83792  17.177   8.397   1.758
13912W        W83793   9.341   1.436   3.840
13913W        W83794   8.747  28.567   3.350
13914W        W83795  15.251  17.762  13.037
13915W        W83796  33.394  14.249  11.417
13916W        W83797   0.829  13.244  14.402
13917W        W83798  11.832  32.900  12.377
13918W        W83799  42.331  11.148   0.862
13919W        W83800  32.485  12.126  11.068
13920W        W83801  38.555  43.437  12.455
13921W        W83802  18.652  19.690   3.654
13922W        W83803  14.710  43.899   3.268
13923W        W83804  30.047   8.661   5.771
13924W        W83805  44.420  18.681  11.930
13925W        W83806  25.471  30.599  11.941
13926W        W83807  10.861  41.470   4.599
13927W        W83808  16.153  36.469  12.041
13928W        W83809  33.411  15.683   5.252
13929W        W83810  39.493  36.920  13.539
13930W        W83811  20.037  39.329   3.199
13931W        W83812  24.505  20.625  10.545
13932W        W83813  19.594  26.583   1.396
13933W        W83814  35.462  25.054  12.504
13934W        W83815  20.214   8.163  11.415
13935W        W83816  39.998   8.740   2.878
13936W        W83817   6.338   8.853   4.730
13937W        W83818  22.195  13.197  11.111
13938W        W83819  20.074  11.866  11.451
13939W        W83820   2.765  30.013  13.838
13940W        W83821   8.679  27.586   0.769
13941W        W83822  36.401  32.484   3.260
13942W        W83823  26.182  37.026  11.460
13943W        W83824  43.379  40.319   3.290
13944W        W83825  25.581   0.445  14.901
13945W        W83826  26.089  19.111  14.415
13946W        W83827  28.104  18.546  12.922
13947W        W83828   1.330  29.487   4.190
13948W        W83829   6.713  26.632   0.291
13949W        W83830  19.265  42.882   4.818
13950W        W83831  42.804  34.402  13.989
13951W        W83832  27.621  34.939  11.082
13952W        W83833  13.623  18.677   0.839
13953W        W83834  25.646   2.335   4.681
13954W        W83835   5.358  19.580  13.515
13955W        W83836  44.383  12.812  12.015
13956W        W83837   7.357  17.645   0.362
13957W        W83838  39.848  10.206  12.063
13958W        W83839  30.130  22.132   1.779
13959W        W83840  12.643  32.494  11.485
13960W        W83841   4.212   6.211  12.362
13961W        W83842   4.339  23.201   0.268
13962W        W83843  38.963  30.963  12.395
13963W        W83844  40.973  19.548   0.429
13964W        W83845  15.216  37.078   2.289
13965W        W83846  39.932  18.270  13.959
13966W        W83847  29.050  29.088   3.723
13967W        W83848   4.873  36.867  12.557
13968W        W83849  23.051  29.161  10.573
13969W        W83850  14.668  26.461  13.046
13970W        W83851   4.322  38.381   3.660
13971W        W83852   5.854  16.313   4.714
13972W        W83853  29.639  24.024  11.478
13973W        W83854  22.675  13.648  14.854
13974W        W83855  35.364  41.853  14.388
13975W        W83856   1.381   1.244  13.897
13976W        W83857  39.324  16.234   2.759
13977W        W83858  14.652  13.307  13.799
13978W        W83859   0.860   5.807  11.467
13979W        W83860   3.910  19.653   5.194
13980W        W83861   4.939  20.091   0.840
13981W        W83862  34.388  43.386   4.658
13982W        W83863  29.970  12.746   2.727
13983W        W83864  44.339  22.517  12.472
13984W        W83865  38.544  18.775   2.391
13985W        W83866  35.864  44.860   5.316
13986W        W83867   6.311  21.551   0.277
13987W        W83868  13.124  14.122   2.782
13988W        W83869  27.042  27.513   0.845
13989W        W83870  21.614  25.106  11.877
13990W        W83871  39.531   7.237  13.313
13991W        W83872  13.713  33.547  12.008
13992W        W83873  15.681  11.234  12.961
13993W        W83874   6.824  35.457  11.892
13994W        W83875  29.598   4.285  11.872
13995W        W83876  36.904  10.378   4.660
13996W        W83877  37.508  44.821  13.458
13997W        W83878  21.520  41.863  14.941
13998W        W83879  11.357  20.604  14.462
13999W        W83880  32.909  27.045   0.385
14000W        W83881  30.507   3.902   3.285
14001W        W83882  10.819   5.922   3.272
14002W        W83883  25.996  23.188  13.399
14003W        W83884  32.077  41.893   3.729
14004W        W83885  22.646  40.430   2.857
14005W        W83886  11.650   5.748  14.833
14006W        W83887  26.610  40.962   0.373
14007W        W83888  25.026  34.080   1.308
14008W        W83889  36.970  19.190   2.825
14009W        W83890  30.116  29.567   1.774
14010W        W83891  20.725  22.542  11.486
14011W        W83892  12.313  35.533   3.836
14012W        W83893   6.203  40.958  11.989
14013W        W83894  42.992  40.341   1.786
14014W        W83895  29.615   1.426   0.259
14015W        W83896  32.410  37.054  10.890
14016W        W83897  38.027   5.219  11.450
14017W        W83898   2.812  16.622  13.546
14018W        W83899   4.389  16.284  14.443
14019W        W83900  41.822  26.701  14.018
14020W        W83901  18.242  20.580   1.780
14021W        W83902  23.055  39.982  11.381
14022W        W83903  44.938  24.644   1.303
14023W        W83904   6.414  14.292  13.512
14024W        W83905   0.382   3.837  14.868
14025W        W83906  37.006   2.726   2.715
14026W        W83907  12.119  35.992  14.504
14027W        W83908  23.531  19.068   5.684
14028W        W83909  16.677  25.642  11.945
14029W        W83910  31.426   8.311  12.074
14030W        W83911   0.883  40.373   3.238
14031W        W83912  21.604  44.996  12.572
14032W        W83913  38.465  31.412   0.968
14033W        W83914  29.524   1.809   4.663
14034W        W83915  11.181  20.194   2.348
14035W        W83916  18.224  41.488   0.371
14036W        W83917   8.195  31.003  12.511
14037W        W83918  31.457  34.432  10.897
14038W        W83919  19.661  43.892  10.555
14039W        W83920  22.587  41.425  11.979
14040W        W83921  28.967  14.761   0.469
14041W        W83922  10.338   9.236   3.258
14042W        W83923  13.677  33.093   2.702
14043W        W83924  42.960  10.184   5.094
14044W        W83925  37.357  11.738   4.122
14045W        W83926  12.360  18.567   1.870
14046W        W83927  30.000  17.693  14.427
14047W        W83928   6.321  18.781   1.887
14048W        W83929  10.846  22.154  10.971
14049W        W83930  13.721  43.812  12.492
14050W        W83931  23.080   0.350   3.240
14051W        W83932   0.876  40.497   3.702
14052W        W83933   9.710  15.738   4.214
14053W        W83934  37.043  22.178   0.251
14054W        W83935  20.549  23.089   4.283
14055W        W83936  15.289  21.195   4.166
14056W        W83937  11.847  26.082  12.024
14057W        W83938  26.033   6.214  12.915
14058W        W83939  32.968  31.569  13.530
14059W        W83940  27.065  32.609  14.923
14060W        W83941   4.737  44.977   4.722
14061W        W83942  42.451  33.491  13.437
14062W        W83943  44.757   5.716   4.745
14063W        W83944  37.448   7.301  14.372
14064W        W83945  24.612   8.732  14.368
14065W        W83946  44.395  27.166  13.539
14066W        W83947  11.162  31.461  11.905
14067W        W83948  17.184   8.722  10.541
14068W        W83949  40.418   6.365   1.364
14069W        W83950  12.795  15.204   0.343
14070W        W83951  24.979  14.281   2.800
14071W        W83952  20.747  35.985  11.586
14072W        W83953   8.170  14.108   2.665
14073W        W83954   7.348  36.368  12.892
14074W        W83955  25.178  29.636  12.025
14075W        W83956  13.209  43.501  11.893
14076W        W83957  27.561  28.504  12.967
14077W        W83958  18.114  11.769   3.274
14078W        W83959  29.498  33.044  10.614
14079W        W83960   6.883  10.744  13.006
14080W        W83961  34.946   8.230   2.670
14081W        W83962   2.378  17.076   3.661
14082W        W83963  36.414   7.332   0.902
14083W        W83964  43.964  35.853  11.606
14084W        W83965   6.324  25.128  14.279
14085W        W83966  39.501  12.213   0.900
14086W        W83967  34.467   4.388   4.756
14087W        W83968  18.628  12.287   3.275
14088W        W83969   3.876  37.991  14.296
14089W        W83970  17.229   9.260   1.374
14090W        W83971   2.422  14.694  10.623
14091W        W83972  25.667  10.835  14.285
14092W        W83973  41.451  16.237   1.443
14093W        W83974  32.003  19.732  11.946
14094W        W83975  39.873  17.645  14.987
14095W        W83976  17.580  34.478  11.508
14096W        W83977   5.826  20.184   1.288
14097W        W83978   0.906   8.747   1.913
14098W        W83979  12.343  36.453  11.462
14099W        W83980  35.997  16.238   3.655
14100W        W83981  20.096  19.673  14.856
14101W        W83982  19.147  41.341   4.715
14102W        W83983  26.128  34.371  12.906
14103W        W83984   0.331   9.162   1.396
14104W        W83985  28.971   0.319  12.976
14105W        W83986   2.900  29.537   3.299
14106W        W83987  13.656  41.011  13.807
14107W        W83988   9.296   6.332  11.414
14108W        W83989  21.555   2.732  12.089
14109W        W83990  24.620  33.058  11.933
14110W        W83991  15.676  37.522   1.421
14111W        W83992   1.950  22.172  12.456
14112W        W83993  15.154   1.465   1.790
14113W        W83994  21.742  20.255   1.886
14114W        W83995  35.980  15.781   4.352
14115W        W83996  22.079  11.257  13.340
14116W        W83997   3.268  40.044  11.406
14117W        W83998  37.005  37.516  13.884
14118W        W83999   2.941  28.964  11.869
14119W        W84000  23.560  25.160   1.427
14120W        W84001  41.808  35.450   1.927
14121W        W84002  10.761  39.360   0.856
14122W        W84003  13.638  20.124   3.341
14123W        W84004   4.767  25.169   2.690
14124W        W84005   0.748  13.311  12.487
14125W        W84006   8.735  12.746   2.749
14126W        W84007  37.548  39.552  12.043
14127W        W84008  21.561   1.381   5.208
14128W        W84009  20.087   6.776  14.784
14129W        W84010  16.766  43.403  11.899
14130W        W84011  28.114  23.636   5.303
14131W        W84012   1.264  14.672   3.804
14132W        W84013  38.412  13.329  14.010
14133W        W84014  30.599  16.102  12.837
14134W        W84015  35.913  30.422  12.060
14135W        W84016  32.141  10.782  13.927
14136W        W84017  23.725   8.754  13.037
14137W        W84018  19.600  30.030   5.218
14138W        W84019  38.056  19.252  11.443
14139W        W84020  18.198  37.985   0.946
14140W        W84021  18.090   6.908  11.582
14141W        W84022  21.201  41.295  12.540
14142W        W84023   3.719  35.528   2.852
14143W        W84024  12.857  15.254  10.596
14144W        W84025  41.983  20.046   2.361
14145W        W84026  15.096  38.571   2.808
14146W        W84027  26.531  17.252  13.853
14147W        W84028  17.687  28.977   1.890
14148W        W84029  11.196   0.431  11.010
14149W        W84030  26.537  19.734   0.470
14150W        W84031  10.724  26.521   1.746
14151W        W84032   6.836  16.606   4.717
14152W        W84033   6.264  33.608   0.796
14153W        W84034  40.016   3.766  10.446
14154W        W84035  16.168  43.369  14.434
14155W        W84036  29.162  27.651   3.383
14156W        W84037  38.419  14.702  12.074
14157W        W84038  36.935   9.336   1.291
14158W        W84039  40.407  41.400  12.086
14159W        W84040  42.937   9.665  14.902
14160W        W84041  18.663  35.588   1.731
14161W        W84042  28.071  22.996  13.310
14162W        W84043  29.955  35.005   0.899
14163W        W84044  23.510  34.565   2.684
14164W        W84045  35.877  15.819  11.074
14165W        W84046  43.919   0.370   2.832
14166W        W84047  37.464   2.346  11.590
14167W        W84048  27.578   2.285  12.451
14168W        W84049   3.407   0.886   5.209
14169W        W84050  32.965  14.131  10.907
14170W        W84051  32.944   9.754  10.418
14171W        W84052  35.966   3.376   0.875
14172W        W84053   3.254  44.294  14.477
14173W        W84054   5.708  40.503  11.428
14174W        W84055  42.795  42.784  10.437
14175W        W84056  29.155   2.396  12.480
14176W        W84057  15.803   3.393  11.997
14177W        W84058   0.846  14.335   1.340
14178W        W84059  10.633  38.466  11.606
14179W        W84060  31.485  17.591  11.980
14180W        W84061  35.471  22.023  10.498
14181W        W84062  41.965  30.129   2.693
14182W        W84063  15.701  34.395  14.966
14183W        W84064   2.927  40.043   0.307
14184W        W84065  12.199  37.484   2.741
14185W        W84066  28.112   9.648  13.373
14186W        W84067  39.531  15.272   1.427
14187W        W84068  42.516  11.863   2.373
14188W        W84069   7.742  34.586  10.902
14189W        W84070  22.182  13.217  11.522
14190W        W84071  20.604  42.862  10.624
14191W        W84072  35.517  19.227  10.516
14192W        W84073  14.191  35.883   4.790
14193W        W84074  34.979  44.935  12.987
14194W        W84075  18.702  28.011  11.588
14195W        W84076   8.360   6.861  11.539
14196W        W84077  20.768   3.258  11.960
14197W        W84078  31.625   4.747   3.153
14198W        W84079  19.039   2.956   3.242
14199W        W84080  18.090  34.384  11.099
14200W        W84081  28.176  16.698   0.768
14201W        W84082  14.325  16.088  11.421
14202W        W84083  43.405  28.137   3.289
14203W        W84084  33.920  44.871   1.867
14204W        W84085  33.077  17.596  14.822
14205W        W84086  21.646   8.226   0.441
14206W        W84087   6.860   3.767   4.259
14207W        W84088  21.174  23.115   4.304
14208W        W84089  30.479  27.644   1.757
14209W        W84090  21.041  16.788  14.310
14210W        W84091  11.742  22.575  10.986
14211W        W84092  31.412  28.469  11.901
14212W        W84093  23.534  35.880   0.968
14213W        W84094  38.446   3.440   0.735
14214W        W84095  36.094  23.649  13.834
14215W        W84096  32.439   1.271  11.596
14216W        W84097  16.765  41.879   2.178
14217W        W84098  34.878  39.359  10.498
14218W        W84099  12.856  20.546   1.429
14219W        W84100  36.549  41.486  12.566
14220W        W84101   5.266   8.815  11.010
14221W        W84102   5.217  30.030  14.360
14222W        W84103  22.204  33.406   3.656
14223W        W84104  30.418   4.217  10.468
14224W        W84105   7.300   4.873  14.774
14225W        W84106   0.323   8.172  13.863
14226W        W84107  12.229  40.486  14.762
14227W        W84108  31.531  24.635  14.491
14228W        W84109  38.406  37.383   0.838
14229W        W84110  33.910  37.368   1.341
14230W        W84111  43.474  35.525   1.877
14231W        W84112  35.547  18.280   0.336
14232W        W84113  16.127  14.659  12.859
14233W        W84114  24.700  13.176  13.392
14234W        W84115  35.071  11.763   4.226
14235W        W84116  12.140  19.069  13.964
14236W        W84117  25.477   4.704  13.026
14237W        W84118  12.296   7.314   1.299
14238W        W84119  26.483  26.653   4.228
14239W        W84120  43.946  25.573  14.003
14240W        W84121  34.516   5.863  12.500
14241W        W84122   6.281   3.293  14.845
14242W        W84123  35.964   8.282  13.792
14243W        W84124  10.369  19.624   5.286
14244W        W84125  25.533  23.071  13.330
14245W        W84126  31.125  23.034   0.412
14246W        W84127  22.738  28.998  13.956
14247W        W84128  16.591  26.539  12.375
14248W        W84129  21.211  17.202   9.995
14249W        W84130  19.240   6.241  12.357
14250W        W84131  43.946  13.337  13.474
14251W        W84132   5.700  13.630  14.435
14252W        W84133  13.324  16.662   2.667
14253W        W84134  37.890  22.535  11.493
14254W        W84135   6.697   6.298  13.832
14255W        W84136  43.495  13.618  13.858
14256W        W84137  11.250  15.622  10.042
14257W        W84138  13.298  21.707   2.770
14258W        W84139  43.440  13.276   0.926
14259W        W84140  31.962   6.269   4.346
14260W        W84141  27.959   0.419   0.910
14261W        W84142  14.793  42.956  12.894
14262W        W84143  20.653  18.787   4.771
14263W        W84144  27.190  23.040   2.809
14264W        W84145  29.000   8.705   0.831
14265W        W84146   9.713   3.867   3.738
14266W        W84147   9.259  28.569   4.622
14267W        W84148  36.516  43.444  12.348
14268W        W84149   9.204  35.031  10.515
14269W        W84150  22.563  32.446  10.446
14270W        W84151  34.536  43.329   1.394
14271W        W84152   9.677  41.875  12.064
14272W        W84153  40.445  28.082  13.924
14273W        W84154  16.301  14.102  11.067
14274W        W84155   9.183  42.906   3.822
14275W        W84156  29.506  26.523   0.314
14276W        W84157  37.508  12.202  14.299
14277W        W84158  15.231  36.364   3.810
14278W        W84159   5.756  16.596  11.073
14279W        W84160   7.756  38.449   0.841
14280W        W84161  30.627  27.629  14.885
14281W        W84162  38.341  31.077  11.867
14282W        W84163  23.556  44.872  11.520
14283W        W84164  24.063  16.585  12.981
14284W        W84165  36.857  44.265   1.909
14285W        W84166  44.427  16.709  10.586
14286W        W84167  42.508  43.368  12.936
14287W        W84168   3.448  44.846   0.348
14288W        W84169  16.659  41.791  11.540
14289W        W84170  26.584   5.409   4.714
14290W        W84171  15.644  19.682   4.240
14291W        W84172  41.958   7.884   0.792
14292W        W84173  41.532  40.883  13.362
14293W        W84174  11.127  21.130  11.405
14294W        W84175  42.367   3.310  14.800
14295W        W84176   0.852   9.191   1.273
14296W        W84177  23.701  38.040  13.965
14297W        W84178   0.419   7.676  12.552
14298W        W84179   9.761  27.949  14.765
14299W        W84180  33.621  20.231   3.371
14300W        W84181  13.125  28.598  14.014
14301W        W84182  39.910  24.217  11.039
14302W        W84183  34.605  29.533   3.178
14303W        W84184  28.160  44.268   0.430
14304W        W84185  29.131   7.712  14.313
14305W        W84186   5.710   4.240   2.815
14306W        W84187  17.094   3.296  14.848
14307W        W84188  20.210   8.766   2.261
14308W        W84189  22.602  27.589  14.967
14309W        W84190  15.214   7.236   0.917
14310W        W84191  20.124   7.745   3.327
14311W        W84192   7.283  41.346   0.862
14312W        W84193  12.169  32.142   1.231
14313W        W84194   2.372  43.783   4.800
14314W        W84195  44.834  34.874   3.248
14315W        W84196  35.072  27.567   4.336
14316W        W84197  41.804  13.212  11.038
14317W        W84198  25.641  14.679  11.613
14318W        W84199  33.530  28.984  12.869
14319W        W84200  20.257  39.032   1.709
14320W        W84201  23.069  31.621  12.876
14321W        W84202  22.577  22.594  11.592
14322W        W84203   7.308   7.385   1.750
14323W        W84204  12.187   0.362  11.109
14324W        W84205  22.068  13.653  11.520
14325W        W84206   5.915  34.412   3.241
14326W        W84207   2.368  12.167  12.417
14327W        W84208   7.200  14.726   3.339
14328W        W84209  14.609  12.784   4.713
14329W        W84210  11.258  37.061   4.838
14330W        W84211  44.846  29.501  12.538
14331W        W84212  23.042  40.799   1.766
14332W        W84213  31.914  26.107   4.838
14333W        W84214  23.502  37.415   0.378
14334W        W84215  25.008  11.156   0.791
14335W        W84216   8.818  13.699  12.359
14336W        W84217  18.661  28.647   5.251
14337W        W84218   7.834   5.727   9.983
14338W        W84219   1.358  22.598  11.420
14339W        W84220  44.411  43.390  11.989
14340W        W84221   2.384  42.308   4.745
14341W        W84222   9.700  37.847   3.770
14342W        W84223  17.693  40.923  11.105
14343W        W84224  10.662  30.922  12.002
14344W        W84225  44.958  26.641  11.920
14345W        W84226   0.897  27.155   1.733
14346W        W84227   3.710  11.691   4.800
14347W        W84228  42.934  33.011  13.917
14348W        W84229   8.871  34.528   0.294
14349W        W84230  18.674  35.078  12.985
14350W        W84231  20.037  22.008  13.309
14351W        W84232  26.162  12.303  12.033
14352W        W84233   4.741   9.829   2.249
14353W        W84234  22.655  25.169   0.288
14354W        W84235  44.432   4.264  10.617
14355W        W84236  24.147  36.498  13.521
14356W        W84237  23.210  25.112  13.967
14357W        W84238   0.972   5.196  10.413
14358W        W84239  20.095  10.243  13.044
14359W        W84240   7.814  15.096   1.874
14360W        W84241  17.234   8.278  13.055
14361W        W84242  10.798  35.483  10.546
14362W        W84243   9.730  30.465  10.422
14363W        W84244   2.305  42.439   4.264
14364W        W84245  15.202  31.509  12.362
14365W        W84246  10.256   1.788   3.712
14366W        W84247  13.176  10.708  12.910
14367W        W84248  21.089  30.927   5.245
14368W        W84249  20.037  17.788   0.476
14369W        W84250  30.058  44.912  14.985
14370W        W84251  39.999  44.445  12.368
14371W        W84252   0.329   1.845   2.899
14372W        W84253  44.008  27.159   4.684
14373W        W84254   0.407   4.736  10.566
14374W        W84255  10.763  31.467  14.316
14375W        W84256   0.491  39.500   2.825
14376W        W84257  34.089  42.502   0.294
14377W        W84258   0.320  25.080   4.203
14378W        W84259  34.920  41.538  14.349
14379W        W84260  37.530   3.273  13.342
14380W        W84261  24.058  27.690  12.352
14381W        W84262   8.727  41.306   4.284
14382W        W84263  25.042  38.367   2.752
14383W        W84264   4.820  37.889  11.897
14384W        W84265  16.301  42.855  13.032
14385W        W84266  17.264  40.909  13.421
14386W        W84267  28.576  35.867   1.227
14387W        W84268  27.666  23.579  10.907
14388W        W84269   2.471  44.370   4.326
14389W        W84270  44.910  27.139   2.857
14390W        W84271  18.759  12.801   4.784
14391W        W84272  22.157   8.761   0.328
14392W        W84273  33.531  32.574  13.876
14393W        W84274  35.480   1.474   1.755
14394W        W84275  31.071   8.869  13.949
14395W        W84276   6.851  39.405   0.351
14396W        W84277  44.863   8.742  11.944
14397W        W84278   9.848   0.337   0.403
14398W        W84279  26.617   3.760  11.561
14399W        W84280   1.431   0.968  12.041
14400W        W84281  43.490  25.016   0.353
14401W        W84282  37.992   9.691  14.464
14402W        W84283  28.484  34.986  12.351
14403W        W84284  18.551  28.474   1.880
14404W        W84285  44.811  25.138  14.982
14405W        W84286  18.559   5.361   3.325
14406W        W84287  36.371  37.443  13.356
14407W        W84288  18.730  14.309   3.763
14408W        W84289  43.987  12.656   4.599
14409W        W84290  26.192  24.684  10.611
14410W        W84291  26.697  14.708   4.827
14411W        W84292  39.933  16.128   4.664
14412W        W84293  38.525  26.699  11.079
14413W        W84294   3.321   4.290   4.763
14414W        W84295  11.627  39.982  12.828
14415W        W84296  17.169  17.255   3.772
14416W        W84297  35.034  30.626   4.688
14417W        W84298  29.442  39.996  10.048
14418W        W84299  35.413  27.150   3.638
14419W        W84300  35.000  15.796  12.948
14420W        W84301  42.412  27.012  11.080
14421W        W84302   3.284   3.870  12.358
14422W        W84303   8.747   1.962  11.965
14423W        W84304  13.643  34.531  11.576
14424W        W84305  12.240  31.009   2.253
14425W        W84306  43.848   8.873   3.226
14426W        W84307   7.724  38.897   3.773
14427W        W84308  36.859   9.192   0.296
14428W        W84309  24.594  15.141  13.938
14429W        W84310  34.041  31.152  11.535
14430W        W84311  20.033  36.848   3.810
14431W        W84312  11.294  37.057   1.442
14432W        W84313  36.356  43.407   0.424
14433W        W84314  23.118  40.434  10.940
14434W        W84315  39.353  40.813  14.290
14435W        W84316   1.804  10.297  12.823
14436W        W84317  27.160  16.589   2.879
14437W        W84318  39.492  33.510  13.805
14438W        W84319  27.110   6.783   3.748
14439W        W84320   1.410   7.302  12.922
14440W        W84321  17.102   1.302  12.928
14441W        W84322  30.568  21.593  14.030
14442W        W84323  34.507  13.339   3.664
14443W        W84324  18.054  29.607  10.628
14444W        W84325  41.353  32.949  11.001
14445W        W84326  23.493  39.845   3.788
14446W        W84327  42.438  30.962  14.404
14447W        W84328  15.722  19.759   9.942
14448W        W84329  22.531  36.998   2.305
14449W        W84330  43.506   3.366  14.288
14450W        W84331  41.489  43.390  13.880
14451W        W84332  20.226  18.076  11.479
14452W        W84333  35.902  39.440  14.303
14453W        W84334  18.673  25.153  13.446
14454W        W84335  11.646  41.431   0.324
14455W        W84336  10.289  33.383   2.891
14456W        W84337  29.555  43.292   3.304
14457W        W84338  12.650  32.511   3.723
14458W        W84339  12.785  43.433   1.922
14459W        W84340  38.983  11.327  10.064
14460W        W84341  29.071  23.026  11.937
14461W        W84342  18.586   0.417  14.892
14462W        W84343  32.494   0.914   0.805
14463W        W84344  36.531  28.506  12.077
14464W        W84345   7.838  24.644  11.424
14465W        W84346  39.981   6.366   4.800
14466W        W84347  24.661   1.375  12.391
14467W        W84348   5.350   1.267   4.733
14468W        W84349  35.957  32.432   5.104
14469W        W84350  25.218  36.916   3.265
14470W        W84351   1.858  14.248  10.416
14471W        W84352  43.011  43.455  12.573
14472W        W84353  31.955   9.651  12.919
14473W        W84354   9.388  35.535   1.380
14474W        W84355  44.264  23.074  11.878
14475W        W84356  24.520  26.689  10.141
14476W        W84357  32.060  41.907   0.262
14477W        W84358   5.373  28.452  14.759
14478W        W84359  23.529  26.513   3.847
14479W        W84360  39.027  14.657  10.115
14480W        W84361   9.753  14.767  13.311
14481W        W84362  14.622  22.570  10.998
14482W        W84363  13.196   7.295   0.397
14483W        W84364  29.651  44.008  12.391
14484W        W84365  27.556  42.021   2.250
14485W        W84366  24.189   9.878   1.347
14486W        W84367  28.676  12.795  11.384
14487W        W84368  40.825  19.648  14.358
14488W        W84369  31.476   1.364  13.395
14489W        W84370   1.293  11.239  13.850
14490W        W84371   9.708  36.058   1.759
14491W        W84372  36.070  39.877   4.238
14492W        W84373  44.973  41.332   0.928
14493W        W84374  13.692  22.730  13.042
14494W        W84375  44.280  40.470  12.926
14495W        W84376  23.230  12.667  11.544
14496W        W84377  25.996  23.239   2.695
14497W        W84378  32.934  26.561  12.865
14498W        W84379   9.772   0.488   4.136
14499W        W84380  17.689  43.330  10.461
14500W        W84381  21.566  12.784  10.411
14501W        W84382  19.711  40.377   4.328
14502W        W84383  10.184  42.302  14.348
14503W        W84384   9.152  15.192  12.357
14504W        W84385   8.790  22.185  14.457
14505W        W84386  13.338  36.058  11.404
14506W        W84387  27.079   4.725   1.232
14507W        W84388  14.180  11.832  12.950
14508W        W84389  24.078   4.920  10.896
14509W        W84390  31.554   6.372  12.475
14510W        W84391  18.603   3.731  12.086
14511W        W84392  22.090  30.119   3.641
14512W        W84393   4.413  12.683   0.251
14513W        W84394   5.789  40.841  11.021
14514W        W84395  38.845  17.559   2.406
14515W        W84396  40.426  14.134   3.741
14516W        W84397  20.523   6.723   3.772
14517W        W84398  39.482  36.953  11.905
14518W        W84399  14.781  35.395  11.106
14519W        W84400  24.679   7.678   4.766
14520W        W84401  19.252  14.600  13.470
14521W        W84402   6.835  37.985   2.292
14522W        W84403   8.290  12.146  13.027
14523W        W84404   1.289  34.562  12.931
14524W        W84405  27.113  28.013  11.091
14525W        W84406  31.634  18.124   9.605
14526W        W84407  21.622  32.959  11.997
14527W        W84408  20.579  22.052   2.893
14528W        W84409  27.087  22.222   2.771
14529W        W84410  33.484  39.423   3.789
14530W        W84411  30.506  11.716   2.283
14531W        W84412  15.123  17.724   4.812
14532W        W84413  25.009   0.314   4.232
14533W        W84414  19.648  33.419  12.359
14534W        W84415  17.128  44.425  12.492
14535W        W84416  29.015  41.905  11.525
14536W        W84417   7.849  34.896  12.945
14537W        W84418  19.655  15.090   1.758
14538W        W84419  32.419  34.403   0.822
14539W        W84420  21.663  29.496  10.474
14540W        W84421   5.341  30.110  14.803
14541W        W84422  41.406  27.971   5.121
14542W        W84423  20.650  13.805  12.887
14543W        W84424  38.395  38.542  14.868
14544W        W84425  23.580  43.368   0.462
14545W        W84426  40.018  10.193  10.452
14546W        W84427  25.604  36.591  14.764
14547W        W84428  30.483   8.339  12.465
14548W        W84429   6.774  40.488  10.587
14549W        W84430   7.733  19.214  13.373
14550W        W84431  39.951  12.830   0.918
14551W        W84432   1.427  31.432  11.971
14552W        W84433   2.366  20.051  10.449
14553W        W84434  35.088  41.381  14.875
14554W        W84435  42.484  34.094  11.415
14555W        W84436  29.018  44.329  13.429
14556W        W84437  18.276   7.910  13.527
14557W        W84438   2.895  26.491   3.344
14558W        W84439   2.803  37.973  14.768
14559W        W84440  40.009  19.153  10.439
14560W        W84441  36.955  23.606  10.413
14561W        W84442  23.109  27.074   0.841
14562W        W84443  25.471   0.289   3.181
14563W        W84444   3.304  37.027   3.282
14564W        W84445  14.101   6.870   1.304
14565W        W84446  21.714  33.983   3.229
14566W        W84447  25.977  37.914   2.330
14567W        W84448  38.843  39.322  12.919
14568W        W84449   7.370  22.701  12.992
14569W        W84450  23.662  17.173  13.044
14570W        W84451   4.836   4.418  12.484
14571W        W84452   1.256   9.688   3.270
14572W        W84453  30.979  41.412  10.592
14573W        W84454  34.926  20.098   1.415
14574W        W84455  30.480  31.948   1.289
14575W        W84456  37.580  13.294   5.161
14576W        W84457  13.722  22.675  14.878
14577W        W84458  16.784   9.792  13.938
14578W        W84459  16.311   8.764   3.193
14579W        W84460   1.920  13.697  14.286
14580W        W84461  43.880  25.585   4.834
14581W        W84462   5.379  10.825   2.765
14582W        W84463  26.631  35.917   2.376
14583W        W84464  36.441  12.842  11.900
14584W        W84465  27.597   7.284   3.805
14585W        W84466  31.517   6.679  12.940
14586W        W84467  11.734  11.839  11.412
14587W        W84468  22.735  21.648   3.231
14588W        W84469  32.445  32.911  14.937
14589W        W84470  28.087  14.129   3.315
14590W        W84471  33.525   7.304  13.927
14591W        W84472  41.878  37.527  10.090
14592W        W84473  23.241  41.039   3.382
14593W        W84474  29.662  37.871  11.545
14594W        W84475  41.298  35.555   2.397
14595W        W84476  13.683  43.317  10.595
14596W        W84477  17.079  30.078  12.024
14597W        W84478  36.924  43.905   2.302
14598W        W84479  38.414  22.103  14.778
14599W        W84480  20.695   5.754   3.730
14600W        W84481  15.158  38.408  10.921
14601W        W84482  18.296  11.641  12.854
14602W        W84483  24.521  19.639   4.133
14603W        W84484  33.918  23.054  14.829
14604W        W84485  14.307  23.581   3.764
14605W        W84486  17.196  44.872   0.924
14606W        W84487   8.881  19.253   0.391
14607W        W84488  14.746   9.154  12.973
14608W        W84489  41.512  15.821  14.470
14609W        W84490  24.058  34.938  14.915
14610W        W84491  31.416   6.419  13.390
14611W        W84492  43.303  40.890  10.553
14612W        W84493  44.877  30.557   2.714
14613W        W84494  43.440   5.758  14.985
14614W        W84495  21.218  19.062  13.308
14615W        W84496  23.708  28.964   3.179
14616W        W84497  32.425  14.185   2.220
14617W        W84498  19.215  42.471   2.254
14618W        W84499  26.057  28.127   1.407
14619W        W84500  13.783  39.990  13.492
14620W        W84501  13.152  26.620  12.826
14621W        W84502  29.555  25.001   0.456
14622W        W84503  30.948  16.232  12.490
14623W        W84504  43.373  15.229   0.920
14624W        W84505  30.616  16.721   4.743
14625W        W84506  44.853  26.470  10.890
14626W        W84507  32.628  18.230   4.216
14627W        W84508  13.174  11.832  14.981
14628W        W84509  32.991  41.035  10.448
14629W        W84510  41.020  32.948  10.560
14630W        W84511  34.410   5.434   4.293
14631W        W84512   9.837   3.448  13.955
14632W        W84513  35.470  28.953   0.922
14633W        W84514  18.289   2.869  12.417
14634W        W84515  30.145  16.197  11.074
14635W        W84516  22.553  22.647   1.245
14636W        W84517  25.529  21.062   4.811
14637W        W84518  40.497  32.019   1.881
14638W        W84519  20.145  18.077  11.054
14639W        W84520  18.169  39.844  10.553
14640W        W84521  23.048  14.707  14.421
14641W        W84522  28.942  22.083   2.710
14642W        W84523  34.513  26.161   2.859
14643W        W84524  35.859   2.849   1.759
14644W        W84525   1.782  34.988   2.775
14645W        W84526  38.889   7.796   1.446
14646W        W84527   5.924  25.992   3.869
14647W        W84528  26.178  32.059   2.196
14648W        W84529  25.184  25.193   2.802
14649W        W84530  23.555  14.796   3.209
14650W        W84531  24.538  37.466   4.316
14651W        W84532  44.980  13.689   4.653
14652W        W84533  30.538  20.592  11.466
14653W        W84534  17.148  41.360   1.351
14654W        W84535   6.393   4.713   2.231
14655W        W84536  22.715   1.904   0.418
14656W        W84537  38.880  17.150  13.330
14657W        W84538  44.770  35.495  12.964
14658W        W84539   3.253  26.160  10.942
14659W        W84540  16.108   4.861   0.827
14660W        W84541  25.104  19.728  11.387
14661W        W84542   2.280  15.656   2.378
14662W        W84543  35.375  11.634  12.080
14663W        W84544  38.885  12.842   2.823
14664W        W84545   6.831  35.906  10.551
14665W        W84546  41.520  44.361  11.447
14666W        W84547  33.043  16.116   4.711
14667W        W84548   1.262  35.586   1.917
14668W        W84549  44.469   5.805  10.623
14669W        W84550   9.814  11.208  11.037
14670W        W84551   6.787  34.026  10.549
14671W        W84552  13.212   7.881   1.235
14672W        W84553  18.661  33.084  10.592
14673W        W84554  30.435   5.360  12.064
14674W        W84555  15.652   6.702   3.155
14675W        W84556  27.090  29.137  13.441
14676W        W84557  20.725  11.327   4.780
14677W        W84558   1.469  38.851  11.966
14678W        W84559   7.869  15.627   3.675
14679W        W84560  44.834  12.155  11.041
14680W        W84561   8.731  15.822   5.237
14681W        W84562  13.812   5.376  10.441
14682W        W84563  27.505  19.159   1.245
14683W        W84564  10.349  24.097   0.345
14684W        W84565   1.958  31.474   2.700
14685W        W84566  19.269   5.265   0.889
14686W        W84567  22.530   8.654  14.986
14687W        W84568  18.619   2.851  14.027
14688W        W84569  35.559  37.582  12.495
14689W        W84570  39.425   4.860  10.004
14690W        W84571   2.812  42.443   4.782
14691W        W84572  25.140  30.586   1.338
14692W        W84573  38.512  31.055   0.827
14693W        W84574  37.502  22.515  13.426
14694W        W84575  43.831  37.990  13.896
14695W        W84576  41.418  18.775  14.893
14696W        W84577  19.759  19.137   3.329
14697W        W84578   0.305  12.314   1.710
14698W        W84579  29.650   4.873   1.254
14699W        W84580   9.234  34.442  15.000
14700W        W84581   2.229  38.851   4.292
14701W        W84582  33.129  17.187   2.786
14702W        W84583  37.957  35.092   2.400
14703W        W84584  14.168  26.690  10.891
14704W        W84585  37.858  25.555   3.728
14705W        W84586  19.151  38.941   3.818
14706W        W84587   7.743  25.122  13.432
14707W        W84588  22.691  12.243  10.544
14708W        W84589  37.882  32.917   3.767
14709W        W84590  33.898  29.472  13.439
14710W        W84591   3.715  40.873   2.231
14711W        W84592  26.555  33.882  11.120
14712W        W84593  22.061   0.910  13.832
14713W        W84594  33.460  32.618   4.663
14714W        W84595  43.782   2.727   4.175
14715W        W84596  30.001  15.698  12.525
14716W        W84597  19.243  42.471   1.427
14717W        W84598  25.990  22.550  14.341
14718W        W84599  43.013  23.127  14.873
14719W        W84600   3.862  43.018   0.844
14720W        W84601  21.037   2.427   4.783
14721W        W84602  39.430  18.680  14.460
14722W        W84603  11.794  13.812   3.253
14723W        W84604  23.073  20.268   1.869
14724W        W84605   2.369  15.713   3.248
14725W        W84606  35.956   0.807   4.763
14726W        W84607  15.650  17.720   2.704
14727W        W84608   4.840  34.054  10.971
14728W        W84609  25.673  14.745  13.363
14729W        W84610  21.734   2.293   0.940
14730W        W84611  42.017  44.770  11.952
14731W        W84612  15.633  27.548   3.196
14732W        W84613  36.419  40.860   2.807
14733W        W84614  18.099  20.626  13.891
14734W        W84615  40.391  18.631   1.246
14735W        W84616  16.796   4.293  14.323
14736W        W84617  32.070  26.594   2.809
14737W        W84618   2.385   4.215   4.313
14738W        W84619  24.225   4.836   1.922
14739W        W84620  24.609  22.230  14.866
14740W        W84621  21.522   0.484  11.394
14741W        W84622  29.506  32.135  13.948
14742W        W84623  43.274   1.468   1.742
14743W        W84624   4.203  39.496  13.422
14744W        W84625   5.215  16.181  13.384
14745W        W84626  20.649  22.660   4.737
14746W        W84627  38.887  14.146  10.601
14747W        W84628  15.674  22.591  11.418
14748W        W84629  39.362  25.707   3.800
14749W        W84630  32.962  35.031   2.898
14750W        W84631  15.609   0.460   4.122
14751W        W84632  11.219  33.909   2.853
14752W        W84633   3.293  19.169   1.729
14753W        W84634  18.147  25.160   2.179
14754W        W84635  34.921  37.531   5.196
14755W        W84636   4.827  20.171   2.246
14756W        W84637  19.700   2.453  11.021
14757W        W84638  32.925  16.087   1.283
14758W        W84639  24.557  33.949   1.422
14759W        W84640  11.309   3.230   1.253
14760W        W84641  41.297   7.253  13.977
14761W        W84642  35.482  25.577  14.788
14762W        W84643  25.163   3.340  12.064
14763W        W84644  22.539  28.628   2.775
14764W        W84645  17.064  36.554   2.683
14765W        W84646  35.043   2.897   2.877
14766W        W84647  24.563  20.029   1.239
14767W        W84648   9.840  24.137  11.936
14768W        W84649  21.639  20.574  14.425
14769W        W84650  32.567   8.370   3.318
14770W        W84651  42.337  19.170  14.942
14771W        W84652  29.092  32.056   0.800
14772W        W84653  23.207  16.610  12.037
14773W        W84654  29.556   7.716   3.189
14774W        W84655  36.402  34.455   3.681
14775W        W84656  14.209  20.139   3.798
14776W        W84657   1.370   8.266  12.387
14777W        W84658  14.160  33.074  11.490
14778W        W84659  40.307   0.956  14.860
14779W        W84660  14.100   3.723   1.852
14780W        W84661   0.846  17.616   3.266
14781W        W84662  43.833   7.196   1.399
14782W        W84663   2.289   1.272   3.700
14783W        W84664  25.687  28.442  11.500
14784W        W84665  29.153  22.646   0.882
14785W        W84666  19.220  25.058  13.817
14786W        W84667  31.134  39.548  14.938
14787W        W84668  10.144  41.881   0.902
14788W        W84669  41.989  13.752   0.306
14789W        W84670   7.791  37.034  11.442
14790W        W84671  19.157   0.490   3.834
14791W        W84672  35.455  36.583  12.020
14792W        W84673  34.005  33.517   1.346
14793W        W84674  30.129  38.359   3.710
14794W        W84675  21.655  36.002  14.913
14795W        W84676  28.118  22.113  10.532
14796W        W84677  43.282  34.036  14.327
14797W        W84678  15.759  25.556  11.119
14798W        W84679  19.768  27.454   2.711
14799W        W84680  44.911  33.939  14.783
14800W        W84681  13.152  39.446   0.791
14801W        W84682  25.186   4.703   0.922
14802W        W84683  15.691  11.246  12.490
14803W        W84684  16.196  32.598  13.872
14804W        W84685  27.102   3.946  14.896
14805W        W84686  15.728  37.338   0.247
14806W        W84687  43.356  34.024   1.300
14807W        W84688  16.201  16.300   0.959
14808W        W84689  18.630  41.415   2.840
14809W        W84690  39.857   5.835  14.927
14810W        W84691  32.896  37.432   1.221
14811W        W84692  17.066  34.977   2.416
14812W        W84693   3.936  11.813  12.479
14813W        W84694  28.675  25.076  14.856
14814W        W84695  23.707  12.205   3.840
14815W        W84696  16.798  36.347  14.778
14816W        W84697  14.254  20.048  13.370
14817W        W84698  40.319   3.309   3.739
14818W        W84699  30.959  17.558   0.267
14819W        W84700  22.210   6.687   2.790
14820W        W84701  19.233  39.353   2.701
14821W        W84702   7.697  43.007  12.052
14822W        W84703  33.900   1.927   4.738
14823W        W84704   2.468  25.070  13.406
14824W        W84705  36.897  19.725   3.267
14825W        W84706   2.268   2.451  11.072
14826W        W84707  17.171  15.593   0.856
14827W        W84708  34.977   2.882   0.261
14828W        W84709   4.923   1.805   3.253
14829W        W84710   6.187  35.393   3.178
14830W        W84711  24.693  28.474   4.716
14831W        W84712  33.511  37.923  14.315
14832W        W84713   1.817  29.086   2.190
14833W        W84714   2.352  12.254   4.264
14834W        W84715  38.071   1.945  11.869
14835W        W84716  24.583  38.438  13.973
14836W        W84717  32.940  25.210  14.806
14837W        W84718  22.171  22.120  11.592
14838W        W84719  21.077  36.976   4.134
14839W        W84720   3.347   9.861   1.741
14840W        W84721  28.024  40.882   3.743
14841W        W84722  22.571  33.907   1.393
14842W        W84723  25.561  10.161  13.900
14843W        W84724  18.230  30.078   4.244
14844W        W84725  38.502   0.250   2.836
14845W        W84726  15.630  24.592  11.060
14846W        W84727  29.617  33.961   1.318
14847W        W84728  42.837  12.136  14.908
14848W        W84729  16.136  10.653  11.110
14849W        W84730  39.035  27.956   3.225
14850W        W84731  34.587  37.860  14.937
14851W        W84732  39.482  40.490  14.423
14852W        W84733  27.647  39.932  10.905
14853W        W84734  34.570  19.697   0.354
14854W        W84735   8.719  20.611   1.730
14855W        W84736   2.328  19.746   0.918
14856W        W84737  32.010  37.011  10.422
14857W        W84738  14.300  26.087  10.584
14858W        W84739   0.397  17.303   2.225
14859W        W84740   4.312   2.915  12.005
14860W        W84741  36.972   1.275  14.919
14861W        W84742   5.425  38.477   0.736
14862W        W84743  33.046   1.813   2.862
14863W        W84744  10.318  35.046   3.823
14864W        W84745   5.388  16.194   3.356
14865W        W84746  40.449  23.040  12.870
14866W        W84747  11.209  23.546  13.014
14867W        W84748  30.911  44.853  13.511
14868W        W84749  11.757  34.413   3.695
14869W        W84750  25.974   8.900  10.527
14870W        W84751  26.675  13.679   3.254
14871W        W84752  19.153   8.894   3.821
14872W        W84753  30.157   7.761   0.258
14873W        W84754  29.610  16.643  12.844
14874W        W84755   2.864  21.567   4.297
14875W        W84756  11.803  24.614  13.935
14876W        W84757  30.627  35.551   2.839
14877W        W84758  39.055  39.329   1.323
14878W        W84759   8.777  38.392  10.415
14879W        W84760  28.649   4.870   2.285
14880W        W84761  40.855  18.618   1.739
14881W        W84762  41.966  32.018  12.526
14882W        W84763  30.630  40.541  12.930
14883W        W84764   3.845  25.648   0.814
14884W        W84765  37.863  24.670   3.157
14885W        W84766  21.579  27.050   0.801
14886W        W84767  31.501  20.733   1.426
14887W        W84768  18.614  24.214  14.511
14888W        W84769   7.247  32.999  13.903
14889W        W84770  12.268  44.451  13.435
14890W        W84771  18.694  35.065  10.413
14891W        W84772  44.457  25.532  12.829
14892W        W84773  32.414  34.115  12.848
14893W        W84774  14.766  35.874   3.844
14894W        W84775  31.140   5.368   2.369
14895W        W84776   2.962  28.544  12.028
14896W        W84777   7.182  43.337   0.953
14897W        W84778  26.963  28.003  12.369
14898W        W84779   1.868  10.306  12.080
14899W        W84780   0.830  27.019  13.512
14900W        W84781  20.678   0.939  14.290
14901W        W84782   7.907  29.092   3.782
14902W        W84783  44.491   3.440   4.253
14903W        W84784  19.596  36.530  14.449
14904W        W84785   8.333   8.181  11.611
14905W        W84786   2.410  16.140  13.052
14906W        W84787  38.395  20.587   3.703
14907W        W84788  23.030   0.939  14.023
14908W        W84789  28.664   3.227   1.784
14909W        W84790  22.247  15.239  10.583
14910W        W84791  44.378  34.036   2.832
14911W        W84792  24.482  19.695  13.940
14912W        W84793  32.608  10.326   1.855
14913W        W84794  23.699  33.603  13.980
14914W        W84795   5.337  17.273  14.867
14915W        W84796  28.570  35.853   4.599
14916W        W84797  39.992  24.506  10.591
14917W        W84798  43.485   4.359  11.885
14918W        W84799   4.916  22.607  14.869
14919W        W84800  37.340   0.810  11.480
14920W        W84801  23.999  43.325   3.785
14921W        W84802  35.865  40.404  13.823
14922W        W84803  43.495   7.177  11.918
14923W        W84804   8.378  15.630   4.209
14924W        W84805   7.249  24.075   3.302
14925W        W84806  26.164  31.467   4.316
14926W        W84807  34.483  18.265  13.865
14927W        W84808  15.266  39.858  14.333
14928W        W84809  26.045  15.247   1.364
14929W        W84810  27.545  24.683  14.429
14930W        W84811  36.891   6.684   1.800
14931W        W84812  31.035   6.767   1.775
14932W        W84813  32.502  26.530  13.903
14933W        W84814  17.258  33.531  10.618
14934W        W84815  20.720  35.014  10.931
14935W        W84816   5.377  41.332  12.004
14936W        W84817  44.377  36.953   2.336
14937W        W84818   4.945  35.384  13.890
14938W        W84819   0.869  41.399   4.163
14939W        W84820  41.825  42.853  10.028
14940W        W84821  35.104  44.433  11.871
14941W        W84822  32.490  28.166  10.418
14942W        W84823   6.183  31.418   2.800
14943W        W84824  23.184   3.349  13.820
14944W        W84825  20.674  40.878   1.280
14945W        W84826  11.243  26.204   3.226
14946W        W84827   8.766  24.992   5.297
14947W        W84828  41.332  15.800   0.394
14948W        W84829  24.146  13.322  11.900
14949W        W84830  17.687  14.140   1.804
14950W        W84831  10.684  21.752  14.028
14951W        W84832  11.796  16.294  11.121
14952W        W84833  34.915  14.142  11.403
14953W        W84834  27.045  11.854  11.452
14954W        W84835  11.707   6.208  11.511
14955W        W84836   3.217  31.609   2.327
14956W        W84837  25.100  44.396  14.293
14957W        W84838  10.852  20.119   0.454
14958W        W84839  20.735  21.527   1.803
14959W        W84840   3.814  26.535  13.892
14960W        W84841  25.704  29.027  14.988
14961W        W84842  11.731  10.351   5.260
14962W        W84843  28.986  26.629  10.952
14963W        W84844  37.357   7.406   2.231
14964W        W84845  34.045  20.271   1.399
14965W        W84846  16.579  15.287  11.536
14966W        W84847   1.468  42.961   3.346
14967W        W84848  11.296   8.378   3.196
14968W        W84849   7.179  12.759   3.177
14969W        W84850  25.038  21.574  11.915
14970W        W84851  12.657  42.293  10.418
14971W        W84852  42.394   2.738  13.526
14972W        W84853  21.552  12.270   3.213
14973W        W84854  30.954  33.512   3.196
14974W        W84855   5.817  24.073  13.535
14975W        W84856  13.743  39.969  13.903
14976W        W84857  18.785   2.734   1.328
14977W        W84858   0.890  37.059   3.667
14978W        W84859  13.745  21.167  11.599
14979W        W84860  15.612  26.599  12.433
14980W        W84861  27.134   9.153  10.434
14981W        W84862   0.879  11.681  13.320
14982W        W84863  39.886  12.314  13.460
14983W        W84864   5.896  20.156   2.816
14984W        W84865  16.165  40.500   2.890
14985W        W84866  40.398  35.067  11.011
14986W        W84867  29.058  21.074  11.873
14987W        W84868  33.886  13.272  14.857
14988W        W84869  43.894   1.239  12.084
14989W        W84870   4.254  13.783  12.423
14990W        W84871  10.140  30.623  13.535
14991W        W84872  25.672  36.475   1.784
14992W        W84873  39.024  33.040  12.552
14993W        W84874  24.065  37.429   0.772
14994W        W84875  27.161  15.701   2.380
14995W        W84876  10.677  23.680   3.856
14996W        W84877   3.239  20.127  10.577
14997W        W84878  18.135  32.035  13.039
14998W        W84879  10.343  34.870  14.796
14999W        W84880  16.134  18.124   4.336
15000W        W84881  40.824  28.072  12.864
15001W        W84882  34.434  41.808   4.134
15002W        W84883  23.208  19.708   1.216
15003W        W84884   9.676  23.152  14.469
15004W        W84885  22.249  26.000   4.634
15005W        W84886  34.047  33.944  11.119
15006W        W84887   9.767  42.864   3.692
15007W        W84888  15.187  36.975  10.963
15008W        W84889  15.169   8.802  14.833
15009W        W84890   2.262  31.443   1.768
15010W        W84891  41.530   0.832  11.911
15011W        W84892  33.575  19.225   0.831
15012W        W84893  26.116  37.530   0.366
15013W        W84894  29.512  21.159  10.404
15014W        W84895  34.907   7.773  11.596
15015W        W84896   4.427  11.725  12.912
15016W        W84897   8.742  36.450  12.431
15017W        W84898  36.017  22.053  10.640
15018W        W84899   6.292  39.549   0.372
15019W        W84900  19.632   6.902  10.413
15020W        W84901  28.472  13.337   3.632
15021W        W84902   9.389  22.120  11.046
15022W        W84903  42.351  30.450  13.853
15023W        W84904  16.624  43.898   3.779
15024W        W84905   6.871   1.881  13.828
15025W        W84906  10.241  18.064   1.711
15026W        W84907  33.528  34.497  10.569
15027W        W84908  10.243  17.149   3.771
15028W        W84909   9.293   6.243   2.698
15029W        W84910  27.585  19.542  11.575
15030W        W84911  16.574  36.997  10.963
15031W        W84912  37.532  33.591   0.370
15032W        W84913  10.341  14.810   2.274
15033W        W84914  37.494  28.535   0.763
15034W        W84915   1.905  44.481   2.768
15035W        W84916   1.926  20.583  12.521
15036W        W84917   5.255   1.735  14.023
15037W        W84918   3.283  34.942  13.931
15038W        W84919  21.105   0.893  10.645
15039W        W84920  21.098   5.814  13.443
15040W        W84921  12.779  23.611  14.399
15041W        W84922   3.950  23.577  14.295
15042W        W84923   3.955  41.986   2.296
15043W        W84924  20.111   2.276  13.395
15044W        W84925  22.140   7.369  11.086
15045W        W84926  13.676  41.882   4.685
15046W        W84927  25.678  32.540   4.652
15047W        W84928  36.525  32.396   1.349
15048W        W84929  37.023  38.502  11.937
15049W        W84930  29.491  29.082   2.751
15050W        W84931  19.099   8.344  10.923
15051W        W84932  22.535  29.996   1.220
15052W        W84933  22.128  35.528  11.920
15053W        W84934  18.242  42.347  11.608
15054W        W84935   5.755  24.487  13.853
15055W        W84936  22.502  17.101  11.438
15056W        W84937  22.022   3.947   2.871
15057W        W84938  22.639  13.835   0.472
15058W        W84939  44.324  22.172   1.322
15059W        W84940  17.125  33.957   0.332
15060W        W84941   6.721  37.861  12.885
15061W        W84942  21.230  18.674  11.534
15062W        W84943  25.980  19.196  10.408
15063W        W84944  44.824  14.608  14.405
15064W        W84945  11.835  24.521  11.101
15065W        W84946   3.768  42.490   3.149
15066W        W84947  25.015  21.521  12.908
15067W        W84948  43.895  24.632   1.777
15068W        W84949  44.758   2.446   2.201
15069W        W84950  19.699  21.183  10.156
15070W        W84951  13.739  20.114   1.429
15071W        W84952  36.007  43.984  14.967
15072W        W84953  10.718  40.868   2.313
15073W        W84954  16.279  10.666  10.404
15074W        W84955  26.551   0.435   2.811
15075W        W84956   5.705  14.741  14.828
15076W        W84957  27.472  15.578  14.779
15077W        W84958  28.589  34.106  10.605
15078W        W84959   9.388  37.040  12.836
15079W        W84960  31.077   1.829  11.882
15080W        W84961  16.224  21.687   4.193
15081W        W84962  23.687   7.325  14.944
15082W        W84963  36.472  23.140   2.195
15083W        W84964   9.868   5.230   4.743
15084W        W84965  15.286   8.243   3.210
15085W        W84966  37.555  33.595  13.456
15086W        W84967   5.394  26.610  12.552
15087W        W84968  41.351  24.112  14.435
15088W        W84969  18.057  21.745  13.317
15089W        W84970   1.848  42.977  11.598
15090W        W84971  15.587   7.906   1.857
15091W        W84972   5.425  10.192   1.822
15092W        W84973  28.592  36.896   1.865
15093W        W84974   6.393  24.026   5.308
15094W        W84975  40.487   8.861   0.913
15095W        W84976  30.552  30.599  14.363
15096W        W84977  35.379   5.827  10.894
15097W        W84978   9.339  29.983  14.015
15098W        W84979  18.609  14.198  11.469
15099W        W84980  33.914  43.798   3.801
15100W        W84981  32.528  27.052  12.494
15101W        W84982  30.955   8.353  13.362
15102W        W84983  32.601  23.082  11.963
15103W        W84984   5.330  33.969   0.252
15104W        W84985  36.591  17.159   2.772
15105W        W84986  27.675  10.693   0.476
15106W        W84987   7.883  26.614   4.168
15107W        W84988  11.193  26.669  14.800
15108W        W84989  27.080  32.952  12.845
15109W        W84990  38.065  21.580   3.345
15110W        W84991  18.191  17.787  10.540
15111W        W84992  28.026  20.145  14.496
15112W        W84993  11.346  18.054   3.221
15113W        W84994   8.347  40.308  10.415
15114W        W84995  40.954  10.713  13.915
15115W        W84996  29.669   2.904  11.400
15116W        W84997  14.697  21.525   3.784
15117W        W84998   1.360  34.114  11.576
15118W        W84999  18.682  17.579  13.920
15119W        W85000  37.975  34.570   1.313
15120W        W85001  38.440  40.973   3.384
15121W        W85002   9.887  33.012  11.992
15122W        W85003  22.521  37.953  13.460
15123W        W85004  12.670  35.427   4.145
15124W        W85005   3.851  24.165  14.282
15125W        W85006   7.406   7.726  11.068
15126W        W85007  15.795  34.386   1.370
15127W        W85008  36.390  44.478  11.009
15128W        W85009  42.401  36.844  10.423
15129W        W85010   6.204  14.825   2.859
15130W        W85011   4.423  19.696  11.380
15131W        W85012  38.870  19.201   2.256
15132W        W85013  25.593  35.374   1.435
15133W        W85014  35.091  14.830   3.317
15134W        W85015  39.832  23.600   3.859
15135W        W85016  42.500  21.621   1.303
15136W        W85017  15.308  36.516  10.643
15137W        W85018  16.810  17.168   3.803
15138W        W85019   8.707  40.992  14.835
15139W        W85020  16.742  14.760  10.590
15140W        W85021   7.707   1.938   5.181
15141W        W85022   9.725  14.095  13.476
15142W        W85023  44.821  31.416  13.841
15143W        W85024  11.231   8.804  11.955
15144W        W85025  36.349  21.634  12.530
15145W        W85026  33.431  37.340   3.788
15146W        W85027  27.512  31.460   3.763
15147W        W85028   2.915  37.496  14.379
15148W        W85029  30.653  29.058   1.855
15149W        W85030  14.808   9.149  14.017
15150W        W85031   7.912  31.536   1.440
15151W        W85032  16.140  44.359   2.373
15152W        W85033   1.307  37.548  14.904
15153W        W85034  10.862  21.633   4.745
15154W        W85035  27.583  12.199   4.797
15155W        W85036   9.844   0.860  12.960
15156W        W85037  42.867   9.180  12.464
15157W        W85038  30.652  27.081   0.887
15158W        W85039  13.804  33.576   0.922
15159W        W85040  15.296  39.027   1.776
15160W        W85041  11.186  28.435   2.271
15161W        W85042  19.560  12.259   4.348
15162W        W85043  12.263  23.640   3.677
15163W        W85044  37.394   5.322   1.731
15164W        W85045   2.331  28.031   1.890
15165W        W85046  22.014  25.999  14.401
15166W        W85047  26.567  13.613   2.300
15167W        W85048  23.180  15.758  14.437
15168W        W85049  29.646  42.869   0.744
15169W        W85050  41.027  35.545   3.713
15170W        W85051   4.240  30.419   4.645
15171W        W85052  41.828   1.403   4.116
15172W        W85053  10.730  10.351   3.346
15173W        W85054  10.165  22.732  10.893
15174W        W85055  22.030  24.723   1.740
15175W        W85056  38.531   6.405  11.576
15176W        W85057  41.295  15.792  11.465
15177W        W85058  19.550  41.523  10.565
15178W        W85059  27.466  25.503   5.196
15179W        W85060   3.415   6.827  13.399
15180W        W85061  12.347  42.018  11.894
15181W        W85062   2.318  32.570  11.459
15182W        W85063  28.487   3.445   4.784
15183W        W85064   0.465   8.654  12.416
15184W        W85065  10.732  32.029  11.067
15185W        W85066  23.491  11.829   0.952
15186W        W85067  39.870   1.272   2.183
15187W        W85068  37.543   7.857  14.435
15188W        W85069  10.647  15.655  12.977
15189W        W85070  14.111  19.582   1.426
15190W        W85071  12.140   2.280   4.831
15191W        W85072  42.990   6.377   1.414
15192W        W85073   0.820   0.814  10.888
15193W        W85074  43.987   5.791   4.271
15194W        W85075  11.640  22.604   2.841
15195W        W85076  12.132  13.348   3.710
15196W        W85077  29.972  43.968   3.372
15197W        W85078  27.040  28.050  14.324
15198W        W85079  22.150   4.330  12.942
15199W        W85080   6.746   4.245  12.509
15200W        W85081  27.522  28.976  12.070
15201W        W85082  44.457  13.330  13.969
15202W        W85083  26.470   8.274   3.865
15203W        W85084  44.869   9.819  14.504
15204W        W85085  12.164  35.381  14.933
15205W        W85086  16.122  12.124   1.252
15206W        W85087  25.604  33.592  13.977
15207W        W85088  37.446  36.449   2.198
15208W        W85089  39.065   3.857   3.301
15209W        W85090   8.334   0.789   3.163
15210W        W85091  21.610   9.829  13.034
15211W        W85092  28.137   3.214  13.925
15212W        W85093  38.983  15.780   2.870
15213W        W85094   3.459  25.093   2.666
15214W        W85095   8.885   8.190  14.926
15215W        W85096  34.448  14.112   3.155
15216W        W85097  21.083  12.641  10.989
15217W        W85098  36.848  23.226   0.289
15218W        W85099  11.316  28.546   2.846
15219W        W85100  10.815  24.003  12.028
15220W        W85101  11.642  16.237  12.865
15221W        W85102  21.210  28.177  10.495
15222W        W85103  21.133   5.358   0.291
15223W        W85104   4.860  41.916  14.935
15224W        W85105  43.019  43.942   4.750
15225W        W85106  35.420  25.002   3.165
15226W        W85107  16.590  32.584   4.601
15227W        W85108  12.666  10.686   4.261
15228W        W85109  41.365   4.369   3.667
15229W        W85110  19.638  40.948  11.595
15230W        W85111  20.703  10.650  13.793
15231W        W85112  31.515  16.230  11.505
15232W        W85113  23.683  27.570  10.985
15233W        W85114  24.543  43.871   1.284
15234W        W85115  16.300  14.765   2.902
15235W        W85116  23.099  24.602   2.793
15236W        W85117  31.082  44.431   1.302
15237W        W85118   0.918  40.403   0.458
15238W        W85119  29.436  11.316   0.280
15239W        W85120  40.925  40.435   0.821
15240W        W85121  22.620   0.493   0.872
15241W        W85122   0.485   8.183   4.699
15242W        W85123  14.800   3.217   0.905
15243W        W85124  19.599  10.235   1.339
15244W        W85125   2.913   6.289   3.732
15245W        W85126   3.897  22.228   0.278
15246W        W85127  21.564  43.391   1.262
15247W        W85128  21.738  22.176   2.260
15248W        W85129  15.318  25.550   4.119
15249W        W85130  13.723  38.902   2.247
15250W        W85131  26.595  11.657  12.011
15251W        W85132   6.831  17.585   3.296
15252W        W85133   6.377   3.310   5.197
15253W        W85134   5.427   7.854  10.902
15254W        W85135   1.878  34.444  10.479
15255W        W85136  23.558  21.524   1.793
15256W        W85137  41.003   7.256   2.831
15257W        W85138  17.579  23.164  13.844
15258W        W85139   4.377   2.743   4.763
15259W        W85140  11.290  38.498  11.509
15260W        W85141  19.097  26.584   4.704
15261W        W85142   4.340  39.044   3.191
15262W        W85143  39.540  14.311  10.910
15263W        W85144  30.458   0.843  14.951
15264W        W85145  26.089  39.466  13.844
15265W        W85146  37.483  25.203   1.224
15266W        W85147  44.262  19.270   1.803
15267W        W85148   6.226  13.311   4.130
15268W        W85149  17.596   0.472  14.380
15269W        W85150  20.678  22.697   2.384
15270W        W85151  21.020  37.436  10.409
15271W        W85152  33.508  31.911  13.033
15272W        W85153  18.268   9.392  14.305
15273W        W85154   7.328  19.192  13.313
15274W        W85155  10.816  16.569  10.470
15275W        W85156   4.243  15.762  10.495
15276W        W85157   2.470  31.464  11.088
15277W        W85158  24.505  42.881   2.712
15278W        W85159  35.017  39.033   2.677
15279W        W85160   8.828   6.204   2.357
15280W        W85161  11.658  27.574   0.361
15281W        W85162  41.920   5.419   1.930
15282W        W85163   0.394  14.308  11.402
15283W        W85164  24.560   7.266  11.916
15284W        W85165  21.543  11.161  14.487
15285W        W85166  18.550  30.986   4.184
15286W        W85167  44.327  10.379   3.849
15287W        W85168  28.047  26.042   5.799
15288W        W85169  21.086  28.497   1.723
15289W        W85170  42.923  27.454   0.364
15290W        W85171   0.881  25.012   4.324
15291W        W85172   7.300  43.855  11.560
15292W        W85173   5.332  37.551  11.565
15293W        W85174  11.809   4.862   0.428
15294W        W85175  13.661  18.773  12.481
15295W        W85176  39.447  17.576  10.590
15296W        W85177   2.244   2.269  12.533
15297W        W85178  42.300  41.459   4.765
15298W        W85179  25.555  43.488  11.855
15299W        W85180  15.712  17.112  14.314
15300W        W85181  14.278   3.231   3.342
15301W        W85182  10.305  25.069   4.734
15302W        W85183  10.313   8.201  10.466
15303W        W85184  21.738  38.563  12.938
15304W        W85185   3.723   0.821  11.930
15305W        W85186   7.705   0.954  10.578
15306W        W85187  25.690  14.595   4.790
15307W        W85188   7.830  18.546   1.438
15308W        W85189  35.403  39.893   2.726
15309W        W85190  39.549  35.089  14.504
15310W        W85191  26.099  18.759   4.772
15311W        W85192   8.774   7.885   1.884
15312W        W85193   6.245  28.436  12.870
15313W        W85194  33.029  43.350   1.306
15314W        W85195  20.247  25.984  13.400
15315W        W85196  43.448  15.633   1.215
15316W        W85197  36.455  36.501  14.769
15317W        W85198  11.236  37.833   3.809
15318W        W85199  27.197  22.616  14.851
15319W        W85200  42.526  35.370  10.513
15320W        W85201  31.938  12.185  12.516
15321W        W85202  24.622   9.804  13.836
15322W        W85203  28.186  19.663   1.288
15323W        W85204   4.891   1.424   1.398
15324W        W85205  38.401  30.520  10.529
15325W        W85206  25.677  24.033   2.238
15326W        W85207  42.827  44.386   1.229
15327W        W85208  24.517   1.293   3.642
15328W        W85209  43.986  21.654   0.402
15329W        W85210  18.093  30.982   4.217
15330W        W85211   5.354  41.430  12.545
15331W        W85212  14.191   1.752   4.255
15332W        W85213  41.814  40.873  11.860
15333W        W85214  29.988   0.744  10.585
15334W        W85215  39.556   9.322   1.906
15335W        W85216   2.445  43.426   1.422
15336W        W85217  42.426   4.362  13.511
15337W        W85218   5.344  33.619  11.434
15338W        W85219  20.194  41.441  13.827
15339W        W85220   3.777  20.074  10.425
15340W        W85221  22.220  34.043  14.315
15341W        W85222  10.326  27.466  10.543
15342W        W85223  18.196  35.893   4.815
15343W        W85224   1.875  39.530   1.409
15344W        W85225  11.299   0.984  13.031
15345W        W85226   0.987  17.134  14.505
15346W        W85227  14.825  10.223  11.901
15347W        W85228   1.270  37.581   0.353
15348W        W85229  43.438  22.712   1.923
15349W        W85230  39.535  43.804  10.951
15350W        W85231  39.868  37.510   4.601
15351W        W85232  30.985  24.011   4.324
15352W        W85233   4.440  42.383  12.579
15353W        W85234  25.500  24.072  10.026
15354W        W85235   3.904  22.531  13.532
15355W        W85236  40.932  42.914  13.417
15356W        W85237  42.926  42.844   1.213
15357W        W85238  16.098  23.706   0.856
15358W        W85239  17.086  36.383   0.824
15359W        W85240  43.842  15.663  10.957
15360W        W85241   1.892  12.705  12.009
15361W        W85242  35.059  22.109  10.518
15362W        W85243  35.583  39.447   2.816
15363W        W85244  18.050  21.639  10.497
15364W        W85245  35.045  23.009   2.248
15365W        W85246   6.374  27.474   2.790
15366W        W85247  41.424   0.877  11.102
15367W        W85248  28.111  11.801  13.319
15368W        W85249  42.518   5.252   0.338
15369W        W85250  17.729  19.190   1.231
15370W        W85251  26.201  33.112   2.824
15371W        W85252   2.733  25.996  10.514
15372W        W85253  36.991  33.398  14.417
15373W        W85254  39.511  23.655   5.288
15374W        W85255  24.157  14.795   3.667
15375W        W85256   5.210  12.274  12.927
15376W        W85257  40.449  34.392  12.994
15377W        W85258  12.794  10.657  12.086
15378W        W85259  23.685  15.820   2.890
15379W        W85260  17.157   9.347  11.123
15380W        W85261   4.256  18.145  11.068
15381W        W85262  38.427  21.602   2.708
15382W        W85263  23.579   8.889   0.254
15383W        W85264   3.347  21.230   3.147
15384W        W85265  12.813  24.532  12.908
15385W        W85266   9.656   4.229  13.537
15386W        W85267  26.643  19.615   1.241
15387W        W85268   5.298   1.840  12.548
15388W        W85269  19.774   8.817  10.107
15389W        W85270  43.356  29.096  13.328
15390W        W85271  40.024  43.354   0.344
15391W        W85272  24.629  34.393  10.450
15392W        W85273  40.891  27.670   3.208
15393W        W85274  14.754   0.388  14.504
15394W        W85275  38.842  19.223  11.457
15395W        W85276   5.387   7.710   0.255
15396W        W85277  12.155  21.058  13.889
15397W        W85278   1.809  30.130   2.304
15398W        W85279  27.103  38.926   2.307
15399W        W85280   8.223  21.073   1.862
15400W        W85281  16.233  22.036  14.947
15401W        W85282  17.284  19.109   4.228
15402W        W85283   3.756  34.413  13.522
15403W        W85284  10.271  12.118  11.052
15404W        W85285  37.908   7.846   1.244
15405W        W85286  37.382  17.148   3.186
15406W        W85287   1.779  42.829   3.275
15407W        W85288  20.527   2.408   0.922
15408W        W85289  32.605  19.546  14.985
15409W        W85290  29.095  10.743   0.280
15410W        W85291  43.987  41.965   4.196
15411W        W85292   4.756  23.115  11.901
15412W        W85293  13.832   3.441  14.908
15413W        W85294   7.318  38.867   1.216
15414W        W85295  41.893   8.683  11.933
15415W        W85296  18.550  25.033   9.993
15416W        W85297  22.188  38.051  14.765
15417W        W85298  11.177  21.198  10.583
15418W        W85299  19.776  32.514   1.923
15419W        W85300  29.926  15.190   2.850
15420W        W85301  42.489  30.139   2.313
15421W        W85302  16.188  41.519   5.242
15422W        W85303   6.688   9.881  12.089
15423W        W85304  40.503  39.515   0.432
15424W        W85305   3.265  32.041  10.620
15425W        W85306  19.188  18.681   3.215
15426W        W85307   8.742   7.396  12.979
15427W        W85308  15.239  44.361   2.814
15428W        W85309  35.363  15.083   0.469
15429W        W85310  41.885   5.431   3.665
15430W        W85311  37.535  39.486   3.823
15431W        W85312  33.382   2.950   1.766
15432W        W85313  37.965  37.452   4.753
15433W        W85314  27.001   8.708   0.933
15434W        W85315  21.051  22.235   0.946
15435W        W85316  18.160  25.629   1.768
15436W        W85317  13.826   8.296   2.201
15437W        W85318  21.191   1.322  11.401
15438W        W85319  34.478  31.941  12.425
15439W        W85320  27.685  28.989  14.963
15440W        W85321  14.277  18.061  14.942
15441W        W85322  35.905  35.420  11.572
15442W        W85323  38.949  24.697   0.329
15443W        W85324  32.595  22.044  12.533
15444W        W85325   2.813  17.222  10.441
15445W        W85326  34.984  42.465   1.791
15446W        W85327  26.103  27.069  12.426
15447W        W85328  32.123   6.832   3.799
15448W        W85329  43.855  19.580  10.420
15449W        W85330  19.591   3.290  13.396
15450W        W85331   7.389   7.876  14.419
15451W        W85332  35.953  36.091  12.526
15452W        W85333  18.149   5.904   3.701
15453W        W85334  18.226  13.201   2.374
15454W        W85335  35.434   7.397   1.285
15455W        W85336  15.695  21.561   1.216
15456W        W85337  22.670   0.300   2.419
15457W        W85338  19.640  11.372  12.470
15458W        W85339  25.104  29.166  10.607
15459W        W85340  30.579  40.987   3.162
15460W        W85341  17.637  21.522  12.576
15461W        W85342  36.970  36.008   4.689
15462W        W85343  38.571  26.100   4.691
15463W        W85344  17.071  34.995  11.069
15464W        W85345  37.009  11.768   2.227
15465W        W85346  20.543  30.462  10.929
15466W        W85347  23.578  25.471  13.491
15467W        W85348   8.257  14.800   3.358
15468W        W85349  19.549  18.731   0.735
15469W        W85350  29.667  30.540  13.886
15470W        W85351  37.855   1.237   0.466
15471W        W85352   8.859  35.501  10.938
15472W        W85353  10.789  33.088   4.746
15473W        W85354   6.267  40.453  10.501
15474W        W85355  14.195  16.641  14.475
15475W        W85356   2.227  17.772  13.820
15476W        W85357  30.919  36.557   1.247
15477W        W85358  15.170  12.726  14.019
15478W        W85359   5.199  39.964  13.819
15479W        W85360  12.303  32.572   4.173
15480W        W85361  19.681   4.790   2.889
15481W        W85362  38.518  22.149  12.476
15482W        W85363  38.003  27.193  14.511
15483W        W85364   6.837   8.183  13.424
15484W        W85365  24.683  36.540   1.253
15485W        W85366  17.727   1.835   0.473
15486W        W85367  28.169  35.091   1.856
15487W        W85368   8.179  28.463  12.059
15488W        W85369  36.573  26.114   2.329
15489W        W85370  15.755  43.421  10.446
15490W        W85371   7.397  15.774  10.892
15491W        W85372  10.194  39.874  10.630
15492W        W85373  36.490   4.719  14.464
15493W        W85374  13.654  12.707  11.033
15494W        W85375  13.704  26.476   3.701
15495W        W85376  27.021  26.182   3.795
15496W        W85377  32.592   8.713  12.993
15497W        W85378  19.090  19.163   4.740
15498W        W85379  43.302  23.133  10.581
15499W        W85380  12.235   8.307   4.780
15500W        W85381  39.988  36.860   4.795
15501W        W85382  14.689  44.993   0.390
15502W        W85383   0.749   0.864   3.790
15503W        W85384   0.263  17.615   4.282
15504W        W85385  38.434  13.689   2.189
15505W        W85386  40.985  33.041  12.846
15506W        W85387  37.939  12.356   2.403
15507W        W85388  32.634  39.320  11.433
15508W        W85389   4.339  15.717   2.240
15509W        W85390  13.692  23.731   4.346
15510W        W85391   6.265  44.799  12.421
15511W        W85392  22.586  24.154  12.557
15512W        W85393   1.452  39.449   4.692
15513W        W85394  17.226  34.524   3.672
15514W        W85395  31.450   0.490  12.373
15515W        W85396  32.491  29.942   3.810
15516W        W85397  26.186  25.059  14.437
15517W        W85398  38.885  25.657  14.462
15518W        W85399   2.880   3.425  12.063
15519W        W85400  15.823   8.872   4.698
15520W        W85401  20.110  34.537   0.966
15521W        W85402  33.482  36.952   3.746
15522W        W85403  20.529  14.741   3.261
15523W        W85404  41.967  32.549  12.050
15524W        W85405  44.939  11.325   4.289
15525W        W85406   6.842  39.808   4.723
15526W        W85407  10.788   6.351  10.627
15527W        W85408   2.787  32.002  11.883
15528W        W85409  37.927   4.829   3.772
15529W        W85410  19.735  29.002  12.442
15530W        W85411  14.705  31.448   1.734
15531W        W85412  33.470  44.339  10.546
15532W        W85413  44.830  19.070   1.226
15533W        W85414  16.744  17.717  14.367
15534W        W85415  31.582  37.451  10.550
15535W        W85416  13.140  25.003   3.814
15536W        W85417  37.920  11.731  14.459
15537W        W85418   0.872   1.794   0.727
15538W        W85419  28.106  25.014   3.799
15539W        W85420  11.290   0.967   4.737
15540W        W85421  43.888   2.964  14.442
15541W        W85422  29.636  39.526  10.488
15542W        W85423   0.460  16.251   4.319
15543W        W85424  18.589  40.399   2.211
15544W        W85425  44.804  43.839  14.354
15545W        W85426   4.934  26.662   5.158
15546W        W85427  36.011   8.733  13.880
15547W        W85428  33.526  26.598   3.197
15548W        W85429  20.228  24.137  14.508
15549W        W85430  31.497  12.816  14.866
15550W        W85431  13.155  32.574  12.393
15551W        W85432   8.726  40.974   3.291
15552W        W85433   5.876  38.857  13.893
15553W        W85434  36.437  14.715   0.323
15554W        W85435  30.539  39.342   4.645
15555W        W85436  43.425  37.060   4.126
15556W        W85437   3.292   5.321  10.453
15557W        W85438  35.098  34.043  13.879
15558W        W85439  25.078  43.373  14.307
15559W        W85440  44.310   2.890  14.302
15560W        W85441  41.886  10.674  12.008
15561W        W85442  32.567  43.798  13.382
15562W        W85443  40.521   7.884  10.891
15563W        W85444  26.207  43.893   0.900
15564W        W85445   5.365  35.907   0.274
15565W        W85446   9.889  22.199  11.050
15566W        W85447  10.728  12.817   0.782
15567W        W85448  34.586  41.904  11.949
15568W        W85449  38.463   4.303   2.282
15569W        W85450  16.165  36.487  10.425
15570W        W85451   2.417  28.502  14.492
15571W        W85452  37.523  33.897  10.531
15572W        W85453  22.585  37.577   1.796
15573W        W85454  44.824  15.327   3.740
15574W        W85455  44.489   4.283   2.707
15575W        W85456  32.026  36.425  11.105
15576W        W85457  24.140   2.777  14.851
15577W        W85458  33.456  39.928   3.210
15578W        W85459  36.378  27.167  12.061
15579W        W85460  18.784  18.206   1.327
15580W        W85461  20.767  30.125  13.059
15581W        W85462  15.229  32.468  14.992
15582W        W85463  38.885  34.117  14.871
15583W        W85464  28.109  22.509  14.910
15584W        W85465  30.964  39.528   0.785
15585W        W85466  38.073  27.986   0.894
15586W        W85467  44.485  32.089  14.482
15587W        W85468  33.452  14.731   0.777
15588W        W85469   8.873  23.067  12.570
15589W        W85470   8.348  28.163  14.331
15590W        W85471  28.101  43.000   3.293
15591W        W85472  10.279  19.589  14.932
15592W        W85473  39.948  31.628   4.742
15593W        W85474  35.598  39.414   0.932
15594W        W85475  24.053  43.374   4.731
15595W        W85476  22.188  27.612  10.973
15596W        W85477  30.437  38.408  14.458
15597W        W85478   3.443  43.876  14.896
15598W        W85479  16.687  33.107  10.968
15599W        W85480   3.304  41.849  11.984
15600W        W85481  27.019  40.486   0.381
15601W        W85482  42.342  43.010  12.495
15602W        W85483  17.191  43.922  14.955
15603W        W85484  42.027  30.152   4.300
15604W        W85485  30.524  23.055  11.461
15605W        W85486  36.510  15.608   2.692
15606W        W85487  31.934  44.330   5.241
15607W        W85488   6.279  43.985  14.325
15608W        W85489   6.684   5.745   2.256
15609W        W85490  35.573  34.431   1.914
15610W        W85491  11.653  44.945  11.563
15611W        W85492  44.766  38.923  12.980
15612W        W85493  30.014   7.271  14.835
15613W        W85494  12.855  44.305  12.526
15614W        W85495  40.466   8.881  12.962
15615W        W85496  40.349  12.613  14.830
15616W        W85497  35.895  31.033   4.681
15617W        W85498   8.733   5.768   1.213
15618W        W85499  38.408  44.966  11.068
15619W        W85500   1.257   5.365   1.905
15620W        W85501  31.426   7.401  14.476
15621W        W85502  37.571  26.115   1.261
15622W        W85503  33.068  29.598  14.499
15623W        W85504  39.412  34.015  14.501
15624W        W85505  36.402   3.789  14.841
15625W        W85506  14.714  21.527   1.824
15626W        W85507  27.032  12.732  10.466
15627W        W85508  42.328  18.070   1.305
15628W        W85509  38.559  14.835  13.986
15629W        W85510  22.103  12.247  14.384
15630W        W85511   7.305  15.116   2.202
15631W        W85512  32.466  38.568  11.982
15632W        W85513  28.043  25.654   2.376
15633W        W85514  13.261  42.890  11.389
15634W        W85515  39.023   3.718   4.141
15635W        W85516  11.679   5.286   3.648
15636W        W85517   9.176   1.385   0.296
15637W        W85518  10.717  32.557   0.367
15638W        W85519  13.179  34.001   1.918
15639W        W85520  29.140  34.042  10.591
15640W        W85521   9.324  18.199   2.255
15641W        W85522  43.509   0.811  12.378
15642W        W85523  33.898  24.198  14.997
15643W        W85524  25.692   0.364  14.470
15644W        W85525  33.391  33.427   0.276
15645W        W85526   0.748   6.245  12.934
15646W        W85527  38.038  32.525  12.943
15647W        W85528  43.891  37.343  13.044
15648W        W85529   7.778   5.805   3.800
15649W        W85530   3.279  14.683   0.942
15650W        W85531   5.226  23.562  13.952
15651W        W85532   3.940  39.493  12.091
15652W        W85533  36.556  41.451   4.116
15653W        W85534  13.250  11.677  10.473
15654W        W85535  19.605  19.612  14.996
15655W        W85536  29.023   7.884   1.215
15656W        W85537  35.101  37.501   2.901
15657W        W85538   4.404  21.180  13.820
15658W        W85539  33.024  44.492  11.858
15659W        W85540  25.114  20.666   4.723
15660W        W85541  42.384  24.115  14.474
15661W        W85542  42.337  15.672   1.772
15662W        W85543   7.768   4.715   4.320
15663W        W85544  14.689  22.175  11.041
15664W        W85545  17.772  19.735  12.856
15665W        W85546  26.663  11.862   1.420
15666W        W85547  14.274  14.340  14.016
15667W        W85548  22.140  41.359  10.512
15668W        W85549   1.382  27.526   2.242
15669W        W85550   3.377  44.845  11.532
15670W        W85551  30.492   5.195   1.791
15671W        W85552  24.490   6.826   0.745
15672W        W85553   2.961  19.695   0.339
15673W        W85554  41.491  21.546   3.344
15674W        W85555  14.687  14.148  13.866
15675W        W85556  26.093  33.390   0.243
15676W        W85557  34.011   9.377   3.821
15677W        W85558  15.788   1.453  14.465
15678W        W85559  17.662  41.482   3.246
15679W        W85560  40.546  18.182  14.798
15680W        W85561  20.756  41.873  13.377
15681W        W85562  24.702  20.687  12.398
15682W        W85563  18.572  28.063   3.364
15683W        W85564  24.681   7.775   0.787
15684W        W85565  26.591   8.346   1.727
15685W        W85566  42.848  18.631   4.130
15686W        W85567  43.443   7.313   5.228
15687W        W85568   2.238  10.208   3.738
15688W        W85569  39.982  15.313   1.226
15689W        W85570  31.416  39.940  13.489
15690W        W85571  30.645  35.055  12.575
15691W        W85572  37.383  13.731  12.029
15692W        W85573   6.909   0.860  13.327
15693W        W85574  18.149  13.727  13.930
15694W        W85575  33.457  30.135   4.653
15695W        W85576  37.885  39.854   2.728
15696W        W85577  34.942   9.367  14.993
15697W        W85578  28.118  10.207   5.203
15698W        W85579  30.092  20.183   2.880
15699W        W85580  39.917  14.811  10.606
15700W        W85581  24.094  22.011   2.849
15701W        W85582   9.286  25.051   3.354
15702W        W85583  10.856  12.163   2.801
15703W        W85584  36.012  24.718  14.473
15704W        W85585  13.689   6.248   2.227
15705W        W85586   1.318  26.656   0.456
15706W        W85587  14.622  43.301  11.612
15707W        W85588   5.421   9.664  14.408
15708W        W85589  40.393  40.486   1.724
15709W        W85590  14.725  21.256  10.507
15710W        W85591  21.225  37.451   3.230
15711W        W85592  28.034  27.593  14.761
15712W        W85593  24.699  29.056   1.770
15713W        W85594  31.510  37.990  12.967
15714W        W85595  13.262  29.434  13.332
15715W        W85596   2.789  15.184  13.537
15716W        W85597  35.481  42.298   3.352
15717W        W85598   7.870   9.246  14.865
15718W        W85599  15.084  17.752   0.334
15719W        W85600   3.235  40.479   4.678
15720W        W85601  39.473   5.757  12.877
15721W        W85602  31.045  13.609  12.974
15722W        W85603   3.720  36.992  12.574
15723W        W85604  12.721  34.470   3.359
15724W        W85605   2.339  13.275  14.901
15725W        W85606   2.348   8.785  12.399
15726W        W85607  14.782  21.170   1.289
15727W        W85608  29.054  13.251   3.822
15728W        W85609  30.638  15.255  14.971
15729W        W85610  31.631  24.597  11.031
15730W        W85611   1.811  31.010   2.762
15731W        W85612  14.712   7.808  12.858
15732W        W85613  37.555  12.183   1.774
15733W        W85614  20.232  15.210   0.888
15734W        W85615  18.211  21.207  14.819
15735W        W85616  26.625   2.356   3.667
15736W        W85617  25.695  43.884   3.188
15737W        W85618  20.681   8.665   0.756
15738W        W85619  33.011  33.878  10.428
15739W        W85620  43.507  10.717   1.228
15740W        W85621  44.457  16.574  14.363
15741W        W85622  22.692   7.198   4.727
15742W        W85623  25.979  13.232   1.760
15743W        W85624  39.031  36.547   1.876
15744W        W85625  35.068  30.008   3.333
15745W        W85626  39.871   3.256  12.906
15746W        W85627  11.250  13.347   4.294
15747W        W85628  33.917  23.580  12.026
15748W        W85629  19.704  16.177   3.820
15749W        W85630  37.924   6.277   0.744
15750W        W85631  24.140   5.376   1.327
15751W        W85632  36.393  43.809  11.022
15752W        W85633  28.115  27.128  12.946
15753W        W85634   9.872   9.755   2.809
15754W        W85635   5.741  22.019   0.881
15755W        W85636  20.534   2.839  12.435
15756W        W85637  20.767   1.748   0.456
15757W        W85638  32.617  42.882  14.833
15758W        W85639   9.270  31.086   3.163
15759W        W85640  19.091  19.740   1.401
15760W        W85641   4.313  21.674   1.361
15761W        W85642   2.360  20.181   2.774
15762W        W85643   4.819   1.912  13.527
15763W        W85644  26.511  43.372   1.792
15764W        W85645  37.016  10.160  13.345
15765W        W85646  40.521  32.970  11.494
15766W        W85647  39.814  43.796  11.116
15767W        W85648  14.096  23.159   2.227
15768W        W85649  40.523  27.970  10.118
15769W        W85650   5.779  10.232  13.983
15770W        W85651   7.860  18.707   3.868
15771W        W85652   4.921  28.136  11.884
15772W        W85653  29.981   0.457  11.418
15773W        W85654  42.501  35.078  14.319
15774W        W85655  10.709  40.020  14.863
15775W        W85656  12.191  12.789   1.333
15776W        W85657  30.152   3.252  10.951
15777W        W85658  26.117  21.154  10.437
15778W        W85659  42.826  27.123   3.379
15779W        W85660  34.549  44.938  12.988
15780W        W85661  37.344  28.564   1.255
15781W        W85662  15.279  33.387   1.866
15782W        W85663  24.231   6.416   1.865
15783W        W85664  21.249  40.054  13.548
15784W        W85665  35.376  40.539  12.912
15785W        W85666  42.419  21.179  12.079
15786W        W85667  16.791  33.929  11.463
15787W        W85668  35.852  13.808  12.868
15788W        W85669  37.937  34.896  12.574
15789W        W85670  13.221  39.397  11.099
15790W        W85671  32.112   8.271  14.312
15791W        W85672  44.868  28.638  12.491
15792W        W85673   0.406  32.447  14.442
15793W        W85674  14.178  27.519  14.362
15794W        W85675  14.808  43.808  12.554
15795W        W85676  16.597  34.514   0.812
15796W        W85677   2.851  25.045  13.839
15797W        W85678   8.405  15.168   3.709
15798W        W85679  44.456  32.548   3.813
15799W        W85680  36.976  30.597  11.121
15800W        W85681  11.855   8.309  14.893
15801W        W85682   2.335   8.873  14.896
15802W        W85683  25.101  12.852   4.296
15803W        W85684   7.180   1.238  11.067
15804W        W85685  31.994  25.490   5.088
15805W        W85686  17.285  14.235  11.610
15806W        W85687  25.605  39.903  12.978
15807W        W85688   1.460  39.956  11.006
15808W        W85689  13.772   9.770   4.216
15809W        W85690   6.264  43.348  10.555
15810W        W85691  13.161  23.679  13.027
15811W        W85692  35.016   9.835   1.716
15812W        W85693  43.966  38.874  13.937
15813W        W85694  21.253  17.716   0.775
15814W        W85695  42.415  29.474   3.710
15815W        W85696  42.404  26.695   4.721
15816W        W85697  31.413  38.523   3.372
15817W        W85698  31.000  11.820   2.869
15818W        W85699  19.086  17.691  14.798
15819W        W85700  32.629  18.192   5.102
15820W        W85701  11.194  19.592   4.800
15821W        W85702  21.526  21.213  11.564
15822W        W85703  26.487  28.568   4.632
15823W        W85704  30.541  14.798  12.450
15824W        W85705  13.343   3.717   4.827
15825W        W85706   5.374  14.601   0.801
15826W        W85707   7.890   4.316   2.203
15827W        W85708  17.244  22.189  14.371
15828W        W85709  25.053  23.201   3.335
15829W        W85710  30.940  15.618  10.922
15830W        W85711  40.390  42.868   0.317
15831W        W85712  31.438  20.162   2.750
15832W        W85713   3.765  44.424   2.410
15833W        W85714  34.044  41.393   4.634
15834W        W85715  12.625  14.635  12.488
15835W        W85716  14.650   6.878  10.433
15836W        W85717  41.908  27.124   4.750
15837W        W85718  20.756   7.356  11.859
15838W        W85719  15.242  22.705  10.975
15839W        W85720  32.976  12.707   2.194
15840W        W85721  37.439  32.046  12.571
15841W        W85722   9.711   8.322  10.893
15842W        W85723  27.650  34.949   3.839
15843W        W85724  23.136  37.902   1.298
15844W        W85725  14.607  29.460  13.351
15845W        W85726   4.755  30.617  13.493
15846W        W85727   8.323   4.791  11.017
15847W        W85728  22.033   4.880  13.529
15848W        W85729  10.677  31.594  11.042
15849W        W85730  17.065   1.890   4.215
15850W        W85731  38.068   5.222  12.388
15851W        W85732  12.838   2.962  13.462
15852W        W85733   3.894  28.945  11.116
15853W        W85734  14.650  37.034  13.396
15854W        W85735  25.966   0.917   3.638
15855W        W85736  31.573  42.933   3.383
15856W        W85737  36.454  29.021  10.111
15857W        W85738  23.029   8.723   3.852
15858W        W85739  15.247  44.260   0.888
15859W        W85740   9.333  27.973  14.348
15860W        W85741  22.163  13.315   3.786
15861W        W85742   3.752  14.332  10.122
15862W        W85743   8.214  11.147  10.536
15863W        W85744  44.969   8.818   2.351
15864W        W85745  26.123   3.837   3.646
15865W        W85746  31.030  44.919   3.372
15866W        W85747   0.415  27.947  11.953
15867W        W85748  33.911  15.128   3.732
15868W        W85749   2.845   7.834  14.898
15869W        W85750  10.252  26.141  10.978
15870W        W85751  43.393  23.669  14.971
15871W        W85752  38.040  24.543  13.914
15872W        W85753  30.108  13.671   4.174
15873W        W85754  21.210  14.278  11.084
15874W        W85755  26.068  24.634  14.805
15875W        W85756   9.360  42.380  11.070
15876W        W85757  21.113  17.263   4.745
15877W        W85758  21.064   3.261  11.855
15878W        W85759  26.570   3.911   0.293
15879W        W85760  13.233  38.016  12.405
15880W        W85761  36.964  33.474  11.090
15881W        W85762  34.903  34.463   3.337
15882W        W85763   2.958  17.687   3.756
15883W        W85764  21.128  11.658   5.144
15884W        W85765  28.940  25.520  14.004
15885W        W85766  16.300  22.603   4.213
15886W        W85767  11.306   9.772   3.369
15887W        W85768  25.650  10.204  13.388
15888W        W85769  38.365  17.648   2.227
15889W        W85770  40.422  29.928   3.306
15890W        W85771  25.558   6.288  10.532
15891W        W85772  30.006  38.027   2.219
15892W        W85773  24.569  44.754   1.906
15893W        W85774  32.597  22.606  10.575
15894W        W85775  16.230  23.018   4.330
15895W        W85776  16.729  20.670  11.512
15896W        W85777  10.691  34.865  11.040
15897W        W85778   0.908   1.457  12.913
15898W        W85779  34.025  29.169  13.997
15899W        W85780  22.688  16.709   1.715
15900W        W85781  26.984   4.743   4.184
15901W        W85782  29.620  16.567  10.478
15902W        W85783  17.065  24.575   4.688
15903W        W85784  36.968  15.195  12.905
15904W        W85785  38.545  11.173  10.983
15905W        W85786  21.589  23.666   4.281
15906W        W85787  41.512  38.332   1.795
15907W        W85788  10.853  22.125  14.859
15908W        W85789  19.267  15.204   4.151
15909W        W85790   1.737  39.468  14.030
15910W        W85791  40.970  27.139   4.712
15911W        W85792  23.004   5.395  10.565
15912W        W85793  36.934  30.959  11.442
15913W        W85794   7.725  10.218   9.960
15914W        W85795  23.235  33.474   4.287
15915W        W85796  19.278  10.325   4.659
15916W        W85797  37.532  18.649   5.244
15917W        W85798  39.996  29.023   3.631
15918W        W85799  27.124   5.261   1.415
15919W        W85800  42.496   4.303   4.695
15920W        W85801   9.332  35.404  12.567
15921W        W85802  36.392  34.438  10.105
15922W        W85803   2.787  12.834  14.886
15923W        W85804  22.194  44.402   2.358
15924W        W85805  32.423   4.227  10.947
15925W        W85806   9.284  29.147   3.732
15926W        W85807  14.194   3.380   0.796
15927W        W85808  37.573  11.140  13.824
15928W        W85809  33.938   8.802  12.013
15929W        W85810  28.079  14.222   0.817
15930W        W85811   0.938   5.897   2.704
15931W        W85812  12.756  33.515   2.409
15932W        W85813  22.680  28.089   1.399
15933W        W85814  17.793   8.207  13.425
15934W        W85815   9.866  33.499  12.381
15935W        W85816  18.075  31.969  12.034
15936W        W85817   5.347  40.446   4.175
15937W        W85818  41.512  14.709  12.424
15938W        W85819  18.610  30.075  14.827
15939W        W85820  38.348  18.636   3.227
15940W        W85821  32.585  23.633  14.474
15941W        W85822  35.384  37.529  11.605
15942W        W85823  23.239  26.060  14.963
15943W        W85824   6.918  27.064   4.259
15944W        W85825  32.417  23.659  11.462
15945W        W85826  26.609  25.077  12.906
15946W        W85827   2.450  42.456   0.280
15947W        W85828  31.075  35.040  14.787
15948W        W85829   6.780   1.732   3.364
15949W        W85830  35.599  43.766  14.427
15950W        W85831  29.562  13.723   1.931
15951W        W85832  44.491   0.785   0.481
15952W        W85833  38.344  36.417  13.323
15953W        W85834  19.671  17.749  10.584
15954W        W85835  36.547   3.792  11.490
15955W        W85836  44.999   6.275  11.128
15956W        W85837  13.191   9.286   4.128
15957W        W85838  18.183  13.790  12.382
15958W        W85839  35.365   8.763   4.653
15959W        W85840  40.950  28.456   2.890
15960W        W85841  35.947  21.726  10.609
15961W        W85842  32.456  41.483   3.712
15962W        W85843  12.217  30.139  14.377
15963W        W85844  41.495  20.643   2.289
15964W        W85845  17.250  39.995  13.912
15965W        W85846  33.889  17.114   0.362
15966W        W85847  38.906   8.688   1.296
15967W        W85848   4.773  33.971  13.991
15968W        W85849  26.985  11.242   3.733
15969W        W85850  35.448  22.543  11.114
15970W        W85851   4.352  44.369   2.789
15971W        W85852  37.485  11.686   4.759
15972W        W85853  35.946  35.072  13.972
15973W        W85854  26.990  39.851  12.380
15974W        W85855  13.351  40.400  10.606
15975W        W85856   1.289  44.922  14.288
15976W        W85857  34.494  10.877   3.706
15977W        W85858  17.094  33.459  14.364
15978W        W85859  40.947  11.857  11.589
15979W        W85860   0.940  13.826  10.554
15980W        W85861  34.378   8.223   0.456
15981W        W85862  19.732  23.103  14.925
15982W        W85863  29.041   0.750  14.821
15983W        W85864  26.544  12.246   4.126
15984W        W85865  18.713  24.062   1.758
15985W        W85866  17.562  20.613  12.051
15986W        W85867   2.415   0.813  14.890
15987W        W85868  22.666  27.489   2.407
15988W        W85869   7.743  32.900  11.967
15989W        W85870  10.638   8.715   4.719
15990W        W85871  15.285  25.532  13.801
15991W        W85872  20.056  39.427   4.197
15992W        W85873  31.011  43.369   3.337
15993W        W85874  43.505  24.683   2.706
15994W        W85875  38.071  35.915  13.973
15995W        W85876   0.782   7.351  14.331
15996W        W85877   9.170  34.024   2.702
15997W        W85878  39.489  27.690  14.382
15998W        W85879  31.516  20.627  13.026
15999W        W85880  12.663  14.194   2.798
16000W        W85881   6.852  26.204  14.377
16001W        W85882   0.469  42.358   3.325
16002W        W85883  32.992  25.972  10.550
16003W        W85884  12.183   2.748  11.438
16004W        W85885  25.629  16.714   3.820
16005W        W85886  27.553  14.108   1.319
16006W        W85887  27.666  16.292   0.933
16007W        W85888  32.554  34.482   2.345
16008W        W85889  30.601  27.631  10.487
16009W        W85890  31.520  22.222   0.811
16010W        W85891  39.973  38.404  13.366
16011W        W85892  16.601  16.112  13.320
16012W        W85893  42.865  32.606  13.325
16013W        W85894   0.939  11.822  10.986
16014W        W85895  32.984  26.581  14.867
16015W        W85896  32.420  13.122   0.411
16016W        W85897  25.069  15.295  10.441
16017W        W85898  41.895  22.650  11.522
16018W        W85899   7.367  17.672  12.852
16019W        W85900   8.252  36.543  13.869
16020W        W85901  31.541  26.692  13.795
16021W        W85902  33.619  14.702   2.746
16022W        W85903  34.038  42.353  11.078
16023W        W85904  23.141  44.931  12.978
16024W        W85905  15.781  20.565   3.676
16025W        W85906  35.871  26.163   1.221
16026W        W85907  43.381  20.071   1.757
16027W        W85908   6.252  26.593   4.733
16028W        W85909  15.098  37.520   0.874
16029W        W85910  10.675  16.744   0.440
16030W        W85911  17.560  20.128  10.443
16031W        W85912  19.616  40.481  12.359
16032W        W85913  34.965  11.299   2.404
16033W        W85914  23.729  21.242   4.648
16034W        W85915   4.253  10.171   3.377
16035W        W85916  43.020  33.405  14.777
16036W        W85917  17.737  20.161   0.312
16037W        W85918   8.280  25.561  14.487
16038W        W85919  28.545  13.254  14.441
16039W        W85920  36.975  12.337   2.815
16040W        W85921  31.076  13.619   1.250
16041W        W85922   9.161  12.224   3.341
16042W        W85923  36.954  23.165  10.502
16043W        W85924   8.786  15.756  12.353
16044W        W85925  11.754   2.862  11.568
16045W        W85926  44.818   9.856   1.754
16046W        W85927  17.160  32.622  11.490
16047W        W85928  11.758  19.218  11.555
16048W        W85929  43.504  23.627  13.929
16049W        W85930  30.074  16.094  10.120
16050W        W85931  18.137  27.018   4.676
16051W        W85932  29.967  12.215  10.525
16052W        W85933  11.323  11.770  10.454
16053W        W85934  10.215  37.486  14.476
16054W        W85935  26.521  23.671  12.067
16055W        W85936  22.033  18.081   0.405
16056W        W85937  26.694  31.097  11.065
16057W        W85938  30.923  22.228  13.927
16058W        W85939  17.142  16.650  12.372
16059W        W85940  16.595  21.712  11.929
16060W        W85941  40.473  40.870  14.818
16061W        W85942  32.074   4.740  13.515
16062W        W85943  23.508   4.747   1.801
16063W        W85944   3.911  23.049  12.839
16064W        W85945  38.027  16.148  10.973
16065W        W85946  15.281  37.473  10.071
16066W        W85947   3.738   2.365  11.870
16067W        W85948  18.711  12.680  12.363
16068W        W85949  31.508  24.065  13.904
16069W        W85950  23.024  38.823   1.854
16070W        W85951  31.547  31.128  14.449
16071W        W85952  15.662  40.476  13.493
16072W        W85953  25.105  15.137  13.828
16073W        W85954  22.158  32.594  11.124
16074W        W85955   9.282  20.733   0.827
16075W        W85956  41.866   3.716  13.375
16076W        W85957   0.389  16.277   0.916
16077W        W85958  22.655  35.907  10.515
16078W        W85959  26.969  27.956   2.864
16079W        W85960  31.151   9.189  14.504
16080W        W85961  22.631  35.359   0.872
16081W        W85962   8.700  42.483  11.938
16082W        W85963  14.727   6.256   3.826
16083W        W85964  27.134   1.797   4.652
16084W        W85965  35.934  29.667   1.438
16085W        W85966   6.417  12.208  14.765
16086W        W85967  15.143   7.678   0.754
16087W        W85968  27.529  31.491   0.474
16088W        W85969  30.146  43.334   2.395
16089W        W85970  19.222  30.961   3.811
16090W        W85971   3.714  21.172   4.320
16091W        W85972  26.073  27.660   1.718
16092W        W85973  16.764   3.355   1.741
16093W        W85974  13.339  18.662  14.443
16094W        W85975  37.002   3.418  11.542
16095W        W85976  13.295  27.077   0.462
16096W        W85977  40.991  38.326  11.067
16097W        W85978  41.796  13.202   1.225
16098W        W85979  31.557  16.234   5.572
16099W        W85980  25.513  36.420   3.234
16100W        W85981  33.499  38.914  14.357
16101W        W85982  31.578  31.598   2.303
16102W        W85983  25.472  25.198   2.396
16103W        W85984   6.728  26.177  10.545
16104W        W85985  17.229   8.849  11.895
16105W        W85986   5.258  32.483   2.730
16106W        W85987  25.000  11.227  10.466
16107W        W85988  37.483   1.838  13.900
16108W        W85989  30.964  28.017   3.672
16109W        W85990   2.428  26.041  13.497
16110W        W85991   2.765  16.595  11.983
16111W        W85992   0.269  36.941  11.417
16112W        W85993  10.723  22.184   3.741
16113W        W85994  45.000  32.561  13.320
16114W        W85995   0.311  37.958   0.372
16115W        W85996   5.739  44.793  14.954
16116W        W85997  24.021  43.022   0.301
16117W        W85998  12.734  35.958  12.514
16118W        W85999  39.418  17.660   2.191
16119W        W86000  42.402  34.062   4.214
16120W        W86001   2.900  36.914  10.607
16121W        W86002   7.371  14.816  14.458
16122W        W86003  14.792  28.568   1.294
16123W        W86004   9.200  34.604   3.670
16124W        W86005  16.743  27.666   4.789
16125W        W86006   5.197  34.499   5.107
16126W        W86007  37.390   9.658   0.900
16127W        W86008   1.359  12.143   4.282
16128W        W86009  44.332  31.938   5.150
16129W        W86010  40.888   7.321   3.202
16130W        W86011  15.133  15.173   0.873
16131W        W86012  14.160  27.176  14.845
16132W        W86013  31.112   8.805  14.771
16133W        W86014  16.080  10.336  11.038
16134W        W86015  18.132   6.827  14.452
16135W        W86016  41.493  34.095   4.798
16136W        W86017  43.895   0.913   0.925
16137W        W86018  36.024  10.301  14.840
16138W        W86019  43.008  35.069   1.747
16139W        W86020   1.897  31.508   4.283
16140W        W86021  16.203  40.378  13.861
16141W        W86022  40.921  20.716   0.866
16142W        W86023   5.740   1.427  12.840
16143W        W86024  28.178  24.599  13.980
16144W        W86025  35.857  44.439   0.395
16145W        W86026  26.207  40.418  11.073
16146W        W86027  41.399  18.592  13.039
16147W        W86028  36.946  44.493  13.886
16148W        W86029  41.807  24.632  14.861
16149W        W86030   8.268   9.260  13.450
16150W        W86031  24.103  23.004  12.370
16151W        W86032  18.547  33.125  11.906
16152W        W86033  24.563  40.863   2.395
16153W        W86034  14.635   3.270   1.762
16154W        W86035  39.030  18.735  10.909
16155W        W86036  22.066  23.502  13.318
16156W        W86037  13.314   7.373   3.661
16157W        W86038  26.207  29.502  12.536
16158W        W86039   2.822  28.993  13.532
16159W        W86040  37.036  32.019  12.974
16160W        W86041  20.086  31.942   1.696
16161W        W86042  33.446  17.761  11.899
16162W        W86043  42.496   6.233   0.933
16163W        W86044  35.595   8.264   3.317
16164W        W86045  28.032  36.933   4.219
16165W        W86046  11.767  16.317   9.496
16166W        W86047  29.666   7.314  11.026
16167W        W86048  23.107  10.220  14.910
16168W        W86049   0.321  32.912  13.034
16169W        W86050  24.112   5.329  14.482
16170W        W86051   2.316   4.366  11.069
16171W        W86052  11.247  38.360  10.424
16172W        W86053  32.893  41.513   3.252
16173W        W86054  18.759  13.676   1.837
16174W        W86055   8.245  22.523  13.448
16175W        W86056  20.239  37.569  14.515
16176W        W86057  42.451  10.186   4.685
16177W        W86058  14.265  18.117   4.700
16178W        W86059  22.072  33.930  11.551
16179W        W86060  41.824  21.599  12.439
16180W        W86061  29.604  34.589  12.847
16181W        W86062   8.840  42.983  11.910
16182W        W86063  24.585  10.210  11.104
16183W        W86064  38.557  31.043   3.213
16184W        W86065  36.870  33.061  12.088
16185W        W86066   7.801  16.291  14.361
16186W        W86067  18.733  20.587   3.815
16187W        W86068   6.781  38.014   4.273
16188W        W86069  38.548  16.709  13.039
16189W        W86070  22.157  34.409  12.969
16190W        W86071  27.076  23.199   0.731
16191W        W86072  29.041  33.406   2.239
16192W        W86073  32.426   4.944   3.858
16193W        W86074  27.072   6.219   0.940
16194W        W86075   2.738  15.231   1.256
16195W        W86076  19.148  38.395  14.440
16196W        W86077  12.803  22.073  12.448
16197W        W86078  34.473  11.803  13.820
16198W        W86079   9.319  21.608  13.035
16199W        W86080   4.861  20.729  10.544
16200W        W86081  41.884   3.406   4.118
16201W        W86082  42.886  24.652   4.710
16202W        W86083  25.522   5.389  10.938
16203W        W86084  31.152   2.834  11.938
16204W        W86085   6.379  29.464  13.371
16205W        W86086  40.458  10.870  12.552
16206W        W86087  23.690  32.579  14.456
16207W        W86088  17.665  30.914  11.946
16208W        W86089  13.813  42.298  10.895
16209W        W86090  33.461  18.581   2.256
16210W        W86091   3.380  12.188  14.951
16211W        W86092  11.694   3.308   3.368
16212W        W86093  35.938  39.009   4.311
16213W        W86094  23.121  24.648  13.964
16214W        W86095   0.298  22.218  10.628
16215W        W86096   8.672  26.996  11.458
16216W        W86097   9.235   5.277  11.562
16217W        W86098  29.122   4.356   0.921
16218W        W86099  30.080  20.753  14.442
16219W        W86100   8.274  31.031  14.856
16220W        W86101  42.908  30.912  11.538
16221W        W86102  41.999  21.163   9.972
16222W        W86103  10.197  31.645  13.483
16223W        W86104  43.485   0.852  10.153
16224W        W86105  33.542  16.661   5.273
16225W        W86106  35.106  27.596  12.924
16226W        W86107  20.102  37.546  10.085
16227W        W86108  19.221  34.426  11.459
16228W        W86109   5.918   1.904  14.497
16229W        W86110  15.756  38.412  14.792
16230W        W86111   9.290  37.901   4.704
16231W        W86112   6.352  17.087  12.966
16232W        W86113  30.656  16.800   5.093
16233W        W86114  11.865  10.856   0.944
16234W        W86115  31.980   6.772  10.934
16235W        W86116  26.103  35.563   1.829
16236W        W86117   1.258  15.619   2.338
16237W        W86118  28.077  29.628   4.785
16238W        W86119  38.553  11.196  12.921
16239W        W86120  41.498  17.102  11.098
16240W        W86121  15.229   3.860   2.206
16241W        W86122  37.868   7.679  14.017
16242W        W86123  27.994  43.014  11.592
16243W        W86124  13.242   2.263  13.017
16244W        W86125  15.817   8.762  11.557
16245W        W86126   5.874   8.854  11.885
16246W        W86127  23.145  19.602  13.525
16247W        W86128  37.441  28.972   3.748
16248W        W86129  31.557  19.114  13.983
16249W        W86130  14.274  13.839  10.507
16250W        W86131   1.372  28.946   1.232
16251W        W86132  31.469   2.401   3.369
16252W        W86133   7.320  10.727  12.088
16253W        W86134  20.562  24.188   4.334
16254W        W86135   2.316  36.557   4.152
16255W        W86136   1.480   0.830   1.315
16256W        W86137   4.713   3.872   1.757
16257W        W86138   1.735  25.996  14.502
16258W        W86139  37.910   4.315   3.250
16259W        W86140  43.305  33.534   1.423
16260W        W86141   4.366   7.761   0.945
16261W        W86142  32.010  16.294   0.814
16262W        W86143  44.912  22.519   1.804
16263W        W86144  38.832  40.874  11.928
16264W        W86145  13.671  29.580  11.436
16265W        W86146  18.226  41.337   1.215
16266W        W86147   2.414  22.743  10.587
16267W        W86148  17.109  12.690   1.345
16268W        W86149  13.114  15.213  10.534
16269W        W86150  12.857   1.777   2.843
16270W        W86151  40.864   3.738   3.861
16271W        W86152  13.838  31.476   0.307
16272W        W86153  26.514   7.695   1.365
16273W        W86154  32.106  23.237  10.606
16274W        W86155  15.124  40.970  10.455
16275W        W86156  14.776  27.181   2.349
16276W        W86157  37.956  21.552  14.955
16277W        W86158   5.361  43.959  12.001
16278W        W86159  10.362  18.591   4.194
16279W        W86160  35.566  24.587  14.961
16280W        W86161  17.168  16.794   3.852
16281W        W86162  36.513  18.549   2.751
16282W        W86163   4.700  13.726  11.128
16283W        W86164  19.745  31.405   3.631
16284W        W86165  10.803  14.298   1.744
16285W        W86166  19.206  30.630  10.465
16286W        W86167   9.323  33.079  10.953
16287W        W86168  13.341  25.033  11.533
16288W        W86169   4.721  35.534  12.037
16289W        W86170  31.972  14.631  14.918
16290W        W86171  35.392  35.031  13.350
16291W        W86172  13.782  32.405   2.193
16292W        W86173   9.169  43.012   0.285
16293W        W86174   2.835  31.523  14.771
16294W        W86175  12.191  33.093   3.155
16295W        W86176  17.605  22.146  14.285
16296W        W86177  27.460   6.809   3.219
16297W        W86178  35.584   4.721   1.694
16298W        W86179  24.550  37.478   1.771
16299W        W86180  20.070  14.273   0.927
16300W        W86181  26.519  35.892  12.360
16301W        W86182   4.440  23.076  12.374
16302W        W86183  19.620  43.909   3.694
16303W        W86184  34.608  27.621  11.959
16304W        W86185   3.873  43.386   4.233
16305W        W86186  38.414  30.057   2.294
16306W        W86187  29.041  36.887  11.073
16307W        W86188  19.169  39.044  12.404
16308W        W86189  28.514  13.129   1.758
16309W        W86190  18.563  43.424  11.526
16310W        W86191  18.064  23.013   1.931
16311W        W86192  19.547  28.020   2.718
16312W        W86193  23.154  16.591  10.960
16313W        W86194  18.234  11.171  14.849
16314W        W86195  31.591  42.944  14.373
16315W        W86196   5.271  10.344  12.043
16316W        W86197  20.760  39.462   1.842
16317W        W86198   9.859  34.880  10.515
16318W        W86199  16.590  23.211   0.400
16319W        W86200  41.949  37.502  14.402
16320W        W86201  18.562  30.494   1.846
16321W        W86202  25.122  34.055  11.513
16322W        W86203  34.015  34.971  13.833
16323W        W86204   8.690  27.584  11.098
16324W        W86205  13.178  19.222  11.992
16325W        W86206  31.061  20.683  14.456
16326W        W86207  30.522  10.772   3.860
16327W        W86208  16.668   6.352  13.408
16328W        W86209   2.888  34.442   0.781
16329W        W86210  37.953  43.428  14.885
16330W        W86211  33.913  38.939   3.346
16331W        W86212  19.578  29.072  13.534
16332W        W86213  44.950  43.319   4.793
16333W        W86214   7.741  43.379   3.320
16334W        W86215  13.253  31.931   3.260
16335W        W86216  35.867  40.001   3.823
16336W        W86217  18.222  29.934   2.317
16337W        W86218  23.647   2.246  13.821
16338W        W86219  41.867   1.813   2.716
16339W        W86220  44.848   9.861   0.839
16340W        W86221  34.971  13.183  10.999
16341W        W86222  24.028  27.990  11.052
16342W        W86223  28.504  35.049  13.319
16343W        W86224  19.207  37.080   4.617
16344W        W86225  14.185  36.574   2.818
16345W        W86226  27.584  21.098   4.127
16346W        W86227   2.329   6.281  10.947
16347W        W86228  37.059  43.998   3.764
16348W        W86229  36.881  24.717  12.529
16349W        W86230  26.524  16.137  13.944
16350W        W86231  21.680  21.098  11.070
16351W        W86232  16.217   4.444  12.504
16352W        W86233  30.000   6.755  13.485
16353W        W86234   7.231  16.305  10.476
16354W        W86235  32.400  19.211   3.635
16355W        W86236  30.646  19.539  11.862
16356W        W86237  28.575  36.373   2.378
16357W        W86238  34.579  31.947  11.896
16358W        W86239   7.290   6.751  10.507
16359W        W86240   6.690   8.233   4.120
16360W        W86241  34.462  10.301   2.340
16361W        W86242   0.306  34.074  11.921
16362W        W86243   9.727  18.244   1.340
16363W        W86244  39.049   7.376  12.010
16364W        W86245   7.306  41.855  13.435
16365W        W86246   1.806   9.773   1.925
16366W        W86247  22.076   5.387   1.930
16367W        W86248  16.297  18.744  14.791
16368W        W86249  19.054  15.698   1.718
16369W        W86250  38.854  40.891  11.105
16370W        W86251   1.298  28.035   1.877
16371W        W86252  28.517  27.942   2.202
16372W        W86253  33.034   4.869  14.378
16373W        W86254  17.135   1.896  12.422
16374W        W86255  11.341  35.995   2.189
16375W        W86256  23.520  21.174   3.194
16376W        W86257  32.914  22.596   0.283
16377W        W86258   2.832   3.905   2.808
16378W        W86259  36.054  24.676  14.810
16379W        W86260  20.216  30.958  14.823
16380W        W86261   2.274  13.166   2.391
16381W        W86262  41.881  12.143  12.007
16382W        W86263   6.748   3.729   4.730
16383W        W86264  35.074  44.470   3.812
16384W        W86265  39.953   8.236   2.721
16385W        W86266   8.854  39.830   2.216
16386W        W86267  44.451   6.385   3.840
16387W        W86268  41.335  28.541  13.500
16388W        W86269  12.292  21.552  11.040
16389W        W86270  14.134  15.138  13.366
16390W        W86271  20.115   0.770   1.748
16391W        W86272  20.577  11.164  11.022
16392W        W86273   4.842  42.031  13.961
16393W        W86274  38.958  34.927  14.361
16394W        W86275   8.800   3.920  14.442
16395W        W86276   9.746   8.728   0.329
16396W        W86277  31.543   4.846  12.908
16397W        W86278  27.147  41.497   0.458
16398W        W86279  31.605  13.706   4.336
16399W        W86280   1.816  30.581   1.437
16400W        W86281   6.686  21.120  11.533
16401W        W86282  20.555  11.202  14.933
16402W        W86283  41.375  33.106  10.530
16403W        W86284  40.400  44.392   3.229
16404W        W86285  35.573  12.241  10.926
16405W        W86286   8.658  41.031  10.989
16406W        W86287   5.284  44.887  12.458
16407W        W86288  34.377  20.087  14.307
16408W        W86289   6.338   6.272   1.854
16409W        W86290  21.725   3.365  11.907
16410W        W86291  20.760  14.277  13.825
16411W        W86292   0.865  26.087   3.709
16412W        W86293  16.142  33.045   1.263
16413W        W86294  20.101  35.060  12.934
16414W        W86295  44.814  19.140   3.228
16415W        W86296  43.909  22.558  12.898
16416W        W86297   0.428  25.039   1.895
16417W        W86298  22.161  37.066  11.570
16418W        W86299  31.506  11.677  11.001
16419W        W86300  44.333  43.850   3.373
16420W        W86301  18.629  38.074   0.933
16421W        W86302  26.125  37.033   0.739
16422W        W86303   7.712  35.515   1.814
16423W        W86304  11.357  20.256  10.611
16424W        W86305  17.243  20.691   2.359
16425W        W86306   5.309  12.658  10.426
16426W        W86307  43.909  44.895  13.979
16427W        W86308  22.549  38.337   4.284
16428W        W86309  19.617  34.544  11.545
16429W        W86310  33.619  31.638  12.891
16430W        W86311  14.738  15.752   0.953
16431W        W86312  16.700  22.027  14.490
16432W        W86313  13.687   1.366   3.839
16433W        W86314  34.069  17.772  13.897
16434W        W86315   5.813  36.945   3.650
16435W        W86316  13.209   0.307   0.307
16436W        W86317  13.824  16.767  12.941
16437W        W86318  20.540  25.710   0.823
16438W        W86319  43.280   8.824   5.251
16439W        W86320   0.948  13.775   3.348
16440W        W86321  35.008  21.122   3.675
16441W        W86322  20.069  11.240   3.750
16442W        W86323  24.576  18.547  12.424
16443W        W86324   5.756  21.624  10.625
16444W        W86325  21.260  25.082  13.919
16445W        W86326  32.396  11.239   2.899
16446W        W86327  19.543  43.776   1.884
16447W        W86328  33.987  11.289   1.753
16448W        W86329  27.193   1.419  13.903
16449W        W86330  24.497   8.239   0.323
16450W        W86331  28.119  13.222   1.923
16451W        W86332  20.191  22.515   4.326
16452W        W86333  43.453   7.735   0.383
16453W        W86334  34.571  32.089  14.780
16454W        W86335  20.060  13.816   3.248
16455W        W86336   9.280   2.735  10.530
16456W        W86337   7.738  44.756   3.747
16457W        W86338   4.790   9.392  10.127
16458W        W86339  21.158  11.351   0.264
16459W        W86340  29.955  16.243  10.502
16460W        W86341   5.799  12.830  14.507
16461W        W86342  22.586   4.916  12.989
16462W        W86343   2.325  35.093  14.930
16463W        W86344  42.947   3.374   3.870
16464W        W86345   8.763  42.841  10.948
16465W        W86346  22.580  14.109  11.889
16466W        W86347  16.637  21.178  14.392
16467W        W86348   9.888  40.853   4.300
16468W        W86349  30.576  31.630   0.787
16469W        W86350  19.583  16.729  13.527
16470W        W86351   2.815   4.895   2.351
16471W        W86352  21.060  24.649  11.943
16472W        W86353  36.416  21.083   2.791
16473W        W86354  34.079  15.700  14.992
16474W        W86355  16.316  27.592   3.798
16475W        W86356  32.489  22.239   1.712
16476W        W86357   1.460  13.257  12.456
16477W        W86358  43.860  18.056   3.306
16478W        W86359   5.258   2.916   0.441
16479W        W86360  29.493  17.141   2.412
16480W        W86361   9.737   9.876   1.734
16481W        W86362   4.406  41.919  14.945
16482W        W86363   4.799   9.351  14.439
16483W        W86364  31.108  32.118   3.341
16484W        W86365  16.119  20.565  12.382
16485W        W86366   7.887  15.318  14.885
16486W        W86367  25.176   4.872   4.188
16487W        W86368  43.781  41.021  11.938
16488W        W86369  34.104  13.295   3.358
16489W        W86370  36.427   5.216   3.212
16490W        W86371  13.770  10.332   1.441
16491W        W86372  41.309  17.732  14.795
16492W        W86373  12.143  36.977   3.657
16493W        W86374  18.283   1.259  13.358
16494W        W86375  27.634   0.763   3.220
16495W        W86376  38.498  42.281  12.010
16496W        W86377  40.466  32.391   3.185
16497W        W86378  15.119  40.967  13.872
16498W        W86379   2.398  12.294   1.905
16499W        W86380  39.333  10.724   1.412
16500W        W86381  39.538  39.832  12.426
16501W        W86382  26.988  37.041   4.757
16502W        W86383   1.331  20.721   4.236
16503W        W86384  10.649  12.344   3.165
16504W        W86385  41.521  18.233   4.809
16505W        W86386  20.066  26.578   2.249
16506W        W86387   4.346  33.549   3.701
16507W        W86388  13.642  27.484   4.798
16508W        W86389  37.503  21.735  13.481
16509W        W86390  27.125  20.575  12.004
16510W        W86391  21.143  25.131   3.182
16511W        W86392  41.517  38.042  10.892
16512W        W86393   3.858  33.091  14.389
16513W        W86394  18.259  19.228   3.345
16514W        W86395  39.323  17.173  14.342
16515W        W86396  15.730  31.424   3.224
16516W        W86397  11.239  29.979   2.716
16517W        W86398  17.160  13.110  13.444
16518W        W86399  27.177   6.786   0.451
16519W        W86400  24.664  37.375  11.060
16520W        W86401  12.659  24.542   1.425
16521W        W86402   1.893  13.108  10.607
16522W        W86403  13.728  29.977   0.445
16523W        W86404  33.392   0.842   0.327
16524W        W86405  29.987   2.870  11.894
16525W        W86406  11.760  30.510   2.403
16526W        W86407  21.047   1.747  11.977
16527W        W86408  39.380  18.221  14.896
16528W        W86409  30.506  19.608   3.264
16529W        W86410  24.684  37.923  14.462
16530W        W86411  33.381  23.225   2.282
16531W        W86412  15.795  20.708  13.859
16532W        W86413   8.828   5.343  10.998
16533W        W86414  19.767  29.519   3.702
16534W        W86415  36.357  25.492  14.951
16535W        W86416  27.455   1.898  12.854
16536W        W86417  36.913  34.008  14.930
16537W        W86418   0.888  41.800   0.448
16538W        W86419  38.969  22.203  10.608
16539W        W86420  41.953  43.773   2.343
16540W        W86421  23.239  19.544   9.551
16541W        W86422  27.502  31.896   2.251
16542W        W86423  11.347   6.763  11.092
16543W        W86424  21.198   6.425  11.089
16544W        W86425  37.080  32.583  10.593
16545W        W86426  27.032  33.544  13.479
16546W        W86427  33.044   8.667  12.463
16547W        W86428  30.624  16.205   1.372
16548W        W86429  13.769  15.217  11.534
16549W        W86430  27.637   2.376   0.962
16550W        W86431  22.671  33.524  10.051
16551W        W86432  20.101  17.189   1.444
16552W        W86433  29.078  42.920  11.073
16553W        W86434  35.910  22.509  11.598
16554W        W86435  39.943  11.355  12.990
16555W        W86436  33.958  41.435  12.396
16556W        W86437  34.973  19.083   4.185
16557W        W86438  19.133  27.531   4.261
16558W        W86439  12.636  42.978   0.479
16559W        W86440  10.760  26.572   0.822
16560W        W86441  13.344  30.013  12.516
16561W        W86442  10.151  15.107   2.418
16562W        W86443   2.245   4.832  11.111
16563W        W86444  43.498  33.517  14.785
16564W        W86445  30.944   2.820   0.245
16565W        W86446   9.297  30.042  14.856
16566W        W86447  30.049  33.071  11.071
16567W        W86448  11.721  27.571   5.223
16568W        W86449  40.826  25.678   0.847
16569W        W86450  29.669  33.075   4.213
16570W        W86451   5.902  30.945  12.918
16571W        W86452  34.568  16.232  14.974
16572W        W86453  26.674   0.952  13.881
16573W        W86454  19.265  42.420  11.053
16574W        W86455  29.437  13.735   4.772
16575W        W86456  13.713  10.775   1.821
16576W        W86457  41.942   5.931  11.872
16577W        W86458   6.805  38.001  13.543
16578W        W86459  24.204  31.062  12.824
16579W        W86460  33.101  27.166   2.408
16580W        W86461   0.275  31.541   2.704
16581W        W86462  29.433  10.845  11.438
16582W        W86463  12.282  13.345   0.301
16583W        W86464  21.139  29.500   0.254
16584W        W86465  34.517  19.133  14.516
16585W        W86466  16.680  25.148  11.077
16586W        W86467  40.029  10.343  11.010
16587W        W86468  10.766  29.632  14.516
16588W        W86469  39.925  22.662  10.599
16589W        W86470  26.009  22.515  10.606
16590W        W86471   7.281   8.199  11.544
16591W        W86472  33.050  41.920   2.734
16592W        W86473  19.757  24.684   3.701
16593W        W86474  40.939   9.196   2.373
16594W        W86475  15.222  15.256  10.904
16595W        W86476   2.943   8.180  12.958
16596W        W86477  35.403  41.848   2.834
16597W        W86478   4.736  14.147   2.715
16598W        W86479   4.699  16.767   4.232
16599W        W86480  35.373   7.667   1.430
16600W        W86481  25.190  11.304  10.920
16601W        W86482  18.659  20.723   0.760
16602W        W86483  31.915  14.647   3.288
16603W        W86484  28.559  44.905   0.333
16604W        W86485  11.702  30.413  14.354
16605W        W86486   5.353   6.281   1.915
16606W        W86487   1.870  32.046   2.726
16607W        W86488   6.923  42.384  11.961
16608W        W86489  38.377   6.887  14.820
16609W        W86490  31.526  15.237   3.247
16610W        W86491  18.106  33.085   3.165
16611W        W86492  27.014  39.850   4.805
16612W        W86493  42.380   1.399   4.642
16613W        W86494   1.833  10.365   1.793
16614W        W86495   9.178  27.166   1.851
16615W        W86496   9.726  16.187  10.631
16616W        W86497  15.257  15.160   4.746
16617W        W86498  41.952  16.096  13.533
16618W        W86499   7.839  16.795  13.796
16619W        W86500  30.544  24.222  12.558
16620W        W86501   5.707  21.072  12.023
16621W        W86502   0.409  22.567  13.831
16622W        W86503  10.773  26.610   2.329
16623W        W86504  20.617  35.549  10.549
16624W        W86505  42.396  10.374   1.852
16625W        W86506  18.161   6.883  11.005
16626W        W86507  14.241  15.179   3.702
16627W        W86508  29.069  21.169  14.004
16628W        W86509  33.929   9.322  11.546
16629W        W86510  18.774  27.111   0.883
16630W        W86511  38.335   7.682  14.437
16631W        W86512  39.361  35.968  10.909
16632W        W86513  17.235  17.093  13.036
16633W        W86514   8.250  39.988  14.292
16634W        W86515  10.680   3.438  10.564
16635W        W86516  43.946   3.866   4.221
16636W        W86517  26.168  28.636   0.825
16637W        W86518  41.319  42.511  14.293
16638W        W86519   5.927   6.799   3.845
16639W        W86520  23.504  33.039  11.396
16640W        W86521  13.227  39.351   9.536
16641W        W86522  17.252  41.405  12.071
16642W        W86523  25.527  40.394   4.242
16643W        W86524  40.963  29.662   0.927
16644W        W86525  23.644  31.931   1.381
16645W        W86526   1.433  42.971   1.360
16646W        W86527  16.693  13.781  12.855
16647W        W86528  20.255  16.615   0.743
16648W        W86529  21.757  28.649   0.881
16649W        W86530  34.416  37.510  10.938
16650W        W86531  43.439  23.602   1.707
16651W        W86532  41.378  32.121   1.279
16652W        W86533   7.300   1.857   2.720
16653W        W86534  21.020  31.489   3.814
16654W        W86535   7.682  41.502  10.156
16655W        W86536   5.245  33.924   1.774
16656W        W86537  42.008  41.910   3.767
16657W        W86538  39.914  35.573  10.459
16658W        W86539  26.029  40.914  14.872
16659W        W86540  16.087   1.409  13.399
16660W        W86541  27.458  37.941  14.311
16661W        W86542  42.506  36.907   4.776
16662W        W86543   4.884  40.990   3.716
16663W        W86544  17.106  40.798   4.683
16664W        W86545  44.893  25.192  11.024
16665W        W86546  40.442  20.249  12.500
16666W        W86547  17.067  42.923   4.291
16667W        W86548  40.936  38.343   3.789
16668W        W86549   0.308   2.942   0.433
16669W        W86550  40.806  27.678  13.849
16670W        W86551   8.755  41.499   4.689
16671W        W86552  34.565  39.324  13.053
16672W        W86553  42.996  23.524  13.916
16673W        W86554  28.049  44.278  10.941
16674W        W86555  20.633  16.217   0.267
16675W        W86556  12.623   5.207   2.187
16676W        W86557  22.576  14.795  10.513
16677W        W86558  33.407  38.343  14.814
16678W        W86559  27.992  21.100  10.936
16679W        W86560  29.575  34.916  10.965
16680W        W86561   4.824  40.889  14.390
16681W        W86562   8.399  21.258   3.247
16682W        W86563   1.435   7.667  11.453
16683W        W86564  43.891  16.679  13.891
16684W        W86565   0.977  41.906  14.372
16685W        W86566  14.137   5.841  12.425
16686W        W86567  44.856   8.246  12.343
16687W        W86568  20.127  27.132  11.379
16688W        W86569  30.157  28.011  10.488
16689W        W86570  32.412   0.947   4.658
16690W        W86571  11.687  24.686  11.574
16691W        W86572  27.084   8.767  12.364
16692W        W86573   4.926  36.394  13.881
16693W        W86574  26.472  16.140   0.815
16694W        W86575  32.887  40.019  13.942
16695W        W86576  36.975  22.029  10.962
16696W        W86577   0.414  22.220  14.997
16697W        W86578   4.431  12.169   1.409
16698W        W86579   2.253  42.366   3.229
16699W        W86580  19.070  20.641   2.225
16700W        W86581  34.023  37.496  11.545
16701W        W86582  19.780   3.712  13.919
16702W        W86583  28.038  26.085  14.508
16703W        W86584   6.380  28.978  13.514
16704W        W86585  39.501   3.770   2.742
16705W        W86586   5.786   6.280  12.994
16706W        W86587  11.863  33.609  12.536
16707W        W86588   0.280   2.897   0.739
16708W        W86589  19.720  21.091  14.770
16709W        W86590   5.706  13.673   2.781
16710W        W86591  28.463   9.775  12.899
16711W        W86592  42.342  25.609   0.774
16712W        W86593  34.938  12.814  14.789
16713W        W86594  16.765   5.409   4.159
16714W        W86595   6.870  11.760  12.093
16715W        W86596   2.394  28.026  11.591
16716W        W86597  11.646  15.106  13.404
16717W        W86598  37.930  32.126  10.468
16718W        W86599  33.983  41.974  14.776
16719W        W86600  17.611  34.552   1.711
16720W        W86601  37.563  40.494  12.961
16721W        W86602  28.974  20.190   3.353
16722W        W86603   1.769  20.537  14.406
16723W        W86604   5.880  10.244   2.737
16724W        W86605   2.963  39.859   0.767
16725W        W86606  25.140   8.712  12.411
16726W        W86607  20.074  31.097   4.722
16727W        W86608  13.118  32.095  13.993
16728W        W86609  12.670  13.788  14.883
16729W        W86610  18.715  37.474  10.533
16730W        W86611  12.199   6.236  11.885
16731W        W86612  25.976   1.922  14.454
16732W        W86613  24.692   4.866  14.406
16733W        W86614   7.727  21.517  10.910
16734W        W86615  40.927   3.873   2.401
16735W        W86616  13.283  27.002   2.725
16736W        W86617  27.450   4.251   2.291
16737W        W86618  29.612  43.990  11.125
16738W        W86619   3.298  30.066   1.236
16739W        W86620  26.530   1.948   4.259
16740W        W86621  40.939  35.046  12.953
16741W        W86622   1.470   4.797   3.653
16742W        W86623  18.153  34.075  14.350
16743W        W86624  30.598  27.612  12.063
16744W        W86625  20.234  40.023  12.934
16745W        W86626  40.930   5.252  11.074
16746W        W86627   9.709   0.907  11.602
16747W        W86628  30.557  13.797  13.908
16748W        W86629  41.038  12.808  11.483
16749W        W86630  10.851  10.775  11.470
16750W        W86631  30.545  23.693  10.922
16751W        W86632  12.687  25.006   3.851
16752W        W86633   6.336  25.572   0.412
16753W        W86634  10.824  34.516  10.411
16754W        W86635  35.485  35.400  14.504
16755W        W86636  26.043   3.376   4.171
16756W        W86637  36.500  19.681  10.592
16757W        W86638  15.814  35.984   0.261
16758W        W86639   5.694  11.281  11.975
16759W        W86640   0.480  14.143   3.332
16760W        W86641  21.753  14.226   4.282
16761W        W86642  36.536  39.970  14.414
16762W        W86643  12.131   0.298  11.517
16763W        W86644  43.452  34.999   4.337
16764W        W86645  19.166   1.959   4.599
16765W        W86646  16.133  40.848   1.862
16766W        W86647   1.465  19.260  11.006
16767W        W86648   9.728  38.036  10.579
16768W        W86649  27.088   2.234  14.461
16769W        W86650  30.656  31.582   2.243
16770W        W86651   7.805  33.544  11.563
16771W        W86652  20.094   1.963   0.372
16772W        W86653  25.037  34.116  14.008
16773W        W86654  10.318  32.118  13.800
16774W        W86655  31.148  41.426   4.264
16775W        W86656   4.902   5.710  14.954
16776W        W86657  17.751  39.986   2.374
16777W        W86658  41.374  18.725   4.684
16778W        W86659  36.501  18.774   0.768
16779W        W86660  34.070  23.012   4.327
16780W        W86661  37.913  39.546   1.362
16781W        W86662  42.929   9.734   0.958
16782W        W86663  11.706  10.760  14.869
16783W        W86664  36.945  13.814  11.461
16784W        W86665  33.082  11.866   2.808
16785W        W86666   4.798  21.114   3.239
16786W        W86667  41.443  44.305   0.406
16787W        W86668  25.122  41.840   4.269
16788W        W86669   0.765  15.110   3.300
16789W        W86670  25.170  30.557   0.261
16790W        W86671  14.289  28.644  13.808
16791W        W86672  32.410   6.898  12.978
16792W        W86673  36.582   7.269  10.899
16793W        W86674  20.711  23.590  12.416
16794W        W86675  21.090  12.226  13.861
16795W        W86676  31.519  10.859  14.836
16796W        W86677   2.740  30.962   2.879
16797W        W86678   5.829  21.677   4.285
16798W        W86679  11.856  38.337  12.937
16799W        W86680  32.124  20.625   1.304
16800W        W86681   3.933  34.026  14.989
16801W        W86682  36.504  12.716   0.759
16802W        W86683   4.450  40.936   3.337
16803W        W86684  44.305  41.461  14.464
16804W        W86685   7.198  26.028  10.613
16805W        W86686   6.280  18.665   2.861
16806W        W86687  19.707   0.483  13.376
16807W        W86688  22.606   6.908   2.200
16808W        W86689  12.249  38.900   2.367
16809W        W86690  20.612   0.270   0.405
16810W        W86691   7.334  39.062   0.861
16811W        W86692   8.675  41.525  12.462
16812W        W86693  17.301  16.606   1.318
16813W        W86694  22.228  32.981  12.066
16814W        W86695  37.933  29.116  12.894
16815W        W86696  16.688  42.927  12.084
16816W        W86697  39.502  15.133   3.186
16817W        W86698   6.188  15.610   5.234
16818W        W86699  42.421  34.999   0.298
16819W        W86700  13.769  43.365  12.441
16820W        W86701  23.683  39.507   2.795
16821W        W86702  23.658  43.333  11.554
16822W        W86703  34.548  26.050  11.092
16823W        W86704  37.960  28.669   3.308
16824W        W86705  43.765  20.757  11.606
16825W        W86706   3.325  13.315   5.318
16826W        W86707  27.148  41.472  13.535
16827W        W86708  27.943   9.735   4.150
16828W        W86709  40.054  38.061   3.239
16829W        W86710  35.476   2.819  13.798
16830W        W86711  10.220  29.927   2.396
16831W        W86712  32.006  19.272   0.920
16832W        W86713   9.657  22.019   4.312
16833W        W86714  33.120  37.497  11.061
16834W        W86715  25.674  32.476   0.367
16835W        W86716  26.956  27.492   4.355
16836W        W86717  37.426  29.146  12.078
16837W        W86718  42.789  35.005  13.451
16838W        W86719  32.404  40.888  12.547
16839W        W86720  21.674  18.282   4.162
16840W        W86721  42.364  32.112   5.134
16841W        W86722  42.939  38.917  10.617
16842W        W86723  15.211  39.053  10.524
16843W        W86724  10.681  10.311  11.610
16844W        W86725  44.957   8.826  11.101
16845W        W86726  26.502  28.447   2.218
16846W        W86727  29.551  10.248   0.779
16847W        W86728  33.992  34.444   1.234
16848W        W86729   8.211  20.694   0.397
16849W        W86730  33.042  25.022   1.347
16850W        W86731  40.884  31.422   0.898
16851W        W86732  19.741  24.136   5.236
16852W        W86733  17.668  14.744   3.197
16853W        W86734   3.765  35.437   2.195
16854W        W86735  19.625  31.934  14.912
16855W        W86736   1.843  27.518  13.330
16856W        W86737  24.583  11.805   4.131
16857W        W86738  21.728  23.212   1.363
16858W        W86739  13.647  26.675  11.599
16859W        W86740  12.232  40.861   0.767
16860W        W86741  37.477  26.048   2.799
16861W        W86742   4.905  27.653  12.848
16862W        W86743  29.540   9.676  13.470
16863W        W86744  36.853  37.464  14.965
16864W        W86745   5.213  44.470   1.896
16865W        W86746  18.174  26.166   3.251
16866W        W86747  43.341  43.451   3.722
16867W        W86748  43.438  25.556   2.294
16868W        W86749  23.654  42.495   4.772
16869W        W86750  21.641  23.020  14.469
16870W        W86751  30.931  43.830   0.404
16871W        W86752  21.025  16.318   3.808
16872W        W86753  19.701   9.294   3.854
16873W        W86754  14.202  34.029   4.799
16874W        W86755  39.457   3.883   0.794
16875W        W86756  15.618  31.971  10.079
16876W        W86757  16.684   2.793  13.521
16877W        W86758  12.630   8.194   2.661
16878W        W86759   4.271   9.175  11.549
16879W        W86760  26.656   5.196  13.387
16880W        W86761  33.948  31.921   3.680
16881W        W86762  40.844  22.616  12.082
16882W        W86763  41.428  32.534   4.688
16883W        W86764  10.729  23.708  10.501
16884W        W86765  27.633  28.030   1.932
16885W        W86766  40.499   2.241   3.327
16886W        W86767  11.665  18.113   4.352
16887W        W86768   3.437  26.077   3.707
16888W        W86769   6.727  19.071   2.800
16889W        W86770  27.460  39.059   3.804
16890W        W86771  31.982  36.376   4.744
16891W        W86772  26.025  37.926   0.827
16892W        W86773  37.477   9.804   3.691
16893W        W86774  14.207  38.392   2.368
16894W        W86775  34.594  43.296  14.829
16895W        W86776  36.387  24.580   1.729
16896W        W86777  35.535  21.026  11.097
16897W        W86778  34.608  40.942  11.122
16898W        W86779  40.983  28.669   1.926
16899W        W86780  32.141   4.356   3.687
16900W        W86781  38.971  41.961  14.847
16901W        W86782  23.554  37.486  10.500
16902W        W86783   0.876   7.695   5.161
16903W        W86784   0.380   6.895  11.434
16904W        W86785   5.403   7.403   1.226
16905W        W86786  31.045  21.576  10.983
16906W        W86787  22.219   2.951  10.464
16907W        W86788  25.609  22.226  14.473
16908W        W86789  24.138  10.383   2.846
16909W        W86790  37.905  12.645  10.018
16910W        W86791  31.966  18.196  10.436
16911W        W86792   5.400  14.618  10.539
16912W        W86793  23.656   3.755   0.829
16913W        W86794  38.872  21.041   1.265
16914W        W86795  43.935  36.380   1.224
16915W        W86796  18.293   7.794   0.756
16916W        W86797  28.587  31.062  11.929
16917W        W86798  35.436   5.828  12.034
16918W        W86799  23.207  19.159  14.401
16919W        W86800  26.182   3.276   5.134
16920W        W86801   8.865  31.034   1.374
16921W        W86802  25.528  21.542  13.310
16922W        W86803   0.302  23.144   0.423
16923W        W86804  29.626  42.844  11.044
16924W        W86805  12.732   6.833   4.334
16925W        W86806  18.134  43.992  13.388
16926W        W86807  33.451  32.606  11.470
16927W        W86808   9.874  27.462   4.286
16928W        W86809  36.934  35.965  13.864
16929W        W86810  14.782  38.514  13.448
16930W        W86811  14.291  42.785   3.863
16931W        W86812  34.522  29.013  12.937
16932W        W86813  10.293  37.967   0.815
16933W        W86814   8.284  26.558   1.318
16934W        W86815  43.780  22.167   3.317
16935W        W86816  16.090  18.224   2.288
16936W        W86817  41.376   8.744  14.364
16937W        W86818  19.279  25.536   4.651
16938W        W86819  15.201  11.740  11.525
16939W        W86820  31.135  32.623  12.033
16940W        W86821  11.858  18.216  14.973
16941W        W86822   8.814  19.167  12.531
16942W        W86823  25.468  11.331  10.522
16943W        W86824  11.828  43.861  11.989
16944W        W86825  18.174  17.179  10.926
16945W        W86826  34.380  36.909   1.847
16946W        W86827   2.753  36.576  14.472
16947W        W86828  11.205  15.771   2.352
16948W        W86829  43.383  31.617   3.284
16949W        W86830   1.826  35.492   3.801
16950W        W86831  31.595  33.907  14.969
16951W        W86832  36.999  12.255  10.600
16952W        W86833   8.278   3.397  11.484
16953W        W86834   6.697  39.942   1.774
16954W        W86835  33.949  12.170   3.733
16955W        W86836  22.122  21.651  11.895
16956W        W86837  25.165  27.623   4.231
16957W        W86838  15.190  31.470   0.780
16958W        W86839  33.992   2.941  14.964
16959W        W86840  39.523  22.200   0.424
16960W        W86841  19.070  30.144  10.944
16961W        W86842  36.844  34.867  12.485
16962W        W86843  36.934  40.023   2.730
16963W        W86844  12.851  30.631   1.237
16964W        W86845  24.516  16.739  12.920
16965W        W86846  20.175  28.661  11.042
16966W        W86847  26.102  33.022   1.816
16967W        W86848  15.138  42.786   4.216
16968W        W86849   8.771   7.861   2.731
16969W        W86850  36.373  28.642  13.063
16970W        W86851  27.125  15.798   0.885
16971W        W86852  37.031  22.533  10.416
16972W        W86853  34.390   2.356   2.751
16973W        W86854  33.414  25.644  11.604
16974W        W86855  37.366  36.982   0.244
16975W        W86856   3.750  16.629   0.250
16976W        W86857   4.265  31.983  12.041
16977W        W86858  11.777  44.851  10.935
16978W        W86859   8.362   3.908  12.363
16979W        W86860  43.334   6.695   4.223
16980W        W86861   0.942  25.659   3.334
16981W        W86862   6.883  20.606  12.023
16982W        W86863   2.412   1.351   4.122
16983W        W86864  30.598  43.394   2.248
16984W        W86865  14.672  43.961   1.372
16985W        W86866  13.698  10.139  13.541
16986W        W86867  26.066   2.965   4.624
16987W        W86868   3.743  35.067   3.368
16988W        W86869  24.689   1.831  12.836
16989W        W86870  38.070  14.727   3.694
16990W        W86871  23.124  22.683  10.487
16991W        W86872  21.592  25.089  14.416
16992W        W86873  38.473  44.494  10.995
16993W        W86874  42.004  26.503  10.951
16994W        W86875  22.031  31.017   3.789
16995W        W86876  12.196  20.139  14.459
16996W        W86877   9.309  33.413   0.751
16997W        W86878  10.742  37.976   2.277
16998W        W86879  14.695  43.764  13.481
16999W        W86880  33.559  14.109   1.852
17000W        W86881   2.899   9.380   0.326
17001W        W86882  35.529  25.141   1.774
17002W        W86883  11.291  29.462  13.342
17003W        W86884  33.439  32.477   3.721
17004W        W86885   0.379  11.154   0.784
17005W        W86886  28.160   1.473  12.872
17006W        W86887  21.747  36.492   4.634
17007W        W86888   6.261  27.161  14.337
17008W        W86889  22.605  13.740   1.703
17009W        W86890  18.124   4.846  12.388
17010W        W86891  37.927  20.032  11.609
17011W        W86892  37.447   3.350   0.319
17012W        W86893   5.351  44.787   0.416
17013W        W86894  10.774  18.632  10.471
17014W        W86895   8.358   7.334   2.312
17015W        W86896  24.103  30.522  10.516
17016W        W86897  40.027  39.053  14.022
17017W        W86898  13.208  43.847   0.350
17018W        W86899  28.152  40.453   1.701
17019W        W86900  33.083  16.655  14.445
17020W        W86901   3.863  21.598   3.858
17021W        W86902  31.463  41.913  14.352
17022W        W86903  18.552  24.596   2.418
17023W        W86904  13.603  10.270  14.001
17024W        W86905  44.368   6.252   4.670
17025W        W86906  26.059  23.728   4.789
17026W        W86907  37.439  21.598  10.965
17027W        W86908   3.896  15.120   0.304
17028W        W86909  20.079  16.805  14.000
17029W        W86910  13.164   5.335  12.862
17030W        W86911   8.275   2.452  12.430
17031W        W86912  44.917  30.995   4.627
17032W        W86913  34.515  32.610  14.953
17033W        W86914  44.469  35.034   1.417
17034W        W86915   7.734  13.127   1.441
17035W        W86916   9.759  18.147   3.246
17036W        W86917   3.848  36.026   0.472
17037W        W86918  11.760  22.212   2.718
17038W        W86919  18.599  42.975  10.935
17039W        W86920  39.938  43.398   4.297
17040W        W86921  27.024  40.334  13.860
17041W        W86922   3.758  17.776   4.626
17042W        W86923   5.780   9.784  14.904
17043W        W86924  16.177   9.292   4.221
17044W        W86925  11.803   1.818  10.894
17045W        W86926  13.167  20.699  12.407
17046W        W86927   3.780  21.665   0.872
17047W        W86928  44.392   3.310  10.525
17048W        W86929  27.975  23.190  10.413
17049W        W86930  35.895  20.608  11.985
17050W        W86931   7.683  35.576  12.977
17051W        W86932   6.212  44.768  11.406
17052W        W86933   9.379  12.650  11.912
17053W        W86934  40.046  40.037  11.861
17054W        W86935  30.478   0.784  12.348
17055W        W86936  32.936  14.692   4.693
17056W        W86937  13.169  28.517   3.255
17057W        W86938  42.862  30.165   0.412
17058W        W86939   2.827  36.470  14.862
17059W        W86940  12.853  10.678   0.828
17060W        W86941  42.351  44.326   4.768
17061W        W86942  35.937  14.653  11.513
17062W        W86943  40.932  17.104  13.885
17063W        W86944  29.576  32.916   1.417
17064W        W86945  28.641  21.753   3.176
17065W        W86946  37.476  31.460   2.385
17066W        W86947  16.775  36.845   4.825
17067W        W86948  35.579  24.603  13.802
17068W        W86949  22.069  15.245  13.391
17069W        W86950  40.435  39.336   0.749
17070W        W86951  39.864  25.705  11.980
17071W        W86952  35.449  24.224  14.760
17072W        W86953  31.527  44.922  12.959
17073W        W86954  34.572  21.541  10.592
17074W        W86955  42.303   9.169   2.363
17075W        W86956  34.080  43.309  14.389
17076W        W86957  40.545  29.974  10.995
17077W        W86958  15.657  36.044  14.380
17078W        W86959  22.121  18.240  12.927
17079W        W86960  34.871   7.172   4.676
17080W        W86961  11.781   4.392  13.414
17081W        W86962  44.459  33.898   1.290
17082W        W86963   8.878   6.390  11.573
17083W        W86964  26.163   4.807   0.382
17084W        W86965  25.679  23.171   4.640
17085W        W86966  38.440   5.233   0.784
17086W        W86967   4.861  24.006  12.067
17087W        W86968   5.822   6.294  12.382
17088W        W86969  12.839  30.054   3.301
17089W        W86970  36.460  11.311   1.228
17090W        W86971  10.244  20.628  10.913
17091W        W86972   7.171   9.707   2.751
17092W        W86973  24.142   6.702  14.400
17093W        W86974  11.361  20.105   4.723
17094W        W86975  32.044   2.827  12.533
17095W        W86976  35.009  33.098  11.070
17096W        W86977  32.457   1.902   0.434
17097W        W86978  36.471  23.191   1.784
17098W        W86979  39.465  24.703   2.706
17099W        W86980  19.253  44.863   4.810
17100W        W86981   7.715  39.537  14.890
17101W        W86982  35.979  17.793  14.357
17102W        W86983   6.721   5.246   3.633
17103W        W86984  10.815   2.899   3.867
17104W        W86985  21.182  31.936   3.229
17105W        W86986  25.629  30.103  14.354
17106W        W86987  24.993   6.364  12.853
17107W        W86988   0.397  13.196   1.326
17108W        W86989  36.475  15.773   0.410
17109W        W86990  29.130  41.322  10.935
17110W        W86991   0.936  19.570  11.110
17111W        W86992  22.573  11.748   2.871
17112W        W86993  35.858  14.200  12.397
17113W        W86994  16.794   6.294  12.531
17114W        W86995  14.755  17.096   2.407
17115W        W86996  44.396  27.018  11.087
17116W        W86997  12.215  30.573   1.813
17117W        W86998  34.444   7.793  10.994
17118W        W86999  32.040   7.180   1.772
17119W        W87000  25.628  25.183   0.282
17120W        W87001  38.552  29.119  11.451
17121W        W87002   7.220  35.895  14.022
17122W        W87003  25.164  36.538   4.688
17123W        W87004  29.577  19.545  10.429
17124W        W87005  34.423  34.389  14.469
17125W        W87006   9.238   7.403  11.563
17126W        W87007   3.314  15.580   1.732
17127W        W87008  22.179  22.630   1.445
17128W        W87009  35.376  26.593  11.551
17129W        W87010  23.699   7.743  12.982
17130W        W87011  41.940   9.193  12.444
17131W        W87012  19.584   0.295   3.218
17132W        W87013  18.755  30.080  12.531
17133W        W87014  39.025   4.310  10.633
17134W        W87015   7.733  14.106   1.432
17135W        W87016   7.316  36.590   2.815
17136W        W87017  31.034  14.224   9.986
17137W        W87018  14.742  31.647  13.979
17138W        W87019  29.624  15.686  14.339
17139W        W87020  34.059  27.043  11.994
17140W        W87021  39.952  13.843   4.601
17141W        W87022  23.208  36.952  10.450
17142W        W87023  35.453   0.979  14.888
17143W        W87024  31.403   8.833  11.981
17144W        W87025  41.358  40.928  14.008
17145W        W87026  31.535  12.152  10.931
17146W        W87027   4.392   1.371   2.706
17147W        W87028  33.450   8.207   5.104
17148W        W87029  27.684  20.034  12.065
17149W        W87030  40.053   4.900  10.420
17150W        W87031  16.277  24.005   4.799
17151W        W87032   6.865  20.095   1.837
17152W        W87033   6.904  13.754  13.934
17153W        W87034  35.371  38.998  13.009
17154W        W87035  41.914  23.004  13.882
17155W        W87036   9.164   0.827  14.396
17156W        W87037  29.047  32.529   1.425
17157W        W87038  31.049  39.423  11.394
17158W        W87039  10.817  24.656   3.167
17159W        W87040  26.546  42.384  14.884
17160W        W87041  16.768  33.505  12.530
17161W        W87042   1.776   6.781   4.780
17162W        W87043  18.742  28.580  13.839
17163W        W87044   5.819  37.974   4.715
17164W        W87045  31.414   2.370  12.014
17165W        W87046   5.370  26.627   4.722
17166W        W87047  14.668  36.570   4.612
17167W        W87048  16.629  22.233   0.923
17168W        W87049   2.255  18.737   4.301
17169W        W87050   6.836  35.062  11.527
17170W        W87051   6.789  27.973  14.456
17171W        W87052  27.678  22.190   2.299
17172W        W87053  42.389  10.722   1.271
17173W        W87054  24.075  27.034  10.462
17174W        W87055  10.209  39.974  11.070
17175W        W87056   4.743   0.860   0.330
17176W        W87057   5.746   3.453  10.953
17177W        W87058  31.976  26.972  14.882
17178W        W87059  21.254  14.268   4.183
17179W        W87060  14.636  33.941   0.845
17180W        W87061  27.141  25.053   4.787
17181W        W87062  11.360  18.122  13.352
17182W        W87063   4.215  25.144  14.334
17183W        W87064  35.958   3.844  12.443
17184W        W87065  36.908   8.181  14.312
17185W        W87066  30.977   0.972  11.493
17186W        W87067  26.664  24.079   0.852
17187W        W87068   3.379   9.152  12.053
17188W        W87069  38.499   6.837   2.191
17189W        W87070  38.827  17.308   0.260
17190W        W87071  43.355  28.105   2.370
17191W        W87072  29.588  14.099  12.939
17192W        W87073   7.753  26.695   5.224
17193W        W87074  41.946  43.509  10.507
17194W        W87075  31.525  33.441   1.360
17195W        W87076   9.199   4.803   3.837
17196W        W87077  43.943  14.643  12.960
17197W        W87078  44.955   5.805   0.927
17198W        W87079  31.923   7.908   1.332
17199W        W87080  23.651  36.021   3.238
17200W        W87081   3.297  10.787  12.908
17201W        W87082  27.114  21.216   1.830
17202W        W87083  30.585  39.507  11.512
17203W        W87084  15.634  44.407   2.704
17204W        W87085   3.819  21.557   3.215
17205W        W87086  44.274  26.548  10.127
17206W        W87087  19.659  28.147   4.644
17207W        W87088   0.480  13.278   2.333
17208W        W87089  16.272  26.142   0.813
17209W        W87090  43.866  15.162  11.978
17210W        W87091  28.089   0.271  12.027
17211W        W87092   4.244  43.382   1.708
17212W        W87093  36.968  24.540  11.505
17213W        W87094  13.236  35.406  14.423
17214W        W87095   2.323  36.023  11.968
17215W        W87096  35.537  30.499  14.414
17216W        W87097   7.370  23.215  14.022
17217W        W87098  31.043   5.269  11.437
17218W        W87099   0.260  24.088   3.670
17219W        W87100  27.626   7.743  12.419
17220W        W87101  13.611  44.297  10.628
17221W        W87102  36.077  19.091   2.313
17222W        W87103  39.039  41.536  13.018
17223W        W87104  16.090   9.379   3.247
17224W        W87105  11.842   9.689  13.939
17225W        W87106   8.198  20.260   2.847
17226W        W87107  33.931  10.143   1.855
17227W        W87108  36.947  37.911   3.695
17228W        W87109   6.816  20.074  10.593
17229W        W87110  42.006  15.797  10.499
17230W        W87111   5.743  24.062  13.861
17231W        W87112  19.689  26.531  13.398
17232W        W87113  27.192   1.284   2.862
17233W        W87114  27.473   7.211  12.462
17234W        W87115  13.344  39.527   4.121
17235W        W87116  27.058  41.970   2.888
17236W        W87117  38.953  20.638  13.840
17237W        W87118   1.973  43.301   0.415
17238W        W87119  15.627  37.871   2.722
17239W        W87120   6.241   2.882  12.527
17240W        W87121  31.596   1.863   3.201
17241W        W87122  27.079   6.285  11.902
17242W        W87123  24.582   0.894  13.548
17243W        W87124  44.314  28.940  14.921
17244W        W87125  17.767  40.324   1.371
17245W        W87126  42.362   0.906  11.857
17246W        W87127  15.721  19.589  13.373
17247W        W87128   5.296   1.456   1.757
17248W        W87129  19.580  18.291   0.420
17249W        W87130  19.231  36.535  10.564
17250W        W87131  37.935  36.873  13.538
17251W        W87132  43.291  38.055   2.294
17252W        W87133  10.776  44.326   2.381
17253W        W87134  34.565  21.114  12.846
17254W        W87135  12.200  10.221   2.186
17255W        W87136  43.280  34.428   2.731
17256W        W87137  21.722  32.562   1.914
17257W        W87138  28.053  33.516  11.122
17258W        W87139  30.518  43.937  11.530
17259W        W87140  18.559  40.477  10.546
17260W        W87141  38.943  20.040   3.709
17261W        W87142  37.969  44.266  14.421
17262W        W87143  39.428  12.279  11.013
17263W        W87144  34.563  18.564  11.871
17264W        W87145  17.245  17.656  11.000
17265W        W87146  35.034  37.023   1.860
17266W        W87147  21.209  32.580   1.822
17267W        W87148  40.810  14.116   3.367
17268W        W87149  23.050  20.602   3.363
17269W        W87150  15.715  15.254  12.544
17270W        W87151  23.120  19.652  10.901
17271W        W87152   7.296   7.694   3.147
17272W        W87153   5.241  18.216   1.899
17273W        W87154  38.451  40.367  13.972
17274W        W87155  29.149  25.576   0.843
17275W        W87156  34.613  28.061   4.259
17276W        W87157  41.792  10.198   1.341
17277W        W87158  21.718  25.158  13.426
17278W        W87159  14.595  31.082   0.264
17279W        W87160  23.188  43.823  13.360
17280W        W87161  36.963  36.989   1.237
17281W        W87162   1.476  43.783  13.805
17282W        W87163  35.407  26.112   1.764
17283W        W87164   1.779  38.367   4.122
17284W        W87165  24.658  33.126  10.475
17285W        W87166  29.050  25.589  11.035
17286W        W87167  10.166  40.534   2.308
17287W        W87168  16.312  22.525  11.401
17288W        W87169   2.268  11.734   0.756
17289W        W87170  29.564  41.828   2.707
17290W        W87171  16.810   4.850   3.829
17291W        W87172   9.328  15.689   3.152
17292W        W87173  13.813  34.103   0.379
17293W        W87174   4.360  28.031   2.681
17294W        W87175  25.218  21.056   5.298
17295W        W87176  33.949   3.906  14.017
17296W        W87177  41.792  20.154   1.845
17297W        W87178  34.460   7.672   0.784
17298W        W87179  17.178  28.528   4.133
17299W        W87180  30.154  44.992  10.525
17300W        W87181  24.084  25.629  11.862
17301W        W87182  16.291  22.577   9.960
17302W        W87183  44.423  22.213   1.773
17303W        W87184  23.694  19.579   1.397
17304W        W87185   3.415  15.700   3.165
17305W        W87186  29.442  15.117  13.917
17306W        W87187  29.507   3.709  12.351
17307W        W87188  14.739   9.881   2.750
17308W        W87189  25.982  15.600   2.734
17309W        W87190  15.250  22.690  13.421
17310W        W87191   3.813  35.473  12.869
17311W        W87192  36.990  21.521  12.485
17312W        W87193  40.427  16.710   4.292
17313W        W87194  32.614  31.110   2.372
17314W        W87195  41.789   4.225  12.534
17315W        W87196  12.644  38.376  11.061
17316W        W87197  22.236  28.159  13.350
17317W        W87198  37.841  14.788  11.863
17318W        W87199   1.304  32.062  13.060
17319W        W87200  41.448  35.586  11.956
17320W        W87201  13.154  37.973  13.833
17321W        W87202  32.887  36.860   0.390
17322W        W87203  29.923  31.097  12.935
17323W        W87204  37.955   0.296  13.365
17324W        W87205  40.385  36.006  10.477
17325W        W87206  16.594  37.907  13.337
17326W        W87207  15.610  31.020   0.436
17327W        W87208  33.566  31.518  12.509
17328W        W87209   2.796   7.728  11.413
17329W        W87210   9.237  22.052  10.567
17330W        W87211  26.588  29.983  14.491
17331W        W87212  17.131  32.977   3.336
17332W        W87213  39.947   7.398   4.720
17333W        W87214  15.270  23.166  11.508
17334W        W87215  44.410   4.701  14.004
17335W        W87216  31.500  30.020  10.604
17336W        W87217  10.686  39.875  10.491
17337W        W87218  19.605   3.229   1.300
17338W        W87219  24.979  21.550  14.021
17339W        W87220  43.275  27.556   4.330
17340W        W87221   2.897  31.957   4.639
17341W        W87222  23.198  19.734   5.619
17342W        W87223   0.446   4.262   0.881
17343W        W87224   6.853  18.108  11.612
17344W        W87225  25.601  25.137   4.801
17345W        W87226  28.058  21.184   4.354
17346W        W87227  42.923   8.887   4.244
17347W        W87228  32.453  17.111  10.536
17348W        W87229  11.204  24.675   1.737
17349W        W87230  13.202  28.679   5.712
17350W        W87231  14.340  10.376  13.429
17351W        W87232   2.433  27.515  10.918
17352W        W87233  14.712  10.671  12.884
17353W        W87234  44.496   0.343  13.002
17354W        W87235  17.586  44.264   4.305
17355W        W87236  10.219   9.701  13.037
17356W        W87237  32.039  21.145   4.696
17357W        W87238  42.468  19.162   2.272
17358W        W87239  40.033  21.163   1.294
17359W        W87240  17.568  29.537   0.728
17360W        W87241  44.267  33.417   4.685
17361W        W87242  34.108  11.731  11.859
17362W        W87243  32.932   2.960  13.852
17363W        W87244  43.319  35.551  12.832
17364W        W87245  37.547  16.701   1.732
17365W        W87246  25.104   4.789  11.901
17366W        W87247  29.107  26.476   3.759
17367W        W87248  18.166  15.109  11.991
17368W        W87249  35.590  36.871  12.448
17369W        W87250  41.929  13.648  11.609
17370W        W87251   6.363  25.089   2.672
17371W        W87252  24.633  34.941  10.936
17372W        W87253  43.908  15.116  14.026
17373W        W87254  27.152   7.685  13.859
17374W        W87255   5.347  29.456   0.900
17375W        W87256  24.682  32.520   3.750
17376W        W87257  26.090  20.679   0.458
17377W        W87258  24.665   4.417  12.053
17378W        W87259  22.728  44.497  12.478
17379W        W87260  14.700  44.790  14.794
17380W        W87261  24.999   2.766   3.318
17381W        W87262  38.461   0.832   3.672
17382W        W87263  30.496  44.271   2.762
17383W        W87264   4.431  19.231   4.204
17384W        W87265  34.522  27.019   4.754
17385W        W87266  16.773   7.355   3.329
17386W        W87267  23.193   8.733  13.033
17387W        W87268  19.280  25.503   0.776
17388W        W87269  30.035  27.531  12.939
17389W        W87270  24.229   1.745   3.203
17390W        W87271   8.392  32.410   4.663
17391W        W87272  37.394  11.335  11.020
17392W        W87273  26.568  16.101   3.276
17393W        W87274  37.914   4.346  12.435
17394W        W87275  29.144   8.343   0.458
17395W        W87276  29.559  34.876  10.590
17396W        W87277  22.151   9.307   1.831
17397W        W87278   6.246  20.724  11.514
17398W        W87279  26.655  11.645  10.922
17399W        W87280  15.314  32.064  10.608
17400W        W87281   2.944  32.465  14.334
17401W        W87282  27.549  26.033  12.927
17402W        W87283  24.514  33.990   0.764
17403W        W87284  40.545  12.355  14.972
17404W        W87285  43.444  27.970  11.458
17405W        W87286  39.815   2.822   3.711
17406W        W87287   6.416   1.848   4.701
17407W        W87288   3.436   7.713  11.526
17408W        W87289  38.941  20.153   4.773
17409W        W87290  43.508  32.954  14.387
17410W        W87291  33.936  11.283  13.316
17411W        W87292  43.838  25.006   3.325
17412W        W87293   5.896  32.073   2.835
17413W        W87294  41.903  34.115   4.145
17414W        W87295  17.571  35.022   4.746
17415W        W87296  16.800   0.955   4.726
17416W        W87297  35.541  16.261  12.354
17417W        W87298  16.216  33.038  10.543
17418W        W87299  44.448  10.216  12.479
17419W        W87300  42.506  10.162   0.878
17420W        W87301   9.222  24.724   2.696
17421W        W87302   1.344  33.028  14.968
17422W        W87303  14.327   0.799   0.872
17423W        W87304  39.887   3.218   5.147
17424W        W87305   8.754  19.275  14.854
17425W        W87306  14.697   5.311   1.793
17426W        W87307  34.437  42.310  14.982
17427W        W87308   9.653   7.810  12.938
17428W        W87309  28.481  22.086  14.804
17429W        W87310  39.523   3.430  10.971
17430W        W87311  41.033  38.025  14.394
17431W        W87312   6.870   4.210   4.682
17432W        W87313  28.568  16.295  14.427
17433W        W87314  14.630  29.087   5.244
17434W        W87315  14.599  18.777  12.039
17435W        W87316  25.142  20.538   0.787
17436W        W87317   2.909  32.067   3.303
17437W        W87318  15.272  11.782   4.131
17438W        W87319  38.394  13.626   4.250
17439W        W87320  26.025  37.395  14.840
17440W        W87321  30.433  34.041   2.704
17441W        W87322   0.444  26.105  11.383
17442W        W87323  18.769  25.472   0.346
17443W        W87324  17.097  19.643   0.820
17444W        W87325  16.078  43.999  12.345
17445W        W87326  36.539  31.547  12.405
17446W        W87327  28.580  37.022  14.285
17447W        W87328  23.622   6.907   4.318
17448W        W87329  24.069  33.907   0.357
17449W        W87330  19.043  16.793   2.324
17450W        W87331  30.510  21.133  13.930
17451W        W87332  15.210  13.696  10.632
17452W        W87333  31.567  11.756   2.768
17453W        W87334  36.027  38.987   1.408
17454W        W87335  31.944   3.400  11.566
17455W        W87336  38.044  12.361   1.711
17456W        W87337  17.191  44.884   3.823
17457W        W87338  19.054  34.592  12.460
17458W        W87339   5.355  11.324   1.309
17459W        W87340  10.643  35.870  11.388
17460W        W87341   2.434   3.763  11.118
17461W        W87342   3.455   2.413   2.273
17462W        W87343  32.080  17.758  12.382
17463W        W87344  16.596  35.509  11.529
17464W        W87345  29.920  41.435  12.924
17465W        W87346  22.074  22.679   3.245
17466W        W87347  33.510  37.902   1.352
17467W        W87348  13.178  27.986   0.787
17468W        W87349   5.239  10.736   3.737
17469W        W87350  19.104  16.791   1.774
17470W        W87351  10.343  26.194  13.800
17471W        W87352  36.367  12.735  14.319
17472W        W87353  23.214  17.180  13.533
17473W        W87354   7.311  32.119  12.014
17474W        W87355  24.124  17.080  13.329
17475W        W87356   3.394  44.412  13.900
17476W        W87357  19.686  18.657   2.817
17477W        W87358   6.213  27.181  13.816
17478W        W87359  21.511  10.243   0.244
17479W        W87360  25.581  20.127  10.469
17480W        W87361  34.962  11.246   0.475
17481W        W87362  26.141  11.703   0.890
17482W        W87363  25.572   8.287  13.339
17483W        W87364  43.881  12.230   4.117
17484W        W87365   4.245  44.861  13.457
17485W        W87366   7.716  23.118   1.885
17486W        W87367  14.285  10.731  13.430
17487W        W87368   9.871  27.030   3.707
17488W        W87369  10.259  19.071  13.439
17489W        W87370  24.491  19.663  12.350
17490W        W87371  31.415   5.402  13.308
17491W        W87372  21.066  38.922  14.948
17492W        W87373  30.505  39.373  14.821
17493W        W87374  12.184   6.367   4.206
17494W        W87375   0.446  29.165  12.942
17495W        W87376  44.759  38.955   1.869
17496W        W87377  22.684  21.671  12.436
17497W        W87378  37.565   1.329   0.935
17498W        W87379  39.953  34.078   2.288
17499W        W87380   7.275   6.288   2.860
17500W        W87381  23.676  43.423   4.256
17501W        W87382  22.118  16.671  11.038
17502W        W87383   1.451  14.638   4.600
17503W        W87384  23.065   5.789   0.901
17504W        W87385  32.973  40.887   3.180
17505W        W87386  12.671  22.098  11.543
17506W        W87387   4.825  35.054   1.250
17507W        W87388  33.988   0.867   1.801
17508W        W87389  37.891  42.336   2.901
17509W        W87390  41.927  38.568   1.731
17510W        W87391  10.301  35.945   1.257
17511W        W87392  38.854  13.803   0.318
17512W        W87393  26.105  15.700  13.916
17513W        W87394   2.926  41.950   4.649
17514W        W87395  28.019  19.180  12.344
17515W        W87396  10.783  39.944  11.950
17516W        W87397  19.752   2.727  14.022
17517W        W87398  40.525  19.245   3.857
17518W        W87399  43.021  16.740   4.346
17519W        W87400  29.084  13.662  10.990
17520W        W87401   6.768  32.616   3.314
17521W        W87402  28.645  31.466  12.557
17522W        W87403   7.830  33.550  13.467
17523W        W87404  29.058  24.725   1.808
17524W        W87405  20.696   6.330  12.963
17525W        W87406   5.688  19.269  14.450
17526W        W87407  24.166   1.935   0.421
17527W        W87408  39.440  26.089   4.771
17528W        W87409   7.406  39.407  13.832
17529W        W87410  29.090  20.557   3.379
17530W        W87411  17.738   5.378  13.970
17531W        W87412   8.699  31.089  12.882
17532W        W87413  23.645  36.351  12.537
17533W        W87414  10.737  14.699   2.822
17534W        W87415  22.228   4.377   1.370
17535W        W87416  34.938  35.905   2.275
17536W        W87417  14.282  23.208   4.613
17537W        W87418  23.667  25.486  11.566
17538W        W87419  19.543  11.318   2.723
17539W        W87420  15.222  20.243  10.504
17540W        W87421  35.910   7.823  12.533
17541W        W87422  20.205  19.093  11.883
17542W        W87423   7.856  28.024  12.966
17543W        W87424  39.434  27.642  14.952
17544W        W87425  43.437  14.173  11.603
17545W        W87426  36.591  41.967  13.495
17546W        W87427  21.142  31.082  13.942
17547W        W87428   0.755  44.450  10.136
17548W        W87429  37.475  23.610  11.520
17549W        W87430  21.114   8.794  11.386
17550W        W87431  11.856   2.784   9.966
17551W        W87432  10.227  17.246  10.485
17552W        W87433  33.472  33.001   3.721
17553W        W87434  35.402   7.339   3.845
17554W        W87435  15.306  38.976   3.332
17555W        W87436  44.000  34.594  12.061
17556W        W87437  27.689  16.614   0.830
17557W        W87438   0.276   1.863   0.432
17558W        W87439  32.110  44.971  11.531
17559W        W87440  17.589   8.229   3.736
17560W        W87441  24.694   6.868  11.436
17561W        W87442  21.156  28.087   1.268
17562W        W87443  37.857  44.826   2.715
17563W        W87444   9.781   9.847  12.375
17564W        W87445  23.154   3.223   4.334
17565W        W87446  35.867  30.102   0.935
17566W        W87447  30.124  38.875  14.870
17567W        W87448   4.938  43.284   4.618
17568W        W87449  10.820  18.224   0.811
17569W        W87450   2.233  23.996   1.304
17570W        W87451  28.087  15.764  11.861
17571W        W87452  33.908   1.314   0.790
17572W        W87453  25.220   2.433  12.558
17573W        W87454  32.594  16.197   1.751
17574W        W87455  36.531   3.263  13.539
17575W        W87456  23.993  15.231  14.029
17576W        W87457  41.864  28.638  12.861
17577W        W87458  16.140  42.862   3.797
17578W        W87459  19.780  33.072  10.441
17579W        W87460  15.219  38.939   5.215
17580W        W87461  27.086  16.172   2.267
17581W        W87462  20.580   0.293   3.683
17582W        W87463   2.786  30.632   3.702
17583W        W87464  33.534   4.826  11.557
17584W        W87465   5.344  18.107  13.856
17585W        W87466  14.254  10.674   3.322
17586W        W87467  35.465  39.437   2.332
17587W        W87468  19.079  20.112   4.160
17588W        W87469   5.783  39.498  13.909
17589W        W87470  27.003  38.350  14.386
17590W        W87471  19.657  39.532  13.377
17591W        W87472  12.778  18.222  10.071
17592W        W87473  31.423  43.870  12.496
17593W        W87474  40.971  43.941  13.481
17594W        W87475  16.225  34.561  13.419
17595W        W87476  23.100  32.550   3.372
17596W        W87477  35.967  38.382   1.826
17597W        W87478  43.282  33.492   2.222
17598W        W87479  19.696  27.982   0.775
17599W        W87480  10.139  28.506  14.496
17600W        W87481  33.611  13.776   3.664
17601W        W87482  41.978  31.911  10.099
17602W        W87483  21.087   1.350   1.914
17603W        W87484   2.253  31.982  10.095
17604W        W87485  38.386  29.570  11.122
17605W        W87486  42.489  24.587   4.258
17606W        W87487  33.543   9.869   4.237
17607W        W87488  10.748   2.852  13.921
17608W        W87489  35.597  27.091  13.926
17609W        W87490  14.235  31.598   2.245
17610W        W87491  22.635  31.514   0.330
17611W        W87492  11.854  42.938  11.577
17612W        W87493  44.799  13.111   2.873
17613W        W87494  23.196  26.044  13.799
17614W        W87495  25.513  25.630   1.768
17615W        W87496  30.149  12.818  12.092
17616W        W87497  23.065  11.370   1.821
17617W        W87498  40.933  15.762   4.344
17618W        W87499   2.275   3.891   2.671
17619W        W87500  40.915   6.908   1.885
17620W        W87501  31.563  14.827   0.367
17621W        W87502  15.727   1.325   3.286
17622W        W87503  43.791  12.278  13.403
17623W        W87504   7.774  32.578  10.480
17624W        W87505  41.022  11.331   0.904
17625W        W87506  30.006   0.485  11.930
17626W        W87507  11.269  31.926  14.838
17627W        W87508  38.519  41.326   0.836
17628W        W87509  17.607  13.206  10.636
17629W        W87510   0.931  16.209  12.964
17630W        W87511  32.966   2.951  11.044
17631W        W87512  27.946  15.740   2.339
17632W        W87513  18.620  35.466   0.316
17633W        W87514   8.718  39.409   0.254
17634W        W87515  19.256  18.589  14.423
17635W        W87516  23.597  29.031  13.533
17636W        W87517   6.298  32.413  11.900
17637W        W87518  36.432   7.404  14.848
17638W        W87519  33.396  36.408   4.798
17639W        W87520   7.389  17.632   0.851
17640W        W87521   0.868   1.969  12.526
17641W        W87522  21.160  33.611  11.971
17642W        W87523   9.330  27.684   3.648
17643W        W87524   0.292  12.610   2.888
17644W        W87525  18.588  33.923   4.695
17645W        W87526  43.477  27.478  10.624
17646W        W87527  34.442   5.432  13.976
17647W        W87528  42.446   6.347   3.678
17648W        W87529   9.767   9.660   3.757
17649W        W87530  41.930  16.145   3.184
17650W        W87531   2.428  40.845  13.499
17651W        W87532  22.084  29.977   2.364
17652W        W87533  14.234  18.193  14.409
17653W        W87534   6.309  13.809  10.970
17654W        W87535  17.608  21.549  14.419
17655W        W87536  16.636  33.899  11.094
17656W        W87537  18.682  39.814  13.453
17657W        W87538  16.204  28.133  12.909
17658W        W87539  41.865  39.346   0.867
17659W        W87540   5.924   9.890   0.283
17660W        W87541  26.202  27.965   4.350
17661W        W87542  14.223   5.388   2.299
17662W        W87543  13.196   1.902  12.468
17663W        W87544   9.217  25.111  12.004
17664W        W87545  27.961   4.921   2.755
17665W        W87546  39.416  34.415   3.201
17666W        W87547  17.682  38.439  10.940
17667W        W87548   9.840  43.345   3.643
17668W        W87549  27.948  26.055   0.406
17669W        W87550  44.480   2.962   4.204
17670W        W87551  41.023  30.093  12.859
17671W        W87552  36.876  21.637  14.469
17672W        W87553   5.834  10.190  14.908
17673W        W87554  35.072  16.576   3.250
17674W        W87555  11.853  25.978  10.407
17675W        W87556  11.228  35.909  12.549
17676W        W87557   4.744  36.974   0.341
17677W        W87558   6.852  35.975  13.364
17678W        W87559  32.569   0.297  13.963
17679W        W87560  37.961  19.047  13.003
17680W        W87561  22.167  28.477  10.950
17681W        W87562  10.818  30.936  13.463
17682W        W87563  35.884  30.910  14.331
17683W        W87564  19.243  38.481  13.507
17684W        W87565   9.224  43.371   1.341
17685W        W87566  15.263  36.435   2.721
17686W        W87567   9.269  16.300  14.998
17687W        W87568  14.707  25.074  10.137
17688W        W87569  27.506  39.403  12.495
17689W        W87570  32.502  37.429  14.949
17690W        W87571  41.505  44.815  11.087
17691W        W87572  40.404   8.725   4.759
17692W        W87573  29.000   4.718   0.966
17693W        W87574  13.172  19.053  13.979
17694W        W87575   3.364  34.959   0.850
17695W        W87576  42.491  15.087   1.327
17696W        W87577   4.312  13.727  13.810
17697W        W87578  14.105  30.543  13.453
17698W        W87579   4.750  21.056   0.375
17699W        W87580  21.057   2.410   1.830
17700W        W87581  19.181  21.545  13.363
17701W        W87582  16.640  27.518  10.896
17702W        W87583  42.790  34.098  13.057
17703W        W87584  43.017  37.086   1.805
17704W        W87585   9.717  23.604   4.823
17705W        W87586  22.016   0.973   4.203
17706W        W87587  11.675  34.460   1.792
17707W        W87588  12.841  16.110   0.356
17708W        W87589  34.452  30.469   2.900
17709W        W87590  16.258  19.723   1.345
17710W        W87591  25.209  29.626  10.957
17711W        W87592  12.328   8.812   4.191
17712W        W87593  13.658  15.094   3.245
17713W        W87594  44.908  23.181   1.395
17714W        W87595  27.094  34.559   4.150
17715W        W87596  16.243   2.382  14.479
17716W        W87597  37.994  14.745  13.471
17717W        W87598  22.665  17.570   2.360
17718W        W87599  29.537  41.011   1.818
17719W        W87600  10.338  20.678   3.715
17720W        W87601  31.946  16.118  14.852
17721W        W87602  35.077  38.377  12.380
17722W        W87603   2.830  16.809   3.167
17723W        W87604  42.912  40.992  14.031
17724W        W87605  18.769  27.629  14.989
17725W        W87606   7.196  41.409  13.469
17726W        W87607  29.052  29.463   1.236
17727W        W87608   1.964   0.953  12.511
17728W        W87609  29.439  41.029  13.518
17729W        W87610  44.840   4.387   2.682
17730W        W87611  29.123  21.131  12.830
17731W        W87612  42.410  14.212  11.500
17732W        W87613  35.423   3.445  13.401
17733W        W87614  39.883   1.405   3.278
17734W        W87615  14.758  11.736  10.488
17735W        W87616   3.782  18.575   0.802
17736W        W87617  27.650  26.630  10.087
17737W        W87618  28.587   6.859  14.872
17738W        W87619  36.862   2.943  13.993
17739W        W87620   9.658  32.401   1.701
17740W        W87621   2.924  36.061   3.657
17741W        W87622  14.686  40.925  11.066
17742W        W87623  16.645  44.500   2.771
17743W        W87624  26.482   6.336  12.404
17744W        W87625  13.164  39.547   3.666
17745W        W87626   8.699  25.694   4.822
17746W        W87627  42.798  43.009   4.184
17747W        W87628  37.453   7.854   3.785
17748W        W87629  11.182  22.174  11.906
17749W        W87630  17.788  38.827   4.634
17750W        W87631  39.432  26.482  12.840
17751W        W87632  38.360  14.284  12.379
17752W        W87633  31.116  17.767  13.044
17753W        W87634  14.655  16.156   4.133
17754W        W87635  44.494   2.378   2.389
17755W        W87636  12.262  32.440  14.012
17756W        W87637   0.750  18.067  10.589
17757W        W87638  37.849  12.215   1.325
17758W        W87639  36.581   9.731   1.314
17759W        W87640  19.134  30.993  10.058
17760W        W87641  18.647  27.147   4.609
17761W        W87642  34.576   5.759   2.398
17762W        W87643   2.471  36.930   4.721
17763W        W87644  26.115   3.945   2.894
17764W        W87645  29.432  29.566  11.081
17765W        W87646  28.575  23.038   2.678
17766W        W87647  31.622  25.676  14.955
17767W        W87648   6.326  19.738   1.422
17768W        W87649  34.001   5.810   2.238
17769W        W87650  15.750   3.789  10.533
17770W        W87651  15.727  10.637   0.923
17771W        W87652   1.433  20.255   2.900
17772W        W87653  43.274  32.960  14.929
17773W        W87654   7.845   5.756  13.886
17774W        W87655  43.491   8.399  12.009
17775W        W87656   6.791  29.982  14.860
17776W        W87657  44.872   2.280  11.094
17777W        W87658  36.873   5.332  10.415
17778W        W87659  41.433   4.723  10.483
17779W        W87660  19.777  39.357   2.281
17780W        W87661   5.353  29.095   5.194
17781W        W87662  35.072  17.766   2.772
17782W        W87663  19.089  40.379  12.579
17783W        W87664  43.311  29.104   3.633
17784W        W87665  38.027   5.831   0.774
17785W        W87666  11.283  16.199   5.685
17786W        W87667  20.568  36.022   1.834
17787W        W87668   3.428   8.812  12.544
17788W        W87669  24.652  35.056   0.874
17789W        W87670   4.208  12.775  14.964
17790W        W87671  16.758  34.396   2.696
17791W        W87672  20.186  11.167   4.261
17792W        W87673  28.563  42.963   2.178
17793W        W87674  39.497  29.617   0.875
17794W        W87675  34.914  28.576  11.031
17795W        W87676  39.911  19.063   2.206
17796W        W87677  27.494  36.498  12.555
17797W        W87678  33.600  44.307   3.228
17798W        W87679  12.273  29.998  12.481
17799W        W87680  12.121  40.034   3.214
17800W        W87681  15.106  39.315   2.290
17801W        W87682  14.270  30.524  12.382
17802W        W87683  26.959  23.612   0.361
17803W        W87684  13.312  44.897   1.775
17804W        W87685  32.597  33.914   2.258
17805W        W87686  26.605  28.671   2.737
17806W        W87687  14.122   5.208  10.482
17807W        W87688  33.463  28.136  10.457
17808W        W87689   0.817  13.174  13.942
17809W        W87690   5.850  31.457   2.708
17810W        W87691  35.371  25.696  12.545
17811W        W87692  28.992  32.931   3.694
17812W        W87693  44.368  10.264  12.036
17813W        W87694  17.064  43.793   1.351
17814W        W87695  23.124   6.860   0.439
17815W        W87696  25.093  40.465   1.396
17816W        W87697  41.386   7.409  10.422
17817W        W87698  28.181  26.194   4.631
17818W        W87699  29.567  27.554   3.731
17819W        W87700   7.816  10.695   2.672
17820W        W87701   9.345  20.545  14.363
17821W        W87702  11.334   9.839  11.100
17822W        W87703  11.256  10.853  13.821
17823W        W87704   3.888  15.779   4.743
17824W        W87705   4.410  27.079  10.468
17825W        W87706   1.775  27.609   3.386
17826W        W87707  30.510  43.456   1.246
17827W        W87708  42.015  42.946   1.841
17828W        W87709  36.438   3.720   4.837
17829W        W87710  42.507  11.772  11.052
17830W        W87711  25.189  14.669   2.302
17831W        W87712  20.034   2.266   3.384
17832W        W87713  12.726  19.689   5.182
17833W        W87714  29.632  28.187   2.332
17834W        W87715  35.988  32.008  14.341
17835W        W87716   8.397  17.104  13.320
17836W        W87717  25.673   7.287   4.721
17837W        W87718  41.374  11.256   4.812
17838W        W87719   4.867  16.154   1.272
17839W        W87720  41.879  14.149  13.469
17840W        W87721  11.228  35.482  10.910
17841W        W87722  13.827   9.180   3.271
17842W        W87723   4.759  34.588   3.843
17843W        W87724  20.603   5.314   1.897
17844W        W87725   7.751  18.652  13.311
17845W        W87726  27.969  36.060  12.432
17846W        W87727  27.649  10.677  10.945
17847W        W87728  29.481   3.862   1.281
17848W        W87729  40.038  21.029   4.222
17849W        W87730  29.073   5.805   2.833
17850W        W87731  19.149   8.198   3.190
17851W        W87732  18.651  15.283  10.524
17852W        W87733  13.334  44.814   1.428
17853W        W87734  34.511  35.997   3.149
17854W        W87735  38.497   6.702  12.875
17855W        W87736  11.681  15.635   2.877
17856W        W87737  38.497  38.490   1.259
17857W        W87738  41.933  23.595   1.358
17858W        W87739  19.659  33.083   2.358
17859W        W87740  23.598   1.404   3.155
17860W        W87741  22.663   9.842  13.433
17861W        W87742   4.897  44.421   2.856
17862W        W87743  24.181  27.014  12.530
17863W        W87744  35.929  11.142  12.977
17864W        W87745  37.339  40.876  11.443
17865W        W87746  41.981  17.637   3.199
17866W        W87747   4.725  18.144  11.950
17867W        W87748  28.140   5.384   0.848
17868W        W87749  10.343   5.736   0.246
17869W        W87750   9.251  28.641   3.333
17870W        W87751  41.938  20.697   3.381
17871W        W87752   7.297  24.092  10.528
17872W        W87753  38.819  24.021  14.306
17873W        W87754  25.595  21.089   1.309
17874W        W87755   7.402   0.423  13.492
17875W        W87756  38.019  32.591  12.476
17876W        W87757  25.993  35.478  10.461
17877W        W87758  43.770  36.350   3.261
17878W        W87759  31.104  39.361   1.896
17879W        W87760  28.509  37.029  11.596
17880W        W87761  17.185  19.711   3.173
17881W        W87762  36.972   8.861   2.901
17882W        W87763  37.975   7.862   2.346
17883W        W87764  16.728  13.720  14.883
17884W        W87765  17.190  30.530  13.972
17885W        W87766  40.024  29.628  12.543
17886W        W87767  41.935  30.544  11.592
17887W        W87768   2.839  19.622   2.900
17888W        W87769  13.119   5.821  14.909
17889W        W87770  16.216  28.477  14.351
17890W        W87771  32.403   1.916  12.486
17891W        W87772  37.414  36.082  14.508
17892W        W87773   7.842  32.455  11.536
17893W        W87774   4.765  40.828  13.976
17894W        W87775  44.349  27.581  12.436
17895W        W87776  37.415  18.586   3.255
17896W        W87777  19.063  13.205  12.343
17897W        W87778  37.394  38.973   1.278
17898W        W87779   8.662  35.451  10.623
17899W        W87780  27.154  20.168  12.837
17900W        W87781   4.343  34.911  13.521
17901W        W87782  18.712  32.083   1.381
17902W        W87783  42.788  14.661  10.456
17903W        W87784  42.908  33.887   4.783
17904W        W87785  33.500  27.070  12.022
17905W        W87786  11.718  18.218   1.748
17906W        W87787  16.251  31.593   4.142
17907W        W87788  32.913  27.608  11.858
17908W        W87789  10.878  41.862   0.919
17909W        W87790   1.972  13.162  12.909
17910W        W87791  21.717  37.966   1.418
17911W        W87792  42.969   3.955  11.539
17912W        W87793  39.913  33.502  12.845
17913W        W87794  33.927  19.242  12.945
17914W        W87795  32.945   0.370   0.941
17915W        W87796  15.703  22.641  11.969
17916W        W87797  12.821  35.510  11.921
17917W        W87798   6.861  16.280  10.463
17918W        W87799  34.600  13.307  11.590
17919W        W87800   8.278  14.334   3.757
17920W        W87801  30.922   5.404  12.844
17921W        W87802   2.383   6.286   2.268
17922W        W87803  15.667  36.356   4.257
17923W        W87804  31.028  36.547   3.687
17924W        W87805   3.818  30.991   1.903
17925W        W87806  15.145  29.434   2.783
17926W        W87807  37.943  16.299   4.170
17927W        W87808  38.028   0.749  10.548
17928W        W87809  44.297  43.786   0.829
17929W        W87810   4.897  20.201   5.210
17930W        W87811  28.558  33.454  14.450
17931W        W87812   0.941  41.892  14.776
17932W        W87813  43.287  42.459  12.058
17933W        W87814  20.131  44.496   9.929
17934W        W87815  16.586  28.965  13.907
17935W        W87816  37.350  34.470   1.786
17936W        W87817  40.867  10.342   4.131
17937W        W87818   0.915  38.062  14.466
17938W        W87819  26.563   3.784  10.564
17939W        W87820  28.132  12.644   1.722
17940W        W87821  17.744  21.204   3.239
17941W        W87822  44.950  42.856   3.235
17942W        W87823  42.287  14.247  13.811
17943W        W87824  38.029   2.357   3.305
17944W        W87825  16.081  42.799  11.403
17945W        W87826  31.057   1.974   1.813
17946W        W87827  44.314  21.053   2.689
17947W        W87828  12.851  32.074   2.357
17948W        W87829   5.279  19.125  13.964
17949W        W87830   0.777  35.521  10.926
17950W        W87831  21.127  38.980  12.090
17951W        W87832  41.517  25.207  10.912
17952W        W87833  13.795   8.658   0.444
17953W        W87834  21.119   2.302   1.285
17954W        W87835  15.157  10.655  13.403
17955W        W87836  42.381  40.894  14.503
17956W        W87837   4.278  43.858  11.020
17957W        W87838   2.920  35.852   2.219
17958W        W87839  21.561  12.655   3.300
17959W        W87840  34.393  14.211   4.253
17960W        W87841  26.500  24.991   3.864
17961W        W87842  23.658  29.927   0.277
17962W        W87843  28.104  14.231   3.814
17963W        W87844  21.754   4.706   0.937
17964W        W87845  22.250  30.489   0.345
17965W        W87846  36.443  37.061  13.414
17966W        W87847   1.952  33.098  14.443
17967W        W87848  29.073  20.736  11.877
17968W        W87849  25.219  17.149   4.725
17969W        W87850  16.094  11.828  14.895
17970W        W87851  10.878  36.562   2.765
17971W        W87852  34.495  42.028   0.774
17972W        W87853   7.186   4.310   1.314
17973W        W87854  38.409  15.730  13.888
17974W        W87855  13.775   4.906  11.861
17975W        W87856  43.359  38.523   0.296
17976W        W87857   9.805   1.409   1.310
17977W        W87858  29.951  15.691   3.760
17978W        W87859   3.261  13.707  12.069
17979W        W87860   4.218  30.539  10.632
17980W        W87861  33.882  11.689   0.952
17981W        W87862  10.817   1.929   1.237
17982W        W87863  34.468  43.461  11.936
17983W        W87864  23.564  10.342   1.785
17984W        W87865  19.776  22.566  12.455
17985W        W87866   3.734  10.672   4.739
17986W        W87867  27.168  34.520   1.404
17987W        W87868  29.468  29.656   1.368
17988W        W87869  29.584  29.026  11.484
17989W        W87870   3.359   0.780  11.548
17990W        W87871  22.572  25.142   2.364
17991W        W87872  39.946  37.431   1.451
17992W        W87873  23.077  10.382  11.560
17993W        W87874   2.774  16.110  13.933
17994W        W87875  32.966  16.813  12.983
17995W        W87876  30.053  25.626  12.933
17996W        W87877  14.254  30.052  12.872
17997W        W87878  32.964  36.553   1.434
17998W        W87879  23.189  19.172   4.636
17999W        W87880   4.400  37.347  10.903
18000W        W87881  24.565   1.797  14.766
18001W        W87882   4.829  37.071  13.505
18002W        W87883  11.775  40.539  10.150
18003W        W87884   5.830  35.959  12.010
18004W        W87885  36.544  12.738  11.015
18005W        W87886  36.505  31.540  11.048
18006W        W87887  27.115  42.382   0.245
18007W        W87888  10.271   5.707   0.752
18008W        W87889   8.252   1.332   3.848
18009W        W87890  16.231  40.858   4.679
18010W        W87891   4.357  40.451   0.473
18011W        W87892  44.007  19.212  13.417
18012W        W87893  15.256  33.498   2.244
18013W        W87894  36.516  18.775   2.397
18014W        W87895  42.923  16.287   4.654
18015W        W87896  14.222  19.250   1.438
18016W        W87897  37.355  16.234   4.839
18017W        W87898  29.935  13.134   2.188
18018W        W87899   0.287  21.136   4.800
18019W        W87900  38.498  19.581   0.449
18020W        W87901  33.408  24.216  13.904
18021W        W87902  37.374   8.398  14.921
18022W        W87903   4.842  36.414  14.837
18023W        W87904  34.906  37.995   0.944
18024W        W87905  10.327  22.656   4.252
18025W        W87906  16.309  35.989   0.302
18026W        W87907  34.976  20.233  11.511
18027W        W87908  23.162  43.018   1.354
18028W        W87909  30.550  19.647   2.368
18029W        W87910   2.771  15.779  13.361
18030W        W87911  33.895  38.383   1.326
18031W        W87912   1.471  26.534  12.566
18032W        W87913  21.209  40.921   0.788
18033W        W87914   2.923   4.794   4.768
18034W        W87915  39.486  23.677  14.027
18035W        W87916   1.838   3.313  13.898
18036W        W87917   1.869  24.129   3.184
18037W        W87918  36.363  30.122   0.282
18038W        W87919  43.511  38.963  10.059
18039W        W87920  41.410  37.893  14.975
18040W        W87921  20.227  14.330   1.838
18041W        W87922   3.415  29.144   4.742
18042W        W87923  28.091  16.781   1.385
18043W        W87924  16.617  37.472   4.770
18044W        W87925   3.743  33.950  12.043
18045W        W87926  32.029  26.699  10.955
18046W        W87927   8.272   4.788  10.640
18047W        W87928  27.109  15.694   3.842
18048W        W87929   2.896  10.781   2.259
18049W        W87930  26.640  44.763   1.293
18050W        W87931  26.538  40.485   4.145
18051W        W87932   5.215  37.488   3.795
18052W        W87933  42.845   9.383  11.047
18053W        W87934  42.916  13.240   5.314
18054W        W87935  16.213  13.298   2.855
18055W        W87936  35.456  32.419  13.029
18056W        W87937  25.643  17.612  11.372
18057W        W87938  36.950  14.697  13.441
18058W        W87939  15.652   9.758   1.787
18059W        W87940   9.657  41.465  14.502
18060W        W87941   0.361  15.181  10.625
18061W        W87942   6.780  18.608   0.877
18062W        W87943   8.403  39.416   4.674
18063W        W87944  35.929  15.772   3.805
18064W        W87945  21.052  23.127   0.399
18065W        W87946  43.959  41.336  13.004
18066W        W87947  40.888   4.338   4.739
18067W        W87948  44.330  42.337  13.966
18068W        W87949  36.359  14.598  14.338
18069W        W87950  14.155  22.063   2.224
18070W        W87951  37.551  20.243  11.923
18071W        W87952  31.425   4.360  10.906
18072W        W87953   0.464  23.156  12.458
18073W        W87954  17.235  16.675   4.210
18074W        W87955   8.203  17.219   1.702
18075W        W87956  24.658  23.719  10.504
18076W        W87957  35.604  44.959   2.234
18077W        W87958  17.297   5.280   4.606
18078W        W87959  16.609  18.599   2.852
18079W        W87960  14.670  27.612   4.732
18080W        W87961  15.294   8.792   4.311
18081W        W87962  10.261  15.289  10.470
18082W        W87963  32.398  20.759  13.392
18083W        W87964  22.692  34.120  10.509
18084W        W87965  17.237  28.107   5.153
18085W        W87966  26.502  42.523   2.859
18086W        W87967  19.643  40.539   1.353
18087W        W87968  21.165  17.735  11.380
18088W        W87969  12.852  23.999  11.119
18089W        W87970   9.789  42.296   0.309
18090W        W87971  13.661  26.629  13.347
18091W        W87972  12.325  38.854  10.523
18092W        W87973   8.298  35.977  12.520
18093W        W87974  19.654  33.038  14.825
18094W        W87975  15.297  21.080   4.764
18095W        W87976  26.108  39.424   2.869
18096W        W87977  36.009   8.733  13.031
18097W        W87978   0.318   6.249  11.463
18098W        W87979   1.806  35.508  11.860
18099W        W87980  35.479  14.835   2.902
18100W        W87981   4.848  16.103   9.920
18101W        W87982  31.450  14.159  12.422
18102W        W87983  14.174   7.891   4.785
18103W        W87984  32.011  18.142  12.366
18104W        W87985  14.226  28.142  10.462
18105W        W87986  10.719  17.619   0.475
18106W        W87987  17.633  41.311  12.989
18107W        W87988  25.513  10.278   3.209
18108W        W87989  18.690   4.208   0.874
18109W        W87990   5.832  39.349  14.869
18110W        W87991   3.874   8.733   2.329
18111W        W87992  10.244  15.324   3.228
18112W        W87993   7.373  39.316  14.987
18113W        W87994  21.168  34.034  14.935
18114W        W87995  26.605  15.799  12.936
18115W        W87996  21.750  34.981   2.764
18116W        W87997  29.651   5.355  14.938
18117W        W87998   7.742  30.533  14.963
18118W        W87999  43.402  25.532   3.322
18119W        W88000  43.935  30.429  11.486
18120W        W88001   9.232  40.541   0.457
18121W        W88002   0.895  28.597   0.430
18122W        W88003  15.210  15.796  12.088
18123W        W88004  25.077  30.022   1.399
18124W        W88005  26.163  17.798   3.652
18125W        W88006  14.784   9.704   2.405
18126W        W88007  23.665  16.248  13.528
18127W        W88008  34.508  41.029   4.339
18128W        W88009  27.140  30.084  13.924
18129W        W88010   5.278  15.642   5.137
18130W        W88011  12.806  11.288  13.811
18131W        W88012   8.888  44.867  12.962
18132W        W88013  39.558   2.341   4.803
18133W        W88014  43.806  25.573  11.091
18134W        W88015   4.895  39.885  13.879
18135W        W88016  39.874  24.151   4.796
18136W        W88017   6.339  27.033  13.323
18137W        W88018  11.826  20.621   3.823
18138W        W88019  31.563  25.071  14.950
18139W        W88020  15.660   4.719  14.397
18140W        W88021  28.512  10.331   2.301
18141W        W88022   1.757  37.960  12.866
18142W        W88023  43.506  18.190   3.831
18143W        W88024   4.935  10.692  12.962
18144W        W88025  36.397   4.724   3.807
18145W        W88026  17.790  11.663  12.529
18146W        W88027   6.367  17.097   9.948
18147W        W88028  15.190  43.341  12.999
18148W        W88029   4.269   9.780   4.253
18149W        W88030  30.465  16.768  13.322
18150W        W88031  23.629  14.145  10.579
18151W        W88032  42.281  10.322  13.357
18152W        W88033  36.540  31.036   1.929
18153W        W88034   7.206  43.845  13.963
18154W        W88035   5.884  29.543  13.812
18155W        W88036  41.975   7.815   2.674
18156W        W88037   2.799  22.237  11.126
18157W        W88038   7.302   3.371   0.945
18158W        W88039  40.976   7.910  12.874
18159W        W88040  23.665  20.161   3.785
18160W        W88041  43.783  40.350   4.772
18161W        W88042   4.423  18.747   2.373
18162W        W88043  12.267  11.653   4.345
18163W        W88044   7.708  12.250   4.117
18164W        W88045  40.000   4.789   1.282
18165W        W88046  37.901  37.362  14.475
18166W        W88047  14.807  11.138  12.969
18167W        W88048   7.860  19.771   4.209
18168W        W88049  19.194  22.995   1.739
18169W        W88050   8.796  43.514   4.623
18170W        W88051  20.127  34.503  11.078
18171W        W88052  40.870  42.990   3.868
18172W        W88053  43.408  38.863   0.395
18173W        W88054  17.156  38.453   4.318
18174W        W88055   5.428  13.779  12.361
18175W        W88056  28.443  31.071  11.026
18176W        W88057  32.018  28.040   3.766
18177W        W88058   2.860  40.404   1.770
18178W        W88059  39.820  39.471  12.864
18179W        W88060  29.624  33.527   3.632
18180W        W88061  11.697   2.723   1.738
18181W        W88062  25.581   3.918  12.872
18182W        W88063  12.301  31.959   4.814
18183W        W88064  22.245  17.645  10.016
18184W        W88065  41.924  11.373  13.832
18185W        W88066   4.384  38.055   4.286
18186W        W88067  41.449  35.897  13.924
18187W        W88068  35.384  27.133  14.404
18188W        W88069  37.473  32.513   0.772
18189W        W88070  35.868   8.232  12.343
18190W        W88071  32.995  14.768  12.031
18191W        W88072  12.826  25.051  12.054
18192W        W88073  25.660  26.640   0.360
18193W        W88074  44.758  13.295   0.473
18194W        W88075  15.194  13.708  14.512
18195W        W88076  22.578   9.669  11.421
18196W        W88077   3.918  20.661   2.209
18197W        W88078  19.614  27.090  14.788
18198W        W88079  26.678  21.560  12.896
18199W        W88080  37.533  29.497  14.775
18200W        W88081   8.222   4.770   4.278
18201W        W88082   8.249   5.878  13.041
18202W        W88083  25.050  25.161  12.936
18203W        W88084  20.587  32.441  14.414
18204W        W88085   4.766  23.629  13.959
18205W        W88086   2.308  44.865  13.547
18206W        W88087  31.033  34.987   4.808
18207W        W88088  19.688  39.383  14.489
18208W        W88089  43.846   3.413  13.541
18209W        W88090  16.139   5.242  11.517
18210W        W88091  10.833   9.731  11.861
18211W        W88092   8.387  37.954  10.944
18212W        W88093  14.137  17.619   3.837
18213W        W88094  28.524  23.659   3.215
18214W        W88095  13.131  39.468  12.055
18215W        W88096  20.112  38.831  10.069
18216W        W88097   4.222  27.116  12.095
18217W        W88098  31.455  35.018  12.355
18218W        W88099  19.207  28.576   3.809
18219W        W88100   3.376  14.757   4.283
18220W        W88101  38.488  41.367  13.968
18221W        W88102   1.242  10.219  14.395
18222W        W88103   0.785  44.369   0.869
18223W        W88104  25.177  17.763  12.020
18224W        W88105   1.862  37.913  11.505
18225W        W88106  32.504  17.572  12.947
18226W        W88107  14.629  19.616  12.545
18227W        W88108   7.400  25.522  10.446
18228W        W88109   8.865  40.434   4.346
18229W        W88110   0.959  11.296  12.406
18230W        W88111  42.390  41.819  10.449
18231W        W88112   5.258  30.627   1.813
18232W        W88113   0.844  35.496  14.908
18233W        W88114  43.400  17.269   1.341
18234W        W88115  27.038  27.678  12.866
18235W        W88116   3.763  32.468  10.561
18236W        W88117  31.945   7.905  14.877
18237W        W88118   1.432  23.694   0.343
18238W        W88119   4.901  21.087   1.379
18239W        W88120   1.271  33.553   2.214
18240W        W88121  29.046  34.014  14.857
18241W        W88122  14.233  28.509  14.904
18242W        W88123   8.774  22.211  14.837
18243W        W88124   5.196   7.225  11.999
18244W        W88125  29.955  17.113   2.372
18245W        W88126  32.476   3.810  13.860
18246W        W88127  38.466   4.375  14.012
18247W        W88128  13.767   4.317   4.801
18248W        W88129   4.784  12.720   2.395
18249W        W88130  34.997   6.340   3.737
18250W        W88131  33.538  40.472   3.301
18251W        W88132  35.090  43.407   2.386
18252W        W88133  35.963  44.785  10.510
18253W        W88134  32.889  11.265  14.416
18254W        W88135  25.709   3.783  12.465
18255W        W88136  31.914  35.514   1.422
18256W        W88137  25.586  11.707  10.113
18257W        W88138  28.669  12.632  12.483
18258W        W88139  29.464  14.720  14.960
18259W        W88140   7.291   8.319   4.826
18260W        W88141  41.381  34.012  11.539
18261W        W88142  42.011  43.499   0.277
18262W        W88143  13.308   8.361  10.594
18263W        W88144   0.335  42.891  13.443
18264W        W88145  31.429  43.872  12.020
18265W        W88146  16.178  44.350   2.820
18266W        W88147   6.879  18.574  12.967
18267W        W88148  28.105  30.991  12.985
18268W        W88149  37.023  33.446   1.898
18269W        W88150  40.922   9.822  11.930
18270W        W88151   6.857   9.351  12.514
18271W        W88152  32.540  35.944  13.490
18272W        W88153  12.199  44.297   0.842
18273W        W88154  36.577   4.284   0.935
18274W        W88155  42.922  15.109  10.892
18275W        W88156  32.542  36.482  10.486
18276W        W88157   5.315  18.689   3.681
18277W        W88158  15.108  31.117   1.274
18278W        W88159  25.007  11.189  12.573
18279W        W88160  38.969   9.312  13.955
18280W        W88161  42.430  32.110  11.495
18281W        W88162  11.294  20.608   1.833
18282W        W88163  25.565  36.947  12.825
18283W        W88164   9.750  41.831   0.910
18284W        W88165   0.783  29.450   3.820
18285W        W88166  38.005  33.546  10.894
18286W        W88167  14.222   9.391  12.090
18287W        W88168  30.654  29.171  11.543
18288W        W88169  13.626  18.078   1.769
18289W        W88170   2.340  36.956   2.764
18290W        W88171  28.046   7.186   3.697
18291W        W88172  30.101  18.160  14.024
18292W        W88173  13.846  32.890   0.293
18293W        W88174  27.986  27.581   4.227
18294W        W88175  29.979   6.871  10.643
18295W        W88176   9.671  18.718   3.372
18296W        W88177   9.691  27.497   4.735
18297W        W88178  11.783  16.148  14.870
18298W        W88179   5.727  17.178  12.532
18299W        W88180   0.902  16.759  12.439
18300W        W88181  14.329   2.379   1.711
18301W        W88182  12.195  37.522  11.577
18302W        W88183   0.254  12.690  10.569
18303W        W88184   3.956  11.667  14.371
18304W        W88185  33.095  42.841  14.423
18305W        W88186  22.240  31.624  14.984
18306W        W88187  36.457  19.285   2.204
18307W        W88188  23.144   4.757   3.867
18308W        W88189  31.628  13.231   1.439
18309W        W88190  33.064   1.900   0.472
18310W        W88191  32.909  26.560   4.211
18311W        W88192   7.864  32.968  14.958
18312W        W88193   8.886   6.903  12.830
18313W        W88194  10.272  22.711  12.999
18314W        W88195   4.816   3.869  10.443
18315W        W88196  28.541  44.914  14.795
18316W        W88197   6.360  43.371  13.831
18317W        W88198  25.970  40.926   2.214
18318W        W88199  22.242  38.512   2.740
18319W        W88200  12.306   2.339  11.070
18320W        W88201  43.795   6.231   1.356
18321W        W88202  25.507  17.627  12.499
18322W        W88203  23.700  30.146  11.038
18323W        W88204  44.450  26.576  12.846
18324W        W88205   5.408  40.959  12.524
18325W        W88206   7.842  41.974   2.305
18326W        W88207  26.474   4.902  12.919
18327W        W88208   1.378   2.394  11.488
18328W        W88209   2.888  23.138   1.844
18329W        W88210  18.638   1.260  13.496
18330W        W88211  15.225  27.682   2.202
18331W        W88212   0.858  13.312   4.179
18332W        W88213  33.998  20.238   0.377
18333W        W88214  14.722   2.917  12.438
18334W        W88215   7.193  25.109   1.924
18335W        W88216  19.593   6.231   4.721
18336W        W88217  21.039  22.604  11.472
18337W        W88218  44.399  15.109   2.834
18338W        W88219   3.450  27.479   1.271
18339W        W88220  23.091  15.146   2.406
18340W        W88221  16.800  10.274  11.082
18341W        W88222  38.843   8.227   4.610
18342W        W88223   0.468   5.374  13.491
18343W        W88224  35.944  43.981   4.671
18344W        W88225   5.246  33.099   0.774
18345W        W88226  19.641  12.175  11.122
18346W        W88227  21.139  10.350   3.722
18347W        W88228  11.222  30.435  11.407
18348W        W88229   6.879  13.705  11.902
18349W        W88230  17.108  27.526  14.507
18350W        W88231   1.243  14.695   1.404
18351W        W88232  35.598   6.908   3.798
18352W        W88233   4.795  17.720   3.657
18353W        W88234  21.531  37.009  12.495
18354W        W88235  17.305  27.193  14.427
18355W        W88236  20.766  42.350  10.943
18356W        W88237  18.194  15.820   3.725
18357W        W88238  12.809  25.125  12.402
18358W        W88239   2.883   8.823   1.726
18359W        W88240   6.330  36.563  13.974
18360W        W88241   4.343  41.356   3.824
18361W        W88242  10.777  39.406   3.728
18362W        W88243   2.253  29.455   3.268
18363W        W88244   9.783  14.763  10.476
18364W        W88245  34.613  44.450  14.426
18365W        W88246   9.795  19.678  13.337
18366W        W88247  30.477  29.536  13.387
18367W        W88248  10.688   5.435  11.901
18368W        W88249  15.579  15.306  14.413
18369W        W88250  33.900   9.835  11.048
18370W        W88251  20.043  18.717   2.289
18371W        W88252  43.284   2.919   2.890
18372W        W88253   9.268  34.899  12.579
18373W        W88254  32.931  28.979   2.249
18374W        W88255  14.339  44.878   4.819
18375W        W88256   9.799  31.104   3.170
18376W        W88257  38.942  21.672   9.930
18377W        W88258  43.410  31.632  10.508
18378W        W88259  41.825  11.329   4.137
18379W        W88260  44.446  22.646  14.366
18380W        W88261  11.775  25.504  10.926
18381W        W88262  38.910  31.496   3.300
18382W        W88263  11.751  16.567   2.406
18383W        W88264  44.814   2.383  14.470
18384W        W88265   3.896   3.750   3.712
18385W        W88266  20.266  19.750   1.791
18386W        W88267  43.366  10.718   0.475
18387W        W88268  15.731   7.708   3.305
18388W        W88269  37.069  30.509  12.895
18389W        W88270   3.280   8.889  13.320
18390W        W88271  27.146   5.230   1.749
18391W        W88272  33.459   8.399  12.995
18392W        W88273  29.571   3.422  10.417
18393W        W88274  36.030  15.129   0.452
18394W        W88275  26.073   1.412   2.262
18395W        W88276  15.239   0.811   0.422
18396W        W88277  11.286   5.822  14.952
18397W        W88278  13.602  12.653  13.479
18398W        W88279  23.999  30.086   2.888
18399W        W88280   4.278   0.927   3.710
18400W        W88281  36.067  31.112   0.860
18401W        W88282  21.163  26.055   4.300
18402W        W88283  20.677  26.661   4.125
18403W        W88284  36.363  14.812   2.318
18404W        W88285  42.342  40.031  11.522
18405W        W88286  14.611  31.151  13.877
18406W        W88287  34.384  43.944  14.373
18407W        W88288   8.840  41.317  11.906
18408W        W88289  22.602   8.667   9.940
18409W        W88290  22.736   6.916  10.495
18410W        W88291  26.501  15.632   0.794
18411W        W88292   6.271  36.885   4.137
18412W        W88293  19.268  43.338  14.937
18413W        W88294  16.782  11.262   3.803
18414W        W88295  15.234  23.145  10.485
18415W        W88296  37.982  16.150   4.773
18416W        W88297   4.944  37.052  13.901
18417W        W88298  34.454  27.689   3.364
18418W        W88299   0.393  21.030  14.501
18419W        W88300  29.456  25.169  13.911
18420W        W88301  32.996  18.691  12.913
18421W        W88302  13.623  43.829  14.914
18422W        W88303  12.326  30.473  10.125
18423W        W88304  42.996   6.412   5.256
18424W        W88305   0.859  18.172   5.297
18425W        W88306  19.045  29.654  13.035
18426W        W88307  42.022  40.372   4.767
18427W        W88308  34.967  36.351   2.733
18428W        W88309  40.473  17.079   5.091
18429W        W88310  37.428  39.033  12.426
18430W        W88311   7.256  10.195  11.550
18431W        W88312  31.994  35.487   3.841
18432W        W88313  10.662  36.858  14.391
18433W        W88314   2.319  30.547  11.910
18434W        W88315  20.599   4.698   2.733
18435W        W88316  18.291  15.323  12.365
18436W        W88317   4.739  25.155  13.518
18437W        W88318  13.117  11.648  11.123
18438W        W88319  19.619  10.162  14.277
18439W        W88320  39.847  30.101   4.630
18440W        W88321  34.995  38.519   4.832
18441W        W88322  13.152  28.440   1.718
18442W        W88323  27.076   9.866   4.122
18443W        W88324  34.457   4.281  14.323
18444W        W88325  31.928  27.030   2.315
18445W        W88326  24.563  27.568   3.710
18446W        W88327  28.149  30.134  14.027
18447W        W88328  24.067  28.585   1.284
18448W        W88329   4.833   1.284  13.532
18449W        W88330  17.213   6.863   1.445
18450W        W88331   0.449  32.105  14.298
18451W        W88332   1.774  13.726   3.344
18452W        W88333  31.145  27.482  10.630
18453W        W88334   9.371  17.592   2.853
18454W        W88335  15.698  20.048  11.509
18455W        W88336   9.839   4.352  11.489
18456W        W88337  31.586  44.008  13.428
18457W        W88338  40.493  14.146  10.529
18458W        W88339  31.486  29.623  11.020
18459W        W88340  32.624  28.020   1.795
18460W        W88341  44.352  39.038   3.718
18461W        W88342  10.309  27.602   0.903
18462W        W88343  28.434  23.044  14.475
18463W        W88344  34.998  23.069   3.835
18464W        W88345   5.886  40.980  12.965
18465W        W88346  14.708  38.540  12.364
18466W        W88347  19.769  23.716  13.309
18467W        W88348  15.638  38.987  10.055
18468W        W88349  33.462  23.216  12.372
18469W        W88350   7.361  32.614  10.892
18470W        W88351  44.282  42.973  13.895
18471W        W88352  20.565  44.415   1.375
18472W        W88353  13.709  14.156  13.393
18473W        W88354   1.397   4.727  11.106
18474W        W88355   8.255  38.060   1.698
18475W        W88356  31.447  35.490   1.727
18476W        W88357  35.913   7.806  14.363
18477W        W88358  42.980  37.500   4.619
18478W        W88359  28.067   2.226   0.289
18479W        W88360  34.057  43.323   0.792
18480W        W88361  35.604  31.069   1.397
18481W        W88362  22.212  28.027   0.453
18482W        W88363  14.666  14.216   1.385
18483W        W88364  20.735  24.119  10.540
18484W        W88365  44.997  23.227   0.941
18485W        W88366   7.693  35.884   0.363
18486W        W88367  29.436   0.320   1.430
18487W        W88368  10.361   8.401  11.566
18488W        W88369  43.342  39.540   4.294
18489W        W88370   9.889   5.919   2.725
18490W        W88371  17.740  14.318  14.438
18491W        W88372  10.253  11.147   1.875
18492W        W88373   0.774   6.721   2.844
18493W        W88374  11.218  23.550  10.432
18494W        W88375  29.606  41.380  11.571
18495W        W88376  29.958  40.040   2.239
18496W        W88377   4.230  29.523  12.514
18497W        W88378  36.426  36.886  14.400
18498W        W88379  41.904  27.530   3.723
18499W        W88380  18.746  32.518   3.709
18500W        W88381  41.806  21.691  14.481
18501W        W88382   2.905   7.311   3.782
18502W        W88383   7.808  26.498  11.945
18503W        W88384  16.635  27.562  13.450
18504W        W88385  21.669  22.239   1.803
18505W        W88386  12.184  15.720  14.328
18506W        W88387  28.001  28.086  13.498
18507W        W88388  34.453   1.735   1.900
18508W        W88389  19.261  31.608  14.022
18509W        W88390  34.384   0.369   3.772
18510W        W88391  24.099  20.600  12.378
18511W        W88392  10.329  22.607   2.265
18512W        W88393  34.578   4.431  10.418
18513W        W88394  14.205  20.716  12.473
18514W        W88395   4.768  27.088  14.427
18515W        W88396  40.320  25.205  12.038
18516W        W88397  13.135  21.189   3.308
18517W        W88398  36.426  11.821  11.107
18518W        W88399  13.131  13.236  11.964
18519W        W88400  43.382  31.977   1.733
18520W        W88401  31.582  38.074   1.436
18521W        W88402  28.092  11.200   9.956
18522W        W88403  29.468   1.323  12.835
18523W        W88404  32.952  15.220   4.251
18524W        W88405  13.621  37.891   0.259
18525W        W88406  25.534  39.038  13.423
18526W        W88407   7.668   0.946   0.316
18527W        W88408   7.776  21.201  10.558
18528W        W88409  17.226  33.026   4.173
18529W        W88410  37.377   4.931   3.299
18530W        W88411  28.951  11.718  11.495
18531W        W88412  42.287  11.678   1.305
18532W        W88413  31.646  17.232  13.824
18533W        W88414   9.284   1.901   4.194
18534W        W88415  29.656  24.974   1.390
18535W        W88416  28.496   1.882  14.398
18536W        W88417   4.891  11.282  13.393
18537W        W88418  30.007   2.947  13.513
18538W        W88419  24.508  27.599  13.946
18539W        W88420  12.707  44.414  13.904
18540W        W88421  36.463  22.210   4.140
18541W        W88422  32.915  13.201  14.998
18542W        W88423  24.101  42.823   4.154
18543W        W88424   7.285   7.222   0.743
18544W        W88425  44.500  26.592   1.871
18545W        W88426  22.165  16.307  14.380
18546W        W88427  37.526   6.369   4.612
18547W        W88428  35.523  25.569   3.352
18548W        W88429   9.359  41.439  13.963
18549W        W88430  38.922  16.206  13.523
18550W        W88431  12.817  24.634  14.866
18551W        W88432  10.797  21.055   4.764
18552W        W88433  29.563   8.321   5.647
18553W        W88434  42.387  37.952   2.789
18554W        W88435   4.930  26.020  10.907
18555W        W88436  26.078  37.960  14.978
18556W        W88437  17.266  22.006  12.479
18557W        W88438   2.723  28.521  13.399
18558W        W88439   1.845  20.035   1.332
18559W        W88440  25.134  41.964   1.704
18560W        W88441  14.688  42.405  12.567
18561W        W88442  30.580  36.353  13.029
18562W        W88443   7.205  30.091  11.492
18563W        W88444  41.903  13.638  10.933
18564W        W88445   2.855  31.425   2.675
18565W        W88446  14.327   2.788   0.449
18566W        W88447  24.550  43.779  13.807
18567W        W88448  44.378  43.299  14.794
18568W        W88449  33.904  16.187   3.640
18569W        W88450  42.383  15.325  11.611
18570W        W88451  20.715  43.935   2.791
18571W        W88452   4.220   7.786  11.478
18572W        W88453  40.834   3.308   3.691
18573W        W88454  23.611  24.186   4.260
18574W        W88455  14.785  17.216   4.765
18575W        W88456  19.130  31.526  13.462
18576W        W88457  18.615  24.994  14.422
18577W        W88458  26.577  19.206   4.788
18578W        W88459   3.265  32.133   4.204
18579W        W88460  20.722  16.135  11.457
18580W        W88461   3.913  18.100   4.293
18581W        W88462  33.477  35.887   4.678
18582W        W88463  29.497  37.842   0.748
18583W        W88464  17.171  22.547   4.679
18584W        W88465  43.902  15.666   3.762
18585W        W88466  15.648  42.417  13.833
18586W        W88467  33.939   8.187   1.397
18587W        W88468  21.154  30.652  12.489
18588W        W88469   3.273  37.992   3.670
18589W        W88470   3.340  41.418   3.813
18590W        W88471   6.391  13.698  14.426
18591W        W88472   9.205   2.897   4.810
18592W        W88473   3.752  39.844   1.900
18593W        W88474  29.464  24.484  12.047
18594W        W88475   9.727  42.298   1.772
18595W        W88476  18.114  28.144   4.115
18596W        W88477   0.856  15.591   2.767
18597W        W88478  35.950   3.906   4.201
18598W        W88479  26.076   5.227   4.158
18599W        W88480  20.745  18.265   3.244
18600W        W88481   4.870  13.221   0.763
18601W        W88482  20.174  21.557   3.764
18602W        W88483  32.945  13.651   4.141
18603W        W88484  39.048  10.740  11.433
18604W        W88485  28.985  35.856  13.007
18605W        W88486  30.589  40.002  11.454
18606W        W88487  23.584  41.789  11.474
18607W        W88488  42.515  36.879   1.873
18608W        W88489  42.320  16.623   4.664
18609W        W88490  23.054  21.109   0.473
18610W        W88491  13.819  14.812   0.900
18611W        W88492  35.413   4.448  14.936
18612W        W88493  33.038  31.485  14.295
18613W        W88494  33.395  13.343   1.245
18614W        W88495  43.486  24.060  12.009
18615W        W88496  14.722  22.741   0.340
18616W        W88497   1.802  27.504   0.340
18617W        W88498  42.778  12.207  11.972
18618W        W88499  22.190  20.136  13.435
18619W        W88500  42.287   4.218   3.798
18620W        W88501  24.644  18.674   1.776
18621W        W88502  35.040  31.629  11.424
18622W        W88503  33.570   3.389   2.234
18623W        W88504  37.514   8.334   0.427
18624W        W88505  35.974   6.240   4.171
18625W        W88506  13.795  36.970   3.782
18626W        W88507  33.051   6.913   4.623
18627W        W88508   0.898  35.535  10.504
18628W        W88509  33.101  27.196  10.938
18629W        W88510  14.647  23.022  10.472
18630W        W88511  19.628  44.859   1.778
18631W        W88512  44.391  26.584   4.817
18632W        W88513  15.238   6.770  13.405
18633W        W88514  20.144  42.937  12.393
18634W        W88515  35.557  12.736   2.689
18635W        W88516  12.230  14.198  12.355
18636W        W88517  24.669  17.219   4.633
18637W        W88518   3.888  17.788  13.537
18638W        W88519  33.948   5.893  14.342
18639W        W88520  16.270  31.901  11.441
18640W        W88521  26.957  21.205   4.806
18641W        W88522  37.007  44.940  14.347
18642W        W88523  10.635  24.562   4.133
18643W        W88524  41.364  36.436   1.309
18644W        W88525  20.721  25.517   2.248
18645W        W88526  39.864   6.341  10.910
18646W        W88527   8.776  38.552  13.810
18647W        W88528  26.603   7.263   3.837
18648W        W88529  35.875  18.709  14.881
18649W        W88530  34.067  44.446  10.537
18650W        W88531  24.677  25.200   2.267
18651W        W88532   4.379   0.821   0.315
18652W        W88533   7.252   3.372   2.666
18653W        W88534   6.729  31.949   2.672
18654W        W88535   3.780  36.560  14.333
18655W        W88536  16.283  12.806   1.336
18656W        W88537  34.061  17.203  11.993
18657W        W88538  31.426  24.636   0.398
18658W        W88539  41.347   5.336  12.435
18659W        W88540  40.374   8.332  13.536
18660W        W88541   4.744  10.824   3.238
18661W        W88542  37.954   1.432  13.353
18662W        W88543  32.557  43.384  14.865
18663W        W88544  12.642  41.910   1.771
18664W        W88545  24.977  28.553   3.646
18665W        W88546  36.487  20.708  13.836
18666W        W88547  19.264  35.011   3.270
18667W        W88548  21.255  18.194  10.048
18668W        W88549   1.800  43.783  12.082
18669W        W88550  40.878  16.280   1.296
18670W        W88551  33.604  30.655   0.359
18671W        W88552   1.761  43.513   1.249
18672W        W88553  38.494  17.286   1.344
18673W        W88554  28.453  13.224  14.773
18674W        W88555  24.133  29.076  14.798
18675W        W88556  44.892  41.799  11.867
18676W        W88557  18.636  12.843  10.123
18677W        W88558  27.507  38.449  12.370
18678W        W88559  31.498   7.849   0.476
18679W        W88560  23.100   3.890   0.252
18680W        W88561  28.029  42.935  12.051
18681W        W88562  30.519  29.657  11.600
18682W        W88563  39.037  15.167   3.218
18683W        W88564  44.874   8.344  10.489
18684W        W88565   3.401  44.844  14.928
18685W        W88566   8.318  22.539  14.842
18686W        W88567  11.650  27.563   2.328
18687W        W88568  12.742  27.686   2.326
18688W        W88569  12.277  16.613   4.835
18689W        W88570   5.223  27.604  13.449
18690W        W88571  11.287   9.780   1.327
18691W        W88572  16.272   2.961  14.018
18692W        W88573  21.109   3.291  13.344
18693W        W88574  29.982  41.963   0.331
18694W        W88575  39.061  34.056  12.055
18695W        W88576  27.502  25.969  11.908
18696W        W88577  11.657   8.812   3.225
18697W        W88578  33.623  35.060   1.738
18698W        W88579   3.856  38.394  11.606
18699W        W88580  17.132  17.143  11.907
18700W        W88581  10.158   5.884  11.372
18701W        W88582  39.393  42.372  14.025
18702W        W88583  27.671  19.170   2.748
18703W        W88584  22.575   4.740  10.045
18704W        W88585  33.878  30.454  11.111
18705W        W88586  25.559  27.022   4.776
18706W        W88587   7.887  13.658   4.280
18707W        W88588  11.301  19.075   0.777
18708W        W88589  17.269  37.443  11.085
18709W        W88590  22.128  28.154   1.773
18710W        W88591  11.793   7.685  10.645
18711W        W88592  37.338   4.768  12.502
18712W        W88593  19.699  38.005  11.877
18713W        W88594  24.159  40.010  13.990
18714W        W88595  23.073  20.170  14.291
18715W        W88596  16.695  40.986  14.937
18716W        W88597  40.322  15.635   4.222
18717W        W88598   4.770  33.610  11.536
18718W        W88599  24.478   1.360  11.057
18719W        W88600  12.244  25.598   2.685
18720W        W88601  42.928  36.382  14.323
18721W        W88602  26.164  36.992  13.032
18722W        W88603  28.593  16.742   0.396
18723W        W88604  26.972  19.047   4.130
18724W        W88605  32.960  20.715  11.427
18725W        W88606  11.848  15.649   4.329
18726W        W88607  33.424  19.663  10.929
18727W        W88608  39.852   6.188  12.087
18728W        W88609  33.117  23.033   3.214
18729W        W88610  11.824  40.486   1.304
18730W        W88611   4.769   2.239   4.688
18731W        W88612  38.328  33.123   0.419
18732W        W88613  38.365  11.812  11.401
18733W        W88614  16.219  24.089  13.354
18734W        W88615   5.790  11.187   4.707
18735W        W88616  13.825   4.849   2.308
18736W        W88617  36.913   5.247  13.838
18737W        W88618  36.481  15.139   2.665
18738W        W88619  32.925  22.120   1.870
18739W        W88620  43.514  11.351  12.449
18740W        W88621  20.029  29.929   4.117
18741W        W88622  16.806  33.886   0.254
18742W        W88623  21.664  16.129  14.491
18743W        W88624  37.055   0.979  13.063
18744W        W88625  31.457   2.285  11.593
18745W        W88626  42.411  17.296   1.433
18746W        W88627  33.045  31.404  12.970
18747W        W88628   0.259  11.853   1.240
18748W        W88629  13.284   7.212   5.115
18749W        W88630  24.694  12.214   0.353
18750W        W88631  42.317  40.798  10.464
18751W        W88632  25.156  17.151  11.532
18752W        W88633  38.930  35.006  10.556
18753W        W88634  30.529  10.309   4.227
18754W        W88635   8.356  15.269   4.638
18755W        W88636  12.129  14.142   0.368
18756W        W88637  15.303  21.177   0.871
18757W        W88638  21.132  13.320  12.395
18758W        W88639  19.594  24.587  11.010
18759W        W88640  40.525  11.684   0.767
18760W        W88641  33.115   7.238   0.310
18761W        W88642  10.295  23.532  11.878
18762W        W88643  22.653  16.278  11.474
18763W        W88644  15.220  38.365  10.145
18764W        W88645  30.020  35.859  10.936
18765W        W88646  24.698  33.589  12.906
18766W        W88647  31.567   7.898   2.688
18767W        W88648  28.654  11.737  13.486
18768W        W88649  27.016  23.091  11.860
18769W        W88650  19.070  43.482   4.181
18770W        W88651   6.261  28.475  11.387
18771W        W88652  42.471  24.164   0.728
18772W        W88653  23.051  35.440   1.775
18773W        W88654  38.870  17.765   1.219
18774W        W88655  10.768  19.263  12.401
18775W        W88656  38.821  26.037   4.238
18776W        W88657  15.299  19.551   2.783
18777W        W88658  31.606  15.233  12.855
18778W        W88659   5.233  38.443   1.924
18779W        W88660  19.625   3.823  10.631
18780W        W88661  27.947  38.829  14.933
18781W        W88662  23.532   2.287   3.781
18782W        W88663  18.563  34.501  13.547
18783W        W88664  44.931  20.085   3.654
18784W        W88665   7.360  21.144  14.871
18785W        W88666   6.423   6.906   4.663
18786W        W88667  38.911   1.890   9.987
18787W        W88668  20.694   7.889  14.786
18788W        W88669   4.910  38.892   2.220
18789W        W88670  34.523  14.633  13.462
18790W        W88671  33.903  22.562  12.473
18791W        W88672   0.878  44.916   0.789
18792W        W88673  19.741  31.490   0.416
18793W        W88674   2.744  28.005   0.287
18794W        W88675  17.159   2.812   1.738
18795W        W88676   6.840  15.824  13.475
18796W        W88677  19.658  37.381   2.678
18797W        W88678   2.339  25.979  10.463
18798W        W88679  32.081  27.074   1.863
18799W        W88680  14.228  17.223  14.950
18800W        W88681  24.994  19.215   0.943
18801W        W88682   7.304  32.888  14.451
18802W        W88683  28.995  35.440   3.735
18803W        W88684  38.010  20.208   1.402
18804W        W88685  36.876  37.971  12.388
18805W        W88686  29.471  20.698  12.420
18806W        W88687   7.200  16.625  14.001
18807W        W88688  43.431   6.792   2.672
18808W        W88689  13.231  43.803   1.739
18809W        W88690   0.317   8.874  10.472
18810W        W88691   3.449  29.116  14.995
18811W        W88692   6.262   0.458  10.523
18812W        W88693  31.948  39.323  10.916
18813W        W88694   5.884  15.670   0.816
18814W        W88695  26.961  21.068  14.328
18815W        W88696  11.786  13.110   0.865
18816W        W88697  12.763  39.876  10.560
18817W        W88698   8.745  39.901   0.759
18818W        W88699   4.322   7.368  12.017
18819W        W88700  43.793  22.067  13.041
18820W        W88701  39.037  26.558   4.829
18821W        W88702  14.618  40.451  13.868
18822W        W88703  19.612  30.085   5.698
18823W        W88704  44.312  33.919   5.101
18824W        W88705  30.601   3.755  13.933
18825W        W88706  42.944   0.374   2.687
18826W        W88707  10.302  17.618   0.342
18827W        W88708   6.824   3.925  13.027
18828W        W88709   4.745  18.605  10.572
18829W        W88710   1.327  19.283   1.230
18830W        W88711  24.537  32.136   3.800
18831W        W88712  10.808   4.378  12.356
18832W        W88713  21.605  29.128  11.566
18833W        W88714  29.927   0.872   0.308
18834W        W88715  12.187  17.169   2.783
18835W        W88716  26.156  26.176   2.665
18836W        W88717   0.412   9.875  13.521
18837W        W88718  24.558  35.415   4.226
18838W        W88719  40.813  25.022  14.913
18839W        W88720   9.873   9.385   0.904
18840W        W88721  24.203  36.454   2.298
18841W        W88722   9.243   7.864  11.455
18842W        W88723   4.314  12.322  10.551
18843W        W88724   6.854  44.876  14.485
18844W        W88725  14.149  27.180   3.787
18845W        W88726   9.308   3.259   2.751
18846W        W88727  17.645  40.409  11.030
18847W        W88728  14.660  15.685  14.390
18848W        W88729  18.241  14.120  11.934
18849W        W88730  13.214   5.707  14.480
18850W        W88731  29.656   7.408  14.378
18851W        W88732   7.869  18.293   0.416
18852W        W88733  10.739  17.576  14.326
18853W        W88734   7.758  20.643   1.767
18854W        W88735   4.443  14.632   2.901
18855W        W88736   1.436  37.576   1.341
18856W        W88737   9.311   5.824  10.514
18857W        W88738   2.305  31.914   3.852
18858W        W88739  33.887  25.606  13.391
18859W        W88740  28.972  19.203   3.804
18860W        W88741  27.010  27.982   0.254
18861W        W88742  41.379  35.040   2.740
18862W        W88743  17.747  18.199   1.329
18863W        W88744  16.644  18.591  11.961
18864W        W88745  14.167  19.691   1.819
18865W        W88746  42.497  11.816  11.557
18866W        W88747  38.969  14.230  14.397
18867W        W88748  33.618  21.232   3.741
18868W        W88749   8.843  13.334   0.956
18869W        W88750  40.318   7.868  14.330
18870W        W88751   3.795   5.928   2.698
18871W        W88752  36.016  43.916   0.782
18872W        W88753   3.774  33.432   1.708
18873W        W88754   7.351  18.664   4.256
18874W        W88755  15.734   5.873  10.529
18875W        W88756  21.128  22.028  12.041
18876W        W88757  38.938  31.004   0.472
18877W        W88758   5.717  25.030   3.823
18878W        W88759   3.756  44.865   2.231
18879W        W88760   6.861  12.339  11.585
18880W        W88761   6.377  36.486  12.484
18881W        W88762  43.332  31.132  14.842
18882W        W88763   0.830  33.985   4.299
18883W        W88764  44.295  16.203   4.267
18884W        W88765   0.308  22.175  14.001
18885W        W88766   4.284   2.338  12.396
18886W        W88767   8.664  14.829  13.970
18887W        W88768  20.218   1.966   0.862
18888W        W88769   3.744   3.829  12.553
18889W        W88770  11.770  23.646  13.943
18890W        W88771   7.394   4.798   2.313
18891W        W88772  20.150  39.026   3.150
18892W        W88773   4.916  38.865  12.836
18893W        W88774  30.472  11.371  13.975
18894W        W88775  19.045   2.434   4.311
18895W        W88776  27.195  14.662  12.921
18896W        W88777  43.883  14.780  10.623
18897W        W88778  19.713  40.332  14.001
18898W        W88779  23.036  14.295   0.822
18899W        W88780  28.156  11.865   0.742
18900W        W88781  37.962  19.744   3.265
18901W        W88782  20.164  37.000   2.830
18902W        W88783  12.790   0.842  12.536
18903W        W88784  38.842  25.689   3.828
18904W        W88785  23.146  37.373  12.519
18905W        W88786  43.825  27.550   0.422
18906W        W88787  23.035  20.110   1.350
18907W        W88788  31.405  21.738   1.935
18908W        W88789   4.698   8.307   1.799
18909W        W88790  12.684  22.716   1.399
18910W        W88791  15.241  40.814  12.459
18911W        W88792  13.748   9.727  14.421
18912W        W88793  10.156  23.999  12.079
18913W        W88794   1.333  43.313  14.929
18914W        W88795   2.267  18.594  13.045
18915W        W88796  34.896  27.144  11.958
18916W        W88797  44.961  40.831   4.615
18917W        W88798  23.065  38.035   0.369
18918W        W88799   0.381  44.896   2.373
18919W        W88800   6.739  22.576  10.500
18920W        W88801  31.433  33.907  12.358
18921W        W88802  28.953  19.727   3.300
18922W        W88803  39.552  21.212   3.770
18923W        W88804  10.285  23.020  14.927
18924W        W88805  16.801  43.908   3.289
18925W        W88806  38.915  24.199   5.219
18926W        W88807  18.613  38.534   0.727
18927W        W88808  44.387  21.524   2.845
18928W        W88809  33.124  14.623  13.814
18929W        W88810  39.409   6.680  14.369
18930W        W88811  34.408  11.313  14.361
18931W        W88812   4.934  21.175  14.307
18932W        W88813  25.030  18.296   2.719
18933W        W88814  30.580  44.004   4.132
18934W        W88815  11.210  43.321  11.024
18935W        W88816   0.483  27.004   2.369
18936W        W88817  19.260  43.011   0.401
18937W        W88818   8.684  34.897  13.032
18938W        W88819  40.854   0.963  14.938
18939W        W88820   9.195  20.143  14.885
18940W        W88821   7.708   7.392   2.366
18941W        W88822  11.706   6.742   1.928
18942W        W88823  39.856  17.771  12.037
18943W        W88824  21.191  36.378   0.453
18944W        W88825  36.454  30.510  12.392
18945W        W88826  12.201  43.309   4.319
18946W        W88827  37.548  35.928   0.403
18947W        W88828  15.638  26.179   0.450
18948W        W88829  35.359  40.348   0.955
18949W        W88830  13.728  14.609  13.013
18950W        W88831  28.606  12.756   1.882
18951W        W88832   1.795  37.515  12.560
18952W        W88833  25.142   9.759   1.700
18953W        W88834  11.798   8.748  14.794
18954W        W88835  17.692   3.790   0.835
18955W        W88836  17.308  36.088  13.313
18956W        W88837   2.787  35.579  10.943
18957W        W88838  27.017  14.268   0.444
18958W        W88839  27.998   6.859  14.976
18959W        W88840  43.969  24.668  12.931
18960W        W88841  14.105  25.073  11.402
18961W        W88842  27.006  13.770   3.222
18962W        W88843   8.852  44.966   4.615
18963W        W88844  11.348   0.398  12.975
18964W        W88845  22.029  40.895   1.344
18965W        W88846   1.318  12.195  13.368
18966W        W88847  13.787  12.725  12.429
18967W        W88848  25.176  27.055  10.928
18968W        W88849  30.917  10.167   4.169
18969W        W88850  39.377  29.574   1.395
18970W        W88851  19.743   5.320   2.861
18971W        W88852  18.067  31.524   2.417
18972W        W88853  38.033  29.085   0.848
18973W        W88854  24.495  35.078  14.435
18974W        W88855  42.809  22.583  10.441
18975W        W88856  40.411  27.117   1.786
18976W        W88857  24.081  35.546  10.535
18977W        W88858  33.460  23.999   2.369
18978W        W88859  23.191   5.841   0.472
18979W        W88860  10.750  35.494  14.987
18980W        W88861  27.030   2.779  12.914
18981W        W88862  28.999  25.042   0.736
18982W        W88863   3.256  28.036   4.319
18983W        W88864  13.711   9.875  13.936
18984W        W88865  27.122  28.001  10.483
18985W        W88866  12.690  34.490  11.603
18986W        W88867  31.408  22.678   3.839
18987W        W88868  13.710  29.633   3.282
18988W        W88869  20.687  25.480  12.957
18989W        W88870  13.281  12.653   2.662
18990W        W88871   3.824  41.381   0.342
18991W        W88872  34.433  35.078  10.556
18992W        W88873  41.803  38.872   2.329
18993W        W88874   9.688  18.782   3.836
18994W        W88875  30.652  26.036   4.294
18995W        W88876  18.261  12.335  13.872
18996W        W88877  40.328  16.102  13.990
18997W        W88878   2.254   0.781  13.811
18998W        W88879   2.336  35.514  12.966
18999W        W88880  30.547  25.197   1.841
19000W        W88881  29.132   2.352  14.764
19001W        W88882  35.024  31.116   4.811
19002W        W88883  40.525  18.661  13.483
19003W        W88884  23.056  20.733   4.703
19004W        W88885  31.589  20.131   2.281
19005W        W88886   6.737  21.585  14.330
19006W        W88887   6.341  41.486  13.916
19007W        W88888   2.311  27.035  13.318
19008W        W88889  20.135  16.739  13.059
19009W        W88890  25.971  15.708   0.430
19010W        W88891  28.181  23.137   4.726
19011W        W88892  28.996  12.814  11.985
19012W        W88893   2.394   7.245   4.772
19013W        W88894  37.074  32.600   1.285
19014W        W88895  41.008  33.454  14.839
19015W        W88896  22.149  36.970   4.635
19016W        W88897  29.517  13.123   4.598
19017W        W88898  24.599  26.464   4.181
19018W        W88899   3.409  20.630   3.180
19019W        W88900  29.166   5.868  11.502
19020W        W88901  16.659  39.480   3.810
19021W        W88902   1.398  23.496  12.427
19022W        W88903  20.558  44.962  13.048
19023W        W88904  27.687  22.600  11.416
19024W        W88905   3.423   6.690  12.823
19025W        W88906  40.486  36.566   4.649
19026W        W88907  16.242  27.062  13.812
19027W        W88908  13.793   0.325  11.899
19028W        W88909  22.626  26.125  13.438
19029W        W88910  24.981   7.244   2.208
19030W        W88911  16.613   6.397  11.555
19031W        W88912  42.932  20.625   4.180
19032W        W88913  18.264   8.283  14.472
19033W        W88914  43.775  18.226   2.749
19034W        W88915  21.213  18.180  14.847
19035W        W88916  27.025  44.964   0.908
19036W        W88917  29.950  28.646  13.466
19037W        W88918   4.251  33.466  10.616
19038W        W88919   2.393   7.666  13.000
19039W        W88920  13.608  42.507   1.880
19040W        W88921  24.187  19.585  11.507
19041W        W88922  17.089  16.582  10.583
19042W        W88923  40.890   0.391  12.492
19043W        W88924  31.091   2.277   4.613
19044W        W88925   0.985  24.620   3.240
19045W        W88926  24.150   1.404   4.309
19046W        W88927  11.798   7.270   1.241
19047W        W88928  27.144   3.402   9.972
19048W        W88929  34.473  35.081   2.712
19049W        W88930  10.817  42.912   2.821
19050W        W88931   6.417  20.235  10.416
19051W        W88932  18.194  19.612   0.791
19052W        W88933  19.777  25.566  13.407
19053W        W88934  28.162  22.142   3.331
19054W        W88935   3.870   1.733   1.350
19055W        W88936   3.215   0.273  13.946
19056W        W88937  34.100  43.993  11.981
19057W        W88938  23.209  25.501  14.398
19058W        W88939  29.485  32.588   0.968
19059W        W88940  27.115  38.442   0.357
19060W        W88941  15.282  28.121   0.279
19061W        W88942  33.462  29.965   1.260
19062W        W88943  22.500  15.313   2.718
19063W        W88944  40.398  24.659   0.338
19064W        W88945  39.934   8.395   1.852
19065W        W88946  16.304  23.182   0.731
19066W        W88947  27.028  38.982  11.401
19067W        W88948  20.070  15.169  14.025
19068W        W88949  31.469   5.406   4.809
19069W        W88950  12.612  16.616   3.235
19070W        W88951  15.685  30.623  12.087
19071W        W88952  11.673  38.058   2.243
19072W        W88953  15.780  37.366   3.764
19073W        W88954   5.912  30.518   1.863
19074W        W88955  40.944  32.935  11.441
19075W        W88956  33.494   8.394  12.418
19076W        W88957  43.450   4.766   4.233
19077W        W88958  31.127  37.022  11.455
19078W        W88959  33.053  42.333   1.447
19079W        W88960  13.615  28.099  11.027
19080W        W88961  17.098  31.940   3.342
19081W        W88962  24.606  35.898   1.306
19082W        W88963  22.075  27.958   0.844
19083W        W88964  15.589  26.476  14.319
19084W        W88965   7.869  43.347   3.678
19085W        W88966  25.678  13.694   2.762
19086W        W88967  39.975   2.746   4.204
19087W        W88968  19.773  29.978   4.729
19088W        W88969  21.523   5.360   2.786
19089W        W88970  29.021  14.719  11.860
19090W        W88971  36.066   5.794   3.186
19091W        W88972   8.770  37.021  10.017
19092W        W88973  44.437  42.510  11.399
19093W        W88974  10.171   5.301   4.332
19094W        W88975  33.888  14.223  14.415
19095W        W88976   8.735  10.224   2.351
19096W        W88977   3.748  14.100  11.375
19097W        W88978  39.546   9.883  10.417
19098W        W88979  41.355  11.719  12.394
19099W        W88980  25.657  38.885   0.299
19100W        W88981  44.809  31.122   0.374
19101W        W88982  21.255   9.694   3.261
19102W        W88983  30.531  37.910  10.620
19103W        W88984   1.928  25.052  10.432
19104W        W88985   2.946  21.039   2.288
19105W        W88986  15.658  16.662  11.126
19106W        W88987  22.236  16.807   2.257
19107W        W88988  37.400  36.591   0.956
19108W        W88989  29.509  28.972   1.773
19109W        W88990   0.798  35.947  14.865
19110W        W88991  41.501  21.020   3.857
19111W        W88992  39.454  12.295  12.961
19112W        W88993  11.366   4.344   3.797
19113W        W88994  16.090  26.489  13.808
19114W        W88995  28.943   4.750   3.782
19115W        W88996  18.727   5.786   4.801
19116W        W88997  11.837  35.385  10.900
19117W        W88998   5.286  29.436  11.496
19118W        W88999  14.778  27.598   1.242
19119W        W89000  18.567  25.527   2.307
19120W        W89001  14.167  11.845  11.097
19121W        W89002   5.338  38.057   1.797
19122W        W89003  40.798  30.433  13.048
19123W        W89004   4.264  32.893  12.096
19124W        W89005  26.605  43.315   3.758
19125W        W89006  25.546  24.050  11.076
19126W        W89007  17.119  38.564   1.731
19127W        W89008  39.860  12.198  14.508
19128W        W89009   1.872  43.893   0.832
19129W        W89010  32.563  37.032   2.738
19130W        W89011  27.186  30.515   1.322
19131W        W89012   1.877  44.472   3.246
19132W        W89013  36.534   0.445   0.380
19133W        W89014  44.272  43.459  10.443
19134W        W89015  18.770   3.368  10.086
19135W        W89016  43.826  33.073   0.819
19136W        W89017  10.803  37.536  13.463
19137W        W89018  12.129  34.007  14.402
19138W        W89019  10.807  43.844  14.323
19139W        W89020  33.623   5.327  13.977
19140W        W89021  40.516  15.138  13.441
19141W        W89022  36.447  27.619  12.070
19142W        W89023  43.883  14.787  14.816
19143W        W89024   3.423  38.069   4.169
19144W        W89025  24.596  24.103  12.022
19145W        W89026  21.576  18.063  14.010
19146W        W89027   7.709  41.423  12.400
19147W        W89028   9.213  35.490  13.000
19148W        W89029   8.168  34.991  14.851
19149W        W89030  21.625   8.695  14.481
19150W        W89031  34.988  37.465   3.176
19151W        W89032  35.062  31.632   4.164
19152W        W89033  35.086   9.769  11.400
19153W        W89034  23.629  15.670  14.789
19154W        W89035   0.337  33.057  11.938
19155W        W89036   2.287  41.893  10.550
19156W        W89037  22.112   8.367  13.424
19157W        W89038  23.002   4.849  12.979
19158W        W89039  24.645   4.296   2.689
19159W        W89040   0.320  24.202  10.549
19160W        W89041  38.878  31.087   1.369
19161W        W89042   6.222   3.406  12.439
19162W        W89043  26.562  22.215  13.851
19163W        W89044  25.185  13.636   1.705
19164W        W89045  15.654  27.048  13.842
19165W        W89046  19.062   1.248   4.324
19166W        W89047  32.074  32.080  13.366
19167W        W89048   8.836  24.184   0.896
19168W        W89049   8.198  27.082   4.224
19169W        W89050  15.175   1.481  12.530
19170W        W89051  24.618  15.787   1.450
19171W        W89052   7.789  28.510  14.320
19172W        W89053  31.514  43.447  12.844
19173W        W89054  24.699   5.343  10.558
19174W        W89055  28.955  34.561  11.042
19175W        W89056  34.105  32.002   2.387
19176W        W89057   3.343  35.009   4.742
19177W        W89058  23.662  16.315   2.733
19178W        W89059   2.404  42.985   0.763
19179W        W89060   4.271  39.476  10.484
19180W        W89061  23.632   0.767  10.904
19181W        W89062  42.343  21.519  11.126
19182W        W89063  27.034  42.378  13.411
19183W        W89064   6.692  24.145   3.314
19184W        W89065  21.660   3.816  12.090
19185W        W89066   6.922  21.733   4.136
19186W        W89067  36.029  37.892  11.090
19187W        W89068  39.016  17.742  10.566
19188W        W89069  41.390  27.498  11.394
19189W        W89070  19.231   4.824   3.720
19190W        W89071  35.988  33.619  10.596
19191W        W89072  36.524   8.353  11.896
19192W        W89073  30.519  18.069   2.717
19193W        W89074  37.941  42.017   2.706
19194W        W89075   6.822  29.452  11.066
19195W        W89076  15.651   5.862  12.037
19196W        W89077  15.216  35.989  14.885
19197W        W89078  39.838  25.133  13.006
19198W        W89079  14.664  32.429   4.119
19199W        W89080  22.672  17.753  13.861
19200W        W89081  30.496  23.709   3.769
19201W        W89082  26.632  22.010   4.665
19202W        W89083  30.603  21.091  12.427
19203W        W89084  30.077  20.167   3.755
19204W        W89085  20.722  23.241   1.910
19205W        W89086  26.206   5.713  13.520
19206W        W89087  33.118  20.606  11.063
19207W        W89088  44.930  43.834  13.853
19208W        W89089  26.957  36.593   0.792
19209W        W89090   3.720   2.883  12.885
19210W        W89091  41.953   6.784  10.429
19211W        W89092  33.125   4.855   0.292
19212W        W89093  36.957  11.259  11.388
19213W        W89094  10.708   3.942  13.426
19214W        W89095  43.510   8.885  13.823
19215W        W89096  23.191  35.094  12.523
19216W        W89097  25.184  28.436   1.358
19217W        W89098   6.733  27.997  13.870
19218W        W89099  30.151  12.145   0.447
19219W        W89100   9.186  18.188  12.962
19220W        W89101  39.487  24.193  12.934
19221W        W89102  19.048  23.065   1.354
19222W        W89103  25.117   5.332  12.021
19223W        W89104  16.610  32.100  12.040
19224W        W89105  10.362  10.295   1.274
19225W        W89106  42.888  32.086  12.873
19226W        W89107   9.855  28.087  10.943
19227W        W89108   5.315  24.088   2.374
19228W        W89109  13.662   8.770   3.691
19229W        W89110  10.346   9.224   4.727
19230W        W89111   8.352  25.600   3.221
19231W        W89112   2.759  27.592   1.713
19232W        W89113   6.248  13.744  13.062
19233W        W89114  27.464   7.177  11.975
19234W        W89115  30.948  12.153  10.515
19235W        W89116   0.814  35.466  11.550
19236W        W89117  43.489  25.606  14.431
19237W        W89118  26.701  44.432   0.849
19238W        W89119  33.973  11.205  14.369
19239W        W89120  32.446  28.176  14.501
19240W        W89121  17.249  10.675  10.561
19241W        W89122  19.094  26.171  14.511
19242W        W89123  43.303  44.929  12.010
19243W        W89124  18.733  11.290  14.473
19244W        W89125  26.474  10.315  13.455
19245W        W89126  34.992  10.288   4.268
19246W        W89127  10.155  38.918  12.844
19247W        W89128  44.342  39.506  14.974
19248W        W89129  43.461  30.965  13.517
19249W        W89130  22.746  20.768  13.318
19250W        W89131  23.202  17.267   3.335
19251W        W89132  20.572  12.824  12.876
19252W        W89133   8.266   7.226   4.303
19253W        W89134   4.435  15.585  10.943
19254W        W89135   0.337  28.626   0.419
19255W        W89136  39.457  44.957  13.337
19256W        W89137  44.771  13.333   1.426
19257W        W89138  29.515  21.586  11.945
19258W        W89139  41.455  15.187   0.377
19259W        W89140   8.734  18.710  11.372
19260W        W89141  25.045  35.852   1.367
19261W        W89142  31.146  44.425   1.803
19262W        W89143   8.245  21.717   3.345
19263W        W89144  23.240   1.833   2.850
19264W        W89145  41.980  30.522   0.746
19265W        W89146  27.191  12.267  11.939
19266W        W89147  30.466  40.959  11.555
19267W        W89148  13.309  16.810  11.096
19268W        W89149  35.504  21.172   1.387
19269W        W89150  41.964  24.497  12.929
19270W        W89151  43.335  32.890   1.817
19271W        W89152  29.494  43.890   0.423
19272W        W89153  11.634  38.557  13.943
19273W        W89154  35.489   7.337  14.992
19274W        W89155  41.945  20.267   0.260
19275W        W89156   8.790  24.603   3.300
19276W        W89157  20.092  15.617   2.378
19277W        W89158  31.614  43.442  12.551
19278W        W89159  27.565   4.818  14.935
19279W        W89160  11.283  22.634   0.433
19280W        W89161  39.381   2.303   1.767
19281W        W89162  42.876  29.460  13.932
19282W        W89163  15.729  33.105   2.879
19283W        W89164   3.342  10.767   4.784
19284W        W89165  14.827  43.366  10.635
19285W        W89166  11.159  15.687  12.961
19286W        W89167  44.812  10.301   0.417
19287W        W89168  18.241   7.713   2.732
19288W        W89169  13.682  20.208   2.227
19289W        W89170  19.596  11.175   4.782
19290W        W89171  11.772  18.785   5.278
19291W        W89172  37.953  22.226  10.509
19292W        W89173  35.548   0.372   3.641
19293W        W89174  29.048  43.796   3.822
19294W        W89175  13.779  17.071   1.804
19295W        W89176  12.267  30.989  12.453
19296W        W89177   2.954  41.389   3.384
19297W        W89178  31.447  20.641  14.442
19298W        W89179  43.512  23.204  13.335
19299W        W89180  17.176   6.744   3.267
19300W        W89181  30.435  21.737  12.551
19301W        W89182  12.205  21.718   0.419
19302W        W89183  27.098  18.276   1.323
19303W        W89184  32.060  38.570   2.303
19304W        W89185  34.947  15.602  11.082
19305W        W89186  19.205  38.025   3.155
19306W        W89187  41.843  22.689   3.798
19307W        W89188  31.606   0.428  13.958
19308W        W89189  15.598  32.138  13.904
19309W        W89190   3.318  14.672   3.205
19310W        W89191   6.221   3.349   3.359
19311W        W89192  26.571   8.715   0.835
19312W        W89193  39.484  21.055   0.357
19313W        W89194  23.544  34.524  11.404
19314W        W89195  39.934  25.571  14.510
19315W        W89196   8.336  36.464  11.076
19316W        W89197  36.960  21.660   0.796
19317W        W89198  31.952  39.429   3.649
19318W        W89199  40.425  39.833  10.464
19319W        W89200  18.544  31.134  10.593
19320W        W89201  27.188  27.669   3.869
19321W        W89202  30.484  29.652   3.823
19322W        W89203  37.087  11.731   3.703
19323W        W89204  10.796  17.245  13.950
19324W        W89205  42.821   2.925   2.241
19325W        W89206   0.928  24.720   3.658
19326W        W89207  23.068  19.183   9.992
19327W        W89208  39.557  23.227  10.614
19328W        W89209  35.873  15.221   0.946
19329W        W89210  32.140  42.865   4.224
19330W        W89211  13.793  12.126  13.433
19331W        W89212  24.013  40.959  11.603
19332W        W89213  39.052  31.127   4.765
19333W        W89214  25.089  20.560  11.106
19334W        W89215  14.595   4.795  10.494
19335W        W89216   1.481  18.238   4.624
19336W        W89217  20.076  11.707  14.496
19337W        W89218  34.408  23.091   4.315
19338W        W89219  27.028  10.276   4.274
19339W        W89220  36.383  13.717   2.338
19340W        W89221  11.766   9.666  10.083
19341W        W89222   6.873   2.853   4.764
19342W        W89223  25.676   4.205  13.402
19343W        W89224  18.634  23.151  11.913
19344W        W89225  31.580  44.954  11.090
19345W        W89226   1.891  22.025   1.433
19346W        W89227  24.018  38.419  14.978
19347W        W89228  39.541  20.153   0.913
19348W        W89229  13.238   0.776  13.855
19349W        W89230  44.414  15.289  13.974
19350W        W89231  21.182   6.374  12.096
19351W        W89232  35.997   5.360  14.921
19352W        W89233  16.571   1.755   4.151
19353W        W89234  44.952  38.858   3.377
19354W        W89235  17.713  25.567  13.830
19355W        W89236  20.203  10.779  13.487
19356W        W89237  11.235   7.773   0.347
19357W        W89238  42.449  31.140   3.215
19358W        W89239  17.617   5.335  11.504
19359W        W89240  30.452  33.889  12.039
19360W        W89241  26.016  43.004  10.424
19361W        W89242  36.931   0.421  13.996
19362W        W89243   6.887  17.294  14.432
19363W        W89244  17.295  23.147  14.985
19364W        W89245  20.120  21.018  12.032
19365W        W89246  11.313  17.748   2.841
19366W        W89247   5.808  29.023   4.638
19367W        W89248  17.133   0.269  11.930
19368W        W89249  39.449   8.264  13.504
19369W        W89250   5.815   9.805  11.019
19370W        W89251  30.438   2.373   4.257
19371W        W89252  37.470  44.471   0.852
19372W        W89253  10.864  29.613  10.514
19373W        W89254  37.935  28.511  12.078
19374W        W89255  36.955   0.372   2.370
19375W        W89256   1.315  20.033  10.442
19376W        W89257   9.378  29.578  14.024
19377W        W89258  42.308   0.867   1.877
19378W        W89259  40.990  22.997   1.356
19379W        W89260  42.510  21.755   3.642
19380W        W89261  17.080  27.643  12.510
19381W        W89262  24.058   0.863  13.970
19382W        W89263   6.811  11.821   3.849
19383W        W89264  24.201  20.078   1.783
19384W        W89265  39.952  14.274   2.397
19385W        W89266  38.943  39.411  14.007
19386W        W89267   6.809  15.804  11.934
19387W        W89268   7.883  24.618   0.807
19388W        W89269  17.620  37.523   1.765
19389W        W89270  31.044  14.591  11.571
19390W        W89271   0.469  35.525   1.802
19391W        W89272  34.556  37.370   0.761
19392W        W89273  30.572   2.776  12.407
19393W        W89274   4.808  15.088   1.216
19394W        W89275  24.203  25.469  13.001
19395W        W89276  18.271  27.556  14.859
19396W        W89277  37.844  26.208  13.338
19397W        W89278   7.701   8.875  12.562
19398W        W89279  30.640  40.922  12.051
19399W        W89280  20.134  19.593  13.976
19400W        W89281  39.376  20.604   3.670
19401W        W89282  31.479  17.136  11.862
19402W        W89283  28.451   3.297   0.283
19403W        W89284   8.283  12.620  13.923
19404W        W89285  18.722  25.989  14.867
19405W        W89286  30.125  15.793   4.249
19406W        W89287   9.818  23.041   2.775
19407W        W89288   5.233  26.640  14.917
19408W        W89289  10.152  31.405  13.935
19409W        W89290  26.142  23.053   3.721
19410W        W89291  28.467  33.993  12.891
19411W        W89292  44.811  18.740   2.870
19412W        W89293   8.265   1.886   4.255
19413W        W89294  29.536  38.381  14.298
19414W        W89295  21.655  28.981  14.409
19415W        W89296  13.155  24.196   0.345
19416W        W89297  25.182  14.825   3.699
19417W        W89298  22.083  43.992  14.372
19418W        W89299   1.929   8.210   0.772
19419W        W89300  23.209  20.118  10.089
19420W        W89301  13.819  10.804   4.159
19421W        W89302   5.245  29.974   4.601
19422W        W89303  40.407  17.639  13.975
19423W        W89304   9.300  22.105   1.874
19424W        W89305  12.726  23.000  13.972
19425W        W89306  15.304  42.372  14.873
19426W        W89307  33.128  23.545  12.424
19427W        W89308  10.162  44.943   4.790
19428W        W89309   4.239  20.767  14.822
19429W        W89310  30.591  44.992   1.247
19430W        W89311  16.290  17.769   0.763
19431W        W89312  21.157   0.929   1.412
19432W        W89313   8.767  12.155   0.326
19433W        W89314  15.651   5.807   0.875
19434W        W89315  11.637  11.675  12.530
19435W        W89316  26.971  28.530  14.375
19436W        W89317  34.504  13.205   1.237
19437W        W89318  37.486  33.546   4.602
19438W        W89319  19.187  43.449  12.828
19439W        W89320  22.647  14.339   1.831
19440W        W89321  41.452  38.038   3.656
19441W        W89322  38.391   7.870   2.251
19442W        W89323  38.006  34.889   0.832
19443W        W89324  23.220  40.351  11.514
19444W        W89325   2.808  32.593  10.620
19445W        W89326  43.765   3.711   3.328
19446W        W89327  14.786  39.886   4.191
19447W        W89328   2.942   9.319  11.453
19448W        W89329   4.746  38.823   0.364
19449W        W89330   0.870  26.462  10.043
19450W        W89331  40.447  28.015   0.773
19451W        W89332   3.450   5.334   3.790
19452W        W89333  29.164  35.901  10.542
19453W        W89334   1.792  34.027   0.812
19454W        W89335  30.066   2.461   4.642
19455W        W89336   8.748  35.942  10.932
19456W        W89337  10.753   3.460   3.724
19457W        W89338  17.261  16.185  13.889
19458W        W89339   7.186  34.462  11.930
19459W        W89340  38.945  11.657  12.828
19460W        W89341  16.167   3.766  14.996
19461W        W89342  21.529  21.051   3.733
19462W        W89343   5.253   1.856  13.370
19463W        W89344  32.400  17.225  12.506
19464W        W89345  21.041   1.372   4.144
19465W        W89346  21.568   8.845   4.247
19466W        W89347  15.289  38.367   3.848
19467W        W89348   0.751  18.222  13.044
19468W        W89349   4.942   0.380  10.081
19469W        W89350  32.944   1.806  12.393
19470W        W89351  35.916  42.419  11.861
19471W        W89352  36.525   4.814  13.797
19472W        W89353  24.057  22.543   2.301
19473W        W89354  24.207   3.377  10.042
19474W        W89355  30.999   4.723  14.018
19475W        W89356  40.988  19.104   2.394
19476W        W89357   0.917  35.363  13.049
19477W        W89358  21.637  23.084  13.826
19478W        W89359  42.860  18.114  13.436
19479W        W89360   2.266   9.883  14.345
19480W        W89361  23.673  30.575  10.900
19481W        W89362  10.760   9.217  13.819
19482W        W89363  19.275  19.706   3.770
19483W        W89364  31.083  16.687   0.946
19484W        W89365  13.690   7.842   0.899
19485W        W89366  21.751  25.691   4.118
19486W        W89367  41.528   6.787   1.804
19487W        W89368   7.837   0.311   0.886
19488W        W89369   2.330   6.828  14.274
19489W        W89370  42.961  14.170  13.052
19490W        W89371  26.996  30.989   3.150
19491W        W89372  15.256   6.714  10.936
19492W        W89373  34.113  18.782   1.923
19493W        W89374  34.465  19.118  12.340
19494W        W89375   6.219  34.445  13.430
19495W        W89376  44.489  25.168   2.789
19496W        W89377  31.436  15.196   1.864
19497W        W89378  23.551  23.710  14.338
19498W        W89379  19.246  10.776   1.416
19499W        W89380  32.481  44.320   2.299
19500W        W89381   1.777   7.289  12.366
19501W        W89382  31.899  27.031  14.358
19502W        W89383  21.525  17.230  14.428
19503W        W89384  35.477   8.717   2.718
19504W        W89385  33.624  16.721  13.951
19505W        W89386  13.628   6.266  11.409
19506W        W89387  29.999  35.473   0.800
19507W        W89388  33.621  25.631   1.322
19508W        W89389  11.175   6.279  10.431
19509W        W89390  15.296  20.716  13.037
19510W        W89391   8.898   2.462   5.177
19511W        W89392  17.752  26.107   0.940
19512W        W89393  23.510  42.322   1.227
19513W        W89394  13.681  42.006  12.027
19514W        W89395   1.262  30.917  10.966
19515W        W89396  35.047  25.036   5.274
19516W        W89397  23.082   3.716   4.117
19517W        W89398  36.437   0.774  14.445
19518W        W89399  29.926   1.248  12.009
19519W        W89400   0.935  35.411   3.758
19520W        W89401  20.738  21.181   2.341
19521W        W89402  36.066  42.944   5.165
19522W        W89403  11.722  26.653  10.633
19523W        W89404  13.248  41.818   4.181
19524W        W89405  17.798  42.413  14.837
19525W        W89406  31.064   5.878   2.903
19526W        W89407  22.697  16.628   3.681
19527W        W89408  25.564  24.212  11.531
19528W        W89409  26.670  30.629  13.060
19529W        W89410   1.966  35.036   3.749
19530W        W89411  11.173  10.237   4.355
19531W        W89412  40.033  13.118   1.917
19532W        W89413  13.804  38.054  11.608
19533W        W89414  44.991  30.633   3.179
19534W        W89415   1.809   3.399  14.394
19535W        W89416  33.593  43.897  12.087
19536W        W89417  19.237  26.956  14.429
19537W        W89418  40.996  13.136  12.362
19538W        W89419  36.859  44.928  12.900
19539W        W89420   4.923  37.025   2.380
19540W        W89421  15.089  44.443  10.990
19541W        W89422  10.292  36.976  11.000
19542W        W89423  13.182   6.375  14.803
19543W        W89424  10.146  11.225   9.952
19544W        W89425  31.486  36.356   4.205
19545W        W89426  25.049  33.553   3.847
19546W        W89427  10.764  24.507   3.633
19547W        W89428  43.513  13.730   4.318
19548W        W89429  19.729  14.287   2.308
19549W        W89430   0.271  20.028   1.729
19550W        W89431  14.734  21.653  11.085
19551W        W89432  40.986  32.568   2.263
19552W        W89433  12.130   1.742  10.930
19553W        W89434   2.369  16.082   4.728
19554W        W89435  26.206  39.992   3.268
19555W        W89436  37.382  20.251  10.940
19556W        W89437  22.577  25.486  13.314
19557W        W89438  19.539  10.703  10.981
19558W        W89439  32.072  12.332  14.435
19559W        W89440  43.429  18.595  10.575
19560W        W89441  44.417  29.502   1.366
19561W        W89442   4.895   8.201   2.797
19562W        W89443   2.385  17.185  14.293
19563W        W89444  34.540  41.988  12.921
19564W        W89445  25.052  26.083   4.273
19565W        W89446  41.350  39.992   0.389
19566W        W89447   5.726  25.516   0.291
19567W        W89448  23.536  13.223  10.416
19568W        W89449  22.082  35.536   0.438
19569W        W89450  10.652  43.448   4.662
19570W        W89451  37.557  30.577   4.233
19571W        W89452  29.176  31.026  11.585
19572W        W89453  40.532  10.322  11.454
19573W        W89454   9.765  31.486  14.366
19574W        W89455  39.332  40.989  11.584
19575W        W89456   2.426   5.696   4.269
19576W        W89457  36.039  22.535   3.827
19577W        W89458  24.704  22.509   3.692
19578W        W89459  25.578  20.195   3.333
19579W        W89460  20.526  29.558  12.448
19580W        W89461  15.785  21.138   1.796
19581W        W89462  44.791  18.233  12.891
19582W        W89463  18.658  42.858   2.788
19583W        W89464  44.337  18.102  13.353
19584W        W89465  25.594   9.694  10.973
19585W        W89466  43.458  31.034   2.195
19586W        W89467  18.205   5.198   0.410
19587W        W89468  26.686  13.749  13.432
19588W        W89469  31.141  36.940   1.437
19589W        W89470  36.392  43.971  11.435
19590W        W89471   8.724  39.371   4.730
19591W        W89472  34.920  15.297   3.696
19592W        W89473  25.481  22.709   2.691
19593W        W89474  10.322  34.526   3.745
19594W        W89475  12.306  28.075   4.821
19595W        W89476   9.283   2.396   2.350
19596W        W89477  38.451   1.958   1.890
19597W        W89478  41.347  27.146  14.921
19598W        W89479  27.509  43.496   2.323
19599W        W89480   4.723  15.136   4.167
19600W        W89481  10.740  10.371   2.886
19601W        W89482  27.063  34.596  11.881
19602W        W89483  13.234  44.859  13.404
19603W        W89484   9.873   8.364   0.250
19604W        W89485  28.484  24.064   3.268
19605W        W89486  34.893  40.950   3.715
19606W        W89487   3.950   7.804  12.944
19607W        W89488   4.933   7.819   2.355
19608W        W89489  34.963  42.284   3.152
19609W        W89490  25.594  40.953  12.495
19610W        W89491   5.225  13.788  14.336
19611W        W89492  44.940  35.023  13.516
19612W        W89493   4.392  23.585   0.346
19613W        W89494  15.233  30.496   1.700
19614W        W89495   4.272  22.101  11.982
19615W        W89496  43.356   7.704  11.986
19616W        W89497   9.252  29.645  14.501
19617W        W89498  22.681  29.042   1.262
19618W        W89499   3.767  32.096   0.747
19619W        W89500   8.842  20.737   4.838
19620W        W89501  22.027   1.289  13.355
19621W        W89502   2.744  41.853   3.657
19622W        W89503  26.501   8.350  12.948
19623W        W89504  33.125  35.446   2.353
19624W        W89505  23.985  33.436   4.792
19625W        W89506  27.630  42.953   5.165
19626W        W89507   2.874  44.993   0.454
19627W        W89508  41.490  38.830   1.851
19628W        W89509  12.349   8.786  10.972
19629W        W89510  18.287  36.852  10.456
19630W        W89511  30.971  18.133   4.745
19631W        W89512  43.892   9.847   1.451
19632W        W89513  38.990  18.608   0.844
19633W        W89514  40.443  38.036  12.001
19634W        W89515  25.708  21.577  12.026
19635W        W89516  22.701  30.015  10.579
19636W        W89517  39.033  37.982   1.291
19637W        W89518  30.160   3.861  12.070
19638W        W89519  30.641  31.150   0.445
19639W        W89520  41.923   6.352   3.313
19640W        W89521  11.361  21.581   4.234
19641W        W89522  28.448  21.694   1.859
19642W        W89523  23.153  39.040  13.402
19643W        W89524  26.474  12.290   3.870
19644W        W89525   9.363  32.630   4.675
19645W        W89526  21.181  44.803  11.606
19646W        W89527   9.666  37.474   4.183
19647W        W89528   4.247  16.726   3.325
19648W        W89529  34.892  12.632  12.831
19649W        W89530  26.064   5.289   3.294
19650W        W89531  32.432  37.950  13.792
19651W        W89532  22.098  22.653  12.875
19652W        W89533  21.711   3.312  12.558
19653W        W89534  40.358  42.442   4.209
19654W        W89535  24.209  19.709  13.337
19655W        W89536  34.426  27.170  12.379
19656W        W89537  42.493  37.075   0.460
19657W        W89538  41.386  38.032   2.893
19658W        W89539   8.362  30.951  13.868
19659W        W89540  17.621  15.650   2.236
19660W        W89541  18.253  35.583   0.362
19661W        W89542  28.594  19.084  10.899
19662W        W89543   3.787  12.789   4.136
19663W        W89544  44.417  33.466  14.807
19664W        W89545  37.992  26.697   0.430
19665W        W89546  43.799  44.501   2.183
19666W        W89547  30.471  31.595  13.990
19667W        W89548  40.933  43.923  10.552
19668W        W89549  29.458  27.474  12.857
19669W        W89550  26.199  39.002  10.625
19670W        W89551   2.440  13.158   2.851
19671W        W89552  25.689  18.081   2.417
19672W        W89553   5.811  13.306   2.179
19673W        W89554  21.143  27.161   3.665
19674W        W89555  44.757  20.209   4.806
19675W        W89556  28.607  11.768   2.311
19676W        W89557  39.509  32.603  13.335
19677W        W89558  20.527  12.171  13.369
19678W        W89559  21.666  39.023   3.706
19679W        W89560  35.466  21.185  11.499
19680W        W89561  25.181  19.209   3.662
19681W        W89562   5.854  12.356  10.447
19682W        W89563  39.542  28.087  14.362
19683W        W89564  44.400  26.060  14.416
19684W        W89565  19.277  35.505  10.428
19685W        W89566  44.323  24.103  12.998
19686W        W89567  13.349  24.564   3.299
19687W        W89568  36.436  25.131   9.921
19688W        W89569  16.143  11.224  11.576
19689W        W89570  43.789  31.131  12.027
19690W        W89571  11.365  41.015   3.195
19691W        W89572  20.653   2.894   4.287
19692W        W89573   0.445  26.951  11.584
19693W        W89574  44.791  10.733   4.195
19694W        W89575  14.780  31.568  11.500
19695W        W89576  15.773  28.491  12.475
19696W        W89577  21.250  42.306  10.984
19697W        W89578  40.850  29.602   2.384
19698W        W89579  30.443  22.512   0.791
19699W        W89580  44.420  37.951   2.211
19700W        W89581   1.291   3.766   1.252
19701W        W89582   7.387  18.761  13.061
19702W        W89583   5.820  36.524   4.636
19703W        W89584  27.123  22.677  12.359
19704W        W89585   8.244  12.674   0.958
19705W        W89586  16.586  13.826  14.374
19706W        W89587  16.097  26.209   1.832
19707W        W89588  40.431  20.698   4.806
19708W        W89589  16.642  18.627  10.485
19709W        W89590  34.017   7.700   4.213
19710W        W89591  39.887  10.336  12.376
19711W        W89592  38.011  32.445   2.866
19712W        W89593   9.340  44.969  14.451
19713W        W89594  27.107  44.800   2.736
19714W        W89595   8.744  12.659   3.720
19715W        W89596  21.546  42.992   1.811
19716W        W89597  40.004   3.836  11.012
19717W        W89598   5.362  32.927   3.379
19718W        W89599  12.665  43.421   1.362
19719W        W89600   0.791  13.286   2.248
19720W        W89601  44.876  32.584   2.328
19721W        W89602  30.062  29.146   4.176
19722W        W89603   2.270  31.059   0.771
19723W        W89604  11.210   5.379   2.663
19724W        W89605  10.314   5.918   3.722
19725W        W89606  17.291  12.248  10.605
19726W        W89607  41.431  33.048  13.050
19727W        W89608  12.321  36.097   3.233
19728W        W89609  35.548   6.331   3.154
19729W        W89610   4.392  29.514  11.508
19730W        W89611   2.429  24.075  13.352
19731W        W89612  44.962  27.048  13.320
19732W        W89613   0.467  36.447  12.093
19733W        W89614   2.908  41.499  14.008
19734W        W89615  14.100  26.170  13.383
19735W        W89616  17.187   5.871   4.173
19736W        W89617  36.510   4.422  10.953
19737W        W89618  25.648  31.532  11.893
19738W        W89619  23.133  28.938   0.411
19739W        W89620  27.619  12.239  10.582
19740W        W89621  24.186  42.434  10.913
19741W        W89622  25.149   8.290   3.222
19742W        W89623  42.340  40.416   1.830
19743W        W89624  44.776  26.074   1.337
19744W        W89625  30.948  13.780   0.443
19745W        W89626  42.396  25.214  11.923
19746W        W89627  17.120   9.692   2.890
19747W        W89628  36.397  29.088   3.832
19748W        W89629   7.278  12.301   2.364
19749W        W89630  23.656  23.513   2.773
19750W        W89631   9.381  14.756  13.906
19751W        W89632  32.464  14.338  11.486
19752W        W89633  27.181   1.770  10.998
19753W        W89634  15.214   5.250  12.907
19754W        W89635  25.501  41.518   4.716
19755W        W89636  39.028   5.719   0.483
19756W        W89637  19.047  10.747   0.433
19757W        W89638   9.250   5.872  14.942
19758W        W89639  25.018  20.083  14.439
19759W        W89640  18.736   2.779  12.521
19760W        W89641  27.190   0.945  10.990
19761W        W89642  22.704  27.683   0.292
19762W        W89643  33.876  44.816  11.373
19763W        W89644  12.616  15.784   0.303
19764W        W89645  35.385  21.160  12.417
19765W        W89646  42.026   2.784   0.884
19766W        W89647   7.396  13.105   2.222
19767W        W89648  28.087  17.739   3.266
19768W        W89649  17.624  37.874   2.217
19769W        W89650  37.034  39.378  12.867
19770W        W89651  31.403  39.425  14.368
19771W        W89652   9.778  39.849   2.852
19772W        W89653  16.163  32.535  14.467
19773W        W89654  32.928  39.904  14.448
19774W        W89655  43.859  17.092   1.823
19775W        W89656  34.443  25.665  13.428
19776W        W89657  42.855  28.130   0.899
19777W        W89658  39.491  25.572  13.432
19778W        W89659  39.488   3.897  13.019
19779W        W89660  34.531  16.670  10.639
19780W        W89661  28.603  25.185  11.495
19781W        W89662   3.306  27.571  13.517
19782W        W89663   3.851  14.296  11.883
19783W        W89664  25.134  15.745   2.182
19784W        W89665  17.768  37.375   3.197
19785W        W89666  36.541  17.620  10.490
19786W        W89667  36.475   8.877  12.823
19787W        W89668  38.890  44.926  11.926
19788W        W89669   5.428   8.273   2.876
19789W        W89670  42.953  40.497   3.208
19790W        W89671  35.516  25.593  14.486
19791W        W89672  26.961  34.606  14.003
19792W        W89673  32.541  32.938   4.171
19793W        W89674  24.613   0.395  13.409
19794W        W89675  13.107  21.568   1.413
19795W        W89676  39.543  33.604   2.708
19796W        W89677   6.814  16.228   1.741
19797W        W89678  14.325  19.585   2.729
19798W        W89679   1.737  22.716  11.455
19799W        W89680  25.020   7.172   1.391
19800W        W89681  16.293   6.404   2.364
19801W        W89682  32.089  30.020   0.759
19802W        W89683  32.994  12.268   1.904
19803W        W89684  12.743  15.708  12.844
19804W        W89685  25.999  27.511   0.741
19805W        W89686   7.214  31.596  11.414
19806W        W89687  15.742  29.611   4.764
19807W        W89688  10.201  39.314   3.649
19808W        W89689  16.756  25.616   4.297
19809W        W89690  33.489  39.414   4.685
19810W        W89691  23.001   3.426  14.918
19811W        W89692  40.917  11.676  12.356
19812W        W89693   7.276  17.778  11.603
19813W        W89694  32.392  34.906   2.774
19814W        W89695  13.605  16.641   1.278
19815W        W89696  41.846  36.434  13.427
19816W        W89697  40.854   7.412  10.994
19817W        W89698  40.016   6.281  12.529
19818W        W89699   6.875  25.213   0.941
19819W        W89700  40.888  11.844  10.585
19820W        W89701   2.341  16.115  11.584
19821W        W89702  30.045  29.468  14.786
19822W        W89703  17.680  37.365  12.061
19823W        W89704  32.577  31.553   3.228
19824W        W89705   8.333  31.599  14.488
19825W        W89706   7.297  36.928  14.029
19826W        W89707   5.840   2.954  12.086
19827W        W89708  29.650  18.575   0.340
19828W        W89709  21.178  44.000   0.392
19829W        W89710  29.112  25.076   3.722
19830W        W89711  15.715  30.595  14.793
19831W        W89712  36.079  38.338   3.735
19832W        W89713  19.725   5.406  11.860
19833W        W89714  18.066  22.563  11.373
19834W        W89715  12.206  26.153   3.297
19835W        W89716   3.401  39.815  10.999
19836W        W89717  15.104   1.889  10.514
19837W        W89718  37.025  13.832  14.315
19838W        W89719  22.506  39.429   5.207
19839W        W89720  26.461  31.427  11.042
19840W        W89721  32.416   2.784  13.976
19841W        W89722  11.785  44.876   2.308
19842W        W89723  19.546  26.539  11.527
19843W        W89724  14.249  33.040  12.003
19844W        W89725  31.646   4.742   4.326
19845W        W89726  39.453  35.554  12.576
19846W        W89727  29.029   6.852  13.386
19847W        W89728  30.467  38.965  13.445
19848W        W89729   1.872  33.074   4.220
19849W        W89730  17.253  14.722   0.445
19850W        W89731  27.152  19.281  14.816
19851W        W89732   9.255  29.505   0.378
19852W        W89733  23.550  22.692   1.796
19853W        W89734  40.963  15.636   0.425
19854W        W89735  25.610   4.339  10.952
19855W        W89736   6.271  24.542   4.125
19856W        W89737  32.426  13.732   1.227
19857W        W89738  37.058  26.688  13.428
19858W        W89739  18.177  20.154  13.394
19859W        W89740  34.399  38.845   0.880
19860W        W89741  42.992  44.830  13.037
19861W        W89742  39.371  35.452   1.864
19862W        W89743  33.105  12.629   4.251
19863W        W89744  29.047  22.746   4.631
19864W        W89745  44.000  15.283  14.419
19865W        W89746   5.377  26.472  14.501
19866W        W89747  18.750  14.190   3.184
19867W        W89748  26.170  18.677   1.798
19868W        W89749  18.068  29.425   4.333
19869W        W89750   2.268  10.828   1.290
19870W        W89751  37.058  12.294   0.804
19871W        W89752  25.999  11.279   3.678
19872W        W89753  39.389  12.255  12.555
19873W        W89754  29.018  31.564   3.287
19874W        W89755  26.620  13.298   3.677
19875W        W89756  44.856   5.297   4.126
19876W        W89757  42.397  26.653   0.476
19877W        W89758  30.907  34.952   2.848
19878W        W89759  20.193  12.823  10.108
19879W        W89760  10.148  33.928  14.783
19880W        W89761  29.139  38.437  14.407
19881W        W89762  34.940  25.609   0.950
19882W        W89763  15.779   4.296  10.941
19883W        W89764  11.358  15.177  14.471
19884W        W89765  18.675  42.958   4.183
19885W        W89766  36.899   0.914   3.365
19886W        W89767  42.519  39.509   3.151
19887W        W89768  14.337  14.801  14.950
19888W        W89769   9.383  37.495   2.780
19889W        W89770  27.177   5.226   4.334
19890W        W89771  36.550  33.414   2.768
19891W        W89772  36.561   6.365   3.790
19892W        W89773  30.912  38.490  11.096
19893W        W89774   8.668  34.920  14.420
19894W        W89775  26.194  27.140   0.280
19895W        W89776  13.728   2.790  11.892
19896W        W89777  33.984  27.482  11.113
19897W        W89778   2.764  31.001   0.299
19898W        W89779  35.870  14.725   1.917
19899W        W89780  25.599  19.565  14.911
19900W        W89781   6.869   2.312   4.688
19901W        W89782  30.955   2.858  14.415
19902W        W89783  13.730  37.373   3.645
19903W        W89784  27.646   3.284   0.875
19904W        W89785  25.070   8.282   3.753
19905W        W89786  20.662  26.602   2.195
19906W        W89787   9.835  32.114  13.819
19907W        W89788  16.586  12.793   4.125
19908W        W89789  31.022  26.016  11.030
19909W        W89790  43.010  22.522   3.214
19910W        W89791  35.534   6.837  14.884
19911W        W89792  35.028  16.578   0.357
19912W        W89793  39.938  28.127   0.343
19913W        W89794  34.408   4.816   0.738
19914W        W89795   1.959  24.041  12.504
19915W        W89796   5.717   3.300  12.847
19916W        W89797  11.186  18.735   9.508
19917W        W89798   3.757  42.439   0.257
19918W        W89799  18.752  38.401  12.048
19919W        W89800  29.656  22.999   1.217
19920W        W89801  15.601  39.054   4.634
19921W        W89802  16.195   8.347   4.186
19922W        W89803  27.985  23.639   0.962
19923W        W89804   3.710   7.789  10.414
19924W        W89805   0.337   8.236   1.392
19925W        W89806  16.235   8.310   0.965
19926W        W89807  34.006  24.159   3.309
19927W        W89808   6.913  16.785   2.236
19928W        W89809   0.805   0.326   9.969
19929W        W89810   6.288   9.208   3.719
19930W        W89811  18.164  21.022   0.950
19931W        W89812  39.387  20.687  11.972
19932W        W89813  34.061   4.797  14.013
19933W        W89814  13.240  43.338   4.206
19934W        W89815   3.321  25.062   4.827
19935W        W89816  31.410  32.407   3.296
19936W        W89817  15.322  15.234   2.722
19937W        W89818  13.761   6.722   0.294
19938W        W89819  40.422  22.104  12.838
19939W        W89820  10.701   9.270  12.559
19940W        W89821  28.982  40.361  13.355
19941W        W89822  35.944   1.904  14.300
19942W        W89823  36.408   3.910  12.425
19943W        W89824  14.786  35.485   2.840
19944W        W89825  22.665  38.931   3.699
19945W        W89826  30.645  38.066   3.243
19946W        W89827  25.054  19.743   4.134
19947W        W89828  27.479   7.334   2.690
19948W        W89829   3.290  11.159  10.941
19949W        W89830  40.007  23.014   2.320
19950W        W89831   3.353  28.670  12.957
19951W        W89832  27.013  21.621   3.357
19952W        W89833  36.528  36.435  12.015
19953W        W89834   1.825  39.468  14.295
19954W        W89835  30.614  29.120  10.516
19955W        W89836   9.828  42.907  10.912
19956W        W89837  15.593   7.305  14.439
19957W        W89838  10.668  41.445   1.300
19958W        W89839   4.774   4.914   0.732
19959W        W89840  34.943  24.560  13.000
19960W        W89841  24.510  37.498   0.917
19961W        W89842  10.333  29.650  12.359
19962W        W89843   1.306  37.575  13.445
19963W        W89844  23.547  38.355   0.829
19964W        W89845  27.448  23.724   4.120
19965W        W89846  29.600  26.649   3.712
19966W        W89847  31.142  23.596   3.729
19967W        W89848  14.646  19.582   3.813
19968W        W89849  31.450  13.234   1.775
19969W        W89850  18.650  19.279   3.860
19970W        W89851   2.402  34.426  11.545
19971W        W89852   6.886  13.167  13.401
19972W        W89853  38.398   2.315   4.657
19973W        W89854  31.438  43.927  12.963
19974W        W89855  19.092  25.027  11.947
19975W        W89856   2.437  18.616   1.706
19976W        W89857  28.613  41.463   1.841
19977W        W89858  24.112  27.582   3.190
19978W        W89859  31.099  31.041   2.691
19979W        W89860  22.086  38.421   1.927
19980W        W89861  13.653  12.804   4.306
19981W        W89862  23.034   7.388  11.553
19982W        W89863  21.639  37.417   2.182
19983W        W89864   4.827   9.767   4.204
19984W        W89865  12.673  32.110  12.481
19985W        W89866  33.089  17.071  14.380
19986W        W89867   5.350  33.884   1.412
19987W        W89868  26.030  20.089  14.448
19988W        W89869   0.468  33.120  11.594
19989W        W89870  24.065  21.642  13.474
19990W        W89871   0.770   1.464   4.700
19991W        W89872  21.595   0.279  12.088
19992W        W89873  22.137  30.910  12.970
19993W        W89874   1.267  23.034  10.924
19994W        W89875  43.445   6.843   3.154
19995W        W89876  30.016  35.941  12.387
19996W        W89877   0.966  35.083  14.933
19997W        W89878  32.014  31.406  14.864
19998W        W89879   4.745   2.398  12.576
19999W        W89880  10.777   7.896   2.311
20000W        W89881  22.564  36.431  14.303
20001W        W89882  24.614  21.753   1.903
20002W        W89883  38.451  32.122  11.057
20003W        W89884  44.419  12.662   3.168
20004W        W89885  10.753  12.195   3.648
20005W        W89886   2.454  26.114   0.340
20006W        W89887  12.289  36.888  11.004
20007W        W89888  14.771  15.252   2.267
20008W        W89889  41.989  30.440   3.697
20009W        W89890  25.713  34.524  14.799
20010W        W89891   2.456  21.682   3.741
20011W        W89892  24.039  41.471   2.778
20012W        W89893  33.099  38.000   2.782
20013W        W89894  22.010  36.058   2.366
20014W        W89895  44.764  33.901   4.162
20015W        W89896  33.482  18.578   3.146
20016W        W89897  26.649  44.867   0.386
20017W        W89898  17.662  27.074   2.321
20018W        W89899  14.118  13.343   4.161
20019W        W89900  35.419  16.675   4.836
20020W        W89901  34.008  36.524   4.213
20021W        W89902  39.528  44.395   1.335
20022W        W89903  42.390  14.100  12.006
20023W        W89904  37.522  34.427  14.828
20024W        W89905  10.785  28.930   2.292
20025W        W89906  19.731  30.923  14.897
20026W        W89907  38.375  19.738  14.508
20027W        W89908  39.391  36.347   2.773
20028W        W89909   3.760  16.290   1.818
20029W        W89910  30.113   7.214  11.501
20030W        W89911  25.205   0.321   2.870
20031W        W89912  17.202   3.836  12.358
20032W        W89913  19.725  31.896  11.910
20033W        W89914   5.353  15.790   0.350
20034W        W89915  43.926  32.967   4.837
20035W        W89916  38.923  12.222  13.792
20036W        W89917   3.410  38.884   5.176
20037W        W89918  25.668  26.596   0.960
20038W        W89919  31.951  29.088  11.063
20039W        W89920  34.586  43.435  11.047
20040W        W89921  37.535   0.924  14.002
20041W        W89922   2.741  16.119   4.321
20042W        W89923   8.773   1.430  14.306
20043W        W89924   9.691  41.313   2.777
20044W        W89925  11.351  33.960  12.883
20045W        W89926  13.807  18.236  12.447
20046W        W89927  43.776   3.420   3.346
20047W        W89928  27.685  19.634  10.940
20048W        W89929  40.319   3.395   1.222
20049W        W89930  41.532  12.728  13.413
20050W        W89931   3.310  16.680   0.738
20051W        W89932   8.766   8.700   4.759
20052W        W89933  11.235  42.013  11.412
20053W        W89934  27.107  10.680   1.838
20054W        W89935  42.873  11.698   1.892
20055W        W89936  41.977   9.852  14.303
20056W        W89937   5.385  16.114   3.677
20057W        W89938  38.015   5.883   3.851
20058W        W89939   2.299  23.209   3.364
20059W        W89940  18.127  37.515   4.684
20060W        W89941   6.247  21.582   2.319
20061W        W89942  27.141  17.081  14.888
20062W        W89943  10.858  31.112  12.857
20063W        W89944  31.945  24.086  14.505
20064W        W89945  31.564  30.924   4.304
20065W        W89946  19.165  40.914  14.404
20066W        W89947  35.395  30.164  11.533
20067W        W89948  33.432  26.646   1.353
20068W        W89949  29.638  42.013   1.431
20069W        W89950  24.103  10.201   0.803
20070W        W89951  16.667  26.179   4.225
20071W        W89952  44.339   2.957  10.528
20072W        W89953  38.527  27.118  11.020
20073W        W89954  37.515  22.668   2.682
20074W        W89955  41.909  43.806  13.000
20075W        W89956   8.187  20.037   0.925
20076W        W89957  30.119   6.837   0.864
20077W        W89958   8.235  13.704   3.862
20078W        W89959  10.778   0.323  11.463
20079W        W89960  19.540  41.023  13.974
20080W        W89961  33.102  36.417  11.861
20081W        W89962  42.388  17.150  12.019
20082W        W89963  36.990   5.691   4.138
20083W        W89964  20.544  26.998   0.243
20084W        W89965  19.725   3.333   5.186
20085W        W89966  21.035  28.068   1.820
20086W        W89967  28.058  14.319  11.528
20087W        W89968  35.875  34.488  12.455
20088W        W89969  43.013   3.755  14.947
20089W        W89970  21.638  29.158   1.834
20090W        W89971  27.074   5.690   3.366
20091W        W89972   4.878  32.087   5.256
20092W        W89973  23.717  22.649   3.218
20093W        W89974   6.878  28.536   4.160
20094W        W89975  21.633  38.049   4.344
20095W        W89976   1.788   4.702  10.977
20096W        W89977   1.812  35.909  14.791
20097W        W89978  39.535  43.836   4.353
20098W        W89979  17.751   4.764  11.514
20099W        W89980  16.772  44.008  13.011
20100W        W89981   2.727  40.479   3.310
20101W        W89982  44.892   4.409  12.918
20102W        W89983  44.368  24.143   3.338
20103W        W89984   2.886   9.704   4.613
20104W        W89985  27.160  23.656   3.230
20105W        W89986  39.500  26.471   1.225
20106W        W89987  19.242  16.623  13.490
20107W        W89988  15.686  18.626   1.376
20108W        W89989   4.879  16.252   4.270
20109W        W89990  32.925  40.843  10.962
20110W        W89991  32.065  33.112   4.673
20111W        W89992  26.183  37.511  14.018
20112W        W89993   1.378  10.200  11.600
20113W        W89994  28.116  19.211   1.894
20114W        W89995  29.444  13.199  14.361
20115W        W89996  44.364  24.530   3.750
20116W        W89997  28.053  26.006  12.853
20117W        W89998  44.342   0.448   4.231
20118W        W89999  24.564   1.737   2.878
20119W        W90000   0.784   9.326  10.438
20120W        W90001  40.312   9.337   1.236
20121W        W90002  11.801   8.183  11.466
20122W        W90003  23.602  39.030   0.963
20123W        W90004  43.340  16.083  13.906
20124W        W90005   0.754  23.070   3.373
20125W        W90006  37.977  22.072  12.868
20126W        W90007  27.610  40.974  11.893
20127W        W90008  44.494  31.604   3.686
20128W        W90009  18.696   8.308   4.311
20129W        W90010  43.316  43.775   1.280
20130W        W90011  44.319  31.479  11.026
20131W        W90012  36.007  18.150   0.897
20132W        W90013  24.670  41.468  13.819
20133W        W90014  26.014   4.828   2.255
20134W        W90015  17.153  25.624   0.847
20135W        W90016  40.534  37.567  12.831
20136W        W90017  41.302  11.663  11.437
20137W        W90018  23.534   7.761   4.641
20138W        W90019  30.142  44.274   3.673
20139W        W90020   3.430  23.984   0.789
20140W        W90021   4.882  16.137  11.060
20141W        W90022   4.741   3.845   0.889
20142W        W90023  38.870  22.646   2.748
20143W        W90024  40.003  30.014   1.853
20144W        W90025   5.736  12.122  12.881
20145W        W90026   1.914   3.387   4.631
20146W        W90027  36.348  20.203   2.875
20147W        W90028  27.110   6.321   4.200
20148W        W90029  13.781  12.310  14.513
20149W        W90030  40.327  38.957  11.104
20150W        W90031  16.161  34.410  11.952
20151W        W90032  26.566  30.044   4.624
20152W        W90033  11.697  10.146   3.222
20153W        W90034  41.027  21.036  13.396
20154W        W90035  19.130   8.837   0.411
20155W        W90036  30.448  26.030  11.596
20156W        W90037  26.100  42.281   0.867
20157W        W90038  37.385  33.525  14.369
20158W        W90039   7.229  22.567   0.397
20159W        W90040   3.428  43.480  12.453
20160W        W90041   3.846  39.865   3.727
20161W        W90042  41.972  24.007   2.344
20162W        W90043  35.536  42.297  11.459
20163W        W90044  14.801  43.474  10.943
20164W        W90045  20.176  23.091  13.819
20165W        W90046  15.216   2.739  13.308
20166W        W90047   2.406  39.818  12.996
20167W        W90048  38.459  24.669   4.827
20168W        W90049  20.653  21.549  10.587
20169W        W90050  42.989  37.548   3.344
20170W        W90051  36.893  37.071  14.287
20171W        W90052   8.321  30.920  11.976
20172W        W90053  15.709  16.263  12.867
20173W        W90054  19.725  21.261   4.163
20174W        W90055   1.773  41.883  11.424
20175W        W90056  18.787  25.595   4.299
20176W        W90057  31.917  24.118  11.599
20177W        W90058  25.989  35.373  12.006
20178W        W90059  20.691  10.202  12.462
20179W        W90060  41.518   7.745  11.382
20180W        W90061  22.148  38.052   1.237
20181W        W90062  35.430  22.589   2.751
20182W        W90063  32.540  42.897  11.964
20183W        W90064  10.326  44.980   3.757
20184W        W90065  39.390  14.279  12.391
20185W        W90066   8.699   9.820  14.323
20186W        W90067  23.650  24.688  13.808
20187W        W90068  35.901  32.522  10.929
20188W        W90069  27.148  28.163  13.851
20189W        W90070   4.826  18.154  13.328
20190W        W90071  23.201  18.100  12.030
20191W        W90072   3.846  22.048   2.695
20192W        W90073  23.573   4.825  13.986
20193W        W90074  15.130  27.177  11.487
20194W        W90075  19.179  31.603   3.662
20195W        W90076   1.968  12.246   1.711
20196W        W90077  24.056  19.174   3.351
20197W        W90078  44.349   8.343  14.361
20198W        W90079  17.615  44.334   3.312
20199W        W90080  28.045  17.633  14.765
20200W        W90081  18.558  35.868  12.883
20201W        W90082  22.120   8.249   2.183
20202W        W90083  20.238  29.149  11.965
20203W        W90084  42.829  26.048   1.792
20204W        W90085  31.007  26.629   3.814
20205W        W90086  13.184  16.169  14.370
20206W        W90087  30.528  10.695  10.555
20207W        W90088  42.479  18.273   4.279
20208W        W90089  40.459  16.683   1.832
20209W        W90090  21.612  15.213   4.262
20210W        W90091  27.066   5.226   3.343
20211W        W90092  15.224  14.161  11.430
20212W        W90093   5.311  12.842  11.534
20213W        W90094  42.487  22.169   4.770
20214W        W90095  17.667   2.319   4.660
20215W        W90096  20.711  34.004  14.432
20216W        W90097   8.792  35.946   4.725
20217W        W90098  33.996  21.540   3.295
20218W        W90099  36.498  28.663  11.601
20219W        W90100  10.664  25.146  13.977
20220W        W90101  43.018  33.575   4.797
20221W        W90102  38.907   1.457   4.185
20222W        W90103   3.446  11.758  11.893
20223W        W90104   9.797  34.594  14.894
20224W        W90105  27.467  17.730   0.783
20225W        W90106   8.384  10.263   1.419
20226W        W90107  28.474   7.318   5.097
20227W        W90108  10.817  18.574   0.292
20228W        W90109  31.137  20.076   1.723
20229W        W90110  37.923   6.197   9.986
20230W        W90111  29.448   2.892   0.386
20231W        W90112  28.085   1.355   4.744
20232W        W90113  33.127   8.880   0.453
20233W        W90114  11.165  40.360   3.218
20234W        W90115  27.030  37.939  13.813
20235W        W90116  32.079  39.954  11.983
20236W        W90117  12.817  30.067  13.516
20237W        W90118   3.396  13.295  13.405
20238W        W90119  27.180  24.602  10.979
20239W        W90120  34.440  26.199  13.925
20240W        W90121  25.699  40.493   3.831
20241W        W90122  20.222  19.766   2.681
20242W        W90123   1.773  22.552  14.311
20243W        W90124   2.725   3.913   2.245
20244W        W90125  20.254  39.971  11.049
20245W        W90126  19.768  12.840  14.834
20246W        W90127  41.460  41.993  14.501
20247W        W90128  30.038  16.182  13.892
20248W        W90129  41.299  31.015   0.400
20249W        W90130  41.420  13.599  11.088
20250W        W90131  12.637   6.833   0.871
20251W        W90132  37.473   1.268  10.491
20252W        W90133  11.742  41.366  11.562
20253W        W90134  22.109  31.407   1.839
20254W        W90135  13.206   3.436   4.763
20255W        W90136   0.946   1.951  13.878
20256W        W90137  26.632  34.915  14.452
20257W        W90138  13.130  31.623   2.748
20258W        W90139  13.265  10.876  14.426
20259W        W90140   3.401  19.125  14.371
20260W        W90141   0.331  35.506   1.393
20261W        W90142   8.812   3.251   1.332
20262W        W90143  19.615  33.962   3.774
20263W        W90144  30.594  26.632  14.797
20264W        W90145  26.617  30.648   3.795
20265W        W90146  33.427  42.938   2.867
20266W        W90147  15.084  25.146  11.094
20267W        W90148  12.244  17.779   1.924
20268W        W90149  24.204  37.501  10.537
20269W        W90150  43.404  27.521   1.407
20270W        W90151   4.810   6.828  13.385
20271W        W90152  26.063  22.659   4.801
20272W        W90153  13.707  19.614   2.795
20273W        W90154  36.517   7.734   1.436
20274W        W90155  36.511  33.550  13.512
20275W        W90156  39.350  33.004   1.295
20276W        W90157   5.764  13.718  13.827
20277W        W90158  30.508  40.302  12.019
20278W        W90159  31.448  13.712  12.350
20279W        W90160  44.825  39.491   4.721
20280W        W90161  37.027  38.823   1.360
20281W        W90162  22.166  29.965   4.316
20282W        W90163  43.282  10.234   3.639
20283W        W90164   2.378   0.419  13.822
20284W        W90165  32.457  24.566   0.908
20285W        W90166  21.080  31.094   2.254
20286W        W90167  39.505  17.632  12.903
20287W        W90168  13.320  22.995  11.401
20288W        W90169  36.081  36.589   3.295
20289W        W90170  33.511   7.364   2.693
20290W        W90171  25.527  17.730   0.864
20291W        W90172  14.746   5.923   4.738
20292W        W90173  29.030  34.063   1.434
20293W        W90174   0.977  44.003  10.606
20294W        W90175  10.267   1.798  10.911
20295W        W90176  12.809  18.644   1.806
20296W        W90177   6.898   5.911   1.236
20297W        W90178   0.760   9.685  11.468
20298W        W90179  36.353   6.210  10.901
20299W        W90180  13.701  23.099   2.242
20300W        W90181  44.846  31.030   2.751
20301W        W90182  29.918  25.042   3.750
20302W        W90183   5.908  35.395   3.808
20303W        W90184  37.386  10.192  12.371
20304W        W90185  21.133  10.745   1.331
20305W        W90186  18.272  18.228   2.316
20306W        W90187  34.446  18.770   0.932
20307W        W90188   3.258  15.304  11.472
20308W        W90189  13.220  15.135  14.866
20309W        W90190  15.767   8.695   0.908
20310W        W90191   0.428  37.577   1.405
20311W        W90192   0.441   1.830  12.370
20312W        W90193   2.411  24.568  13.512
20313W        W90194  31.148   1.942   2.746
20314W        W90195  29.498  39.018   1.930
20315W        W90196  38.476   8.736   2.777
20316W        W90197  40.022  12.300  10.414
20317W        W90198  38.908  32.976   0.278
20318W        W90199  11.635  15.628   4.769
20319W        W90200  18.573  18.578  14.424
20320W        W90201  16.774  13.296   1.732
20321W        W90202  22.564  27.946   3.820
20322W        W90203  30.124  29.997   1.788
20323W        W90204  12.304  11.648   3.177
20324W        W90205  12.318  43.390  12.490
20325W        W90206   8.376  30.135   4.782
20326W        W90207  12.628  19.734   0.341
20327W        W90208  11.282  39.811   3.381
20328W        W90209  19.704  12.270  14.962
20329W        W90210  24.722  22.127  13.019
20330W        W90211  36.865  27.494   1.328
20331W        W90212  14.162  33.580  12.358
20332W        W90213  11.849  37.024  14.306
20333W        W90214  18.181  20.574   4.795
20334W        W90215  10.853   0.445  13.407
20335W        W90216   8.272  23.987   0.396
20336W        W90217  18.628   6.242  11.025
20337W        W90218  38.379  24.652   4.145
20338W        W90219   3.331  26.519   1.231
20339W        W90220   1.927  33.987   3.869
20340W        W90221  21.096  20.187  14.349
20341W        W90222  11.841  22.585   1.815
20342W        W90223  40.389  17.171   4.694
20343W        W90224  28.019  13.331  14.975
20344W        W90225  39.976  34.395   3.736
20345W        W90226  13.679  14.709  10.584
20346W        W90227  30.005  38.846  12.900
20347W        W90228   7.323  11.850  14.384
20348W        W90229  10.794  30.435   1.783
20349W        W90230  41.915  18.146  12.526
20350W        W90231   2.471  28.167   3.697
20351W        W90232  10.354  42.907  10.593
20352W        W90233  30.045  29.541  11.493
20353W        W90234  24.518  15.200  12.479
20354W        W90235  21.512  38.446   4.660
20355W        W90236  39.014  26.066  14.778
20356W        W90237  19.726  35.569   2.267
20357W        W90238  18.686   3.215   5.283
20358W        W90239   2.807  24.725  12.931
20359W        W90240  44.314  11.665   0.394
20360W        W90241   3.288   1.396   2.826
20361W        W90242  12.238  13.736   3.726
20362W        W90243  41.905  44.454   1.404
20363W        W90244  29.979  16.797   3.708
20364W        W90245   1.435  26.494  10.945
20365W        W90246  29.642  33.622  14.837
20366W        W90247  16.595   5.350   4.725
20367W        W90248   8.338  40.437   0.368
20368W        W90249  25.218  13.703   1.237
20369W        W90250  43.870  38.868  10.570
20370W        W90251  11.706  24.678  12.021
20371W        W90252   3.938  12.225   3.766
20372W        W90253  14.603  18.179   0.464
20373W        W90254  10.839  18.692  10.138
20374W        W90255  22.633  25.097  10.086
20375W        W90256  24.000   0.271  13.328
20376W        W90257  44.470  34.564  12.468
20377W        W90258  11.150   4.746   3.227
20378W        W90259   8.749  13.731  10.639
20379W        W90260  26.985  23.529  12.431
20380W        W90261   9.342  11.811  12.910
20381W        W90262  30.055  30.908  11.592
20382W        W90263  30.544  29.029   1.269
20383W        W90264  32.052  17.063   4.246
20384W        W90265  14.685  30.632  12.069
20385W        W90266  25.551  41.334  14.790
20386W        W90267  22.196  14.152   1.874
20387W        W90268  38.443  15.261  10.989
20388W        W90269  16.137   8.196   3.165
20389W        W90270  19.203  36.083   1.305
20390W        W90271  31.440  41.808  13.476
20391W        W90272  40.336  36.393  13.912
20392W        W90273  17.668  21.101   2.328
20393W        W90274  26.695  17.214   2.396
20394W        W90275   2.728  25.974   4.673
20395W        W90276  31.570  36.043   1.694
20396W        W90277  32.076  14.784  12.850
20397W        W90278  32.526  15.107  12.447
20398W        W90279  12.174  23.135   3.747
20399W        W90280  30.459   0.435  10.599
20400W        W90281  14.803  35.053  14.972
20401W        W90282  41.511  13.153  13.328
20402W        W90283   1.770   8.363   2.878
20403W        W90284  17.262  12.228  12.926
20404W        W90285   6.390  30.473   2.680
20405W        W90286   9.794   0.765   0.870
20406W        W90287  39.387   0.439  14.340
20407W        W90288  11.137   4.784   1.217
20408W        W90289  41.461   3.735  12.446
20409W        W90290  23.617  31.035  10.594
20410W        W90291  22.172   9.171  12.552
20411W        W90292  15.114  38.409  14.936
20412W        W90293  43.507  34.959  10.404
20413W        W90294  13.265  38.509  14.362
20414W        W90295  30.417   9.688  12.945
20415W        W90296  12.345  10.303   2.743
20416W        W90297  27.090  26.480  14.014
20417W        W90298  43.516  28.646  12.387
20418W        W90299  39.492  40.015   4.663
20419W        W90300   4.834  36.984  10.995
20420W        W90301  35.587  13.250   1.411
20421W        W90302  31.500  35.360   0.470
20422W        W90303   1.905  20.081  11.376
20423W        W90304  28.049   2.386  10.484
20424W        W90305  15.164  10.871  12.835
20425W        W90306  40.483  12.628  11.065
20426W        W90307  17.696   5.277   4.770
20427W        W90308   9.379  27.943   1.778
20428W        W90309  16.719   1.754   1.316
20429W        W90310  37.995  30.572   1.721
20430W        W90311  42.993  39.917  10.572
20431W        W90312  40.943   8.196  14.501
20432W        W90313   7.390  30.442   3.187
20433W        W90314   0.752  30.080  13.029
20434W        W90315  17.139   6.747  10.472
20435W        W90316   1.338  18.550   4.263
20436W        W90317  23.144  42.032  14.412
20437W        W90318   0.792  44.000  13.875
20438W        W90319  37.843   2.791   0.848
20439W        W90320  10.665  38.045  11.494
20440W        W90321   8.385  26.135   3.866
20441W        W90322  35.859  37.913   4.788
20442W        W90323  36.064  34.993  11.109
20443W        W90324  29.984   4.407  12.490
20444W        W90325  43.447  24.522   2.233
20445W        W90326   7.371   1.290  13.356
20446W        W90327   9.783   9.388   1.881
20447W        W90328  10.227  17.700  12.343
20448W        W90329   3.952  39.535   2.409
20449W        W90330  43.996  27.475   2.298
20450W        W90331  35.104  32.028  14.454
20451W        W90332  17.101  35.564  10.477
20452W        W90333   0.377  31.536   1.735
20453W        W90334  44.289  19.557  11.378
20454W        W90335  35.946  39.469  14.017
20455W        W90336  32.885  41.449   4.350
20456W        W90337  19.732  32.903   0.483
20457W        W90338  29.027   9.852  12.527
20458W        W90339  33.511  14.762   4.141
20459W        W90340  10.283  31.534  10.588
20460W        W90341  30.970  35.398   2.215
20461W        W90342  21.650   3.382  10.980
20462W        W90343  33.107  28.153  12.548
20463W        W90344   2.314   5.927   2.330
20464W        W90345  18.223  22.605   0.449
20465W        W90346  10.824  29.438  13.522
20466W        W90347   5.284   3.366  10.498
20467W        W90348  10.689  10.646  11.927
20468W        W90349  19.692  26.498   4.345
20469W        W90350  28.169  37.830   3.845
20470W        W90351   9.381  19.557  10.974
20471W        W90352   0.324  12.213  14.373
20472W        W90353   0.494  14.644  12.578
20473W        W90354   9.340  19.056  10.635
20474W        W90355  30.954   6.763  13.822
20475W        W90356   4.719  25.678  10.643
20476W        W90357  39.064  31.069  11.585
20477W        W90358  44.375   8.773   3.353
20478W        W90359  20.584   2.885  13.050
20479W        W90360  27.554  14.113   4.211
20480W        W90361  16.753  20.622  12.342
20481W        W90362   2.240  16.597  10.947
20482W        W90363  27.675  35.014  13.985
20483W        W90364  28.465   9.749  14.780
20484W        W90365  15.735  10.144   1.396
20485W        W90366  44.959  24.591   4.228
20486W        W90367  31.548   7.712  12.382
20487W        W90368  21.587  29.608  12.566
20488W        W90369   8.223  43.375  10.600
20489W        W90370   9.745   4.409  12.381
20490W        W90371  35.964   4.860  13.844
20491W        W90372  42.935  43.956   3.792
20492W        W90373  26.495  31.643  12.901
20493W        W90374  34.487  15.598   4.641
20494W        W90375   5.199   8.767   1.255
20495W        W90376  14.598  38.038  14.443
20496W        W90377   2.749   6.724  12.040
20497W        W90378  41.408  17.261   3.681
20498W        W90379  31.631  29.952   2.392
20499W        W90380  44.811  29.533  10.120
20500W        W90381  19.604  35.577   3.267
20501W        W90382  25.642  15.204   1.836
20502W        W90383   9.749   1.253   0.285
20503W        W90384  25.687  28.499  10.508
20504W        W90385   4.443  15.636  11.953
20505W        W90386  28.083  35.551  11.954
20506W        W90387  23.997  18.642   9.444
20507W        W90388  34.553  16.195   0.346
20508W        W90389  43.997  31.504  14.803
20509W        W90390  23.627  17.083   2.214
20510W        W90391  43.765   1.293   3.150
20511W        W90392  36.458  32.525  14.781
20512W        W90393  31.547   1.464  13.819
20513W        W90394  21.169  28.153   0.274
20514W        W90395  32.944  30.082  10.556
20515W        W90396  20.601  28.549  10.936
20516W        W90397  18.573  24.052   4.146
20517W        W90398  33.897  34.112   0.898
20518W        W90399   2.836  36.388   3.790
20519W        W90400  25.707  39.871   0.469
20520W        W90401  38.430  23.520  12.437
20521W        W90402  43.881  44.301  11.422
20522W        W90403  43.791   9.359  11.476
20523W        W90404   1.391   8.700  14.778
20524W        W90405  28.158  24.087  10.571
20525W        W90406  33.568   7.311  10.586
20526W        W90407  36.937   2.278   3.347
20527W        W90408  20.680  25.152   2.323
20528W        W90409   1.776  36.004  12.385
20529W        W90410  42.974  16.721   0.321
20530W        W90411   2.918  12.122   3.841
20531W        W90412  34.008  13.317  13.499
20532W        W90413  25.631  18.291  13.809
20533W        W90414   3.359  11.729   1.357
20534W        W90415  14.271  30.117  12.463
20535W        W90416  19.615  15.767   4.265
20536W        W90417  42.447  25.203  11.589
20537W        W90418  33.893  13.717   4.774
20538W        W90419   3.313   4.882  11.518
20539W        W90420  14.683   8.391   3.247
20540W        W90421   9.703   1.312   2.845
20541W        W90422   3.897  43.853  11.125
20542W        W90423  32.423  44.390  10.893
20543W        W90424   4.882  42.322  13.058
20544W        W90425  31.078  42.962  11.579
20545W        W90426  10.203  36.945  12.464
20546W        W90427   4.209  11.817  11.016
20547W        W90428  22.997   9.851   2.887
20548W        W90429  27.157   9.325  11.959
20549W        W90430  18.643  24.724  13.890
20550W        W90431  27.154  10.793  14.294
20551W        W90432  21.617  27.090  13.947
20552W        W90433   6.867  28.544   0.455
20553W        W90434  14.334  19.661  12.031
20554W        W90435  44.402  14.808   0.269
20555W        W90436  13.718  20.066  14.939
20556W        W90437  17.778   1.297  14.470
20557W        W90438  27.169  27.629  12.029
20558W        W90439  10.352  32.449  10.579
20559W        W90440   0.870  23.547   3.221
20560W        W90441   4.246  11.824   4.598
20561W        W90442  29.467   1.815   4.183
20562W        W90443  22.556  39.395   0.302
20563W        W90444  27.575  25.103   5.162
20564W        W90445  20.075   9.827  12.458
20565W        W90446  13.755   3.949   2.746
20566W        W90447  34.457   4.312  13.435
20567W        W90448   9.303   7.306  14.289
20568W        W90449  25.689  25.612   3.362
20569W        W90450  37.886   0.408  11.056
20570W        W90451  41.922  34.426  11.538
20571W        W90452  39.970  37.942   4.259
20572W        W90453  16.635  41.028   2.847
20573W        W90454  20.543  38.825  12.079
20574W        W90455   3.430   4.358   3.777
20575W        W90456  27.579  11.828  12.002
20576W        W90457  37.068  11.135   2.326
20577W        W90458  26.700  31.002   4.216
20578W        W90459  13.166   8.799  12.886
20579W        W90460  24.975   0.377   0.420
20580W        W90461  12.141  12.835   0.927
20581W        W90462  42.396   5.229   4.786
20582W        W90463  31.468   3.875  11.519
20583W        W90464  28.450  26.605  13.885
20584W        W90465  31.644  37.872   0.964
20585W        W90466   3.946  39.927  12.876
20586W        W90467  24.547  30.088   2.768
20587W        W90468   4.441  39.870  14.007
20588W        W90469  30.094   7.370   0.783
20589W        W90470  12.843  36.906  10.089
20590W        W90471  30.551  29.058  13.951
20591W        W90472  35.865  41.495   0.788
20592W        W90473   6.285   5.849   4.236
20593W        W90474   5.888  21.621   3.805
20594W        W90475  44.313  43.279   1.370
20595W        W90476   2.348   0.425  14.955
20596W        W90477  27.656  17.639   3.676
20597W        W90478  44.842   1.911   1.711
20598W        W90479  42.985   8.860  12.419
20599W        W90480  42.418   4.425  11.542
20600W        W90481  26.167  14.658   1.871
20601W        W90482  37.889  25.661  14.465
20602W        W90483  16.266   7.306  14.026
20603W        W90484  18.194  32.935  11.408
20604W        W90485  34.976  43.451   1.771
20605W        W90486   6.246  33.104  14.017
20606W        W90487   4.917   6.210  14.359
20607W        W90488  11.861  26.479   1.312
20608W        W90489  18.286   7.852   1.425
20609W        W90490  21.609  37.985  11.565
20610W        W90491  19.146  15.707  13.328
20611W        W90492  13.762  44.920  13.922
20612W        W90493  10.751  28.527   5.289
20613W        W90494   3.891  21.165  14.372
20614W        W90495  24.117  44.799  11.001
20615W        W90496  32.047  25.687  12.919
20616W        W90497  29.427   2.449   3.711
20617W        W90498   0.943  38.874  12.543
20618W        W90499  25.969  19.765   3.182
20619W        W90500  23.679  10.830  13.437
20620W        W90501  30.600  41.526   0.480
20621W        W90502  39.858  26.491   4.253
20622W        W90503  38.942  31.465   2.357
20623W        W90504  10.322  39.382   4.287
20624W        W90505  16.193   6.817  11.870
20625W        W90506  28.075   6.410  13.889
20626W        W90507  37.835  20.028  10.619
20627W        W90508  35.038   4.404   3.330
20628W        W90509   0.953   2.962   1.920
20629W        W90510  27.647  22.033   1.393
20630W        W90511  15.158  12.746   1.851
20631W        W90512  33.007  10.766  11.502
20632W        W90513  15.223   3.241  12.416
20633W        W90514   8.765  32.143   3.787
20634W        W90515  11.370  18.711  12.470
20635W        W90516  42.290  10.794  11.958
20636W        W90517  32.567  29.139   3.700
20637W        W90518  25.166  26.991  11.866
20638W        W90519   3.256   3.947  10.613
20639W        W90520  29.937  41.501  14.936
20640W        W90521  11.276  16.663   0.888
20641W        W90522  27.637  12.146   2.793
20642W        W90523  30.093  17.691  13.401
20643W        W90524  14.802  12.337  12.457
20644W        W90525  11.825  26.457  12.499
20645W        W90526  13.331  13.228  13.513
20646W        W90527  24.660   6.333   4.757
20647W        W90528  12.155   4.753  12.935
20648W        W90529   3.271   6.351   1.709
20649W        W90530  31.064  39.492  14.454
20650W        W90531  23.723  25.049   2.772
20651W        W90532  27.650   5.400  12.503
20652W        W90533   7.285  29.660   1.386
20653W        W90534  11.706  12.317  12.974
20654W        W90535  17.749  34.073   1.350
20655W        W90536   2.854  28.114   4.664
20656W        W90537  33.534  21.020  11.540
20657W        W90538  21.019  10.735  12.958
20658W        W90539  34.108  31.929  13.521
20659W        W90540  43.370  41.434   5.263
20660W        W90541  24.678   0.351   3.723
20661W        W90542  40.036   5.285   1.338
20662W        W90543  37.557  30.958  12.559
20663W        W90544   2.469  26.489  11.597
20664W        W90545  26.472   2.899  10.927
20665W        W90546  39.908  31.106  14.284
20666W        W90547  40.413   2.857   3.810
20667W        W90548  41.956  43.012   2.829
20668W        W90549  35.857  34.045   2.260
20669W        W90550  18.678  33.626  14.312
20670W        W90551  22.093  12.807   2.347
20671W        W90552  35.098  18.681   3.346
20672W        W90553  31.471  29.951  14.299
20673W        W90554   8.385  39.852   0.477
20674W        W90555  40.805  26.494   4.307
20675W        W90556  37.442  33.577  13.954
20676W        W90557   7.726   8.747  10.078
20677W        W90558  18.109  40.831  13.006
20678W        W90559  30.981  44.900   2.373
20679W        W90560  35.517  12.269   2.894
20680W        W90561  18.124  41.817  10.530
20681W        W90562  31.140  20.533   4.340
20682W        W90563   5.813  42.504   2.871
20683W        W90564   8.808  15.127   1.874
20684W        W90565  13.206  31.144  13.524
20685W        W90566  14.226   4.784  14.980
20686W        W90567  17.720  19.213   3.340
20687W        W90568  11.233  33.471  11.532
20688W        W90569  24.544  44.927  14.423
20689W        W90570  18.548  16.659  11.611
20690W        W90571  31.503  25.203  12.431
20691W        W90572  33.007  44.905  13.796
20692W        W90573   0.475  16.075  13.480
20693W        W90574  28.949  16.743  14.913
20694W        W90575  11.304  16.644   0.396
20695W        W90576  24.714  24.013  12.363
20696W        W90577  28.120  36.943   3.646
20697W        W90578  42.447  14.133   0.852
20698W        W90579  38.839  15.128  10.913
20699W        W90580   9.388  30.133   3.826
20700W        W90581   1.245  26.044  12.083
20701W        W90582  12.170  43.985   2.365
20702W        W90583  39.369  40.549  12.446
20703W        W90584  41.980   0.438   0.749
20704W        W90585   6.876  44.348   3.332
20705W        W90586  30.543  14.145   0.772
20706W        W90587  18.089  18.671  13.519
20707W        W90588  40.481  31.424   4.627
20708W        W90589   4.317  18.059  12.474
20709W        W90590  38.568  42.903  12.967
20710W        W90591  25.993  44.878  13.865
20711W        W90592  24.199  14.613  13.454
20712W        W90593  27.570  15.165   4.188
20713W        W90594  19.658  10.744   4.670
20714W        W90595  17.113   4.237  11.021
20715W        W90596  34.550  34.965  11.964
20716W        W90597  44.458   2.855  11.018
20717W        W90598  18.294   5.718  13.446
20718W        W90599  30.650  15.820   0.772
20719W        W90600  31.146   6.279   9.962
20720W        W90601  30.552   8.324   1.763
20721W        W90602  32.595  39.537  11.120
20722W        W90603   4.446   9.263  13.501
20723W        W90604  37.375   4.911  12.934
20724W        W90605  23.224  12.827  14.930
20725W        W90606  12.170  32.591   3.770
20726W        W90607  18.601   8.287   3.163
20727W        W90608  24.519  43.807  14.776
20728W        W90609  28.556  19.227  12.575
20729W        W90610  18.217  31.975   4.816
20730W        W90611  39.526  10.275   0.898
20731W        W90612   6.205  35.095  12.474
20732W        W90613  22.676  32.051  14.806
20733W        W90614  20.701   6.745  13.919
20734W        W90615  29.934  40.343   3.681
20735W        W90616  11.813  27.521   3.670
20736W        W90617  10.720  34.973   4.268
20737W        W90618  29.550  35.943  11.998
20738W        W90619  31.133  25.064   0.798
20739W        W90620  36.961  35.951   3.818
20740W        W90621   3.320  19.549  14.012
20741W        W90622  16.723  23.136   0.945
20742W        W90623  15.726  24.098   4.681
20743W        W90624  22.561  24.613  12.011
20744W        W90625  18.689   3.918   4.742
20745W        W90626  33.580  24.029  12.904
20746W        W90627  41.792  40.866  14.394
20747W        W90628  31.931  33.922  14.007
20748W        W90629  25.970  23.037   4.669
20749W        W90630   2.349   5.366  11.951
20750W        W90631  23.644  28.073  13.957
20751W        W90632  31.515  13.682  12.089
20752W        W90633  38.898  12.361  10.974
20753W        W90634   5.368   7.836  10.422
20754W        W90635  14.295   1.469   4.165
20755W        W90636  29.595  35.938   4.663
20756W        W90637  36.857  29.475   2.754
20757W        W90638  43.363  44.814  12.991
20758W        W90639  14.209  36.453  13.417
20759W        W90640  32.009  24.194   0.861
20760W        W90641  37.991  32.526   0.329
20761W        W90642   0.834  37.556  10.972
20762W        W90643   7.263   8.856  13.466
20763W        W90644  16.190   3.359  10.613
20764W        W90645  17.775  40.858  13.436
20765W        W90646   0.828  26.601   4.279
20766W        W90647  35.925  37.913   2.202
20767W        W90648   6.820   1.454   1.813
20768W        W90649  14.329  16.652   3.868
20769W        W90650  39.501  19.051   0.464
20770W        W90651  21.128   8.237  12.899
20771W        W90652  27.627  18.560   2.813
20772W        W90653  42.823  12.289  10.468
20773W        W90654   9.808  29.136   0.884
20774W        W90655   7.242   3.215  13.527
20775W        W90656   9.164  39.379   0.773
20776W        W90657  40.348   0.810  13.958
20777W        W90658  39.855  20.037  13.428
20778W        W90659  16.230  37.987  12.344
20779W        W90660  37.476  39.342  11.077
20780W        W90661  38.540  28.945  10.546
20781W        W90662  26.163  41.855  12.916
20782W        W90663  23.179  23.695  13.311
20783W        W90664  24.074  38.969  12.037
20784W        W90665   2.297  27.463   2.825
20785W        W90666  33.072  33.415   1.406
20786W        W90667  29.156  11.141   1.781
20787W        W90668  11.812  39.965  11.933
20788W        W90669  41.314   1.817   3.867
20789W        W90670   3.328  29.938   3.802
20790W        W90671  30.562  26.967  14.491
20791W        W90672  33.966  12.163   2.372
20792W        W90673  13.785  18.201  12.977
20793W        W90674  27.596  33.901  10.594
20794W        W90675  28.154  31.468   1.899
20795W        W90676  16.684  16.652   2.858
20796W        W90677  12.338  19.135  14.952
20797W        W90678  28.587  16.619   0.842
20798W        W90679  10.153  14.696   2.694
20799W        W90680  25.490  13.187  14.027
20800W        W90681  25.119   6.859   0.274
20801W        W90682  24.590  30.044   3.647
20802W        W90683  35.506  33.984  11.075
20803W        W90684  16.182  44.814   4.327
20804W        W90685  21.648  18.165   2.881
20805W        W90686  35.092  33.499  11.053
20806W        W90687  18.190   0.432   4.129
20807W        W90688   0.341  14.829   1.905
20808W        W90689  43.490  41.802  12.405
20809W        W90690  39.019  35.576   3.238
20810W        W90691  11.630   6.337   0.459
20811W        W90692  35.887   1.897  12.932
20812W        W90693  39.534   9.804   0.749
20813W        W90694  18.171  36.902   1.894
20814W        W90695  23.169  30.022   4.606
20815W        W90696  34.951  27.461   0.810
20816W        W90697  13.291  44.269  13.488
20817W        W90698  41.015  26.043  11.391
20818W        W90699  35.086  21.262  14.291
20819W        W90700  25.968   9.809   2.814
20820W        W90701  35.084   3.943  10.466
20821W        W90702   1.746  29.025   4.315
20822W        W90703   3.743   7.270  13.433
20823W        W90704  34.985  19.083  11.102
20824W        W90705   8.746  38.888  13.981
20825W        W90706   6.731  34.396  13.368
20826W        W90707  24.117   7.859   1.350
20827W        W90708   3.260  17.732  12.905
20828W        W90709  19.717   8.881   2.329
20829W        W90710  43.772   8.323   3.697
20830W        W90711  11.634  38.856   2.869
20831W        W90712  18.754   3.824   2.778
20832W        W90713  40.885   1.832  10.503
20833W        W90714  18.088  28.173  13.974
20834W        W90715  38.942  28.593  14.489
20835W        W90716  38.348   9.387   1.447
20836W        W90717  17.798   9.344  11.456
20837W        W90718  29.452  33.096   0.752
20838W        W90719  12.805  22.557   3.280
20839W        W90720  10.324  11.767   4.222
20840W        W90721  31.011  34.990  14.450
20841W        W90722  16.607  26.137  11.126
20842W        W90723   4.770   9.352  13.508
20843W        W90724  43.914   7.196   3.691
20844W        W90725  25.060  37.896  12.905
20845W        W90726  31.088  23.685  10.068
20846W        W90727  39.497  18.175   2.789
20847W        W90728  25.965   7.189  14.363
20848W        W90729  16.577  19.644  14.810
20849W        W90730   0.851   3.772  12.346
20850W        W90731  15.261  20.246  11.071
20851W        W90732  29.034  27.146   3.339
20852W        W90733   7.797  12.319   3.248
20853W        W90734   5.776  27.023   4.691
20854W        W90735  37.559  10.279   1.836
20855W        W90736   3.712  43.970   0.810
20856W        W90737  38.410  13.687  12.926
20857W        W90738  25.630  37.512   9.942
20858W        W90739  36.583   5.253  11.936
20859W        W90740  18.553  43.471  14.357
20860W        W90741  22.520  19.646  10.960
20861W        W90742  18.148  40.040   1.777
20862W        W90743   9.721  38.067  11.425
20863W        W90744  28.509  23.551  12.490
20864W        W90745  19.058  19.228   2.848
20865W        W90746  43.970  12.185  12.044
20866W        W90747  14.729   4.890  12.520
20867W        W90748  43.271  20.242  13.406
20868W        W90749  30.978  26.582  11.048
20869W        W90750  24.679  38.422   0.912
20870W        W90751  14.289  30.007  14.939
20871W        W90752  14.763  41.395  10.011
20872W        W90753  35.366  33.072   4.783
20873W        W90754   2.788  14.224   1.727
20874W        W90755  32.539  40.026   2.722
20875W        W90756  19.187  13.339  12.990
20876W        W90757  18.596  23.001   4.191
20877W        W90758  42.834  10.246  14.468
20878W        W90759   6.218  33.588   3.157
20879W        W90760  10.747   4.314  14.775
20880W        W90761  23.681  17.184  10.972
20881W        W90762  22.595  18.629   5.157
20882W        W90763   8.659  35.943  14.469
20883W        W90764  33.918  41.505  10.624
20884W        W90765  22.587  43.377  12.072
20885W        W90766   8.333  28.489  14.934
20886W        W90767   7.178  44.375  11.472
20887W        W90768   2.312  35.865   0.289
20888W        W90769  38.035  38.987  13.535
20889W        W90770  40.024  30.643   0.332
20890W        W90771  17.302   0.835   2.330
20891W        W90772  38.382  16.072   0.398
20892W        W90773   5.911  24.526   1.784
20893W        W90774   3.353   6.756  10.932
20894W        W90775   0.980  24.537   1.769
20895W        W90776  37.871  41.873  13.847
20896W        W90777   2.758  39.052   0.357
20897W        W90778  22.123  25.990  13.525
20898W        W90779  34.950   0.443   2.329
20899W        W90780   4.381  39.863  13.515
20900W        W90781  33.958  36.369   1.245
20901W        W90782  14.337  41.393   3.192
20902W        W90783  29.526  39.965  13.939
20903W        W90784  20.640  32.013   3.348
20904W        W90785  19.179   3.403  11.504
20905W        W90786  29.625  30.608  14.764
20906W        W90787   2.866   9.271   2.724
20907W        W90788  25.601  15.586   1.779
20908W        W90789  16.184  44.996  12.848
20909W        W90790  41.884   0.429  11.878
20910W        W90791   6.864   8.835   4.267
20911W        W90792  30.472  27.035   3.223
20912W        W90793   3.905  27.627   0.330
20913W        W90794  38.842   0.312  13.508
20914W        W90795  41.468  37.378   3.765
20915W        W90796  32.583   2.757  14.338
20916W        W90797  29.565  19.214   1.891
20917W        W90798   1.880   1.733   3.800
20918W        W90799  32.938   8.317   3.317
20919W        W90800  35.982  38.924  11.606
20920W        W90801  18.273  20.107   3.763
20921W        W90802  40.995  35.050   0.914
20922W        W90803  17.574  17.213  14.434
20923W        W90804  16.220  29.964   2.206
20924W        W90805  15.701  22.222  11.535
20925W        W90806  38.405  11.737   2.857
20926W        W90807  11.322  14.824  14.824
20927W        W90808  11.676  28.654   1.702
20928W        W90809   6.869  34.060   1.318
20929W        W90810  44.336  41.957  13.951
20930W        W90811  25.525   3.801  14.974
20931W        W90812  27.630  24.704  11.577
20932W        W90813   9.353  41.814   0.806
20933W        W90814   4.245  14.133  11.496
20934W        W90815   7.797   2.815   4.671
20935W        W90816   1.871  22.214   2.239
20936W        W90817  30.995  24.628  14.003
20937W        W90818   2.832  28.001   2.226
20938W        W90819  21.049   9.174   1.877
20939W        W90820   9.343  36.982  12.005
20940W        W90821  18.772  19.224  12.936
20941W        W90822  22.675  16.135  10.897
20942W        W90823  12.756  42.923   1.777
20943W        W90824  39.383  32.597   3.754
20944W        W90825  24.622   0.823  10.953
20945W        W90826  20.617  18.673  12.509
20946W        W90827  43.389  37.429  10.501
20947W        W90828  20.173  34.000   1.843
20948W        W90829  16.739  32.442   2.825
20949W        W90830  14.334   9.754  10.979
20950W        W90831  10.663   8.393  14.017
20951W        W90832   8.165   6.782  13.796
20952W        W90833  10.671  22.663   1.908
20953W        W90834  12.340  34.961   1.317
20954W        W90835  26.131  11.310   2.226
20955W        W90836  42.316  38.397  14.505
20956W        W90837   6.771  22.224   3.196
20957W        W90838  11.166  12.358   1.856
20958W        W90839  23.642  21.742   3.774
20959W        W90840  32.447  14.618   0.306
20960W        W90841  15.749  44.784   0.329
20961W        W90842  39.866  25.004  11.011
20962W        W90843  30.068   9.260  13.951
20963W        W90844  29.444  19.153  13.039
20964W        W90845  43.381  29.593  14.812
20965W        W90846  40.499  23.099  11.959
20966W        W90847  35.379  25.523  13.813
20967W        W90848  11.136  41.407  10.930
20968W        W90849  10.268  22.080  11.937
20969W        W90850  36.558   3.435   4.628
20970W        W90851  17.708  27.491   4.684
20971W        W90852  27.954  17.121  11.381
20972W        W90853  11.189   3.347   4.776
20973W        W90854  16.307   8.679  14.029
20974W        W90855  14.154  32.996   4.693
20975W        W90856  39.513  37.476   3.694
20976W        W90857  43.414  32.403  14.284
20977W        W90858  28.619  44.755  13.486
20978W        W90859  13.311   7.307  10.956
20979W        W90860  20.591  33.472  10.547
20980W        W90861  37.833  33.398   0.868
20981W        W90862  32.916  18.212  10.477
20982W        W90863  30.652  44.325  12.975
20983W        W90864  27.103  31.422   4.210
20984W        W90865  34.114  30.589   0.348
20985W        W90866  17.307  15.583   1.229
20986W        W90867  29.945  26.596  13.332
20987W        W90868  21.098   2.472  13.924
20988W        W90869  42.293  40.511   0.947
20989W        W90870  13.138   6.335  10.451
20990W        W90871  14.804   4.809  13.321
20991W        W90872   2.759  26.568   4.664
20992W        W90873   8.335  28.018  10.491
20993W        W90874  31.553  21.705   3.678
20994W        W90875  36.860  14.214   2.318
20995W        W90876  16.751   9.740  12.960
20996W        W90877  12.768  44.004  14.785
20997W        W90878  22.515  10.642  10.044
20998W        W90879  31.404  44.430  12.350
20999W        W90880  40.365  23.135   1.764
21000W        W90881  39.371  29.945   2.729
21001W        W90882  16.215  13.764  13.856
21002W        W90883  29.115  22.061   4.622
21003W        W90884  22.549  38.016   4.748
21004W        W90885  41.919  19.054   1.372
21005W        W90886   5.412  21.535   1.912
21006W        W90887   6.775  41.376  13.827
21007W        W90888  38.498  17.246  11.475
21008W        W90889  36.366  19.581  11.115
21009W        W90890  30.966  14.793   2.827
21010W        W90891  31.953  25.012  11.887
21011W        W90892  39.922   0.890  13.378
21012W        W90893  29.657  13.204  10.616
21013W        W90894  40.972  24.501   1.837
21014W        W90895   3.440   2.406  14.885
21015W        W90896  17.631  27.653  10.417
21016W        W90897  30.070  36.437  10.919
21017W        W90898  42.412   1.973   3.182
21018W        W90899  17.600  26.696   2.342
21019W        W90900  32.503  36.074  11.581
21020W        W90901  36.476  23.603   9.995
21021W        W90902  27.949  37.977   4.256
21022W        W90903  31.520  30.608   3.213
21023W        W90904  23.107   0.489  12.057
21024W        W90905  30.492  16.726  11.502
21025W        W90906  17.240  14.789  14.918
21026W        W90907   1.267  21.205  12.546
21027W        W90908  11.710  36.993   2.874
21028W        W90909  22.568  26.634  11.043
21029W        W90910  25.670  44.952   3.377
21030W        W90911  23.669  19.755   0.348
21031W        W90912  37.879  17.699  14.814
21032W        W90913  16.127  22.165  12.064
21033W        W90914  14.638   3.942   4.619
21034W        W90915   4.406  10.164  11.998
21035W        W90916  13.180  38.352   0.856
21036W        W90917  32.014  26.493  12.443
21037W        W90918  21.199  29.922   3.164
21038W        W90919  42.320  23.104  13.851
21039W        W90920   2.952   7.724  12.493
21040W        W90921  16.688  20.571  11.906
21041W        W90922  42.911  34.526  13.452
21042W        W90923  33.992  29.574   3.241
21043W        W90924  42.822  30.434  12.842
21044W        W90925  24.697  36.538  12.504
21045W        W90926  33.095   0.955   3.164
21046W        W90927  30.463   1.767   3.639
21047W        W90928  19.766  39.551  11.582
21048W        W90929   1.241   1.243  10.972
21049W        W90930  33.940  37.475   2.827
21050W        W90931  23.601  41.915   0.362
21051W        W90932   6.269  20.129   0.250
21052W        W90933  36.081  31.008  11.603
21053W        W90934   5.774  42.526   0.759
21054W        W90935  15.757  38.336   3.812
21055W        W90936   4.391  40.054  14.812
21056W        W90937  44.931  11.686  12.565
21057W        W90938  21.739  43.862  10.892
21058W        W90939   8.806  20.732   4.165
21059W        W90940  35.406  44.756  13.001
21060W        W90941  38.055  39.337  12.919
21061W        W90942  36.965   0.469  13.035
21062W        W90943  16.245  31.455  12.968
21063W        W90944   1.831  20.177   0.407
21064W        W90945   1.445  18.283  13.001
21065W        W90946  10.336   8.787  12.498
21066W        W90947  27.989  40.446  12.074
21067W        W90948  10.277  17.174  11.951
21068W        W90949  22.570  22.217   1.739
21069W        W90950  20.246  18.601   1.423
21070W        W90951   7.189  16.763  13.477
21071W        W90952  44.932  21.613  10.426
21072W        W90953  10.872  32.603   3.845
21073W        W90954  33.124  37.980   2.320
21074W        W90955   3.956  15.248   2.282
21075W        W90956  32.550  36.926  10.487
21076W        W90957  13.742  33.054  14.325
21077W        W90958   4.817  37.546  13.402
21078W        W90959   6.814  28.660   0.903
21079W        W90960   2.387  10.359  14.827
21080W        W90961  16.305  10.206  12.006
21081W        W90962   6.324   1.858  12.081
21082W        W90963   2.438   0.904   4.789
21083W        W90964  41.516  17.751   1.799
21084W        W90965  24.030  15.126  11.865
21085W        W90966   2.393  37.567   2.851
21086W        W90967  23.211   3.305  12.036
21087W        W90968  21.733  30.430  11.948
21088W        W90969  23.198  37.085  12.962
21089W        W90970  15.108   0.387   1.753
21090W        W90971  44.408  20.055   2.209
21091W        W90972  31.596  41.538  10.971
21092W        W90973  37.552  17.115   2.329
21093W        W90974  24.204  17.256   4.740
21094W        W90975  37.876  22.615   4.832
21095W        W90976  26.159   1.264  13.332
21096W        W90977  14.143   0.782   4.151
21097W        W90978  13.119   4.923   0.421
21098W        W90979   5.691  14.284   4.710
21099W        W90980  38.880  17.200   2.348
21100W        W90981   4.287  15.629   3.339
21101W        W90982  28.157   9.385   1.836
21102W        W90983   9.383  32.407   0.374
21103W        W90984   8.309  38.497  12.874
21104W        W90985   1.299  31.446  10.931
21105W        W90986  35.554  24.721   3.259
21106W        W90987  33.517  18.265   4.801
21107W        W90988  11.806  29.641   1.267
21108W        W90989  38.525  28.115   3.183
21109W        W90990  23.548  34.480   0.282
21110W        W90991   0.825  44.282   1.921
21111W        W90992   6.823  30.652   1.369
21112W        W90993  24.680   1.758   1.389
21113W        W90994  11.856  33.427  10.076
21114W        W90995  17.233  43.904  13.338
21115W        W90996  15.287  23.033  11.896
21116W        W90997  32.953  35.059  13.368
21117W        W90998   7.767  42.303   3.235
21118W        W90999  11.690  29.636   3.175
21119W        W91000  29.652  20.241   4.342
21120W        W91001   0.370  13.113   4.762
21121W        W91002  30.538   7.214  13.506
21122W        W91003  41.406  43.443  13.394
21123W        W91004   4.357  30.072   0.739
21124W        W91005  27.115   2.458   4.729
21125W        W91006   9.276   6.427  13.360
21126W        W91007  26.625  37.538   4.345
21127W        W91008  31.645  10.211   0.309
21128W        W91009   3.876   1.428  11.022
21129W        W91010  10.301  23.220  14.479
21130W        W91011  13.716   5.337  14.461
21131W        W91012  24.664   5.309  13.885
21132W        W91013  21.637  22.232  13.413
21133W        W91014  38.995  24.537   2.707
21134W        W91015  14.252  13.770  14.352
21135W        W91016  20.043  10.249  13.488
21136W        W91017  32.954  37.946  10.569
21137W        W91018   9.647   2.726   0.790
21138W        W91019  28.031  14.818   1.216
21139W        W91020   1.429  13.638  10.572
21140W        W91021  40.986  42.313  11.899
21141W        W91022  31.605  11.242  12.824
21142W        W91023   0.372  38.988   0.480
21143W        W91024  13.825  39.902   3.331
21144W        W91025  15.678  38.998  14.030
21145W        W91026  37.022  18.288  13.426
21146W        W91027   6.404   6.858   0.481
21147W        W91028  17.623  28.462   5.689
21148W        W91029   8.705  30.616   9.970
21149W        W91030  11.635  33.410   0.874
21150W        W91031  26.666  29.527   2.315
21151W        W91032   3.251  28.062   5.260
21152W        W91033   8.405  25.517  10.487
21153W        W91034  13.153  24.206   4.675
21154W        W91035  10.696  11.839   9.939
21155W        W91036   8.183  15.759   1.371
21156W        W91037  20.756  37.851  12.578
21157W        W91038   3.436  19.553   2.732
21158W        W91039  26.079  16.725   0.290
21159W        W91040  17.618   4.234  14.510
21160W        W91041  27.533  27.636  13.030
21161W        W91042  37.939  13.110  13.435
21162W        W91043  32.889   8.190  10.956
21163W        W91044  21.200  13.716   4.796
21164W        W91045  33.879  43.772  13.952
21165W        W91046   1.815  30.088  13.053
21166W        W91047   2.745   3.351  14.894
21167W        W91048  39.836  33.896  13.984
21168W        W91049   9.751  20.620  14.940
21169W        W91050  20.037  37.834   0.911
21170W        W91051  17.127  43.906   4.614
21171W        W91052   6.918  16.597   3.234
21172W        W91053   0.292   4.741   0.920
21173W        W91054  18.131  40.886   3.745
21174W        W91055  34.492  43.009  13.047
21175W        W91056  41.523   5.795  11.546
21176W        W91057  42.418   6.840   3.683
21177W        W91058  12.651   1.271  14.506
21178W        W91059   6.681  18.062   3.688
21179W        W91060   7.348  32.989  14.847
21180W        W91061  39.380  41.853   4.829
21181W        W91062  20.105  42.422  13.946
21182W        W91063  24.695   3.741  11.088
21183W        W91064   1.920  15.651   4.267
21184W        W91065   9.391   8.179   2.304
21185W        W91066  30.485  23.576  13.311
21186W        W91067  39.523   6.277  12.522
21187W        W91068   1.854   1.304   2.890
21188W        W91069  36.452  41.496  13.806
21189W        W91070  37.428  28.590   1.821
21190W        W91071  41.359   5.899  10.933
21191W        W91072  34.495  31.049   3.656
21192W        W91073   9.820  32.121  14.516
21193W        W91074   1.924  29.624  14.296
21194W        W91075   4.253  38.072  14.400
21195W        W91076  20.078   7.277  11.997
21196W        W91077   5.710  36.388  11.532
21197W        W91078  22.708   2.773  13.862
21198W        W91079  30.164  11.201  11.058
21199W        W91080   3.826  32.443   2.695
21200W        W91081  12.166  19.248   3.636
21201W        W91082  15.160  24.973   0.375
21202W        W91083  43.915  28.470   2.412
21203W        W91084  16.207  27.031   3.683
21204W        W91085   6.316  20.121  14.786
21205W        W91086  25.503  40.469   2.832
21206W        W91087  29.934  20.094  13.418
21207W        W91088  38.489  25.215   4.161
21208W        W91089  43.881   7.206  12.380
21209W        W91090  19.702  25.648   3.850
21210W        W91091   8.760  14.718  14.412
21211W        W91092  29.153   7.234  11.092
21212W        W91093   0.407  18.198   1.231
21213W        W91094  22.620  44.761   1.730
21214W        W91095  39.319  15.261   4.795
21215W        W91096   0.258  35.896  12.439
21216W        W91097   1.249  44.847   1.761
21217W        W91098   6.704  34.488  10.460
21218W        W91099  28.517  38.844  11.405
21219W        W91100  25.129  11.340  13.834
21220W        W91101  34.392  41.366   2.308
21221W        W91102  38.979  25.711   4.276
21222W        W91103  22.651  31.579  13.802
21223W        W91104  44.362  19.775   0.856
21224W        W91105  42.949  35.106   4.699
21225W        W91106   4.889  28.565  14.495
21226W        W91107  24.540  41.992   4.236
21227W        W91108  32.057   8.885   2.799
21228W        W91109  11.285   8.655  14.403
21229W        W91110  16.227   3.319  12.517
21230W        W91111  28.468  30.058   1.763
21231W        W91112  26.087  19.711  12.354
21232W        W91113  25.202   5.899   2.197
21233W        W91114  39.953   5.407   4.337
21234W        W91115  27.075   0.883  13.402
21235W        W91116  39.319  37.450   4.316
21236W        W91117  12.786  26.480   5.104
21237W        W91118   4.920  23.603   3.700
21238W        W91119  16.654  31.567  10.474
21239W        W91120   4.295   0.801  12.094
21240W        W91121  30.469  22.077  14.280
21241W        W91122  14.279  41.514  13.044
21242W        W91123  36.355  38.034   4.221
21243W        W91124   1.471  26.204   4.148
21244W        W91125  34.557  27.582  11.608
21245W        W91126   6.754  17.096  13.918
21246W        W91127  23.033  27.560   1.830
21247W        W91128   6.732  24.673   1.234
21248W        W91129  30.952  23.569   3.321
21249W        W91130  33.008  14.630  14.929
21250W        W91131  24.665  43.849   2.825
21251W        W91132  41.437  10.225   4.642
21252W        W91133  28.986   6.188  10.500
21253W        W91134  35.000  33.577  11.456
21254W        W91135  23.102  33.039  13.841
21255W        W91136  34.025   7.758  14.816
21256W        W91137   5.377  18.712  10.479
21257W        W91138  30.605   5.820   3.738
21258W        W91139   2.293  40.017   1.449
21259W        W91140  19.583  23.549   1.715
21260W        W91141  36.869  11.343   3.334
21261W        W91142  24.481  29.594  12.966
21262W        W91143  23.698   5.302   3.349
21263W        W91144  10.354   5.721   1.737
21264W        W91145  11.345  18.171   3.847
21265W        W91146  25.060  28.128   5.153
21266W        W91147  15.174  15.233  12.047
21267W        W91148  29.935  42.336  14.902
21268W        W91149  37.927  39.035   0.373
21269W        W91150  27.034  14.314   4.629
21270W        W91151  25.587  36.089   4.201
21271W        W91152  12.703  17.664   2.181
21272W        W91153  22.159   2.781   0.362
21273W        W91154  42.401  12.772  12.012
21274W        W91155  35.376  18.061   2.322
21275W        W91156  13.175  35.946   2.702
21276W        W91157  28.027  16.728  10.622
21277W        W91158  14.708  21.706   2.873
21278W        W91159  31.594  39.479   0.432
21279W        W91160  15.314  21.167  11.999
21280W        W91161   5.306  40.883  13.518
21281W        W91162  16.702  24.703   3.241
21282W        W91163  16.796   9.807  14.953
21283W        W91164  21.566  13.675  12.352
21284W        W91165   1.335  31.150  14.987
21285W        W91166  30.609  42.525   1.749
21286W        W91167  10.206  10.857   2.862
21287W        W91168   1.764  25.691  14.429
21288W        W91169  39.886  34.986   1.701
21289W        W91170  29.982  44.481  11.889
21290W        W91171  27.982  15.689   5.122
21291W        W91172  32.615  12.610  12.557
21292W        W91173  28.115  22.063  13.530
21293W        W91174  31.516  42.031   2.300
21294W        W91175  11.207  20.140   3.184
21295W        W91176  21.236   0.295  11.456
21296W        W91177  17.768  44.006  14.928
21297W        W91178  25.697  25.698   4.666
21298W        W91179  33.594  30.614  11.075
21299W        W91180   6.902  11.195  11.879
21300W        W91181  13.772  13.207  13.913
21301W        W91182  15.647  31.109   4.653
21302W        W91183   6.738  18.208  10.577
21303W        W91184  28.154  38.047  12.928
21304W        W91185   0.397  16.308  11.058
21305W        W91186  18.560   1.948  10.409
21306W        W91187  39.891  29.994  13.450
21307W        W91188  31.530  11.645  11.500
21308W        W91189  34.001  21.132   4.331
21309W        W91190  29.078  35.062   1.402
21310W        W91191   1.839   9.347  12.967
21311W        W91192  36.982   4.768  11.975
21312W        W91193   5.242   5.426  14.958
21313W        W91194  22.136  36.354  13.331
21314W        W91195  36.997  27.987  13.055
21315W        W91196   3.850   4.799  14.412
21316W        W91197  36.984  29.990   0.774
21317W        W91198  24.719  39.981  11.008
21318W        W91199  33.579   1.817  12.930
21319W        W91200  38.962   8.756  14.939
21320W        W91201  16.072  30.989  10.915
21321W        W91202  26.982  15.206  14.903
21322W        W91203  16.228  33.074  11.886
21323W        W91204   9.759  31.978  12.965
21324W        W91205  12.730  21.142   4.770
21325W        W91206  23.588  16.670  14.880
21326W        W91207  22.217  23.540   4.339
21327W        W91208  43.388  32.981  11.012
21328W        W91209  10.818  34.375  12.537
21329W        W91210  11.163  15.251   9.507
21330W        W91211  16.075  13.605   2.344
21331W        W91212  39.007  13.819   3.331
21332W        W91213  20.214  26.690   1.734
21333W        W91214  21.109  41.363  14.885
21334W        W91215  42.934   0.344   0.864
21335W        W91216  36.561  24.064   2.837
21336W        W91217  41.312  40.308   3.279
21337W        W91218  42.993  12.346   2.836
21338W        W91219  11.148  28.542  11.458
21339W        W91220  43.308  12.355  11.127
21340W        W91221  14.095  40.509   2.829
21341W        W91222  10.328  14.717   4.176
21342W        W91223   0.465  30.594   3.730
21343W        W91224  37.850  21.638   2.206
21344W        W91225   5.796  36.582   4.344
21345W        W91226  13.284   1.465  13.440
21346W        W91227  30.465  23.193   1.781
21347W        W91228  16.576  37.947  14.431
21348W        W91229   8.226   6.293  11.517
21349W        W91230   2.461  25.496   1.332
21350W        W91231   7.788  16.272   1.822
21351W        W91232  36.351  17.603  11.385
21352W        W91233  28.648  13.143   4.241
21353W        W91234  11.632  36.863   0.374
21354W        W91235   7.343   5.382  13.449
21355W        W91236  34.379  33.425   0.735
21356W        W91237  43.965   9.720  11.475
21357W        W91238  11.621  20.598  13.007
21358W        W91239  24.686  39.348  14.332
21359W        W91240  15.136   7.200  11.542
21360W        W91241  44.754   7.323   2.772
21361W        W91242   0.745  33.480   3.305
21362W        W91243   8.259  15.602   5.084
21363W        W91244  13.737  17.729  12.432
21364W        W91245  11.369  35.041   2.299
21365W        W91246  13.631   3.337   1.766
21366W        W91247  28.131   2.321   5.085
21367W        W91248  35.486  32.563   3.776
21368W        W91249   4.725   6.304  11.870
21369W        W91250  27.970  13.126   2.305
21370W        W91251   4.327  24.105  13.951
21371W        W91252  35.440  17.265  13.926
21372W        W91253  38.979   7.382  10.888
21373W        W91254   9.308  41.499   3.384
21374W        W91255  18.674  38.397  13.011
21375W        W91256   4.394  23.989  14.774
21376W        W91257  19.270  11.191  13.360
21377W        W91258  10.778  13.822  14.022
21378W        W91259  22.684   0.430  10.544
21379W        W91260  24.059  26.007   1.261
21380W        W91261  34.026  40.835  14.761
21381W        W91262  35.944  26.969  11.965
21382W        W91263   5.416  10.641  11.557
21383W        W91264  35.365  21.557  14.789
21384W        W91265  39.556  20.137  11.079
21385W        W91266  43.285  12.178   0.732
21386W        W91267  12.148   3.933   0.875
21387W        W91268  18.262  28.467   3.708
21388W        W91269  43.860  35.852   4.603
21389W        W91270  42.401  44.285   3.154
21390W        W91271   6.741  15.652  10.958
21391W        W91272  32.419  14.715   4.319
21392W        W91273  15.747  36.997  12.501
21393W        W91274  43.488  15.706   4.684
21394W        W91275  27.498  34.099   3.199
21395W        W91276  21.190  41.461   0.328
21396W        W91277  24.126  35.530   2.751
21397W        W91278  33.113  20.162  13.793
21398W        W91279  21.148  23.174   2.716
21399W        W91280   6.875  26.500  13.936
21400W        W91281   5.280   9.868  10.925
21401W        W91282  41.982   5.429  14.280
21402W        W91283  43.864  27.528   1.237
21403W        W91284  11.270  30.034   0.317
21404W        W91285  12.721   0.316  13.934
21405W        W91286  13.123  29.504   4.814
21406W        W91287  39.010   9.862  13.501
21407W        W91288  41.867  31.582  12.856
21408W        W91289  18.119  18.099  14.452
21409W        W91290  25.549  42.283  12.922
21410W        W91291  31.500  44.297   0.873
21411W        W91292  10.292   9.652  10.077
21412W        W91293  31.083  16.642  11.489
21413W        W91294  43.894  40.020   0.737
21414W        W91295   4.405  19.619  14.897
21415W        W91296  30.127   5.433   0.751
21416W        W91297  19.587  24.584   4.660
21417W        W91298  32.112  39.814  10.637
21418W        W91299  14.602  14.723  14.430
21419W        W91300  22.999  38.390  12.491
21420W        W91301  25.029  31.132  11.089
21421W        W91302  35.592  19.601   1.380
21422W        W91303   5.752   4.854   2.351
21423W        W91304   5.341   2.958   0.912
21424W        W91305  17.125   5.818  13.422
21425W        W91306  38.941  18.733  12.458
21426W        W91307  16.172  18.210  11.538
21427W        W91308  39.418  13.677  12.048
21428W        W91309   4.220   7.858   1.851
21429W        W91310  18.152  18.777   3.634
21430W        W91311  38.960  17.221  12.908
21431W        W91312  15.104  43.295   4.242
21432W        W91313  37.376   1.245   0.359
21433W        W91314  41.299  13.241   4.233
21434W        W91315  37.835  20.753   3.741
21435W        W91316  36.565   0.379   4.761
21436W        W91317  41.790  42.336   0.744
21437W        W91318   3.791  40.857  11.450
21438W        W91319  22.635   1.333   2.755
21439W        W91320   3.374  40.364   1.369
21440W        W91321  39.384  22.209  12.399
21441W        W91322  22.037  27.674   2.210
21442W        W91323   0.323   4.296   3.689
21443W        W91324  37.931  19.122   1.737
21444W        W91325  34.576  13.805   3.249
21445W        W91326  13.676  27.977   0.752
21446W        W91327   3.926  27.188   1.710
21447W        W91328  11.645   8.326  12.381
21448W        W91329  40.972  28.531  13.514
21449W        W91330   1.474   3.760  13.836
21450W        W91331  39.416  44.286  10.047
21451W        W91332  17.177   3.922   4.715
21452W        W91333   5.210  43.856  12.427
21453W        W91334  35.041  22.517  11.968
21454W        W91335  29.427  16.737   2.408
21455W        W91336  16.187  12.615  11.423
21456W        W91337   9.315  26.586   3.207
21457W        W91338  37.336   8.187   2.345
21458W        W91339  33.014  37.048  12.515
21459W        W91340  41.845  18.111   1.817
21460W        W91341  28.148  40.047   4.127
21461W        W91342  25.140  44.269   1.381
21462W        W91343   6.330  40.983   1.791
21463W        W91344  30.086  39.964  13.038
21464W        W91345  37.870  44.796  12.438
21465W        W91346   3.278  40.487   1.787
21466W        W91347  32.580   8.782   0.462
21467W        W91348   6.282  16.115  10.528
21468W        W91349  31.143  44.284   0.768
21469W        W91350  26.138   0.961  14.491
21470W        W91351  41.369   3.229   1.903
21471W        W91352  16.683   5.789  10.618
21472W        W91353  41.949   4.342   4.259
21473W        W91354   6.281  44.292  13.387
21474W        W91355  26.195  17.595  11.490
21475W        W91356  33.407  10.875   0.365
21476W        W91357  42.030   0.904  12.555
21477W        W91358  22.180  27.592   3.817
21478W        W91359  35.888  22.006   3.360
21479W        W91360  32.580  11.129  11.039
21480W        W91361   7.721   2.281   2.281
21481W        W91362  16.722  20.765   1.296
21482W        W91363  31.936  33.596   4.163
21483W        W91364  10.782  44.428   0.953
21484W        W91365  23.988  25.614   4.319
21485W        W91366  11.843  42.993  10.061
21486W        W91367  32.910  33.054  12.882
21487W        W91368  39.918  14.149  14.882
21488W        W91369  21.092  18.276   2.894
21489W        W91370  31.014  30.502   3.278
21490W        W91371   3.378  16.769  14.512
21491W        W91372   3.288  36.061  11.995
21492W        W91373  15.320  40.444   3.741
21493W        W91374  44.291  15.718   4.767
21494W        W91375  16.219  33.069   4.727
21495W        W91376  10.310  40.533  11.953
21496W        W91377   9.889  42.445  13.524
21497W        W91378  34.396  33.970  11.571
21498W        W91379  30.914  28.529  13.343
21499W        W91380   4.907  44.922  11.410
21500W        W91381  11.280  16.713  11.020
21501W        W91382  32.487  13.122  13.347
21502W        W91383   2.744   3.765   0.269
21503W        W91384  37.577  40.509  12.395
21504W        W91385  35.547  10.316   2.411
21505W        W91386  43.431  20.161   2.196
21506W        W91387  22.664  21.255   5.184
21507W        W91388  31.436  20.682   4.685
21508W        W91389  17.765  29.491   4.335
21509W        W91390  35.895  18.547  12.038
21510W        W91391  42.398  33.624   2.306
21511W        W91392  11.317   6.812   1.255
21512W        W91393   4.372  31.979   2.209
21513W        W91394  18.668  34.039  13.888
21514W        W91395  42.016  22.604   1.215
21515W        W91396   6.854  18.667   0.403
21516W        W91397  14.273   7.299   3.272
21517W        W91398  12.709  12.347  12.450
21518W        W91399  41.499  30.161   1.290
21519W        W91400  12.841  41.918   1.284
21520W        W91401  26.071   1.327  12.017
21521W        W91402  40.836  21.040  10.002
21522W        W91403   2.776   0.890  13.051
21523W        W91404  27.014  17.199  13.330
21524W        W91405   3.899  29.046   3.147
21525W        W91406  43.484  21.104  10.541
21526W        W91407  43.284   8.333   1.290
21527W        W91408  15.742  32.015  11.410
21528W        W91409  28.566  39.370   1.326
21529W        W91410  38.548  13.195  12.973
21530W        W91411  12.246  28.650  13.007
21531W        W91412  25.976  22.667   0.922
21532W        W91413  16.576  36.865  13.355
21533W        W91414  31.534  16.207  12.576
21534W        W91415   9.329  20.768   2.312
21535W        W91416  38.478  26.046   2.855
21536W        W91417   2.445  21.726  12.093
21537W        W91418   3.884  24.211   3.805
21538W        W91419   7.250  42.346  10.507
21539W        W91420  39.323  23.173  12.966
21540W        W91421  22.169   2.431   4.720
21541W        W91422  13.645   4.764   2.878
21542W        W91423  28.117  24.200   0.878
21543W        W91424  12.357  40.492   0.361
21544W        W91425   2.301  34.604  13.898
21545W        W91426  18.614  32.975   4.677
21546W        W91427  18.668  31.618   0.745
21547W        W91428   2.387  42.473  14.959
21548W        W91429  11.787  17.777  11.608
21549W        W91430  38.465  14.155  11.991
21550W        W91431  41.496   1.290   1.836
21551W        W91432  16.609  30.464   2.709
21552W        W91433   0.277  12.645   1.698
21553W        W91434  31.933  30.081   4.342
21554W        W91435  29.434  15.671   5.289
21555W        W91436  25.711  20.097  13.495
21556W        W91437  19.629  15.168  12.064
21557W        W91438  27.034  30.432  10.552
21558W        W91439   3.809  17.772   3.173
21559W        W91440  39.357   4.380  13.433
21560W        W91441   0.305  44.364  12.500
21561W        W91442  29.440  24.560   1.703
21562W        W91443  31.955  29.941   2.686
21563W        W91444  22.222   8.220   1.291
21564W        W91445   1.456   4.323   1.926
21565W        W91446  36.496  27.164   4.268
21566W        W91447  28.119  32.414   3.230
21567W        W91448  14.821  37.953   2.279
21568W        W91449  43.785   1.772   4.326
21569W        W91450   0.267  29.003   0.831
21570W        W91451  41.858  27.692  11.033
21571W        W91452  25.170   5.268  12.872
21572W        W91453  35.872  38.032  14.505
21573W        W91454  16.690  28.589  14.855
21574W        W91455  37.562  14.245   0.947
21575W        W91456  34.453  34.578   2.725
21576W        W91457  24.993  42.496   2.866
21577W        W91458  26.630  10.150  10.437
21578W        W91459  18.060  29.459  12.531
21579W        W91460  44.379   1.798  11.516
21580W        W91461  14.684   8.333   2.351
21581W        W91462  14.219  31.071  11.454
21582W        W91463  31.569  13.837   4.697
21583W        W91464  44.902  44.788   0.477
21584W        W91465  43.418  37.962  13.529
21585W        W91466   1.341  33.380   0.392
21586W        W91467  36.437  15.608  13.497
21587W        W91468   0.893   0.272   3.259
21588W        W91469  13.149  36.411   3.294
21589W        W91470   2.777  36.041  12.045
21590W        W91471  41.967  29.174   4.346
21591W        W91472  23.664   9.789  14.481
21592W        W91473  37.364  34.578  13.316
21593W        W91474  36.414  29.007   1.764
21594W        W91475  13.712   9.738   3.262
21595W        W91476  31.141  29.981   2.301
21596W        W91477  33.119   5.717   0.277
21597W        W91478  13.720  35.534   1.221
21598W        W91479  17.072  25.030   2.332
21599W        W91480  22.121  10.869  11.949
21600W        W91481  25.473  41.937   2.707
21601W        W91482  31.569  40.431  10.441
21602W        W91483   2.238  34.895   2.780
21603W        W91484   7.683  28.027   3.223
21604W        W91485   6.822   4.393   4.343
21605W        W91486  39.518  13.737   0.250
21606W        W91487  26.665  43.275   0.457
21607W        W91488  25.534  19.597  10.465
21608W        W91489  36.930  43.812  10.633
21609W        W91490  24.143  25.713  13.986
21610W        W91491  29.667  18.206   4.641
21611W        W91492   8.887  40.518   3.324
21612W        W91493  37.457  27.041  10.547
21613W        W91494  20.600  29.929   4.764
21614W        W91495  39.954  42.482  12.504
21615W        W91496  38.565   2.449  11.073
21616W        W91497  40.338  11.689  12.469
21617W        W91498  29.924  19.658   0.277
21618W        W91499   6.350  44.849   1.355
21619W        W91500  25.593  21.537   3.852
21620W        W91501  13.632  19.593  14.427
21621W        W91502  17.597   5.697   1.302
21622W        W91503  28.489   9.726   2.890
21623W        W91504  44.336  13.609  11.536
21624W        W91505  39.511  35.370   2.794
21625W        W91506  17.713  35.986  11.084
21626W        W91507  10.667   7.798  14.483
21627W        W91508  16.679  17.704   3.691
21628W        W91509  35.358  22.572  14.493
21629W        W91510  32.607  28.462   4.652
21630W        W91511  43.288  28.149  12.966
21631W        W91512  23.674  38.069   0.798
21632W        W91513  13.623  24.612   2.821
21633W        W91514   9.311   6.821  10.955
21634W        W91515  27.607  11.355   0.452
21635W        W91516  30.482  14.726   4.324
21636W        W91517  13.728  22.693  13.906
21637W        W91518   1.448  29.592  14.767
21638W        W91519  26.118   7.700   2.185
21639W        W91520  14.250  33.477  11.889
21640W        W91521  26.117  41.330   2.275
21641W        W91522  24.560  33.561   4.174
21642W        W91523  39.479  19.579   3.379
21643W        W91524  34.031  41.929  13.413
21644W        W91525  34.602  32.455   3.187
21645W        W91526  38.369  15.090  14.828
21646W        W91527  31.130   0.848   4.224
21647W        W91528  32.902   1.430  12.975
21648W        W91529  44.785  25.997  14.328
21649W        W91530   8.371  19.744  12.404
21650W        W91531  30.595   3.775   4.196
21651W        W91532  14.732  10.714  10.944
21652W        W91533  21.025  18.787   5.246
21653W        W91534  21.118  15.747   1.855
21654W        W91535  16.602  44.465  11.610
21655W        W91536  32.572  22.122   0.739
21656W        W91537  37.557  16.157  13.325
21657W        W91538  26.009  25.508   3.341
21658W        W91539  41.933  20.135  14.352
21659W        W91540  10.665  18.167   5.223
21660W        W91541  15.146  14.706  10.440
21661W        W91542  28.137  13.269  13.511
21662W        W91543  13.179  29.038  10.914
21663W        W91544  32.914  14.336   3.726
21664W        W91545   1.290   5.868  12.851
21665W        W91546  20.087  10.246   1.240
21666W        W91547  42.463  14.705  10.508
21667W        W91548  21.032  22.072  14.413
21668W        W91549  28.514  19.569   4.172
21669W        W91550   4.204   3.307   3.857
21670W        W91551  40.549  11.812  12.060
21671W        W91552   6.204   5.894  10.415
21672W        W91553  28.981   5.261  12.357
21673W        W91554  43.008  20.266   4.804
21674W        W91555  17.170  20.137  12.397
21675W        W91556  37.564   5.719   4.172
21676W        W91557   8.259  21.678  13.907
21677W        W91558  41.943   0.379   1.348
21678W        W91559  28.930  40.914  12.940
21679W        W91560  23.213  31.948  13.462
21680W        W91561  32.948  18.594  14.435
21681W        W91562  26.519  32.559   1.373
21682W        W91563  36.963  37.893   4.274
21683W        W91564  26.590  27.619   1.224
21684W        W91565  39.465  39.497  11.940
21685W        W91566  43.430  44.990  13.538
21686W        W91567  21.754  44.980   2.774
21687W        W91568  42.025  37.562   1.372
21688W        W91569  23.716  34.596   4.222
21689W        W91570  33.086  32.051   3.306
21690W        W91571  17.598  32.098   4.353
21691W        W91572  27.564  44.355   3.754
21692W        W91573  40.319  41.525  11.413
21693W        W91574  40.021   7.230   1.413
21694W        W91575  23.712  37.989  10.904
21695W        W91576  22.712  40.910   4.118
21696W        W91577  15.172   4.757  14.451
21697W        W91578  38.945  28.487  13.812
21698W        W91579  19.199  41.891  14.862
21699W        W91580  33.469  23.565  12.082
21700W        W91581  14.236  20.144  14.811
21701W        W91582  36.035  17.269   4.662
21702W        W91583  36.941  41.353   2.691
21703W        W91584   7.759  34.908   1.246
21704W        W91585  35.070  27.060   1.375
21705W        W91586   3.955  23.599  11.111
21706W        W91587   3.722   5.832   2.218
21707W        W91588  22.525  19.123  13.328
21708W        W91589   4.755  16.182  13.871
21709W        W91590  17.189   7.340  11.928
21710W        W91591  34.900   6.838  14.866
21711W        W91592  40.506  10.277  14.967
21712W        W91593  13.617  40.960   4.203
21713W        W91594  38.341  11.658  14.912
21714W        W91595  43.415  41.969   4.836
21715W        W91596  39.810  15.649   4.675
21716W        W91597  25.640  44.757  10.435
21717W        W91598  37.529   1.322   3.165
21718W        W91599  17.745  39.017   3.251
21719W        W91600   6.240  41.000  12.958
21720W        W91601  17.755  32.998  14.505
21721W        W91602  13.612  43.807  14.347
21722W        W91603  17.748   8.742   4.213
21723W        W91604  11.190  32.072  14.515
21724W        W91605  25.546  44.779   2.304
21725W        W91606  10.876  19.182  13.509
21726W        W91607  37.408  37.433   4.286
21727W        W91608  34.092  34.392   2.347
21728W        W91609  28.040  22.129   4.834
21729W        W91610  20.648  12.300   2.193
21730W        W91611  29.506  29.108   2.378
21731W        W91612  33.001  11.641   0.947
21732W        W91613  11.253   3.750   0.884
21733W        W91614  18.633  25.519   1.741
21734W        W91615   5.411   3.258   0.269
21735W        W91616   5.777   2.890  12.956
21736W        W91617  22.645  14.325   4.136
21737W        W91618   2.455  27.630  12.879
21738W        W91619   0.906  11.638  14.947
21739W        W91620  21.150  35.891  12.899
21740W        W91621   1.454  15.607  14.395
21741W        W91622  32.460  28.565   1.817
21742W        W91623  21.247   1.750   0.865
21743W        W91624  28.132  40.492  14.786
21744W        W91625  15.813   5.365   4.670
21745W        W91626  24.049  11.249   4.286
21746W        W91627  26.617  14.717  12.398
21747W        W91628  17.706  16.796   0.250
21748W        W91629  10.849   6.676  13.916
21749W        W91630  11.678  11.825  14.481
21750W        W91631  13.811   6.307  13.331
21751W        W91632   6.400  40.014  14.405
21752W        W91633  30.558  10.706  14.808
21753W        W91634  24.647  31.001   0.357
21754W        W91635  27.677  24.152  14.815
21755W        W91636  18.280   8.171   2.701
21756W        W91637  32.935  16.268  13.477
21757W        W91638  26.575  22.694   3.153
21758W        W91639  16.610  35.953  11.855
21759W        W91640   9.765  43.979  10.526
21760W        W91641  21.669  18.153  12.933
21761W        W91642  23.604  11.697  11.125
21762W        W91643  22.662  19.734  14.851
21763W        W91644  16.293   0.885   0.910
21764W        W91645  43.318  23.541  10.924
21765W        W91646   2.238  24.131  10.555
21766W        W91647  27.978  40.924   0.956
21767W        W91648  30.945  22.554   1.394
21768W        W91649  28.673  34.528  13.038
21769W        W91650  25.211  44.788   4.799
21770W        W91651   2.357  43.926   2.902
21771W        W91652  29.567   2.965   4.128
21772W        W91653  28.096  16.757  13.430
21773W        W91654  42.367  13.119   2.291
21774W        W91655   6.765  33.540   0.943
21775W        W91656  23.714  13.712  11.410
21776W        W91657  37.883   6.317  14.385
21777W        W91658  34.433   3.218  14.850
21778W        W91659  36.869   1.346   1.736
21779W        W91660  16.736  34.884   2.715
21780W        W91661  26.095   4.904   1.335
21781W        W91662  43.400  12.610  14.872
21782W        W91663  25.574   5.780   4.806
21783W        W91664  22.017  38.352   1.402
21784W        W91665   1.376  44.985   2.809
21785W        W91666  22.138  20.082   2.297
21786W        W91667   7.289  30.571  12.841
21787W        W91668  15.594  25.113  13.922
21788W        W91669  24.564  19.152  14.379
21789W        W91670  13.217  22.150   0.900
21790W        W91671   9.761  38.505   4.244
21791W        W91672  20.583  19.115   4.829
21792W        W91673  19.162  43.007   1.807
21793W        W91674  10.251  36.476   4.600
21794W        W91675   6.808  10.190  12.845
21795W        W91676  33.928  44.809   0.463
21796W        W91677  28.546   9.218  14.487
21797W        W91678  34.370  27.072   2.229
21798W        W91679  43.485  18.644   4.222
21799W        W91680  38.946  38.913   1.737
21800W        W91681   3.742  15.624  10.954
21801W        W91682   0.953  42.873   0.243
21802W        W91683  16.603  44.319   0.728
21803W        W91684  42.497  23.218  12.348
21804W        W91685   9.192   5.902  11.959
21805W        W91686  21.021  33.487  12.852
21806W        W91687   2.738  30.544  14.816
21807W        W91688   5.929  40.326  13.910
21808W        W91689   4.848  14.623  14.489
21809W        W91690  37.865  33.015  12.495
21810W        W91691  32.063  14.224   3.780
21811W        W91692  16.116  17.281  14.410
21812W        W91693  44.780   7.405   4.346
21813W        W91694  42.997  26.991   4.731
21814W        W91695  21.648  37.481  13.401
21815W        W91696  27.577  29.161  13.412
21816W        W91697   2.231  43.974  12.502
21817W        W91698  16.200  31.620  14.816
21818W        W91699  44.762  33.626  10.108
21819W        W91700  29.042  35.563   2.297
21820W        W91701  13.673  25.033   1.372
21821W        W91702  17.189  32.940  10.996
21822W        W91703  42.414   2.275  11.040
21823W        W91704   1.841  21.058  13.439
21824W        W91705  17.082  43.481   3.331
21825W        W91706  34.017  15.308   1.771
21826W        W91707  18.119  10.185   4.813
21827W        W91708  13.177  14.691   1.398
21828W        W91709  20.135  10.154   2.186
21829W        W91710   2.273  42.857   5.154
21830W        W91711  12.670  25.576  13.795
21831W        W91712   4.815   5.801   2.692
21832W        W91713  36.871  41.852  11.404
21833W        W91714  19.690  33.996   1.697
21834W        W91715  17.645  29.102  14.436
21835W        W91716  11.664   2.281   4.296
21836W        W91717  11.168  36.441   1.247
21837W        W91718  26.105  37.963   4.796
21838W        W91719  19.645   0.425  14.507
21839W        W91720   6.361  44.491  12.356
21840W        W91721  42.508  26.156   0.343
21841W        W91722  16.722   9.317   1.796
21842W        W91723   1.293  15.184   4.124
21843W        W91724  24.693  39.513   4.270
21844W        W91725  42.012  29.567   5.183
21845W        W91726  26.955  12.754   0.432
21846W        W91727  16.307  42.863   2.902
21847W        W91728  23.061  29.140  12.841
21848W        W91729  11.192  42.025  12.886
21849W        W91730   6.756  31.136   2.400
21850W        W91731  19.285   2.963   1.386
21851W        W91732   9.738  10.805   3.174
21852W        W91733  22.512  12.780  12.010
21853W        W91734   1.896  22.619   0.727
21854W        W91735  33.876  22.108   1.852
21855W        W91736  37.044  10.229  14.030
21856W        W91737  28.060   5.245  14.368
21857W        W91738   9.332   8.887  12.068
21858W        W91739   5.689  24.191  11.118
21859W        W91740  31.947  20.765  14.952
21860W        W91741   0.869  37.438   0.464
21861W        W91742   9.801  22.053   1.353
21862W        W91743  28.545  30.075   4.628
21863W        W91744  10.713  25.149   1.229
21864W        W91745  39.401  40.988   3.251
21865W        W91746  31.551  26.589   4.701
21866W        W91747  33.402  41.363  13.874
21867W        W91748  24.518   5.907   2.883
21868W        W91749  30.587  33.028   2.688
21869W        W91750  30.568  13.733  13.402
21870W        W91751  11.196  21.212  12.967
21871W        W91752  28.093  13.668   0.836
21872W        W91753  19.728  11.755  13.310
21873W        W91754  28.045  28.551   3.694
21874W        W91755  14.260  37.536  11.061
21875W        W91756  15.293  34.540  12.841
21876W        W91757  38.010   1.934   1.851
21877W        W91758   4.287  40.361  14.353
21878W        W91759  24.489   2.771   0.951
21879W        W91760   1.441  32.943   2.307
21880W        W91761  38.965  15.665  12.876
21881W        W91762  39.009  42.449  12.961
21882W        W91763  24.985   3.325   0.457
21883W        W91764  14.720  28.101   1.751
21884W        W91765  18.745   4.428  12.039
21885W        W91766  27.130  14.616   3.311
21886W        W91767  12.183  34.461   1.745
21887W        W91768  18.195   4.800  10.891
21888W        W91769  14.692  14.118  11.982
21889W        W91770  21.551  30.636   2.713
21890W        W91771  25.552  28.052  13.044
21891W        W91772  31.610  31.126   0.753
21892W        W91773  42.522  17.166   0.904
21893W        W91774  15.175  15.611   3.673
21894W        W91775  10.275  18.111  14.899
21895W        W91776   8.782  32.077  12.897
21896W        W91777  26.011  34.018  12.930
21897W        W91778  15.775  39.317  12.400
21898W        W91779  10.753  16.687  13.462
21899W        W91780  38.523  29.544   0.341
21900W        W91781  29.601  42.778  13.519
21901W        W91782   8.242  38.904   4.250
21902W        W91783   1.337  19.154   4.707
21903W        W91784  21.065  30.650   0.445
21904W        W91785  32.997  26.512   0.411
21905W        W91786   2.967  12.312  10.921
21906W        W91787  20.087  10.727   0.479
21907W        W91788   6.696  28.592  11.001
21908W        W91789  19.543  38.395   4.141
21909W        W91790  17.630  17.695  13.351
21910W        W91791  10.347  19.662  12.505
21911W        W91792  20.553   8.662  13.390
21912W        W91793  14.168  28.093   4.632
21913W        W91794  40.528  24.507  11.544
21914W        W91795  29.168  18.153   3.784
21915W        W91796  17.774  36.893  10.511
21916W        W91797  24.055   7.752   4.284
21917W        W91798  10.758  39.409   1.773
21918W        W91799  42.334   7.359  13.871
21919W        W91800  20.244  24.027   2.867
21920W        W91801  10.266  37.501   0.366
21921W        W91802  21.171  39.848   4.174
21922W        W91803  33.559  19.220  14.813
21923W        W91804   9.349  33.580   4.749
21924W        W91805  23.093   0.419   4.693
21925W        W91806   0.961  28.086  14.434
21926W        W91807  14.332  29.544  12.903
21927W        W91808  27.504  14.779   2.761
21928W        W91809  12.814   1.385  14.774
21929W        W91810  13.669  38.413   0.751
21930W        W91811   4.222  28.643   0.858
21931W        W91812  25.164  22.155   1.412
21932W        W91813  38.850  32.407   0.857
21933W        W91814  30.951  15.610  13.041
21934W        W91815  25.502  24.672   1.752
21935W        W91816  11.219  42.462  10.580
21936W        W91817  27.690  32.475  14.995
21937W        W91818  12.291  41.905  13.921
21938W        W91819  31.437   6.761   4.711
21939W        W91820  29.481  23.205  11.579
21940W        W91821  10.262  38.418  13.041
21941W        W91822   3.807  31.475  13.830
21942W        W91823  24.204   5.749   1.437
21943W        W91824  36.581  32.571   1.742
21944W        W91825  34.465   8.404  12.906
21945W        W91826  37.451  42.966  12.940
21946W        W91827  36.878  11.725  13.547
21947W        W91828  11.632  29.557   9.984
21948W        W91829  44.000   1.338  12.979
21949W        W91830  14.662  39.379  10.432
21950W        W91831  35.433  19.048  13.457
21951W        W91832  12.712  13.749  11.544
21952W        W91833   9.733   4.766  13.979
21953W        W91834  40.865  43.502   2.316
21954W        W91835  11.768  32.457  13.000
21955W        W91836  21.627   8.359  12.971
21956W        W91837  20.565  29.930   3.652
21957W        W91838  22.114  32.913   0.814
21958W        W91839  29.497  31.974  10.569
21959W        W91840  30.599  38.047  12.469
21960W        W91841  21.144   4.742  10.525
21961W        W91842   6.405   6.306   1.427
21962W        W91843  40.349  28.456  12.065
21963W        W91844  16.181  25.202  10.460
21964W        W91845  15.637  39.430  12.975
21965W        W91846  33.128  10.850   3.375
21966W        W91847  10.760  23.564  13.347
21967W        W91848  32.086  27.019  11.019
21968W        W91849  29.423  41.377   4.142
21969W        W91850  25.970  15.671   1.370
21970W        W91851   8.677  44.280   3.706
21971W        W91852  29.497   1.341   4.272
21972W        W91853  32.028  18.124   0.929
21973W        W91854  33.993  36.491   0.849
21974W        W91855  19.561  35.016   2.750
21975W        W91856   9.796  33.991  11.446
21976W        W91857  36.032  33.885  13.008
21977W        W91858  44.296  35.505   2.366
21978W        W91859   9.304   2.938  14.816
21979W        W91860  24.179  43.372   0.452
21980W        W91861   7.357  22.204   4.621
21981W        W91862   5.249  27.188   2.827
21982W        W91863  11.305   4.250   1.877
21983W        W91864  33.600  35.436   0.957
21984W        W91865  19.247  33.874   3.722
21985W        W91866  23.604  28.142   1.229
21986W        W91867  14.828  19.607  11.111
21987W        W91868  27.108  14.331   3.863
21988W        W91869  30.486  28.177   1.870
21989W        W91870  28.931  34.434   0.854
21990W        W91871  36.997  29.152   1.377
21991W        W91872  40.821  30.104  14.511
21992W        W91873  37.459  19.726  11.452
21993W        W91874   0.280  17.781  14.297
21994W        W91875   1.817  27.614  12.501
21995W        W91876  32.531  38.342  11.410
21996W        W91877  31.124   2.253  14.372
21997W        W91878  26.140  17.099   0.739
21998W        W91879  33.462   9.179   1.858
21999W        W91880  39.039  31.481  11.935
22000W        W91881  35.856  37.386  13.830
22001W        W91882   9.680  19.709  10.575
22002W        W91883   0.468  43.916   2.230
22003W        W91884  12.825  15.095   1.920
22004W        W91885  33.585  18.612  12.481
22005W        W91886  32.968  22.537  11.864
22006W        W91887  42.422  14.778   0.846
22007W        W91888  26.684   2.305  12.839
22008W        W91889  38.859  20.186   2.310
22009W        W91890   4.436   6.692   4.132
22010W        W91891  32.461  37.568   5.216
22011W        W91892  11.744  20.611  13.813
22012W        W91893  15.240  32.054   3.639
22013W        W91894  39.538  15.172  14.331
22014W        W91895   9.391   8.771   2.879
22015W        W91896   7.749  20.624  13.053
22016W        W91897  30.510  25.079  11.516
22017W        W91898  23.204  13.786   1.326
22018W        W91899  28.659  42.320   4.220
22019W        W91900  16.812  39.407   3.165
22020W        W91901  35.981   9.836   2.781
22021W        W91902   9.794   5.323   0.946
22022W        W91903   9.205  18.285   4.324
22023W        W91904  30.092  15.134   2.309
22024W        W91905  21.027   5.321  12.487
22025W        W91906  40.870  31.474  12.346
22026W        W91907   8.707  32.575   4.678
22027W        W91908  13.194  25.653  12.047
22028W        W91909  13.264  10.251   4.753
22029W        W91910  41.893  15.172  11.012
22030W        W91911  42.300  32.392  14.949
22031W        W91912  38.829  37.432   3.665
22032W        W91913  10.322   9.709   4.674
22033W        W91914  24.183  11.248  14.944
22034W        W91915  20.694  21.034   0.334
22035W        W91916   1.880  27.592   4.224
22036W        W91917  12.646  34.055  12.401
22037W        W91918  16.685  25.075   0.445
22038W        W91919  33.031  29.086   0.295
22039W        W91920  24.720  19.681  10.467
22040W        W91921   2.955  29.967   1.705
22041W        W91922  35.581  31.071  13.926
22042W        W91923   0.936  13.789   0.362
22043W        W91924  29.954  28.669   3.240
22044W        W91925  44.388  21.513   3.719
22045W        W91926  18.183  31.485  11.425
22046W        W91927   3.936  21.682  13.979
22047W        W91928  15.734  35.494   2.714
22048W        W91929  33.494  25.485   3.233
22049W        W91930  26.546  19.704  14.354
22050W        W91931  41.878  15.091  13.501
22051W        W91932   5.765  15.304   2.826
22052W        W91933  34.436   8.829  14.397
22053W        W91934  23.592  28.611  14.885
22054W        W91935  44.839  19.559   2.248
22055W        W91936  18.090   0.302   0.831
22056W        W91937  21.049  39.421  11.126
22057W        W91938  39.424  25.180   2.400
22058W        W91939  38.394  32.442   2.762
22059W        W91940  10.853  40.807  13.024
22060W        W91941   5.395  32.033  11.386
22061W        W91942  23.048  20.221   5.106
22062W        W91943   4.884  32.106  13.017
22063W        W91944  23.663  40.471   3.296
22064W        W91945   8.814  23.098  10.965
22065W        W91946  22.079   8.790  14.413
22066W        W91947  30.532   0.354   0.755
22067W        W91948  20.673   2.958   1.923
22068W        W91949   7.225  42.467  14.023
22069W        W91950  42.809   8.289   3.222
22070W        W91951  15.740  38.890   2.191
22071W        W91952  26.514  37.404   1.829
22072W        W91953  10.331  41.443   1.261
22073W        W91954   7.223   0.277   2.783
22074W        W91955   5.800  36.526   0.783
22075W        W91956   5.901   1.364  14.759
22076W        W91957  23.190  38.544  11.386
22077W        W91958  44.797  25.613  11.999
22078W        W91959  14.770  30.114  14.390
22079W        W91960  36.357  36.588   0.861
22080W        W91961  27.483   0.777  11.884
22081W        W91962  26.468  30.556   4.343
22082W        W91963  40.837  30.614   1.393
22083W        W91964  17.066  37.427  12.965
22084W        W91965   3.240  27.646  10.478
22085W        W91966  12.842  40.821   2.344
22086W        W91967  30.510   8.307  13.491
22087W        W91968  25.528  13.624   2.231
22088W        W91969  26.538  19.258  11.523
22089W        W91970  30.644  16.220   2.257
22090W        W91971  11.698  43.857  11.000
22091W        W91972  14.303  31.411   2.873
22092W        W91973  33.932  29.481  12.442
22093W        W91974  18.135  15.654   2.268
22094W        W91975  18.572  35.860   1.351
22095W        W91976   6.786  42.479  13.860
22096W        W91977  14.230  43.842   1.774
22097W        W91978  25.021  33.929  14.841
22098W        W91979  44.865  11.305  13.460
22099W        W91980  19.119  18.071   2.413
22100W        W91981  17.162  12.248  11.492
22101W        W91982  38.475   2.405  12.383
22102W        W91983   7.702  34.018  14.453
22103W        W91984  13.760  28.517  11.596
22104W        W91985  13.791  18.585  12.030
22105W        W91986  44.782  43.494   3.663
22106W        W91987  37.952  27.037  10.494
22107W        W91988  42.842  44.267   3.850
22108W        W91989  20.634  37.843  14.298
22109W        W91990   7.784  21.691   0.309
22110W        W91991  25.106   9.821   4.258
22111W        W91992  30.612   5.801   2.801
22112W        W91993  43.413  10.364   0.919
22113W        W91994   5.911  28.062  14.506
22114W        W91995  12.332   2.742  12.467
22115W        W91996  22.133   3.901  14.815
22116W        W91997   4.836   5.225   0.481
22117W        W91998   6.814   6.311   3.215
22118W        W91999  30.990  35.967  12.028
22119W        W92000  44.890  30.592   4.353
22120W        W92001   0.354  26.543   2.712
22121W        W92002  41.464  44.959   2.290
22122W        W92003  18.558  23.094   1.833
22123W        W92004  28.185  42.381  13.981
22124W        W92005   7.724  39.987  11.613
22125W        W92006  10.772   8.808  10.419
22126W        W92007  10.209  15.594  11.019
22127W        W92008  40.032  42.838  12.402
22128W        W92009  27.180  43.941  14.483
22129W        W92010  12.668  31.928  13.875
22130W        W92011  32.076  25.990  13.529
22131W        W92012  38.382  30.125  13.055
22132W        W92013  18.118   5.386   2.892
22133W        W92014  14.643  40.926  11.948
22134W        W92015  20.579  17.075   1.443
22135W        W92016  30.657  32.566  13.415
22136W        W92017  27.582  37.470  14.802
22137W        W92018  20.687  26.639  12.514
22138W        W92019  22.710  35.011  10.610
22139W        W92020  13.158  23.219   1.451
22140W        W92021  30.993  10.831  12.875
22141W        W92022  22.075  28.578   2.737
22142W        W92023  13.236  25.548   4.768
22143W        W92024  34.916  14.697  10.404
22144W        W92025  26.188   4.898  11.478
22145W        W92026  14.105  20.206  13.006
22146W        W92027  13.136  23.116  14.962
22147W        W92028  16.664  35.899   0.867
22148W        W92029  22.706  10.339   2.227
22149W        W92030  38.926  38.848   0.851
22150W        W92031  24.165  15.105  14.440
22151W        W92032  14.183  36.913   3.369
22152W        W92033   0.829  15.655  13.980
22153W        W92034  36.555  37.848  12.028
22154W        W92035  19.133  13.154   3.334
22155W        W92036  41.410  32.044  12.522
22156W        W92037  19.190  33.939   3.304
22157W        W92038  15.791  29.939   0.428
22158W        W92039  34.450   3.956   1.343
22159W        W92040   2.856  42.891  12.547
22160W        W92041  15.281  42.430  12.575
22161W        W92042   8.679  24.158   2.722
22162W        W92043   4.768  44.923  12.929
22163W        W92044  37.404  25.170  10.946
22164W        W92045  31.024  16.587   5.316
22165W        W92046  29.115   5.362   1.882
22166W        W92047  18.111  44.358  11.098
22167W        W92048  23.188  27.047  12.984
22168W        W92049   5.720  43.824   4.777
22169W        W92050   2.237  25.982  12.864
22170W        W92051   5.917  14.165   4.214
22171W        W92052  37.865  23.625  14.981
22172W        W92053  24.206  16.762  14.006
22173W        W92054  28.494  26.702  14.938
22174W        W92055  26.166  42.994   5.086
22175W        W92056  38.424  40.800  14.320
22176W        W92057  34.015  39.345  11.954
22177W        W92058   7.251  18.597   1.409
22178W        W92059  34.951  41.424  11.522
22179W        W92060   6.426  21.067   1.786
22180W        W92061  29.977  25.637   0.757
22181W        W92062  43.289  25.071   1.776
22182W        W92063  41.463  20.667  11.567
22183W        W92064  37.006  41.915  10.499
22184W        W92065   0.318   6.319   0.327
22185W        W92066  35.603  44.342  12.052
22186W        W92067  15.692   1.447  13.835
22187W        W92068   0.378  34.999   2.253
22188W        W92069  30.121  33.042   3.279
22189W        W92070   0.946  13.713  12.381
22190W        W92071  22.083  44.407  10.071
22191W        W92072  43.918  30.119  13.335
22192W        W92073   3.929  26.569  10.972
22193W        W92074   0.431  18.174  11.426
22194W        W92075  30.915  15.267   4.174
22195W        W92076   4.762   9.306   1.445
22196W        W92077  21.559  36.530  12.991
22197W        W92078  29.135   5.691   1.733
22198W        W92079  40.949  20.262   0.860
22199W        W92080  19.773  41.855  10.592
22200W        W92081   6.289  18.181   0.314
22201W        W92082  12.700  29.174  14.367
22202W        W92083  17.221  16.251   2.805
22203W        W92084  22.705  12.341   2.282
22204W        W92085  31.452   9.803  14.764
22205W        W92086  31.933  30.593   1.752
22206W        W92087   3.354  24.639  12.974
22207W        W92088  11.345   4.878  10.499
22208W        W92089  43.507  26.590  11.994
22209W        W92090  41.301  15.630  11.972
22210W        W92091  21.681  22.225   4.344
22211W        W92092  12.257  36.902   3.270
22212W        W92093  43.285  42.916  10.408
22213W        W92094  43.315   5.267  14.010
22214W        W92095  40.846   5.815   1.306
22215W        W92096  38.525  12.242  14.820
22216W        W92097  20.544  36.554  14.945
22217W        W92098  16.772  30.027  13.012
22218W        W92099  32.430  14.731  13.820
22219W        W92100  22.167  32.980  13.868
22220W        W92101  21.749   6.774   1.295
22221W        W92102  25.612  37.915   2.793
22222W        W92103  13.128  16.665  14.950
22223W        W92104  31.013   4.384   2.396
22224W        W92105  42.439  37.580  13.868
22225W        W92106  32.981  40.000  12.447
22226W        W92107  31.610  12.123  13.970
22227W        W92108   8.281  11.367   2.694
22228W        W92109   9.713  19.154  13.921
22229W        W92110  41.376   5.391  10.553
22230W        W92111  42.914  37.002  10.980
22231W        W92112  11.712  33.087  13.802
22232W        W92113  12.323   9.792  14.436
22233W        W92114  17.232   9.214   2.230
22234W        W92115  36.486  37.411  12.447
22235W        W92116  43.922  17.296  11.585
22236W        W92117  14.257  23.491  13.325
22237W        W92118  37.577  21.684  13.939
22238W        W92119  20.678  40.854  11.860
22239W        W92120  16.114   9.787  13.815
22240W        W92121  37.946  20.040   4.620
22241W        W92122  20.062  18.163   3.840
22242W        W92123  23.199  43.874   4.765
22243W        W92124  34.061  16.590   4.624
22244W        W92125  42.311  38.987   0.291
22245W        W92126  23.161  20.097   0.936
22246W        W92127   2.861   1.301  10.565
22247W        W92128  12.813  12.358   3.714
22248W        W92129   5.913  43.304   4.264
22249W        W92130  23.045  30.548  11.965
22250W        W92131  13.305  27.122  13.033
22251W        W92132  13.762  20.652  13.886
22252W        W92133  29.569  17.189   0.312
22253W        W92134   3.406   7.711  12.846
22254W        W92135  25.514   6.345   2.864
22255W        W92136  22.661  35.924   3.856
22256W        W92137  31.961   3.260   4.620
22257W        W92138  19.547  42.339  12.517
22258W        W92139  21.689  21.632  14.390
22259W        W92140  17.192   4.750   5.260
22260W        W92141  32.422  25.581  12.434
22261W        W92142  34.977   3.264  10.135
22262W        W92143  17.697  15.614   4.248
22263W        W92144  18.784  32.484   4.749
22264W        W92145  29.961  29.920   0.433
22265W        W92146  25.219  36.005   3.784
22266W        W92147   5.823   9.684   1.785
22267W        W92148  36.473  43.915   4.269
22268W        W92149   3.315   2.936  12.524
22269W        W92150  15.762  41.528   0.862
22270W        W92151  25.552  36.874  12.095
22271W        W92152  17.175  18.752   3.309
22272W        W92153  31.951  14.743   2.283
22273W        W92154   7.233  24.630   0.386
22274W        W92155  14.284  15.298   0.392
22275W        W92156  29.583  40.548  14.821
22276W        W92157  16.689   4.394   4.746
22277W        W92158  23.124  29.615  14.354
22278W        W92159   9.356   4.888  11.101
22279W        W92160  33.605  37.076   0.358
22280W        W92161  11.240   4.726  10.962
22281W        W92162  28.469  40.310   3.384
22282W        W92163   7.281  33.492   0.431
22283W        W92164  37.029   2.465  13.940
22284W        W92165  19.153  25.159   0.816
22285W        W92166  14.763   7.274  12.963
22286W        W92167  40.345   7.310   1.697
22287W        W92168   5.822  23.710  12.437
22288W        W92169  18.568  30.544   3.185
22289W        W92170   1.467  20.193  13.933
22290W        W92171  23.162   8.335  11.406
22291W        W92172   0.484  43.314   1.817
22292W        W92173  15.208  44.394  14.341
22293W        W92174  19.639  44.931   3.192
22294W        W92175  43.919  34.896   1.235
22295W        W92176  28.572  23.511   3.634
22296W        W92177  34.106  17.801  11.866
22297W        W92178  14.783   2.325  12.535
22298W        W92179   2.249   7.893  13.416
22299W        W92180  26.178  37.987   1.406
22300W        W92181  36.884  38.334   2.710
22301W        W92182  32.976   9.232  14.898
22302W        W92183  14.679  27.029  12.995
22303W        W92184   4.209   4.775   1.280
22304W        W92185  13.776   1.346   3.217
22305W        W92186   7.858  37.016   2.207
22306W        W92187  42.912  10.363   3.303
22307W        W92188  24.156  40.323   4.242
22308W        W92189   9.327  43.947  14.976
22309W        W92190   0.324  18.628   4.140
22310W        W92191   7.300  20.535  14.797
22311W        W92192  13.118  33.107   3.286
22312W        W92193   6.780  36.576   0.839
22313W        W92194  24.022   8.284   2.358
22314W        W92195   2.355  27.597  14.292
22315W        W92196  11.816  29.029  13.940
22316W        W92197  26.656  16.650  10.943
22317W        W92198   5.434  30.991  14.854
22318W        W92199  24.095  22.608   5.116
22319W        W92200   4.218  11.689   4.218
22320W        W92201  35.053  42.011  11.402
22321W        W92202  38.049   2.955   2.205
22322W        W92203  44.467  14.667   0.918
22323W        W92204  30.066  32.562   4.163
22324W        W92205  24.004   3.262   2.713
22325W        W92206   1.750  18.702   3.653
22326W        W92207  37.373   1.369   9.534
22327W        W92208  20.568  42.355  12.471
22328W        W92209   2.424   9.340   2.292
22329W        W92210  24.047   9.706   0.355
22330W        W92211   2.411  18.602   0.268
22331W        W92212  39.488  34.540   2.239
22332W        W92213  18.171  10.725   1.445
22333W        W92214  31.039  10.220  10.430
22334W        W92215  15.602  31.516   2.256
22335W        W92216   0.426  25.211  13.911
22336W        W92217  39.498  25.695  14.812
22337W        W92218   8.160   3.284  13.504
22338W        W92219   5.431  21.095  11.958
22339W        W92220  30.039   5.388   5.766
22340W        W92221  35.466  44.324   3.680
22341W        W92222  14.138  17.603   0.800
22342W        W92223  17.261  44.464   2.792
22343W        W92224  44.269  38.402  11.380
22344W        W92225  43.968  35.109   4.725
22345W        W92226  14.763  32.889   2.676
22346W        W92227  36.876   9.830   3.370
22347W        W92228   5.263   0.249  13.875
22348W        W92229  14.163  42.910  13.504
22349W        W92230  43.352  23.520   3.774
22350W        W92231   9.710  19.763  13.806
22351W        W92232  44.330  32.398  14.996
22352W        W92233   3.834  31.909   4.733
22353W        W92234  13.148  20.654  12.056
22354W        W92235  14.762  26.109  11.054
22355W        W92236  39.409  32.590   1.397
22356W        W92237  27.015  24.115   0.243
22357W        W92238  17.716  43.013  13.464
22358W        W92239  23.181   8.691   4.268
22359W        W92240  30.953  14.686   0.965
22360W        W92241  12.347  34.561  13.452
22361W        W92242  13.320  23.996  10.935
22362W        W92243   0.767  27.675  14.460
22363W        W92244   0.752   7.763   2.331
22364W        W92245  28.627  19.761   5.212
22365W        W92246   4.310  11.825   1.827
22366W        W92247  19.697   7.384  12.918
22367W        W92248  17.638  27.003  12.906
22368W        W92249  40.965   5.372   3.668
22369W        W92250  37.053   6.814  12.449
22370W        W92251  15.639  37.582   0.811
22371W        W92252   1.846  28.934  11.380
22372W        W92253   8.672  39.464  11.083
22373W        W92254  24.494  10.840  13.334
22374W        W92255  21.593  26.072   1.929
22375W        W92256   9.319  10.178   2.845
22376W        W92257  39.455  27.591   1.862
22377W        W92258  27.068   1.467  14.937
22378W        W92259  25.565   3.872  10.939
22379W        W92260   2.885   6.387   2.403
22380W        W92261  39.335  39.549  10.914
22381W        W92262  22.141  37.546   0.850
22382W        W92263  44.338   2.885  13.440
22383W        W92264  19.676  43.509   1.321
22384W        W92265  14.629  31.998   9.952
22385W        W92266  21.221  19.734   1.719
22386W        W92267   5.743  12.648   0.803
22387W        W92268   8.406  32.108   1.728
22388W        W92269  19.217  13.272   4.732
22389W        W92270   3.425  11.854   3.320
22390W        W92271  30.422   9.839   4.601
22391W        W92272  14.740  33.615   0.755
22392W        W92273  22.037  38.041   0.782
22393W        W92274  42.350  29.930  10.613
22394W        W92275  35.433  10.189   3.294
22395W        W92276  16.617  32.993   4.250
22396W        W92277   0.446  27.468  11.473
22397W        W92278  31.456  19.765  12.039
22398W        W92279  43.442  36.478  13.432
22399W        W92280  20.147  19.780   4.651
22400W        W92281  17.181   5.419   2.280
22401W        W92282  20.654   7.869   2.716
22402W        W92283  12.625   6.201   1.270
22403W        W92284  13.846  34.512   3.248
22404W        W92285  44.384   6.359  12.404
22405W        W92286  29.039  25.979   2.746
22406W        W92287  39.837  23.157  12.905
22407W        W92288  26.123   2.884   0.909
22408W        W92289  13.836  18.568  13.970
22409W        W92290  10.799   1.238   4.666
22410W        W92291  36.479   0.432   2.379
22411W        W92292  35.009  39.019  11.608
22412W        W92293  12.741   5.902   2.180
22413W        W92294  17.204  11.276  13.525
22414W        W92295  41.463  24.703   2.181
22415W        W92296  22.196  29.435   2.180
22416W        W92297   6.679   6.718  14.419
22417W        W92298  17.721  25.039  13.946
22418W        W92299   3.781  11.196   0.904
22419W        W92300  39.356  39.558   1.331
22420W        W92301   2.851  10.263  12.992
22421W        W92302  38.933  19.755  14.961
22422W        W92303  38.417  36.423   2.889
22423W        W92304  18.555  41.940   1.834
22424W        W92305  23.006  14.096   4.705
22425W        W92306  26.002  13.166   3.699
22426W        W92307  37.536  30.937   5.225
22427W        W92308   8.302  11.634   1.725
22428W        W92309  32.894  15.210  13.948
22429W        W92310   3.737  25.011  14.405
22430W        W92311  24.643  33.990  14.436
22431W        W92312  19.683  32.939  14.394
22432W        W92313  11.708  41.803  14.280
22433W        W92314  34.901   0.447  13.902
22434W        W92315  12.839   7.351   1.698
22435W        W92316   9.162  44.891  14.808
22436W        W92317  33.045  18.067  14.847
22437W        W92318   3.375  43.927   4.613
22438W        W92319  27.564  23.575   2.278
22439W        W92320   2.395  44.856  14.375
22440W        W92321   8.762  13.109   5.319
22441W        W92322   3.922  25.566   1.835
22442W        W92323   8.670  33.058   3.781
22443W        W92324  44.780  15.161  11.395
22444W        W92325  19.077  10.266  10.945
22445W        W92326  15.181   8.748  11.587
22446W        W92327  32.119   4.797   1.307
22447W        W92328  33.892  20.633  12.350
22448W        W92329  10.796  21.635   0.426
22449W        W92330  42.867  16.640  11.869
22450W        W92331  39.440  44.504  10.630
22451W        W92332  24.182  18.172  10.889
22452W        W92333  17.294  31.965   2.275
22453W        W92334   6.345  24.522  11.918
22454W        W92335  38.924   5.866  13.894
22455W        W92336   5.899  42.912   1.351
22456W        W92337  35.040  11.343   2.703
22457W        W92338   2.791  40.865   2.208
22458W        W92339   4.352   1.891   0.753
22459W        W92340   0.293  44.838   0.391
22460W        W92341  42.838   3.337  13.541
22461W        W92342  16.129  26.056   1.237
22462W        W92343  36.514  33.902   4.597
22463W        W92344  34.506  44.345  13.393
22464W        W92345  28.102  34.481   2.278
22465W        W92346  40.974   4.307  11.026
22466W        W92347   9.208  33.103   0.265
22467W        W92348  38.956  20.563   3.738
22468W        W92349  14.696  25.977  14.836
22469W        W92350  26.012  27.107  13.445
22470W        W92351   6.739  14.310   2.774
22471W        W92352  34.099   2.259   0.907
22472W        W92353  14.277  44.472   3.848
22473W        W92354  16.751  28.610  14.463
22474W        W92355  33.402  36.534  11.947
22475W        W92356   4.879   6.324  12.467
22476W        W92357   6.859  40.039   2.839
22477W        W92358  22.029  41.519  13.849
22478W        W92359  20.559  35.489  11.093
22479W        W92360  27.188   2.259  11.594
22480W        W92361  11.697   0.868   5.279
22481W        W92362  43.873  11.674   3.769
22482W        W92363  36.435   7.694  10.510
22483W        W92364   9.708  21.705   1.381
22484W        W92365  37.476  20.558   4.759
22485W        W92366  35.428  18.178  10.407
22486W        W92367  17.165  14.227  12.835
22487W        W92368  27.134  32.059   2.666
22488W        W92369  17.121   4.204  14.317
22489W        W92370  20.072  22.557  11.043
22490W        W92371  42.491  16.080  11.449
22491W        W92372  35.430   5.316  13.040
22492W        W92373   9.848  13.188   1.877
22493W        W92374  40.547  17.646   1.395
22494W        W92375  27.100  19.720   2.883
22495W        W92376  11.362  20.761   0.881
22496W        W92377  35.969  26.536  11.493
22497W        W92378  22.132  19.678  10.970
22498W        W92379  36.534  22.168   0.824
22499W        W92380  30.512  40.344  11.596
22500W        W92381   9.700  21.702  11.930
22501W        W92382  10.248  26.474  14.873
22502W        W92383   6.779  15.217   0.923
22503W        W92384   7.236  31.402   2.755
22504W        W92385  44.481  44.412  13.972
22505W        W92386  14.795  41.293   4.354
22506W        W92387  38.329  18.234  13.948
22507W        W92388  25.082  24.028  13.381
22508W        W92389  39.873  20.239   0.268
22509W        W92390  40.913  21.051  14.332
22510W        W92391   5.249  30.923  13.956
22511W        W92392  36.497  38.835   0.418
22512W        W92393  16.589  28.106  13.910
22513W        W92394  37.458  37.447  10.442
22514W        W92395  42.386   1.827   4.625
22515W        W92396  29.613  32.070   4.225
22516W        W92397  22.071  33.529  12.003
22517W        W92398   2.447  17.784  14.409
22518W        W92399  36.957  17.694  14.474
22519W        W92400  30.576  25.020   2.842
22520W        W92401  14.629  16.650  10.480
22521W        W92402  10.302  34.561  10.620
22522W        W92403  38.968  15.177  10.545
22523W        W92404  17.138  12.342   1.424
22524W        W92405  34.430  39.837   1.915
22525W        W92406  38.977   6.425   5.269
22526W        W92407   2.424  10.840  10.611
22527W        W92408   2.863  14.615   4.216
22528W        W92409  31.992  28.435  12.353
22529W        W92410   6.251   2.396  14.992
22530W        W92411  28.547  36.377  10.497
22531W        W92412   4.248  12.212   2.408
22532W        W92413   3.312  27.066   1.231
22533W        W92414  38.868   3.762  13.885
22534W        W92415  11.763  41.520  10.130
22535W        W92416  40.487  17.794  10.495
22536W        W92417  39.518   9.270  11.489
22537W        W92418  32.394  27.118   0.843
22538W        W92419   8.702  24.992   0.243
22539W        W92420  24.710  34.897  11.918
22540W        W92421  27.662  43.848   3.868
22541W        W92422  16.739  42.395  11.433
22542W        W92423  21.732  21.096  12.967
22543W        W92424  11.243  35.389  11.907
22544W        W92425  35.593   0.386  11.561
22545W        W92426  27.556  15.776   0.322
22546W        W92427  43.950  31.144  11.049
22547W        W92428  10.683  14.678  10.570
22548W        W92429   7.839  30.957  13.871
22549W        W92430  33.419   0.251  13.325
22550W        W92431  41.011  22.672   1.242
22551W        W92432  27.047   0.331   0.454
22552W        W92433  11.753  16.205   2.405
22553W        W92434  33.016  28.680   0.466
22554W        W92435   1.308  16.272  12.428
22555W        W92436  33.910   1.950  12.519
22556W        W92437  16.767   3.730  12.941
22557W        W92438  30.937   8.183   3.307
22558W        W92439  15.728  10.870  12.987
22559W        W92440  18.069  29.657   2.852
22560W        W92441   5.429  13.286  10.542
22561W        W92442  13.650  11.703   3.776
22562W        W92443  22.542  14.255  10.480
22563W        W92444  12.216  38.958   4.197
22564W        W92445  28.648  43.279   0.781
22565W        W92446  43.308  12.687  13.881
22566W        W92447  17.652   1.806  13.859
22567W        W92448  26.657   4.370   2.294
22568W        W92449   3.900  16.671  14.292
22569W        W92450  15.130   5.879  14.014
22570W        W92451   9.386  28.012   3.773
22571W        W92452  26.158  26.071  14.941
22572W        W92453  24.050  12.155  10.927
22573W        W92454   4.723  16.620   0.764
22574W        W92455  36.061  26.676   1.708
22575W        W92456  34.966  21.209   9.944
22576W        W92457   1.320  43.890   0.415
22577W        W92458  15.285  31.422   4.816
22578W        W92459  15.684  41.868   2.382
22579W        W92460  33.552   8.181  14.002
22580W        W92461  33.516   7.302  12.831
22581W        W92462  17.169  12.320  14.858
22582W        W92463  12.237  35.952  10.998
22583W        W92464  13.139  42.478   3.175
22584W        W92465  34.532  27.624  14.970
22585W        W92466  39.933   0.812  14.490
22586W        W92467  34.080  29.424  12.008
22587W        W92468  26.590  11.837   0.249
22588W        W92469   8.253  16.623  12.866
22589W        W92470  31.130  12.347  11.865
22590W        W92471  25.526   5.874  11.878
22591W        W92472  36.507  35.451   4.199
22592W        W92473  38.937  31.921  11.459
22593W        W92474  31.066  36.923  14.322
22594W        W92475   8.393  12.220  10.997
22595W        W92476   1.275  17.292   0.875
22596W        W92477   5.795  33.431  10.979
22597W        W92478  14.231  17.135   4.309
22598W        W92479  24.195   9.683  12.898
22599W        W92480  24.538   3.251  14.003
22600W        W92481  16.730  18.680  12.877
22601W        W92482   6.303  44.925  14.411
22602W        W92483  16.736  43.331  14.789
22603W        W92484  18.169   5.899  10.892
22604W        W92485  36.855  37.041  14.983
22605W        W92486  33.624  33.078  12.469
22606W        W92487  13.123  15.234   4.156
22607W        W92488   0.787   4.363   0.433
22608W        W92489   7.901  17.084   0.764
22609W        W92490  20.064  28.584   3.158
22610W        W92491  20.720  32.916   1.339
22611W        W92492   7.711  34.914   4.124
22612W        W92493   5.753  25.104   2.391
22613W        W92494  36.841  23.168   1.347
22614W        W92495  15.119  16.660   4.220
22615W        W92496  31.416  41.002   1.818
22616W        W92497   6.421   6.331   0.317
22617W        W92498  26.505  33.619  12.452
22618W        W92499   4.789  15.651  13.826
22619W        W92500  41.482  16.703   1.245
22620W        W92501  20.128  16.314   1.263
22621W        W92502  18.136  40.371  13.456
22622W        W92503  32.635   0.487  12.939
22623W        W92504  31.456  38.007   4.348
22624W        W92505  19.120  31.521  14.993
22625W        W92506  41.876   3.444  14.007
22626W        W92507  24.024  29.498   1.338
22627W        W92508  30.948  30.065  14.429
22628W        W92509  26.601  40.340   1.245
22629W        W92510  33.014   9.247   3.808
22630W        W92511  25.647  31.136  11.893
22631W        W92512  11.645   2.930   3.844
22632W        W92513   4.373  32.511   1.317
22633W        W92514  23.124  20.690  14.860
22634W        W92515  12.135  27.167  13.381
22635W        W92516   0.286  26.042  14.905
22636W        W92517  38.552  20.262   4.186
22637W        W92518  32.113   8.311   1.716
22638W        W92519  44.330  17.697  13.324
22639W        W92520  37.959  40.482   2.213
22640W        W92521  36.006  32.009   4.631
22641W        W92522   1.374  37.416  10.075
22642W        W92523   2.763  42.453  10.898
22643W        W92524  20.233  37.379   0.320
22644W        W92525  29.427  37.937  14.012
22645W        W92526   4.756  12.354   0.898
22646W        W92527  15.733   7.768   0.477
22647W        W92528  12.352  20.111   3.319
22648W        W92529   4.235  22.540  10.432
22649W        W92530  21.090  31.564   0.294
22650W        W92531  22.009  14.678  13.401
22651W        W92532   9.183  30.602   1.905
22652W        W92533   5.738  34.587  12.072
22653W        W92534  42.889   3.355   0.252
22654W        W92535   5.788  40.819   2.711
22655W        W92536   7.842  17.691  10.945
22656W        W92537  12.784  35.027   4.763
22657W        W92538   6.802  30.602   3.275
22658W        W92539  20.545  39.028  13.494
22659W        W92540  16.797  31.610   2.779
22660W        W92541  35.469  38.024  14.980
22661W        W92542   9.872  35.934   4.115
22662W        W92543   7.333   1.257  12.021
22663W        W92544  16.278   9.373  11.953
22664W        W92545  43.368   9.338   0.258
22665W        W92546  13.126  22.058  13.034
22666W        W92547  26.040  14.666   2.383
22667W        W92548   7.370  16.226   2.671
22668W        W92549  40.314  36.572  10.452
22669W        W92550  25.113  34.918   3.268
22670W        W92551   2.802  30.608   0.436
22671W        W92552   1.428  12.840  14.876
22672W        W92553  41.817  40.835  12.973
22673W        W92554  26.533   8.897  10.523
22674W        W92555  40.326  34.476  12.544
22675W        W92556  20.072  42.990   4.212
22676W        W92557   6.224  43.965   0.464
22677W        W92558  29.449  39.991  12.878
22678W        W92559  42.387  29.139  12.955
22679W        W92560  30.992  11.243   2.385
22680W        W92561   8.724  10.731   3.853
22681W        W92562   0.852  22.219   9.998
22682W        W92563  32.901  42.289  12.421
22683W        W92564   6.835  21.109   2.704
22684W        W92565  14.130  25.644  14.458
22685W        W92566  36.455  31.558  14.349
22686W        W92567  36.947  22.128   1.422
22687W        W92568  13.827  36.348   9.451
22688W        W92569   6.817  30.535  11.559
22689W        W92570  11.314  31.115  12.507
22690W        W92571  37.848  11.688   1.280
22691W        W92572  38.422  35.555  11.413
22692W        W92573  17.170  34.894   2.726
22693W        W92574  13.655  43.354  12.062
22694W        W92575   0.810  33.591  12.892
22695W        W92576  29.078  22.640  12.950
22696W        W92577  16.101  20.733   2.827
22697W        W92578  13.801  32.915  13.357
22698W        W92579   6.814   2.819  11.602
22699W        W92580  20.733  19.773  12.925
22700W        W92581  22.245  17.632  11.028
22701W        W92582  10.380  19.088   0.766
22702W        W92583  41.797  28.452  11.929
22703W        W92584  21.730  25.610   3.277
22704W        W92585  35.041  43.908   2.375
22705W        W92586  17.245  18.163   4.742
22706W        W92587  27.128  33.386   1.818
22707W        W92588  31.641  37.513   3.288
22708W        W92589  40.524  16.173  12.085
22709W        W92590  29.433  34.107  12.093
22710W        W92591  20.252  19.684  12.502
22711W        W92592  38.832  19.561   2.702
22712W        W92593   2.358  11.272   4.679
22713W        W92594   5.763   0.343   2.409
22714W        W92595  24.642   5.799   4.763
22715W        W92596  41.512   0.359  12.880
22716W        W92597   9.251   3.336   3.353
22717W        W92598  26.467  23.196   3.832
22718W        W92599  11.161  37.923   2.349
22719W        W92600  31.438  15.662  13.457
22720W        W92601  35.939  41.857   1.379
22721W        W92602  33.532  23.169  12.070
22722W        W92603  12.237   4.436   3.803
22723W        W92604  11.828  11.691   1.239
22724W        W92605  21.182  42.792   5.116
22725W        W92606  26.685  17.639  10.598
22726W        W92607  25.584  41.444   1.403
22727W        W92608  40.454  26.683   4.802
22728W        W92609   2.396  20.695   0.434
22729W        W92610  16.118   2.292   4.333
22730W        W92611  37.544  34.045   4.311
22731W        W92612   7.395  26.993  10.625
22732W        W92613  30.518  10.767  12.380
22733W        W92614  29.626  17.660  10.453
22734W        W92615  29.950  12.855  12.487
22735W        W92616  33.021  27.555  11.569
22736W        W92617  13.756   7.732   4.161
22737W        W92618  13.309  15.272   0.382
22738W        W92619  13.324  38.444  13.887
22739W        W92620  28.614  26.198   0.850
22740W        W92621  35.081  29.631  12.996
22741W        W92622  33.122  22.070   2.340
22742W        W92623  14.686   7.759  14.988
22743W        W92624  44.939  42.992   4.823
22744W        W92625  12.809  40.451   1.411
22745W        W92626   4.432   9.188   3.276
22746W        W92627  29.432  11.371  12.936
22747W        W92628  36.901   3.273   2.349
22748W        W92629   3.840  25.099  11.442
22749W        W92630  33.931   3.780  10.550
22750W        W92631   1.420  24.218   0.371
22751W        W92632  13.702  27.647  13.941
22752W        W92633  42.306  39.996   3.633
22753W        W92634  31.623  23.495  11.120
22754W        W92635   8.662  20.532   3.713
22755W        W92636   7.691  15.732   5.243
22756W        W92637  30.579  26.493  12.908
22757W        W92638  37.086  27.521  13.828
22758W        W92639  41.957  16.798   0.850
22759W        W92640  40.358  15.303  11.859
22760W        W92641  24.151   9.649  11.604
22761W        W92642  16.570  29.465  10.406
22762W        W92643  40.307  19.040   2.780
22763W        W92644   7.348  14.818  12.940
22764W        W92645  12.801  12.243  14.914
22765W        W92646  24.578  11.690  14.503
22766W        W92647  10.634   8.393  12.447
22767W        W92648  23.046  35.430  12.568
22768W        W92649  33.072  39.976  11.594
22769W        W92650  42.294  25.085   1.747
22770W        W92651  10.230  31.468  13.026
22771W        W92652  19.567  28.982  11.061
22772W        W92653  41.531   3.733  13.504
22773W        W92654   5.810  30.049   2.322
22774W        W92655  22.675  39.315  13.901
22775W        W92656   7.743  38.517  12.480
22776W        W92657   9.751  38.426   4.722
22777W        W92658  30.923   1.839  11.051
22778W        W92659  30.156  44.929  11.464
22779W        W92660  13.778  29.609  14.907
22780W        W92661  25.126   4.262  14.513
22781W        W92662  12.215  15.723  13.837
22782W        W92663  14.727   1.870   3.204
22783W        W92664   6.828  41.798   3.798
22784W        W92665  37.429  39.501  14.511
22785W        W92666   4.756  16.089  14.927
22786W        W92667  19.270   9.331   4.339
22787W        W92668  17.593  39.462   1.275
22788W        W92669  27.138  11.814   0.340
22789W        W92670  25.698  15.756   4.316
22790W        W92671  16.191  43.511  12.084
22791W        W92672  41.442  21.699   4.151
22792W        W92673  16.568   7.677   1.399
22793W        W92674   1.414   5.785  13.371
22794W        W92675  39.514  28.015   1.903
22795W        W92676  31.591   8.271   2.203
22796W        W92677  44.363   9.660  11.437
22797W        W92678  20.717  31.012   2.300
22798W        W92679  26.635   9.806  11.599
22799W        W92680   2.433   9.304   0.895
22800W        W92681  27.604   3.217   2.664
22801W        W92682  34.570  22.672   4.613
22802W        W92683  10.848   8.707   0.367
22803W        W92684  19.219  37.924   4.215
22804W        W92685  20.270   3.790   3.669
22805W        W92686  26.647  36.891   3.169
22806W        W92687  33.425   8.336   4.661
22807W        W92688   4.301  14.752   2.400
22808W        W92689  31.556  14.713  13.489
22809W        W92690   7.763  11.760  13.384
22810W        W92691  28.170  26.970   1.749
22811W        W92692  27.504  43.344   0.958
22812W        W92693   6.720  34.405   1.325
22813W        W92694   2.305  20.553  14.452
22814W        W92695  44.831  42.860   2.693
22815W        W92696  44.303  37.514   2.671
22816W        W92697   3.934  11.209   2.744
22817W        W92698  15.636  10.324  11.033
22818W        W92699  19.597  24.023  11.936
22819W        W92700  12.718  44.906  10.522
22820W        W92701  38.422  23.494   3.216
22821W        W92702  13.699  14.722   2.404
22822W        W92703   4.411  21.523   4.830
22823W        W92704  24.614  17.678   0.798
22824W        W92705  34.612  24.160  12.444
22825W        W92706  36.379  39.503   1.290
22826W        W92707  24.558  21.139  14.920
22827W        W92708  24.540  28.128   0.761
22828W        W92709   2.308  35.515   3.636
22829W        W92710  39.857   0.933   1.253
22830W        W92711  10.186  35.106   4.807
22831W        W92712  15.243  44.806  13.830
22832W        W92713  21.580  38.963  11.542
22833W        W92714   1.433  39.869   2.815
22834W        W92715  40.369   5.754  10.491
22835W        W92716  22.174  35.051   2.310
22836W        W92717  14.121  28.934  14.479
22837W        W92718   6.791  19.147   2.242
22838W        W92719  10.707  12.846  10.567
22839W        W92720  11.867   0.320  13.367
22840W        W92721  24.082  29.120  11.039
22841W        W92722  32.634  34.922   0.743
22842W        W92723  41.307  19.180   0.922
22843W        W92724  11.351  14.617   3.759
22844W        W92725  23.707  38.343   2.217
22845W        W92726  42.335  23.087   0.753
22846W        W92727   1.833  31.431   0.870
22847W        W92728  30.413  34.979  11.394
22848W        W92729  16.216  40.427   3.353
22849W        W92730  30.139  21.737   4.709
22850W        W92731  32.938  34.595  14.912
22851W        W92732  37.934   1.318   4.323
22852W        W92733  13.723  19.574   0.766
22853W        W92734  16.179   6.821   0.867
22854W        W92735  32.492  14.197  13.826
22855W        W92736   2.915  35.877  11.448
22856W        W92737  23.691  42.522  11.917
22857W        W92738   6.880  18.639  10.458
22858W        W92739  32.939  36.882  14.908
22859W        W92740   6.782  17.289   1.392
22860W        W92741   8.233  24.187   0.820
22861W        W92742  43.923  29.583  10.504
22862W        W92743  16.201  36.452  12.537
22863W        W92744   9.832  26.505  10.573
22864W        W92745  14.721   9.362  14.381
22865W        W92746   4.852   4.808  13.910
22866W        W92747   1.973  13.244   3.355
22867W        W92748  28.118  24.498   2.859
22868W        W92749  24.168  38.356  11.479
22869W        W92750  42.356  28.526   1.432
22870W        W92751  32.004   9.673   2.793
22871W        W92752  35.568  17.066  14.906
22872W        W92753  30.029   4.264   2.729
22873W        W92754  13.286  20.611  13.320
22874W        W92755   3.393   5.895   9.935
22875W        W92756  20.067  34.525   2.383
22876W        W92757  24.561   8.899  13.417
22877W        W92758  26.578  41.370  11.090
22878W        W92759  38.911  37.927   4.249
22879W        W92760  24.648  11.147   0.758
22880W        W92761  35.870   3.726  11.536
22881W        W92762   0.479  18.719  12.492
22882W        W92763   9.271  23.574  11.093
22883W        W92764  14.791  18.272   2.355
22884W        W92765   2.365  12.198  13.933
22885W        W92766  13.230  11.323  12.037
22886W        W92767  30.445   3.794   0.738
22887W        W92768  44.496  10.821   4.313
22888W        W92769  37.564   4.914   3.747
22889W        W92770  15.720  29.090  13.454
22890W        W92771  37.064  44.434   4.829
22891W        W92772  44.792  44.502   3.744
22892W        W92773   6.702  29.156   4.770
22893W        W92774   0.773  40.888  12.363
22894W        W92775  37.453  39.922   3.643
22895W        W92776   8.195  38.531  13.985
22896W        W92777  35.994  34.954   2.239
22897W        W92778  16.726  23.002  10.579
22898W        W92779  44.947  33.961  12.460
22899W        W92780  41.953  13.340   0.746
22900W        W92781  39.845  17.177   1.385
22901W        W92782  42.474  24.039   2.845
22902W        W92783  41.016  28.084   0.259
22903W        W92784  18.687  12.706   1.303
22904W        W92785  29.484   3.740  12.071
22905W        W92786   0.315  11.628  11.609
22906W        W92787  36.096   8.237   2.776
22907W        W92788  44.882   9.746  10.956
22908W        W92789   8.725   5.876   4.117
22909W        W92790   9.811   8.746   0.965
22910W        W92791  30.022  36.488   2.308
22911W        W92792  42.985  32.538  14.803
22912W        W92793  15.181  14.149   0.278
22913W        W92794  21.129  34.956   2.772
22914W        W92795  39.355  21.577  10.452
22915W        W92796  23.037   8.364  12.973
22916W        W92797  34.108  39.560   4.607
22917W        W92798  14.756   4.714  12.041
22918W        W92799  28.031  37.549   3.764
22919W        W92800  22.067  15.120  11.925
22920W        W92801   1.321  24.627  13.818
22921W        W92802   7.215  39.022   2.764
22922W        W92803   4.711  10.143  12.863
22923W        W92804   0.445   6.876  10.516
22924W        W92805  18.790   1.889   3.825
22925W        W92806  26.955  34.990  13.827
22926W        W92807  35.380  16.591   2.808
22927W        W92808  42.904   8.662  10.433
22928W        W92809  44.449   3.839  12.362
22929W        W92810  17.708  21.161  12.386
22930W        W92811   0.837  40.042   4.774
22931W        W92812  24.559  19.700  11.388
22932W        W92813  22.562  39.533   0.880
22933W        W92814  28.046  38.067   4.675
22934W        W92815  35.510  17.573   2.854
22935W        W92816  10.693   3.246   2.710
22936W        W92817  31.616  25.053  13.990
22937W        W92818   1.809   2.399   4.170
22938W        W92819  33.016  10.260  14.902
22939W        W92820  22.612  17.762   1.762
22940W        W92821  42.498   5.733   0.761
22941W        W92822  43.835  19.737   1.853
22942W        W92823  14.196  21.575  12.532
22943W        W92824   3.280   2.384   5.288
22944W        W92825  16.707   0.768   0.735
22945W        W92826  37.901   8.795  13.804
22946W        W92827  20.663  28.441  12.080
22947W        W92828   9.825  40.839  13.461
22948W        W92829   5.335   6.415   2.864
22949W        W92830  33.985   8.797   0.245
22950W        W92831  19.571  14.234  10.487
22951W        W92832  32.557  26.605   0.377
22952W        W92833   4.344  30.517   2.882
22953W        W92834  27.130  10.741  14.988
22954W        W92835  19.755  30.113  11.085
22955W        W92836  10.150  35.473  14.790
22956W        W92837  26.616  32.527  10.423
22957W        W92838  32.966  12.343  11.874
22958W        W92839  25.996  29.492   0.358
22959W        W92840  23.586  32.999   0.898
22960W        W92841  25.639  37.916  12.948
22961W        W92842   0.920  15.743   2.280
22962W        W92843  41.801  28.032  14.844
22963W        W92844  43.845   8.337  13.964
22964W        W92845  34.382  41.305   4.722
22965W        W92846   5.293  11.209  13.791
22966W        W92847  20.137  30.641   1.301
22967W        W92848   0.343  35.506   4.796
22968W        W92849  33.945   0.418   0.277
22969W        W92850  41.949  40.029   3.293
22970W        W92851  38.961  29.431  13.493
22971W        W92852  33.094  33.429   3.869
22972W        W92853  31.124   7.745   3.286
22973W        W92854  39.534  12.801  10.528
22974W        W92855  11.712  39.541   4.647
22975W        W92856  28.141  40.403   2.361
22976W        W92857  20.155   4.926   0.816
22977W        W92858   2.937  34.949  12.489
22978W        W92859  43.297   1.948  12.413
22979W        W92860  28.168  35.920  13.012
22980W        W92861  13.126  35.860   0.282
22981W        W92862  43.426  37.528   3.276
22982W        W92863  16.659  24.500   2.719
22983W        W92864  17.213   7.303   3.707
22984W        W92865  28.667   5.202   4.796
22985W        W92866   8.771  19.173  13.037
22986W        W92867  10.241   8.391   3.687
22987W        W92868  30.909  32.630  14.862
22988W        W92869  11.162  28.148   1.817
22989W        W92870  12.746  37.498   3.177
22990W        W92871  28.016  34.004   3.195
22991W        W92872  12.710  40.363   2.184
22992W        W92873  19.047   3.771   0.398
22993W        W92874  15.764  18.251  13.976
22994W        W92875   9.809  37.522   2.208
22995W        W92876  35.602  30.547  12.908
22996W        W92877  38.349  27.108   0.896
22997W        W92878  11.146  34.556  14.287
22998W        W92879  32.499  42.452  12.546
22999W        W92880  27.049  23.130  11.049
23000W        W92881  10.212   0.270   2.895
23001W        W92882  40.814  25.561   1.283
23002W        W92883  11.244   2.245  12.362
23003W        W92884  34.591  32.092  10.440
23004W        W92885  29.583  36.352  13.466
23005W        W92886   5.409  44.956  11.575
23006W        W92887   8.205   4.397   3.302
23007W        W92888  29.471   9.780  10.484
23008W        W92889  32.992  12.121  10.940
23009W        W92890  16.627   5.234  13.499
23010W        W92891  14.216  37.984   9.966
23011W        W92892  42.911  42.840  12.982
23012W        W92893   3.790  17.157  14.775
23013W        W92894  35.020   7.372   3.713
23014W        W92895  41.425   1.439   4.168
23015W        W92896  10.833  32.935  13.828
23016W        W92897   1.406  33.081  10.950
23017W        W92898  25.530  29.080  11.913
23018W        W92899  14.605  25.166  12.511
23019W        W92900  27.170  35.552   2.348
23020W        W92901  41.877  34.018  13.974
23021W        W92902  26.085  15.187   0.334
23022W        W92903  18.700   8.872  12.993
23023W        W92904  11.725  12.849   1.815
23024W        W92905   1.821  38.822  11.474
23025W        W92906  36.937  41.013   4.304
23026W        W92907  37.389  18.563   1.712
23027W        W92908  44.995  39.840  14.780
23028W        W92909  32.890   0.441   1.248
23029W        W92910  24.671  29.624   2.717
23030W        W92911  30.138  32.421  11.429
23031W        W92912  31.987  14.792  11.411
23032W        W92913  18.653  17.228  11.954
23033W        W92914   3.244   1.298   3.335
23034W        W92915  37.544   8.682   0.729
23035W        W92916  25.559  21.093   1.883
23036W        W92917  36.547   2.807   3.301
23037W        W92918  44.891  43.767  13.484
23038W        W92919  33.981  35.376   2.223
23039W        W92920  44.264  40.863  13.823
23040W        W92921  41.868  19.275  13.489
23041W        W92922   3.414  25.555   5.263
23042W        W92923  14.835  10.812   1.887
23043W        W92924  12.262  26.635  11.899
23044W        W92925   6.320  10.276  10.961
23045W        W92926  27.472  40.494   0.948
23046W        W92927  13.206  28.021   4.729
23047W        W92928  24.158  42.424  12.032
23048W        W92929  18.155   4.858   3.866
23049W        W92930   2.807   3.316   1.341
23050W        W92931   1.417   3.371  10.577
23051W        W92932  25.975  38.914   3.834
23052W        W92933   2.769  41.489  14.986
23053W        W92934  36.564  44.895   2.315
23054W        W92935  24.003  25.975  10.950
23055W        W92936  38.437  24.571   1.444
23056W        W92937  42.867  11.251   4.216
23057W        W92938   0.357  31.128  11.954
23058W        W92939  15.144   5.193  12.414
23059W        W92940  44.390  29.668  13.438
23060W        W92941  40.303  30.957  14.876
23061W        W92942  23.109  34.369  14.782
23062W        W92943  25.048  32.447   2.304
23063W        W92944  24.012  20.716   1.848
23064W        W92945  29.475  32.471   0.439
23065W        W92946  29.919  31.637  14.026
23066W        W92947  10.373  12.355   0.879
23067W        W92948  14.700  40.878  12.937
23068W        W92949  33.395  20.148   2.699
23069W        W92950  23.681  20.229   2.666
23070W        W92951  16.791  10.774   1.240
23071W        W92952   9.772  43.276   1.279
23072W        W92953   2.755   9.345  14.383
23073W        W92954  12.628  20.706  13.315
23074W        W92955  34.100  16.670   1.880
23075W        W92956  35.529  34.612  11.606
23076W        W92957  20.728  29.597  11.598
23077W        W92958  21.250  21.209   0.895
23078W        W92959  39.037  33.018  12.005
23079W        W92960   4.239  27.633   3.729
23080W        W92961  43.429  14.306   2.215
23081W        W92962  14.321  36.412  10.949
23082W        W92963  20.735  22.508  13.314
23083W        W92964   0.975  33.505   0.748
23084W        W92965  36.349  19.260   2.813
23085W        W92966  35.897  29.597   3.709
23086W        W92967  21.567   8.384   4.182
23087W        W92968  16.234   0.417  11.552
23088W        W92969   7.356  14.181   2.361
23089W        W92970  11.322   8.710   4.146
23090W        W92971  15.725  26.044   2.812
23091W        W92972  32.484  39.878   4.131
23092W        W92973  35.100  37.478  11.543
23093W        W92974  13.247   7.801  11.020
23094W        W92975   5.769  42.337  11.862
23095W        W92976  38.880  20.045  10.891
23096W        W92977  31.486   3.877   3.730
23097W        W92978  18.242  17.707  12.352
23098W        W92979  38.821  35.032   3.668
23099W        W92980  12.128  39.362   3.739
23100W        W92981  31.586  19.112   1.734
23101W        W92982  25.679  29.133   4.623
23102W        W92983  16.642  23.551  12.503
23103W        W92984  10.659  20.620   4.300
23104W        W92985  36.371   1.924   3.867
23105W        W92986  39.467  10.376  14.343
23106W        W92987  42.311   8.891  10.912
23107W        W92988  10.829  39.411   4.314
23108W        W92989  28.573  33.441  13.391
23109W        W92990   4.791   7.909  13.915
23110W        W92991   2.881  31.480  10.584
23111W        W92992  42.496  37.548   1.301
23112W        W92993  21.205  17.093  14.841
23113W        W92994  34.436  19.110  11.062
23114W        W92995  41.329  34.893   4.827
23115W        W92996  11.676  41.941   5.292
23116W        W92997  22.735   7.742   0.335
23117W        W92998  15.181   3.373   1.770
23118W        W92999  12.262  44.407   3.316
23119W        W93000  16.166  10.738   3.830
23120W        W93001  20.149  29.542  13.876
23121W        W93002   8.881  21.635   0.250
23122W        W93003   5.223  31.514   3.723
23123W        W93004  28.002  43.429  11.914
23124W        W93005   6.262  13.803  11.470
23125W        W93006  15.794  16.162  12.506
23126W        W93007  33.922  39.840   3.163
23127W        W93008  28.650   2.786   0.873
23128W        W93009  20.033  22.585  13.888
23129W        W93010  26.086  31.125   2.793
23130W        W93011   0.906  34.482   1.929
23131W        W93012  44.423  28.048   0.863
23132W        W93013   6.689  27.093  12.576
23133W        W93014  16.758   1.783  11.863
23134W        W93015  26.012  42.883  14.939
23135W        W93016  33.906  25.971   0.260
23136W        W93017  33.891  31.911  10.608
23137W        W93018  40.450  21.720  13.473
23138W        W93019   4.373  33.588   4.793
23139W        W93020  21.520  20.678  11.108
23140W        W93021  15.184  15.307   2.221
23141W        W93022  19.748  23.128   2.746
23142W        W93023   9.790  36.021  12.078
23143W        W93024  14.822  41.803  12.005
23144W        W93025  21.049   7.898   1.833
23145W        W93026  27.595   3.949  13.311
23146W        W93027  11.709  33.442  13.834
23147W        W93028  17.102  23.163  12.565
23148W        W93029  13.728   7.277   3.355
23149W        W93030  27.016  15.161   4.306
23150W        W93031   3.902  15.807   0.767
23151W        W93032  13.725  26.538   3.152
23152W        W93033  29.559  40.427  13.996
23153W        W93034  34.458  29.925   0.460
23154W        W93035  17.649   2.460  12.534
23155W        W93036  11.799  42.929  12.831
23156W        W93037  14.108   2.804  12.064
23157W        W93038  21.032  23.543   4.654
23158W        W93039  32.106  24.599   1.341
23159W        W93040   7.846  25.151   2.695
23160W        W93041  11.758  15.750   5.217
23161W        W93042  19.073  29.937   3.715
23162W        W93043   6.867   3.398  12.407
23163W        W93044  38.352  41.821   3.786
23164W        W93045   4.434  13.759  10.902
23165W        W93046  43.471   7.378   0.772
23166W        W93047  16.191  21.045   4.667
23167W        W93048  40.023  30.928   2.334
23168W        W93049  17.694  14.286   4.749
23169W        W93050  37.994   4.806  10.068
23170W        W93051  35.863  43.944   3.688
23171W        W93052  39.906  28.613   4.152
23172W        W93053   4.799   4.439   3.261
23173W        W93054  11.649  35.484   2.816
23174W        W93055  38.882  31.952   0.779
23175W        W93056  29.092  22.635   2.328
23176W        W93057   7.193  14.625   0.822
23177W        W93058  33.011  31.622  12.454
23178W        W93059  38.435   5.356  12.860
23179W        W93060  18.641  27.671   2.395
23180W        W93061   4.256  22.027   2.382
23181W        W93062  11.825  24.043  11.583
23182W        W93063  31.458  35.873   2.180
23183W        W93064  28.963  34.597   3.659
23184W        W93065  29.160  12.266  10.951
23185W        W93066  42.348  29.105  13.524
23186W        W93067  16.171  19.222   0.456
23187W        W93068  28.668  37.053  12.915
23188W        W93069   0.260  25.001  14.823
23189W        W93070  23.099  44.303   2.712
23190W        W93071  22.598  37.085  12.525
23191W        W93072  35.360  23.149   3.370
23192W        W93073  38.870  17.151   3.190
23193W        W93074  19.567  28.094   1.407
23194W        W93075   6.381  36.476  14.899
23195W        W93076  20.265  11.866  13.924
23196W        W93077  12.637   1.404  12.027
23197W        W93078  38.013   3.857   1.254
23198W        W93079  22.099  22.033   3.818
23199W        W93080   9.742   3.793   0.295
23200W        W93081   3.352  39.421   1.285
23201W        W93082  33.566  33.606   2.181
23202W        W93083  21.044   7.822  10.455
23203W        W93084  34.110  32.077  12.992
23204W        W93085   7.366  44.859  12.056
23205W        W93086  14.157  28.639  13.533
23206W        W93087  14.761   0.968  13.911
23207W        W93088  18.274  36.944  11.436
23208W        W93089   2.900  37.488   0.732
23209W        W93090  15.734  16.673   9.944
23210W        W93091  12.849  10.865  10.593
23211W        W93092  41.293  36.443   4.338
23212W        W93093  35.854  13.289  11.916
23213W        W93094   7.684  34.903   4.636
23214W        W93095  38.543   5.378  12.417
23215W        W93096  33.616  10.179   2.287
23216W        W93097   1.329   6.676   2.350
23217W        W93098  30.946  17.627  12.061
23218W        W93099  29.510  29.588  11.976
23219W        W93100   0.752  41.376  14.430
23220W        W93101  20.210  36.429   1.321
23221W        W93102  24.577  31.611  14.395
23222W        W93103   1.850  29.067  12.343
23223W        W93104  17.711  23.673  11.881
23224W        W93105  40.960  20.101   4.139
23225W        W93106  32.591   1.247  12.920
23226W        W93107  23.576  26.957   0.960
23227W        W93108  14.196  43.959   0.273
23228W        W93109  37.945  44.411  13.996
23229W        W93110   9.706   0.943  12.500
23230W        W93111  10.682  33.031   0.430
23231W        W93112  35.886   0.848   3.312
23232W        W93113   1.256   6.405   4.686
23233W        W93114  19.682  15.776  14.456
23234W        W93115  30.433  26.020   1.356
23235W        W93116  24.051  44.460  11.906
23236W        W93117  29.030   0.980   3.790
23237W        W93118  22.049  32.598  13.397
23238W        W93119   0.316   5.321  11.587
23239W        W93120   9.656   8.160  11.933
23240W        W93121  36.080  43.412  13.800
23241W        W93122  14.721  15.165   4.209
23242W        W93123   2.829  15.634  14.441
23243W        W93124  26.035   1.738  12.366
23244W        W93125  18.631   5.310  10.465
23245W        W93126  40.920   9.258   0.751
23246W        W93127   2.909  39.391   2.759
23247W        W93128  11.715  34.503  12.842
23248W        W93129  21.097  34.878   4.627
23249W        W93130  16.617  15.194  10.994
23250W        W93131  32.967   8.268   3.790
23251W        W93132   2.906  31.005  12.366
23252W        W93133  29.998  16.722  11.888
23253W        W93134  34.957  19.212   0.959
23254W        W93135  25.091  26.626  11.386
23255W        W93136   2.755  25.574   4.227
23256W        W93137  33.105  35.603  14.896
23257W        W93138   4.301  35.365  13.411
23258W        W93139   3.749  12.277   1.934
23259W        W93140   0.881  18.641  14.771
23260W        W93141  31.536  22.045   0.391
23261W        W93142  31.562  44.425  13.429
23262W        W93143  11.150   9.156  12.372
23263W        W93144  35.416  42.826  11.611
23264W        W93145  33.559  13.700  11.924
23265W        W93146  10.648  33.068   3.204
23266W        W93147  27.998  38.472   0.262
23267W        W93148  25.102  32.472  12.905
23268W        W93149  40.460   5.361   3.784
23269W        W93150  34.966  20.714  13.519
23270W        W93151  12.621  38.937  14.274
23271W        W93152  43.404  22.550   0.337
23272W        W93153  42.988  19.268  13.955
23273W        W93154   9.851  33.985  10.518
23274W        W93155   4.799   7.253  13.881
23275W        W93156  29.931   4.911  10.893
23276W        W93157  19.641  20.609   2.183
23277W        W93158  20.165  10.239   3.838
23278W        W93159  10.825  39.049   1.738
23279W        W93160  25.005  20.150  14.871
23280W        W93161  24.002  44.453  11.119
23281W        W93162  22.076  20.532   0.249
23282W        W93163  13.215  13.844  12.922
23283W        W93164  36.047   0.268   1.916
23284W        W93165  27.941  35.006   1.259
23285W        W93166   5.871  20.752  13.868
23286W        W93167  16.129   4.328   1.289
23287W        W93168   2.351  10.779   3.308
23288W        W93169  11.233  16.233   1.854
23289W        W93170  20.724  23.157  13.511
23290W        W93171  33.068  19.124   1.308
23291W        W93172   4.766  27.461  10.951
23292W        W93173  32.062   3.323   4.269
23293W        W93174   1.760  27.083   3.332
23294W        W93175   2.721  40.915   2.773
23295W        W93176  26.534  26.118  13.308
23296W        W93177  25.196  42.013   3.173
23297W        W93178   0.480  37.909   4.750
23298W        W93179   9.657  37.021   4.610
23299W        W93180   2.278  42.522  11.461
23300W        W93181   8.699  31.933   0.483
23301W        W93182  22.218   2.837   2.188
23302W        W93183  39.340  28.468   1.384
23303W        W93184  41.924   8.692   4.750
23304W        W93185  44.864  32.401   1.882
23305W        W93186  29.155   5.302   0.772
23306W        W93187  27.459  11.166  14.906
23307W        W93188  44.906  15.259   0.878
23308W        W93189   9.363  14.807   1.280
23309W        W93190  12.637   0.836  14.938
23310W        W93191  28.064  41.913   2.699
23311W        W93192  25.601   5.348   2.717
23312W        W93193  20.633  34.610   3.771
23313W        W93194  35.974   6.708  11.560
23314W        W93195   6.898  32.042   3.374
23315W        W93196  12.789  16.753   4.319
23316W        W93197   2.926  34.933   0.316
23317W        W93198  32.969  34.013   0.874
23318W        W93199  41.896  23.630  12.079
23319W        W93200  27.195  12.124  14.280
23320W        W93201  24.626  27.005  13.506
23321W        W93202  40.865  13.253  11.474
23322W        W93203  14.167  20.078   0.894
23323W        W93204   6.346  26.101   3.271
23324W        W93205  42.346  44.925  12.039
23325W        W93206  36.934  18.558   1.222
23326W        W93207  10.725  24.172   4.719
23327W        W93208  40.917  39.356  14.472
23328W        W93209  36.066  32.630  12.547
23329W        W93210  19.643   4.833  11.582
23330W        W93211  37.991  24.494  11.116
23331W        W93212  29.471  24.593  10.586
23332W        W93213   4.288  32.398   0.932
23333W        W93214  35.905   1.934   4.195
23334W        W93215   3.878  17.800  14.459
23335W        W93216  12.843  37.931  10.447
23336W        W93217  19.662  44.994  12.341
23337W        W93218   6.346  32.566   0.328
23338W        W93219  17.663  23.555   4.731
23339W        W93220  36.482  33.913  14.874
23340W        W93221  21.714  30.638  10.987
23341W        W93222  10.285  26.475  11.035
23342W        W93223  39.007  33.442   0.294
23343W        W93224   9.701  30.413  12.567
23344W        W93225  30.456   4.404   2.247
23345W        W93226  28.038   0.966   1.431
23346W        W93227  37.070  11.138   3.846
23347W        W93228   4.916  11.731   4.640
23348W        W93229   8.382   7.301   1.867
23349W        W93230  21.065   4.790   2.326
23350W        W93231   9.705   2.898   2.763
23351W        W93232  35.400  16.655  11.016
23352W        W93233  31.533   5.859   0.745
23353W        W93234  38.948  10.276   4.644
23354W        W93235  37.920  27.685   2.354
23355W        W93236  37.910   2.344  11.128
23356W        W93237  40.480  21.642   3.757
23357W        W93238  24.663   5.926   3.709
23358W        W93239  38.439  10.646   0.939
23359W        W93240   5.226  25.483   4.679
23360W        W93241  42.455  10.335  14.361
23361W        W93242   8.294  23.127   3.641
23362W        W93243  36.864  12.270  10.994
23363W        W93244  14.741  13.249  12.942
23364W        W93245   1.796  19.081   2.682
23365W        W93246  37.496  28.186   2.283
23366W        W93247  18.098  34.949   1.291
23367W        W93248  21.694  14.295   4.699
23368W        W93249  21.719  42.460  14.842
23369W        W93250  16.640  30.476  14.920
23370W        W93251  29.089   9.294   1.820
23371W        W93252  19.597   4.942   0.887
23372W        W93253  10.241   0.425   3.164
23373W        W93254  17.298  34.074  10.474
23374W        W93255  34.079  21.131   1.902
23375W        W93256  42.963  10.708  10.574
23376W        W93257  42.804  27.578  10.052
23377W        W93258  31.997   1.385  10.445
23378W        W93259  18.673  24.568   1.917
23379W        W93260  39.384  19.653   2.216
23380W        W93261   6.753  31.553   1.213
23381W        W93262  39.918  31.486  11.521
23382W        W93263  40.312   2.381   2.294
23383W        W93264  41.009  31.983   0.826
23384W        W93265  43.396  10.330  13.938
23385W        W93266  29.522  18.127  12.340
23386W        W93267  35.572   3.382  14.309
23387W        W93268  13.802  35.092   1.284
23388W        W93269  35.371  21.130   0.760
23389W        W93270  10.266  36.376  10.968
23390W        W93271  43.853  29.965   3.169
23391W        W93272   5.334   7.177   3.212
23392W        W93273  32.522  24.571  12.522
23393W        W93274  36.540   1.328   0.764
23394W        W93275  27.558   5.324   3.753
23395W        W93276   0.836   0.262   1.756
23396W        W93277   0.961  44.834   2.857
23397W        W93278  36.972  15.810   1.365
23398W        W93279  10.866  20.119   3.206
23399W        W93280   2.258   0.751   0.966
23400W        W93281  29.555  15.763   1.211
23401W        W93282  24.666  37.568  13.367
23402W        W93283  10.356  43.364  12.903
23403W        W93284  13.305  31.075   5.163
23404W        W93285  39.461   0.938   3.812
23405W        W93286   3.340   7.333   3.304
23406W        W93287  38.877  39.033   1.377
23407W        W93288  25.171  13.159   4.661
23408W        W93289   8.401   0.477  12.395
23409W        W93290  22.557  27.470  13.348
23410W        W93291  20.689  25.177  14.955
23411W        W93292  40.048  21.097  14.774
23412W        W93293  40.454  11.181   2.714
23413W        W93294   5.779  14.195   2.826
23414W        W93295   3.252   9.770  10.634
23415W        W93296   1.396  33.589   3.376
23416W        W93297   1.262  40.425   1.449
23417W        W93298  22.536  36.471   4.737
23418W        W93299   2.812   8.177   2.832
23419W        W93300  37.368   2.449  10.553
23420W        W93301   4.858  23.713   1.302
23421W        W93302  42.318  42.420  11.537
23422W        W93303  10.321  23.535  11.078
23423W        W93304  29.535   9.205   2.349
23424W        W93305  14.171  31.632   3.378
23425W        W93306  23.630  36.921  14.015
23426W        W93307  24.167  37.513   2.350
23427W        W93308  18.702  30.077  13.310
23428W        W93309  38.398  13.225   3.851
23429W        W93310  39.853  31.002   4.293
23430W        W93311  14.741  33.595   9.982
23431W        W93312   3.330   4.312   2.271
23432W        W93313   3.427  44.336   1.314
23433W        W93314  37.031  26.043   0.363
23434W        W93315  44.780  38.403   4.787
23435W        W93316   5.300  40.005   1.850
23436W        W93317  23.997  30.557   5.290
23437W        W93318  11.779  35.583  14.995
23438W        W93319  38.448   6.206   3.833
23439W        W93320  10.157  32.968  12.547
23440W        W93321  42.869  16.165  10.611
23441W        W93322  21.238   6.309   1.347
23442W        W93323   9.392   3.234   4.153
23443W        W93324  21.569  43.907   2.411
23444W        W93325  20.234  17.115   0.896
23445W        W93326  41.376  14.690  13.957
23446W        W93327  31.619  34.056  10.928
23447W        W93328  43.329  17.669   4.231
23448W        W93329  35.397  21.103   0.444
23449W        W93330  30.962  37.996  11.899
23450W        W93331  37.903   3.893   2.363
23451W        W93332   2.916  25.572   2.730
23452W        W93333  27.980  20.538  10.057
23453W        W93334  11.329  40.956  10.888
23454W        W93335  14.280  43.502   1.340
23455W        W93336  20.659  36.962  12.879
23456W        W93337  19.124   2.755   0.853
23457W        W93338   2.374  35.396   2.277
23458W        W93339  11.698  28.979  10.055
23459W        W93340  29.499   3.454   4.658
23460W        W93341  41.039  29.105   0.750
23461W        W93342  37.566  33.497   5.261
23462W        W93343  24.653  22.105  11.009
23463W        W93344  11.705   6.424  13.972
23464W        W93345  25.977  13.272   3.225
23465W        W93346  34.407  21.216  12.473
23466W        W93347  20.106  38.408  11.901
23467W        W93348  20.172  23.036  14.302
23468W        W93349   1.848  14.705  10.605
23469W        W93350  32.907  39.018   0.306
23470W        W93351  12.309  38.363  14.429
23471W        W93352   8.324   3.358  10.448
23472W        W93353  15.618  44.786   4.305
23473W        W93354  15.185  31.007   4.677
23474W        W93355   2.762   8.294   4.785
23475W        W93356   0.371  11.302  11.870
23476W        W93357  36.070  33.966   0.366
23477W        W93358  15.603  16.151   4.830
23478W        W93359  18.736  16.750   1.378
23479W        W93360   4.861  13.649  12.516
23480W        W93361  44.468  20.133   1.727
23481W        W93362   4.357  44.973   3.279
23482W        W93363   8.379  28.947  11.076
23483W        W93364  38.934  24.099  14.788
23484W        W93365  20.142  36.506  14.863
23485W        W93366   1.975   6.792  12.522
23486W        W93367   1.406  11.717   0.317
23487W        W93368  21.646  42.487  11.552
23488W        W93369   7.740  26.067  11.017
23489W        W93370   5.205  40.441  11.583
23490W        W93371   2.373  26.968   2.892
23491W        W93372  37.001  20.099  13.389
23492W        W93373   2.307  12.208   1.250
23493W        W93374  11.630   5.414   1.231
23494W        W93375  33.498  10.225  10.501
23495W        W93376  18.252  43.372   2.774
23496W        W93377  29.067  43.502  11.445
23497W        W93378   9.241  24.986   2.820
23498W        W93379  27.960  14.261  13.995
23499W        W93380  23.585  18.292  10.448
23500W        W93381   1.731  34.582   2.707
23501W        W93382  19.149  17.800   2.298
23502W        W93383   9.795  26.139   4.163
23503W        W93384  36.981  28.123  10.983
23504W        W93385  41.972  15.683  14.408
23505W        W93386  40.432   5.365   4.266
23506W        W93387  44.864  30.527  13.505
23507W        W93388  42.979  34.076   1.319
23508W        W93389  36.068  18.553   4.204
23509W        W93390  27.585  40.851   0.379
23510W        W93391  11.355  15.255   0.439
23511W        W93392  38.959  33.087   1.386
23512W        W93393  38.405  43.432  13.420
23513W        W93394  31.541  15.813  11.488
23514W        W93395   0.839  17.136   3.217
23515W        W93396  34.521  17.699  11.991
23516W        W93397  42.949  36.857   2.215
23517W        W93398  33.584  36.952  11.886
23518W        W93399   5.361  13.219  14.978
23519W        W93400  32.117  29.489   0.890
23520W        W93401  38.932  34.453  12.990
23521W        W93402  13.712   3.286   4.162
23522W        W93403  43.340  11.653   1.789
23523W        W93404  39.523  24.577   0.265
23524W        W93405  39.322  12.699   2.800
23525W        W93406  17.648  32.959  12.403
23526W        W93407  35.057  32.126  12.884
23527W        W93408   0.787   4.443   3.629
23528W        W93409  32.092  23.531  14.766
23529W        W93410  44.923   6.251  10.532
23530W        W93411  16.656  23.177  13.483
23531W        W93412  34.487   4.301   0.367
23532W        W93413   7.410  24.681  13.317
23533W        W93414  34.478   8.274  14.916
23534W        W93415  19.537  35.978   4.239
23535W        W93416   3.308   3.737  12.883
23536W        W93417  19.102   3.919   3.344
23537W        W93418  25.968  38.057  10.968
23538W        W93419  13.784  44.430  13.443
23539W        W93420   4.334  35.512   2.894
23540W        W93421  13.206   5.370  11.556
23541W        W93422  10.361  40.972  11.437
23542W        W93423   1.811  29.037  13.431
23543W        W93424  35.500  36.881  10.463
23544W        W93425  34.913   9.151   1.898
23545W        W93426   3.795  28.983   4.328
23546W        W93427  36.525  29.145  13.019
23547W        W93428   5.918  33.086   3.678
23548W        W93429  39.421  23.200  11.084
23549W        W93430  20.592   9.370  13.524
23550W        W93431   5.427  14.191   0.799
23551W        W93432  23.643  16.694   0.744
23552W        W93433  14.709  19.254   3.146
23553W        W93434   4.928   9.886   4.716
23554W        W93435  21.745  34.588  12.468
23555W        W93436  26.492  39.915   3.644
23556W        W93437  29.496  38.517  14.816
23557W        W93438  33.098   7.796   3.192
23558W        W93439  25.699  19.092  11.478
23559W        W93440  10.813   5.262  13.321
23560W        W93441  38.459  32.436   1.264
23561W        W93442  30.153   8.776   0.273
23562W        W93443   8.256  20.077   0.472
23563W        W93444  40.852  43.441  13.347
23564W        W93445  36.558  25.194  10.616
23565W        W93446  33.549  20.235   0.440
23566W        W93447  35.383  34.414   0.801
23567W        W93448  10.198  36.959   4.817
23568W        W93449  26.633  12.201  14.833
23569W        W93450  41.941  30.578   4.641
23570W        W93451  24.617  27.640   3.149
23571W        W93452  31.526  27.102  10.515
23572W        W93453  29.539  43.939  13.522
23573W        W93454  29.586  37.073   1.272
23574W        W93455   4.933  41.472  14.462
23575W        W93456   8.252  34.058  14.029
23576W        W93457  16.131  34.407  11.611
23577W        W93458  14.760  37.576   1.912
23578W        W93459  17.139  27.550   0.437
23579W        W93460  44.301  26.980  12.830
23580W        W93461   7.342  40.856  11.998
23581W        W93462  22.054  44.885  11.011
23582W        W93463  24.068  20.195   2.269
23583W        W93464  14.196  11.292   4.768
23584W        W93465  42.966  11.835  14.390
23585W        W93466  11.779  40.544   3.727
23586W        W93467  33.504  26.080   3.758
23587W        W93468  37.537   5.272  13.477
23588W        W93469  29.156  43.831   4.759
23589W        W93470  24.500  20.267  13.512
23590W        W93471  29.547   4.334   1.828
23591W        W93472   7.755   9.227  12.464
23592W        W93473  30.150  22.142   4.341
23593W        W93474   6.184  42.454  14.296
23594W        W93475  43.516  42.031   3.257
23595W        W93476   7.841  35.853  11.066
23596W        W93477  22.524  36.414  12.429
23597W        W93478  22.142  39.512   2.263
23598W        W93479  20.666  16.721   2.290
23599W        W93480  33.554   2.446  11.543
23600W        W93481  23.722   9.860  13.435
23601W        W93482   1.787  29.614   3.838
23602W        W93483   0.299  14.799  13.925
23603W        W93484  25.107  14.599  11.547
23604W        W93485   5.388  38.000   3.251
23605W        W93486  30.609  32.503  14.867
23606W        W93487  38.893  40.531   3.816
23607W        W93488  40.889  24.164  14.312
23608W        W93489   1.825  25.603  14.848
23609W        W93490   4.780  15.619  11.022
23610W        W93491  37.042   9.284  13.535
23611W        W93492   8.380   3.301   1.367
23612W        W93493  38.464  42.473   0.762
23613W        W93494  30.093  39.956   1.233
23614W        W93495   3.770  23.526   4.269
23615W        W93496  38.905  36.883  11.519
23616W        W93497  43.415  43.956  14.467
23617W        W93498   3.448  43.444  13.793
23618W        W93499  36.949  25.091  14.890
23619W        W93500  17.619   5.736   2.332
23620W        W93501   9.317   6.269  10.894
23621W        W93502  40.814  37.445  14.940
23622W        W93503  24.201  14.773  11.888
23623W        W93504   5.218  39.358  12.935
23624W        W93505  21.657  35.060   0.960
23625W        W93506  42.937  25.123   1.695
23626W        W93507  12.237   2.738   3.763
23627W        W93508  28.113   8.299   2.662
23628W        W93509  19.146   1.886  12.947
23629W        W93510  34.426  42.346   4.637
23630W        W93511  44.901  25.033  10.485
23631W        W93512  28.077  30.136   4.649
23632W        W93513  20.048  21.692   2.414
23633W        W93514  13.172  24.069  14.451
23634W        W93515  29.624  30.510  12.083
23635W        W93516  28.453  22.207   3.190
23636W        W93517   9.224  36.077   4.711
23637W        W93518   7.874  18.638  11.127
23638W        W93519  25.067  19.209   3.359
23639W        W93520  29.452  11.223  14.325
23640W        W93521  28.556   3.941  13.528
23641W        W93522  33.069  12.342   4.176
23642W        W93523  12.680  29.619  10.575
23643W        W93524  41.465  24.092   1.756
23644W        W93525  17.194   0.885  14.968
23645W        W93526  42.856   9.689   3.678
23646W        W93527  33.618   3.401   4.810
23647W        W93528  39.531  41.935   1.730
23648W        W93529  27.476  14.815   1.874
23649W        W93530  42.946  16.179  13.529
23650W        W93531  37.003  25.551  11.391
23651W        W93532  35.018  15.275   0.275
23652W        W93533  43.375   1.310  12.431
23653W        W93534  38.897  20.684   1.392
23654W        W93535  26.024  14.299  10.414
23655W        W93536  11.157  10.790   3.271
23656W        W93537   1.966  33.570   0.884
23657W        W93538  39.913  37.439   0.378
23658W        W93539   7.210   0.335  10.430
23659W        W93540  29.523  33.102   0.419
23660W        W93541  22.114  11.154   4.226
23661W        W93542  19.666   1.760   2.714
23662W        W93543  22.576  23.564  13.029
23663W        W93544   4.296   2.233   0.794
23664W        W93545  34.565  28.555  11.111
23665W        W93546  27.530  14.818  11.528
23666W        W93547  22.090  44.794  14.327
23667W        W93548  30.529  30.160  12.504
23668W        W93549   4.368   0.979  13.012
23669W        W93550  35.958   8.340   2.226
23670W        W93551   5.706   2.834  10.542
23671W        W93552  17.727  20.640   1.323
23672W        W93553  21.249  40.483  13.854
23673W        W93554  17.769   6.394  11.405
23674W        W93555  39.366  16.718  11.446
23675W        W93556  31.113  28.509   4.674
23676W        W93557   7.292  11.151  11.048
23677W        W93558   6.856  17.172   3.822
23678W        W93559   4.834   6.295   5.242
23679W        W93560   8.692  26.464  13.834
23680W        W93561  22.746   9.825  11.003
23681W        W93562  34.504  17.718  11.056
23682W        W93563   9.760  32.995   3.189
23683W        W93564  19.063  43.800  13.923
23684W        W93565  10.222  40.810  11.076
23685W        W93566  21.184   8.852  10.474
23686W        W93567   1.736  22.190  11.523
23687W        W93568  26.586   4.450   1.230
23688W        W93569  14.264   3.257   4.644
23689W        W93570  38.963  11.734   1.857
23690W        W93571  13.684  29.461   4.820
23691W        W93572  38.846   1.784  14.868
23692W        W93573  42.876  31.429   4.630
23693W        W93574  27.013  12.840  13.918
23694W        W93575   1.434  11.755  12.886
23695W        W93576  28.546  11.294  10.904
23696W        W93577   2.279  13.612  13.920
23697W        W93578  27.176  37.031  14.460
23698W        W93579  19.767  25.014   1.234
23699W        W93580  17.562  15.147  12.487
23700W        W93581   1.328   2.762   2.709
23701W        W93582  22.143  36.476  12.564
23702W        W93583  43.290  21.106  14.348
23703W        W93584  18.678   2.404   0.376
23704W        W93585  32.133  43.357  10.901
23705W        W93586   3.827  44.978  12.565
23706W        W93587   0.786  29.595   2.192
23707W        W93588   4.884  41.794  12.076
23708W        W93589  22.714   7.692  10.931
23709W        W93590  29.544   8.754   1.834
23710W        W93591  26.491  41.534   3.229
23711W        W93592  31.899   2.449  13.462
23712W        W93593  22.070  29.079   0.274
23713W        W93594  30.057  24.499  13.966
23714W        W93595   1.454  30.070  14.419
23715W        W93596  13.660  22.623   1.228
23716W        W93597  32.012   3.389  12.013
23717W        W93598   4.218   9.356  13.869
23718W        W93599  39.555   9.883  11.563
23719W        W93600  18.260  30.616  14.371
23720W        W93601  34.385  44.932   4.160
23721W        W93602  41.850  17.748  14.894
23722W        W93603   0.470  11.223  14.905
23723W        W93604  37.851   8.183   3.839
23724W        W93605  21.706  26.010   3.869
23725W        W93606  44.854   3.315   0.885
23726W        W93607   7.852  43.504  13.887
23727W        W93608  21.068   8.321   3.646
23728W        W93609  29.990   8.723   3.305
23729W        W93610  13.338  26.514   1.361
23730W        W93611  40.846   1.323   4.685
23731W        W93612  30.558   7.885   3.631
23732W        W93613  41.378   8.302  14.792
23733W        W93614  42.427  19.271   4.298
23734W        W93615  25.573  18.690   4.691
23735W        W93616  14.151  31.570  12.504
23736W        W93617  11.267  11.710  11.510
23737W        W93618  32.886  32.496   4.325
23738W        W93619  12.285  32.574   4.731
23739W        W93620  40.015  22.207  14.981
23740W        W93621  15.643  30.045   1.803
23741W        W93622   1.797  32.394  12.565
23742W        W93623  30.100  37.555  14.337
23743W        W93624   7.860  32.908   1.419
23744W        W93625  25.621  29.920  12.510
23745W        W93626  31.034  14.203   1.404
23746W        W93627  13.134  11.655  14.394
23747W        W93628  15.626   0.262  12.920
23748W        W93629  35.604  38.015  11.090
23749W        W93630  19.074  26.520  11.887
23750W        W93631  40.927  43.475  11.033
23751W        W93632   5.783   2.957  13.439
23752W        W93633  35.384  33.594   4.214
23753W        W93634  44.762  30.048  12.468
23754W        W93635  43.360   3.278   3.658
23755W        W93636  35.962  40.842  13.825
23756W        W93637   7.671   5.896  10.910
23757W        W93638   3.915   5.306   2.875
23758W        W93639  37.569  27.076   3.781
23759W        W93640   2.785  17.772   2.775
23760W        W93641  16.281  30.022  13.483
23761W        W93642  12.341  44.268  11.991
23762W        W93643  32.484  34.121   3.709
23763W        W93644  40.858  40.365   4.344
23764W        W93645  13.846   0.457   2.205
23765W        W93646  39.944  13.188  10.628
23766W        W93647  12.160  24.694   1.245
23767W        W93648  24.489  12.348  10.968
23768W        W93649  29.084   6.383  14.800
23769W        W93650  15.686  36.083  10.531
23770W        W93651   1.406  19.263   3.216
23771W        W93652  16.795  38.540  13.986
23772W        W93653   8.317  40.834   2.371
23773W        W93654  17.703  44.911  12.360
23774W        W93655  17.198  39.829  14.469
23775W        W93656  37.359  27.162  12.003
23776W        W93657  40.421   5.223  13.819
23777W        W93658  40.924  37.535   0.321
23778W        W93659  32.566  41.492  12.023
23779W        W93660   3.346  31.644  12.056
23780W        W93661  28.634   8.806  14.913
23781W        W93662  44.428  17.791  11.949
23782W        W93663  40.392  24.133   1.732
23783W        W93664  32.554  40.449  13.014
23784W        W93665   6.317   5.200  12.062
23785W        W93666  12.286  18.776   5.200
23786W        W93667  14.338  18.255   1.432
23787W        W93668  41.363  30.543   1.824
23788W        W93669  42.304  17.565   3.855
23789W        W93670  22.183  32.977   4.732
23790W        W93671  31.627   9.330  14.983
23791W        W93672  28.015  31.979  10.928
23792W        W93673  21.040  16.288   2.730
23793W        W93674  10.836  11.250  11.059
23794W        W93675  38.047   4.220   2.768
23795W        W93676  15.626  27.566   4.293
23796W        W93677  16.183   9.645  14.992
23797W        W93678  43.961  12.182   4.790
23798W        W93679  43.396   3.915  13.499
23799W        W93680  12.340  31.899  13.860
23800W        W93681  35.365  20.033  11.398
23801W        W93682  23.595  20.742  13.978
23802W        W93683  19.199   0.814  14.426
23803W        W93684  44.327  28.649  12.373
23804W        W93685  35.893  41.533  11.016
23805W        W93686  25.519   8.661  13.946
23806W        W93687  22.253   0.282  13.965
23807W        W93688  15.766  36.849   0.311
23808W        W93689   2.736  35.444  13.313
23809W        W93690   4.943   3.325   4.287
23810W        W93691  30.454  41.891   1.868
23811W        W93692  26.124  34.060   1.764
23812W        W93693  38.371  20.650  10.459
23813W        W93694  20.703  43.388  13.012
23814W        W93695  29.432  41.334   0.320
23815W        W93696   2.921  20.580   4.803
23816W        W93697  36.521  12.832  13.339
23817W        W93698   6.919  40.459   1.785
23818W        W93699   1.257   8.315   2.371
23819W        W93700  39.487   4.783  13.421
23820W        W93701  14.261  30.074  11.035
23821W        W93702  37.049   1.784  11.531
23822W        W93703  15.607  34.985   0.744
23823W        W93704  34.871  41.333   2.356
23824W        W93705  31.068  37.078   2.221
23825W        W93706   5.806   2.397  11.922
23826W        W93707   5.921  22.582  14.885
23827W        W93708  18.099  30.977  12.573
23828W        W93709  26.538  20.123  10.890
23829W        W93710  33.098  44.438  14.446
23830W        W93711  15.090  25.527  14.855
23831W        W93712  37.485  10.676  13.335
23832W        W93713  26.677  18.588  10.439
23833W        W93714  28.628  37.917  13.483
23834W        W93715  27.022  44.841  13.865
23835W        W93716  22.061  21.164   0.294
23836W        W93717  44.922  31.153  11.118
23837W        W93718  37.539  38.339  11.443
23838W        W93719  13.712   8.259  10.615
23839W        W93720  42.416   7.180  14.395
23840W        W93721  30.485  18.786   3.648
23841W        W93722  37.580  22.046  13.996
23842W        W93723   1.417  41.833  12.935
23843W        W93724  32.581   7.745   0.365
23844W        W93725  17.695   3.243   0.745
23845W        W93726  10.785  39.440   2.227
23846W        W93727  14.791  10.139  11.445
23847W        W93728  31.620  27.014  13.793
23848W        W93729  32.420  20.086   1.301
23849W        W93730  26.080  27.110  14.507
23850W        W93731   7.323  26.131  11.990
23851W        W93732  35.020  19.260   1.815
23852W        W93733  44.296  38.556   1.875
23853W        W93734   7.380  35.525  14.462
23854W        W93735  25.163  18.162   4.250
23855W        W93736  11.806  13.707   0.841
23856W        W93737  22.655  42.455  14.320
23857W        W93738  23.188  19.207   9.569
23858W        W93739  21.574  15.753  11.609
23859W        W93740  18.669  20.210  14.768
23860W        W93741  29.441  27.473  14.785
23861W        W93742  27.552  39.854   1.900
23862W        W93743  31.486   8.178  11.417
23863W        W93744   6.256  32.955  14.359
23864W        W93745  25.146  21.070  10.476
23865W        W93746  12.830  21.663   1.901
23866W        W93747  26.107  17.692   4.202
23867W        W93748  17.298   5.269   3.257
23868W        W93749  24.546   5.295  11.588
23869W        W93750  16.241  33.940   4.604
23870W        W93751  33.558  18.182  10.143
23871W        W93752  14.189  13.843  10.900
23872W        W93753  18.596  10.744  11.378
23873W        W93754  25.141   6.734   2.847
23874W        W93755  34.369  10.362   4.740
23875W        W93756  33.588  21.696   1.293
23876W        W93757  23.573  15.657  14.005
23877W        W93758  18.544  22.684  10.079
23878W        W93759  30.009   9.212  11.857
23879W        W93760  27.175  38.937  14.020
23880W        W93761  16.749  27.628  13.818
23881W        W93762  28.974  34.387  12.363
23882W        W93763  41.471  24.218  10.525
23883W        W93764  34.583  19.041  14.844
23884W        W93765   7.387  43.802  14.776
23885W        W93766  15.249  17.227   3.367
23886W        W93767  35.536  23.140   1.872
23887W        W93768   4.325   5.220  10.612
23888W        W93769  10.816   4.859   0.881
23889W        W93770  25.541   8.197  12.986
23890W        W93771   8.299  20.543   3.688
23891W        W93772  32.947   3.718   1.370
23892W        W93773   8.895  34.011  12.015
23893W        W93774  34.095  19.767  12.080
23894W        W93775  19.775   9.156  12.509
23895W        W93776  19.709  35.454  11.502
23896W        W93777  39.990  15.320  12.430
23897W        W93778   7.358   9.715   4.263
23898W        W93779   3.335  31.005  14.023
23899W        W93780  30.607  17.610  12.865
23900W        W93781   5.862   6.203   1.224
23901W        W93782  28.989  25.108  13.836
23902W        W93783  16.189  21.536  10.893
23903W        W93784  24.500  29.662  13.856
23904W        W93785  12.166   7.910   0.946
23905W        W93786  16.238  43.004  13.313
23906W        W93787  20.143  43.376  12.427
23907W        W93788  18.688  26.102  11.383
23908W        W93789  35.912  29.462   2.201
23909W        W93790  32.916  25.130  11.482
23910W        W93791  29.160  32.591  12.903
23911W        W93792   2.931   9.661  14.780
23912W        W93793   7.229  11.332   3.327
23913W        W93794   9.846  41.348   4.145
23914W        W93795   8.716  33.384  12.851
23915W        W93796  21.262  12.247  13.430
23916W        W93797  29.969  31.996   1.210
23917W        W93798  24.064  42.467   0.283
23918W        W93799   1.410  20.767   0.290
23919W        W93800  17.099  10.238  11.474
23920W        W93801   2.886   3.411  13.311
23921W        W93802   1.759  25.135   2.199
23922W        W93803   8.303  26.998   4.766
23923W        W93804  43.476   8.849  10.994
23924W        W93805  26.703  38.467  12.845
23925W        W93806   9.250  43.318  14.277
23926W        W93807  12.294  12.812   4.746
23927W        W93808  14.107  11.743  12.377
23928W        W93809  42.313   3.878  12.057
23929W        W93810  27.087  40.819   1.429
23930W        W93811  42.978  21.068  10.967
23931W        W93812  13.795  12.222  12.982
23932W        W93813  30.542  31.085   3.658
23933W        W93814  20.595   5.789  12.856
23934W        W93815  10.150  29.035  13.355
23935W        W93816   6.204  41.002  12.463
23936W        W93817  20.042  11.648  12.094
23937W        W93818  26.527  28.518  11.495
23938W        W93819  30.146  23.688   4.742
23939W        W93820  17.177  44.372  11.451
23940W        W93821   8.890  27.124  13.513
23941W        W93822  35.580  39.542  12.359
23942W        W93823   6.834  32.974  12.525
23943W        W93824  12.791   3.262   0.383
23944W        W93825   7.899   0.751  13.546
23945W        W93826  11.291   5.846  13.808
23946W        W93827  14.257  33.522   4.264
23947W        W93828  25.713  24.624   3.718
23948W        W93829  30.433  40.484   4.338
23949W        W93830   2.961   2.739  12.417
23950W        W93831  13.323  28.565  11.948
23951W        W93832  22.141  31.109   1.753
23952W        W93833  41.316  25.673  14.013
23953W        W93834  25.167  29.022   1.253
23954W        W93835  16.697  11.367  13.424
23955W        W93836  26.617   0.808   1.379
23956W        W93837   2.923  17.642   1.278
23957W        W93838  28.578  37.559  13.419
23958W        W93839   0.248  37.406   4.727
23959W        W93840  19.262   8.256  14.417
23960W        W93841   6.777  10.840   1.872
23961W        W93842  24.028  32.487  11.591
23962W        W93843  29.581  28.057  11.482
23963W        W93844  40.825   6.196  14.905
23964W        W93845  24.023  17.130   3.774
23965W        W93846   1.369  16.710   3.792
23966W        W93847  22.150  18.267   1.328
23967W        W93848  21.230  19.251  12.966
23968W        W93849  37.972  26.134   0.793
23969W        W93850  24.672  32.118   1.231
23970W        W93851   4.859  18.284  12.578
23971W        W93852  11.862  29.548  12.933
23972W        W93853  37.558   0.375  13.053
23973W        W93854   7.298  22.999  10.512
23974W        W93855  18.728  39.435   2.879
23975W        W93856  39.517  39.496   4.703
23976W        W93857   6.837   4.246  11.515
23977W        W93858  21.677  35.993  14.299
23978W        W93859  22.252   7.399  11.609
23979W        W93860  14.096  22.140   0.731
23980W        W93861  21.706  11.805   1.413
23981W        W93862  43.419   9.734   3.769
23982W        W93863  40.461  35.007  14.861
23983W        W93864  25.696  34.552   3.209
23984W        W93865  26.568  28.067   1.306
23985W        W93866  35.098   7.683   0.914
23986W        W93867  35.371   7.219   0.329
23987W        W93868  24.190  37.945  14.279
23988W        W93869  19.149  32.011   1.311
23989W        W93870   8.387   8.289  11.948
23990W        W93871  32.947  16.318   4.197
23991W        W93872  12.779  15.329   1.316
23992W        W93873   3.750  17.197   1.931
23993W        W93874  26.533  30.477  11.411
23994W        W93875   6.288  11.718   4.793
23995W        W93876  19.131   2.721   2.228
23996W        W93877  24.062  25.056   3.711
23997W        W93878  15.193  27.510   4.179
23998W        W93879  10.330  16.787  13.949
23999W        W93880  10.730  35.370   2.282
24000W        W93881  44.505  28.099  11.042
24001W        W93882  34.980  12.625  13.976
24002W        W93883   4.339  24.529  12.039
24003W        W93884  21.637   5.360   4.256
24004W        W93885  36.922  11.145   0.411
24005W        W93886  18.751  28.465  10.568
24006W        W93887  18.121  33.480  12.506
24007W        W93888  35.547   0.361   1.925
24008W        W93889  37.987   1.892  10.407
24009W        W93890  42.463   5.263   0.912
24010W        W93891  29.030  21.089   2.320
24011W        W93892  36.455  13.235  11.863
24012W        W93893  21.116  38.330  12.998
24013W        W93894  19.756  10.851   0.447
24014W        W93895  44.432  33.070   4.339
24015W        W93896  18.060   4.380  13.877
24016W        W93897  34.954   3.850  11.471
24017W        W93898  30.560  33.085   3.748
24018W        W93899  26.064  43.884  14.990
24019W        W93900  10.853  17.731   4.753
24020W        W93901  21.706   8.804   2.413
24021W        W93902  15.127  29.067   0.874
24022W        W93903  35.867   7.320  11.389
24023W        W93904   4.846  43.283   0.928
24024W        W93905  33.977  12.673  12.075
24025W        W93906  34.600  23.498   0.441
24026W        W93907   1.923   2.783   3.795
24027W        W93908   9.820  43.828  12.071
24028W        W93909  25.019  18.252  12.053
24029W        W93910  12.135  10.195  13.064
24030W        W93911  30.936  39.837  11.593
24031W        W93912  23.170  40.343  14.511
24032W        W93913  26.473  18.548  11.479
24033W        W93914  30.068  32.398  13.504
24034W        W93915   9.172  34.029   4.297
24035W        W93916  26.995   4.917  13.533
24036W        W93917  32.521  13.142  11.969
24037W        W93918  38.839  38.439  13.407
24038W        W93919  44.767   2.267  11.580
24039W        W93920   4.875  17.764   0.904
24040W        W93921  26.114   4.337   1.405
24041W        W93922  21.725  27.453   1.837
24042W        W93923  29.978  34.523   4.693
24043W        W93924  44.754  26.578  11.514
24044W        W93925  12.299  44.386  10.034
24045W        W93926   3.747  14.172  13.944
24046W        W93927  31.917   5.222   4.672
24047W        W93928  24.187   3.753  10.583
24048W        W93929   0.268  37.066  11.886
24049W        W93930  24.488   0.377   0.416
24050W        W93931  21.675  29.009   0.910
24051W        W93932  25.104  23.512  10.939
24052W        W93933  26.980  15.283   0.878
24053W        W93934  22.515  38.060  10.578
24054W        W93935   0.876   0.950   1.429
24055W        W93936  39.043  16.655   4.290
24056W        W93937  26.579  42.854  13.912
24057W        W93938  26.054  24.694   4.144
24058W        W93939  27.690  41.953   1.855
24059W        W93940  30.936   1.317  11.992
24060W        W93941  15.244  13.325  11.403
24061W        W93942   0.763  23.627  13.970
24062W        W93943   1.363  16.302  11.515
24063W        W93944   3.892  11.307  13.548
24064W        W93945   1.731  33.130   0.250
24065W        W93946  31.534  27.640  12.349
24066W        W93947  29.581  18.278   0.334
24067W        W93948   3.319  15.757   3.781
24068W        W93949   6.340  42.931   1.277
24069W        W93950   5.356  32.496  13.445
24070W        W93951  37.530  43.448  10.603
24071W        W93952  33.410  21.619   3.164
24072W        W93953  35.103   3.322   0.879
24073W        W93954  23.617   3.907  14.903
24074W        W93955  20.715  31.107   4.693
24075W        W93956  23.122  14.692  13.809
24076W        W93957  16.705  23.013  11.414
24077W        W93958  12.282  20.116   2.817
24078W        W93959   1.858  24.974  14.889
24079W        W93960   7.330  19.558  14.900
24080W        W93961  43.836   3.836   2.307
24081W        W93962  25.141  26.551  12.946
24082W        W93963  26.095  40.963  10.513
24083W        W93964  24.683   2.796  11.515
24084W        W93965  40.843   4.443  11.537
24085W        W93966  25.540  31.611   3.317
24086W        W93967  29.567  19.550  12.078
24087W        W93968   2.298  41.977  13.990
24088W        W93969   4.282  12.194  11.972
24089W        W93970  18.638  19.557   2.345
24090W        W93971  36.483  42.786  12.978
24091W        W93972  17.676   1.926  11.552
24092W        W93973  11.797  18.249   1.382
24093W        W93974  38.968  38.929   4.184
24094W        W93975  40.344   3.853  12.094
24095W        W93976  32.000   7.789   3.243
24096W        W93977  21.057  29.960  14.333
24097W        W93978  29.024  17.791  10.546
24098W        W93979   0.767  43.446  11.889
24099W        W93980  32.535  44.936  14.019
24100W        W93981   6.775  44.943  13.013
24101W        W93982  42.492  36.084  13.004
24102W        W93983   7.723  16.624   1.395
24103W        W93984  16.802  22.571  12.914
24104W        W93985   8.869   0.809  12.883
24105W        W93986  30.160  29.622  14.489
24106W        W93987  27.141  28.173  14.960
24107W        W93988   4.883  38.513  12.043
24108W        W93989  36.476   2.293  14.807
24109W        W93990  11.706  15.316   0.878
24110W        W93991  39.325  30.557   0.798
24111W        W93992   3.257  26.551   4.758
24112W        W93993  15.586  11.627  14.901
24113W        W93994  26.619  33.950   4.298
24114W        W93995  33.965   3.296   2.184
24115W        W93996  27.027  24.041   5.102
24116W        W93997  37.983  34.509   3.716
24117W        W93998  15.752  28.084  11.403
24118W        W93999   5.226  25.151  11.585
24119W        W94000  14.773  17.591  13.374
24120W        W94001  40.544  37.378  10.597
24121W        W94002  22.252  21.745   2.333
24122W        W94003  24.100  35.884  12.380
24123W        W94004   5.417   0.378   4.787
24124W        W94005  44.835  20.254  11.607
24125W        W94006  36.921  38.890   4.212
24126W        W94007   4.743  37.438   3.169
24127W        W94008  12.337  41.333   4.125
24128W        W94009  43.460   3.763   1.842
24129W        W94010  34.115  23.154   1.404
24130W        W94011  15.700   3.870  11.595
24131W        W94012  20.152  33.433  14.316
24132W        W94013  42.454   7.338  13.522
24133W        W94014  13.665  43.355  14.946
24134W        W94015   0.264  26.507   1.322
24135W        W94016  42.016  12.361   0.812
24136W        W94017  29.607   2.757  14.848
24137W        W94018  20.689  16.287   1.724
24138W        W94019  44.881  11.744  13.860
24139W        W94020   3.395  30.644  14.876
24140W        W94021  14.300   7.230   4.751
24141W        W94022  36.381  29.003  10.921
24142W        W94023  32.114  26.522  13.001
24143W        W94024  32.403  25.971   1.270
24144W        W94025  22.175  40.830   2.199
24145W        W94026  43.417  11.662  13.988
24146W        W94027  10.156   0.795  10.913
24147W        W94028  26.694  28.059  11.927
24148W        W94029  23.588   2.839  14.492
24149W        W94030  38.883  36.988   1.763
24150W        W94031  15.229   6.820  11.507
24151W        W94032   3.808  32.137  11.008
24152W        W94033  10.232  12.341   4.230
24153W        W94034  41.470  27.620   3.356
24154W        W94035   8.711  43.925  10.557
24155W        W94036  22.154  25.143  13.060
24156W        W94037  27.653   5.777   0.246
24157W        W94038  33.517  35.018   0.916
24158W        W94039   5.928   1.300   0.965
24159W        W94040  32.890  17.754   9.528
24160W        W94041  23.179  31.416  14.429
24161W        W94042   0.769  33.097   0.325
24162W        W94043  34.562  36.979   4.315
24163W        W94044  28.577   6.755   3.815
24164W        W94045   0.980  18.746   1.875
24165W        W94046  29.506  22.247   4.804
24166W        W94047  11.796  39.336  14.331
24167W        W94048  19.708  31.610   4.178
24168W        W94049  37.882  28.138  13.527
24169W        W94050  30.477   5.700   1.428
24170W        W94051  32.583  31.954   1.313
24171W        W94052  28.574   7.311  13.033
24172W        W94053  27.955  37.839   0.912
24173W        W94054  13.186  33.437  13.501
24174W        W94055  34.385   4.426  12.492
24175W        W94056  28.675   7.674  11.532
24176W        W94057  33.056  43.317   0.915
24177W        W94058  28.453  15.698  14.003
24178W        W94059  42.409  24.667  13.535
24179W        W94060   6.338  39.032  10.579
24180W        W94061  33.902  14.692  11.984
24181W        W94062  28.013  31.446  11.997
24182W        W94063  28.181  42.524  13.494
24183W        W94064  44.306  25.115   4.132
24184W        W94065  26.576  18.613   0.824
24185W        W94066   5.796  28.093  11.047
24186W        W94067  15.086  31.113   0.898
24187W        W94068   3.277  35.586   0.852
24188W        W94069  40.010  28.948   4.133
24189W        W94070  43.979  30.495  12.918
24190W        W94071  41.005  21.750   4.659
24191W        W94072  27.135  28.011   3.713
24192W        W94073  41.002  26.121   1.313
24193W        W94074  12.754  14.111   1.804
24194W        W94075  43.805  27.558   4.291
24195W        W94076  12.225  44.787  13.813
24196W        W94077  23.526  29.508  13.987
24197W        W94078  23.665  16.265   3.685
24198W        W94079   1.349  34.443  10.908
24199W        W94080  39.351  22.125   3.856
24200W        W94081  26.154   4.272  12.882
24201W        W94082  28.030   1.926   2.407
24202W        W94083  21.116  22.580   0.448
24203W        W94084  25.126  33.418   1.370
24204W        W94085   6.366  26.105  12.895
24205W        W94086  41.433  16.247   0.912
24206W        W94087   0.864  34.979  13.534
24207W        W94088  39.388  35.034   3.719
24208W        W94089  41.398  20.675  10.473
24209W        W94090  20.719  11.775   0.757
24210W        W94091  32.046  38.046  14.011
24211W        W94092  33.006  28.980  13.824
24212W        W94093  20.130  22.737   2.303
24213W        W94094   7.828  41.041  12.029
24214W        W94095   4.293  31.082   1.863
24215W        W94096  40.968   0.960  13.901
24216W        W94097  23.180  35.853   4.623
24217W        W94098  22.688   4.768  10.903
24218W        W94099  21.026  44.852  11.862
24219W        W94100  33.061  18.752   3.831
24220W        W94101  34.045  10.742  12.097
24221W        W94102  27.614  31.898  11.460
24222W        W94103  36.516   7.680  11.941
24223W        W94104  19.241  27.451   3.375
24224W        W94105  37.999  41.027  10.480
24225W        W94106  22.524  33.625   3.760
24226W        W94107  29.988   7.827  10.991
24227W        W94108  41.016  44.805  10.919
24228W        W94109  39.013   5.414   3.211
24229W        W94110  27.136  39.011   0.788
24230W        W94111  41.842  29.054   0.839
24231W        W94112   1.797  15.275  12.389
24232W        W94113   7.840  30.122  12.895
24233W        W94114   5.871   9.208  12.364
24234W        W94115  28.957  40.014   3.339
24235W        W94116  10.319  26.477   3.315
24236W        W94117  29.031   0.400   3.836
24237W        W94118  38.946  22.182  11.594
24238W        W94119  41.359  28.615   2.398
24239W        W94120  25.124  37.412   0.395
24240W        W94121   1.401  13.753  14.363
24241W        W94122  41.431   1.928  12.857
24242W        W94123   3.909  19.632  11.459
24243W        W94124  44.939  13.816   4.188
24244W        W94125   7.760   1.467   2.294
24245W        W94126   0.366  35.864  14.431
24246W        W94127  20.132  30.569  14.853
24247W        W94128  20.632   1.460   9.657
24248W        W94129  42.321  32.917  11.064
24249W        W94130  33.074   5.426  13.989
24250W        W94131  36.525   4.349  11.540
24251W        W94132  25.635  23.651   4.620
24252W        W94133  38.872  29.541   0.317
24253W        W94134  23.569  44.373   0.862
24254W        W94135  17.796  18.615  11.593
24255W        W94136  42.491  42.027   3.286
24256W        W94137  41.496  25.974  10.603
24257W        W94138  36.854  17.724   1.873
24258W        W94139  33.882  23.232  13.005
24259W        W94140  11.857   2.903  13.845
24260W        W94141  27.068  39.836   0.413
24261W        W94142  12.612  38.956   0.398
24262W        W94143  15.807  22.707  10.644
24263W        W94144  32.990  26.068   1.735
24264W        W94145  10.237  41.831   5.148
24265W        W94146  40.934   2.274  13.997
24266W        W94147  28.482  17.212   0.730
24267W        W94148   1.812  19.644  13.984
24268W        W94149  36.849  44.894   4.156
24269W        W94150  28.025   4.852  11.910
24270W        W94151  10.791  22.208  12.358
24271W        W94152  16.212  10.192   1.276
24272W        W94153   0.476   0.803   1.793
24273W        W94154  37.533  20.060  13.872
24274W        W94155  18.244  44.828  13.463
24275W        W94156  25.649  11.625  11.437
24276W        W94157   4.369  37.867  13.890
24277W        W94158  37.849  34.079   2.845
24278W        W94159  38.047   6.879   0.930
24279W        W94160  35.987   5.363   4.760
24280W        W94161   1.845   2.228   0.451
24281W        W94162  14.770  34.413   2.382
24282W        W94163  34.388  24.100   0.319
24283W        W94164  15.150  29.523   4.781
24284W        W94165   4.337  11.253  10.940
24285W        W94166  40.545  24.578  14.292
24286W        W94167  13.183  23.692   4.727
24287W        W94168  13.760  38.375  11.045
24288W        W94169  10.383  26.006  11.490
24289W        W94170   5.382  38.540   2.199
24290W        W94171  43.468  15.657  10.977
24291W        W94172  43.818  25.149  14.008
24292W        W94173  40.943   2.825  12.385
24293W        W94174  18.694  22.506  10.467
24294W        W94175   1.855   6.821   3.790
24295W        W94176   9.798  12.740   4.247
24296W        W94177  21.543  33.104   3.866
24297W        W94178  29.113  20.103  14.769
24298W        W94179  34.908  30.582  10.547
24299W        W94180  40.503  12.157  13.967
24300W        W94181  31.581  17.167   3.837
24301W        W94182  13.725  35.548  11.903
24302W        W94183   5.203  27.025   3.763
24303W        W94184  36.960  12.759  10.908
24304W        W94185  27.620   4.921   2.792
24305W        W94186  35.050  30.430   1.313
24306W        W94187  10.223   2.878   1.367
24307W        W94188  21.621   7.817   0.929
24308W        W94189  34.533  11.242  14.788
24309W        W94190  13.135  12.353   4.609
24310W        W94191  16.294  36.573   2.785
24311W        W94192   9.235   8.199   0.742
24312W        W94193  37.067  42.430   4.318
24313W        W94194   0.757  24.177   2.284
24314W        W94195   0.380  25.636   4.211
24315W        W94196   0.922  28.038  10.122
24316W        W94197  37.977  35.024  11.928
24317W        W94198  17.165  19.179   0.280
24318W        W94199  32.946  15.688   1.287
24319W        W94200  33.104  42.436  13.962
24320W        W94201   7.299  32.904   3.287
24321W        W94202  35.082  26.072   1.338
24322W        W94203  22.621  34.932   2.251
24323W        W94204   8.394  17.579  12.877
24324W        W94205  40.492  38.910   0.884
24325W        W94206  36.546  44.310   1.804
24326W        W94207  32.131   6.869   3.189
24327W        W94208  17.077  21.044   0.906
24328W        W94209  33.493  17.063  14.426
24329W        W94210  41.790  18.186   2.186
24330W        W94211  26.139   1.240   1.217
24331W        W94212  25.612  39.378   4.734
24332W        W94213  30.102  41.833   2.671
24333W        W94214  12.325  38.442  11.960
24334W        W94215  30.521  33.521   4.760
24335W        W94216  41.417   3.811   3.631
24336W        W94217  39.970  35.107   2.274
24337W        W94218  39.338  31.570  12.438
24338W        W94219   7.179  36.877  13.536
24339W        W94220  44.302  24.712   2.291
24340W        W94221   6.920  13.606   2.265
24341W        W94222  44.455  20.708  13.962
24342W        W94223   3.944   5.321  12.353
24343W        W94224  23.148  43.363   1.236
24344W        W94225  20.756  11.293  13.489
24345W        W94226  41.341  21.667  14.501
24346W        W94227  41.488  18.787  11.439
24347W        W94228  13.662  34.528  14.511
24348W        W94229   0.359   8.354  13.535
24349W        W94230   6.718  23.000  14.811
24350W        W94231   9.660  15.230  10.471
24351W        W94232   7.363  43.005  12.835
24352W        W94233  21.179  32.071  11.544
24353W        W94234  21.661  37.459   2.883
24354W        W94235  30.443  13.606  11.486
24355W        W94236  29.432   3.731   1.792
24356W        W94237  27.090  14.230  14.503
24357W        W94238   2.936  10.651  14.898
24358W        W94239  40.877  29.999  11.055
24359W        W94240  38.500  21.732  14.965
24360W        W94241  28.481  11.241   3.723
24361W        W94242   5.336  23.229  11.400
24362W        W94243  41.319  26.159  14.467
24363W        W94244  37.382  24.539   4.827
24364W        W94245  24.604   7.834  11.017
24365W        W94246   6.370  24.611  14.998
24366W        W94247  41.914  26.703  14.416
24367W        W94248  38.347  16.767  10.956
24368W        W94249   8.323   0.355   3.349
24369W        W94250   7.302  24.544   0.892
24370W        W94251  31.402  16.634   5.111
24371W        W94252  14.761   8.709   0.932
24372W        W94253  32.498  32.611  14.440
24373W        W94254  36.554   1.787   3.148
24374W        W94255  42.007  35.863  10.959
24375W        W94256   6.781  10.632   1.312
24376W        W94257  43.415  42.896   4.790
24377W        W94258  23.171   8.268   2.276
24378W        W94259   5.322   0.347   3.296
24379W        W94260  38.535  16.729  12.553
24380W        W94261  16.783  28.004   0.826
24381W        W94262   0.330  36.347   4.259
24382W        W94263  33.125  27.645   1.402
24383W        W94264   8.338  21.083   0.382
24384W        W94265   5.916  32.490  10.636
24385W        W94266   4.419   1.345  11.522
24386W        W94267  13.249   7.238  11.374
24387W        W94268   3.403  43.357   3.331
24388W        W94269  23.685  43.378   4.673
24389W        W94270   2.780  40.950   3.812
24390W        W94271  11.191  21.627  12.451
24391W        W94272  32.473   6.749   3.188
24392W        W94273  34.032   8.664  14.370
24393W        W94274   5.358  31.071   2.345
24394W        W94275  26.552  25.524  13.493
24395W        W94276  29.924   7.834  13.512
24396W        W94277  36.897   3.397   0.823
24397W        W94278  14.631  44.475  10.056
24398W        W94279  42.890  30.945  13.392
24399W        W94280   5.711  16.710   0.305
24400W        W94281  22.184   6.709   4.772
24401W        W94282   9.793  20.555   3.356
24402W        W94283  20.034   1.733   1.416
24403W        W94284   1.324   1.445   0.831
24404W        W94285  13.743  31.619   4.164
24405W        W94286  35.109  17.243  12.385
24406W        W94287  11.631  28.462  12.497
24407W        W94288  32.413  34.010   1.381
24408W        W94289  28.047  24.180   4.216
24409W        W94290   4.437  36.564  11.910
24410W        W94291   2.888  41.034   4.335
24411W        W94292  17.565   7.834  10.456
24412W        W94293  38.903   4.852   0.905
24413W        W94294  32.982  29.649  11.111
24414W        W94295  24.003  24.979   4.246
24415W        W94296  21.110  30.555   0.848
24416W        W94297  34.869  25.056   3.751
24417W        W94298  37.423  36.487  14.445
24418W        W94299  26.179   2.433   3.366
24419W        W94300  17.598  10.353  11.058
24420W        W94301  28.135  31.573   3.642
24421W        W94302   1.340  25.606   2.832
24422W        W94303   2.444  29.039  13.422
24423W        W94304  30.012  19.543  10.960
24424W        W94305  44.371  29.051  10.109
24425W        W94306  32.130   5.694  12.902
24426W        W94307  33.470  42.939  11.041
24427W        W94308  27.143  22.596  10.924
24428W        W94309  36.084  15.796   2.368
24429W        W94310  27.137   2.397  10.509
24430W        W94311   3.415  21.630   0.326
24431W        W94312  18.571  42.445  12.559
24432W        W94313  26.974  19.272   3.844
24433W        W94314   8.766  36.526  14.919
24434W        W94315  23.066  41.937  13.384
24435W        W94316  43.284  16.633   1.369
24436W        W94317  23.623  28.021  12.909
24437W        W94318  40.817   8.682   3.726
24438W        W94319  22.027  13.689  12.060
24439W        W94320   3.365  27.994  13.537
24440W        W94321  33.043   9.260  11.480
24441W        W94322   7.842   1.238   4.768
24442W        W94323  21.093   7.831  11.469
24443W        W94324  33.404   9.246   4.795
24444W        W94325  41.345  38.862   4.684
24445W        W94326  16.102  24.589   4.709
24446W        W94327  42.484  37.051  13.360
24447W        W94328  27.690   2.788  12.879
24448W        W94329  23.057  20.597   2.311
24449W        W94330   6.218  30.472  14.781
24450W        W94331  17.721  13.242  14.961
24451W        W94332  33.569  28.983   2.733
24452W        W94333  30.083  15.174  13.839
24453W        W94334  38.050  10.357  10.066
24454W        W94335  21.701  41.021   3.870
24455W        W94336  33.911  19.171   3.785
24456W        W94337  24.501  44.909  11.597
24457W        W94338  28.089  24.054  14.812
24458W        W94339  11.320  43.892  14.351
24459W        W94340  14.322  32.971  10.510
24460W        W94341  10.312  39.313  11.419
24461W        W94342  14.248  25.544  13.944
24462W        W94343  27.475  31.597   2.390
24463W        W94344  40.544  13.170   2.854
24464W        W94345  18.666   0.430  11.591
24465W        W94346  44.966  12.240   3.688
24466W        W94347  25.499  34.425   4.818
24467W        W94348  42.874  38.515   2.312
24468W        W94349  37.510  26.188  12.444
24469W        W94350  33.586  31.949   3.171
24470W        W94351   9.356  30.973   1.781
24471W        W94352   0.855  17.223   3.667
24472W        W94353  32.142  39.446   3.163
24473W        W94354   6.323  30.655  11.564
24474W        W94355  44.004   9.195  12.834
24475W        W94356  12.203  39.035   2.703
24476W        W94357   6.873  12.636   0.833
24477W        W94358  42.970  29.983  12.942
24478W        W94359  18.141  29.480  12.902
24479W        W94360  21.523   3.829   3.767
24480W        W94361  20.248   5.300   0.856
24481W        W94362  29.600  34.988   3.767
24482W        W94363  12.175  17.800   2.725
24483W        W94364   3.242   7.871   4.169
24484W        W94365   5.404  10.161  12.896
24485W        W94366  24.685  29.100  13.994
24486W        W94367  16.640  44.277   1.408
24487W        W94368  40.374  36.912   3.711
24488W        W94369  26.591  17.163   4.631
24489W        W94370  31.500  28.545   4.605
24490W        W94371  28.677  30.592  10.995
24491W        W94372  20.706  41.432  10.635
24492W        W94373  29.108   9.394   0.370
24493W        W94374  15.611   0.975  12.834
24494W        W94375  13.700  19.096  12.472
24495W        W94376  26.689  15.314  10.101
24496W        W94377  44.296  11.231   0.745
24497W        W94378  30.469  19.079   0.935
24498W        W94379  28.959  21.531   3.775
24499W        W94380  42.397  36.094  13.545
24500W        W94381  40.502  35.951  14.899
24501W        W94382  18.633  32.127  12.980
24502W        W94383  13.631  41.438  11.531
24503W        W94384  25.075  27.974  13.012
24504W        W94385   3.313  18.707  13.368
24505W        W94386  32.937  15.602   0.360
24506W        W94387  39.524  11.235  11.573
24507W        W94388  27.100  23.504  13.025
24508W        W94389  37.884  16.221  14.343
24509W        W94390   5.255   5.897   1.932
24510W        W94391  34.523   6.199   4.130
24511W        W94392  32.631  19.587   2.178
24512W        W94393  28.437   4.370  11.517
24513W        W94394  10.679  21.611   2.742
24514W        W94395  26.503  40.335  13.479
24515W        W94396  35.366  35.455   4.172
24516W        W94397  11.287  16.703  12.953
24517W        W94398  20.100  12.783   0.287
24518W        W94399   5.353   2.241  11.448
24519W        W94400   2.840  43.370  13.050
24520W        W94401  13.719  29.161  13.357
24521W        W94402  12.756  14.635   0.352
24522W        W94403   0.405  28.957  10.603
24523W        W94404  18.565   9.339   4.723
24524W        W94405  33.416  22.141  13.516
24525W        W94406  23.012  36.889   4.185
24526W        W94407   9.808  11.318   1.406
24527W        W94408  15.177  30.025   1.381
24528W        W94409  44.838  23.040  12.580
24529W        W94410   9.799  20.098  13.888
24530W        W94411  35.519  33.021  12.905
24531W        W94412  15.241  18.593  14.951
24532W        W94413  27.627  25.597  14.899
24533W        W94414  32.587  21.738   4.826
24534W        W94415   2.845  39.840  11.102
24535W        W94416  28.930  12.277  11.925
24536W        W94417  12.765   9.789   2.262
24537W        W94418   6.404  41.371  11.980
24538W        W94419  30.538  36.959  12.966
24539W        W94420  39.333  17.671  14.965
24540W        W94421  29.004  28.179  12.441
24541W        W94422   0.274  22.102   0.483
24542W        W94423  30.092  32.440  13.927
24543W        W94424  38.878  37.552   2.199
24544W        W94425   3.937  19.584   4.700
24545W        W94426  19.775  26.194  14.435
24546W        W94427  31.073   3.282  12.073
24547W        W94428   8.690  38.013   3.160
24548W        W94429  13.349  18.745  11.465
24549W        W94430  19.283  30.492   9.544
24550W        W94431  40.434  15.294   4.780
24551W        W94432  21.647  30.491  12.532
24552W        W94433  27.579  12.665  12.860
24553W        W94434  14.752   2.883  11.424
24554W        W94435  42.478  20.169   2.705
24555W        W94436  28.499  33.028  14.888
24556W        W94437  36.876  12.668  13.032
24557W        W94438  43.384  37.943   4.311
24558W        W94439   4.915  39.398  11.445
24559W        W94440   7.749  43.982  10.495
24560W        W94441  36.485  10.227  12.458
24561W        W94442   5.690  35.037  13.533
24562W        W94443  31.093  26.567  13.947
24563W        W94444  30.577  36.350   1.931
24564W        W94445   9.302  36.048   2.283
24565W        W94446   8.219  18.637  11.512
24566W        W94447   0.302   1.845  13.426
24567W        W94448   0.310  19.093  10.413
24568W        W94449  17.252  21.215   4.201
24569W        W94450  32.618   6.379  14.460
24570W        W94451  14.705  22.582  11.501
24571W        W94452  13.600   5.339   2.891
24572W        W94453   9.250  31.600   3.739
24573W        W94454  40.330  27.496   2.862
24574W        W94455  31.556   6.852   3.801
24575W        W94456  25.027  16.623  14.302
24576W        W94457  41.815  43.955  14.913
24577W        W94458  44.455  35.903  11.112
24578W        W94459  10.274  31.077  12.897
24579W        W94460  41.856  27.629   0.831
24580W        W94461  33.921  20.225   1.799
24581W        W94462   3.830   6.891   3.852
24582W        W94463   4.811   0.477   0.825
24583W        W94464  22.075  28.052   4.768
24584W        W94465  34.995  37.044   0.249
24585W        W94466  25.100  21.549   2.399
24586W        W94467  30.441  29.562  10.404
24587W        W94468  40.859  31.501  11.856
24588W        W94469  32.517  41.924   1.858
24589W        W94470  12.254   2.743  13.389
24590W        W94471   3.369  18.056   0.780
24591W        W94472  34.058  11.745   2.408
24592W        W94473  24.119   4.431  13.840
24593W        W94474  22.507   2.940   0.284
24594W        W94475   8.319  38.960   1.803
24595W        W94476   7.792  17.175  11.913
24596W        W94477  13.808  17.644  14.858
24597W        W94478  44.418  11.625  12.419
24598W        W94479  22.112  16.768   3.317
24599W        W94480   6.412  41.996   3.153
24600W        W94481  18.277  10.155   3.772
24601W        W94482   0.918  43.482   2.725
24602W        W94483  12.725   3.292   1.255
24603W        W94484  29.069  13.653  12.407
24604W        W94485   6.677   5.835   1.906
24605W        W94486  10.341  27.058   3.259
24606W        W94487  24.651  39.038  12.379
24607W        W94488  20.720   6.395   1.314
24608W        W94489   2.301  37.910   1.287
24609W        W94490  14.606  20.155  13.029
24610W        W94491   4.356   4.782  14.782
24611W        W94492  31.109  15.327   0.378
24612W        W94493  33.023  38.843   3.379
24613W        W94494  37.430  10.375   0.911
24614W        W94495  24.523  39.508   1.355
24615W        W94496   2.329  22.604   1.222
24616W        W94497  26.994  11.259  10.953
24617W        W94498  23.212  17.727  12.414
24618W        W94499  40.381  25.486  12.844
24619W        W94500  35.378  42.889   0.858
24620W        W94501   2.807   5.752  12.006
24621W        W94502  15.686  32.101   1.717
24622W        W94503   7.210  43.477  10.412
24623W        W94504  17.239  33.090  12.487
24624W        W94505  14.327  26.149   0.858
24625W        W94506   3.260  23.558   3.325
24626W        W94507   9.155   2.247   3.840
24627W        W94508   4.915  11.822  13.864
24628W        W94509  14.147  29.543   1.363
24629W        W94510  40.312  44.269   5.280
24630W        W94511  19.736   1.792  11.054
24631W        W94512  36.882  30.454   3.717
24632W        W94513  17.560  42.441  12.840
24633W        W94514   1.769  42.947   4.333
24634W        W94515  22.243  21.182  12.095
24635W        W94516  31.457  20.086  12.061
24636W        W94517  26.171   9.887   1.721
24637W        W94518  17.264   1.764   2.739
24638W        W94519  34.961  25.547  10.636
24639W        W94520  22.617   7.909  14.368
24640W        W94521   3.332  10.217   0.822
24641W        W94522  14.590  13.604  12.857
24642W        W94523  29.460   7.791  11.378
24643W        W94524   6.281  41.386  12.352
24644W        W94525   2.306  21.092   2.293
24645W        W94526  41.908   9.880  12.487
24646W        W94527  39.010  28.638  11.110
24647W        W94528  39.842  16.674   3.281
24648W        W94529   1.350  29.483  12.444
24649W        W94530  30.086   7.370   1.706
24650W        W94531  42.479  43.827   0.833
24651W        W94532  19.110   4.398   2.314
24652W        W94533  14.210  26.507   1.348
24653W        W94534  29.451  39.041   1.300
24654W        W94535  27.539  44.986  14.501
24655W        W94536  40.304   8.891  10.474
24656W        W94537   8.864  23.573  14.853
24657W        W94538  10.743  10.365  12.856
24658W        W94539  10.246  33.909   1.414
24659W        W94540   6.262  33.946   1.392
24660W        W94541  36.022  24.655  10.913
24661W        W94542  35.389  33.963  11.541
24662W        W94543   0.491  40.402   3.381
24663W        W94544  38.379   7.902  14.778
24664W        W94545   0.434  38.920   2.404
24665W        W94546  12.286  14.611   2.305
24666W        W94547  35.497  16.690   1.290
24667W        W94548  38.451   7.749  13.044
24668W        W94549  34.114  11.198  12.416
24669W        W94550  27.029  42.339  13.819
24670W        W94551  12.747  13.128   4.301
24671W        W94552  29.061  21.701   2.766
24672W        W94553  42.792  35.425  10.442
24673W        W94554  21.019  11.798   2.402
24674W        W94555   6.189  40.010  11.395
24675W        W94556  24.081  14.779   0.306
24676W        W94557  11.308  12.214   0.842
24677W        W94558  41.931   5.919  13.511
24678W        W94559  40.316  42.333  13.470
24679W        W94560  23.588  42.374  12.889
24680W        W94561   3.803  13.729  12.531
24681W        W94562  43.781  30.491   1.699
24682W        W94563  34.397  42.474  12.860
24683W        W94564   8.800  29.055  13.322
24684W        W94565  13.149  15.672  13.322
24685W        W94566  12.300  27.126  14.298
24686W        W94567  29.102   1.886  11.083
24687W        W94568  26.519   1.922   0.967
24688W        W94569  20.045  18.194   1.853
24689W        W94570  10.384  37.843  10.986
24690W        W94571  34.425   2.965  14.767
24691W        W94572   6.694   9.855  12.880
24692W        W94573  42.515  12.612   0.810
24693W        W94574  25.639  41.820  12.856
24694W        W94575   8.879  23.233  11.604
24695W        W94576   6.781  32.594  14.275
24696W        W94577  23.104  38.888   3.765
24697W        W94578  13.796  14.777  11.119
24698W        W94579   3.262  44.954   3.288
24699W        W94580  26.111  27.542  13.020
24700W        W94581   6.420  23.681  10.555
24701W        W94582  10.715  19.710   0.306
24702W        W94583  39.546  39.344  14.960
24703W        W94584  11.228  31.535   1.214
24704W        W94585  28.521  20.626  11.898
24705W        W94586   2.851  27.043  12.564
24706W        W94587  11.160  17.607   2.187
24707W        W94588   4.928  25.975   2.315
24708W        W94589  12.274  30.953   4.772
24709W        W94590  28.983  13.283  12.490
24710W        W94591   3.826  22.662  10.602
24711W        W94592  33.510  43.319  12.472
24712W        W94593  12.173  22.188  14.289
24713W        W94594  15.798  14.798  12.073
24714W        W94595  34.395  18.588   2.370
24715W        W94596  43.381  41.406   1.713
24716W        W94597   0.774   7.738  13.376
24717W        W94598  41.916  19.594   3.675
24718W        W94599   4.216  20.083  12.437
24719W        W94600  13.668  15.153   0.319
24720W        W94601  36.562  43.919   1.266
24721W        W94602  23.147  44.330   4.779
24722W        W94603  43.426   5.847  12.030
24723W        W94604  42.943  19.086   4.689
24724W        W94605  31.505  18.710  10.433
24725W        W94606  13.612   0.955   3.859
24726W        W94607  28.134   1.967   1.736
24727W        W94608  14.656   7.703  13.805
24728W        W94609  39.331  28.477   4.231
24729W        W94610   1.959   6.920   1.800
24730W        W94611  40.492  35.937   4.245
24731W        W94612  16.656  34.882  12.492
24732W        W94613  16.761  26.172   2.769
24733W        W94614  39.880  19.225   1.215
24734W        W94615   3.377  25.482  13.816
24735W        W94616  15.264  31.591   2.287
24736W        W94617  27.185  31.943   4.159
24737W        W94618  29.431   9.270   0.777
24738W        W94619  41.984  23.070  11.992
24739W        W94620  10.346  35.440   4.181
24740W        W94621  27.637   5.234  14.284
24741W        W94622  32.391  18.718   2.829
24742W        W94623  10.343  31.922   1.406
24743W        W94624  24.600  12.117   2.756
24744W        W94625  34.070  17.146  11.376
24745W        W94626  16.081  40.494   2.366
24746W        W94627  27.963   5.875   4.681
24747W        W94628   4.728  12.182   4.740
24748W        W94629  17.678  42.485  13.426
24749W        W94630  30.499  39.914   4.151
24750W        W94631  29.656  44.954   3.629
24751W        W94632  24.695  36.958   4.607
24752W        W94633  30.615  32.937  13.540
24753W        W94634  19.544  33.991   1.314
24754W        W94635   2.425  42.887   2.882
24755W        W94636   0.976  39.028   3.781
24756W        W94637  37.931   5.735   4.619
24757W        W94638  38.928  26.055  13.881
24758W        W94639  14.823  25.658  10.631
24759W        W94640  11.763  12.362  12.017
24760W        W94641   4.860  31.087   0.813
24761W        W94642  32.111   3.861   0.245
24762W        W94643   0.417  30.075   3.325
24763W        W94644  44.402   6.238   1.738
24764W        W94645  27.640  16.681   3.814
24765W        W94646  36.440  31.907  14.817
24766W        W94647  38.469  19.685  11.886
24767W        W94648   5.903   0.850  11.092
24768W        W94649  23.634   3.864   3.323
24769W        W94650  19.551   4.338   3.195
24770W        W94651  37.517  41.986  10.439
24771W        W94652  33.964   5.692  13.403
24772W        W94653  37.048  44.293  10.541
24773W        W94654   1.829   9.747  14.851
24774W        W94655  38.482  15.100  11.424
24775W        W94656  39.901  40.025   4.320
24776W        W94657  31.474   9.748  10.912
24777W        W94658   9.772  30.123  11.411
24778W        W94659  18.599   2.295   1.428
24779W        W94660   9.260  34.401   5.250
24780W        W94661  22.504   5.799  10.999
24781W        W94662  28.123  10.151  14.942
24782W        W94663   4.412  20.604  10.920
24783W        W94664  15.305   6.389   0.252
24784W        W94665   3.235   1.875  13.473
24785W        W94666  31.942  17.212   1.904
24786W        W94667  31.614  29.530  14.904
24787W        W94668  10.636   9.378   0.743
24788W        W94669  39.913  31.580  12.084
24789W        W94670  30.532  36.909   4.137
24790W        W94671  31.033  20.217   3.734
24791W        W94672   1.834  34.910   3.336
24792W        W94673  17.606  29.508  14.503
24793W        W94674  27.961  39.320  14.460
24794W        W94675  21.184  35.083  11.859
24795W        W94676   1.929  17.709   4.697
24796W        W94677   2.350  29.498   3.670
24797W        W94678  38.351  37.036   1.297
24798W        W94679   3.743  24.221   2.783
24799W        W94680  19.761  32.483   4.317
24800W        W94681   0.289  23.702   0.351
24801W        W94682   0.428  30.643  10.541
24802W        W94683  24.226  38.368  11.893
24803W        W94684  17.562   9.377  12.076
24804W        W94685  15.817  20.689   2.315
24805W        W94686  28.589  19.745  13.907
24806W        W94687   2.871  28.562  13.036
24807W        W94688  11.789  18.100  14.292
24808W        W94689  18.072  27.605   0.249
24809W        W94690   8.801  43.891   2.721
24810W        W94691  15.131  12.213   3.170
24811W        W94692  40.434  41.405  14.474
24812W        W94693  34.543  33.112  14.297
24813W        W94694  36.559   1.875  14.364
24814W        W94695  42.305   8.685   4.154
24815W        W94696   4.205  26.639  10.576
24816W        W94697  21.561  31.994  12.886
24817W        W94698  42.517  34.459   0.828
24818W        W94699   3.711  24.023  10.536
24819W        W94700  22.571  34.978   3.852
24820W        W94701  43.379  14.591   0.415
24821W        W94702   1.251  43.999  13.547
24822W        W94703  33.881  42.813  10.430
24823W        W94704  43.924  25.655  14.449
24824W        W94705  40.504  31.612   1.896
24825W        W94706   7.244  19.272  12.861
24826W        W94707  16.615   7.721   4.153
24827W        W94708  41.537  10.754  11.596
24828W        W94709   0.343  32.490   1.429
24829W        W94710   3.219  31.020  10.963
24830W        W94711  26.582   1.843   3.770
24831W        W94712  27.613  42.401  11.450
24832W        W94713  34.525   8.367   1.379
24833W        W94714  33.564  13.699  13.452
24834W        W94715  34.945  15.291  10.531
24835W        W94716  40.475  21.630  14.856
24836W        W94717  43.836  39.994   3.747
24837W        W94718  40.825  26.995  13.851
24838W        W94719  31.005   0.753   2.209
24839W        W94720  41.954  15.206  12.450
24840W        W94721  12.320  43.332  14.940
24841W        W94722  14.154  13.126  13.318
24842W        W94723   4.383  16.202   2.307
24843W        W94724  40.375  12.774  12.565
24844W        W94725  41.380   9.666  13.815
24845W        W94726  36.556  10.853  13.917
24846W        W94727  23.120  40.037  11.913
24847W        W94728   0.875  11.702  12.955
24848W        W94729   7.221  16.272   3.663
24849W        W94730  36.544  27.024  12.942
24850W        W94731  40.994  35.912   0.435
24851W        W94732   0.279  17.232   2.729
24852W        W94733  11.155   2.730   2.871
24853W        W94734  13.274  27.532  13.507
24854W        W94735  10.258  40.997   4.219
24855W        W94736  40.868   0.309   3.204
24856W        W94737  14.735  26.523   3.209
24857W        W94738  22.059  42.414   0.797
24858W        W94739  16.289  38.367  11.484
24859W        W94740  15.210  21.635   3.771
24860W        W94741  13.272  41.799  14.856
24861W        W94742  21.723   8.276   3.869
24862W        W94743  33.582  10.167  13.064
24863W        W94744  17.606  18.275  10.906
24864W        W94745  15.775   9.320   0.440
24865W        W94746  28.181  14.621  13.478
24866W        W94747   1.284   5.753   1.927
24867W        W94748  17.203  40.831   3.273
24868W        W94749  22.668  12.267   3.365
24869W        W94750  37.560   1.790   3.334
24870W        W94751   1.366  37.516  11.412
24871W        W94752  25.143  32.573   0.781
24872W        W94753  12.122  29.581  11.083
24873W        W94754   4.396  31.411  13.792
24874W        W94755  27.996  26.144  10.405
24875W        W94756   7.287  19.672   3.724
24876W        W94757  25.575  26.013  12.826
24877W        W94758  43.847  24.591  13.860
24878W        W94759  16.586  34.048   2.277
24879W        W94760  37.578  21.025   1.779
24880W        W94761  31.918  27.669   1.370
24881W        W94762  44.949  41.016   1.805
24882W        W94763  17.177  41.506  13.055
24883W        W94764  31.594  30.647  13.814
24884W        W94765  31.104  40.412  14.512
24885W        W94766  12.698  16.127   9.475
24886W        W94767  21.591  35.045   4.654
24887W        W94768  11.313  10.302  14.914
24888W        W94769   8.748  28.038  13.357
24889W        W94770   5.861  27.115   3.257
24890W        W94771   9.875  25.682  14.459
24891W        W94772  29.454   1.793   0.949
24892W        W94773  13.254   3.406  12.579
24893W        W94774  27.096  24.996  10.427
24894W        W94775  12.189  18.742   0.875
24895W        W94776   3.307   1.775  14.495
24896W        W94777  20.052  25.067  11.050
24897W        W94778  38.906  21.034   1.918
24898W        W94779  17.669  32.600  12.455
24899W        W94780  43.012  18.245   4.808
24900W        W94781   9.813  16.127  13.865
24901W        W94782  26.468  35.393  10.643
24902W        W94783   6.914  43.301   1.319
24903W        W94784  43.885  24.208  12.028
24904W        W94785  43.967  35.896   0.382
24905W        W94786  34.119  43.490   1.881
24906W        W94787  36.459  23.190   0.287
24907W        W94788   4.767  44.992  14.811
24908W        W94789  37.990  40.054   1.356
24909W        W94790  40.509  43.871  13.442
24910W        W94791  41.911   0.784  11.017
24911W        W94792  35.873  14.829   1.330
24912W        W94793  19.206  24.541  14.897
24913W        W94794  19.777  36.410  11.070
24914W        W94795  24.134  25.127   0.925
24915W        W94796  25.053  24.654   0.286
24916W        W94797  32.886   4.927  10.581
24917W        W94798   9.689  14.759  13.035
24918W        W94799  11.201  31.148   3.184
24919W        W94800   3.236  24.079   4.712
24920W        W94801  35.486  10.351   0.330
24921W        W94802   8.734   0.433  12.365
24922W        W94803  13.105   5.298  13.456
24923W        W94804  44.846  42.484   4.708
24924W        W94805  22.636  39.530  11.909
24925W        W94806   5.812   8.742  13.970
24926W        W94807  27.094  38.565   2.300
24927W        W94808  42.298   9.833   1.232
24928W        W94809  43.935   0.401   0.814
24929W        W94810  29.948   2.443  14.945
24930W        W94811  41.919  28.543   2.773
24931W        W94812  31.593  28.955  12.546
24932W        W94813  12.219   1.381   1.316
24933W        W94814  23.074   7.403  13.441
24934W        W94815  14.103  16.784   1.780
24935W        W94816  38.827   6.903  11.040
24936W        W94817   3.315  21.261   1.364
24937W        W94818   6.702  31.519  12.041
24938W        W94819   0.985  34.061  13.471
24939W        W94820   3.837  24.609  13.862
24940W        W94821  14.821  11.837   3.699
24941W        W94822  17.243  23.138   4.257
24942W        W94823  25.486   7.707   0.385
24943W        W94824   8.251  10.850  13.953
24944W        W94825   3.396  36.454   4.781
24945W        W94826  42.026   9.685   0.354
24946W        W94827  23.556  37.037  12.517
24947W        W94828  15.087   9.385  12.549
24948W        W94829  27.585  26.542  13.372
24949W        W94830  43.819   8.764   2.693
24950W        W94831  20.617  36.884  14.997
24951W        W94832  14.708  28.598   0.246
24952W        W94833  26.117  12.311  12.438
24953W        W94834   9.389   7.374  12.893
24954W        W94835   5.787  38.343   3.167
24955W        W94836  27.623  19.684   2.360
24956W        W94837  16.257  16.666   4.837
24957W        W94838  10.871  11.840  10.900
24958W        W94839  26.209   9.838  12.392
24959W        W94840  29.622  15.192   3.235
24960W        W94841   7.786  21.042  13.803
24961W        W94842  13.224  41.377  10.470
24962W        W94843  39.364  40.018   0.385
24963W        W94844  22.594  17.089  12.949
24964W        W94845   8.400  39.925  11.947
24965W        W94846   5.358  12.196  13.858
24966W        W94847  16.740  26.007   1.849
24967W        W94848   7.719  25.512  14.827
24968W        W94849   3.390   1.275  14.460
24969W        W94850  22.018  32.978  14.307
24970W        W94851  42.927  41.883  14.997
24971W        W94852   1.306  30.012   2.769
24972W        W94853  28.591  26.619   3.190
24973W        W94854  26.062   1.480   3.669
24974W        W94855   1.801  41.529   2.404
24975W        W94856  22.118   9.822  11.448
24976W        W94857  34.480   6.351  14.980
24977W        W94858  11.321  19.635  14.771
24978W        W94859   1.351  37.012   4.641
24979W        W94860  23.154  26.059   4.775
24980W        W94861  34.985  39.990   2.767
24981W        W94862  44.923  21.034   0.820
24982W        W94863  30.535  17.218   2.225
24983W        W94864  39.974   5.277   3.353
24984W        W94865  17.778   0.378  11.913
24985W        W94866   0.393   4.862   2.830
24986W        W94867   6.403  37.026  11.088
24987W        W94868  21.652  25.699   2.387
24988W        W94869  42.309  28.534   1.915
24989W        W94870   4.273   2.299   2.899
24990W        W94871  26.177  12.192   4.335
24991W        W94872  13.129   6.372  11.389
24992W        W94873   1.837   8.785  14.350
24993W        W94874  23.654  42.852   3.313
24994W        W94875  37.461  44.886  12.438
24995W        W94876  28.677   5.438  11.459
24996W        W94877  27.048  43.408   1.409
24997W        W94878  28.471  39.452  12.532
24998W        W94879  41.410  40.319  14.469
24999W        W94880  43.508  16.283  11.478
25000W        W94881  33.581  41.511  10.032
25001W        W94882  12.702   7.385  11.079
25002W        W94883  43.864   9.266  14.890
25003W        W94884  41.514  30.000   3.152
25004W        W94885  12.279  14.799   0.294
25005W        W94886  32.608  23.988   1.918
25006W        W94887   8.292  21.136   2.359
25007W        W94888  29.023  10.220  14.902
25008W        W94889  33.074  16.292   0.437
25009W        W94890  16.677  22.150   3.779
25010W        W94891  14.172   4.381  11.031
25011W        W94892  21.216  11.265   1.749
25012W        W94893   3.743   0.948   0.753
25013W        W94894  12.700  23.070  10.483
25014W        W94895  32.128  37.887   3.834
25015W        W94896  33.529   7.797   0.734
25016W        W94897  18.291  14.324  11.064
25017W        W94898  29.499  24.651   1.305
25018W        W94899  43.850   8.254  14.289
25019W        W94900   1.296   2.251   2.225
25020W        W94901  33.391  38.568  10.144
25021W        W94902   7.269  34.596  11.050
25022W        W94903  29.608  38.013   3.284
25023W        W94904  14.636  31.569   4.227
25024W        W94905  23.159  27.149   4.708
25025W        W94906   9.276  20.264  12.577
25026W        W94907  29.945  20.689  12.018
25027W        W94908  39.989  35.358  13.791
25028W        W94909  16.662  19.631  13.063
25029W        W94910  39.389  15.711   3.289
25030W        W94911  17.214  44.844  13.434
25031W        W94912  25.116  15.313  11.385
25032W        W94913   8.790   6.384   3.730
25033W        W94914  15.657  43.771  13.519
25034W        W94915   1.851  39.910   3.274
25035W        W94916  28.467  13.706   2.219
25036W        W94917  33.116  31.024  11.872
25037W        W94918  13.751  32.599   0.804
25038W        W94919  19.567   5.890  14.837
25039W        W94920  38.448  15.822  10.541
25040W        W94921  39.024  32.035   2.799
25041W        W94922  43.962  25.168  12.403
25042W        W94923  30.131  31.152  14.340
25043W        W94924  35.961  28.154  14.862
25044W        W94925   9.837  27.022  10.510
25045W        W94926  35.512  18.575  13.974
25046W        W94927  24.482  12.751  14.782
25047W        W94928  14.714  28.186   2.807
25048W        W94929  17.226   9.800  11.575
25049W        W94930   5.335  10.236  13.537
25050W        W94931  30.147  34.605   0.298
25051W        W94932  16.692  17.282   2.192
25052W        W94933  34.042  20.270   3.279
25053W        W94934  37.408  39.481  10.574
25054W        W94935  10.339  12.645   4.133
25055W        W94936  33.019  36.858   4.682
25056W        W94937  44.322  22.683  11.466
25057W        W94938  36.427  27.145   0.305
25058W        W94939   0.293  44.757  10.626
25059W        W94940  42.025  33.426  12.903
25060W        W94941   2.258   3.452   5.143
25061W        W94942  30.058   0.976  12.964
25062W        W94943  24.974  42.813  14.001
25063W        W94944  42.958   9.747  12.574
25064W        W94945  11.656  18.273  12.846
25065W        W94946  44.331   5.225  14.424
25066W        W94947  10.781  37.361   3.202
25067W        W94948  42.327  37.982   2.308
25068W        W94949  10.354  30.093  13.896
25069W        W94950  16.289  34.944  13.523
25070W        W94951  36.851   7.227   4.623
25071W        W94952  24.227  24.664  13.959
25072W        W94953  28.003   2.783  10.114
25073W        W94954   8.223  27.454  12.029
25074W        W94955   1.775  16.658   0.388
25075W        W94956  35.388   3.840  10.535
25076W        W94957   2.300  18.578  13.423
25077W        W94958  42.399  41.468   1.317
25078W        W94959  31.555  37.506   3.831
25079W        W94960  36.090  24.591  10.425
25080W        W94961  31.136   8.267  13.989
25081W        W94962  35.900  40.528   2.408
25082W        W94963  40.325  37.343   1.244
25083W        W94964   1.411   6.428  14.805
25084W        W94965  13.670   4.277   0.860
25085W        W94966  40.000  11.349  14.299
25086W        W94967  27.620   8.301  14.396
25087W        W94968  27.976  27.097   0.939
25088W        W94969  20.543  18.736   3.209
25089W        W94970  41.944  29.098   1.277
25090W        W94971  43.939   3.253  11.455
25091W        W94972  15.297  27.561  13.317
25092W        W94973  11.313  41.030  14.438
25093W        W94974  22.103   3.848  13.344
25094W        W94975  17.724  17.286  12.997
25095W        W94976  10.635   8.216   0.454
25096W        W94977  19.757  32.033   0.779
25097W        W94978  38.366  10.365   4.165
25098W        W94979   3.317  35.515   3.789
25099W        W94980  10.307  31.120   1.403
25100W        W94981  36.359  42.821   5.171
25101W        W94982  13.685  37.065  13.484
25102W        W94983  29.466  14.692   1.727
25103W        W94984  36.524  14.216  13.832
25104W        W94985  18.742   2.743  14.345
25105W        W94986  22.048  10.764   3.692
25106W        W94987  23.083   8.205   1.857
25107W        W94988   3.222  24.546   1.720
25108W        W94989  44.859   9.272  14.315
25109W        W94990  17.616  16.155  12.454
25110W        W94991  23.003  15.604   1.269
25111W        W94992  30.122  36.067   3.257
25112W        W94993   6.293  35.494  10.934
25113W        W94994  36.880  23.227  11.387
25114W        W94995  20.265  37.883  11.383
25115W        W94996  19.748   1.274  12.339
25116W        W94997   3.367   5.904   1.383
25117W        W94998  14.692  22.248   4.281
25118W        W94999  43.783  39.924   4.334
25119W        W95000  13.705  24.526  13.532
25120W        W95001  39.403  36.076   2.255
25121W        W95002  25.514  12.135  13.009
25122W        W95003  16.120  25.645   1.341
25123W        W95004  19.694  29.026   0.728
25124W        W95005  40.461  31.985  10.160
25125W        W95006  43.900  30.031   0.811
25126W        W95007  13.336  37.929   2.186
25127W        W95008  41.501  11.203  14.348
25128W        W95009  11.193  15.746   2.776
25129W        W95010  16.299   0.847  13.967
25130W        W95011  23.018  41.810   4.774
25131W        W95012  14.636  40.303  13.495
25132W        W95013  37.373  33.408  14.924
25133W        W95014   3.361  38.431  10.949
25134W        W95015  41.910   3.264  14.974
25135W        W95016  24.507  39.839  12.536
25136W        W95017   0.463  30.139   1.244
25137W        W95018  12.630  21.024   2.864
25138W        W95019  29.602  44.826   3.319
25139W        W95020  37.014   5.362   4.808
25140W        W95021  12.122  17.127   4.698
25141W        W95022   2.395  39.045   0.395
25142W        W95023  26.017  35.422   3.738
25143W        W95024  42.463  38.415  12.440
25144W        W95025   9.248  20.749  12.483
25145W        W95026  38.001  43.787   4.122
25146W        W95027  38.364  35.038   1.712
25147W        W95028  13.277  16.318  10.643
25148W        W95029  22.049  26.630   1.701
25149W        W95030  29.037   4.926  11.428
25150W        W95031   3.739  40.905   0.375
25151W        W95032   8.239  30.539  13.976
25152W        W95033  37.571  20.743   2.223
25153W        W95034  20.616  38.477   4.833
25154W        W95035   4.217  31.578  14.990
25155W        W95036   0.856  18.267  10.956
25156W        W95037   6.244   1.451   0.483
25157W        W95038  10.192   6.915  14.876
25158W        W95039  19.550  12.122   4.602
25159W        W95040  11.261  15.215   1.728
25160W        W95041  32.058  39.518  10.457
25161W        W95042  43.020  12.806   1.887
25162W        W95043   9.771   3.768  12.464
25163W        W95044  15.210  42.354  12.908
25164W        W95045  23.604  42.906  13.426
25165W        W95046  44.883  17.605  13.313
25166W        W95047   2.834  30.501   3.370
25167W        W95048  27.981   9.695   3.263
25168W        W95049  27.042  10.283  10.115
25169W        W95050  25.083  37.396   9.962
25170W        W95051  16.293  25.677  10.978
25171W        W95052  28.120  28.650   4.227
25172W        W95053  25.987  43.271   3.330
25173W        W95054  24.530  28.979  14.467
25174W        W95055  26.964  29.938  12.906
25175W        W95056  20.757  39.910  10.637
25176W        W95057  27.665  41.979   0.842
25177W        W95058  43.875   1.927  12.460
25178W        W95059  39.324   9.268  13.491
25179W        W95060  24.184  16.623   2.679
25180W        W95061  31.600  19.165  12.033
25181W        W95062  44.375  20.632   2.286
25182W        W95063  36.998  17.761  13.309
25183W        W95064  14.698  41.842   0.916
25184W        W95065  19.719  20.692  11.943
25185W        W95066   9.236  26.637   0.242
25186W        W95067  32.130  42.932   1.907
25187W        W95068  44.922  22.551  14.316
25188W        W95069   6.314  39.061  14.862
25189W        W95070  34.401   7.901   1.820
25190W        W95071   0.777  22.636   1.747
25191W        W95072   2.293   0.296  14.430
25192W        W95073  22.157  30.945   2.873
25193W        W95074  40.391  22.221  10.630
25194W        W95075  13.311  23.045  14.374
25195W        W95076   0.754  26.173   0.928
25196W        W95077   6.393  24.168   4.324
25197W        W95078   7.870  16.275  11.498
25198W        W95079  24.064  17.131   5.290
25199W        W95080  29.438   0.885  10.466
25200W        W95081  24.584  41.432  13.480
25201W        W95082   6.340  12.150  11.470
25202W        W95083  23.105  21.124   4.151
25203W        W95084  44.305   4.755   4.181
25204W        W95085  44.905  32.097  13.920
25205W        W95086  29.046   2.964   0.464
25206W        W95087  38.511  18.112  11.100
25207W        W95088   1.245  35.909   4.354
25208W        W95089  17.206  25.064  13.364
25209W        W95090  40.416  13.827  11.560
25210W        W95091   6.349  36.857   1.419
25211W        W95092  24.534  25.978   1.807
25212W        W95093  28.959   8.799  13.873
25213W        W95094  17.306  20.737  11.508
25214W        W95095  14.794  26.654  10.428
25215W        W95096  40.526  34.062  13.881
25216W        W95097  38.439  30.434   3.259
25217W        W95098  22.551   8.829   3.177
25218W        W95099  14.303  13.616  11.531
25219W        W95100  11.795  41.295   1.234
25220W        W95101  38.013  19.219  11.877
25221W        W95102   1.398  43.880  10.595
25222W        W95103  13.755  27.664   1.748
25223W        W95104  23.668  19.257   1.292
25224W        W95105   3.775  35.040   2.740
25225W        W95106  41.380  25.048   5.311
25226W        W95107  15.287  35.098  13.415
25227W        W95108  12.705   1.967  14.492
25228W        W95109   9.186  10.182  14.375
25229W        W95110  17.131   1.875  11.107
25230W        W95111   5.827  33.892  13.935
25231W        W95112   5.908  36.529   2.184
25232W        W95113   0.750  34.471   3.741
25233W        W95114  22.667   5.750   3.328
25234W        W95115  30.001  22.029  10.955
25235W        W95116  14.612   6.794  14.837
25236W        W95117  35.566   4.446  12.902
25237W        W95118  16.149  12.798  12.084
25238W        W95119  12.705  38.415   1.381
25239W        W95120  35.395  19.076  12.071
25240W        W95121  13.203  10.655   3.764
25241W        W95122  20.617   9.694  10.574
25242W        W95123  14.758  10.699   0.340
25243W        W95124  33.523   2.766   2.881
25244W        W95125  16.289   3.454   4.814
25245W        W95126  30.603  11.660  13.041
25246W        W95127  39.382   4.264  14.301
25247W        W95128  33.441   6.699  14.454
25248W        W95129  26.552   6.798  14.392
25249W        W95130  37.015  29.041  10.935
25250W        W95131  39.943  16.618  12.492
25251W        W95132  21.752  38.441  10.598
25252W        W95133  25.543  14.177  10.119
25253W        W95134  20.204   4.255  12.425
25254W        W95135  42.837   4.768   0.316
25255W        W95136  41.848  29.999  14.835
25256W        W95137  10.249   6.319   0.888
25257W        W95138  27.524  21.162   2.411
25258W        W95139   4.283  22.210   1.798
25259W        W95140  38.988  44.846  14.349
25260W        W95141   1.427  23.624  14.494
25261W        W95142  15.197  29.925   4.191
25262W        W95143  13.712  39.340   1.809
25263W        W95144  36.527  33.411   3.216
25264W        W95145  29.116   1.440  14.346
25265W        W95146  21.755  24.629   3.736
25266W        W95147  33.404  29.004   1.770
25267W        W95148  44.361   8.655  13.518
25268W        W95149  22.131  34.456   0.462
25269W        W95150  24.670  30.935   4.825
25270W        W95151  35.034   8.352   4.804
25271W        W95152   1.917  44.881  11.522
25272W        W95153  12.152  15.246  12.091
25273W        W95154  32.411  38.047   1.282
25274W        W95155  26.184  17.584  12.848
25275W        W95156  18.736  30.626   0.335
25276W        W95157  28.083   6.748  12.426
25277W        W95158   6.284  32.967  14.913
25278W        W95159  11.269  26.140   2.195
25279W        W95160  13.819  42.775   2.781
25280W        W95161  23.507  34.545  11.019
25281W        W95162  33.566  10.843   4.773
25282W        W95163  34.384   2.461   0.738
25283W        W95164  25.988  37.547   4.698
25284W        W95165   9.692   5.382   1.329
25285W        W95166  23.717   9.319  11.594
25286W        W95167  32.526   3.935   4.777
25287W        W95168   3.234  10.197   0.274
25288W        W95169  10.634   7.203   1.334
25289W        W95170   3.847  11.680  11.989
25290W        W95171   7.188  35.486   3.290
25291W        W95172  23.542  22.137   4.666
25292W        W95173   7.842  18.558   0.861
25293W        W95174  18.546  23.509  11.096
25294W        W95175   3.896  40.541  12.906
25295W        W95176  20.684   5.730  14.314
25296W        W95177  22.228  17.667  11.541
25297W        W95178  16.257  29.498   3.229
25298W        W95179  36.012  21.246  14.964
25299W        W95180  41.988  42.311   4.825
25300W        W95181  21.089  24.016   0.802
25301W        W95182   3.248  26.162  13.414
25302W        W95183  35.436  18.569   0.317
25303W        W95184  13.173  31.640  14.434
25304W        W95185  29.625  35.061  13.005
25305W        W95186  15.235  28.076  12.459
25306W        W95187  15.715  34.927   2.240
25307W        W95188   8.816   2.349  12.943
25308W        W95189   4.928   7.718   0.302
25309W        W95190  19.186  28.499  11.401
25310W        W95191  22.693  12.626  11.483
25311W        W95192   2.848  22.675   4.730
25312W        W95193  28.058  10.371   3.335
25313W        W95194   2.441  29.005  10.532
25314W        W95195  41.507  16.702  12.548
25315W        W95196  22.613  35.036   2.733
25316W        W95197  28.155  14.137   4.313
25317W        W95198  42.296  28.600  11.039
25318W        W95199  22.622   1.835  12.432
25319W        W95200   5.293  12.780   2.898
25320W        W95201   7.876  20.114  14.338
25321W        W95202  18.673  18.201  14.861
25322W        W95203  22.186  38.396   4.287
25323W        W95204  38.490  30.452  12.518
25324W        W95205  17.260  27.602  11.578
25325W        W95206   9.207  18.121  10.426
25326W        W95207  10.747  43.769   2.699
25327W        W95208   0.478  15.179   1.384
25328W        W95209  28.027  11.810   5.181
25329W        W95210  12.811  31.020  12.580
25330W        W95211  19.647  17.801  13.392
25331W        W95212   5.845  38.543  12.028
25332W        W95213  34.443   0.894   4.170
25333W        W95214  17.197  44.461   0.342
25334W        W95215  12.121  16.724  12.945
25335W        W95216  17.230   4.227   2.817
25336W        W95217   8.178  26.966  10.972
25337W        W95218  40.468  12.751  10.089
25338W        W95219   6.853  44.341  14.349
25339W        W95220  24.566  36.079  11.385
25340W        W95221  34.989  38.469  11.443
25341W        W95222  35.989  26.503   3.222
25342W        W95223  41.362  11.274   0.919
25343W        W95224  27.046  18.586   4.730
25344W        W95225  28.525  13.338  13.317
25345W        W95226  23.184  22.658   0.742
25346W        W95227  16.294  39.815   0.388
25347W        W95228  36.375   2.312  12.410
25348W        W95229   1.829   2.870  14.014
25349W        W95230  31.948  41.363  14.925
25350W        W95231   9.648  24.577   2.902
25351W        W95232  27.130  38.519   1.242
25352W        W95233  31.924   4.206   0.405
25353W        W95234  20.136  32.993  13.471
25354W        W95235  40.892  22.008   3.709
25355W        W95236  23.538   8.207   1.337
25356W        W95237   8.316  13.284  11.578
25357W        W95238  10.677   6.813   1.356
25358W        W95239   0.358  40.317   1.923
25359W        W95240  19.136  29.645  11.101
25360W        W95241  14.802  36.593   5.750
25361W        W95242  16.221  24.149   1.713
25362W        W95243  22.675  13.309   2.265
25363W        W95244  27.113   7.257   4.831
25364W        W95245  21.247  28.673   4.693
25365W        W95246  38.367  20.178   3.700
25366W        W95247  19.156  33.489   2.332
25367W        W95248  11.711  32.568  11.585
25368W        W95249  18.123  38.570  14.497
25369W        W95250  29.445  19.094   4.128
25370W        W95251   2.940  24.630   1.295
25371W        W95252   7.818  11.196   0.875
25372W        W95253  24.514  31.058   3.863
25373W        W95254   0.937  13.694  11.419
25374W        W95255  22.616  10.868  14.974
25375W        W95256  39.456   1.759  14.014
25376W        W95257  30.980   0.362   4.660
25377W        W95258  35.530   0.777   5.700
25378W        W95259  16.648  36.471   2.278
25379W        W95260  42.904  13.218  12.871
25380W        W95261  23.199  44.835   2.692
25381W        W95262  29.983   8.202   5.646
25382W        W95263  39.969  41.302  14.867
25383W        W95264  27.500  22.630  13.313
25384W        W95265  33.012  25.202   4.222
25385W        W95266   3.369   0.788  11.993
25386W        W95267   1.357  41.515  11.563
25387W        W95268  32.142  36.483   4.333
25388W        W95269  16.726  41.946  13.358
25389W        W95270   4.437   8.791  14.854
25390W        W95271  10.241  10.235   5.223
25391W        W95272  26.607   1.255   4.646
25392W        W95273  28.644   1.289  10.517
25393W        W95274  27.178  41.384   0.935
25394W        W95275  10.295  30.645   0.899
25395W        W95276  40.320  19.676   3.341
25396W        W95277  15.609  24.082   1.844
25397W        W95278  15.658  12.337  11.037
25398W        W95279  29.547  38.338   0.463
25399W        W95280  41.402  33.384  13.520
25400W        W95281  28.179  26.671   0.300
25401W        W95282  34.570  18.258  11.085
25402W        W95283   3.788   7.377  11.469
25403W        W95284  38.494  23.051   1.321
25404W        W95285  28.102  20.056   2.745
25405W        W95286   3.778   3.828  12.924
25406W        W95287  18.590  21.236   4.199
25407W        W95288  44.306  35.913   0.846
25408W        W95289  24.564  39.325  11.550
25409W        W95290   1.745   9.653  13.428
25410W        W95291  38.475  28.589   0.864
25411W        W95292  43.340   2.332   0.309
25412W        W95293   3.750  13.732  13.496
25413W        W95294  14.327  41.861   1.901
25414W        W95295  23.033  39.469  13.924
25415W        W95296  20.668  44.285   4.816
25416W        W95297  20.624  27.655   5.639
25417W        W95298  21.027   2.795  13.503
25418W        W95299  13.237   3.813   3.233
25419W        W95300  41.014  13.676  12.399
25420W        W95301  20.192   2.358  10.404
25421W        W95302  33.953   0.445   2.228
25422W        W95303   3.841  10.794   1.868
25423W        W95304  39.384  37.877  13.888
25424W        W95305  11.821   1.359  14.507
25425W        W95306  22.655  21.725  13.949
25426W        W95307  17.600  18.277  13.491
25427W        W95308  10.264  24.690  11.612
25428W        W95309  23.990   6.789   2.682
25429W        W95310  23.144   2.242  14.419
25430W        W95311  38.033   2.407  12.439
25431W        W95312  11.683  34.055   4.716
25432W        W95313  27.164  23.095  10.638
25433W        W95314  34.066  11.354   0.247
25434W        W95315  34.908  18.219   3.260
25435W        W95316  12.262  11.184  13.882
25436W        W95317  13.826  33.917  14.949
25437W        W95318   7.212  23.613   2.781
25438W        W95319   1.401  42.300   1.792
25439W        W95320  38.836  42.475  14.785
25440W        W95321  26.677  35.568  10.993
25441W        W95322  36.504  14.189   1.430
25442W        W95323  23.566   6.864   0.818
25443W        W95324   8.322  20.244  12.888
25444W        W95325  24.999  13.672  14.439
25445W        W95326  18.597  24.648   1.302
25446W        W95327   4.901  23.092  12.969
25447W        W95328  30.472  12.208  14.498
25448W        W95329  37.431  20.731   3.787
25449W        W95330  36.868   5.329   3.195
25450W        W95331  11.849  20.081  10.949
25451W        W95332  27.074  32.053  14.987
25452W        W95333  36.841   5.289  11.454
25453W        W95334  16.297  27.130   4.724
25454W        W95335  35.494   0.402   2.745
25455W        W95336  23.505   2.929   4.143
25456W        W95337   2.950  10.316   2.818
25457W        W95338   5.689  43.976  13.420
25458W        W95339  43.492   6.880  13.433
25459W        W95340   2.434  19.220  11.981
25460W        W95341  29.669  18.185  13.916
25461W        W95342  16.285  34.979   1.914
25462W        W95343  11.314  12.297   2.279
25463W        W95344  14.798  15.292  12.523
25464W        W95345  17.297  11.275   2.849
25465W        W95346  33.549  22.521  11.557
25466W        W95347  37.896  31.416  10.983
25467W        W95348  40.008  24.488   2.377
25468W        W95349  10.166   6.694  11.090
25469W        W95350   3.322  12.174   1.766
25470W        W95351  19.770  32.026   2.397
25471W        W95352   2.411  37.572   3.291
25472W        W95353  13.153  30.053   4.176
25473W        W95354  39.523  44.279   4.173
25474W        W95355  23.005   6.366  11.016
25475W        W95356  31.597  23.661  11.578
25476W        W95357  22.017  28.584   3.271
25477W        W95358  41.429  28.673   2.847
25478W        W95359  16.581  44.845   2.183
25479W        W95360   4.318  36.989  12.044
25480W        W95361  32.062   7.280   0.858
25481W        W95362  28.476  21.020   0.383
25482W        W95363  40.362  33.064   3.157
25483W        W95364  30.924  28.059   1.906
25484W        W95365   7.363  33.500  12.511
25485W        W95366   2.384  43.508  13.410
25486W        W95367   2.929   6.813  10.466
25487W        W95368  26.151   1.849   4.716
25488W        W95369  36.944  21.223  11.963
25489W        W95370  34.108  26.014  14.825
25490W        W95371  29.058  13.687  13.001
25491W        W95372  28.084  43.893  14.411
25492W        W95373  11.265  22.232  10.934
25493W        W95374   0.489  19.620   4.623
25494W        W95375  24.177   2.914  10.558
25495W        W95376  41.009   4.425   0.748
25496W        W95377  43.936  17.108  13.030
25497W        W95378  44.320  18.270   4.661
25498W        W95379   1.797  16.805  13.351
25499W        W95380  23.673  10.829   0.364
25500W        W95381   7.229  17.109  12.423
25501W        W95382  28.015  10.803   0.334
25502W        W95383  16.572   8.366   0.749
25503W        W95384  15.703  35.369  11.925
25504W        W95385  11.674  31.896  13.410
25505W        W95386  34.379  17.796  13.317
25506W        W95387  15.787   0.288  13.432
25507W        W95388   4.216  28.936   2.182
25508W        W95389  18.148   4.723  13.955
25509W        W95390  39.486  12.303  14.978
25510W        W95391  32.486  30.536  13.311
25511W        W95392  11.193   4.264  10.641
25512W        W95393  35.105  19.128  13.857
25513W        W95394  41.838  37.505   1.705
25514W        W95395  27.591  22.514   0.431
25515W        W95396  33.409  36.543   1.884
25516W        W95397  17.700  10.723   0.900
25517W        W95398  22.716  17.264   5.293
25518W        W95399  41.350   6.285  14.303
25519W        W95400  29.168   9.329  13.064
25520W        W95401  27.454  40.388   3.684
25521W        W95402  23.554   6.821  13.797
25522W        W95403  21.035   2.753   3.237
25523W        W95404   8.327  43.985   1.448
25524W        W95405   2.387  29.995   4.215
25525W        W95406  14.601  19.692  13.547
25526W        W95407   0.958  28.998  10.490
25527W        W95408  15.156  17.090  12.941
25528W        W95409  27.627  13.751  14.301
25529W        W95410  31.574  11.294  10.421
25530W        W95411  16.796   5.714  13.480
25531W        W95412  41.033  12.675   1.431
25532W        W95413  30.065   5.205   5.291
25533W        W95414  28.171  38.987  13.964
25534W        W95415   6.297  38.062  14.473
25535W        W95416  28.120  44.770  11.505
25536W        W95417  20.165  37.340   4.255
25537W        W95418  30.649  41.334   4.259
25538W        W95419  40.413  36.071  13.844
25539W        W95420  30.009  33.928  11.945
25540W        W95421  40.503  30.013   0.467
25541W        W95422  26.486  43.346   0.836
25542W        W95423   1.244  17.186   4.778
25543W        W95424  37.501  36.534  10.496
25544W        W95425  12.852  22.043   1.340
25545W        W95426  21.227  14.757   2.316
25546W        W95427  38.550  43.988  11.906
25547W        W95428  40.316  40.488   2.184
25548W        W95429  26.095  43.781  14.467
25549W        W95430  28.146  15.111  11.602
25550W        W95431  22.226  39.908  14.411
25551W        W95432  41.862  24.584  10.925
25552W        W95433   1.939  33.124   3.377
25553W        W95434  33.578   2.229  12.401
25554W        W95435   7.289  21.571   1.272
25555W        W95436  32.613  28.636   4.335
25556W        W95437   7.401  43.777  10.607
25557W        W95438  44.758  36.086  13.028
25558W        W95439  33.618  41.034  10.452
25559W        W95440   2.778  29.503  13.011
25560W        W95441  26.119  14.159  11.939
25561W        W95442   6.234  23.540  10.887
25562W        W95443  34.883  41.822  13.902
25563W        W95444  43.869  33.437  13.437
25564W        W95445  39.883   5.392   4.734
25565W        W95446   6.299  44.372   2.264
25566W        W95447  29.060  30.954   1.422
25567W        W95448  14.147  23.194  13.981
25568W        W95449  26.992  26.133  12.352
25569W        W95450  41.794   2.306  14.029
25570W        W95451  31.922   4.379  12.570
25571W        W95452  32.533  32.453  12.390
25572W        W95453  10.174  42.994  12.882
25573W        W95454   8.719  44.285   4.173
25574W        W95455  32.542  29.501  13.524
25575W        W95456   0.757  17.636  10.607
25576W        W95457  22.524  17.575  11.462
25577W        W95458  21.230  32.905   1.866
25578W        W95459  23.189  22.746  14.984
25579W        W95460   7.212  41.018  11.462
25580W        W95461  28.002   5.268  11.987
25581W        W95462  24.585  31.946  12.053
25582W        W95463  18.749   7.315   2.177
25583W        W95464   8.675  40.433  11.974
25584W        W95465  18.681  28.157  14.020
25585W        W95466  38.513   8.759   3.855
25586W        W95467   0.457  35.524  14.900
25587W        W95468  16.582   8.287  11.963
25588W        W95469  18.213  38.484  10.905
25589W        W95470  30.473  43.831   3.329
25590W        W95471  27.553  14.137   2.752
25591W        W95472  33.569  21.236   3.174
25592W        W95473   4.352  20.713   3.145
25593W        W95474  19.134  35.560  13.897
25594W        W95475  23.651  26.663   0.335
25595W        W95476  34.382  13.844   1.268
25596W        W95477  39.463  13.272  14.446
25597W        W95478   1.971  23.188   4.731
25598W        W95479  22.249  37.975   4.701
25599W        W95480  25.686  24.635  10.560
25600W        W95481   3.756  25.582  12.482
25601W        W95482  17.560  37.341   2.360
25602W        W95483  26.545   8.659   3.863
25603W        W95484   5.408  22.014  12.568
25604W        W95485  25.655  26.494  13.516
25605W        W95486  11.134  44.878  11.939
25606W        W95487  35.444   0.316   5.297
25607W        W95488  35.949  23.550   4.666
25608W        W95489  12.742   7.280   2.843
25609W        W95490  39.003  37.500   5.228
25610W        W95491  31.510  42.341   3.834
25611W        W95492  23.995  24.083  14.927
25612W        W95493  17.563  31.897   2.364
25613W        W95494  12.229  33.487   1.847
25614W        W95495  27.118  33.390   3.690
25615W        W95496  24.007  21.750  10.905
25616W        W95497   1.822  29.605   3.178
25617W        W95498  22.066  20.030   1.906
25618W        W95499   7.364  38.964  14.922
25619W        W95500  10.163  22.206   2.372
25620W        W95501  32.433  21.585  14.898
25621W        W95502  37.503  38.454   2.242
25622W        W95503  25.572  35.399  13.543
25623W        W95504  22.210  12.768  12.006
25624W        W95505  33.941  12.300   4.148
25625W        W95506   3.716  34.485   0.267
25626W        W95507   8.397  38.825  10.957
25627W        W95508  44.010  34.921  13.855
25628W        W95509   0.411   0.316  12.391
25629W        W95510  15.582  39.390   4.821
25630W        W95511   6.268  21.513  11.565
25631W        W95512  41.459  42.490   3.649
25632W        W95513   7.367  21.745   1.856
25633W        W95514  42.337  22.571  14.847
25634W        W95515   3.230   0.947   0.400
25635W        W95516  25.688  38.565   0.774
25636W        W95517  17.617  17.118  11.078
25637W        W95518  30.652   1.407   0.402
25638W        W95519  20.710  13.642  12.032
25639W        W95520  13.326  40.946  14.872
25640W        W95521  25.660  20.258  11.012
25641W        W95522  22.552  42.475  10.444
25642W        W95523   8.288   1.966  10.956
25643W        W95524  34.500  34.601  12.366
25644W        W95525  44.925  42.300  14.890
25645W        W95526  34.055  33.033   1.696
25646W        W95527  26.504  27.513  10.449
25647W        W95528  24.107   4.821   4.161
25648W        W95529  22.252  30.066   3.333
25649W        W95530  12.643  38.457   2.389
25650W        W95531  32.109  14.265  14.996
25651W        W95532  17.221   6.767  13.852
25652W        W95533  24.227   7.739  12.958
25653W        W95534   6.296  16.810   1.380
25654W        W95535  28.142  15.757   3.328
25655W        W95536  29.156  29.136  13.874
25656W        W95537  21.117  29.939   1.387
25657W        W95538  24.035   8.871  10.576
25658W        W95539  25.130  27.640   1.303
25659W        W95540  12.833  33.415  12.416
25660W        W95541  31.479  24.705   1.798
25661W        W95542   0.848  34.877  10.621
25662W        W95543  10.339  20.177  14.965
25663W        W95544  21.540  23.990   0.413
25664W        W95545   8.725   7.785  12.521
25665W        W95546   8.217  33.505  11.436
25666W        W95547  21.131  36.505  12.509
25667W        W95548   2.283  33.626  10.544
25668W        W95549  23.111  18.253  10.572
25669W        W95550  11.261   0.926  10.512
25670W        W95551  37.467  24.514   2.681
25671W        W95552  21.674  21.702  11.050
25672W        W95553  31.969  32.584  11.947
25673W        W95554   6.709  18.724  11.963
25674W        W95555  32.109  24.993   2.688
25675W        W95556  35.005  30.088  13.378
25676W        W95557   3.743  23.708  13.458
25677W        W95558  15.605  40.432  12.938
25678W        W95559   7.309  10.328   2.311
25679W        W95560  17.556  17.775  10.517
25680W        W95561  34.971  15.304   4.671
25681W        W95562   8.729  41.003  14.349
25682W        W95563  35.011  29.584   2.840
25683W        W95564  15.125  32.081  11.589
25684W        W95565  28.994  34.516   0.446
25685W        W95566   4.889   5.765   0.295
25686W        W95567  14.296  43.820  10.924
25687W        W95568  14.281  18.240   2.902
25688W        W95569  32.032  35.429  14.873
25689W        W95570  13.276  25.993   1.230
25690W        W95571  10.763   2.748   2.340
25691W        W95572  20.267  30.104  12.342
25692W        W95573  35.984  29.118   4.209
25693W        W95574  40.842  13.173   0.867
25694W        W95575  11.711  27.618   4.769
25695W        W95576  33.417  29.620   1.815
25696W        W95577  35.438  44.920  13.932
25697W        W95578  40.342   5.915  13.498
25698W        W95579   5.751   5.739  12.362
25699W        W95580  29.989   1.737   1.712
25700W        W95581   4.727  20.543   1.903
25701W        W95582  42.904  29.167   4.275
25702W        W95583   9.266  19.750  12.846
25703W        W95584   0.742  29.049   1.445
25704W        W95585  37.418  17.683  11.373
25705W        W95586  28.965  36.404  12.513
25706W        W95587  22.093  14.602  14.510
25707W        W95588  22.639  32.544  14.007
25708W        W95589  27.066  42.354   1.336
25709W        W95590   4.732  36.478  11.998
25710W        W95591  32.951  21.077  14.012
25711W        W95592  18.052  32.461   2.337
25712W        W95593  41.429   8.659   0.426
25713W        W95594  14.312  38.853   4.689
25714W        W95595  22.100  33.518  13.534
25715W        W95596  11.750  12.144   3.775
25716W        W95597  38.449  37.877  13.968
25717W        W95598   1.394  20.207   4.340
25718W        W95599  39.832  25.966  10.566
25719W        W95600  12.796   2.798   0.966
25720W        W95601  20.540  36.954  13.983
25721W        W95602   5.346  33.050  10.627
25722W        W95603  40.422  25.650  13.980
25723W        W95604   0.939  12.254  14.797
25724W        W95605  22.651  30.500   4.602
25725W        W95606  18.259   1.950   4.829
25726W        W95607   2.868  22.240   3.650
25727W        W95608  39.939  31.526  12.877
25728W        W95609   9.878  24.079   4.645
25729W        W95610  26.203  21.748   4.209
25730W        W95611   2.289   9.780  13.996
25731W        W95612  20.672   2.464  13.429
25732W        W95613  12.128  20.650  11.566
25733W        W95614  19.240  24.670   3.307
25734W        W95615  44.375   5.760   0.900
25735W        W95616  38.429  36.581   4.192
25736W        W95617   9.193   0.903  10.557
25737W        W95618  26.557  28.133  14.915
25738W        W95619  41.303   2.803  12.416
25739W        W95620  32.021  40.950   4.135
25740W        W95621   2.908  19.751  12.991
25741W        W95622  23.138  21.572  10.455
25742W        W95623  44.838  33.065   4.610
25743W        W95624  31.105  32.430  13.918
25744W        W95625  38.380   0.783   9.958
25745W        W95626  34.533   1.266  14.017
25746W        W95627  29.452  19.597   3.864
25747W        W95628  29.534  13.181  12.846
25748W        W95629  26.599  29.504   1.876
25749W        W95630  10.637   6.203  12.855
25750W        W95631   5.304  39.453   3.202
25751W        W95632  17.716  30.976  14.360
25752W        W95633  41.826  24.671   3.263
25753W        W95634  23.563   7.811   2.723
25754W        W95635  39.361  43.340   4.288
25755W        W95636  11.737  16.195   1.252
25756W        W95637  25.040  11.127  11.956
25757W        W95638  24.602  34.995  12.874
25758W        W95639  10.707  29.432  11.079
25759W        W95640   0.404   8.240   3.280
25760W        W95641  15.698  38.898  11.012
25761W        W95642  40.886  20.055   0.445
25762W        W95643   0.745   0.882  14.394
25763W        W95644  37.844  18.665  12.544
25764W        W95645  11.189  39.041  13.858
25765W        W95646  39.326  36.497   4.312
25766W        W95647  20.663  19.174  14.321
25767W        W95648  16.773  25.600   2.801
25768W        W95649  26.557  42.959  12.019
25769W        W95650   6.327   3.839   1.787
25770W        W95651  28.024   5.198  12.499
25771W        W95652  31.517   5.201   3.293
25772W        W95653   2.411  39.411   3.271
25773W        W95654   2.271  29.058  12.556
25774W        W95655  39.944  35.036  10.495
25775W        W95656  36.872  24.166   0.287
25776W        W95657   5.918  19.205   3.825
25777W        W95658  24.604  14.330  10.962
25778W        W95659  15.089   0.789  10.597
25779W        W95660  27.575  18.202   4.674
25780W        W95661  18.712   3.238   2.857
25781W        W95662  44.845  15.139  12.938
25782W        W95663  37.518  36.012   0.960
25783W        W95664   8.262  38.008   2.319
25784W        W95665  37.449   2.305  14.462
25785W        W95666  39.549  12.743  11.505
25786W        W95667  17.719  43.826   0.365
25787W        W95668  36.081  35.015   4.604
25788W        W95669  32.499   0.887   3.361
25789W        W95670  15.789  36.032   3.246
25790W        W95671  42.991  19.066  12.962
25791W        W95672  14.275   2.320  13.829
25792W        W95673  13.121  42.006  10.550
25793W        W95674  23.237  17.797   2.669
25794W        W95675  43.323  40.972  13.466
25795W        W95676  38.468  19.612  12.458
25796W        W95677  12.691  41.840  13.821
25797W        W95678   7.236   2.347   1.323
25798W        W95679  44.432  14.652  13.968
25799W        W95680  26.575   8.893  12.514
25800W        W95681  23.706  11.734  12.479
25801W        W95682   6.914  18.565   1.822
25802W        W95683  17.261  20.678  14.494
25803W        W95684  36.453   4.395   3.207
25804W        W95685  12.716  22.723   0.840
25805W        W95686  25.074  18.057  12.359
25806W        W95687  30.646  41.987   3.657
25807W        W95688   0.349  35.551  11.447
25808W        W95689   8.694  18.775  13.901
25809W        W95690  21.565  16.193  12.577
25810W        W95691  19.562  16.174  14.279
25811W        W95692  24.561   6.282  12.930
25812W        W95693   7.261  16.663  12.536
25813W        W95694  14.595   2.861  12.965
25814W        W95695  34.025  26.631  14.464
25815W        W95696  26.009  39.829   4.134
25816W        W95697  30.956  33.540   1.445
25817W        W95698  11.345  14.332  10.443
25818W        W95699  32.887  22.177   2.683
25819W        W95700  18.780  17.101  14.283
25820W        W95701  42.991  26.533  12.501
25821W        W95702  32.545  20.083   3.369
25822W        W95703  17.560  26.068  14.378
25823W        W95704   6.761   6.425   2.707
25824W        W95705  22.172  41.898   0.800
25825W        W95706   8.761  23.589   1.905
25826W        W95707  34.582   9.251  12.540
25827W        W95708   7.279  10.840   4.251
25828W        W95709  20.598  36.397  14.439
25829W        W95710  28.482   0.951   0.758
25830W        W95711  15.796   7.721   2.278
25831W        W95712   6.278  41.994   0.470
25832W        W95713  20.586  39.901   0.326
25833W        W95714  23.220  25.073  10.417
25834W        W95715  43.333  32.021  10.972
25835W        W95716   4.318  27.001  13.831
25836W        W95717  43.833  34.536   4.299
25837W        W95718  22.995   9.210  12.497
25838W        W95719   4.854  33.406   1.368
25839W        W95720  23.009  40.903   4.137
25840W        W95721  10.173  25.084   3.369
25841W        W95722  16.197  16.189   1.397
25842W        W95723  12.838  32.978   0.320
25843W        W95724  22.014  18.724   2.400
25844W        W95725  28.475  36.378  12.873
25845W        W95726  21.735  15.677   0.420
25846W        W95727  43.833  12.717  14.831
25847W        W95728   3.758  32.570   4.114
25848W        W95729   8.230  37.041  14.304
25849W        W95730  12.842  41.013  12.959
25850W        W95731   0.946  40.347  13.361
25851W        W95732   9.889  30.558   2.843
25852W        W95733  15.151  14.770  13.941
25853W        W95734  10.665  35.073   1.380
25854W        W95735  22.656   6.818   2.792
25855W        W95736  34.910  13.313   1.825
25856W        W95737  14.692  40.356   4.260
25857W        W95738  44.885  43.415  11.420
25858W        W95739  38.362  34.052  14.027
25859W        W95740  26.064  44.473   0.478
25860W        W95741  26.017  26.173  12.825
25861W        W95742   1.307  17.257   4.303
25862W        W95743  19.156  11.188   4.636
25863W        W95744  38.015  20.616   0.753
25864W        W95745  23.719  38.397  11.434
25865W        W95746  36.460   0.381  10.995
25866W        W95747  42.787   1.739  14.382
25867W        W95748   7.399   8.852  14.334
25868W        W95749  10.635  20.544   2.379
25869W        W95750  14.123  25.073   3.791
25870W        W95751  39.960  23.552   2.766
25871W        W95752  28.184  33.940  12.058
25872W        W95753  42.282   7.255   1.361
25873W        W95754  19.190   4.869  12.950
25874W        W95755  34.509  13.297   4.306
25875W        W95756  28.069   1.410   1.891
25876W        W95757  25.618  19.047  14.991
25877W        W95758   0.290  19.777  14.296
25878W        W95759   1.852  13.133  12.521
25879W        W95760   3.356  32.056  12.060
25880W        W95761  36.353   5.784   3.802
25881W        W95762  41.950   9.808   1.314
25882W        W95763  40.965  30.635  11.400
25883W        W95764   5.927  43.377  10.950
25884W        W95765   2.733   7.374  12.397
25885W        W95766  18.742  33.498   5.178
25886W        W95767  26.572  15.621   3.848
25887W        W95768   3.777  30.537  11.110
25888W        W95769  11.742  22.067  14.795
25889W        W95770  26.465  11.291  11.410
25890W        W95771   2.374  13.315   4.322
25891W        W95772  20.255  35.954  12.066
25892W        W95773   9.712  30.067  12.975
25893W        W95774  32.984   8.786   1.900
25894W        W95775  28.674  35.436  14.307
25895W        W95776  11.223   2.810   0.751
25896W        W95777  15.633  22.536   2.729
25897W        W95778  28.046   5.194  10.641
25898W        W95779   5.366  41.375   1.419
25899W        W95780  17.560  11.762  13.509
25900W        W95781  44.270  13.609  10.138
25901W        W95782  44.320  18.124   4.280
25902W        W95783  12.818  16.126   3.862
25903W        W95784  42.889  35.974  13.912
25904W        W95785   5.727  13.759   1.755
25905W        W95786  38.956  37.556  10.602
25906W        W95787  35.461  34.010   4.677
25907W        W95788  44.869  38.017   0.734
25908W        W95789  34.393   0.351  14.342
25909W        W95790   2.868  25.560  11.864
25910W        W95791  42.390  26.078  10.418
25911W        W95792  37.356  43.451  11.935
25912W        W95793   1.785  18.050  14.322
25913W        W95794  34.951  25.019   3.386
25914W        W95795  31.147  20.129  12.008
25915W        W95796   9.824   9.767   2.347
25916W        W95797  15.624  31.988   0.806
25917W        W95798  28.000  21.230  13.820
25918W        W95799  37.560  42.440  11.423
25919W        W95800  20.246  15.100   2.202
25920W        W95801  12.852  28.123   1.357
25921W        W95802  21.719   7.391  10.947
25922W        W95803   0.291  20.155  13.026
25923W        W95804  23.674  18.293  14.841
25924W        W95805  33.897  28.001  14.946
25925W        W95806  34.970   5.737   0.353
25926W        W95807   4.914  14.715   1.845
25927W        W95808  27.048  23.026   1.808
25928W        W95809  12.841  10.824   3.631
25929W        W95810  15.642  20.146  13.320
25930W        W95811  12.629  28.027  12.094
25931W        W95812  28.035  21.631   0.908
25932W        W95813  28.020   2.769  13.394
25933W        W95814  42.927  39.057   1.222
25934W        W95815  44.973  31.095   1.429
25935W        W95816  41.991  22.997   1.753
25936W        W95817  13.180  25.003   1.799
25937W        W95818  31.059  14.755  12.447
25938W        W95819   9.871  20.032   0.887
25939W        W95820  19.223  42.789  11.861
25940W        W95821  23.197  18.579   5.230
25941W        W95822  28.175  33.601  13.049
25942W        W95823  34.380  19.092   4.235
25943W        W95824   8.832  29.126  11.091
25944W        W95825  37.425  40.032   4.289
25945W        W95826  21.656  16.250  10.572
25946W        W95827  24.529  37.400   2.775
25947W        W95828  15.244  19.705   0.854
25948W        W95829   6.914  31.040   3.252
25949W        W95830  24.123  16.246   1.763
25950W        W95831  24.489  31.564  13.893
25951W        W95832  24.114  31.593   4.628
25952W        W95833  42.913  36.387  14.963
25953W        W95834  44.274  20.608  14.786
25954W        W95835  44.009  25.178   5.137
25955W        W95836  14.124   6.899   4.272
25956W        W95837  11.343   0.788  10.973
25957W        W95838  30.524  22.587   3.174
25958W        W95839  30.143   7.722  12.037
25959W        W95840  14.632  19.284   0.288
25960W        W95841   0.353  34.987  14.312
25961W        W95842  33.884   2.240  13.336
25962W        W95843  26.586   0.828  12.540
25963W        W95844  17.261   7.710   2.853
25964W        W95845  35.543  15.221  12.471
25965W        W95846   3.773  17.242   3.679
25966W        W95847  37.366   4.224   1.295
25967W        W95848  30.052   9.183   4.620
25968W        W95849  34.490   7.332   1.284
25969W        W95850  15.785  22.645   4.263
25970W        W95851  20.747  40.399  12.083
25971W        W95852  44.467  18.636   3.846
25972W        W95853  27.096  33.405   4.612
25973W        W95854  16.282  10.352  11.518
25974W        W95855  21.604  39.836  11.930
25975W        W95856   8.363  43.429  12.388
25976W        W95857  11.795  13.690  11.008
25977W        W95858  14.829   2.820   4.833
25978W        W95859  31.516  28.555   2.204
25979W        W95860   2.731  36.469  13.898
25980W        W95861  19.118  19.546  14.863
25981W        W95862  28.000   3.386   0.306
25982W        W95863   0.961  25.211   2.902
25983W        W95864  38.824   8.767   2.812
25984W        W95865  32.089  14.130   0.966
25985W        W95866  32.618  31.459   1.273
25986W        W95867  14.306  17.139  13.898
25987W        W95868  42.018   3.913  12.417
25988W        W95869  40.372   4.244  10.549
25989W        W95870  38.914  18.600  12.051
25990W        W95871  12.843   0.299   2.860
25991W        W95872   1.959  35.095  13.040
25992W        W95873  25.999  34.520   4.642
25993W        W95874  14.329   6.261  12.462
25994W        W95875  22.129  22.589   3.737
25995W        W95876  29.122  21.108   3.172
25996W        W95877  10.150  12.825  13.504
25997W        W95878  35.910  25.711  13.958
25998W        W95879  32.417   8.344  12.916
25999W        W95880  19.723  10.238  13.310
26000W        W95881  37.398  10.803  14.779
26001W        W95882   8.825  24.718  14.007
26002W        W95883   3.295   0.327  14.778
26003W        W95884  23.735  38.485  10.547
26004W        W95885   4.854  34.551   1.287
26005W        W95886  37.508  35.045  13.917
26006W        W95887  23.498  13.332  14.984
26007W        W95888   4.854  35.015  14.853
26008W        W95889  19.725  25.033  11.124
26009W        W95890  13.699   6.233   2.730
26010W        W95891   7.814  40.911   4.222
26011W        W95892  44.371  18.644   0.924
26012W        W95893   5.894   7.791  13.513
26013W        W95894  39.035   8.890   3.234
26014W        W95895  13.843  11.813  13.876
26015W        W95896  40.397  17.709  11.529
26016W        W95897   4.217  19.722  10.566
26017W        W95898  22.012  30.597  14.371
26018W        W95899  23.129  12.301  11.899
26019W        W95900  35.469   5.790  11.476
26020W        W95901  30.618  26.093   2.405
26021W        W95902  28.115  29.485   3.859
26022W        W95903  16.712   3.312   4.748
26023W        W95904  24.623  18.647  11.380
26024W        W95905  43.901  37.342  13.885
26025W        W95906   4.358  24.217   4.820
26026W        W95907  12.850  31.129   3.247
26027W        W95908   2.848  25.045   4.640
26028W        W95909  12.610  16.595  13.004
26029W        W95910  22.085  32.522  11.922
26030W        W95911  42.010  17.287   0.450
26031W        W95912   1.875  19.743   3.240
26032W        W95913  14.213   8.781  13.879
26033W        W95914  41.980  25.690  11.965
26034W        W95915  15.654  17.574   4.221
26035W        W95916  40.905  36.993  10.936
26036W        W95917  28.584  27.016   2.336
26037W        W95918   2.294   8.380  13.893
26038W        W95919  26.110  41.533  12.416
26039W        W95920  36.469  21.635   3.689
26040W        W95921   8.328  44.470   4.740
26041W        W95922  41.843  16.735  11.931
26042W        W95923   1.283  28.965  11.983
26043W        W95924   3.785  11.206   4.811
26044W        W95925  44.268  12.182   0.942
26045W        W95926  37.558  27.966   1.745
26046W        W95927  25.996  22.125   2.727
26047W        W95928  33.518  24.124   1.867
26048W        W95929  27.979  35.512  11.033
26049W        W95930  17.115  12.745  11.441
26050W        W95931  36.441  22.702  13.917
26051W        W95932  27.071  32.588  14.416
26052W        W95933  33.539  34.044  14.999
26053W        W95934  35.078  32.438  11.523
26054W        W95935  21.109  36.459   0.946
26055W        W95936  16.730  35.105  14.936
26056W        W95937   9.370   1.815  13.936
26057W        W95938  33.899  28.542   1.366
26058W        W95939  24.601  16.776   4.305
26059W        W95940   6.846  18.105  14.957
26060W        W95941  32.486  29.109   3.340
26061W        W95942  18.702  23.219  13.463
26062W        W95943  11.666  44.474  11.518
26063W        W95944  34.087  22.133  12.918
26064W        W95945   2.928   5.871  13.465
26065W        W95946  21.240   7.193  12.081
26066W        W95947  27.164  37.548   5.218
26067W        W95948  14.326  31.616  12.887
26068W        W95949  15.260  41.492  13.895
26069W        W95950   9.344   4.211  10.460
26070W        W95951  26.991  24.602   3.387
26071W        W95952  22.740  32.050  12.522
26072W        W95953  10.235  25.609   3.710
26073W        W95954   5.405  34.099  13.015
26074W        W95955   0.475   0.835  11.593
26075W        W95956   3.440  28.987   3.705
26076W        W95957  12.143  34.090   3.715
26077W        W95958  37.568  18.735   2.820
26078W        W95959  10.869  29.549   1.923
26079W        W95960  36.890   5.704  14.799
26080W        W95961  41.852   6.339  11.396
26081W        W95962  34.112  37.078  12.973
26082W        W95963  41.465  33.938   0.356
26083W        W95964  42.490  38.395   0.261
26084W        W95965  36.867   3.290  10.634
26085W        W95966  16.184  33.434  13.056
26086W        W95967  14.206  26.607   2.834
26087W        W95968  16.173   4.723   2.365
26088W        W95969   2.308  27.477   4.225
26089W        W95970   6.361  11.220  14.956
26090W        W95971  28.994  28.611  13.024
26091W        W95972   5.395  41.931  11.494
26092W        W95973  19.169  15.728  10.449
26093W        W95974  36.548  35.603  14.839
26094W        W95975   4.205   5.920   2.891
26095W        W95976  41.926  36.369   3.231
26096W        W95977  30.017  40.380   2.663
26097W        W95978  44.313  31.092   0.906
26098W        W95979  17.756  10.271   0.441
26099W        W95980  39.514   4.832   2.277
26100W        W95981  27.538  25.504   0.430
26101W        W95982  21.523  40.392  14.802
26102W        W95983  33.481  29.477  10.978
26103W        W95984  12.830  44.939  10.949
26104W        W95985  10.690  25.704  14.889
26105W        W95986  36.954  28.435  11.447
26106W        W95987  33.074   4.319   2.788
26107W        W95988  20.210  42.347   2.813
26108W        W95989  31.067  18.231   0.783
26109W        W95990  41.960  10.811   3.806
26110W        W95991   5.279   8.754  10.584
26111W        W95992   7.765   4.918  11.554
26112W        W95993  14.807   0.907  14.782
26113W        W95994  36.593  18.690  11.551
26114W        W95995   1.240  22.125   3.164
26115W        W95996  17.171  11.180  10.010
26116W        W95997  44.381  43.380  12.344
26117W        W95998  26.083  27.977   2.674
26118W        W95999   8.396  33.066  12.410
26119W        W96000  16.252  29.001   1.423
26120W        W96001  26.540  15.663  13.911
26121W        W96002   8.797  20.529  13.882
26122W        W96003  38.562  16.729  13.874
26123W        W96004  17.773  19.564   0.331
26124W        W96005  16.692  14.251   3.784
26125W        W96006  25.643   8.753   5.255
26126W        W96007  26.114  10.226   0.478
26127W        W96008  17.196  31.899   1.276
26128W        W96009  41.915   1.855  12.004
26129W        W96010  31.522  32.456  12.570
26130W        W96011  38.550  41.487   2.821
26131W        W96012   2.377   4.432  14.025
26132W        W96013  12.613  26.664  14.857
26133W        W96014  17.063  23.562   1.913
26134W        W96015  29.036   1.366  11.990
26135W        W96016  27.614  34.536   1.379
26136W        W96017  43.445   6.739   1.440
26137W        W96018  27.099  19.207   3.379
26138W        W96019  37.068  15.219   0.368
26139W        W96020   2.435  34.056  12.354
26140W        W96021   2.339  10.749  12.986
26141W        W96022   3.826  24.987  11.992
26142W        W96023  17.089  40.311  12.053
26143W        W96024  14.243  30.041  13.843
26144W        W96025  32.425  18.774   5.197
26145W        W96026   1.973  37.566  11.539
26146W        W96027  24.087  38.480  13.500
26147W        W96028  23.084   2.440  13.483
26148W        W96029  37.582  42.003   5.082
26149W        W96030   9.252   4.848   3.149
26150W        W96031  40.982  32.602  11.477
26151W        W96032  32.446  18.789   0.476
26152W        W96033  36.455  32.412   2.754
26153W        W96034  33.996  30.060  12.086
26154W        W96035  26.108  35.429   4.156
26155W        W96036  21.253  20.163   2.393
26156W        W96037  44.936  28.556  13.473
26157W        W96038   6.234   2.822  14.013
26158W        W96039   3.765  15.272  13.858
26159W        W96040  40.974   6.275  12.393
26160W        W96041  28.503  36.579   1.245
26161W        W96042  23.994  40.538   1.929
26162W        W96043   0.859  43.794   0.807
26163W        W96044  13.335  24.584  11.599
26164W        W96045  26.971  36.509  11.571
26165W        W96046  41.844   9.268  10.917
26166W        W96047   2.839  36.888   1.369
26167W        W96048  25.635  33.930   3.199
26168W        W96049  41.313   5.231   3.866
26169W        W96050  42.903  35.063   4.135
26170W        W96051   7.717  16.618   3.708
26171W        W96052  13.134  40.515   5.134
26172W        W96053  23.101  40.515   0.469
26173W        W96054  24.163   5.809  13.389
26174W        W96055  34.022  11.242   3.834
26175W        W96056  14.613   3.836   2.284
26176W        W96057  29.582   1.858  12.348
26177W        W96058  31.422  16.284  10.535
26178W        W96059   4.285  37.378   2.367
26179W        W96060  22.519  19.203   2.828
26180W        W96061   6.869  14.299   3.260
26181W        W96062  27.043  28.645   1.291
26182W        W96063  27.621  24.637   0.387
26183W        W96064  44.495   4.944   3.735
26184W        W96065   2.742  28.089   3.823
26185W        W96066  29.061  20.578   2.662
26186W        W96067  37.414  22.147  11.894
26187W        W96068  24.171  12.814  13.983
26188W        W96069   5.722  31.641   2.231
26189W        W96070   6.846  16.295   0.872
26190W        W96071  23.990  15.156   0.269
26191W        W96072  29.541   3.279   1.444
26192W        W96073  42.014   5.830   2.895
26193W        W96074  39.422   3.837  11.485
26194W        W96075  38.416  43.785   4.640
26195W        W96076  41.513  23.101   1.722
26196W        W96077  12.799  24.683  11.381
26197W        W96078   3.859   5.292  13.970
26198W        W96079  42.432  17.663   4.241
26199W        W96080  32.459  15.152   1.709
26200W        W96081  43.862   9.799  12.063
26201W        W96082  33.935  41.009   1.234
26202W        W96083  14.610  32.112  12.540
26203W        W96084  43.390   1.246   0.792
26204W        W96085  33.877  15.136   0.373
26205W        W96086  44.373  37.972  13.865
26206W        W96087   8.344  14.225  10.949
26207W        W96088   6.722  17.565  10.482
26208W        W96089   6.336  29.543   5.091
26209W        W96090  12.289   5.909  12.064
26210W        W96091  18.687   9.673   2.790
26211W        W96092  41.508  11.638   0.805
26212W        W96093  33.998  30.912  11.870
26213W        W96094  21.750  44.323  12.943
26214W        W96095  30.606  28.166   1.303
26215W        W96096  27.044   7.170  12.421
26216W        W96097   6.341  21.073  12.488
26217W        W96098  41.978  28.504   4.218
26218W        W96099  25.082  10.319   1.806
26219W        W96100  38.023   3.329   4.679
26220W        W96101  12.725  28.508  13.446
26221W        W96102   2.385  17.586   0.942
26222W        W96103  29.425  36.977  12.930
26223W        W96104  17.279  14.761  10.561
26224W        W96105  23.998  23.993   2.229
26225W        W96106  10.296   1.431   2.337
26226W        W96107  29.076  17.594   1.825
26227W        W96108  11.209  24.028   0.781
26228W        W96109  11.664  16.692   3.825
26229W        W96110  16.716  17.605   3.165
26230W        W96111   9.202   3.845   4.284
26231W        W96112  12.666  39.458  12.522
26232W        W96113   9.695   0.476  11.455
26233W        W96114  22.234  28.479  13.845
26234W        W96115   4.215  20.714   3.840
26235W        W96116  42.015  12.242  12.969
26236W        W96117  33.945  35.515  12.984
26237W        W96118  32.066  22.649   1.397
26238W        W96119  16.633  11.322  11.375
26239W        W96120  41.958  16.129   2.366
26240W        W96121   9.233  35.552   3.182
26241W        W96122  12.766  39.010   2.818
26242W        W96123  40.041  24.543   2.765
26243W        W96124  22.031  44.949   5.245
26244W        W96125   2.315   3.285   3.336
26245W        W96126   8.746   9.259  13.859
26246W        W96127   8.719  34.053   0.862
26247W        W96128  32.907  23.534   4.601
26248W        W96129  10.640  22.687   2.684
26249W        W96130   0.430  15.595   3.815
26250W        W96131   9.287  42.959   1.366
26251W        W96132  11.321  19.734   0.785
26252W        W96133  40.004  26.957  12.883
26253W        W96134  28.116  27.142   0.302
26254W        W96135  27.449  19.203  13.888
26255W        W96136  33.909   3.925  14.300
26256W        W96137  14.094  31.921  10.109
26257W        W96138  30.574  41.844   2.268
26258W        W96139  15.220   1.962  13.518
26259W        W96140   0.960  20.640  12.572
26260W        W96141  19.147  19.073  14.813
26261W        W96142  37.558  41.964  14.326
26262W        W96143  20.119   1.761  12.990
26263W        W96144   0.962  34.600   0.464
26264W        W96145  40.038   3.236  13.818
26265W        W96146  20.643  28.108  13.007
26266W        W96147  12.275  44.814  11.434
26267W        W96148  21.571   4.917  14.021
26268W        W96149  18.555  44.779  10.433
26269W        W96150  16.276  11.860  12.505
26270W        W96151  26.976   3.383  12.537
26271W        W96152  21.153  12.282  10.547
26272W        W96153  34.593  15.643  11.528
26273W        W96154  14.766  41.358   1.836
26274W        W96155  26.466  23.563   3.184
26275W        W96156  17.582   1.747  14.764
26276W        W96157  16.792  34.996   3.223
26277W        W96158   9.331  30.915   4.246
26278W        W96159   5.805   6.738  11.394
26279W        W96160  19.546  20.068  14.333
26280W        W96161  11.188  43.275  14.833
26281W        W96162   8.732  32.054  14.766
26282W        W96163  37.997  21.743  11.895
26283W        W96164  21.177  29.064  10.490
26284W        W96165  21.138  23.073  10.497
26285W        W96166   5.253  44.889   4.803
26286W        W96167  42.434  19.698  11.995
26287W        W96168  25.141  30.653   1.920
26288W        W96169  39.455  36.916  11.054
26289W        W96170   1.741  24.683  10.539
26290W        W96171   9.782  17.186  11.995
26291W        W96172  40.376  16.072   1.796
26292W        W96173  37.930  17.237   4.181
26293W        W96174  11.762  37.039  11.101
26294W        W96175  28.444  33.053   0.261
26295W        W96176  35.443  33.917   3.324
26296W        W96177   1.735   2.844  12.897
26297W        W96178  21.657  21.179   0.350
26298W        W96179  43.954  25.191   1.344
26299W        W96180  38.076  36.017  12.526
26300W        W96181  32.629  37.372  11.611
26301W        W96182  31.969  35.947   4.669
26302W        W96183  42.901  37.979   0.441
26303W        W96184   5.919   3.231  13.371
26304W        W96185  27.688  35.982  13.946
26305W        W96186   9.652  39.508  11.867
26306W        W96187   2.410  44.319  13.912
26307W        W96188  29.018  21.022   3.753
26308W        W96189  31.009  17.646   2.287
26309W        W96190  24.723  38.006   1.802
26310W        W96191   2.867  25.035   2.687
26311W        W96192   6.700  37.851  11.110
26312W        W96193  25.595   9.311   1.311
26313W        W96194  37.448  15.196  10.893
26314W        W96195  26.133   4.381   4.731
26315W        W96196  24.623  40.444   1.276
26316W        W96197   1.801  21.516  10.964
26317W        W96198  16.149  39.842  11.405
26318W        W96199   4.386  17.710   0.855
26319W        W96200  22.582  29.011  10.404
26320W        W96201  33.066  31.628   2.271
26321W        W96202  27.119  16.226   3.689
26322W        W96203   2.462  32.071   4.266
26323W        W96204  26.067  11.716   2.762
26324W        W96205  26.109  23.522   1.273
26325W        W96206  21.574   5.794   4.332
26326W        W96207  39.041  31.418   2.768
26327W        W96208  11.325  43.390  14.355
26328W        W96209  12.279  21.545   1.922
26329W        W96210  38.453  44.375   4.155
26330W        W96211  24.615   1.822   1.912
26331W        W96212  41.842  27.523   2.749
26332W        W96213   4.716  25.473  13.412
26333W        W96214  17.705   1.792   3.635
26334W        W96215  42.928   0.320   3.290
26335W        W96216  16.781   9.277  14.895
26336W        W96217   0.860  22.188   4.223
26337W        W96218  10.205  38.479  11.430
26338W        W96219  32.116  11.322   0.900
26339W        W96220  10.852  32.063  12.988
26340W        W96221   0.918  41.533  14.771
26341W        W96222  22.509  30.976   4.692
26342W        W96223  38.548  39.987   0.944
26343W        W96224  19.645   5.742   4.182
26344W        W96225  36.586  33.922   0.764
26345W        W96226  30.515  32.140  10.524
26346W        W96227  33.885  42.785   3.375
26347W        W96228   7.750  14.758  14.457
26348W        W96229  38.509  39.865   1.302
26349W        W96230  36.931  40.811   2.861
26350W        W96231   0.916  17.169   2.223
26351W        W96232  24.129  33.051   1.409
26352W        W96233  38.975  18.715   0.256
26353W        W96234  33.466  10.726   1.800
26354W        W96235  10.688  40.468   4.298
26355W        W96236  39.560   8.191  14.948
26356W        W96237   9.285  37.562   5.090
26357W        W96238   7.334  16.769   3.712
26358W        W96239  31.542   9.829  13.961
26359W        W96240  23.218  40.003  10.521
26360W        W96241  41.942  27.686  14.314
26361W        W96242  29.159  23.723  13.508
26362W        W96243  43.909  42.471   4.633
26363W        W96244  28.609  37.516  11.957
26364W        W96245  41.376  14.212   5.281
26365W        W96246  18.746  14.749  14.390
26366W        W96247  41.991  32.059  10.546
26367W        W96248   7.270  24.188   2.224
26368W        W96249  35.930  41.443  11.587
26369W        W96250  10.203  35.955  14.881
26370W        W96251  24.527  13.327  12.381
26371W        W96252  11.771  11.254  13.381
26372W        W96253  28.500  44.849   1.219
26373W        W96254  12.208  27.454   1.897
26374W        W96255   7.847  16.632   3.225
26375W        W96256  29.581  14.630  12.081
26376W        W96257  43.927   4.778  14.926
26377W        W96258  32.131  35.488   4.713
26378W        W96259   1.875  25.644  13.390
26379W        W96260   4.755  28.475  14.957
26380W        W96261  30.031  35.980  13.506
26381W        W96262  38.073  38.975   2.798
26382W        W96263  19.243  26.625   2.400
26383W        W96264  14.227  19.106   1.787
26384W        W96265  16.155   6.349   0.852
26385W        W96266  33.999  16.609   3.149
26386W        W96267  35.106  24.484  14.766
26387W        W96268  30.070  42.874   4.273
26388W        W96269   5.752  32.578  11.478
26389W        W96270   5.263   2.431   3.730
26390W        W96271  41.004  38.556  11.935
26391W        W96272  12.698   0.824  10.597
26392W        W96273  21.545  24.201  13.887
26393W        W96274  41.845   5.314  13.040
26394W        W96275   5.912  39.322   3.725
26395W        W96276  34.039   1.375   0.392
26396W        W96277  16.312  26.572   0.431
26397W        W96278   7.306  18.253  12.876
26398W        W96279  34.386  17.261   1.806
26399W        W96280  40.989  36.399  12.829
26400W        W96281   3.442   1.255  12.453
26401W        W96282  19.549  41.436  12.579
26402W        W96283  43.486  25.536  13.808
26403W        W96284  35.034  32.574  12.080
26404W        W96285   0.450  29.986  13.053
26405W        W96286  24.228   8.702   3.652
26406W        W96287  11.244  33.453  14.441
26407W        W96288  34.951  17.104   3.384
26408W        W96289  19.058  23.619  13.436
26409W        W96290  11.305  27.666  12.875
26410W        W96291  28.592  10.264   4.653
26411W        W96292  44.264   5.737  11.077
26412W        W96293  15.136  39.336   5.090
26413W        W96294  19.547   7.667  13.335
26414W        W96295  26.581   5.733   1.345
26415W        W96296  43.856  32.567   3.364
26416W        W96297   7.388  41.416  14.935
26417W        W96298  43.860  25.628  11.384
26418W        W96299  36.591  15.764  12.044
26419W        W96300  24.681  18.058   9.629
26420W        W96301  27.515   1.456  13.008
26421W        W96302  23.025   4.330   3.260
26422W        W96303  38.025   6.700   3.753
26423W        W96304   9.868  16.187  11.408
26424W        W96305  41.885  25.147  14.972
26425W        W96306  31.964  42.942  10.606
26426W        W96307   2.909  26.049  10.930
26427W        W96308  39.395  32.486  11.106
26428W        W96309  28.064  33.951  11.593
26429W        W96310   6.689   0.366   4.625
26430W        W96311   3.799  44.411  13.057
26431W        W96312  11.168  27.647  13.471
26432W        W96313  27.043  26.601   4.145
26433W        W96314  10.173   0.295   4.213
26434W        W96315   0.904  25.567  13.020
26435W        W96316  15.133  28.109   2.662
26436W        W96317   5.880   2.451   1.904
26437W        W96318  36.952  44.501  12.962
26438W        W96319  13.846  21.117   2.202
26439W        W96320  30.126  12.224   3.808
26440W        W96321   8.729  41.908   1.714
26441W        W96322  14.225  33.552   3.768
26442W        W96323  37.343  21.665   3.342
26443W        W96324  16.649  19.203  11.071
26444W        W96325  23.012  10.185  14.497
26445W        W96326   9.149   3.792   3.358
26446W        W96327  19.559  24.992  14.441
26447W        W96328  43.272   2.727   1.240
26448W        W96329  10.645  37.925  13.001
26449W        W96330  28.007   1.952  12.406
26450W        W96331  44.779  39.023  10.415
26451W        W96332  11.634  28.648  10.568
26452W        W96333  23.592  23.628   0.885
26453W        W96334  16.189  25.633  11.557
26454W        W96335  35.000  42.879  14.424
26455W        W96336  17.792  20.683  12.525
26456W        W96337   0.456   2.906   4.214
26457W        W96338  28.984  33.129  12.471
26458W        W96339  41.380  15.327   3.686
26459W        W96340  25.645  32.559   3.277
26460W        W96341  23.676   3.396  11.589
26461W        W96342  10.147  25.115   0.282
26462W        W96343   1.371   5.833  10.453
26463W        W96344  43.902  44.923   2.330
26464W        W96345  39.016   1.880  13.918
26465W        W96346   9.298  16.293  10.518
26466W        W96347  25.137  18.784  11.078
26467W        W96348  12.849  25.095   3.280
26468W        W96349  19.627   8.785   2.894
26469W        W96350  20.727   3.362   2.403
26470W        W96351  32.544   0.874  10.403
26471W        W96352   7.802  35.364  14.431
26472W        W96353  17.745   2.312   1.861
26473W        W96354   1.380  21.529  10.459
26474W        W96355  40.906  40.024   2.778
26475W        W96356  22.099  44.872   9.655
26476W        W96357  30.491  35.373  11.110
26477W        W96358  35.017  20.683  14.844
26478W        W96359  23.721  16.104   1.851
26479W        W96360  31.105  35.475  11.466
26480W        W96361  29.083  22.064  13.363
26481W        W96362  44.936   4.314   3.251
26482W        W96363   8.678  18.135  11.075
26483W        W96364  28.031  24.982  13.496
26484W        W96365  29.560  17.599   0.879
26485W        W96366   2.451  32.987   0.459
26486W        W96367  16.170   2.415   2.759
26487W        W96368  40.817  20.525   1.722
26488W        W96369   7.873   5.726   0.316
26489W        W96370  44.950  28.044  13.962
26490W        W96371  44.977  13.732   2.698
26491W        W96372  14.207  13.347  10.419
26492W        W96373  39.917   5.716   4.638
26493W        W96374  10.861  13.255  11.557
26494W        W96375   1.879  26.977   5.155
26495W        W96376  31.034  20.209   3.173
26496W        W96377   9.396   0.327  10.442
26497W        W96378  32.952  22.585  14.812
26498W        W96379  25.125  10.189  12.404
26499W        W96380  20.182  15.781  14.292
26500W        W96381  40.513  13.193   1.828
26501W        W96382  34.547  18.755  11.577
26502W        W96383  33.447  25.992  11.373
26503W        W96384   7.199  23.588  14.466
26504W        W96385  42.933   9.161   3.176
26505W        W96386  33.091  44.441  11.580
26506W        W96387  13.684   6.319   0.446
26507W        W96388  17.710  13.700   1.282
26508W        W96389   9.689  42.454  14.450
26509W        W96390  36.438  29.552   3.722
26510W        W96391   7.277  41.943  13.063
26511W        W96392  30.537   2.463   0.280
26512W        W96393  33.132   8.795   3.659
26513W        W96394  17.139  26.970   2.382
26514W        W96395  37.368   9.774   2.408
26515W        W96396  32.968   2.362   1.889
26516W        W96397  25.170  18.087  14.882
26517W        W96398  15.199  21.651   2.833
26518W        W96399  15.260  25.679  10.908
26519W        W96400  13.238  21.250   1.750
26520W        W96401  23.994   2.834   0.927
26521W        W96402  10.352  39.906  13.856
26522W        W96403  17.748  21.167  13.030
26523W        W96404  30.056  13.148  13.943
26524W        W96405  19.159   3.721   0.918
26525W        W96406  38.548  34.976  13.028
26526W        W96407  35.090  26.583  13.046
26527W        W96408  33.467   2.383  12.850
26528W        W96409  19.155  29.472   4.723
26529W        W96410   8.738   3.249  12.979
26530W        W96411  29.600  11.656   4.195
26531W        W96412  15.314  11.127   0.418
26532W        W96413  31.468   5.803  13.507
26533W        W96414  15.317  43.455  12.544
26534W        W96415   4.231  10.168   1.823
26535W        W96416   9.845  44.469  12.967
26536W        W96417  29.133  13.753  13.352
26537W        W96418   4.297   4.298   0.470
26538W        W96419  34.975  18.063  12.986
26539W        W96420  20.061  41.479   1.408
26540W        W96421  14.807  34.099  14.283
26541W        W96422   8.251  23.735  10.613
26542W        W96423  42.892   3.719   3.248
26543W        W96424  12.347  11.728  13.527
26544W        W96425  17.756  39.875  11.898
26545W        W96426  38.982  21.127   0.309
26546W        W96427  15.648  44.319  14.993
26547W        W96428   6.882  44.873   0.957
26548W        W96429  44.888  25.061   4.674
26549W        W96430  43.922  26.478   1.846
26550W        W96431  40.848  42.026  14.997
26551W        W96432  19.775  28.075   5.240
26552W        W96433  25.666   8.322  12.490
26553W        W96434  28.000  42.414   2.282
26554W        W96435  25.131  33.008  14.878
26555W        W96436  38.891  39.407   2.676
26556W        W96437  18.113  32.118   3.703
26557W        W96438  30.007   4.314   0.307
26558W        W96439   9.359  34.571   4.347
26559W        W96440   3.894  41.957  14.395
26560W        W96441   7.720  41.969   3.801
26561W        W96442  18.286  16.284  12.842
26562W        W96443  17.608  41.433  11.965
26563W        W96444   2.753  44.921   1.716
26564W        W96445  30.457  26.500  12.437
26565W        W96446  34.487  35.059   3.182
26566W        W96447  24.195  35.532   3.732
26567W        W96448  23.590  24.610   4.613
26568W        W96449   7.322  42.782   1.320
26569W        W96450   3.441  18.721   2.791
26570W        W96451  23.188   8.861  10.463
26571W        W96452  37.474  35.401   1.305
26572W        W96453  34.960   5.687  13.346
26573W        W96454  19.108  23.997  11.492
26574W        W96455  13.268  38.484   3.272
26575W        W96456  12.775  34.422  11.035
26576W        W96457  36.884  42.429  14.004
26577W        W96458   3.222  15.128  11.892
26578W        W96459   8.822  27.024  12.435
26579W        W96460  20.559  26.696   0.435
26580W        W96461  32.429   5.768   0.451
26581W        W96462  40.387   1.837  10.510
26582W        W96463  14.134  21.654  12.973
26583W        W96464   1.862  43.775   0.339
26584W        W96465  17.068  15.300  10.494
26585W        W96466  34.102  33.092   3.148
26586W        W96467  22.006  13.624  12.544
26587W        W96468  29.928   1.400  12.453
26588W        W96469  23.997   5.734  13.930
26589W        W96470  12.360  32.926   2.840
26590W        W96471  12.128  44.915  11.077
26591W        W96472   7.221  41.478   3.820
26592W        W96473  28.457   5.839   2.183
26593W        W96474   6.315  40.361   4.734
26594W        W96475  10.713  30.420  12.398
26595W        W96476  32.934   7.314   4.705
26596W        W96477  39.389  11.256  13.485
26597W        W96478  31.500  19.605   1.333
26598W        W96479  36.484   6.921  14.943
26599W        W96480  15.144  32.956   0.770
26600W        W96481  21.026  15.594   0.388
26601W        W96482  37.526  33.081   4.225
26602W        W96483  23.998  34.986  14.310
26603W        W96484  42.820  29.614   2.304
26604W        W96485  42.860  29.110  12.022
26605W        W96486   3.275  38.828   1.228
26606W        W96487  22.080  18.653  12.833
26607W        W96488  22.194  17.784  13.986
26608W        W96489  27.518  43.999   4.744
26609W        W96490  32.568   0.382   4.620
26610W        W96491  15.231  33.084  13.463
26611W        W96492  18.781  39.547  13.793
26612W        W96493  38.992  32.612   0.460
26613W        W96494  18.151  24.704  10.483
26614W        W96495  14.729  20.158  14.389
26615W        W96496  37.423  35.375   4.693
26616W        W96497  32.016  35.986  10.904
26617W        W96498  14.318  37.338   1.429
26618W        W96499  12.856  27.630  12.922
26619W        W96500  11.713  19.112  11.025
26620W        W96501  36.527  26.108   3.356
26621W        W96502  30.143  36.379  13.406
26622W        W96503   1.433   0.330  13.868
26623W        W96504  39.354  16.218   4.603
26624W        W96505  31.075  12.741  12.924
26625W        W96506  27.038   7.753   3.807
26626W        W96507   9.821  26.097   4.672
26627W        W96508  21.094  30.648   2.758
26628W        W96509   8.395  23.531  10.908
26629W        W96510   1.334  31.517   1.830
26630W        W96511  33.562   9.681   3.192
26631W        W96512  13.147  32.503  11.415
26632W        W96513   1.457  14.686  11.545
26633W        W96514  22.654  24.029  13.950
26634W        W96515  14.211  34.615   3.630
26635W        W96516  15.727  21.568  10.972
26636W        W96517  30.417  19.104  14.909
26637W        W96518  42.002  15.606   0.842
26638W        W96519   4.710  39.360   2.397
26639W        W96520  20.637  28.648   5.119
26640W        W96521  12.626  24.532   4.765
26641W        W96522  36.925  38.398   3.756
26642W        W96523   3.252  18.639  13.040
26643W        W96524  42.911  33.064   4.696
26644W        W96525  33.508   7.363   4.725
26645W        W96526  31.626  18.177  10.903
26646W        W96527  27.126  12.352  13.469
26647W        W96528  26.477  22.658   1.836
26648W        W96529  26.680   1.396   0.335
26649W        W96530  35.002  12.756   2.680
26650W        W96531  13.142   2.869  12.937
26651W        W96532  41.501  23.601   2.179
26652W        W96533   1.920   1.315  11.104
26653W        W96534   1.385   9.801   4.828
26654W        W96535  22.024  26.463   3.697
26655W        W96536  28.655   8.699   4.755
26656W        W96537  39.522   7.182  14.920
26657W        W96538  32.620   6.369   4.610
26658W        W96539  18.561  39.957   2.199
26659W        W96540   9.243  11.850  14.865
26660W        W96541   4.889  38.543  10.081
26661W        W96542  21.570  42.930   4.693
26662W        W96543  37.962   8.322   4.180
26663W        W96544  13.628  38.865  14.782
26664W        W96545  18.769  16.722  13.463
26665W        W96546  28.156  17.269  13.793
26666W        W96547   0.951  31.614   4.269
26667W        W96548  36.454  29.020  11.885
26668W        W96549   3.228  44.462  10.953
26669W        W96550  44.451  15.817   1.233
26670W        W96551  24.974   8.726   2.723
26671W        W96552  21.176   5.394  11.074
26672W        W96553  41.431   9.679   4.642
26673W        W96554  44.888  22.128   3.791
26674W        W96555  29.540  26.997   3.242
26675W        W96556  22.251  28.619   1.882
26676W        W96557   1.475  29.100   3.699
26677W        W96558  30.971  13.187   4.830
26678W        W96559  21.657  22.113  11.413
26679W        W96560  12.738   8.167   2.235
26680W        W96561  41.416   3.843   4.130
26681W        W96562  18.175  43.804  12.397
26682W        W96563   7.286  43.275   4.292
26683W        W96564   4.238  23.671  14.309
26684W        W96565  27.113  22.215   1.251
26685W        W96566   7.909  40.319  10.482
26686W        W96567  36.357  38.353  10.473
26687W        W96568   5.730  44.799   0.783
26688W        W96569  31.464   8.760   4.717
26689W        W96570  42.899  40.871  10.931
26690W        W96571  43.808  18.240   2.406
26691W        W96572  44.366  32.603  13.903
26692W        W96573  27.106  17.179   2.379
26693W        W96574  25.977   8.787  14.929
26694W        W96575  30.496  31.631   1.858
26695W        W96576  25.489  19.719  10.953
26696W        W96577  20.160  38.447   4.748
26697W        W96578   2.439  15.612  14.979
26698W        W96579  35.976  28.523   3.778
26699W        W96580  19.741   3.233  10.500
26700W        W96581  32.914  14.107  11.910
26701W        W96582  22.738  25.697  10.946
26702W        W96583  44.950  42.375   0.288
26703W        W96584  20.760  33.889   2.233
26704W        W96585   9.825  44.472   3.652
26705W        W96586  30.979   3.724  11.524
26706W        W96587  26.561  41.367  13.537
26707W        W96588  18.759  42.520   4.133
26708W        W96589  15.716  25.998  12.455
26709W        W96590   6.728   1.942   0.781
26710W        W96591  13.185  42.926   0.316
26711W        W96592  40.806  34.980   3.819
26712W        W96593  31.978  25.068   9.920
26713W        W96594  31.917  33.444   2.773
26714W        W96595   1.302  26.954  12.958
26715W        W96596   5.284  24.051  11.050
26716W        W96597   5.234  14.128   5.243
26717W        W96598  26.666  44.885  12.846
26718W        W96599  38.051  22.635  14.477
26719W        W96600  24.642  15.249   1.934
26720W        W96601  16.162   4.363  13.459
26721W        W96602  13.318  27.615  13.029
26722W        W96603  16.130  14.302   0.411
26723W        W96604   4.408  43.394  14.501
26724W        W96605  44.914  12.735   1.876
26725W        W96606  31.951   5.381   0.339
26726W        W96607   9.713  35.055  10.917
26727W        W96608  16.128  18.730  12.846
26728W        W96609  13.631  38.378   2.219
26729W        W96610  40.499  20.177  11.103
26730W        W96611  21.570  18.580   4.320
26731W        W96612  31.499  13.700  13.842
26732W        W96613  25.629  20.242  12.453
26733W        W96614  29.568  20.739  13.879
26734W        W96615  41.831  27.630  13.055
26735W        W96616   7.697  27.494  14.808
26736W        W96617  15.313  14.812  14.293
26737W        W96618  22.708  32.498   2.191
26738W        W96619  38.515  21.247  14.811
26739W        W96620  35.541  33.497   4.714
26740W        W96621  35.875  18.108   2.674
26741W        W96622  43.395   4.817   3.788
26742W        W96623  27.019  28.965  12.978
26743W        W96624  33.058   9.268   2.276
26744W        W96625  22.082  27.031  12.899
26745W        W96626  10.818  26.672  13.993
26746W        W96627  40.987  11.708   1.847
26747W        W96628  23.622  32.028   3.708
26748W        W96629  30.456  38.977  12.387
26749W        W96630  18.154  30.533  11.530
26750W        W96631  20.725  11.867  11.040
26751W        W96632   8.308   7.837   1.324
26752W        W96633   1.863   0.820   4.712
26753W        W96634  21.549  24.004   2.816
26754W        W96635   9.207   2.749  11.401
26755W        W96636  22.074  11.232   2.358
26756W        W96637  33.968   5.860  12.483
26757W        W96638  31.449  17.606   2.375
26758W        W96639  11.767  34.473   0.794
26759W        W96640  40.399  43.439  11.074
26760W        W96641   4.769  19.122  11.539
26761W        W96642  26.203  16.230   0.311
26762W        W96643  17.577  28.582  14.014
26763W        W96644  43.927  21.529  13.468
26764W        W96645  11.322  18.068  14.438
26765W        W96646  14.594   5.414   4.238
26766W        W96647   0.842   4.890  14.299
26767W        W96648  33.563   7.393  12.396
26768W        W96649  31.032  37.407  12.884
26769W        W96650  37.905  24.540  11.386
26770W        W96651  22.636  22.686   4.815
26771W        W96652  36.048  12.344  12.343
26772W        W96653  36.546  23.113   0.867
26773W        W96654   3.836  17.629   2.345
26774W        W96655  25.199   8.765  11.961
26775W        W96656   0.816  41.807  10.514
26776W        W96657   5.747  27.610  11.012
26777W        W96658  22.085  19.536   4.685
26778W        W96659  31.013  10.159   2.258
26779W        W96660  42.907  40.975   2.891
26780W        W96661   1.371  24.601   2.202
26781W        W96662  25.598  37.561   0.801
26782W        W96663  20.069  23.611  10.900
26783W        W96664  33.874  25.008   2.219
26784W        W96665  11.196   8.765  13.462
26785W        W96666  23.663  19.161  10.479
26786W        W96667  44.896   5.776  13.026
26787W        W96668   7.830  27.518  11.406
26788W        W96669  29.558   1.398   1.273
26789W        W96670  11.170   6.235   0.291
26790W        W96671  13.300  38.376   4.824
26791W        W96672  42.949  21.085   2.188
26792W        W96673  36.485  44.447   0.431
26793W        W96674  21.245  29.538  14.012
26794W        W96675  26.479   4.347   3.858
26795W        W96676  26.558  14.196   0.372
26796W        W96677  19.079  13.265  10.592
26797W        W96678  35.042  27.079  11.486
26798W        W96679  36.479  27.592   3.382
26799W        W96680  40.962  15.743  12.461
26800W        W96681   9.225  24.480  14.963
26801W        W96682  32.062  38.408  14.893
26802W        W96683  36.466  39.029  10.012
26803W        W96684  33.537  17.190  11.108
26804W        W96685   1.741   8.774   1.718
26805W        W96686  24.160  30.018   4.835
26806W        W96687  35.931   8.354   0.310
26807W        W96688  39.009   6.761   2.732
26808W        W96689   1.445   8.282  11.596
26809W        W96690  12.632  12.243   0.481
26810W        W96691  17.690  25.974   2.848
26811W        W96692  19.267  12.169   2.187
26812W        W96693  37.927   7.202   1.409
26813W        W96694  31.944  44.332  12.570
26814W        W96695  30.099  16.683  13.988
26815W        W96696   8.696  43.336  13.859
26816W        W96697  26.615  38.441  11.405
26817W        W96698  21.083  37.063   1.379
26818W        W96699  12.799  21.133   1.804
26819W        W96700  42.282  32.893   0.285
26820W        W96701   5.241   6.918   1.713
26821W        W96702  40.353   6.366  13.831
26822W        W96703   6.346  44.845  14.765
26823W        W96704  23.697   1.482   0.355
26824W        W96705  42.891  18.698   4.653
26825W        W96706  31.519   0.454  14.434
26826W        W96707  33.957  43.925   0.465
26827W        W96708   6.329  31.980  13.432
26828W        W96709  34.482   6.683   2.363
26829W        W96710   9.155  36.415   0.748
26830W        W96711  12.319  26.981  11.394
26831W        W96712   5.351  21.519  13.334
26832W        W96713   7.333  18.189  12.078
26833W        W96714  17.126  15.159  14.358
26834W        W96715   8.862  11.258   0.356
26835W        W96716   7.838  17.212   1.237
26836W        W96717  36.896  39.540  10.951
26837W        W96718   9.366  31.092  13.892
26838W        W96719  30.042  43.015  12.853
26839W        W96720  16.617   8.747   4.628
26840W        W96721  41.293  34.898   0.744
26841W        W96722   4.218  28.995   1.793
26842W        W96723  20.635  33.402  11.394
26843W        W96724  20.094  12.298  12.877
26844W        W96725  44.292  26.084   4.743
26845W        W96726   1.396  22.600   1.411
26846W        W96727   9.208   4.245   4.290
26847W        W96728  21.112  31.459  13.024
26848W        W96729  32.043  37.347   1.364
26849W        W96730  34.543  32.527   1.263
26850W        W96731   0.326   0.828   2.285
26851W        W96732  22.745  31.059   4.243
26852W        W96733  10.184   8.210   0.385
26853W        W96734  23.228  18.604   4.243
26854W        W96735   4.921  10.265   1.339
26855W        W96736   0.352  27.002   2.892
26856W        W96737  26.629   7.906   2.899
26857W        W96738  28.009   6.428  12.409
26858W        W96739   6.294  25.656  14.339
26859W        W96740  16.188   3.908   3.867
26860W        W96741   7.219  13.312   0.867
26861W        W96742  43.912   5.293   4.128
26862W        W96743   0.482  24.013  11.009
26863W        W96744   3.946  10.838   3.853
26864W        W96745  26.696  29.578  11.019
26865W        W96746  41.858   5.403   2.752
26866W        W96747  13.143  16.163   3.187
26867W        W96748  39.425  34.943  10.510
26868W        W96749  26.599   6.821   0.300
26869W        W96750   6.306  33.130  13.317
26870W        W96751  31.024  10.705   1.391
26871W        W96752  35.462  14.213   3.284
26872W        W96753  23.589  44.953  10.965
26873W        W96754  40.823   0.860  12.403
26874W        W96755  38.521  10.770  13.370
26875W        W96756  40.890  33.099   2.668
26876W        W96757  20.207  26.069  14.837
26877W        W96758  17.617  23.125   2.258
26878W        W96759  34.532  14.738   3.383
26879W        W96760  15.663   9.322  10.978
26880W        W96761  41.925  36.364  10.466
26881W        W96762  29.531  10.747  10.497
26882W        W96763   2.724  38.019   4.214
26883W        W96764   7.703   3.323   4.139
26884W        W96765  18.732   9.211  10.421
26885W        W96766  38.381  29.095  11.062
26886W        W96767   1.815  43.350   3.383
26887W        W96768  18.628  15.296  14.007
26888W        W96769  23.703  23.684   4.645
26889W        W96770   2.728  11.727  13.463
26890W        W96771   4.434  44.286  13.383
26891W        W96772   2.346  35.420  10.490
26892W        W96773  44.878  25.657   3.647
26893W        W96774  15.606   1.942  10.138
26894W        W96775   2.265  16.293   2.853
26895W        W96776  40.440  43.963   2.242
26896W        W96777   5.251  43.820   2.345
26897W        W96778  37.486  34.925  10.631
26898W        W96779   7.890  33.943   1.380
26899W        W96780  43.938  20.583  13.548
26900W        W96781   8.210  35.957  12.979
26901W        W96782   6.696  36.965   0.788
26902W        W96783  40.817  21.227  10.515
26903W        W96784  12.666  33.045   3.814
26904W        W96785   1.879  12.319   3.716
26905W        W96786  11.787  21.020   5.147
26906W        W96787  21.223  13.806   2.378
26907W        W96788  33.450  35.498  10.003
26908W        W96789  32.401   8.881  10.481
26909W        W96790   5.409  15.286  10.604
26910W        W96791  27.176   4.864  12.856
26911W        W96792  39.861  32.011  10.589
26912W        W96793   1.769   3.223  13.393
26913W        W96794  11.196  20.070   1.236
26914W        W96795  21.239  17.251   2.869
26915W        W96796  25.617   3.375  14.486
26916W        W96797  28.551   7.691   5.232
26917W        W96798  30.598  44.505  10.903
26918W        W96799  23.065  14.219   4.355
26919W        W96800   5.911  30.961  10.430
26920W        W96801  31.023  16.697  14.864
26921W        W96802  23.629  26.965  10.607
26922W        W96803  43.480   6.222   1.916
26923W        W96804  24.096  32.007   0.785
26924W        W96805  24.023   9.216   3.146
26925W        W96806  19.165  15.692   2.821
26926W        W96807   0.966  44.347  13.403
26927W        W96808  33.056  32.058  13.983
26928W        W96809  19.252  18.736   2.876
26929W        W96810  27.118   4.709  12.039
26930W        W96811   3.266   2.872   1.393
26931W        W96812  40.816  41.952  13.935
26932W        W96813   0.380  21.136  11.080
26933W        W96814  21.729  31.098   1.440
26934W        W96815  22.246  38.969  14.907
26935W        W96816   0.283  28.183  13.060
26936W        W96817   3.267  32.036   0.891
26937W        W96818   2.314  26.077  11.906
26938W        W96819  14.097  15.618   5.234
26939W        W96820  18.562  40.993   0.796
26940W        W96821  35.083  36.549  12.071
26941W        W96822  11.708  34.535   5.303
26942W        W96823  13.159  31.117  14.900
26943W        W96824  39.459   3.445  13.840
26944W        W96825  26.636   6.220   1.878
26945W        W96826   5.278  13.329  13.875
26946W        W96827   2.301  39.916   2.181
26947W        W96828  31.575   0.946  13.527
26948W        W96829   0.362  41.371  12.865
26949W        W96830  19.091  14.278  11.985
26950W        W96831  35.577  38.960  11.561
26951W        W96832  43.889  13.309  12.351
26952W        W96833  43.270  17.735   3.198
26953W        W96834  23.665  20.682   2.352
26954W        W96835  34.927  35.981  13.362
26955W        W96836   8.840  34.538  12.001
26956W        W96837  30.503  11.168   3.176
26957W        W96838  21.155   0.747  12.470
26958W        W96839  35.491  21.224  10.429
26959W        W96840  17.738  32.001  11.512
26960W        W96841   4.345  14.139   3.736
26961W        W96842  10.149  41.367   4.125
26962W        W96843  43.360  20.627  10.998
26963W        W96844  39.028  14.751  14.993
26964W        W96845  23.188   7.375  10.566
26965W        W96846  19.121   9.672   4.762
26966W        W96847   7.230  26.562  13.410
26967W        W96848  41.820  20.626  10.921
26968W        W96849   6.299  13.161   1.250
26969W        W96850  17.738  28.089  10.474
26970W        W96851  13.284   0.362   0.942
26971W        W96852  44.930   1.260   3.792
26972W        W96853  37.551  39.929   0.752
26973W        W96854  17.770  37.477   0.801
26974W        W96855  12.253  40.053  12.916
26975W        W96856   9.260  21.643  11.891
26976W        W96857   2.438  20.125   3.799
26977W        W96858  40.400  26.604  13.535
26978W        W96859   4.353  39.906  10.994
26979W        W96860  29.577   0.867  14.407
26980W        W96861   8.315   2.853   4.776
26981W        W96862   3.810  35.519  10.612
26982W        W96863   9.318  18.602   2.897
26983W        W96864  44.830  28.066   0.361
26984W        W96865   2.823  14.796  13.899
26985W        W96866  33.464  17.206   1.712
26986W        W96867  44.005   6.902  12.942
26987W        W96868  29.555  43.768   4.646
26988W        W96869  11.845  13.181   3.851
26989W        W96870  11.316  10.671   4.125
26990W        W96871   0.916  27.959  13.346
26991W        W96872  12.777  44.774  12.925
26992W        W96873  22.653  20.261  12.839
26993W        W96874  35.419  41.512   1.756
26994W        W96875  30.481  15.625   2.379
26995W        W96876   8.160  36.011  14.981
26996W        W96877  30.519  11.234  14.431
26997W        W96878  27.179  27.156  10.891
26998W        W96879   7.837  12.764  14.515
26999W        W96880  19.190   2.405   1.798
27000W        W96881  12.675  12.798  11.507
27001W        W96882  25.486  19.695   3.776
27002W        W96883   7.751  17.690   3.811
27003W        W96884  24.204  42.860  12.008
27004W        W96885   7.190  19.279   4.122
27005W        W96886  37.399  15.719  10.507
27006W        W96887   7.301  36.523  10.444
27007W        W96888  14.694  22.632   1.798
27008W        W96889  10.660   5.331   2.692
27009W        W96890   7.335  41.520   4.602
27010W        W96891  20.254  14.242   3.146
27011W        W96892  36.559  39.431  10.533
27012W        W96893  18.267  12.233  10.466
27013W        W96894   4.893   8.358   4.338
27014W        W96895  16.170  36.987  13.805
27015W        W96896  17.587  18.758  14.918
27016W        W96897  38.856   4.895   0.479
27017W        W96898  18.096  17.696   2.858
27018W        W96899  41.891  36.057  11.457
27019W        W96900   6.868  10.140   2.344
27020W        W96901  44.785  18.550  13.486
27021W        W96902  39.457  25.099  11.055
27022W        W96903   1.960  33.401  10.509
27023W        W96904  28.933   2.936  13.322
27024W        W96905  15.171  30.535  12.509
27025W        W96906  41.377  10.815   1.732
27026W        W96907  24.702  36.437  14.024
27027W        W96908  10.330  25.988   0.944
27028W        W96909  16.266  38.567   2.310
27029W        W96910  20.525   8.279  11.433
27030W        W96911  43.430  11.776  11.957
27031W        W96912  14.333  21.656   0.416
27032W        W96913  31.139  25.180  12.532
27033W        W96914   9.390  25.634  13.899
27034W        W96915  29.079   3.457  11.578
27035W        W96916  22.677  36.944   0.794
27036W        W96917  14.246  16.224  13.060
27037W        W96918  15.815  43.775  10.938
27038W        W96919  25.171  31.896   3.845
27039W        W96920  21.580  11.847   3.750
27040W        W96921  20.126  44.267   3.803
27041W        W96922  31.949  41.503  11.597
27042W        W96923  42.303  21.243   2.220
27043W        W96924  25.571  40.404  14.322
27044W        W96925   3.393  37.524  10.615
27045W        W96926  17.303  14.276   1.891
27046W        W96927  30.007  25.009   2.180
27047W        W96928  12.807   6.733  12.983
27048W        W96929  23.508  20.574  10.989
27049W        W96930  34.403   0.323  14.855
27050W        W96931  39.511  36.922   3.173
27051W        W96932  24.006  31.493   0.330
27052W        W96933  24.093   7.868  14.315
27053W        W96934  29.109  10.686   1.254
27054W        W96935  28.476  26.605   0.296
27055W        W96936  15.296  12.308  13.997
27056W        W96937  28.566  11.179  14.479
27057W        W96938  38.904  41.804   1.361
27058W        W96939   9.689  21.124  11.453
27059W        W96940  20.558   7.851  10.923
27060W        W96941   5.267  44.276  10.990
27061W        W96942  25.199  18.733   5.176
27062W        W96943   6.892  43.301   4.198
27063W        W96944  41.377  19.702  14.939
27064W        W96945  30.138  21.638   2.863
27065W        W96946  14.632  37.846  10.030
27066W        W96947   8.864  42.854  12.984
27067W        W96948  14.629   4.812  11.000
27068W        W96949  30.936  30.613  11.928
27069W        W96950  30.657  43.418   3.224
27070W        W96951   8.269  13.614  12.065
27071W        W96952   7.240  38.075   2.284
27072W        W96953  37.944   4.904   0.421
27073W        W96954   8.845  33.543   5.274
27074W        W96955  31.602  16.313   3.685
27075W        W96956  35.447   5.919  12.455
27076W        W96957   8.201  25.148   1.220
27077W        W96958  37.913  33.891  11.022
27078W        W96959   9.308   1.440  12.555
27079W        W96960  13.108   1.938  11.463
27080W        W96961  28.592   0.338  10.455
27081W        W96962  13.707  44.333  10.988
27082W        W96963  35.577  42.506  10.972
27083W        W96964  23.034  44.968  12.568
27084W        W96965  37.872  44.781  10.044
27085W        W96966  36.940  29.511  12.848
27086W        W96967   4.909   6.284   3.357
27087W        W96968  21.655  17.194  12.052
27088W        W96969  13.340  26.664  13.482
27089W        W96970  19.769   1.260   2.359
27090W        W96971  12.206  43.920  11.002
27091W        W96972  41.993  33.569  12.517
27092W        W96973  14.197  18.050   1.712
27093W        W96974  22.651   8.860   3.779
27094W        W96975   0.465  22.138  13.452
27095W        W96976   0.764   6.910  10.972
27096W        W96977   3.384  13.804  14.433
27097W        W96978  11.663  25.982  11.379
27098W        W96979  39.064  15.096  11.919
27099W        W96980   5.251  32.452   4.815
27100W        W96981  22.224  16.139   3.167
27101W        W96982  43.943  39.902   2.797
27102W        W96983  44.408   1.976  10.436
27103W        W96984  43.943  10.154   9.932
27104W        W96985  12.767   9.768  10.530
27105W        W96986  36.430   7.722  14.028
27106W        W96987   2.728   1.916   1.294
27107W        W96988  15.621  33.587   0.373
27108W        W96989  33.893  36.946   1.850
27109W        W96990  43.859  39.045  13.034
27110W        W96991  16.239   6.922   2.709
27111W        W96992   9.672  30.045   0.740
27112W        W96993  13.240  40.368   4.793
27113W        W96994  15.791  11.371  11.008
27114W        W96995  19.627  15.778   2.714
27115W        W96996  17.229  39.369   0.825
27116W        W96997   4.863  15.272   2.730
27117W        W96998   8.400  42.988   3.699
27118W        W96999  41.495  25.210  13.049
27119W        W97000  31.146  40.481  13.467
27120W        W97001  33.413   6.791   5.287
27121W        W97002  27.178   1.482  11.462
27122W        W97003  19.220  25.521  10.475
27123W        W97004  27.998   8.717  11.026
27124W        W97005  35.388  35.026  10.891
27125W        W97006  42.383  19.587   1.349
27126W        W97007  42.781  17.727  12.376
27127W        W97008  22.698   4.393  14.359
27128W        W97009   8.279  25.619   0.284
27129W        W97010  14.613  42.865  11.989
27130W        W97011  26.959  26.574   2.704
27131W        W97012  39.385  11.867   0.314
27132W        W97013  44.774  23.668   3.312
27133W        W97014  35.861  12.320   3.811
27134W        W97015   3.228  37.086  14.480
27135W        W97016  17.799   3.369  12.404
27136W        W97017  44.457  24.684   4.710
27137W        W97018  37.960  27.603   4.614
27138W        W97019  37.397   4.849   1.709
27139W        W97020  34.574  30.552  14.407
27140W        W97021  43.935  34.470  10.895
27141W        W97022  19.149   0.366  14.984
27142W        W97023  11.658  19.567   5.259
27143W        W97024  14.659   6.849   1.859
27144W        W97025  42.930   7.325  13.024
27145W        W97026   8.866   1.430  12.431
27146W        W97027  24.053  20.047   3.683
27147W        W97028  30.498  31.561  13.355
27148W        W97029  19.072   2.440  12.845
27149W        W97030  22.999  33.929   4.270
27150W        W97031  25.024  24.566   2.813
27151W        W97032   1.962  18.701  10.457
27152W        W97033  11.737   9.884  11.568
27153W        W97034  41.499   7.883   1.423
27154W        W97035  23.204  37.468   1.742
27155W        W97036  35.012  30.115  14.914
27156W        W97037  33.928  40.404   3.266
27157W        W97038   1.382  38.833   2.266
27158W        W97039  40.882  36.438   2.261
27159W        W97040  11.750  23.570  14.906
27160W        W97041   4.308  19.220   0.935
27161W        W97042  35.467   5.837   3.673
27162W        W97043   1.761  25.197   5.273
27163W        W97044  39.839  14.794   4.305
27164W        W97045  17.124  32.900  14.398
27165W        W97046  12.235   9.729  13.880
27166W        W97047  15.689  25.706  12.979
27167W        W97048  10.197  13.775   1.803
27168W        W97049  23.697  35.888   2.214
27169W        W97050  15.679  37.975  11.975
27170W        W97051  42.779  30.103  11.538
27171W        W97052   5.202  27.620   0.875
27172W        W97053  33.582  43.352   3.316
27173W        W97054  26.633  10.332   0.828
27174W        W97055  15.110   9.649   3.718
27175W        W97056   5.326  40.521  10.483
27176W        W97057  18.128   3.358  11.039
27177W        W97058  39.004  43.299   1.900
27178W        W97059  42.844  18.636  14.922
27179W        W97060  35.897   5.927  13.058
27180W        W97061  22.635  44.866  11.469
27181W        W97062  12.776  29.622  12.017
27182W        W97063  35.047   8.311   0.823
27183W        W97064  44.776  32.997   2.226
27184W        W97065  23.541  30.910   2.798
27185W        W97066  33.528   7.178   0.859
27186W        W97067  34.116  30.943   1.816
27187W        W97068  37.550   2.747   1.332
27188W        W97069  26.556  21.156  14.967
27189W        W97070  21.255   6.915   2.745
27190W        W97071  37.887  19.688   1.300
27191W        W97072   2.868  40.390  10.522
27192W        W97073  35.593  38.386   1.312
27193W        W97074  29.945  20.623   0.910
27194W        W97075  19.062  29.071  10.628
27195W        W97076  44.349  28.513   3.305
27196W        W97077  13.185  14.258   4.680
27197W        W97078  20.069  20.617  14.326
27198W        W97079  20.745  20.549  10.576
27199W        W97080  38.824  27.561   3.676
27200W        W97081   9.748  14.668  11.945
27201W        W97082   0.830  42.858  13.902
27202W        W97083  31.607  25.107   2.198
27203W        W97084  26.113  14.695   4.282
27204W        W97085  18.681  37.533  12.088
27205W        W97086  21.729  35.390  13.927
27206W        W97087  23.199  32.531  11.052
27207W        W97088   6.343   9.342  12.355
27208W        W97089   9.170  13.198  14.349
27209W        W97090  22.530  22.020   4.237
27210W        W97091  15.613  26.028  14.367
27211W        W97092  30.488  39.490   1.725
27212W        W97093  40.995  41.403   4.183
27213W        W97094  37.548  12.809   0.380
27214W        W97095   1.276  36.925   0.852
27215W        W97096  10.673  30.972   1.814
27216W        W97097  16.649  20.069   3.803
27217W        W97098   8.891  17.576   4.811
27218W        W97099  35.013  19.174   2.773
27219W        W97100  32.900  44.440   4.688
27220W        W97101   5.841   0.332  11.017
27221W        W97102  30.086   7.190  12.417
27222W        W97103   2.233  38.876   5.257
27223W        W97104  32.982  12.233  12.441
27224W        W97105  16.706  42.028  14.297
27225W        W97106  16.289  32.022   5.147
27226W        W97107  27.150   2.928   2.230
27227W        W97108  44.893  11.238  11.406
27228W        W97109   2.942   4.321  12.505
27229W        W97110  12.652   7.305  12.840
27230W        W97111  21.169  32.467   2.860
27231W        W97112  33.391  28.031  14.960
27232W        W97113  21.542  27.001  11.575
27233W        W97114   3.364   1.909  13.990
27234W        W97115   6.342  12.748  12.451
27235W        W97116  24.100  27.163  11.989
27236W        W97117  34.080  31.013  13.911
27237W        W97118  39.986   8.349  11.871
27238W        W97119  44.904   2.834  13.908
27239W        W97120  29.621  26.683   1.268
27240W        W97121  42.297  23.632   1.869
27241W        W97122  40.478  35.040   0.271
27242W        W97123  17.210  30.159   0.312
27243W        W97124  36.075  17.642   4.804
27244W        W97125   3.392  33.598  13.404
27245W        W97126  39.434  33.007   3.663
27246W        W97127  34.957  26.648   1.450
27247W        W97128   4.356  29.557   3.711
27248W        W97129  39.445  31.477   0.945
27249W        W97130  19.549  15.676  12.952
27250W        W97131  32.107  31.900   0.813
27251W        W97132  13.140   9.814  14.763
27252W        W97133  39.005  29.460  12.933
27253W        W97134  18.195  22.617   1.234
27254W        W97135   4.928   7.180  14.994
27255W        W97136  42.821   5.277  14.994
27256W        W97137  13.267  30.002  10.074
27257W        W97138  18.174  21.524   3.201
27258W        W97139  18.626   6.345  13.817
27259W        W97140  19.146  41.850   4.277
27260W        W97141  26.552  25.592  12.882
27261W        W97142  12.299   0.808   2.772
27262W        W97143   8.785  31.992   4.677
27263W        W97144  13.262  10.252   2.186
27264W        W97145  37.440  40.348   2.881
27265W        W97146  32.550  21.722  13.820
27266W        W97147   7.868  21.191   1.233
27267W        W97148   0.362  38.328  14.868
27268W        W97149  41.911  24.659   3.710
27269W        W97150  35.954  37.994   0.475
27270W        W97151  14.740  40.000   1.935
27271W        W97152  34.011   1.410  11.100
27272W        W97153  14.817  17.145   0.882
27273W        W97154  35.058  12.855   3.249
27274W        W97155  44.769  13.823  10.588
27275W        W97156  25.040  43.878  14.919
27276W        W97157  42.912   8.337   0.942
27277W        W97158  37.472  10.797  12.488
27278W        W97159   3.327   3.813   0.270
27279W        W97160   3.385  27.178   0.759
27280W        W97161  36.850   5.823  12.012
27281W        W97162  44.398  32.091  10.918
27282W        W97163  19.271  16.732  13.881
27283W        W97164  11.839  36.034   1.808
27284W        W97165  33.916   3.439  11.465
27285W        W97166  23.529  32.557  12.983
27286W        W97167   3.220  44.795   2.818
27287W        W97168  17.735  11.238   2.689
27288W        W97169   4.870  27.045   1.891
27289W        W97170  17.776  40.034   4.327
27290W        W97171  11.151  40.820   2.368
27291W        W97172   4.398  36.000  13.919
27292W        W97173  33.062  17.288   5.201
27293W        W97174  33.508  17.130   0.401
27294W        W97175   7.713   0.468   4.195
27295W        W97176  34.442  13.846  13.020
27296W        W97177  31.896  21.606   0.754
27297W        W97178  23.651   7.185   0.955
27298W        W97179  31.907  36.043   1.440
27299W        W97180  22.250  23.506  12.974
27300W        W97181   8.730  38.926   0.760
27301W        W97182  12.336  19.179   0.469
27302W        W97183  21.162  27.061  14.468
27303W        W97184  40.959  11.250   3.346
27304W        W97185  11.677  25.601  10.426
27305W        W97186   4.775   7.846   1.263
27306W        W97187  34.955  17.296   3.871
27307W        W97188  18.609   0.756  14.982
27308W        W97189  19.182   3.371  13.049
27309W        W97190  16.132  37.855   0.347
27310W        W97191  38.386   1.418  14.947
27311W        W97192  25.692  10.342  14.963
27312W        W97193  22.166  38.395   0.919
27313W        W97194  37.072  22.696  10.952
27314W        W97195  14.704   1.867   0.384
27315W        W97196  21.589  39.845   1.382
27316W        W97197  30.648  17.202  13.321
27317W        W97198   7.828  43.498  13.360
27318W        W97199   6.345  15.105   4.311
27319W        W97200  10.304  16.154  13.845
27320W        W97201  24.485  38.552   1.326
27321W        W97202  21.108   3.363  11.412
27322W        W97203  28.545  42.000   2.777
27323W        W97204   8.351  15.114   1.235
27324W        W97205   8.734   2.472  11.439
27325W        W97206  11.282  20.593  10.642
27326W        W97207   3.945  18.139   0.355
27327W        W97208  34.931   6.857   1.817
27328W        W97209  40.384  10.858  14.470
27329W        W97210   4.391  34.097   3.311
27330W        W97211  21.676  31.497  14.032
27331W        W97212   4.259  13.679   4.198
27332W        W97213   3.853   4.358   3.737
27333W        W97214  37.022  27.980   2.355
27334W        W97215  21.696  23.664   3.267
27335W        W97216  14.595  38.871  14.296
27336W        W97217  32.600  29.932   1.367
27337W        W97218  10.677  11.669   3.333
27338W        W97219   8.862  14.208  14.395
27339W        W97220  30.933  16.789  12.469
27340W        W97221  21.249  28.546  14.780
27341W        W97222  29.977  21.184  11.991
27342W        W97223   7.333  44.923   2.260
27343W        W97224  24.724   5.708   3.356
27344W        W97225  35.933  25.582  12.418
27345W        W97226   6.345   3.900   2.845
27346W        W97227  39.373  13.646  12.947
27347W        W97228  13.704  36.984   5.225
27348W        W97229  12.723  23.010   2.370
27349W        W97230  30.025  18.070   4.808
27350W        W97231  29.036   6.295   4.604
27351W        W97232   3.388   4.410  10.917
27352W        W97233  11.331  37.471  13.985
27353W        W97234  44.938   6.915   2.694
27354W        W97235  38.549  12.800   3.775
27355W        W97236  31.948  41.950  14.820
27356W        W97237  16.615  24.613  14.938
27357W        W97238  19.277  23.994  11.899
27358W        W97239   2.253  20.694   1.933
27359W        W97240  34.411  40.905   2.817
27360W        W97241  12.229  24.165   4.826
27361W        W97242   9.700  38.364   1.902
27362W        W97243  30.050  30.061   3.673
27363W        W97244   8.257  40.824   3.150
27364W        W97245  31.026  23.038   2.290
27365W        W97246   7.202  20.758  11.971
27366W        W97247  12.793  17.292   3.189
27367W        W97248  13.239   1.244  13.864
27368W        W97249   0.253   9.679   1.435
27369W        W97250  32.557  14.152   4.264
27370W        W97251  43.788   3.364  10.540
27371W        W97252  22.695  28.089  12.407
27372W        W97253  25.510   6.379   4.241
27373W        W97254  40.937   8.173  11.972
27374W        W97255  40.008  28.029  10.921
27375W        W97256   1.301  19.281  12.437
27376W        W97257  18.231  22.673  14.351
27377W        W97258  35.945  32.569  13.418
27378W        W97259  28.563  11.766   4.783
27379W        W97260  29.544  14.726   0.441
27380W        W97261  31.594  42.849  14.763
27381W        W97262  30.604  22.075   1.385
27382W        W97263  35.445  18.194  11.081
27383W        W97264   4.334   7.691  13.887
27384W        W97265  26.124   9.355  14.409
27385W        W97266  36.965   8.319   3.309
27386W        W97267  22.514  29.990   4.273
27387W        W97268  14.665  11.225   3.784
27388W        W97269  37.834  24.093  13.848
27389W        W97270  14.120  27.040  11.887
27390W        W97271  26.564  41.919  13.881
27391W        W97272   2.844  42.919   4.763
27392W        W97273  41.459  18.744   0.817
27393W        W97274  42.795  11.750  11.941
27394W        W97275   8.694  44.296   3.167
27395W        W97276  42.865  30.618   2.809
27396W        W97277  16.243  28.437  10.545
27397W        W97278  37.442  13.140   3.730
27398W        W97279  22.031   0.962  11.418
27399W        W97280   3.306  29.566  14.292
27400W        W97281  38.941  33.087   1.797
27401W        W97282   1.445   7.226   3.849
27402W        W97283  28.075   5.834   1.396
27403W        W97284  24.154  20.540  10.617
27404W        W97285  32.948  32.102  10.625
27405W        W97286  41.337  38.413  14.382
27406W        W97287  37.073  22.180  11.387
27407W        W97288   0.858  17.733   2.282
27408W        W97289  33.098  13.321   2.203
27409W        W97290  39.965  35.506   4.113
27410W        W97291  43.997  31.949   4.617
27411W        W97292  14.604  16.268  12.854
27412W        W97293  27.085  28.449   0.257
27413W        W97294   2.895  26.514   4.228
27414W        W97295  16.181  16.072   2.335
27415W        W97296  31.930  10.777  10.533
27416W        W97297  35.098  38.403  14.329
27417W        W97298  41.522  37.921   2.308
27418W        W97299  42.003  32.077   0.250
27419W        W97300  21.153  34.568   2.682
27420W        W97301  25.974   7.244   1.433
27421W        W97302  15.260   5.704   4.158
27422W        W97303  30.975  11.773  11.120
27423W        W97304  14.263  42.946   1.914
27424W        W97305  44.492  16.244   3.655
27425W        W97306  36.451  37.461  11.027
27426W        W97307  29.051  17.757  13.524
27427W        W97308  30.569   4.859   2.769
27428W        W97309  19.552  27.541  11.452
27429W        W97310  35.859  42.445  12.394
27430W        W97311  19.199  34.424   2.767
27431W        W97312  21.753   1.846  13.440
27432W        W97313   6.882   4.228   1.904
27433W        W97314   0.347  43.887  14.364
27434W        W97315  12.644  43.493   0.901
27435W        W97316  42.403  17.073   4.641
27436W        W97317  30.531  23.605   2.219
27437W        W97318  24.077  40.307   2.729
27438W        W97319  32.522  21.099  14.415
27439W        W97320  17.684  36.080   1.245
27440W        W97321  29.467  33.942  14.837
27441W        W97322  11.780   7.399   1.818
27442W        W97323  37.005  21.249   3.700
27443W        W97324  37.450  38.937   3.707
27444W        W97325  24.526  16.746   2.830
27445W        W97326  32.125  21.590  12.473
27446W        W97327   2.956  14.711   0.767
27447W        W97328  23.003  31.068  12.363
27448W        W97329  10.779  18.223   3.786
27449W        W97330  29.006  33.967  14.348
27450W        W97331  19.072  19.042  13.417
27451W        W97332   3.341  26.044  12.905
27452W        W97333   0.279  34.519  12.936
27453W        W97334   9.174  42.379  12.862
27454W        W97335  27.581  20.599  11.583
27455W        W97336  16.111  21.252   2.738
27456W        W97337  19.574   8.828   5.093
27457W        W97338  14.684  16.143  13.330
27458W        W97339  11.341   6.873   3.199
27459W        W97340   4.912  41.910   3.652
27460W        W97341  34.513   9.176   1.220
27461W        W97342  23.707  10.696  14.992
27462W        W97343  13.111   9.674  11.020
27463W        W97344  13.697  37.382   5.166
27464W        W97345  43.001  14.765  12.543
27465W        W97346   8.239  39.408   4.260
27466W        W97347  20.749  16.719   0.788
27467W        W97348  17.163   4.343   2.264
27468W        W97349  37.452   6.737   3.259
27469W        W97350  18.109   8.666  11.090
27470W        W97351   3.219  16.648  14.942
27471W        W97352  38.343   9.677   1.269
27472W        W97353  43.515  28.028  14.315
27473W        W97354  27.473  29.611   0.439
27474W        W97355   7.309   4.297   2.219
27475W        W97356  30.110  31.584   0.729
27476W        W97357  17.096   9.888   0.285
27477W        W97358  26.668  28.519   1.821
27478W        W97359  12.305   7.719  11.870
27479W        W97360  42.860  13.627   4.177
27480W        W97361  33.967  14.256  10.447
27481W        W97362  18.556  41.523   2.196
27482W        W97363  24.615   3.844   0.474
27483W        W97364  13.654  29.460  13.419
27484W        W97365  24.542  14.260  10.590
27485W        W97366  34.524   9.384  10.407
27486W        W97367   6.769  25.500   0.964
27487W        W97368  11.325   6.713  11.397
27488W        W97369  21.027  34.558   1.785
27489W        W97370  20.696  20.646   3.255
27490W        W97371  15.278  30.066   3.340
27491W        W97372  12.236  42.342   1.881
27492W        W97373   0.429  42.011   3.254
27493W        W97374   4.703  23.147  12.406
27494W        W97375   9.671  21.666   2.839
27495W        W97376  44.854  33.487   2.755
27496W        W97377   6.250  12.303   3.778
27497W        W97378  39.983  13.647   3.754
27498W        W97379  16.290  32.581   2.254
27499W        W97380   9.222   1.825   1.211
27500W        W97381  19.640  36.358   3.798
27501W        W97382  31.560  28.951   0.827
27502W        W97383  23.048  30.128   0.773
27503W        W97384  41.803  16.604  14.793
27504W        W97385  12.142  33.098  11.419
27505W        W97386  17.276   3.818  14.840
27506W        W97387  18.078  42.823   4.124
27507W        W97388  31.481  29.625   2.214
27508W        W97389   3.441  10.812   2.801
27509W        W97390  44.300  37.942  14.855
27510W        W97391  33.961   3.931   1.844
27511W        W97392   3.368  43.814  14.377
27512W        W97393  34.077  10.291   3.634
27513W        W97394  37.564   6.881  13.056
27514W        W97395  39.350  10.309   3.780
27515W        W97396  36.535  13.207  14.848
27516W        W97397  12.166  33.488  14.292
27517W        W97398   4.713  39.505   1.432
27518W        W97399  38.069  41.415  14.382
27519W        W97400  35.049  41.937   1.813
27520W        W97401  39.018  26.533   2.876
27521W        W97402  42.307  12.701  14.920
27522W        W97403  34.397  20.569  12.839
27523W        W97404   5.889   5.736  13.338
27524W        W97405  31.632   6.788   0.417
27525W        W97406  26.993  14.134  14.763
27526W        W97407  34.387   8.733  10.529
27527W        W97408  32.403   3.403   3.294
27528W        W97409   7.844  29.561   2.263
27529W        W97410   5.758  41.297  14.433
27530W        W97411  29.592  44.377  10.032
27531W        W97412  31.933  28.513   0.766
27532W        W97413   3.948   3.874   2.890
27533W        W97414  14.229  28.000   1.430
27534W        W97415  37.493  44.419  10.473
27535W        W97416  14.152   6.401  13.799
27536W        W97417  42.903  36.883  12.856
27537W        W97418  34.937  17.102  12.988
27538W        W97419  28.506  16.145   2.879
27539W        W97420  28.163  36.483   3.776
27540W        W97421  40.362  14.147  11.086
27541W        W97422  15.656  41.472   4.686
27542W        W97423  35.082  30.567   3.156
27543W        W97424  41.864   0.408   3.761
27544W        W97425   2.848  33.392   3.167
27545W        W97426   8.285  10.853  10.888
27546W        W97427  19.570  20.211   1.888
27547W        W97428  37.968   5.846  14.907
27548W        W97429  11.857  33.450   1.244
27549W        W97430  26.620  40.369  10.891
27550W        W97431   5.432  43.812   2.794
27551W        W97432  27.517  21.613  10.493
27552W        W97433  37.029  17.582   0.824
27553W        W97434  21.152  19.167  10.444
27554W        W97435  39.923  26.609  12.492
27555W        W97436  20.150   1.415  13.326
27556W        W97437  14.132  39.874  11.390
27557W        W97438  33.090  16.693   0.918
27558W        W97439   6.835  17.769  12.846
27559W        W97440  33.415  16.315  13.328
27560W        W97441   9.236   0.474   2.301
27561W        W97442  30.049  17.713   5.181
27562W        W97443  19.216   7.885   3.334
27563W        W97444  25.168   0.270  11.898
27564W        W97445  17.610  37.963   0.957
27565W        W97446  21.700  27.192  10.632
27566W        W97447  18.050   9.325  13.309
27567W        W97448  10.687  37.381   0.295
27568W        W97449  38.423  29.090  13.808
27569W        W97450  21.742  26.976  12.521
27570W        W97451  26.152  23.736   4.121
27571W        W97452  40.524  26.971  14.280
27572W        W97453   5.202  34.100  13.497
27573W        W97454   8.693  22.097   1.410
27574W        W97455   6.188  39.536  13.948
27575W        W97456  20.188   6.247  12.370
27576W        W97457  36.895  24.076  12.347
27577W        W97458   7.882  30.121   0.296
27578W        W97459  14.162   7.379   1.356
27579W        W97460  25.649  35.033   4.692
27580W        W97461  20.205  32.126   3.338
27581W        W97462  19.696  35.964   3.633
27582W        W97463  34.986  12.249   2.360
27583W        W97464  42.412  15.202  14.909
27584W        W97465  15.814  10.870   3.733
27585W        W97466  30.014  34.565   2.301
27586W        W97467  42.291  40.916   3.212
27587W        W97468  28.548  42.376   0.458
27588W        W97469  29.116  40.443  11.030
27589W        W97470   2.283  43.937   0.851
27590W        W97471  28.109  19.673  14.378
27591W        W97472   7.862  17.101   2.340
27592W        W97473  24.202  19.230  14.005
27593W        W97474  44.291  25.712   4.228
27594W        W97475  11.320  41.537  12.965
27595W        W97476  23.058  38.529  12.916
27596W        W97477  26.614  36.435  12.079
27597W        W97478  34.467  41.798   3.378
27598W        W97479  17.562  44.993  11.129
27599W        W97480  12.123  40.845   1.841
27600W        W97481  42.294  42.477  14.854
27601W        W97482  29.425  31.435  14.349
27602W        W97483  37.542  28.137  13.330
27603W        W97484  17.642  26.959  11.476
27604W        W97485  34.103  39.995  11.450
27605W        W97486  16.773  22.090   1.750
27606W        W97487  37.441  12.845  12.088
27607W        W97488  23.585  29.944  14.891
27608W        W97489  38.327   9.290  10.437
27609W        W97490  29.159  14.194   3.301
27610W        W97491   4.722  16.185  11.939
27611W        W97492   8.279   8.207   2.291
27612W        W97493  31.056  26.673   3.217
27613W        W97494   1.845  13.216   0.961
27614W        W97495  40.919  36.893  13.390
27615W        W97496  24.053  28.643   1.710
27616W        W97497  21.537  32.440   0.256
27617W        W97498  12.852  19.148  14.780
27618W        W97499   8.199   5.805   3.805
27619W        W97500   9.701  29.169  11.975
27620W        W97501   2.840   2.810   2.842
27621W        W97502  35.926  16.183  10.597
27622W        W97503  34.956  26.522   0.870
27623W        W97504  37.541   7.725   0.914
27624W        W97505   9.202   1.400   2.885
27625W        W97506  30.070  11.801  12.463
27626W        W97507  40.893   7.177  11.568
27627W        W97508  30.564  41.997  14.364
27628W        W97509  36.023  12.653   2.413
27629W        W97510   9.268  11.243   4.708
27630W        W97511  36.894  38.020  10.556
27631W        W97512  41.842  33.538  11.521
27632W        W97513  38.486  40.536  14.426
27633W        W97514  44.852  43.296   3.295
27634W        W97515  20.095  15.615  11.110
27635W        W97516  44.364  19.778   1.935
27636W        W97517  27.515  22.589   0.961
27637W        W97518  15.149  42.015   2.808
27638W        W97519  28.088   2.746   4.135
27639W        W97520  22.196  42.513  13.321
27640W        W97521  21.734  41.505   3.676
27641W        W97522  18.147  42.970  11.931
27642W        W97523  30.047  28.078   1.886
27643W        W97524  41.027  37.959  12.419
27644W        W97525  18.268  33.003  11.096
27645W        W97526   4.864   8.286   0.873
27646W        W97527  26.206   8.390   2.839
27647W        W97528  23.636   8.359  13.494
27648W        W97529  40.439  37.044   2.292
27649W        W97530  33.030  42.921   0.291
27650W        W97531   6.189  20.074   1.832
27651W        W97532   4.382  17.292  12.069
27652W        W97533  24.621  42.417  11.537
27653W        W97534  28.136  29.581  14.873
27654W        W97535  10.223   9.845   5.247
27655W        W97536   0.797  20.603   4.319
27656W        W97537  23.025  24.530   3.203
27657W        W97538   2.953   9.156   1.788
27658W        W97539  12.638  42.515   2.278
27659W        W97540  17.104  39.861  13.499
27660W        W97541  14.338  35.903  12.541
27661W        W97542  39.531   1.790  11.896
27662W        W97543  37.428  42.962   4.329
27663W        W97544  16.273  41.493   3.792
27664W        W97545  27.531  33.068   0.358
27665W        W97546   2.405   7.735   3.304
27666W        W97547  37.522  35.568  14.879
27667W        W97548  19.569  15.670   3.309
27668W        W97549   9.755   9.653  14.501
27669W        W97550  19.540  18.150   1.866
27670W        W97551  17.156  25.642   3.663
27671W        W97552  14.754  26.161   3.297
27672W        W97553  41.965   3.251  13.514
27673W        W97554   8.266  36.060   0.930
27674W        W97555   2.354  12.132  10.915
27675W        W97556  15.266  14.787   3.167
27676W        W97557  26.548  32.005   0.866
27677W        W97558  42.951  44.885   4.120
27678W        W97559  43.299   7.277  12.890
27679W        W97560  35.576   8.284   1.217
27680W        W97561  35.104  34.450  13.367
27681W        W97562   5.749   1.874   3.779
27682W        W97563  13.611  40.426  14.794
27683W        W97564  43.904  37.352   0.345
27684W        W97565   0.329  21.630  13.008
27685W        W97566  11.867  15.238  13.896
27686W        W97567   8.175  19.703  12.885
27687W        W97568  10.735  25.482  12.352
27688W        W97569  38.875  10.292  11.986
27689W        W97570  42.441  43.390   1.398
27690W        W97571  30.612  22.069  11.076
27691W        W97572  25.573   6.239   0.930
27692W        W97573  22.604   3.814  10.448
27693W        W97574  28.119   5.824   0.918
27694W        W97575   3.226   3.351   0.728
27695W        W97576  35.550  34.438   3.808
27696W        W97577  36.507  15.762  11.039
27697W        W97578   9.239   7.677  10.562
27698W        W97579  27.669  18.086  13.510
27699W        W97580  26.485   2.446   1.752
27700W        W97581  30.584  16.283   3.711
27701W        W97582  40.943  24.723   3.283
27702W        W97583  31.472  15.693  10.099
27703W        W97584  27.681  11.651   1.382
27704W        W97585  38.449  37.371  12.437
27705W        W97586  12.229  28.127   2.750
27706W        W97587  19.598  30.539   3.763
27707W        W97588  35.590  13.695  10.995
27708W        W97589  32.535  21.537  10.941
27709W        W97590   0.800   6.328  14.866
27710W        W97591  18.258   6.241   4.827
27711W        W97592  33.942  17.200   1.868
27712W        W97593  21.237   7.349   1.330
27713W        W97594   2.809  38.984  10.923
27714W        W97595   1.815  26.701  10.534
27715W        W97596   8.832  33.389   2.672
27716W        W97597  24.682  24.511   1.274
27717W        W97598   8.861  29.117   4.715
27718W        W97599  28.071  27.546  13.874
27719W        W97600  37.531  30.099   2.820
27720W        W97601  43.798   9.187  12.519
27721W        W97602  23.061  40.370   4.139
27722W        W97603  14.150  33.434   0.797
27723W        W97604  36.528  19.594   2.800
27724W        W97605   9.190   4.845  14.329
27725W        W97606  24.059  32.066   1.295
27726W        W97607   0.988  10.815   3.678
27727W        W97608  18.569  33.933  14.380
27728W        W97609  37.048  28.601   2.804
27729W        W97610   5.372   2.405   4.606
27730W        W97611  44.876  23.192   2.794
27731W        W97612  37.544  22.530  14.456
27732W        W97613   3.230  27.039   3.765
27733W        W97614  11.238  37.879  10.421
27734W        W97615   7.839  11.693   4.163
27735W        W97616  29.660  25.097   5.146
27736W        W97617  38.422   4.379   0.863
27737W        W97618  39.846  24.087   0.247
27738W        W97619  42.347  35.476   1.276
27739W        W97620   2.774  20.705  14.414
27740W        W97621  44.867  28.457  13.932
27741W        W97622  39.333  33.125  13.064
27742W        W97623  14.184  43.316  13.459
27743W        W97624   6.886   0.305  12.022
27744W        W97625  16.638  27.489   0.304
27745W        W97626  20.699  42.490   3.328
27746W        W97627   3.842  14.607  12.543
27747W        W97628   0.378  14.318   0.734
27748W        W97629   1.943  10.744  11.064
27749W        W97630  17.259  38.400   3.152
27750W        W97631  14.332  42.358   0.307
27751W        W97632  11.676   7.333   9.945
27752W        W97633  27.147   6.300  14.278
27753W        W97634  37.535  17.073  11.969
27754W        W97635  30.027   9.888   2.291
27755W        W97636   6.362  22.244  11.432
27756W        W97637   6.411   9.673   1.765
27757W        W97638  39.039  12.634   4.813
27758W        W97639  27.116  43.418  13.964
27759W        W97640  28.152  19.095  12.840
27760W        W97641  14.640   9.679  10.520
27761W        W97642  25.090  44.792  12.900
27762W        W97643  33.951  38.970  12.522
27763W        W97644   7.290  15.111   2.730
27764W        W97645  11.319   7.754  14.341
27765W        W97646  11.859   0.803   2.411
27766W        W97647  43.953  18.282   1.879
27767W        W97648  21.204  43.424  13.989
27768W        W97649   0.291  42.970   0.826
27769W        W97650  17.134   9.264  12.569
27770W        W97651  24.493   9.724   1.322
27771W        W97652  44.917  38.015   1.373
27772W        W97653  29.459   4.825  12.484
27773W        W97654  42.819  11.730   0.476
27774W        W97655  35.505   5.425   3.810
27775W        W97656  40.452  27.661   2.408
27776W        W97657  34.416  28.509   1.210
27777W        W97658  41.030  33.963  11.000
27778W        W97659   3.820   9.248   4.242
27779W        W97660  36.525  44.954  14.915
27780W        W97661  23.169  14.699  14.769
27781W        W97662   5.290  38.433  12.990
27782W        W97663  23.106  39.975  12.381
27783W        W97664  22.556  29.156  14.494
27784W        W97665  16.229  20.040   3.819
27785W        W97666   9.341  27.116  12.532
27786W        W97667  10.282  16.765  12.053
27787W        W97668  20.029   2.294  11.964
27788W        W97669  43.350   6.253   9.953
27789W        W97670  24.517  37.430  13.808
27790W        W97671  41.935  34.384  13.338
27791W        W97672  11.233  23.117   3.795
27792W        W97673  26.176  31.055  14.969
27793W        W97674  37.938  32.021  12.539
27794W        W97675  34.029   9.290   3.174
27795W        W97676  17.182  22.169   4.684
27796W        W97677  21.257  32.532  10.428
27797W        W97678  14.167  13.314   2.875
27798W        W97679  40.938  25.570   0.252
27799W        W97680   7.342  17.688   1.311
27800W        W97681  20.070   2.382   4.153
27801W        W97682  33.441  43.014  14.771
27802W        W97683   6.776  14.219  11.127
27803W        W97684  33.053  44.950   2.763
27804W        W97685  21.625  23.059   0.842
27805W        W97686  21.557  42.875   3.186
27806W        W97687  10.824  14.774  14.030
27807W        W97688  22.532  20.569  10.091
27808W        W97689  42.473   7.677   0.874
27809W        W97690  23.103  20.718  14.020
27810W        W97691  34.932   7.402   9.974
27811W        W97692  35.917  32.115   1.368
27812W        W97693  13.776   3.345  11.497
27813W        W97694  26.151  13.778   3.819
27814W        W97695   5.892  20.735   0.244
27815W        W97696   0.423  29.562   1.731
27816W        W97697  31.550  12.717  12.968
27817W        W97698  42.821   5.880  14.354
27818W        W97699  15.320  23.572   1.824
27819W        W97700  21.060  15.585   3.692
27820W        W97701  38.975  19.088   3.837
27821W        W97702  37.855  17.707  13.370
27822W        W97703  30.934  27.033  11.537
27823W        W97704  26.642  11.688  13.307
27824W        W97705  40.941  13.716  14.011
27825W        W97706  21.040  11.701  11.377
27826W        W97707  36.894  19.069   1.754
27827W        W97708   5.898  25.046   1.713
27828W        W97709   7.268   0.441  11.901
27829W        W97710   3.361   8.734  10.608
27830W        W97711  17.100  15.133   0.749
27831W        W97712  32.503  29.055  13.906
27832W        W97713  27.953   1.293  14.317
27833W        W97714  28.552  13.767   1.283
27834W        W97715  41.800  30.992  12.991
27835W        W97716  12.730  25.192  13.468
27836W        W97717  26.681   5.858   3.266
27837W        W97718  24.098  25.079  14.982
27838W        W97719   5.385  24.531   3.265
27839W        W97720  44.996  11.231   4.705
27840W        W97721  37.452  34.592  11.862
27841W        W97722  11.307   5.757  12.446
27842W        W97723  37.497  22.500  12.432
27843W        W97724  31.541   5.286   3.867
27844W        W97725  32.990  16.260   3.301
27845W        W97726  39.320   6.235   3.674
27846W        W97727   2.298  35.485  12.506
27847W        W97728   7.699  20.225  10.977
27848W        W97729  23.173   3.367   5.167
27849W        W97730  26.186  25.497   1.232
27850W        W97731   9.793  18.105  13.791
27851W        W97732  44.389  38.968  11.087
27852W        W97733  44.455   3.421  13.524
27853W        W97734  26.466  40.349  13.043
27854W        W97735  39.433  14.187  13.027
27855W        W97736  22.638  35.524   4.310
27856W        W97737  35.548  30.064   3.289
27857W        W97738  35.482  22.639  11.425
27858W        W97739  44.388  16.245  13.905
27859W        W97740   2.240  31.533  12.974
27860W        W97741  42.926   0.292  12.549
27861W        W97742  12.185   4.304  14.815
27862W        W97743  25.471  29.480   4.209
27863W        W97744  11.318  27.126  12.486
27864W        W97745  10.725  29.044   3.219
27865W        W97746   6.269   1.809   5.195
27866W        W97747   7.231   8.185   3.834
27867W        W97748   1.969  34.899  14.798
27868W        W97749  21.236  29.664  11.878
27869W        W97750  22.506  31.978  12.076
27870W        W97751  16.285  37.572   1.915
27871W        W97752  18.160  40.498   4.804
27872W        W97753  16.763   7.344   0.742
27873W        W97754  35.484   1.936  11.124
27874W        W97755  12.744  11.315   1.350
27875W        W97756   3.934  20.124   2.731
27876W        W97757  21.707  18.148   0.879
27877W        W97758   0.936  25.210  13.846
27878W        W97759  35.544   1.805  11.472
27879W        W97760  25.625  40.385   4.757
27880W        W97761   5.869  31.048   3.260
27881W        W97762   7.207  33.933   2.271
27882W        W97763  19.223  18.176  13.463
27883W        W97764  33.935  40.913   0.406
27884W        W97765  26.687  38.868   4.198
27885W        W97766  25.110  10.205  10.588
27886W        W97767   2.228  41.965   2.212
27887W        W97768  20.227   3.220  14.472
27888W        W97769   5.743   7.813   0.439
27889W        W97770  41.518  30.084  12.045
27890W        W97771  11.824  44.299   1.279
27891W        W97772  36.089  17.089  10.995
27892W        W97773  29.528  44.329   3.341
27893W        W97774  18.146  10.663   2.767
27894W        W97775  29.046   4.744   3.265
27895W        W97776  43.313  12.828   1.275
27896W        W97777  24.547  15.799   4.224
27897W        W97778   7.753  29.645  12.571
27898W        W97779  15.296  25.621   3.177
27899W        W97780  31.566   7.823   1.277
27900W        W97781  13.818  43.312   0.870
27901W        W97782   6.368  38.457  13.886
27902W        W97783  36.029  11.266   3.728
27903W        W97784  25.058  10.791  12.427
27904W        W97785   5.265  12.693  10.893
27905W        W97786  15.318  12.632   4.641
27906W        W97787  34.611  28.186  14.406
27907W        W97788  15.106  24.694  13.972
27908W        W97789  25.216  12.722   2.811
27909W        W97790  40.851   5.226  12.065
27910W        W97791   1.324  24.227  13.929
27911W        W97792  21.755  10.783   2.799
27912W        W97793  43.776  10.192   4.822
27913W        W97794  27.616  24.195   2.714
27914W        W97795  27.527  24.108   0.871
27915W        W97796  19.232  43.770  12.025
27916W        W97797  12.773  25.134  14.466
27917W        W97798  19.632  34.988  14.762
27918W        W97799  34.044   0.427  13.333
27919W        W97800  10.858  24.032   1.825
27920W        W97801  29.027  25.700   1.291
27921W        W97802  37.440  33.977   3.384
27922W        W97803  41.813  29.925  10.633
27923W        W97804  42.399  40.355   4.327
27924W        W97805   8.401  34.924   2.744
27925W        W97806   9.877  25.669   0.357
27926W        W97807  42.309   9.387  10.924
27927W        W97808  29.573  41.310  11.882
27928W        W97809  12.255  42.802  14.465
27929W        W97810  25.511  12.148   0.303
27930W        W97811  14.264  24.613  14.786
27931W        W97812   0.870   8.248  14.402
27932W        W97813  10.852  26.109   3.742
27933W        W97814  35.064  43.322   0.431
27934W        W97815   6.796  11.355   3.664
27935W        W97816   3.883  38.397   4.630
27936W        W97817   4.863  37.532  14.424
27937W        W97818  38.412  26.588   0.786
27938W        W97819   9.332  42.402   4.124
27939W        W97820  24.624  13.237  12.084
27940W        W97821   6.793  23.202   3.345
27941W        W97822  32.500  35.924   1.311
27942W        W97823  27.639  18.752  11.896
27943W        W97824   5.745   8.186   4.747
27944W        W97825  25.168  20.156   2.677
27945W        W97826  33.907  28.140   1.310
27946W        W97827   4.207  36.543  11.527
27947W        W97828  19.636  19.260  12.927
27948W        W97829  40.023   2.309  11.540
27949W        W97830  21.583  12.702  13.526
27950W        W97831   2.298  22.048  13.391
27951W        W97832  15.159   0.924  12.069
27952W        W97833  26.166  33.115   0.911
27953W        W97834  22.598  17.213   0.434
27954W        W97835   7.357  28.942  11.060
27955W        W97836  38.486  31.037  12.502
27956W        W97837   1.394  25.159   1.423
27957W        W97838   3.343   9.347   3.653
27958W        W97839  13.349  44.319   3.659
27959W        W97840  15.094   9.170   3.631
27960W        W97841   2.325  23.595   0.347
27961W        W97842  20.721  18.276  14.818
27962W        W97843  26.019   5.865   3.750
27963W        W97844  39.440  10.224   4.772
27964W        W97845  24.105   7.875   3.665
27965W        W97846  20.159  11.796   0.386
27966W        W97847  38.017  21.030  14.918
27967W        W97848  14.789  14.700   3.647
27968W        W97849  40.474  29.939  13.791
27969W        W97850  13.317  32.524   4.803
27970W        W97851   8.809  36.009   1.887
27971W        W97852  27.079  41.028   2.819
27972W        W97853  15.699   3.851   4.338
27973W        W97854  22.552  36.365   0.329
27974W        W97855  15.757   9.676  12.044
27975W        W97856  32.431  30.025  14.782
27976W        W97857   6.709  17.738  12.018
27977W        W97858   0.264  27.482   2.334
27978W        W97859  36.011  22.586   2.231
27979W        W97860  14.271  34.504   1.799
27980W        W97861  44.996  14.747   4.780
27981W        W97862  24.986  26.203   2.869
27982W        W97863  11.346  13.236   1.822
27983W        W97864  38.377  14.289   3.330
27984W        W97865   1.269  29.667   2.764
27985W        W97866  15.291  33.041   4.250
27986W        W97867  19.571  24.605  12.922
27987W        W97868  16.650  14.171   1.881
27988W        W97869   0.836  17.133  12.832
27989W        W97870  16.676  22.219  12.894
27990W        W97871   9.663  42.416  12.955
27991W        W97872  38.035   0.836   3.361
27992W        W97873  44.923  17.154   3.777
27993W        W97874  41.870  26.530   0.480
27994W        W97875  24.173  22.628   1.878
27995W        W97876   4.703  15.721   3.145
27996W        W97877  29.559   7.415  14.829
27997W        W97878  14.320  23.568  14.962
27998W        W97879  16.293  16.302  12.493
27999W        W97880   1.445   7.808  11.055
28000W        W97881  30.507  27.003   1.302
28001W        W97882  23.104  34.089   4.638
28002W        W97883  29.967  29.534   2.668
28003W        W97884   9.662   5.695   4.683
28004W        W97885  35.920   9.803   0.773
28005W        W97886  25.121  17.684  14.010
28006W        W97887  42.469  26.142  12.485
28007W        W97888  17.158  14.286   3.822
28008W        W97889   8.721  12.632  14.769
28009W        W97890  37.478  38.340   1.315
28010W        W97891  25.657  11.316  14.814
28011W        W97892  37.551  42.412  11.015
28012W        W97893   9.769  12.221   1.706
28013W        W97894   3.240   7.748   2.841
28014W        W97895  29.572   5.355   1.383
28015W        W97896   7.800   9.654  11.529
28016W        W97897   1.927  15.688  11.914
28017W        W97898  23.151  13.311  14.405
28018W        W97899  18.170  31.592   0.924
28019W        W97900  19.117  29.635  14.286
28020W        W97901  14.647  35.918   9.985
28021W        W97902  18.054  40.896  10.467
28022W        W97903  37.027  43.847   3.324
28023W        W97904  16.191  17.582  14.427
28024W        W97905  19.571  17.676   1.337
28025W        W97906  23.659  44.877   3.294
28026W        W97907  21.523  26.577  12.024
28027W        W97908   3.409  26.199  12.542
28028W        W97909  21.572   6.911   2.705
28029W        W97910   6.410  13.737  13.363
28030W        W97911  25.495  12.743   1.820
28031W        W97912  22.252  23.031   4.127
28032W        W97913  26.003  33.485   2.320
28033W        W97914   9.813   2.766   4.783
28034W        W97915  14.784   1.783  12.522
28035W        W97916  23.019  12.248   2.869
28036W        W97917  37.344  28.943  12.921
28037W        W97918  19.084  13.705  13.848
28038W        W97919  33.112  10.789  13.844
28039W        W97920  19.748  14.652  13.958
28040W        W97921  25.609  10.169  12.038
28041W        W97922  41.957  11.622   0.432
28042W        W97923  32.508  29.548  12.551
28043W        W97924  39.453  10.263   3.305
28044W        W97925  39.852  19.280  14.982
28045W        W97926  42.835   9.856  11.942
28046W        W97927  17.096   4.735   3.656
28047W        W97928   6.349  39.460   0.756
28048W        W97929  39.970  24.032  13.888
28049W        W97930  23.137  33.529   3.847
28050W        W97931  18.234  23.664  10.939
28051W        W97932  41.500   5.261   4.752
28052W        W97933  23.066  22.579   2.662
28053W        W97934  11.795  19.562   4.309
28054W        W97935   6.290  26.135   1.723
28055W        W97936  36.848  17.648   0.394
28056W        W97937  27.095  12.167  13.022
28057W        W97938   4.302   9.348  11.056
28058W        W97939  43.007  13.307   0.334
28059W        W97940  23.634   7.864  14.475
28060W        W97941  32.072  30.036  10.513
28061W        W97942   4.895  42.946   0.251
28062W        W97943  20.225  42.903   3.284
28063W        W97944  38.440  23.052   1.869
28064W        W97945  41.496   7.775  13.981
28065W        W97946  37.410  37.406  11.856
28066W        W97947  44.342   4.838   2.791
28067W        W97948   3.900  25.216   1.360
28068W        W97949   5.348   6.205   2.235
28069W        W97950   3.268  16.680  13.799
28070W        W97951  12.630  36.929   4.124
28071W        W97952  18.211  11.792   4.787
28072W        W97953   8.265  33.588   2.243
28073W        W97954   6.793   9.394   2.803
28074W        W97955  13.614   1.254  11.514
28075W        W97956   6.201  43.940   3.223
28076W        W97957  13.166  38.365   4.200
28077W        W97958   6.352  31.004   0.379
28078W        W97959  43.304   4.386  12.521
28079W        W97960   1.767  19.780  12.079
28080W        W97961  16.606  10.307   2.883
28081W        W97962  41.832  40.813   4.279
28082W        W97963  35.965  35.011   2.785
28083W        W97964  15.778  34.547   4.248
28084W        W97965  24.679  22.504  13.889
28085W        W97966  30.535  26.203  13.437
28086W        W97967  32.606  24.112  14.390
28087W        W97968   3.818   3.807  13.985
28088W        W97969  40.832   9.659  10.454
28089W        W97970  27.458  24.632  14.815
28090W        W97971  43.393  44.004   4.703
28091W        W97972  10.756  29.575  11.519
28092W        W97973  43.019  16.632   1.318
28093W        W97974   3.352  22.216   3.632
28094W        W97975  28.020   7.862  11.923
28095W        W97976  19.578  17.619  11.375
28096W        W97977  28.666  36.591  14.911
28097W        W97978  11.295  36.357  14.960
28098W        W97979   5.782   5.361   4.652
28099W        W97980   3.886  15.092  10.427
28100W        W97981  21.194   8.674   3.245
28101W        W97982  17.268  42.957  13.493
28102W        W97983  34.885  31.038   0.728
28103W        W97984   1.303  33.004   1.351
28104W        W97985  36.033  19.102   1.900
28105W        W97986  44.883  10.291   1.398
28106W        W97987  41.041   3.312   1.438
28107W        W97988  43.431  17.106   1.697
28108W        W97989  11.262   6.700   3.779
28109W        W97990  26.665   5.350   3.864
28110W        W97991  29.130  23.724   3.633
28111W        W97992  26.480  13.197  11.430
28112W        W97993  24.054  24.627   4.271
28113W        W97994  21.670  30.646   0.449
28114W        W97995  30.552  20.105   4.271
28115W        W97996  10.222  25.690  12.841
28116W        W97997  27.064   7.409   2.769
28117W        W97998  11.192  10.230   1.704
28118W        W97999   5.410   6.318   3.833
28119W        W98000  37.555  34.451  10.985
28120W        W98001  24.132  39.512  14.461
28121W        W98002  17.645  13.300  13.893
28122W        W98003   2.878  42.980  12.071
28123W        W98004  33.431  22.998  10.473
28124W        W98005  28.055   7.853  10.114
28125W        W98006  27.692  17.665  12.882
28126W        W98007  12.251  27.193  10.565
28127W        W98008   5.770  10.179   2.281
28128W        W98009  40.983  32.119   4.692
28129W        W98010   0.950  28.999  13.897
28130W        W98011   7.271  32.063  12.561
28131W        W98012  32.583  25.214  10.580
28132W        W98013  39.370  44.317   3.242
28133W        W98014  14.798  26.569  13.384
28134W        W98015   0.355  42.386  13.441
28135W        W98016  42.795  25.486  11.517
28136W        W98017  16.709   2.909  11.414
28137W        W98018  31.952  41.937   3.346
28138W        W98019   9.168   8.817  14.800
28139W        W98020  40.998  40.805   3.800
28140W        W98021  36.956  18.214   2.694
28141W        W98022   6.712  32.627   1.832
28142W        W98023  38.950   3.871   0.790
28143W        W98024  17.737  19.181  11.421
28144W        W98025   5.799  39.363   4.786
28145W        W98026  42.802  13.726   2.214
28146W        W98027  14.590  28.133   0.876
28147W        W98028  22.615  30.582  13.464
28148W        W98029  40.014  38.417   0.854
28149W        W98030  17.202  10.731   4.250
28150W        W98031  37.926  11.203   3.180
28151W        W98032  16.247  27.496   0.856
28152W        W98033  24.533  40.476   0.853
28153W        W98034  37.081  28.596   3.702
28154W        W98035  16.621   1.731   0.310
28155W        W98036  19.226  35.104   2.291
28156W        W98037  22.198  34.969   0.252
28157W        W98038   8.176  26.558   4.734
28158W        W98039  33.890  26.471  13.844
28159W        W98040   2.296  25.641  11.945
28160W        W98041  15.244  39.538   1.933
28161W        W98042  36.418  33.549  14.369
28162W        W98043  32.033  11.736  14.458
28163W        W98044  33.396  13.346  11.055
28164W        W98045  19.646  43.826   3.188
28165W        W98046  43.322  13.320   1.707
28166W        W98047   8.820   9.701   3.732
28167W        W98048  28.976  21.057   4.249
28168W        W98049  20.675  42.013  12.422
28169W        W98050  40.427  26.184  14.769
28170W        W98051  39.061   3.454   0.890
28171W        W98052  14.303  24.128  14.975
28172W        W98053  36.002  24.101   2.247
28173W        W98054  22.042  31.594  11.412
28174W        W98055  28.082  26.661  14.310
28175W        W98056  20.127  36.475  12.033
28176W        W98057  24.030  28.678   4.167
28177W        W98058  22.612   2.311  14.431
28178W        W98059  19.184   6.363  14.340
28179W        W98060   7.254  39.016   1.881
28180W        W98061  29.626  41.977   3.183
28181W        W98062   3.352  39.431   3.171
28182W        W98063  27.475  36.924  12.900
28183W        W98064  29.665  30.468   5.121
28184W        W98065  16.720  32.398   0.286
28185W        W98066  19.771  40.336  11.924
28186W        W98067  16.813  35.523  14.415
28187W        W98068   5.426   1.252  11.968
28188W        W98069  31.081  42.359   0.243
28189W        W98070   2.949  23.157   2.265
28190W        W98071   0.832  43.449  11.421
28191W        W98072  28.146  37.900   3.277
28192W        W98073  41.950  13.110  14.365
28193W        W98074  29.637  39.969   0.883
28194W        W98075  12.193  15.237  13.489
28195W        W98076  34.114  36.584  12.339
28196W        W98077   6.310   3.382   4.317
28197W        W98078  40.053   5.689   4.145
28198W        W98079  14.833  15.649   2.680
28199W        W98080  41.007  43.493  10.429
28200W        W98081  32.932  10.382   0.787
28201W        W98082  36.843  11.155   4.223
28202W        W98083  19.049  14.831  11.969
28203W        W98084  38.867  12.267  14.930
28204W        W98085  20.623  15.594  13.935
28205W        W98086   2.743  23.063  11.031
28206W        W98087  36.514   7.301   4.191
28207W        W98088  24.513   5.256   1.741
28208W        W98089   9.887   3.245  11.501
28209W        W98090  20.732  34.028  11.594
28210W        W98091  38.064  37.949   0.956
28211W        W98092  32.030  33.984  10.949
28212W        W98093  24.997   0.282  13.848
28213W        W98094  18.626  40.045   4.765
28214W        W98095   0.954  23.639   1.229
28215W        W98096   1.307   2.282  12.452
28216W        W98097   2.821   8.682  11.591
28217W        W98098   7.359  26.487  11.518
28218W        W98099  17.589   2.370   4.249
28219W        W98100   7.689  24.713  14.793
28220W        W98101   3.337   4.226  12.029
28221W        W98102  43.901   3.317  12.860
28222W        W98103  33.917   7.411   3.202
28223W        W98104  29.582   6.879   5.202
28224W        W98105   2.740  32.585  14.964
28225W        W98106  16.654  11.782  14.951
28226W        W98107   1.951  28.677   4.696
28227W        W98108   8.311  21.024  11.564
28228W        W98109  37.932  27.990   1.370
28229W        W98110  25.068  43.318  12.010
28230W        W98111  31.602   9.268   1.216
28231W        W98112  31.914  26.660   1.387
28232W        W98113   3.383  11.625  14.961
28233W        W98114  41.375  30.483  11.998
28234W        W98115  44.766   7.309  10.970
28235W        W98116  17.283   4.344  12.008
28236W        W98117  37.399  29.925  11.891
28237W        W98118  13.274   7.830   2.883
28238W        W98119  12.122  22.209   0.273
28239W        W98120  34.447  16.127  11.056
28240W        W98121   1.895  34.029  10.530
28241W        W98122  13.195  18.764  12.475
28242W        W98123   3.442  20.098  14.416
28243W        W98124  24.683  16.279   1.321
28244W        W98125  15.726   3.303  14.804
28245W        W98126  41.870   3.224  10.896
28246W        W98127  21.146  41.921   5.290
28247W        W98128  21.696  37.854   3.798
28248W        W98129   4.231  33.096  12.988
28249W        W98130  10.638  12.133  13.538
28250W        W98131  29.117  35.102  11.463
28251W        W98132  23.032  16.723   3.328
28252W        W98133  13.721  31.096  11.470
28253W        W98134   9.378  39.523  13.882
28254W        W98135   0.852  19.619  13.544
28255W        W98136  33.019  13.801   0.955
28256W        W98137  10.283  16.774  11.488
28257W        W98138  20.139  13.327   3.824
28258W        W98139  38.397  30.489   4.290
28259W        W98140  28.591   2.948  13.871
28260W        W98141  32.519  23.062   4.303
28261W        W98142  10.748  23.194  13.411
28262W        W98143   6.870  11.666   2.743
28263W        W98144  19.579  34.489  11.927
28264W        W98145  19.212  38.517  12.904
28265W        W98146  34.607   7.336  13.320
28266W        W98147  16.731  44.931  12.827
28267W        W98148   0.807  36.965   2.707
28268W        W98149  22.711  22.043  12.475
28269W        W98150  43.391  13.219   4.829
28270W        W98151  34.443   8.797   4.784
28271W        W98152  37.379  16.177   2.774
28272W        W98153  29.942  11.645  11.608
28273W        W98154  35.087  25.098   1.920
28274W        W98155  27.621   7.819   3.704
28275W        W98156  35.957  18.545  12.457
28276W        W98157  26.114   3.945   0.873
28277W        W98158  24.100  37.848   2.418
28278W        W98159  37.050  16.157   3.687
28279W        W98160  36.872  19.757   0.874
28280W        W98161  31.130  36.477  14.907
28281W        W98162  11.645   3.244  11.045
28282W        W98163  19.131  25.108   4.687
28283W        W98164  44.949  18.207   3.273
28284W        W98165  37.862   2.898   4.648
28285W        W98166  17.663  19.154  12.867
28286W        W98167  17.661  43.811   2.345
28287W        W98168  37.365   5.400  14.020
28288W        W98169  21.106   3.223  10.559
28289W        W98170  36.403   4.760  11.011
28290W        W98171  26.039  28.597   1.780
28291W        W98172  20.722   0.797  13.970
28292W        W98173  24.517  41.305  14.919
28293W        W98174  25.041  20.651   1.254
28294W        W98175   2.840  44.961  14.821
28295W        W98176  32.937   0.939   1.775
28296W        W98177   5.303  41.382   1.899
28297W        W98178   9.653  12.622   2.351
28298W        W98179  40.495  28.654  13.921
28299W        W98180   3.441  28.026   1.903
28300W        W98181  20.736  12.361  11.495
28301W        W98182   2.843  26.153  11.862
28302W        W98183  28.473   3.274   2.280
28303W        W98184  42.292  15.173  12.579
28304W        W98185   5.194  17.656   1.745
28305W        W98186   3.260  35.982  12.381
28306W        W98187  12.214  35.493   2.239
28307W        W98188  22.064   6.237   0.371
28308W        W98189   9.394  15.770  12.829
28309W        W98190  11.696  30.145  14.424
28310W        W98191  20.228  18.676   3.217
28311W        W98192  22.211  27.684   1.924
28312W        W98193  44.937  30.024  13.032
28313W        W98194  25.479  25.010   1.327
28314W        W98195  20.707  34.971   3.694
28315W        W98196  37.513  13.827   2.242
28316W        W98197   9.262   6.214   2.188
28317W        W98198  27.476   7.815  11.552
28318W        W98199  31.532   2.289  14.809
28319W        W98200   8.404  23.023   3.374
28320W        W98201  35.432  44.770   4.668
28321W        W98202  27.572  32.406  11.541
28322W        W98203  21.144  16.226  11.126
28323W        W98204  35.368   3.755  11.907
28324W        W98205   3.833  15.767  12.493
28325W        W98206  21.531   6.843   4.337
28326W        W98207  23.101   7.774  11.104
28327W        W98208   0.896  27.585  10.457
28328W        W98209  19.628  26.615   0.795
28329W        W98210  31.087   7.859  10.916
28330W        W98211  14.323  21.637  14.859
28331W        W98212  42.799  18.146  12.063
28332W        W98213  39.364  41.399  10.562
28333W        W98214  44.922  43.789  14.776
28334W        W98215  41.449  34.455   1.384
28335W        W98216  42.815   8.861  10.980
28336W        W98217  21.684  40.818  13.326
28337W        W98218  32.115  43.912   3.667
28338W        W98219  37.011  16.626  12.372
28339W        W98220  30.560  25.556   1.857
28340W        W98221  12.774  33.092  11.491
28341W        W98222  34.084  39.965   1.881
28342W        W98223  26.529  26.643  14.822
28343W        W98224  29.106   3.307   4.213
28344W        W98225   4.436  20.125   0.459
28345W        W98226  20.629   9.765   2.688
28346W        W98227  24.103  27.991  14.885
28347W        W98228   7.908  15.327   3.815
28348W        W98229  19.564   3.764  13.400
28349W        W98230  41.367  23.005   3.152
28350W        W98231  31.069   5.309  13.502
28351W        W98232  27.046  25.657   1.422
28352W        W98233  26.672  11.746   2.691
28353W        W98234  16.162  31.974   2.338
28354W        W98235  17.708  36.436   3.227
28355W        W98236  26.486  24.217  11.562
28356W        W98237  22.576   2.957  13.411
28357W        W98238  41.385  21.222   3.317
28358W        W98239   6.419  10.648   0.350
28359W        W98240  34.863  27.014  13.862
28360W        W98241  13.663  42.429   4.657
28361W        W98242  32.018  44.831  10.545
28362W        W98243   9.852  43.377   2.801
28363W        W98244   2.259  27.101  12.826
28364W        W98245  36.987  16.723  11.887
28365W        W98246  20.550  20.071  11.922
28366W        W98247  13.840   0.956   0.773
28367W        W98248  31.582   7.385   0.782
28368W        W98249   6.716   5.426   2.884
28369W        W98250   3.352  14.205  11.574
28370W        W98251   2.321  14.726  13.004
28371W        W98252   2.314  39.391   4.657
28372W        W98253  43.382  30.143   1.783
28373W        W98254  27.590  37.453   3.708
28374W        W98255  25.685  13.325   4.670
28375W        W98256  11.299   3.760  12.914
28376W        W98257  10.361   7.221  11.979
28377W        W98258  15.288   3.815   0.432
28378W        W98259  44.812   4.876   3.298
28379W        W98260  11.264   1.812   3.239
28380W        W98261  37.055  12.239   3.855
28381W        W98262  31.075   8.302  11.435
28382W        W98263  28.496  43.487  14.829
28383W        W98264   3.842  27.469  10.990
28384W        W98265   7.802  34.053  14.873
28385W        W98266  12.353   1.410   3.798
28386W        W98267  31.942  14.119  14.389
28387W        W98268  32.012  31.055   2.842
28388W        W98269   7.277   3.750   4.761
28389W        W98270  24.184   3.786   1.235
28390W        W98271  16.596  17.246  13.921
28391W        W98272  14.204  24.691   3.261
28392W        W98273  10.822  44.887   2.746
28393W        W98274   3.230  15.589  14.429
28394W        W98275  39.060  40.540  13.973
28395W        W98276  40.834  14.728  13.038
28396W        W98277  12.798  18.110  10.981
28397W        W98278   1.279   7.842  10.439
28398W        W98279   8.305   5.715   2.781
28399W        W98280  41.450   7.799  14.885
28400W        W98281  39.960  36.550   4.215
28401W        W98282   2.472   3.759  14.383
28402W        W98283  21.226   1.345   1.213
28403W        W98284   8.723   1.787  10.417
28404W        W98285  39.811  39.978   2.235
28405W        W98286   8.207   7.395   1.267
28406W        W98287   1.403   6.318   4.201
28407W        W98288  29.628  41.403   0.925
28408W        W98289  42.482  31.525  12.386
28409W        W98290  17.186  13.275  14.394
28410W        W98291   5.725  31.103  13.509
28411W        W98292  42.984  17.153  13.316
28412W        W98293  31.956  35.558   4.217
28413W        W98294  13.605  21.140   0.778
28414W        W98295  11.217   5.762  14.448
28415W        W98296  29.536  43.922   3.150
28416W        W98297  18.109  13.669  11.479
28417W        W98298  12.348  43.853   0.730
28418W        W98299  14.141  32.943  13.814
28419W        W98300  14.269   6.403   0.915
28420W        W98301  17.084  28.019  14.459
28421W        W98302  24.048  37.395   4.721
28422W        W98303  25.131  27.455   1.788
28423W        W98304  37.446  14.146   1.323
28424W        W98305  43.444  43.504  13.497
28425W        W98306   5.348  39.831   1.388
28426W        W98307  16.793  37.897  12.989
28427W        W98308  27.646   9.856  12.989
28428W        W98309   8.351  39.811   4.189
28429W        W98310   1.916  14.261  11.524
28430W        W98311   3.751  24.203   1.867
28431W        W98312  29.034   1.965  13.028
28432W        W98313  41.414  39.898  13.378
28433W        W98314  30.640  37.565   0.909
28434W        W98315  32.992  34.542  11.401
28435W        W98316   9.337  19.239   3.849
28436W        W98317  13.648   4.843  13.002
28437W        W98318  31.547  31.570  12.370
28438W        W98319  41.882  19.683   1.923
28439W        W98320  41.955   4.826  12.021
28440W        W98321   8.195  40.422  14.928
28441W        W98322  44.889   0.840   4.664
28442W        W98323  44.501   6.399   0.406
28443W        W98324  44.302  31.111   2.717
28444W        W98325  28.477  13.678  14.849
28445W        W98326   8.684   3.796  13.544
28446W        W98327  42.511  43.395  12.412
28447W        W98328  20.040  32.019  12.995
28448W        W98329  31.897   3.860  11.016
28449W        W98330  36.941  37.890  13.032
28450W        W98331  41.317  40.429   1.911
28451W        W98332  19.184  27.495   9.454
28452W        W98333  44.286  25.044   3.186
28453W        W98334  26.208  37.433   1.851
28454W        W98335  30.470  21.682  14.956
28455W        W98336  16.307   6.330  14.313
28456W        W98337  12.361  38.904  14.497
28457W        W98338   3.880   5.286   0.805
28458W        W98339   3.878  38.847   9.959
28459W        W98340  37.416  30.075  14.361
28460W        W98341  44.938  40.865  13.533
28461W        W98342  13.182   0.445  12.001
28462W        W98343  17.127  28.082   1.387
28463W        W98344  31.995  29.110  12.838
28464W        W98345  10.716  32.084   0.353
28465W        W98346  26.576  31.624   1.335
28466W        W98347  30.955   9.661  13.482
28467W        W98348  27.957  23.996   4.671
28468W        W98349  37.408  23.612   2.830
28469W        W98350   3.804   9.865   3.658
28470W        W98351  44.274  38.363   0.959
28471W        W98352  24.179  21.562   4.120
28472W        W98353  28.075  14.597   2.259
28473W        W98354  32.486   2.781   4.630
28474W        W98355  35.088  15.324   1.244
28475W        W98356  39.466  17.658   1.789
28476W        W98357  34.597  27.169   3.864
28477W        W98358  11.657  28.061  10.588
28478W        W98359  24.060  12.679  14.309
28479W        W98360  21.081  20.632  13.850
28480W        W98361  22.139   2.413  13.816
28481W        W98362  37.427  16.290   4.145
28482W        W98363  35.437   6.698  11.008
28483W        W98364  12.855  32.430   0.791
28484W        W98365  29.563  27.657   2.301
28485W        W98366   6.239  34.405  10.432
28486W        W98367  34.555  18.104   2.692
28487W        W98368   4.730  21.586   0.932
28488W        W98369  36.906   3.857   1.247
28489W        W98370  35.020  43.295   2.860
28490W        W98371  14.283  26.498  14.373
28491W        W98372  19.593  39.477   3.158
28492W        W98373  17.604  32.483  14.912
28493W        W98374  15.237  20.209   4.645
28494W        W98375  15.792  13.611   4.234
28495W        W98376   8.193  29.572   4.695
28496W        W98377  40.998  14.176  12.867
28497W        W98378   4.798  36.431   3.818
28498W        W98379  38.019  24.184  10.477
28499W        W98380   3.413  24.117  12.500
28500W        W98381  40.018  32.895   0.377
28501W        W98382  32.943  38.876   2.287
28502W        W98383  39.061  15.085  12.356
28503W        W98384  36.875  34.915   4.757
28504W        W98385  32.977   4.718   2.349
28505W        W98386  34.400   2.793  13.456
28506W        W98387  31.482  30.916   1.369
28507W        W98388  10.830  24.560   2.683
28508W        W98389  32.080   8.287   2.406
28509W        W98390  43.918  31.519   2.791
28510W        W98391  10.725  15.308  14.787
28511W        W98392  30.416  41.400   0.965
28512W        W98393  40.508  34.398   2.844
28513W        W98394  15.172   6.882   1.435
28514W        W98395  37.453   9.235  13.946
28515W        W98396  41.353  12.329   1.720
28516W        W98397   3.415  22.569   4.702
28517W        W98398  22.225  30.019  12.483
28518W        W98399  10.742  35.508   0.404
28519W        W98400  14.735   5.785   3.169
28520W        W98401  19.192  12.195  11.074
28521W        W98402  32.412  23.706  10.566
28522W        W98403  39.530  22.236   0.759
28523W        W98404  32.497  28.059   2.901
28524W        W98405  15.249  30.457  12.870
28525W        W98406  24.519   9.866   1.825
28526W        W98407  34.948   8.873   1.336
28527W        W98408  13.787  20.676   1.694
28528W        W98409   0.889  41.406   1.237
28529W        W98410  44.991  34.427   2.665
28530W        W98411  30.499  13.108   4.767
28531W        W98412  17.610  11.365  14.993
28532W        W98413  44.481  25.703   0.774
28533W        W98414  25.626  44.921   0.438
28534W        W98415  11.654  31.417   3.222
28535W        W98416   5.729  40.911   2.193
28536W        W98417  28.486  23.680   2.706
28537W        W98418  13.105  32.894  14.862
28538W        W98419  26.976  10.218   4.808
28539W        W98420  20.144  38.384  13.335
28540W        W98421  33.600  44.266   1.411
28541W        W98422  19.186   4.817  10.633
28542W        W98423  43.372  15.265   3.341
28543W        W98424  21.175  20.049  12.463
28544W        W98425  15.746   3.277   3.862
28545W        W98426  23.640  12.747  13.860
28546W        W98427  33.064   1.925   0.952
28547W        W98428   1.818  11.265   4.131
28548W        W98429  18.186  26.536   3.844
28549W        W98430  21.715  16.579  12.923
28550W        W98431  40.544  34.584   1.879
28551W        W98432  23.999  38.036   3.384
28552W        W98433  32.136  13.805  10.943
28553W        W98434  31.490   2.875  12.027
28554W        W98435   5.787  22.723  12.998
28555W        W98436  44.911   2.286   4.791
28556W        W98437  28.670  19.041   2.221
28557W        W98438  31.615  32.602   1.934
28558W        W98439  41.926  19.714   9.977
28559W        W98440  23.721  27.469   0.350
28560W        W98441  40.351  15.144   2.875
28561W        W98442  44.398  29.569   1.817
28562W        W98443  11.820  37.075   3.758
28563W        W98444  25.967  34.398   3.210
28564W        W98445  21.611  23.222   4.739
28565W        W98446  19.621  13.116  14.318
28566W        W98447  30.522  36.446  13.463
28567W        W98448   7.343  17.113   1.913
28568W        W98449  21.135  21.183  14.023
28569W        W98450   1.467  28.473  13.064
28570W        W98451  28.115  34.490   2.766
28571W        W98452   8.229  41.312  14.343
28572W        W98453  13.260  28.623   2.752
28573W        W98454  40.999  22.219   1.307
28574W        W98455   1.749  30.459   1.779
28575W        W98456  34.938  28.514   0.394
28576W        W98457  33.092  18.242   1.272
28577W        W98458   0.979  39.538  13.420
28578W        W98459   7.745  13.709  13.381
28579W        W98460  38.075  41.857  14.365
28580W        W98461  38.899  23.598  10.505
28581W        W98462  20.083   9.353   1.786
28582W        W98463  29.578  29.990   2.768
28583W        W98464   4.377   1.356  10.908
28584W        W98465  16.787  32.963   0.322
28585W        W98466  40.927  25.491  14.876
28586W        W98467  15.752   4.860  11.539
28587W        W98468  11.314  35.510   2.800
28588W        W98469  11.260  38.557  13.365
28589W        W98470  30.054  15.698   1.285
28590W        W98471  15.590  37.388  14.874
28591W        W98472  30.606  11.289  11.598
28592W        W98473  39.375  37.959   0.893
28593W        W98474  41.937  25.215   2.725
28594W        W98475  43.972   4.930  12.427
28595W        W98476  26.677  38.560   3.227
28596W        W98477  43.847  33.939  12.080
28597W        W98478   3.449   1.243  11.042
28598W        W98479  15.158   0.966  14.785
28599W        W98480  10.174  27.011  13.424
28600W        W98481  35.515  42.301  13.367
28601W        W98482  43.411  21.062  11.434
28602W        W98483  10.686   8.818   4.221
28603W        W98484  19.275  41.298   2.821
28604W        W98485  18.597  38.478   1.237
28605W        W98486  19.168  35.579  11.475
28606W        W98487  19.114  10.170  12.373
28607W        W98488  18.759  34.927   4.752
28608W        W98489  29.992  31.026  14.986
28609W        W98490  11.266  42.457   2.336
28610W        W98491  17.301  27.640  14.775
28611W        W98492  31.616   1.348   0.270
28612W        W98493   9.245   7.767   1.255
28613W        W98494   9.181   4.376  11.553
28614W        W98495   5.417  37.963   2.873
28615W        W98496   4.728  17.142   2.684
28616W        W98497  11.768  15.720  14.768
28617W        W98498  14.323  36.584  10.587
28618W        W98499  22.049  31.978  11.048
28619W        W98500  19.078   4.833  11.099
28620W        W98501  44.303  44.826   4.794
28621W        W98502   5.197  11.201   4.789
28622W        W98503  11.144  40.470  10.933
28623W        W98504  13.610  23.587   2.830
28624W        W98505  13.717  23.541   4.696
28625W        W98506   7.277  42.515  14.769
28626W        W98507  17.082  36.055   2.419
28627W        W98508  34.040  17.090   2.330
28628W        W98509  41.413  24.607   4.180
28629W        W98510   7.694   8.383  14.924
28630W        W98511  41.347  38.826   3.257
28631W        W98512  36.383  10.144  13.372
28632W        W98513   5.280  24.024  11.559
28633W        W98514  41.986  31.480   0.476
28634W        W98515  13.174  36.901   4.694
28635W        W98516  18.291  39.509   0.386
28636W        W98517  19.209  39.553  11.585
28637W        W98518   6.363  11.668   2.683
28638W        W98519   3.949  43.893   2.794
28639W        W98520  38.365  30.913   3.836
28640W        W98521  13.776  40.508  12.395
28641W        W98522  16.276   8.766  12.469
28642W        W98523  39.840  26.478   2.251
28643W        W98524   7.272  12.656  11.419
28644W        W98525  36.061   2.228   1.222
28645W        W98526  15.616  10.676  11.875
28646W        W98527  20.750   5.238  14.408
28647W        W98528   0.827   6.182   0.744
28648W        W98529  15.241  12.361  11.128
28649W        W98530  15.117  39.018  12.075
28650W        W98531   9.814  20.729  13.491
28651W        W98532  18.088  18.733  11.389
28652W        W98533  23.659   5.248   0.309
28653W        W98534   1.797  36.557   2.672
28654W        W98535  29.106  38.524   3.377
28655W        W98536  41.408   0.474   0.343
28656W        W98537  37.991   5.374   1.850
28657W        W98538  37.961  24.101   3.775
28658W        W98539  42.950  35.871  14.305
28659W        W98540  15.702  16.269   2.834
28660W        W98541  19.109  22.663  10.993
28661W        W98542  30.111   9.354  14.474
28662W        W98543  22.190  31.968   4.269
28663W        W98544   7.707   7.862   1.819
28664W        W98545  19.077   4.237  10.611
28665W        W98546  42.930  26.530   4.800
28666W        W98547   2.850  26.624   3.857
28667W        W98548   6.713  40.036   2.237
28668W        W98549  36.870  38.335   4.298
28669W        W98550  23.026   8.252  14.833
28670W        W98551  16.729   6.242  10.418
28671W        W98552  40.459  44.412   1.848
28672W        W98553   1.828   5.772   4.829
28673W        W98554   7.273  38.976  11.865
28674W        W98555  37.958   1.977  13.037
28675W        W98556  41.480   6.277  10.948
28676W        W98557   9.781  22.162  14.870
28677W        W98558  11.271  34.046  14.998
28678W        W98559  43.987  16.684  14.336
28679W        W98560  41.957   2.355  13.480
28680W        W98561   8.780  41.960   0.863
28681W        W98562  26.460  21.532   4.709
28682W        W98563  36.924  18.061   0.843
28683W        W98564  31.987   7.707  12.474
28684W        W98565  25.154   4.725  13.860
28685W        W98566  33.417   0.416   4.764
28686W        W98567   7.674  16.683   4.343
28687W        W98568  13.302  39.333  10.513
28688W        W98569  18.101  43.288   1.240
28689W        W98570  26.042  40.943   4.797
28690W        W98571  22.677  36.446   3.226
28691W        W98572   9.791   8.208   1.902
28692W        W98573  25.475   1.390   0.315
28693W        W98574  10.237  18.264   3.727
28694W        W98575  35.025   4.809   4.354
28695W        W98576  11.843   4.281   0.243
28696W        W98577  10.249  12.273   2.342
28697W        W98578  34.070  30.023  10.565
28698W        W98579  30.437   3.300  14.513
28699W        W98580  33.904  32.606  12.890
28700W        W98581  26.180  29.119   4.652
28701W        W98582  26.600  40.902   4.331
28702W        W98583   3.867   7.777   2.288
28703W        W98584  34.483  29.592  12.466
28704W        W98585  38.049  10.862  14.805
28705W        W98586  17.703  42.297   0.284
28706W        W98587  40.012  22.067   0.809
28707W        W98588  31.923  24.012   3.799
28708W        W98589  30.475  39.984  14.503
28709W        W98590   3.450  22.116   4.174
28710W        W98591   0.820  12.852  12.849
28711W        W98592  10.693  17.685  13.851
28712W        W98593  10.382  12.220   1.808
28713W        W98594  22.599  26.207   4.313
28714W        W98595  21.589   0.921  12.990
28715W        W98596  17.600  16.256   1.809
28716W        W98597  11.828   2.815   4.622
28717W        W98598  36.472  43.903  10.479
28718W        W98599  37.338  13.819  14.874
28719W        W98600  36.914  14.176   0.364
28720W        W98601   2.441  14.170  12.910
28721W        W98602  13.638  44.952  14.931
28722W        W98603  13.176  15.793   4.114
28723W        W98604  18.755  32.948  11.518
28724W        W98605   3.320  41.872   3.639
28725W        W98606  42.410   3.752   1.908
28726W        W98607  28.595   9.237   4.222
28727W        W98608  22.101   7.403  11.904
28728W        W98609  33.908  43.995   1.729
28729W        W98610  14.601  14.309   0.270
28730W        W98611   1.447  15.182   2.357
28731W        W98612  36.020  22.219   2.331
28732W        W98613   2.415  23.999   0.771
28733W        W98614   5.759  39.477  11.072
28734W        W98615  32.983  10.149   0.398
28735W        W98616  40.395  15.322   3.232
28736W        W98617  36.864  17.193  13.057
28737W        W98618   1.886  15.220   0.747
28738W        W98619   9.225  11.696   2.823
28739W        W98620  38.889  39.480  11.547
28740W        W98621  42.364  29.925  13.030
28741W        W98622   0.291  11.218   3.740
28742W        W98623  44.918  28.183   1.881
28743W        W98624  41.874  17.236   3.702
28744W        W98625  42.978  41.817  13.960
28745W        W98626  18.241  38.930  12.364
28746W        W98627  28.931   1.758   1.380
28747W        W98628  39.463  28.003   4.131
28748W        W98629  24.690   1.443  13.984
28749W        W98630  34.955  36.994  11.476
28750W        W98631  11.844  32.578  14.395
28751W        W98632  33.397   0.444   0.443
28752W        W98633  44.303  27.120   4.207
28753W        W98634  22.692   8.815   4.654
28754W        W98635  22.618   8.247  10.505
28755W        W98636  35.059  44.913  14.501
28756W        W98637  30.555  10.245   0.843
28757W        W98638  33.120  41.980  12.840
28758W        W98639   6.193  19.245  11.086
28759W        W98640  37.988  28.113   3.848
28760W        W98641  36.448  21.176  11.883
28761W        W98642  11.139   0.314  13.311
28762W        W98643  22.160  32.494   0.305
28763W        W98644  22.097  21.727  12.960
28764W        W98645   2.226  28.507  13.956
28765W        W98646  15.109  38.398   1.795
28766W        W98647  14.123   4.852  11.040
28767W        W98648  30.482  30.531  13.844
28768W        W98649  34.505  17.234   2.216
28769W        W98650  32.524  12.303  14.814
28770W        W98651  43.452  15.324   4.322
28771W        W98652  26.013  29.442  12.940
28772W        W98653  18.254  23.078  13.308
28773W        W98654   1.759  10.695  13.052
28774W        W98655  36.072  20.272   2.896
28775W        W98656   7.820   1.801   2.370
28776W        W98657  33.910   9.735  14.326
28777W        W98658  44.365   4.377   1.909
28778W        W98659  27.516  27.472   0.798
28779W        W98660  18.201   5.263   3.678
28780W        W98661   9.345  27.646  13.872
28781W        W98662  41.842  25.017   0.778
28782W        W98663  41.445   2.805  10.568
28783W        W98664   6.415  32.084  11.492
28784W        W98665   4.212   4.364   3.737
28785W        W98666  40.971  38.429   0.309
28786W        W98667  38.825  22.565   1.853
28787W        W98668  15.803  34.995   4.181
28788W        W98669  38.993   3.232  11.579
28789W        W98670  44.441   0.807   4.732
28790W        W98671  42.782  40.955   4.678
28791W        W98672  33.541   6.256   5.090
28792W        W98673  17.707  41.452   4.307
28793W        W98674  19.102  40.532   0.405
28794W        W98675  39.018   2.755   0.261
28795W        W98676  28.098  31.630  11.083
28796W        W98677  24.153  29.164   4.136
28797W        W98678   2.338  34.589   4.253
28798W        W98679  22.206   5.365   3.384
28799W        W98680  10.274  43.404   5.101
28800W        W98681  34.573   7.337   3.809
28801W        W98682  31.625  20.255  11.051
28802W        W98683  17.711  15.144  11.383
28803W        W98684  29.056  31.463  12.468
28804W        W98685  25.138  21.105  12.864
28805W        W98686  11.151  16.272   1.333
28806W        W98687  28.953   1.419   2.324
28807W        W98688  39.373  12.166   0.458
28808W        W98689  12.122  25.674  14.357
28809W        W98690  39.316   1.294  11.412
28810W        W98691   0.868  26.049  14.989
28811W        W98692  42.850  41.915   3.355
28812W        W98693  11.770  23.196  12.884
28813W        W98694  42.816  44.380  12.428
28814W        W98695  28.533  15.596  10.157
28815W        W98696  36.883   3.756   2.363
28816W        W98697   3.870   6.226   9.985
28817W        W98698  38.067  17.734   1.334
28818W        W98699  32.094  15.760   3.246
28819W        W98700  33.913  33.086   0.328
28820W        W98701  41.980  12.725   4.286
28821W        W98702   4.377  12.294   1.743
28822W        W98703  17.595  15.240   4.647
28823W        W98704  33.881   0.834   1.366
28824W        W98705  33.601  40.040   0.731
28825W        W98706  26.119  28.032  11.074
28826W        W98707  12.856  35.104  11.599
28827W        W98708  40.872  15.755   1.846
28828W        W98709  33.446  11.161   2.376
28829W        W98710  10.817  21.570  14.967
28830W        W98711  32.076  33.610   1.264
28831W        W98712  29.073   1.276  11.549
28832W        W98713  33.915   6.755  11.859
28833W        W98714  43.842  20.256   2.380
28834W        W98715  25.544  37.071   0.298
28835W        W98716  24.520  12.735   0.384
28836W        W98717  12.278  42.958   3.335
28837W        W98718  12.340  30.574  14.279
28838W        W98719  20.233  15.247  10.466
28839W        W98720  35.889   0.841   5.606
28840W        W98721  17.147  19.714   4.296
28841W        W98722  26.960   7.717  14.768
28842W        W98723  19.747  18.721  14.818
28843W        W98724  26.147  24.119  12.037
28844W        W98725  10.335  20.033  10.639
28845W        W98726  25.562  32.510   3.829
28846W        W98727  30.018  20.082  10.890
28847W        W98728  29.962  11.128   4.200
28848W        W98729  38.442  28.042  12.966
28849W        W98730  29.946  38.497   0.374
28850W        W98731  13.651  41.469  14.411
28851W        W98732   0.462  29.107   4.139
28852W        W98733  33.606  12.802  10.913
28853W        W98734  31.074  36.462  14.006
28854W        W98735  22.222  10.304   3.364
28855W        W98736  29.582  43.463   4.630
28856W        W98737  23.571  34.545   1.779
28857W        W98738  25.205  11.624  14.808
28858W        W98739  13.325  33.460  11.602
28859W        W98740  20.254   5.732  10.438
28860W        W98741  40.805  31.442   3.343
28861W        W98742  28.598  40.480  14.019
28862W        W98743  37.346  10.805   0.964
28863W        W98744  29.501  22.144   4.119
28864W        W98745  35.905  40.474   1.312
28865W        W98746  11.689  23.125  10.945
28866W        W98747  20.677  40.417   3.748
28867W        W98748   0.332   6.384   3.373
28868W        W98749  37.894   2.387   1.935
28869W        W98750  19.077  21.728   1.410
28870W        W98751   9.822   0.464   4.805
28871W        W98752  11.635  41.025  11.855
28872W        W98753  28.940  26.632   1.904
28873W        W98754  35.918   2.243  13.535
28874W        W98755  24.988   0.933  13.342
28875W        W98756   2.269   0.815  10.114
28876W        W98757   4.435  17.772  14.885
28877W        W98758  23.091  16.792  14.943
28878W        W98759  30.587  37.410   4.130
28879W        W98760  32.087   9.810  13.918
28880W        W98761  10.643  23.985  14.385
28881W        W98762   4.209  23.690  14.856
28882W        W98763  13.204  13.600  13.492
28883W        W98764  15.669  24.572   1.302
28884W        W98765  35.401   0.904  10.090
28885W        W98766  21.570  17.258   3.195
28886W        W98767   7.177  37.830   4.248
28887W        W98768  26.511   8.356  10.641
28888W        W98769  23.141  13.762   1.857
28889W        W98770   8.336  30.414  12.474
28890W        W98771   1.441  19.188  14.858
28891W        W98772  37.366  17.191   0.255
28892W        W98773   1.731  40.331   0.270
28893W        W98774  37.852  31.647   4.157
28894W        W98775  12.815   0.347   1.386
28895W        W98776  40.839  39.498  12.356
28896W        W98777  16.656  27.027  14.506
28897W        W98778  44.365  21.227   4.292
28898W        W98779  21.110   6.420  12.471
28899W        W98780  14.222  27.037  14.026
28900W        W98781  14.196  13.670   1.929
28901W        W98782  23.194  28.010  12.078
28902W        W98783  32.392   1.967  11.485
28903W        W98784   0.286  41.340  10.522
28904W        W98785  26.999   0.294   1.403
28905W        W98786  15.176  11.334   3.800
28906W        W98787  14.306  16.701  10.945
28907W        W98788   8.180  37.066   2.796
28908W        W98789   1.290  24.646  14.971
28909W        W98790  30.070   2.310   1.694
28910W        W98791  24.031  22.706   4.129
28911W        W98792  44.486  24.643   3.270
28912W        W98793  36.074  44.454  14.409
28913W        W98794   4.317  17.155   0.921
28914W        W98795  16.113  42.944   1.299
28915W        W98796   9.681  15.630  13.509
28916W        W98797  33.609  15.314   4.177
28917W        W98798  15.113  32.051   4.129
28918W        W98799  23.607   8.211  10.537
28919W        W98800   5.263   6.898  12.560
28920W        W98801  39.975  26.033  13.874
28921W        W98802   3.843  39.349   4.295
28922W        W98803  35.006  15.713  10.145
28923W        W98804   3.408  34.919   2.702
28924W        W98805   3.406  41.395   2.184
28925W        W98806  27.638   6.353   2.681
28926W        W98807   1.940  28.134  12.007
28927W        W98808  43.812  17.304  13.933
28928W        W98809  43.941  43.371  14.017
28929W        W98810  32.543  42.454   0.849
28930W        W98811  28.975  29.080  13.438
28931W        W98812  10.215  41.538  11.580
28932W        W98813  39.892  25.568  14.828
28933W        W98814  22.050  31.116  12.547
28934W        W98815  10.759  19.120   0.313
28935W        W98816  17.662  26.540   9.988
28936W        W98817  34.528  32.507   0.842
28937W        W98818  31.044  43.823   4.737
28938W        W98819   6.884   7.406  12.843
28939W        W98820  42.816  22.239  13.915
28940W        W98821  34.097  39.975  11.063
28941W        W98822  17.768  23.220   0.957
28942W        W98823  36.903  23.179   2.363
28943W        W98824  12.689   5.210  14.838
28944W        W98825  44.375   5.288   3.196
28945W        W98826  33.488  10.201   2.744
28946W        W98827   3.840  38.508  13.959
28947W        W98828   7.314  20.601  13.936
28948W        W98829   6.232  10.181   0.375
28949W        W98830  30.119  38.545  13.448
28950W        W98831  31.909  23.633  12.062
28951W        W98832  43.398  35.399  14.904
28952W        W98833  20.042  15.739  14.846
28953W        W98834   3.217  21.091  11.394
28954W        W98835  25.636  20.219   2.706
28955W        W98836  12.702  39.823   2.180
28956W        W98837  19.747   4.325  11.858
28957W        W98838   6.815   4.399   2.726
28958W        W98839  14.270  32.048  12.572
28959W        W98840  43.985  29.661   3.630
28960W        W98841  21.571   6.310  14.906
28961W        W98842  36.988  41.894   1.756
28962W        W98843  12.193  25.978   1.244
28963W        W98844  42.775  21.049  14.401
28964W        W98845  39.387  15.819  10.896
28965W        W98846  36.055  43.983  11.545
28966W        W98847  22.650  21.744  14.904
28967W        W98848  25.482  21.076  10.618
28968W        W98849  17.760  41.487   0.243
28969W        W98850  40.046   3.834  14.863
28970W        W98851  14.616  44.377   1.714
28971W        W98852   5.807  36.977   1.753
28972W        W98853   9.693  15.269  13.037
28973W        W98854   4.902  44.488  13.542
28974W        W98855  36.865  15.627   4.258
28975W        W98856   2.899  28.157  10.566
28976W        W98857   1.278  41.971   3.681
28977W        W98858  12.614  11.741  10.451
28978W        W98859  34.864  32.910   1.440
28979W        W98860  19.757  15.809  14.970
28980W        W98861  23.536   4.879   0.262
28981W        W98862   1.754  44.816   3.318
28982W        W98863  36.844  11.220   4.713
28983W        W98864   2.406  28.108  12.491
28984W        W98865  13.258   5.699  12.459
28985W        W98866  10.779  31.610  11.574
28986W        W98867  37.952  14.620  11.084
28987W        W98868  15.183   6.402  12.940
28988W        W98869   5.867  32.136  11.602
28989W        W98870   9.225   5.266   4.265
28990W        W98871  34.528  10.733   0.332
28991W        W98872  28.125  12.703   0.482
28992W        W98873  30.533  12.120   0.482
28993W        W98874  39.979  31.524  10.891
28994W        W98875  28.973   5.810   3.196
28995W        W98876   2.924   2.349  12.892
28996W        W98877  41.931  29.592  10.059
28997W        W98878  26.152  38.343  13.956
28998W        W98879  16.578  39.908  10.463
28999W        W98880  39.361  30.461   1.726
29000W        W98881  13.326  34.553   0.266
29001W        W98882  33.491  17.139   4.751
29002W        W98883  18.178   5.385  12.911
29003W        W98884  33.125  40.039   2.798
29004W        W98885  33.006  34.959   2.185
29005W        W98886  17.179  34.013   9.988
29006W        W98887  29.052  35.561   4.770
29007W        W98888  22.629   8.206   3.637
29008W        W98889   8.166   8.787   4.222
29009W        W98890   1.371  31.433   1.318
29010W        W98891  24.981  40.524  11.090
29011W        W98892  32.099  36.471   2.220
29012W        W98893  26.019  29.620   1.337
29013W        W98894  36.387  40.535  14.968
29014W        W98895   8.799  33.576  12.043
29015W        W98896  44.894   3.933  11.455
29016W        W98897  18.550  41.514   3.812
29017W        W98898  32.400   6.837  11.533
29018W        W98899  18.241   0.743  11.924
29019W        W98900  25.491   8.163   3.662
29020W        W98901  29.153  30.586   3.317
29021W        W98902  44.447  25.616   1.781
29022W        W98903  36.844  19.726  14.833
29023W        W98904   9.839  39.810  11.960
29024W        W98905  17.718  14.310  11.981
29025W        W98906   4.232  25.555   2.286
29026W        W98907  17.248  34.568   4.313
29027W        W98908  19.159  24.535  11.913
29028W        W98909  22.232  36.559  11.920
29029W        W98910  35.981  12.215  10.642
29030W        W98911  35.511   2.232  11.562
29031W        W98912  39.439  19.599  10.510
29032W        W98913   2.821  31.559   4.163
29033W        W98914   7.268  41.902   3.379
29034W        W98915  12.680  10.330   2.191
29035W        W98916  35.405  24.604  11.968
29036W        W98917  27.544   1.925   4.306
29037W        W98918   3.227  35.460  12.359
29038W        W98919   2.264  41.419   1.391
29039W        W98920  28.443  23.732   4.701
29040W        W98921  17.250  23.130   2.804
29041W        W98922  35.920  23.045   2.727
29042W        W98923  40.053  21.219   1.902
29043W        W98924  26.701  40.413   2.711
29044W        W98925   3.846  34.548   2.378
29045W        W98926   9.794   0.431   2.190
29046W        W98927  36.067  21.673   4.813
29047W        W98928  18.255  28.672  11.596
29048W        W98929  20.199  35.532   0.472
29049W        W98930  28.142  26.141  11.523
29050W        W98931  10.843  30.000   1.795
29051W        W98932  34.939  11.803  14.977
29052W        W98933  26.087  28.939  11.101
29053W        W98934  37.086  10.185  12.480
29054W        W98935  22.676  31.053  14.294
29055W        W98936   2.422  10.852   2.237
29056W        W98937  18.131  18.081  10.538
29057W        W98938  30.983  19.581   0.873
29058W        W98939  31.529  29.602   2.726
29059W        W98940  15.627  21.653  11.527
29060W        W98941  11.137  22.154   1.351
29061W        W98942   3.767  33.056  10.404
29062W        W98943  39.398  17.232  14.890
29063W        W98944  17.254   9.843   4.186
29064W        W98945   0.744  26.545   0.763
29065W        W98946   7.269  13.122   3.672
29066W        W98947  39.834  32.031   9.956
29067W        W98948  15.092   3.397   3.165
29068W        W98949  15.691   8.782   5.104
29069W        W98950   8.376  40.847   0.752
29070W        W98951  10.231   4.811  10.408
29071W        W98952  13.234  36.471  10.543
29072W        W98953  14.663  24.705  13.487
29073W        W98954   6.264  16.236   2.354
29074W        W98955  34.887  29.612   2.392
29075W        W98956   1.261   7.384  13.979
29076W        W98957  38.557  36.876  12.934
29077W        W98958  14.233  27.945   2.847
29078W        W98959  38.568  11.223   4.745
29079W        W98960  24.164   4.814   3.676
29080W        W98961  39.533  32.474  13.878
29081W        W98962  33.560  12.276   2.290
29082W        W98963   7.785  44.436  12.826
29083W        W98964  41.892  21.693   2.404
29084W        W98965  15.705  41.990  11.048
29085W        W98966  16.237  15.293   1.301
29086W        W98967   8.232  27.154  13.489
29087W        W98968  33.491  32.990   1.710
29088W        W98969  13.220  14.327  12.517
29089W        W98970   0.331   9.698   2.333
29090W        W98971  14.108  38.366   0.392
29091W        W98972   9.351  31.115  12.444
29092W        W98973  19.543  43.793   4.836
29093W        W98974  40.024  18.663   3.727
29094W        W98975  42.997   4.384   1.362
29095W        W98976  43.449  14.663   3.686
29096W        W98977  38.061  35.030  14.400
29097W        W98978  16.292  38.420   4.804
29098W        W98979  16.637  34.110   0.957
29099W        W98980  31.599  26.529  10.075
29100W        W98981  21.542  19.257  14.403
29101W        W98982  25.208  19.140   1.319
29102W        W98983   9.789  40.507   1.433
29103W        W98984  16.572  18.212   1.372
29104W        W98985   7.370  28.931   3.369
29105W        W98986  30.426  10.319   2.877
29106W        W98987   2.358  11.213  14.406
29107W        W98988  30.509  31.502  10.504
29108W        W98989  44.758  23.557  11.090
29109W        W98990  33.454  10.790  11.043
29110W        W98991  13.203  36.905  10.146
29111W        W98992  11.703  17.793   1.868
29112W        W98993  18.696  18.788  11.983
29113W        W98994  12.810  23.726  12.495
29114W        W98995  21.652   9.706   1.877
29115W        W98996   9.878  22.587  14.783
29116W        W98997  33.122  11.802  12.579
29117W        W98998  44.833   6.883  13.791
29118W        W98999  17.294  44.764  11.482
29119W        W99000  33.511  42.329   4.269
29120W        W99001  28.593  34.874   1.697
29121W        W99002   9.765   1.891   4.117
29122W        W99003   2.891   3.933   3.307
29123W        W99004  44.408  20.130   4.609
29124W        W99005  24.096  16.626   3.691
29125W        W99006  23.053   0.836   2.188
29126W        W99007  17.306  16.250  12.879
29127W        W99008  37.970   6.259   4.810
29128W        W99009  24.625   0.802   2.210
29129W        W99010  32.459  43.841   1.935
29130W        W99011   0.299  22.728  11.594
29131W        W99012   9.817   8.244   4.291
29132W        W99013   9.182  41.390  12.375
29133W        W99014   0.933  34.055  14.308
29134W        W99015   5.720  18.641  13.868
29135W        W99016  34.540  24.627  12.403
29136W        W99017  14.179  23.689   2.178
29137W        W99018  26.108  18.178  13.536
29138W        W99019  22.084  11.791  12.046
29139W        W99020   6.310  18.602  13.424
29140W        W99021  17.559   6.299   3.279
29141W        W99022  31.019   9.835  14.428
29142W        W99023  11.361   0.437   2.730
29143W        W99024  12.723  28.074   2.332
29144W        W99025  36.548   3.334   0.816
29145W        W99026  13.340  31.089  13.944
29146W        W99027  39.519   6.918   0.467
29147W        W99028  15.218  34.002  12.048
29148W        W99029  10.277  23.694   4.719
29149W        W99030  22.529  30.603  13.887
29150W        W99031  17.557  25.202   2.729
29151W        W99032   1.880  17.068   2.295
29152W        W99033   1.942  24.981   3.384
29153W        W99034  11.863  40.340  14.375
29154W        W99035  22.615  38.945  12.532
29155W        W99036   2.920  31.402  13.308
29156W        W99037   8.399  13.698   1.734
29157W        W99038  25.691   3.858  14.470
29158W        W99039  27.053  31.413  14.858
29159W        W99040  19.177  12.755   4.147
29160W        W99041  28.659   5.226  14.916
29161W        W99042  26.593  17.726   3.318
29162W        W99043   6.801  23.506  13.334
29163W        W99044  41.015  32.524  11.944
29164W        W99045  44.417  13.704  14.949
29165W        W99046  33.974   9.885   2.256
29166W        W99047  35.557   1.308  13.054
29167W        W99048  41.868  15.805  11.564
29168W        W99049  38.417  33.973  14.907
29169W        W99050  30.054  24.683  11.590
29170W        W99051   2.415  37.839   1.726
29171W        W99052  13.114  41.012   4.671
29172W        W99053  32.409  16.787   2.390
29173W        W99054  32.502  25.622   1.901
29174W        W99055  31.001  29.150   1.256
29175W        W99056   5.282  12.678   0.264
29176W        W99057  15.579  42.891  13.536
29177W        W99058  10.675  19.192   1.327
29178W        W99059   6.879  17.694  13.854
29179W        W99060   8.232   6.277  13.431
29180W        W99061  33.424   3.262  10.900
29181W        W99062  28.658  36.364   3.190
29182W        W99063   8.883   3.278   4.731
29183W        W99064  12.123   8.356  14.508
29184W        W99065  25.084  19.735  12.011
29185W        W99066   4.720  30.975   1.340
29186W        W99067  35.528  30.102   4.194
29187W        W99068  35.017  40.343   0.902
29188W        W99069  22.732  21.612   0.313
29189W        W99070   8.795   1.898   2.839
29190W        W99071  25.649  21.546  10.924
29191W        W99072  15.762   8.893   3.201
29192W        W99073  29.513  37.486  10.571
29193W        W99074  34.990  34.095   1.732
29194W        W99075  42.964  36.405   0.288
29195W        W99076  13.650   9.861  13.449
29196W        W99077   4.281  34.589  14.906
29197W        W99078  10.189   3.431   0.910
29198W        W99079  41.335   2.348   2.837
29199W        W99080  10.349  12.715   3.798
29200W        W99081   8.744  40.526   1.914
29201W        W99082  26.574  32.411   3.289
29202W        W99083  35.555  24.218   3.788
29203W        W99084  27.616  37.073   3.171
29204W        W99085   3.906  18.226  14.501
29205W        W99086  37.482  22.006   9.971
29206W        W99087  31.952  24.620  14.839
29207W        W99088   9.339  24.198   0.428
29208W        W99089  21.749   8.667  11.083
29209W        W99090  38.387  31.597  14.933
29210W        W99091  39.323  42.517  11.860
29211W        W99092   2.829  11.829   0.295
29212W        W99093  38.444   0.469   5.126
29213W        W99094  32.011  33.932   2.879
29214W        W99095   7.376  26.661   0.733
29215W        W99096  26.207  15.776  13.308
29216W        W99097  36.473  35.485  12.544
29217W        W99098  40.867  15.305  11.945
29218W        W99099  21.585  42.876  10.992
29219W        W99100   4.405  12.802   1.312
29220W        W99101  10.297  29.492   0.806
29221W        W99102  44.355  42.384  14.805
29222W        W99103  35.907  38.491  10.895
29223W        W99104   8.333  11.319  12.094
29224W        W99105   3.328  32.418  11.575
29225W        W99106  33.958  34.539   2.797
29226W        W99107  43.840  41.044   2.789
29227W        W99108   6.767  26.049  12.527
29228W        W99109  39.376  37.902  14.903
29229W        W99110  28.628   0.472  14.994
29230W        W99111   9.362   8.894   1.283
29231W        W99112  30.553  41.796  11.518
29232W        W99113  39.495  16.596   4.194
29233W        W99114  21.187  30.994  10.921
29234W        W99115  24.990  21.236   0.783
29235W        W99116  34.929  41.947   3.861
29236W        W99117  13.826  10.369  14.795
29237W        W99118  42.339  38.067  14.373
29238W        W99119  26.071  21.735   3.716
29239W        W99120  33.897  20.063  12.055
29240W        W99121  25.504   7.298  11.469
29241W        W99122  35.927  13.118   3.278
29242W        W99123  15.294  33.513  10.546
29243W        W99124  15.773  33.543   5.155
29244W        W99125  26.561  25.469   9.969
29245W        W99126   4.374  30.023   0.399
29246W        W99127  24.220   5.764   1.864
29247W        W99128  23.545  22.204  10.512
29248W        W99129  13.291  34.953  13.875
29249W        W99130   9.734  10.261  12.824
29250W        W99131  24.217  27.966   2.841
29251W        W99132  15.240   8.167  12.949
29252W        W99133  31.530  15.745   3.233
29253W        W99134  26.991   0.489   4.693
29254W        W99135  10.281   5.900   3.293
29255W        W99136  22.015  28.149   2.721
29256W        W99137  31.041   7.724  12.440
29257W        W99138  33.030  29.046   1.341
29258W        W99139  23.606  29.430   1.910
29259W        W99140  42.497  36.945  12.519
29260W        W99141  43.847  12.276  10.407
29261W        W99142  40.829   2.359  12.913
29262W        W99143  36.557   4.345  14.021
29263W        W99144  23.641  26.670   3.338
29264W        W99145  43.870  16.283  13.021
29265W        W99146  13.203   7.191   4.738
29266W        W99147  44.492  16.284   1.750
29267W        W99148   8.317   6.325   3.371
29268W        W99149  14.794  42.982   4.692
29269W        W99150  18.232  27.485   4.220
29270W        W99151  39.449   9.185   3.799
29271W        W99152  29.962  19.125  13.846
29272W        W99153   8.284  37.545  10.613
29273W        W99154  19.285  30.938   1.886
29274W        W99155  38.481  33.434  11.062
29275W        W99156  36.865  11.267   1.764
29276W        W99157  39.335  21.088   2.722
29277W        W99158  36.034  40.003  10.471
29278W        W99159  20.724  14.337   3.294
29279W        W99160   5.802  36.379  11.124
29280W        W99161  17.572  40.337  14.399
29281W        W99162  34.880  27.628  10.491
29282W        W99163  25.981   1.450   0.364
29283W        W99164  19.174   5.203  13.963
29284W        W99165  29.171   2.744   1.935
29285W        W99166  13.293  27.529  14.030
29286W        W99167  23.705  30.493   1.222
29287W        W99168  22.635   3.414  11.608
29288W        W99169   7.807  43.291   4.829
29289W        W99170  19.206  39.557   0.333
29290W        W99171  15.655  14.207   3.236
29291W        W99172  31.545  43.769   3.856
29292W        W99173  35.422  35.920   0.410
29293W        W99174   3.823  25.633   3.787
29294W        W99175  20.091  38.439  14.434
29295W        W99176  38.960  26.061  10.599
29296W        W99177  20.227  42.301  11.481
29297W        W99178  38.041  28.180  12.090
29298W        W99179   2.779   7.837  14.450
29299W        W99180  26.694  25.051   1.888
29300W        W99181  25.001   0.871  10.448
29301W        W99182  25.691  12.301   4.743
29302W        W99183  26.611  37.370   3.631
29303W        W99184   8.697  23.561  10.460
29304W        W99185  37.406  18.250  12.431
29305W        W99186   3.386  14.773   3.855
29306W        W99187  24.519  19.276  10.445
29307W        W99188  30.415  35.435  13.047
29308W        W99189  20.685  11.237  11.544
29309W        W99190   9.332  39.431   3.724
29310W        W99191  15.585  13.748  13.413
29311W        W99192  20.630  26.700  11.868
29312W        W99193  18.188  32.064  13.792
29313W        W99194  44.759  18.056  14.884
29314W        W99195  42.930  28.140   3.216
29315W        W99196  22.565  23.178  13.511
29316W        W99197  43.276  17.625  14.319
29317W        W99198  35.550  21.119  14.431
29318W        W99199  32.485  34.967   3.865
29319W        W99200  27.539   8.361  11.403
29320W        W99201  31.917  35.386  13.460
29321W        W99202  17.755  20.747  14.957
29322W        W99203  25.106  37.364   1.831
29323W        W99204  29.110  20.270  11.494
29324W        W99205  14.193   1.249   2.181
29325W        W99206  20.226   5.303   2.896
29326W        W99207  35.057  18.780  10.931
29327W        W99208  31.544  42.836   4.633
29328W        W99209  43.302  18.134  13.799
29329W        W99210  10.799   9.329  11.404
29330W        W99211  33.522  32.122   0.438
29331W        W99212  31.643  35.883  12.521
29332W        W99213  39.554   8.779  11.911
29333W        W99214   4.863   0.886   1.891
29334W        W99215  15.115   8.655   0.893
29335W        W99216  44.407  14.109  13.801
29336W        W99217  10.227   4.911  13.929
29337W        W99218   0.487  18.683  13.037
29338W        W99219   8.178   5.873  13.814
29339W        W99220  15.211  42.999  10.987
29340W        W99221  30.604  16.786  14.023
29341W        W99222   7.717   8.174   1.813
29342W        W99223   9.351   0.816  12.079
29343W        W99224   6.693   9.774   4.119
29344W        W99225  24.712   1.831   0.961
29345W        W99226  25.564  24.615  14.940
29346W        W99227  18.119  33.125  12.432
29347W        W99228  34.113   0.865   3.811
29348W        W99229  13.307   4.353  11.061
29349W        W99230  24.217   4.400   2.359
29350W        W99231   0.900  30.016   4.150
29351W        W99232  40.340  16.632  14.439
29352W        W99233  42.960  21.182  11.511
29353W        W99234  32.119  39.332  13.932
29354W        W99235   3.944   6.421   1.917
29355W        W99236  43.894   4.362   3.863
29356W        W99237  31.452  16.228   4.609
29357W        W99238  32.907   4.421   3.806
29358W        W99239  10.855  29.148  11.903
29359W        W99240  10.739   6.323  14.429
29360W        W99241   0.750  22.251  11.058
29361W        W99242  21.022   2.312  13.395
29362W        W99243   8.686  24.560  12.989
29363W        W99244  19.048  13.638   0.859
29364W        W99245  10.315  38.909   3.249
29365W        W99246  21.690   7.805  12.538
29366W        W99247  41.401  21.540  12.361
29367W        W99248  33.123  30.947  13.040
29368W        W99249  16.165  19.281   3.260
29369W        W99250  21.194   9.319   3.237
29370W        W99251  26.670  17.734  13.454
29371W        W99252  30.599  41.443   3.188
29372W        W99253  38.380  42.435  13.381
29373W        W99254  32.557  10.778   1.319
29374W        W99255   8.869  43.873  14.808
29375W        W99256  13.820  27.049   1.228
29376W        W99257   1.409  26.089   3.833
29377W        W99258  43.897  18.253  12.927
29378W        W99259   2.883  35.535  14.889
29379W        W99260   9.690  21.744  11.051
29380W        W99261  20.600  12.325   0.861
29381W        W99262  18.781   5.314   4.703
29382W        W99263  36.846  37.394   1.353
29383W        W99264  44.415  38.919  14.373
29384W        W99265   7.706  15.681  12.967
29385W        W99266  40.871   6.194  13.055
29386W        W99267   9.200  14.602  12.919
29387W        W99268  11.795  40.472  14.816
29388W        W99269  31.627   9.740   0.879
29389W        W99270  16.625   3.731   1.280
29390W        W99271  34.400  10.161  12.995
29391W        W99272  20.584  13.339  12.580
29392W        W99273  28.941  28.675  14.798
29393W        W99274  28.115  28.676  13.456
29394W        W99275   3.779  43.491  10.944
29395W        W99276  15.210   7.183   4.194
29396W        W99277  13.611   9.240   3.758
29397W        W99278  26.565  10.871   2.735
29398W        W99279  25.121  15.735  14.850
29399W        W99280   3.925   4.208  13.496
29400W        W99281  27.153  32.038  11.113
29401W        W99282   4.209   3.454   1.822
29402W        W99283  25.520  35.410  11.425
29403W        W99284  15.117  33.544  11.555
29404W        W99285  10.288  31.899   3.379
29405W        W99286  42.029  18.701   4.801
29406W        W99287  25.687   6.725   2.756
29407W        W99288  11.223   7.378  11.378
29408W        W99289  32.554  30.971   1.709
29409W        W99290   3.948  13.225  10.555
29410W        W99291  19.174  10.166   1.421
29411W        W99292  37.016  17.301   0.958
29412W        W99293  44.866   3.751  12.383
29413W        W99294  37.039  11.858  11.938
29414W        W99295  13.663  28.635   1.237
29415W        W99296  29.070  16.653   4.188
29416W        W99297  25.630  16.766   2.358
29417W        W99298  34.446  20.082   3.321
29418W        W99299  40.801  40.858  12.539
29419W        W99300   0.311   3.283   0.777
29420W        W99301  33.949  26.510   2.264
29421W        W99302  44.755   8.316   1.766
29422W        W99303  18.766  14.204   2.769
29423W        W99304   6.704  34.869   3.761
29424W        W99305   7.273  25.051   4.309
29425W        W99306  25.680  41.888   2.270
29426W        W99307  34.454  21.155  14.364
29427W        W99308   6.271  16.081   2.701
29428W        W99309  23.004  21.625   1.727
29429W        W99310   4.791  42.496   3.241
29430W        W99311  31.437  28.948  14.383
29431W        W99312   7.310  29.153  11.911
29432W        W99313  38.052  17.209  12.885
29433W        W99314  37.548   0.841   3.198
29434W        W99315   7.376  26.620  12.340
29435W        W99316  35.358  42.888  11.857
29436W        W99317  14.811  15.728  13.408
29437W        W99318  13.753  44.950  12.992
29438W        W99319  37.345  33.457   2.332
29439W        W99320  39.999   9.310  14.475
29440W        W99321  31.085  16.751   2.888
29441W        W99322   8.295  34.579   1.376
29442W        W99323   8.841  18.595  13.051
29443W        W99324  41.292   1.406  12.032
29444W        W99325  30.019  34.561  10.408
29445W        W99326  34.898  16.262   0.762
29446W        W99327  23.213   4.813  11.563
29447W        W99328   1.321  20.654  13.031
29448W        W99329  25.609  18.235   3.673
29449W        W99330  31.642  41.409   0.392
29450W        W99331   7.700  13.664  14.947
29451W        W99332  12.309  42.460  14.939
29452W        W99333  38.961  43.361  11.955
29453W        W99334  25.147  36.395  11.930
29454W        W99335  31.493  10.298  11.903
29455W        W99336   7.762  26.952  13.479
29456W        W99337   1.340  24.181  10.407
29457W        W99338  26.069  35.895  11.542
29458W        W99339  42.790  34.538  11.578
29459W        W99340  44.468   2.404   1.342
29460W        W99341  19.193  10.650  12.479
29461W        W99342  35.933  34.456  12.880
29462W        W99343  22.743  16.726   0.477
29463W        W99344  32.552  20.263  10.967
29464W        W99345  19.558  25.001   1.763
29465W        W99346  26.135  32.982   4.821
29466W        W99347   3.315  10.176   2.740
29467W        W99348  41.918  10.347   5.199
29468W        W99349  33.532  10.682  13.949
29469W        W99350  12.854  23.614  11.954
29470W        W99351  36.421  22.503  11.084
29471W        W99352  27.502  44.868   2.367
29472W        W99353  12.296   0.965  10.908
29473W        W99354  15.142   5.872  11.546
29474W        W99355  16.803   4.710   1.333
29475W        W99356   9.185  34.061   2.371
29476W        W99357  38.527  20.214  13.443
29477W        W99358  15.118  39.449  13.520
29478W        W99359  19.254  34.044   1.885
29479W        W99360  23.203   6.329   3.267
29480W        W99361  29.117  30.473  13.418
29481W        W99362  39.523  29.100   2.803
29482W        W99363  24.039  11.832   2.417
29483W        W99364  26.031  36.069   1.313
29484W        W99365   0.486  41.840  13.330
29485W        W99366  15.792  22.154   2.307
29486W        W99367  27.690  31.905  14.872
29487W        W99368  10.877   4.779  12.862
29488W        W99369  11.723   7.371  12.553
29489W        W99370   0.330   6.205   4.274
29490W        W99371  44.932   8.726  12.396
29491W        W99372  13.138   5.865  13.369
29492W        W99373   3.802  31.147  13.479
29493W        W99374   4.821  31.149  13.803
29494W        W99375  27.551  25.615   3.817
29495W        W99376  22.176   7.279  14.924
29496W        W99377  29.116  39.958   1.259
29497W        W99378   2.851  21.133  13.885
29498W        W99379   6.710  39.501  13.507
29499W        W99380  25.621  12.752  12.542
29500W        W99381  36.934  40.049  13.997
29501W        W99382   2.422  14.704  13.896
29502W        W99383  18.740  28.501  11.590
29503W        W99384  15.722  40.365  13.992
29504W        W99385  29.616  18.772  14.000
29505W        W99386   7.230  22.160   1.859
29506W        W99387  33.950  12.804   1.341
29507W        W99388   6.200  34.970   0.957
29508W        W99389  36.981   8.763  10.497
29509W        W99390  14.608   7.906   3.205
29510W        W99391  11.129  24.584   3.784
29511W        W99392  41.435  34.547  11.003
29512W        W99393   4.372  27.613  10.894
29513W        W99394  16.148  18.731  14.369
29514W        W99395  11.852  12.305   4.201
29515W        W99396   1.482  26.547  13.434
29516W        W99397  32.897  44.370   2.863
29517W        W99398  21.133  30.659   3.381
29518W        W99399  34.874   6.910  14.368
29519W        W99400  34.480  13.319   2.213
29520W        W99401  33.883  38.874   1.417
29521W        W99402   1.908  27.461   2.356
29522W        W99403  32.979  41.873   1.384
29523W        W99404  43.780  40.350   1.745
29524W        W99405  38.917   1.767   0.264
29525W        W99406  29.667  28.444  11.555
29526W        W99407  27.165   7.179   2.227
29527W        W99408  11.314   7.222  13.998
29528W        W99409  32.629  22.215  13.030
29529W        W99410  17.567  20.538   4.334
29530W        W99411   6.241   1.870  14.451
29531W        W99412  43.290  42.969   0.945
29532W        W99413  40.012   9.225   2.872
29533W        W99414  27.552  28.969   2.860
29534W        W99415   0.871  34.954  11.511
29535W        W99416  32.059  15.779   3.806
29536W        W99417  11.149  16.316   0.873
29537W        W99418  23.508   2.345  10.913
29538W        W99419  25.114  26.975   2.300
29539W        W99420   0.391   7.351   3.783
29540W        W99421  13.311   2.454  11.868
29541W        W99422  26.163   6.900   3.319
29542W        W99423  42.879  18.287  13.980
29543W        W99424   7.905  40.860  12.392
29544W        W99425  19.585  17.716  14.426
29545W        W99426  41.443   3.421   4.803
29546W        W99427  42.885  11.201  11.940
29547W        W99428  42.900  41.374  13.015
29548W        W99429  23.516  28.142   1.815
29549W        W99430  37.468  39.536   3.323
29550W        W99431   5.369   0.473   0.772
29551W        W99432   5.395   0.268  11.532
29552W        W99433  15.769  35.520   1.348
29553W        W99434   6.262  31.907   1.436
29554W        W99435   0.957  14.809   4.168
29555W        W99436  29.998  13.259  12.844
29556W        W99437  15.806  24.103   2.220
29557W        W99438  23.213  17.240   0.954
29558W        W99439  31.928  43.331   3.229
29559W        W99440  43.934   6.921  12.395
29560W        W99441  28.963  10.862  10.928
29561W        W99442  13.720  38.839   0.745
29562W        W99443  39.550  19.254   0.892
29563W        W99444   9.853  41.337  11.113
29564W        W99445  43.492  11.273   0.306
29565W        W99446  41.038  38.565   1.890
29566W        W99447  39.916   2.459  14.408
29567W        W99448   5.321  24.076  13.416
29568W        W99449  42.845  24.515   3.705
29569W        W99450  40.877  18.060   3.187
29570W        W99451  17.231  21.096   2.766
29571W        W99452  11.639  29.663   0.363
29572W        W99453  18.638   7.737   3.186
29573W        W99454   4.712  36.519   0.293
29574W        W99455  20.657  18.188   2.726
29575W        W99456  32.458   8.194  10.607
29576W        W99457  35.926  14.675  10.944
29577W        W99458   3.840   7.824   0.400
29578W        W99459  27.454  24.050  13.835
29579W        W99460  37.949  20.092  11.981
29580W        W99461  17.557  44.272  11.547
29581W        W99462  34.474   4.226  14.993
29582W        W99463   1.861  36.537  12.968
29583W        W99464  38.961   9.207  12.855
29584W        W99465   4.382   5.896  12.456
29585W        W99466  15.780  44.456  13.415
29586W        W99467  37.881  29.081  14.854
29587W        W99468  10.228   3.376  14.455
29588W        W99469   2.313  12.152   3.783
29589W        W99470  17.295  29.162  13.061
29590W        W99471  41.421  23.074  12.457
29591W        W99472  36.477  41.957   0.808
29592W        W99473   6.272  13.349  10.533
29593W        W99474  28.069  43.329  10.987
29594W        W99475  28.152  25.488   2.876
29595W        W99476  11.775   6.810  11.506
29596W        W99477  14.135  27.049  13.474
29597W        W99478   3.336   2.281  13.404
29598W        W99479  15.202  37.401  12.409
29599W        W99480  29.547  15.712  12.933
29600W        W99481  11.806  13.318   4.336
29601W        W99482  15.112  39.557  12.917
29602W        W99483  23.723  19.225   3.279
29603W        W99484  34.979   8.326  10.630
29604W        W99485  20.592  30.540  11.955
29605W        W99486  21.086  37.407  12.455
29606W        W99487  32.885  24.607   2.230
29607W        W99488  18.769   9.815  12.876
29608W        W99489  36.897   3.915   2.752
29609W        W99490  24.539  43.346  11.500
29610W        W99491  35.426  37.367  12.077
29611W        W99492  20.548  34.081   0.290
29612W        W99493  27.576   8.898  12.444
29613W        W99494  11.234  44.856   0.293
29614W        W99495   5.331  35.589   1.247
29615W        W99496   2.855  36.939  11.026
29616W        W99497  35.464  14.230   1.225
29617W        W99498   3.426   2.818   3.352
29618W        W99499  41.866  15.084  14.980
29619W        W99500   9.219   1.366  12.969
29620W        W99501  24.105  21.189   4.728
29621W        W99502   1.975  11.356  10.960
29622W        W99503  19.160  10.695   1.892
29623W        W99504  24.987  19.598   1.367
29624W        W99505  23.195  34.610  12.989
29625W        W99506  15.800  40.848  12.953
29626W        W99507  37.890  32.943   4.205
29627W        W99508  15.751  11.301  13.313
29628W        W99509  10.774   1.844  11.875
29629W        W99510  19.167   9.312  14.890
29630W        W99511  42.958  31.408  14.487
29631W        W99512  42.806  22.215  11.494
29632W        W99513  32.993  17.113  13.057
29633W        W99514   8.263   6.774  13.039
29634W        W99515  11.860  27.118   1.372
29635W        W99516  20.070  39.452   1.790
29636W        W99517  16.642  27.023  13.455
29637W        W99518  31.557   9.285  14.497
29638W        W99519   8.832   8.845  10.974
29639W        W99520   2.743  21.054   2.826
29640W        W99521  38.045   6.428  12.996
29641W        W99522  25.654  23.520   1.837
29642W        W99523  14.713  17.301   3.252
29643W        W99524  29.566   5.796   0.460
29644W        W99525  38.910   2.464   3.713
29645W        W99526  10.290  24.518  12.032
29646W        W99527   6.817  21.144   2.409
29647W        W99528   1.295   3.897  11.039
29648W        W99529  13.751   0.322   3.266
29649W        W99530  23.670  31.569   2.343
29650W        W99531   7.895  27.054   3.727
29651W        W99532  32.504  16.111   0.318
29652W        W99533  18.119  25.983  13.908
29653W        W99534  37.560  19.185   1.766
29654W        W99535  36.491  36.456   1.223
29655W        W99536  17.170   3.418   0.943
29656W        W99537  41.529  29.131   2.852
29657W        W99538  32.577   8.826  14.994
29658W        W99539  30.457   8.890  14.353
29659W        W99540   4.936  39.014  12.396
29660W        W99541  18.073  38.532   0.456
29661W        W99542   3.773  20.668  14.820
29662W        W99543  20.538  41.384  11.037
29663W        W99544  29.923  33.045   1.280
29664W        W99545  32.911  28.680  13.880
29665W        W99546  35.928  11.145  10.446
29666W        W99547  20.731   0.400  12.361
29667W        W99548  18.660  43.454   1.339
29668W        W99549  35.987  20.069  12.395
29669W        W99550   2.453  10.680   4.831
29670W        W99551  43.397   3.264   4.217
29671W        W99552   0.273  43.455   3.186
29672W        W99553  17.663  25.100  10.587
29673W        W99554  31.492  42.936   4.117
29674W        W99555  16.213  31.900  13.434
29675W        W99556  22.091  14.195   1.265
29676W        W99557   8.855  31.622  13.534
29677W        W99558  16.632   2.439  14.886
29678W        W99559  24.091  26.624   1.435
29679W        W99560  14.751  43.984  14.456
29680W        W99561  18.650  40.933  14.913
29681W        W99562  18.769   4.229  13.989
29682W        W99563  25.024  41.528  10.913
29683W        W99564   7.200  16.300   1.344
29684W        W99565  15.588  20.192  13.876
29685W        W99566   4.915  17.078   0.833
29686W        W99567  38.993  10.324  10.452
29687W        W99568  37.897  36.899  12.419
29688W        W99569  37.868   0.796   0.732
29689W        W99570  32.463   1.864   4.288
29690W        W99571   8.186  18.060  11.899
29691W        W99572  36.089  20.206  12.058
29692W        W99573  16.247   5.352   2.812
29693W        W99574  20.573  15.241  11.869
29694W        W99575  32.124  15.582  14.280
29695W        W99576   6.403  42.303  11.959
29696W        W99577  33.032  31.086  14.908
29697W        W99578  25.977   7.377  12.060
29698W        W99579  11.256  25.033   4.233
29699W        W99580   6.693  18.232  11.898
29700W        W99581   6.352  14.598   4.604
29701W        W99582  27.589  15.327   4.684
29702W        W99583  20.688  39.810  13.458
29703W        W99584  39.405   5.203   0.479
29704W        W99585  27.567   9.374   2.277
29705W        W99586  14.132  43.389  11.013
29706W        W99587  22.545  31.072   3.823
29707W        W99588  27.163  42.984  11.122
29708W        W99589  21.643  27.644   3.807
29709W        W99590  29.027  25.680  11.443
29710W        W99591   3.812   1.889  12.946
29711W        W99592  15.697   5.762  11.474
29712W        W99593  17.106  29.469  10.028
29713W        W99594  11.653  24.123  10.065
29714W        W99595  34.560  10.204   2.850
29715W        W99596  27.448  24.090  10.057
29716W        W99597  44.329  31.610  13.373
29717W        W99598  38.494   9.742  11.050
29718W        W99599  32.410  17.127  14.498
29719W        W99600  23.626  10.344  12.560
29720W        W99601  44.823  33.896   0.794
29721W        W99602  41.961  28.970  13.898
29722W        W99603  41.872  27.057   3.212
29723W        W99604  22.140   1.895  12.530
29724W        W99605  43.781  14.306  14.802
29725W        W99606  26.513  14.725   1.903
29726W        W99607   8.793  11.356  11.394
29727W        W99608  12.177  24.089   3.666
29728W        W99609   4.233  35.396   3.774
29729W        W99610  35.943  30.017   3.646
29730W        W99611  43.929  43.793   4.816
29731W        W99612  35.526   1.959  12.851
29732W        W99613  36.451  20.749  11.865
29733W        W99614   6.241  39.502   1.795
29734W        W99615   4.373  14.197  13.880
29735W        W99616   9.753   4.719  11.396
29736W        W99617  34.489  23.643  14.414
29737W        W99618  33.003  25.003   2.815
29738W        W99619  33.383  31.555  10.494
29739W        W99620  25.084   1.792   0.272
29740W        W99621  32.009   5.866  10.952
29741W        W99622   9.357  43.992   1.914
29742W        W99623  11.335  29.604  14.857
29743W        W99624  28.976  24.984   4.726
29744W        W99625  38.875  30.032   0.907
29745W        W99626  19.608  29.457  14.834
29746W        W99627  42.857  19.567   0.397
29747W        W99628  26.629  14.688   2.405
29748W        W99629  33.877  33.886  11.506
29749W        W99630  10.693  41.931  12.861
29750W        W99631  18.120  33.923  12.436
29751W        W99632  38.553  14.239  13.548
29752W        W99633  40.455  25.140  14.369
29753W        W99634  21.198  32.420   1.279
29754W        W99635  22.644  12.265   1.764
29755W        W99636   3.411  20.167   3.630
29756W        W99637  41.793   2.325  10.621
29757W        W99638   8.710  31.117   3.366
29758W        W99639  16.771  16.759  12.059
29759W        W99640  31.971  25.573  12.512
29760W        W99641  11.816   4.855   0.960
29761W        W99642  23.072  22.175  12.508
29762W        W99643  35.452  17.290   0.388
29763W        W99644   3.219  36.895   0.887
29764W        W99645   3.877  23.690   3.377
29765W        W99646   7.732  15.762  14.499
29766W        W99647  39.327  11.622  10.535
29767W        W99648  38.473  41.966  12.408
29768W        W99649  27.515  19.112   0.336
29769W        W99650  25.583  22.651   2.229
29770W        W99651  15.284  15.193  13.542
29771W        W99652  27.615  24.184  13.493
29772W        W99653  33.052  38.471   1.423
29773W        W99654  10.689  37.914   0.945
29774W        W99655  33.891  44.879  14.507
29775W        W99656  44.505  14.600  11.390
29776W        W99657  37.074  39.436  11.922
29777W        W99658   4.220  16.251   3.753
29778W        W99659  10.181  23.103   0.912
29779W        W99660  41.420  40.331   3.646
29780W        W99661  15.084   4.352  14.855
29781W        W99662  38.450  21.058  13.390
29782W        W99663  24.680  33.887  12.946
29783W        W99664  42.971  14.099  12.565
29784W        W99665  44.496  19.122   0.928
29785W        W99666  41.465   9.782  14.931
29786W        W99667  40.374   5.266  12.407
29787W        W99668   1.482  39.983   1.265
29788W        W99669  27.014   0.890   3.675
29789W        W99670  36.397  20.100  11.074
29790W        W99671   4.834   6.342   0.908
29791W        W99672  32.415  44.810  14.768
29792W        W99673  31.452  24.015  14.815
29793W        W99674   2.963  22.704  11.069
29794W        W99675  38.443  37.983   0.477
29795W        W99676   5.268  25.475   3.716
29796W        W99677  24.683  34.058   3.320
29797W        W99678  43.439  29.055  11.954
29798W        W99679  35.020  28.455  10.413
29799W        W99680  26.688  28.621  11.898
29800W        W99681  23.154  13.343   0.473
29801W        W99682  18.151  37.084   2.899
29802W        W99683  13.670   5.751   2.416
29803W        W99684  18.262  21.019   4.287
29804W        W99685  14.807  13.186  11.893
29805W        W99686  39.331  23.559  12.456
29806W        W99687  16.658  25.599   0.953
29807W        W99688  11.255  13.675   2.797
29808W        W99689   0.905  32.585  14.396
29809W        W99690  34.109  34.540  13.346
29810W        W99691   1.440  42.892  12.409
29811W        W99692  35.931  24.524  12.494
29812W        W99693  11.865  20.550  12.379
29813W        W99694  27.076  20.568   4.659
29814W        W99695  35.550  23.712  14.306
29815W        W99696   8.836   3.856  12.921
29816W        W99697   7.753  35.903   3.384
29817W        W99698  34.592  36.002  14.842
29818W        W99699   6.786   5.870   3.368
29819W        W99700  22.213   6.701  13.994
29820W        W99701  32.899  16.112   2.419
29821W        W99702  32.472  16.802  11.948
29822W        W99703  35.030   3.274   4.347
29823W        W99704   8.860   5.369  10.419
29824W        W99705   2.301  17.284  10.607
29825W        W99706  23.035   2.723  14.821
29826W        W99707  40.956  42.918   0.762
29827W        W99708  22.728  24.655   2.780
29828W        W99709   0.746  34.588   1.295
29829W        W99710  24.560  15.125   1.219
29830W        W99711  32.422   1.306   3.309
29831W        W99712  15.098  28.995  14.342
29832W        W99713  36.419  23.081  11.609
29833W        W99714  28.565  19.682   3.637
29834W        W99715  26.027  13.236  12.512
29835W        W99716  42.371   0.449   2.886
29836W        W99717   6.262  18.749  12.521
29837W        W99718  10.240  38.415   2.705
29838W        W99719  30.456  17.744  10.443
29839W        W99720  38.556  22.633   1.740
29840W        W99721  17.223  11.807   5.240
29841W        W99722   2.828   2.881  13.848
29842W        W99723   6.280  24.132  12.877
29843W        W99724   2.455  26.519   0.784
29844W        W99725  37.415  34.050  12.477
29845W        W99726  27.131  26.175  13.461
29846W        W99727   6.301   3.398  12.982
29847W        W99728  13.721   0.472   4.600
29848W        W99729  24.483  38.891   4.635
29849W        W99730   6.684  19.656  13.956
29850W        W99731  21.526   0.785   3.781
29851W        W99732  39.430  26.118   3.710
29852W        W99733  40.441  33.587   1.444
29853W        W99734   1.336  17.678   1.935
29854W        W99735  32.060  33.578   4.795
29855W        W99736  41.012  22.141  13.308
29856W        W99737  40.890  25.027   4.820
29857W        W99738   6.808  41.901  10.974
29858W        W99739   6.255  13.722   4.610
29859W        W99740  33.960   6.813  11.046
29860W        W99741  11.310  37.082   2.352
29861W        W99742  43.816  13.833  14.495
29862W        W99743  27.105  44.307  11.862
29863W        W99744   7.250  12.172  10.915
29864W        W99745   8.801  38.073   3.739
29865W        W99746  27.508  24.138   5.635
29866W        W99747   6.216   0.793   0.962
29867W        W99748  35.072  15.312  14.872
29868W        W99749  26.135   1.882   2.780
29869W        W99750  27.126  23.706  10.887
29870W        W99751  42.386  18.113  11.856
29871W        W99752  12.646  13.158   4.796
29872W        W99753  22.097  37.482   5.110
29873W        W99754   4.427   5.235  11.115
29874W        W99755  38.068  12.788   1.259
29875W        W99756  40.523   5.838   1.332
29876W        W99757  28.660   3.764   0.283
29877W        W99758  14.648  37.372   3.860
29878W        W99759  18.253  19.657  12.845
29879W        W99760  30.991   1.435   3.235
29880W        W99761  43.424   6.743  14.421
29881W        W99762  14.220  29.623  13.347
29882W        W99763  42.935  37.347  14.789
29883W        W99764   6.356   6.343   4.755
29884W        W99765  17.061  32.537   4.313
29885W        W99766  21.691  37.408  12.374
29886W        W99767  30.446  26.630   3.260
29887W        W99768  33.086   4.818   3.269
29888W        W99769   9.687  22.145  12.543
29889W        W99770  36.367   4.377  13.309
29890W        W99771  44.804   4.376  14.449
29891W        W99772  19.051  21.178  12.959
29892W        W99773  17.724   0.766   3.670
29893W        W99774  37.511  11.213  14.994
29894W        W99775  30.641   8.341   3.801
29895W        W99776  27.676  43.962  13.889
29896W        W99777   8.749  44.817  12.411
29897W        W99778  22.600  18.115  11.458
29898W        W99779  12.286  15.203   1.700
29899W        W99780  43.491  22.702  11.111
29900W        W99781  41.298  29.934  11.581
29901W        W99782  39.406  29.507  13.064
29902W        W99783   2.792  28.562   2.389
29903W        W99784  19.282  40.356  10.509
29904W        W99785  21.174  16.198  12.498
29905W        W99786  40.013  37.338   4.168
29906W        W99787   7.844  43.001  11.595
29907W        W99788   7.808   8.371   3.784
29908W        W99789   1.379  13.807   0.364
29909W        W99790   9.804  21.703   3.328
29910W        W99791  22.150  34.541   3.659
29911W        W99792  26.530  29.435   1.356
29912W        W99793  12.208  33.936  12.028
29913W        W99794   4.451  30.916   4.171
29914W        W99795  43.347  36.997  10.574
29915W        W99796  22.591   0.329   4.798
29916W        W99797  29.920  42.471  11.388
29917W        W99798  18.640   1.848   5.248
29918W        W99799   9.197  22.216  12.023
29919W        W99800  31.463   4.386  13.917
29920W        W99801  18.646  20.212   0.763
29921W        W99802  15.816   1.298   2.857
29922W        W99803  35.853   3.849  13.959
29923W        W99804  35.904  44.425   0.769
29924W        W99805   0.785  25.537  12.382
29925W        W99806  32.976  35.088   1.413
29926W        W99807   5.274  22.592   3.202
29927W        W99808  24.072   0.262   0.382
29928W        W99809  32.080  27.686   3.251
29929W        W99810  28.974  24.150   3.249
29930W        W99811  37.510  39.523   0.923
29931W        W99812  20.130   2.924   3.787
29932W        W99813   0.446   2.396  10.429
29933W        W99814  41.845  28.057  13.430
29934W        W99815   7.190  28.638  13.002
29935W        W99816  31.033   4.765  12.541
29936W        W99817   5.866  25.962  13.408
29937W        W99818   1.783  36.083  10.502
29938W        W99819  31.602  27.097   2.323
29939W        W99820  33.036  20.649   1.446
29940W        W99821  11.334  42.998  11.056
29941W        W99822  34.083  17.168   2.768
29942W        W99823  26.461  35.900   3.816
29943W        W99824  32.025  43.473  11.532
29944W        W99825  35.101  21.073   1.359
29945W        W99826  35.102   4.388  11.101
29946W        W99827  11.676   3.734   3.801
29947W        W99828  32.930   0.442  12.855
29948W        W99829   8.288  15.202  10.481
29949W        W99830   5.837  37.894  10.561
29950W        W99831  18.547  30.030   2.889
29951W        W99832  12.710  34.389  14.302
29952W        W99833  22.582  23.573  11.937
29953W        W99834  44.280   1.466  10.983
29954W        W99835  22.193   0.834   0.932
29955W        W99836  16.160  21.579  13.334
29956W        W99837  40.471  18.225   0.347
29957W        W99838  12.231   0.375   1.399
29958W        W99839  25.173  24.196  14.839
29959W        W99840  40.964   6.841   0.861
29960W        W99841  35.459  23.539   2.783
29961W        W99842  32.443  40.540   3.735
29962W        W99843  12.291  21.112   3.667
29963W        W99844  24.157  19.713  13.030
29964W        W99845  29.527   4.910  11.447
29965W        W99846  38.899   7.399   4.236
29966W        W99847  43.865  41.505   4.211
29967W        W99848  35.108  32.051   5.163
29968W        W99849   4.271  17.557  11.123
29969W        W99850  35.897  10.252  11.572
29970W        W99851   4.902  31.043   1.698
29971W        W99852  38.956  31.901   5.261
29972W        W99853  30.915  28.961  12.465
29973W        W99854   6.239  20.104  12.547
29974W        W99855  44.454  20.239  12.070
29975W        W99856  36.001  22.506  13.009
29976W        W99857   9.872   8.802   1.742
29977W        W99858  33.544  26.076   1.842
29978W        W99859   2.345  19.076   0.766
29979W        W99860   6.361  23.555  13.929
29980W        W99861  20.203  25.022   1.305
29981W        W99862  18.194   4.341   4.129
29982W        W99863  12.719  42.868   3.806
29983W        W99864  16.130   7.200  11.916
29984W        W99865  20.042   1.483   1.888
29985W        W99866   8.160   4.431  13.400
29986W        W99867  29.461  40.482   1.394
29987W        W99868  19.597  23.099   3.340
29988W        W99869  18.164   8.728  13.458
29989W        W99870  12.360   5.892  14.893
29990W        W99871  30.513  11.622   4.714
29991W        W99872  27.506   6.350  11.515
29992W        W99873  22.653  20.627   3.324
29993W        W99874  26.628  44.887   3.162
29994W        W99875   6.697  37.937   3.845
29995W        W99876  10.299  35.946   0.476
29996W        W99877  44.893  20.690  13.364
29997W        W99878   2.268   0.869   1.286
29998W        W99879  30.957   2.846  11.089
29999W        W99880   9.389  22.252   0.482
30000W        W99881  16.299  19.080   4.159
30001W        W99882  31.929  37.016   1.777
30002W        W99883  27.948  39.337   3.267
30003W        W99884   2.444  17.082  13.405
30004W        W99885  24.204   3.266   1.240
30005W        W99886  35.065  22.738   4.288
30006W        W99887   8.726   5.260   3.268
30007W        W99888  25.505  15.104   3.844
30008W        W99889  16.141  14.730  14.835
30009W        W99890  38.332  18.664   0.943
30010W        W99891  17.743   4.859  12.576
30011W        W99892  41.872  23.106  11.034
30012W        W99893  38.446  22.698   0.385
30013W        W99894  26.609  44.956  10.611
30014W        W99895  31.416  23.558   1.212
30015W        W99896  38.942   3.816   3.780
30016W        W99897  35.912  26.072   0.780
30017W        W99898  41.898  44.428   2.274
30018W        W99899  14.278  33.532   1.378
30019W        W99900  31.563  28.634   0.778
30020W        W99901   9.811  18.065  13.477
30021W        W99902  32.562  41.414   1.787
30022W        W99903  20.069   4.729   2.390
30023W        W99904  29.570  25.058  11.520
30024W        W99905   3.338   8.302   3.781
30025W        W99906  21.150  16.768   0.253
30026W        W99907  43.001  32.567  14.349
30027W        W99908  32.064  20.140   2.856
30028W        W99909   0.952  44.359   3.857
30029W        W99910  39.925  42.491  14.901
30030W        W99911  38.029  36.878   1.317
30031W        W99912   1.310  34.015  14.291
30032W        W99913  17.209  34.905  13.907
30033W        W99914  19.708  36.544   5.207
30034W        W99915  34.877  30.536   2.220
30035W        W99916  17.682  12.352   2.197
30036W        W99917  27.096   7.412   4.274
30037W        W99918  32.963  11.623  10.616
30038W        W99919  21.211  21.600  14.007
30039W        W99920  27.964  33.463   5.099
30040W        W99921  30.583  43.435  12.360
30041W        W99922  38.540  44.770  12.984
30042W        W99923  40.981  43.777   0.450
30043W        W99924  20.633  13.821   1.760
30044W        W99925  20.247  34.399   3.696
30045W        W99926  20.571  11.225   4.298
30046W        W99927  24.100  39.542  13.860
30047W        W99928  15.282  29.609  11.564
30048W        W99929  22.594  43.395   0.380
30049W        W99930  32.466   6.400  13.798
30050W        W99931   9.730  13.815   0.392
30051W        W99932  42.403  24.501   1.760
30052W        W99933   2.241  23.144   3.850
30053W        W99934  20.114  30.503  14.408
30054W        W99935  27.650  12.213  11.400
30055W        W99936  28.018  15.764   1.808
30056W        W99937  17.789  10.140  12.415
30057W        W99938  13.636  15.310   1.344
30058W        W99939  40.979  21.067  14.947
30059W        W99940  11.136  32.972  10.626
30060W        W99941  34.521  10.812   2.764
30061W        W99942  14.168  20.255  11.858
30062W        W99943  43.981  41.040  12.858
30063W        W99944  29.123  31.983  13.458
30064W        W99945  30.127  44.008  14.304
30065W        W99946  22.589  29.969  12.944
30066W        W99947  26.118  28.107  12.881
30067W        W99948   9.181  16.626   2.776
30068W        W99949  38.830   4.871   2.879
30069W        W99950  27.958   9.751   2.317
30070W        W99951  23.051  39.915   4.794
30071W        W99952  23.188   1.783  12.427
30072W        W99953   1.243  28.962  10.999
30073W        W99954  44.462  43.836   2.371
30074W        W99955   2.908  23.599  11.124
30075W        W99956  30.998  44.261  11.379
30076W        W99957  28.546   1.384   3.757
30077W        W99958   0.927  10.740  13.336
30078W        W99959  32.965  22.641   1.725
30079W        W99960  43.512  38.894  10.618
30080W        W99961  26.463  18.190  12.961
30081W        W99962   2.869  31.507  14.473
30082W        W99963  28.582   4.269   0.448
30083W        W99964   0.743  17.224   5.312
30084W        W99965  17.112   2.443  14.789
30085W        W99966   6.231  20.726   1.360
30086W        W99967  14.804  19.677  14.495
30087W        W99968  26.614  14.748  12.993
30088W        W99969   5.789   7.795  10.986
30089W        W99970  24.652   9.174  11.047
30090W        W99971  23.724  41.005   4.162
30091W        W99972  19.686  26.029   4.167
30092W        W99973  44.503  23.704   1.754
30093W        W99974   2.730   2.326   4.601
30094W        W99975   3.339  23.692   4.601
30095W        W99976  43.408  19.273   0.317
30096W        W99977  37.426  11.192  12.482
30097W        W99978   8.270  24.632   1.248
30098W        W99979  39.019  19.144   3.361
30099W        W99980  36.545  37.836  10.478
30100W        W99981  26.046  24.029   1.249
30101W        W99982  41.902   9.294   2.755
30102W        W99983  34.380  43.870   1.849
30103W        W99984   7.376  41.847   2.208
30104W        W99985  12.233   7.764   3.717
30105W        W99986  40.053  22.538  12.896
30106W        W99987  40.044   8.763   0.831
30107W        W99988  22.112  30.037  13.437
30108W        W99989  33.388   6.207  11.478
30109W        W99990   6.360   9.191   0.832
30110W        W99991   0.370  42.859  14.297
30111W        W99992  43.397   2.238  13.983
30112W        W99993  19.693  21.586   0.820
30113W        W99994  13.648  28.561  11.929
30114W        W99995  41.995  14.244  11.520
30115W        W99996  22.139  38.047  14.300
30116W        W99997  35.919  42.379   0.881
30117W        W99998   1.310  18.235   4.301
30118W        W99999   4.279  11.761  10.499
30119W        W    0  44.494  35.468  13.440
30120W        W    1  37.554   9.818   0.454
30121W        W    2  28.079  10.276   4.124
30122W        W    3  37.351  13.250   2.198
30123W        W    4  38.920   9.189   3.370
30124W        W    5  42.013  41.513   2.301
30125W        W    6  40.894  34.059   4.270
30126W        W    7   3.846  16.739  13.042
30127W        W    8   0.890  26.975   1.348
30128W        W    9  27.989  41.858   4.332
30129W        W   10   6.410  23.161   1.354
30130W        W   11  28.647   0.940   4.135
30131W        W   12  36.850  35.910   2.399
30132W        W   13   4.345  44.873  10.534
30133W        W   14  40.460  33.993  13.459
30134W        W   15  43.513  25.633   0.313
30135W        W   16   8.711  33.577   0.307
30136W        W   17  34.385  26.057  11.473
30137W        W   18  22.706  43.408  13.391
30138W        W   19  12.157  29.550   3.378
30139W        W   20  34.567  37.407   1.419
30140W        W   21  39.959  29.641  11.098
30141W        W   22   5.402  39.457   1.387
30142W        W   23  22.079  38.392   0.321
30143W        W   24  21.512   1.769   2.398
30144W        W   25  38.456  42.776   1.210
30145W        W   26  17.555  13.755  12.419
30146W        W   27  25.494  37.059   4.330
30147W        W   28  42.999  37.399   2.324
30148W        W   29   3.860  42.478   2.273
30149W        W   30  32.593  13.810   1.783
30150W        W   31  38.905  44.800   0.374
30151W        W   32   1.255  28.181   2.730
30152W        W   33  10.241  34.097  11.017
30153W        W   34  23.189  29.109  14.494
30154W        W   35  37.911   9.271   4.140
30155W        W   36  18.694  38.350  14.316
30156W        W   37  29.166  26.955  11.471
30157W        W   38  25.659   8.163   0.881
30158W        W   39  18.241  33.911  14.979
30159W        W   40  42.446  15.199   3.304
30160W        W   41   9.752  40.901  13.894
30161W        W   42  44.377   6.200  14.004
30162W        W   43  34.940  40.006  11.887
30163W        W   44  35.368  30.990   4.155
30164W        W   45  31.004  44.287  11.951
30165W        W   46   0.803  25.651  11.587
30166W        W   47  38.049  23.544  11.861
30167W        W   48   9.863   2.944   3.636
30168W        W   49  30.057  32.592   4.662
30169W        W   50   7.294  26.175   0.295
30170W        W   51   6.380  18.724   1.391
30171W        W   52  24.185  32.455  11.115
30172W        W   53   3.895   6.890   4.185
30173W        W   54  30.534  34.087   4.808
30174W        W   55  21.654   7.182  12.443
30175W        W   56   8.771  28.027   2.738
30176W        W   57  26.203   7.817   3.653
30177W        W   58  18.220   4.776   4.800
30178W        W   59  19.567  11.861  13.955
30179W        W   60   4.216  14.716  11.949
30180W        W   61   4.942   5.385  11.859
30181W        W   62  39.826  36.031  13.860
30182W        W   63  23.567  22.145   4.328
30183W        W   64  37.053   7.870   0.929
30184W        W   65  29.072  14.801  13.344
30185W        W   66   3.413  12.843   3.828
30186W        W   67   5.827  27.494   1.210
30187W        W   68  22.552  29.651   3.855
30188W        W   69  20.137  11.719  13.547
30189W        W   70   0.437  10.247  13.416
30190W        W   71  41.341  15.276   2.403
30191W        W   72  16.280  28.071   3.382
30192W        W   73   4.861  13.288  10.526
30193W        W   74   1.435  15.091  13.385
30194W        W   75  14.686  25.057   2.782
30195W        W   76  22.673  13.647  12.933
30196W        W   77  18.760  27.502   1.295
30197W        W   78  30.006  18.149   2.195
30198W        W   79  31.562  27.527  11.096
30199W        W   80  17.792  30.907   1.447
30200W        W   81   8.363  23.567   1.889
30201W        W   82  22.532   8.247   2.262
30202W        W   83  23.626  31.597   4.612
30203W        W   84  19.612  19.751   1.216
30204W        W   85  20.201  36.409   3.227
30205W        W   86  13.258  39.407  14.283
30206W        W   87  33.410  26.057  11.881
30207W        W   88  18.267  13.600  14.366
30208W        W   89  43.840  33.419  11.086
30209W        W   90  31.558  15.267   4.757
30210W        W   91   1.388  19.118  10.631
30211W        W   92  25.607  30.603  14.385
30212W        W   93  25.026  30.098   1.787
30213W        W   94  10.765  44.291   0.423
30214W        W   95  11.780  17.235   2.701
30215W        W   96  33.077  26.159   3.320
30216W        W   97  22.603  19.277   0.806
30217W        W   98  31.914  25.967   4.243
30218W        W   99  11.640   0.837  14.415
30219W        W  100  26.470  29.527  13.812
30220W        W  101  15.777  14.228  10.054
30221W        W  102   1.312  36.937   2.719
30222W        W  103   2.871   6.256  11.009
30223W        W  104   4.222  43.846   2.846
30224W        W  105  27.108  26.080   2.303
30225W        W  106  19.275  27.167  14.999
30226W        W  107  17.181  42.514   1.307
30227W        W  108   5.338  28.492   2.397
30228W        W  109  35.403  32.966   4.208
30229W        W  110   2.962   0.903   3.290
30230W        W  111  40.813  42.904   4.758
30231W        W  112  30.537  40.920  13.809
30232W        W  113   7.779   0.449   3.728
30233W        W  114   9.170   4.933  13.334
30234W        W  115  30.056   2.807  14.895
30235W        W  116  27.461  20.529  14.281
30236W        W  117  12.829  37.037  14.903
30237W        W  118  22.054   9.236  12.999
30238W        W  119  16.090  16.717  11.560
30239W        W  120   8.171  18.657   4.745
30240W        W  121  24.596  27.058   3.232
30241W        W  122   4.819  35.880  13.843
30242W        W  123  19.716  11.635   1.308
30243W        W  124   9.214  29.942   2.691
30244W        W  125  35.500   6.344   2.684
30245W        W  126   4.809  17.667   1.324
30246W        W  127   2.239  25.116   9.949
30247W        W  128  28.939   6.789   3.700
30248W        W  129  33.964  22.094   1.412
30249W        W  130  36.469  35.376   0.928
30250W        W  131  32.976  38.567  10.445
30251W        W  132  13.733  43.859   4.625
30252W        W  133   6.405  12.835   9.993
30253W        W  134  39.411  12.267   3.815
30254W        W  135  23.131  19.242  11.447
30255W        W  136   6.369  14.188  14.014
30256W        W  137   0.475  41.501   3.825
30257W        W  138  44.481  14.327   1.314
30258W        W  139  11.352   4.760   0.397
30259W        W  140   5.934  14.269   2.257
30260W        W  141   2.346  20.195  12.475
30261W        W  142  18.602  10.871  12.075
30262W        W  143  26.046  38.963   4.643
30263W        W  144  32.567  38.547   3.162
30264W        W  145  32.608   3.217  13.312
30265W        W  146  25.530  24.672   0.471
30266W        W  147  26.458  27.478   4.186
30267W        W  148   4.918  27.142  13.012
30268W        W  149  31.089   8.393  10.911
30269W        W  150  34.965  26.015  14.973
30270W        W  151  15.696  28.564   4.157
30271W        W  152   7.340   3.785   3.281
30272W        W  153  10.324  26.118   4.725
30273W        W  154   2.433   7.891   4.314
30274W        W  155  40.324   3.768   0.283
30275W        W  156  20.263  11.145  10.630
30276W        W  157  26.096  33.581   0.816
30277W        W  158  24.130  16.303  14.009
30278W        W  159  23.032  35.854   1.909
30279W        W  160  32.143  13.691   3.744
30280W        W  161  16.679  21.739  13.005
30281W        W  162  35.103  32.031  10.949
30282W        W  163  26.010   4.717  13.364
30283W        W  164  11.813  38.887   3.749
30284W        W  165  16.254   1.456  12.350
30285W        W  166  16.732  37.338  10.412
30286W        W  167   6.849  36.963  13.935
30287W        W  168  24.716  22.107   1.444
30288W        W  169  28.088  30.574   5.191
30289W        W  170  38.877  27.958   4.342
30290W        W  171  10.368  16.177  13.319
30291W        W  172  43.994  23.632  11.084
30292W        W  173  34.037   7.417   5.311
30293W        W  174  35.403  31.638  14.812
30294W        W  175  36.364   6.254  13.842
30295W        W  176  28.450   6.819  11.495
30296W        W  177   9.259  38.370   1.306
30297W        W  178  41.931   0.311  13.379
30298W        W  179  42.785  30.633  11.385
30299W        W  180  30.478  44.402   0.781
30300W        W  181  14.622  23.026  12.986
30301W        W  182  17.178  28.138   0.916
30302W        W  183   1.843  28.022  13.364
30303W        W  184  21.212  26.520  14.505
30304W        W  185  17.750  34.376  13.987
30305W        W  186  12.717  37.449  12.354
30306W        W  187  24.681  21.061  13.386
30307W        W  188  13.202  42.013   0.414
30308W        W  189   8.740   1.411   1.785
30309W        W  190  31.481  37.932  11.571
30310W        W  191  28.543  42.796   0.728
30311W        W  192  17.166  17.581  11.562
30312W        W  193   6.804   8.374  13.868
30313W        W  194   4.386  37.888  11.578
30314W        W  195   0.866  24.973   1.233
30315W        W  196  18.651  42.339  13.433
30316W        W  197  23.652  31.429   3.833
30317W        W  198  28.592   5.921   2.713
30318W        W  199  16.267   9.248   1.329
30319W        W  200  27.643  42.863  12.056
30320W        W  201  22.147  12.233  14.920
30321W        W  202   8.388  44.753  10.529
30322W        W  203   0.810   7.898   0.456
30323W        W  204   1.882  20.231  11.894
30324W        W  205  13.250  39.401   1.389
30325W        W  206   1.448  24.999  13.343
30326W        W  207  23.602  26.051   4.729
30327W        W  208  22.196  44.323  11.398
30328W        W  209  41.514   6.797   1.331
30329W        W  210  13.265  17.194   1.905
30330W        W  211  22.174  43.978   1.744
30331W        W  212  39.495  19.236   1.868
30332W        W  213  25.084  17.758  11.600
30333W        W  214  16.724   6.744   3.180
30334W        W  215   6.897  22.675   0.313
30335W        W  216   9.301  28.509  14.927
30336W        W  217  33.457   0.347  12.941
30337W        W  218   5.914  24.549   2.271
30338W        W  219   3.937  27.477   3.810
30339W        W  220  11.808  25.526   3.672
30340W        W  221   5.758  23.694  13.532
30341W        W  222  20.751  22.150   0.954
30342W        W  223  22.679   3.748   1.694
30343W        W  224  30.116   6.360   2.228
30344W        W  225  22.660  31.471   2.830
30345W        W  226   5.779  11.790   1.849
30346W        W  227   7.903  44.867  12.563
30347W        W  228   8.192   6.813   4.612
30348W        W  229  14.774   8.319  12.459
30349W        W  230  20.084  21.094  13.485
30350W        W  231   8.285  13.702  11.119
30351W        W  232  21.531  13.230  10.986
30352W        W  233  42.864   1.362   2.775
30353W        W  234  32.515  25.148   3.386
30354W        W  235  29.044  35.580   4.298
30355W        W  236  33.997  17.797  12.358
30356W        W  237   0.902  39.468   0.881
30357W        W  238  18.175  15.816  10.492
30358W        W  239  31.462   7.698   3.318
30359W        W  240  40.321  23.135  12.366
30360W        W  241  24.206  18.643   9.968
30361W        W  242  30.450  11.241   3.762
30362W        W  243  13.236  11.826   3.216
30363W        W  244  19.166  29.009   1.281
30364W        W  245  33.886  15.273  11.476
30365W        W  246  37.580  16.160  14.436
30366W        W  247  43.775  32.076   1.313
30367W        W  248   0.863  26.632  12.901
30368W        W  249  16.165  30.637  13.399
30369W        W  250   3.872  22.556  12.038
30370W        W  251  20.251  14.773   3.158
30371W        W  252  38.417  35.472  12.580
30372W        W  253   9.197  21.054   9.960
30373W        W  254   8.225  19.118   0.914
30374W        W  255   6.230  36.932   2.276
30375W        W  256  40.002  16.096  12.028
30376W        W  257  33.598  35.498  14.006
30377W        W  258   1.448  10.220   0.478
30378W        W  259   9.279  18.172  12.416
30379W        W  260  32.927  32.621   2.894
30380W        W  261  24.147  34.961   0.924
30381W        W  262   5.230  28.674  11.918
30382W        W  263  39.829  35.997   1.828
30383W        W  264  25.004  36.096   0.362
30384W        W  265  37.387  19.270  12.027
30385W        W  266  39.376  36.561  10.961
30386W        W  267  42.447  37.357   4.159
30387W        W  268  39.956  14.827  13.964
30388W        W  269  37.891  17.591   4.310
30389W        W  270  10.669  26.196  10.571
30390W        W  271  41.800  16.735   4.132
30391W        W  272  44.844  25.666  13.894
30392W        W  273  25.600  33.590   4.236
30393W        W  274  24.499  44.410  10.516
30394W        W  275  31.121  44.448  12.958
30395W        W  276  31.002   2.251  10.471
30396W        W  277  38.485   5.328  14.871
30397W        W  278   2.942  14.671  12.455
30398W        W  279  25.076  16.672  13.019
30399W        W  280  12.308  33.043   1.249
30400W        W  281   2.329  31.632  14.922
30401W        W  282  22.180  41.490  11.611
30402W        W  283  21.534  26.180   1.271
30403W        W  284  40.417  11.256  13.809
30404W        W  285   5.832  18.272   1.224
30405W        W  286  14.151   9.257   0.460
30406W        W  287  33.454  27.529  10.592
30407W        W  288   5.371  32.437   1.838
30408W        W  289  35.089  14.682  13.328
30409W        W  290  13.328  42.322   1.272
30410W        W  291  14.152  12.678   3.371
30411W        W  292  34.463  18.183   3.189
30412W        W  293   1.808  35.530  13.857
30413W        W  294   6.911  14.729  14.382
30414W        W  295  30.524  36.860  11.888
30415W        W  296  15.297  35.881  10.475
30416W        W  297  29.637  44.441  11.008
30417W        W  298   4.837  36.901   4.626
30418W        W  299   6.889  44.857   4.343
30419W        W  300  22.035  10.339   0.792
30420W        W  301  11.190  23.667  11.574
30421W        W  302  44.985  42.008  12.947
30422W        W  303  42.386  30.146  14.875
30423W        W  304  11.293  36.965  13.478
30424W        W  305   1.472   5.787  14.498
30425W        W  306  20.171  10.359   3.333
30426W        W  307  28.538  40.874  13.425
30427W        W  308  17.145  10.164   1.754
30428W        W  309  10.747   7.867  13.005
30429W        W  310  23.564  41.881  10.891
30430W        W  311   5.394   6.805  12.986
30431W        W  312   3.432  22.510  13.030
30432W        W  313  16.597  26.553  10.408
30433W        W  314   5.238  36.466  14.791
30434W        W  315  42.027  43.796  11.605
30435W        W  316  38.450  43.821   2.217
30436W        W  317  39.835  32.480  10.614
30437W        W  318   4.343  28.979  14.819
30438W        W  319  41.002  35.985  12.478
30439W        W  320  15.132  32.462   1.734
30440W        W  321  31.981  36.006  14.393
30441W        W  322  13.709  10.352   0.732
30442W        W  323   0.465  20.080  14.978
30443W        W  324  36.536   3.364  11.121
30444W        W  325  43.875  29.014  13.020
30445W        W  326  22.648  33.436  14.951
30446W        W  327   6.274   3.317  12.006
30447W        W  328   1.977   3.380   1.359
30448W        W  329  34.592  40.539  12.920
30449W        W  330   2.910  28.455  11.029
30450W        W  331  36.433  19.660   1.440
30451W        W  332   2.226  13.263  11.528
30452W        W  333  11.282  35.384   4.284
30453W        W  334  12.243  38.509  12.938
30454W        W  335   5.273  21.515  12.853
30455W        W  336  42.932  28.020  13.434
30456W        W  337   9.294  16.577  13.990
30457W        W  338  22.646  33.888  13.868
30458W        W  339  20.260  11.156  13.970
30459W        W  340  34.042  18.777   3.170
30460W        W  341  20.691  19.114  13.931
30461W        W  342  38.467  44.503  13.020
30462W        W  343  40.345  20.054   0.928
30463W        W  344  32.898  30.910   2.871
30464W        W  345  31.505  34.481   4.328
30465W        W  346  16.174  23.071   4.628
30466W        W  347  21.543   4.216   0.732
30467W        W  348  14.756   2.278   1.861
30468W        W  349   6.186   1.818   0.417
30469W        W  350  35.973  33.582  11.442
30470W        W  351   1.479  10.779   4.121
30471W        W  352  20.535  39.490   2.218
30472W        W  353  43.878  10.641  13.386
30473W        W  354   2.935  20.741   3.855
30474W        W  355  30.946  29.131  11.439
30475W        W  356  42.342   5.712  12.036
30476W        W  357  23.697  36.525   2.357
30477W        W  358  14.243  41.431   1.770
30478W        W  359   4.228   6.761   1.895
30479W        W  360  38.531  36.586   1.348
30480W        W  361  12.706  30.578  11.412
30481W        W  362  28.013  30.478   0.423
30482W        W  363  21.617  33.458  14.879
30483W        W  364  15.652  11.652   0.908
30484W        W  365  25.199  33.910   0.771
30485W        W  366  31.936  31.578   3.386
30486W        W  367   4.247   8.684   1.437
30487W        W  368  23.030   9.314   3.723
30488W        W  369  34.091  13.681   1.911
30489W        W  370  24.197  39.870  11.388
30490W        W  371  35.497  42.325   3.754
30491W        W  372  29.007  29.116   2.684
30492W        W  373  35.563  23.026  14.278
30493W        W  374  38.432  43.313  12.882
30494W        W  375  38.525  20.216  14.372
30495W        W  376  24.151  17.709  12.999
30496W        W  377  31.453  42.907  12.370
30497W        W  378  26.521   7.714  10.924
30498W        W  379  13.812   5.369   2.272
30499W        W  380  31.638   6.870   1.360
30500W        W  381  34.915  30.946  11.911
30501W        W  382  26.549   9.874   3.832
30502W        W  383  41.351  34.978  12.917
30503W        W  384  41.912  25.004   3.247
30504W        W  385   6.832   5.397  10.536
30505W        W  386  12.210  29.130  14.321
30506W        W  387  14.764  29.987  10.635
30507W        W  388  22.575  16.162  14.992
30508W        W  389  14.293   0.343   0.423
30509W        W  390  12.141  33.075   4.154
30510W        W  391  32.595  20.169   2.725
30511W        W  392   8.759  12.683   1.870
30512W        W  393  41.967  38.923   0.859
30513W        W  394  21.647  17.126   2.411
30514W        W  395  15.689   8.317  14.930
30515W        W  396   3.362  34.547  13.334
30516W        W  397  19.750  13.684  14.969
30517W        W  398   4.313  14.699   3.207
30518W        W  399   1.861  11.650  13.060
30519W        W  400  10.753  10.216   4.605
30520W        W  401  31.015  14.250  11.947
30521W        W  402   0.810  32.586  13.989
30522W        W  403   5.766   9.376   3.837
30523W        W  404   1.859   3.246   2.733
30524W        W  405   9.284  14.186  12.395
30525W        W  406   7.290   9.216  10.583
30526W        W  407  31.428   6.850  11.885
30527W        W  408  31.973  40.321   4.835
30528W        W  409  33.050  12.848   1.394
30529W        W  410  28.610  11.142  12.029
30530W        W  411  14.127  25.529   3.798
30531W        W  412  38.541  22.604   4.232
30532W        W  413  21.604  27.542   4.215
30533W        W  414  41.043  31.521  13.016
30534W        W  415  18.787  19.613  10.018
30535W        W  416  28.588  14.328  11.551
30536W        W  417  20.047  34.402   1.766
30537W        W  418  38.521  16.105  11.436
30538W        W  419  15.639  39.932  13.953
30539W        W  420   8.196  23.232   1.411
30540W        W  421   7.294  25.215  11.872
30541W        W  422   8.258  15.754   0.321
30542W        W  423  36.489  29.971  12.540
30543W        W  424  37.071  31.425  14.449
30544W        W  425  30.466  23.012   2.272
30545W        W  426  22.156  12.658   1.889
30546W        W  427   0.926  38.504   0.945
30547W        W  428  25.516  43.311  12.956
30548W        W  429  25.142  39.006   4.261
30549W        W  430  34.534  28.951  11.072
30550W        W  431  24.996  17.293   0.919
30551W        W  432   7.330  41.858  12.545
30552W        W  433  38.966   6.853   1.723
30553W        W  434  40.868  11.861  14.892
30554W        W  435  29.489  12.158   4.323
30555W        W  436   0.484  17.243   3.665
30556W        W  437   0.287  24.661  13.898
30557W        W  438   9.805  44.396   2.202
30558W        W  439  21.689   3.356   1.808
30559W        W  440  44.438   4.883   1.930
30560W        W  441  35.439  42.450  14.000
30561W        W  442  19.274  12.672   3.700
30562W        W  443   9.708  40.323  10.548
30563W        W  444  19.608  28.531  10.013
30564W        W  445  40.926  29.081  14.825
30565W        W  446   0.313   9.705  10.563
30566W        W  447  17.189  15.173  11.913
30567W        W  448  34.529  43.958   2.796
30568W        W  449  44.463  34.112  11.502
30569W        W  450  11.141  32.000   0.923
30570W        W  451  36.543  21.739   2.780
30571W        W  452  18.578  11.236   3.174
30572W        W  453  12.206  21.224   1.339
30573W        W  454  43.999  16.692  12.055
30574W        W  455  22.086  19.144   1.418
30575W        W  456   7.357  43.316  11.958
30576W        W  457  40.008  22.097   3.360
30577W        W  458   7.302  28.498   0.253
30578W        W  459   7.739  11.834  10.103
30579W        W  460  15.190  11.769   4.598
30580W        W  461  13.776   7.384   0.277
30581W        W  462  42.848   2.803  11.129
30582W        W  463  43.980   2.453  14.395
30583W        W  464  43.793  33.381   4.606
30584W        W  465  13.801   1.403   2.336
30585W        W  466  44.833  43.367   4.178
30586W        W  467  27.469   0.404   3.370
30587W        W  468  27.025  12.715  12.411
30588W        W  469  25.184  22.634   3.336
30589W        W  470  11.665  43.973   1.331
30590W        W  471  11.284  22.184  13.985
30591W        W  472  10.810  16.216  11.078
30592W        W  473  31.956  31.970  10.460
30593W        W  474   6.383   1.318  14.400
30594W        W  475  14.738   3.776   2.853
30595W        W  476  39.900   2.775  12.847
30596W        W  477   0.900  21.050   3.713
30597W        W  478  14.765   4.310  11.420
30598W        W  479   4.403  44.270  14.913
30599W        W  480   8.256  44.494   1.254
30600W        W  481  44.333  16.292  14.861
30601W        W  482  16.744  17.284   1.821
30602W        W  483  41.990   1.481  10.571
30603W        W  484  44.455  33.977  14.910
30604W        W  485  44.995  10.766   3.750
30605W        W  486  21.066  26.985  10.481
30606W        W  487  30.094   6.862  11.464
30607W        W  488   5.266  17.752   2.212
30608W        W  489  36.885   0.324   4.228
30609W        W  490  19.621  19.570  13.832
30610W        W  491   8.162  12.130  13.933
30611W        W  492   0.872   7.710   2.792
30612W        W  493  37.831   0.249   3.330
30613W        W  494   7.359   8.336   0.897
30614W        W  495   3.956  10.304   3.347
30615W        W  496  10.175  13.243   1.321
30616W        W  497  40.427  31.550   1.441
30617W        W  498  30.502  30.118   4.154
30618W        W  499  24.691  37.001   3.271
30619W        W  500  36.857  14.137  13.056
30620W        W  501   4.711  28.671   2.348
30621W        W  502   1.381  38.455  11.575
30622W        W  503  40.826  43.466  13.813
30623W        W  504  22.099  34.111   0.733
30624W        W  505  10.180  41.469   4.658
30625W        W  506   7.766  32.517  14.882
30626W        W  507   0.938  11.332  14.019
30627W        W  508  21.198  24.151  12.967
30628W        W  509   3.414  22.238  13.012
30629W        W  510   9.779   7.804  14.399
30630W        W  511  43.914  22.524  10.995
30631W        W  512  34.992  31.113  13.902
30632W        W  513  34.904  21.753   3.867
30633W        W  514  36.995  24.661  13.996
30634W        W  515  25.547  43.766  12.569
30635W        W  516  41.812  37.077  12.891
30636W        W  517  13.765  26.643   1.867
30637W        W  518   3.292   9.686  13.841
30638W        W  519  33.595  42.777   1.724
30639W        W  520  25.100  26.494   3.256
30640W        W  521  30.019  17.701   1.782
30641W        W  522  16.641   4.447   3.216
30642W        W  523  42.904  26.532  11.018
30643W        W  524  20.528   3.220  11.490
30644W        W  525   7.784  39.965   4.750
30645W        W  526  31.994   9.816   0.425
30646W        W  527  18.272   2.359   4.282
30647W        W  528  41.534  44.268   1.739
30648W        W  529   7.906  18.748  10.472
30649W        W  530  35.590  39.328  11.103
30650W        W  531  23.491  36.497   0.420
30651W        W  532   7.262  39.455   0.479
30652W        W  533  13.608  34.004   3.376
30653W        W  534  36.359  14.125   2.346
30654W        W  535  31.505  18.730  12.968
30655W        W  536   4.839  24.720   4.307
30656W        W  537  39.964  13.649  14.454
30657W        W  538  42.024  12.771  12.065
30658W        W  539  42.521  28.060  12.898
30659W        W  540  18.691  16.735   0.828
30660W        W  541  30.512   2.235  14.772
30661W        W  542  14.205  38.974  13.429
30662W        W  543  26.682  44.338   2.395
30663W        W  544  30.583  36.934  10.581
30664W        W  545  32.456  32.885   4.813
30665W        W  546   5.911  23.585  10.612
30666W        W  547   9.644  37.569   0.390
30667W        W  548   6.390  17.173  12.021
30668W        W  549   1.255  41.818   2.747
30669W        W  550   5.864  37.053   2.756
30670W        W  551  13.193   8.246   0.452
30671W        W  552  16.078   5.840   1.855
30672W        W  553  44.780  24.223   3.244
30673W        W  554  13.734  19.762   1.811
30674W        W  555  26.627  29.158   2.815
30675W        W  556   1.459  31.967  10.586
30676W        W  557   4.807  40.033  11.885
30677W        W  558  42.350  24.082  13.983
30678W        W  559  36.406   5.434   0.889
30679W        W  560  19.079   7.676   1.917
30680W        W  561  20.188  29.130   4.644
30681W        W  562  13.237  20.054   4.204
30682W        W  563  43.465   3.318  10.513
30683W        W  564  36.501  41.987  14.457
30684W        W  565  23.115  30.446  10.918
30685W        W  566  36.007  24.103  14.956
30686W        W  567  29.533   9.728   2.779
30687W        W  568  44.852  13.692   0.451
30688W        W  569  34.423  44.818   1.387
30689W        W  570  30.598  20.227   2.392
30690W        W  571  35.513  22.533  12.516
30691W        W  572  15.664  13.109  12.423
30692W        W  573  18.183   7.369  11.442
30693W        W  574  15.322   5.352  13.993
30694W        W  575  42.982  26.471   3.715
30695W        W  576   9.315  19.062  14.029
30696W        W  577  39.512  23.066   0.968
30697W        W  578  36.971  29.134   1.708
30698W        W  579  30.458  26.556   4.702
30699W        W  580  36.019  25.574   0.464
30700W        W  581   9.714  34.534  11.868
30701W        W  582  25.044  41.012  12.526
30702W        W  583   9.781  11.169  12.378
30703W        W  584  21.122  21.073  12.487
30704W        W  585  28.110   4.858   1.324
30705W        W  586   0.331  17.691  11.916
30706W        W  587  41.471   1.319  10.433
30707W        W  588  18.592   7.667   2.348
30708W        W  589  16.707   3.275  13.513
30709W        W  590   7.236  37.534   1.755
30710W        W  591  12.351  19.669   2.378
30711W        W  592  41.833  30.157   2.328
30712W        W  593  42.838   9.154  14.903
30713W        W  594   4.891   4.205  12.850
30714W        W  595  16.280   4.863   1.830
30715W        W  596   3.223  15.743  12.407
30716W        W  597  33.019  23.048   4.790
30717W        W  598  23.012  15.103   0.761
30718W        W  599  19.114  21.086   9.927
30719W        W  600   3.438   7.365  10.974
30720W        W  601  42.382  25.084  12.371
30721W        W  602  25.568  24.054   3.768
30722W        W  603   3.341  13.761   3.307
30723W        W  604  17.075   2.891   3.202
30724W        W  605  29.918   7.322  13.044
30725W        W  606  43.506  44.463  10.088
30726W        W  607   9.675  39.860   0.754
30727W        W  608  24.589  24.144  13.965
30728W        W  609   9.188  13.277   1.415
30729W        W  610   1.761   7.832   4.246
30730W        W  611  31.617   8.373   1.286
30731W        W  612  18.138  40.991  12.451
30732W        W  613   5.749   0.895   0.918
30733W        W  614  43.434  13.727   0.968
30734W        W  615  33.116  23.005   1.724
30735W        W  616   6.221  13.191   2.861
30736W        W  617  34.093  32.534  12.431
30737W        W  618  44.863   0.845   2.771
30738W        W  619  12.289  27.137  11.904
30739W        W  620   0.272  31.054  14.999
30740W        W  621   0.480   9.181   4.174
30741W        W  622  11.816   3.279  14.354
30742W        W  623   8.666  27.453  10.469
30743W        W  624  22.728  43.449   4.248
30744W        W  625  13.343  40.982   2.762
30745W        W  626  25.064  31.455  10.406
30746W        W  627  40.882  40.437   0.341
30747W        W  628  25.607  35.941  12.524
30748W        W  629  32.899  20.207   4.632
30749W        W  630  24.117  40.860   4.132
30750W        W  631  39.875  33.922   4.809
30751W        W  632   6.199  17.193  14.413
30752W        W  633   8.365  10.339  14.017
30753W        W  634  33.008  10.768   1.855
30754W        W  635  14.096  11.312   2.789
30755W        W  636  24.627  31.431  10.523
30756W        W  637  29.533   5.768   0.742
30757W        W  638  17.581  36.092  11.997
30758W        W  639  14.166  20.552  11.374
30759W        W  640   1.822  18.261  12.899
30760W        W  641  35.038   7.303   0.769
30761W        W  642  34.956  39.930  13.332
30762W        W  643  27.995  32.616  10.976
30763W        W  644  18.127   9.330   1.430
30764W        W  645   9.330  17.780   3.359
30765W        W  646  37.412  34.930   5.267
30766W        W  647  25.524   5.829  10.637
30767W        W  648  23.147  40.953  11.960
30768W        W  649   4.330  33.110   3.371
30769W        W  650  31.066  36.380   1.842
30770W        W  651  40.006   8.802  14.308
30771W        W  652   1.831  32.506   1.242
30772W        W  653  19.266  44.948   3.368
30773W        W  654   0.752  35.056   4.301
30774W        W  655   7.342  33.973  10.456
30775W        W  656  26.629  26.101   9.958
30776W        W  657  33.044  19.102   4.735
30777W        W  658   9.842  29.934   2.833
30778W        W  659  32.895  42.854  12.925
30779W        W  660  10.781  10.288  14.943
30780W        W  661  26.958  18.228   0.440
30781W        W  662  35.509  35.858   2.361
30782W        W  663  35.462  19.167  13.832
30783W        W  664  12.740   6.287   2.715
30784W        W  665   5.329   4.378   3.357
30785W        W  666   0.871  21.102   2.325
30786W        W  667  27.056  23.703   3.750
30787W        W  668  27.566   3.441  12.859
30788W        W  669  13.777  37.067   1.370
30789W        W  670  27.619  43.844  14.488
30790W        W  671  22.652  20.161  12.458
30791W        W  672  34.439   8.210   4.139
30792W        W  673  39.340  30.982  14.806
30793W        W  674  16.257  36.872  12.410
30794W        W  675   9.293  22.568  11.092
30795W        W  676  37.851  30.434  14.954
30796W        W  677  42.424  29.498   4.727
30797W        W  678  12.293  25.135  11.498
30798W        W  679  41.520   8.343   4.728
30799W        W  680  29.539  26.207  13.476
30800W        W  681   6.740  25.616  10.921
30801W        W  682  34.864  25.523   4.787
30802W        W  683  27.488  25.624   4.688
30803W        W  684  16.567  42.027   1.816
30804W        W  685  27.143  37.054  10.922
30805W        W  686  28.072   5.209   0.333
30806W        W  687  14.631  34.897  13.841
30807W        W  688   4.807  10.148   0.483
30808W        W  689  23.102  39.827  11.014
30809W        W  690  26.053   2.325   2.354
30810W        W  691  11.210  43.897  11.861
30811W        W  692  24.982  26.136  13.877
30812W        W  693   1.953  40.926   1.390
30813W        W  694   0.439  19.214  11.512
30814W        W  695  31.467  43.280  10.599
30815W        W  696  23.067  21.611   2.310
30816W        W  697  31.095  36.989   1.768
30817W        W  698  29.172  40.462   3.805
30818W        W  699  10.684  23.113   0.855
30819W        W  700  25.529  14.102  12.541
30820W        W  701  32.612  36.964  12.454
30821W        W  702  38.852   1.789  12.913
30822W        W  703   4.417  35.526  11.953
30823W        W  704   7.870  28.998  11.127
30824W        W  705  43.775  35.052   0.341
30825W        W  706  31.646   2.889  12.535
30826W        W  707  23.711  36.971  11.021
30827W        W  708  33.982  43.889   3.338
30828W        W  709   6.690  14.607   3.148
30829W        W  710   4.771  25.081   1.866
30830W        W  711  17.602  40.851   3.776
30831W        W  712  12.760  37.560  11.512
30832W        W  713  25.049  10.186   0.803
30833W        W  714  37.960   2.415   0.443
30834W        W  715  25.048  21.243   1.775
30835W        W  716  42.881   7.699  13.347
30836W        W  717   4.777   9.224  10.579
30837W        W  718  27.640  28.068  14.274
30838W        W  719   7.900  32.118  14.290
30839W        W  720  18.100  11.173  13.423
30840W        W  721  41.339  39.983  11.567
30841W        W  722  11.645  20.139  10.588
30842W        W  723  12.183   9.743   2.880
30843W        W  724  38.382  12.176   0.819
30844W        W  725   1.811  11.629   3.158
30845W        W  726  32.495   7.362  10.086
30846W        W  727  39.816  39.883   1.346
30847W        W  728   1.849  14.763  14.448
30848W        W  729  13.605  22.078  14.876
30849W        W  730  19.680  16.651   1.265
30850W        W  731   6.242   1.850   0.849
30851W        W  732  26.046  20.725   3.158
30852W        W  733  32.507  22.609   1.831
30853W        W  734  26.029   7.694   0.807
30854W        W  735  23.537  14.817  13.002
30855W        W  736  10.139  38.972  13.834
30856W        W  737  10.376  44.980  12.887
30857W        W  738  35.397  17.064  13.448
30858W        W  739  27.588  24.012  12.421
30859W        W  740   9.802  27.968   4.215
30860W        W  741  32.073  11.636   3.845
30861W        W  742  41.389   2.255  12.894
30862W        W  743   9.240  37.524  11.085
30863W        W  744  30.497  32.012  13.415
30864W        W  745  25.510  14.295   2.190
30865W        W  746  34.595  25.662  10.953
30866W        W  747  37.021  20.055  14.413
30867W        W  748  14.703   3.235  11.073
30868W        W  749  22.151  30.416  14.943
30869W        W  750  30.620  44.828  13.003
30870W        W  751  23.537   7.805   1.249
30871W        W  752  44.771  23.528   1.721
30872W        W  753   3.441  31.091  12.536
30873W        W  754  44.821  36.870  14.952
30874W        W  755  42.830  15.119  12.865
30875W        W  756  33.394  42.868   4.629
30876W        W  757  40.316  10.685   2.841
30877W        W  758  44.502  41.841  13.424
30878W        W  759  41.510   6.234  11.524
30879W        W  760  37.917  24.199  11.544
30880W        W  761  27.636  21.166   2.708
30881W        W  762  10.859  28.977  11.609
30882W        W  763  16.597  36.366  13.527
30883W        W  764  41.457  17.571   4.149
30884W        W  765  23.164  18.258   2.714
30885W        W  766  20.072  12.731   0.833
30886W        W  767  39.453   1.878   0.255
30887W        W  768  30.575  30.425   3.747
30888W        W  769  32.123  30.965  10.488
30889W        W  770   9.291  10.378  14.768
30890W        W  771  42.304  16.193  12.551
30891W        W  772  27.948  17.161   4.297
30892W        W  773  17.272  20.210   4.790
30893W        W  774  41.907  12.303   2.805
30894W        W  775  40.308   6.858  10.618
30895W        W  776  20.621  32.889  13.927
30896W        W  777  25.063  36.462  10.604
30897W        W  778  14.334   3.334   3.700
30898W        W  779  39.476  34.886  11.568
30899W        W  780  24.098  44.479   4.766
30900W        W  781  18.699  26.506   2.243
30901W        W  782   2.295  28.515  10.993
30902W        W  783   2.855  32.009   5.311
30903W        W  784  41.512  35.570  14.924
30904W        W  785  30.933  14.710   1.344
30905W        W  786   3.818  38.839   1.387
30906W        W  787  16.164   4.938  11.520
30907W        W  788  20.072  21.077   1.329
30908W        W  789  40.495   7.383   3.796
30909W        W  790   5.365   3.251   1.416
30910W        W  791  14.208  20.611   1.214
30911W        W  792  28.530  17.159   4.669
30912W        W  793   8.212   9.170   4.243
30913W        W  794  23.002  22.722  10.085
30914W        W  795  23.601  25.600   1.755
30915W        W  796  31.101  41.923  14.432
30916W        W  797  15.144  24.080   3.165
30917W        W  798  42.019  15.328   4.713
30918W        W  799  37.552   7.908   2.883
30919W        W  800   0.851  35.515  13.345
30920W        W  801  23.630  34.876   0.806
30921W        W  802  21.184  38.926  13.003
30922W        W  803  41.944  33.012   0.345
30923W        W  804  39.406   1.287  13.354
30924W        W  805  35.945  36.035   3.291
30925W        W  806   0.288  20.123  13.436
30926W        W  807   1.416  26.035  11.094
30927W        W  808  29.451  44.358  13.981
30928W        W  809  10.650  40.926   0.752
30929W        W  810   8.191  11.815   3.690
30930W        W  811  38.998  17.242   4.123
30931W        W  812  23.065  27.941   3.263
30932W        W  813  43.465  22.082  11.581
30933W        W  814  37.074  35.421   0.728
30934W        W  815  17.294   5.708  13.895
30935W        W  816  11.277  24.616  12.970
30936W        W  817   6.833  20.138   3.726
30937W        W  818  36.923  10.768  11.973
30938W        W  819  29.431  39.013  14.842
30939W        W  820  15.783  12.230   0.266
30940W        W  821  16.586  13.686  13.850
30941W        W  822  13.695  27.630   3.724
30942W        W  823  10.755  27.470  12.575
30943W        W  824   1.972  11.344  11.375
30944W        W  825   5.242  15.627  11.406
30945W        W  826   6.234  42.381   1.779
30946W        W  827  18.073  25.482   3.300
30947W        W  828  11.725  22.042  10.985
30948W        W  829  13.351   4.732  10.080
30949W        W  830  11.707  23.569   2.853
30950W        W  831  31.515  33.007   1.929
30951W        W  832  43.368  17.114  13.460
30952W        W  833  26.113  27.041  10.545
30953W        W  834   3.903  42.321   2.749
30954W        W  835  43.808  31.417  14.425
30955W        W  836  17.660  43.833   1.731
30956W        W  837  23.499  34.978  13.331
30957W        W  838  17.082  21.721   3.827
30958W        W  839  17.726  15.615   0.860
30959W        W  840  12.765   2.250   1.403
30960W        W  841  16.607  19.040   3.678
30961W        W  842   3.333  37.367   3.858
30962W        W  843   0.792  37.541   3.797
30963W        W  844  42.966  43.836   3.255
30964W        W  845  37.019  20.203   1.750
30965W        W  846   7.863  27.042   0.913
30966W        W  847  12.856  23.167   4.219
30967W        W  848  11.648   4.756  12.497
30968W        W  849   8.706  38.405   2.211
30969W        W  850  26.076  22.692   1.843
30970W        W  851   0.908  33.623  13.506
30971W        W  852  11.294  35.958   0.730
30972W        W  853  27.972   3.828  14.436
30973W        W  854  24.529  28.122  14.787
30974W        W  855   3.844   2.760   4.805
30975W        W  856   4.753   4.219  12.032
30976W        W  857  17.260  11.169  12.828
30977W        W  858  21.683  25.471   4.773
30978W        W  859   1.251  42.296  12.888
30979W        W  860  21.043  17.765   4.155
30980W        W  861  22.639  28.454   1.233
30981W        W  862  10.366  17.707  14.807
30982W        W  863   8.730   9.267  13.344
30983W        W  864  27.502   2.845  11.021
30984W        W  865   7.296  21.164  11.899
30985W        W  866  42.801  38.375  11.510
30986W        W  867   8.676  12.801  11.451
30987W        W  868  34.375  18.254  13.444
30988W        W  869  12.721  33.394  10.560
30989W        W  870   4.418  27.056   2.844
30990W        W  871  40.824  17.199  14.895
30991W        W  872   4.284  38.825   3.752
30992W        W  873  13.320  29.014  11.971
30993W        W  874   6.825  13.769  12.859
30994W        W  875  38.859   6.915   3.190
30995W        W  876   7.738  16.575   0.474
30996W        W  877  29.001  15.705   0.459
30997W        W  878   0.772   9.391  11.000
30998W        W  879   6.676  13.691   1.218
30999W        W  880  31.632  27.009   0.383
31000W        W  881  41.925  26.171  12.578
31001W        W  882   3.357  40.849  13.881
31002W        W  883  10.221  16.090   5.730
31003W        W  884  41.041  25.167   0.960
31004W        W  885   4.306  40.974  10.907
31005W        W  886  25.020  22.627  12.035
31006W        W  887  12.708   0.982  13.433
31007W        W  888  14.293  12.682   4.317
31008W        W  889  24.001  15.578  11.397
31009W        W  890  21.597  32.448  14.915
31010W        W  891  38.524  37.382   1.791
31011W        W  892  32.594  38.508   4.712
31012W        W  893  15.209  41.821  12.058
31013W        W  894  13.201  13.184   0.735
31014W        W  895  28.452  38.951  12.002
31015W        W  896  40.845   0.491  13.336
31016W        W  897  25.608   2.461  12.957
31017W        W  898  28.027  12.844  11.906
31018W        W  899   4.804   4.804   0.377
31019W        W  900   2.343  30.537   2.792
31020W        W  901  44.825  32.408   4.267
31021W        W  902  11.809  24.143   2.273
31022W        W  903  19.717  39.046  14.325
31023W        W  904  21.535  43.343  14.893
31024W        W  905  11.182  33.552   4.837
31025W        W  906  38.931  30.476   0.411
31026W        W  907  10.796   0.377  10.940
31027W        W  908   4.892   9.278  11.936
31028W        W  909  30.024  36.372   0.375
31029W        W  910   7.668  30.090  11.063
31030W        W  911   5.895  20.125   4.304
31031W        W  912   2.291  20.240   1.359
31032W        W  913  13.711   7.753   2.290
31033W        W  914  25.016  21.617  11.431
31034W        W  915  30.619  13.720   2.185
31035W        W  916  37.336  43.487   0.385
31036W        W  917  40.835  34.572  14.859
31037W        W  918   6.707  44.452  11.515
31038W        W  919   3.835   1.302   3.761
31039W        W  920  37.001  23.155  14.318
31040W        W  921  14.803  18.666   1.382
31041W        W  922  20.199  33.053   1.875
31042W        W  923  10.659   0.408  12.527
31043W        W  924  26.958  27.065  12.064
31044W        W  925  21.043  24.073   3.669
31045W        W  926  28.021  34.983  14.312
31046W        W  927   1.297  36.486   2.273
31047W        W  928  27.525  34.457  14.361
31048W        W  929   0.754  30.162   1.910
31049W        W  930  10.196   0.790   9.966
31050W        W  931  39.929  10.249   2.381
31051W        W  932  36.852   8.713   4.802
31052W        W  933  42.489  24.228  11.460
31053W        W  934  14.795  41.479   1.222
31054W        W  935  35.476   5.814  13.499
31055W        W  936  23.028  17.577  10.020
31056W        W  937  11.852  20.597   4.310
31057W        W  938  23.229  35.904  12.520
31058W        W  939  43.293  43.955  13.336
31059W        W  940  17.778  27.571   0.909
31060W        W  941   8.235  22.071  11.122
31061W        W  942   9.263  44.924   0.291
31062W        W  943  18.269  26.195  14.411
31063W        W  944   7.680   0.256  14.310
31064W        W  945  32.440  19.633   3.152
31065W        W  946   1.860   2.826  10.888
31066W        W  947  14.706  14.687  10.572
31067W        W  948  28.463  40.477   0.244
31068W        W  949  17.672  11.341  11.858
31069W        W  950   6.769  22.093   2.401
31070W        W  951   2.268  41.363  12.432
31071W        W  952   3.909   4.442   1.808
31072W        W  953   5.198  29.506  13.000
31073W        W  954   1.481  41.385  12.926
31074W        W  955  36.960  19.713  11.377
31075W        W  956   6.839   4.350  10.421
31076W        W  957  30.065  23.667  14.840
31077W        W  958  16.181  26.495  11.030
31078W        W  959  41.341  34.515  14.938
31079W        W  960   5.862   1.397  12.449
31080W        W  961  40.318  12.671  10.618
31081W        W  962  24.083  31.556  11.900
31082W        W  963  19.251   1.314  14.917
31083W        W  964   1.833  20.208   1.825
31084W        W  965  39.856  28.171   1.757
31085W        W  966  12.340  29.556  14.877
31086W        W  967  32.468  37.925   4.288
31087W        W  968  29.620  18.121   1.754
31088W        W  969  11.727  30.118   1.834
31089W        W  970   7.325   8.746   4.685
31090W        W  971  28.961  43.018   1.221
31091W        W  972  29.953   2.925  12.921
31092W        W  973   0.299  29.972  11.128
31093W        W  974  28.453  26.669  11.392
31094W        W  975  21.020   7.259  13.816
31095W        W  976  21.575  43.865   4.827
31096W        W  977  43.852  17.716   0.337
31097W        W  978  36.066  40.489   5.290
31098W        W  979   3.309  21.173  10.509
31099W        W  980  29.063   7.210   1.348
31100W        W  981  26.188  42.796  12.995
31101W        W  982  34.547  11.191   4.270
31102W        W  983   4.218   8.776   0.250
31103W        W  984  16.219  19.673   4.303
31104W        W  985  17.183  40.423   1.266
31105W        W  986  17.123  11.813  13.491
31106W        W  987  28.585  15.617  11.540
31107W        W  988  44.386  18.294   1.361
31108W        W  989  12.308  11.323  11.371
31109W        W  990   2.827  15.306   1.728
31110W        W  991  25.049  17.749   4.791
31111W        W  992  22.698  29.076   0.271
31112W        W  993  17.301  29.636   0.965
31113W        W  994  11.652  43.356   3.706
31114W        W  995   3.384   4.746  14.873
31115W        W  996  14.267  25.565  14.956
31116W        W  997   9.808   9.224  11.422
31117W        W  998   0.826  35.516  12.087
31118W        W  999  12.810  24.162  10.426
31119W        W 1000  41.864  41.830   1.369
31120W        W 1001  21.081  15.098  13.939
31121W        W 1002  23.014  28.108   2.202
31122W        W 1003  21.072  25.179  13.536
31123W        W 1004  30.106  18.168  11.934
31124W        W 1005   8.833  26.010   2.830
31125W        W 1006  28.514   7.284   2.699
31126W        W 1007  44.401  11.356   4.296
31127W        W 1008  23.241  27.124   3.674
31128W        W 1009  17.062  13.658  12.545
31129W        W 1010  36.001  24.724   4.759
31130W        W 1011  34.892  33.954  13.419
31131W        W 1012   3.330  31.425  11.116
31132W        W 1013   6.268  42.517  13.942
31133W        W 1014   0.355  17.761  13.345
31134W        W 1015  11.334  18.549   5.674
31135W        W 1016  37.510  42.820  10.510
31136W        W 1017  28.502  41.943  13.927
31137W        W 1018  36.015  14.205  13.819
31138W        W 1019  34.374  38.904  12.502
31139W        W 1020  43.510  28.101  10.456
31140W        W 1021  28.673  31.492   4.184
31141W        W 1022  10.273  13.835   1.433
31142W        W 1023  29.573   0.762   3.870
31143W        W 1024  43.406  41.788   0.837
31144W        W 1025  17.223  42.849   2.764
31145W        W 1026  44.789  26.657   0.939
31146W        W 1027   5.278  40.417  14.293
31147W        W 1028  34.410  25.185   0.264
31148W        W 1029  29.100  14.298  12.408
31149W        W 1030  12.255  15.270  13.910
31150W        W 1031  17.712  31.450   3.710
31151W        W 1032   5.845  25.110   0.950
31152W        W 1033  21.650  41.869   4.669
31153W        W 1034   2.351  37.459  12.864
31154W        W 1035  27.157  29.627   1.933
31155W        W 1036  23.232   4.877   0.303
31156W        W 1037  32.131  16.170   3.341
31157W        W 1038   3.946   2.241  13.349
31158W        W 1039  15.223  15.718  13.960
31159W        W 1040  15.239  17.092   4.177
31160W        W 1041   5.248   1.912   0.863
31161W        W 1042  23.119  42.508  13.839
31162W        W 1043  34.371  23.609   0.806
31163W        W 1044  18.242  33.411   3.216
31164W        W 1045  32.439  40.492   0.806
31165W        W 1046  21.029  34.070  12.411
31166W        W 1047  17.602  40.361  12.040
31167W        W 1048  27.460  36.918  10.985
31168W        W 1049  40.872  19.185   4.764
31169W        W 1050  32.106  18.545  12.376
31170W        W 1051   7.203  34.978  11.520
31171W        W 1052   4.765  25.020  12.412
31172W        W 1053  15.305  39.472   3.203
31173W        W 1054  40.307   2.457   4.221
31174W        W 1055  33.959  42.792   0.737
31175W        W 1056  13.339   9.687  11.935
31176W        W 1057  34.593   1.342   2.770
31177W        W 1058  41.960  26.491   2.812
31178W        W 1059   0.448  33.876   0.961
31179W        W 1060   7.737  24.659   0.427
31180W        W 1061  41.040  27.457   0.382
31181W        W 1062  35.366  19.248  14.910
31182W        W 1063   3.334  16.749   2.730
31183W        W 1064  29.144  21.751  11.551
31184W        W 1065   8.248  10.678  12.864
31185W        W 1066   0.829  14.770   3.677
31186W        W 1067  31.623  14.099  11.893
31187W        W 1068  34.950   9.364   0.747
31188W        W 1069  39.864  34.071  13.454
31189W        W 1070  11.772   5.808   0.742
31190W        W 1071  43.948  24.095  13.056
31191W        W 1072  28.986  22.601   4.320
31192W        W 1073   5.836  11.355   1.398
31193W        W 1074  39.531  30.956  13.945
31194W        W 1075  27.516   3.906  11.608
31195W        W 1076  25.022  23.186   2.890
31196W        W 1077  39.031  30.527  12.367
31197W        W 1078  30.649  28.170  11.433
31198W        W 1079   9.169  26.194  13.997
31199W        W 1080  37.393  14.614   4.133
31200W        W 1081  30.046  37.935   0.371
31201W        W 1082   9.767  30.622   4.161
31202W        W 1083  39.385  35.864  12.948
31203W        W 1084  12.829   2.959  12.011
31204W        W 1085  38.384  12.625  13.521
31205W        W 1086   0.859  29.490   3.146
31206W        W 1087   3.402  11.640   2.284
31207W        W 1088  36.546  19.563  13.956
31208W        W 1089   5.426  26.955  13.393
31209W        W 1090   6.378   9.276   2.406
31210W        W 1091   0.981  20.266  12.839
31211W        W 1092  20.701  31.499   0.732
31212W        W 1093   9.276  26.041  13.466
31213W        W 1094  15.627  38.509  11.442
31214W        W 1095  14.653   9.318   0.470
31215W        W 1096   4.840  22.230  11.888
31216W        W 1097  17.178  17.688   1.826
31217W        W 1098  21.097  39.852  10.934
31218W        W 1099  30.513  31.971   2.780
31219W        W 1100  32.574  39.438   4.825
31220W        W 1101  33.019  27.061   1.236
31221W        W 1102   9.198  23.722  10.017
31222W        W 1103   3.411  31.913   3.204
31223W        W 1104  15.213   8.228  12.079
31224W        W 1105  17.658  36.577  14.338
31225W        W 1106  44.771  13.685  12.403
31226W        W 1107  24.647  26.586  12.011
31227W        W 1108   3.745  34.077  10.557
31228W        W 1109  30.158  37.909   3.654
31229W        W 1110  22.209   0.959  10.635
31230W        W 1111  24.549  20.669  12.912
31231W        W 1112  29.014  41.534  14.816
31232W        W 1113  24.502  18.633  10.094
31233W        W 1114  23.668  39.043   2.268
31234W        W 1115  11.836  33.463  14.995
31235W        W 1116  16.761  44.930  11.892
31236W        W 1117  35.569   7.854   0.908
31237W        W 1118  33.381   2.240  10.579
31238W        W 1119  18.229  23.652  10.452
31239W        W 1120  12.763  17.067  10.935
31240W        W 1121  24.704  42.318   0.825
31241W        W 1122  20.067  39.955   0.854
31242W        W 1123   4.426  11.266  12.904
31243W        W 1124  33.908  29.000   0.418
31244W        W 1125  22.012  29.960  10.519
31245W        W 1126   6.901   9.395  13.816
31246W        W 1127  24.657   2.271   4.606
31247W        W 1128  32.925   2.442  11.498
31248W        W 1129  16.319  43.387   1.387
31249W        W 1130  39.993  28.627   3.328
31250W        W 1131  32.021   3.265   2.341
31251W        W 1132  13.253  24.579  12.428
31252W        W 1133  11.830   7.332  12.941
31253W        W 1134  12.220  10.290  14.319
31254W        W 1135  23.068   1.898  10.494
31255W        W 1136  35.888  17.260   1.273
31256W        W 1137  34.568   9.365  13.860
31257W        W 1138  44.958  37.938   0.269
31258W        W 1139  28.131  34.401  14.487
31259W        W 1140  34.454  33.913   2.669
31260W        W 1141   4.725  29.953   2.717
31261W        W 1142  14.143  16.287  13.402
31262W        W 1143  28.981  11.762  14.994
31263W        W 1144   6.408  30.094   1.710
31264W        W 1145  18.241   5.776  13.970
31265W        W 1146  43.920  43.368  12.875
31266W        W 1147   3.815  30.971  11.414
31267W        W 1148  19.568  39.988  11.906
31268W        W 1149   2.902  40.362   2.713
31269W        W 1150   3.431  27.510  12.511
31270W        W 1151  24.529  36.051  10.918
31271W        W 1152  14.267   1.416  10.467
31272W        W 1153  26.647  32.038  11.867
31273W        W 1154  25.154   9.844  10.638
31274W        W 1155  41.334   1.966  10.961
31275W        W 1156  14.171  34.031   1.217
31276W        W 1157   4.216  40.334  10.533
31277W        W 1158  33.476  42.292  12.096
31278W        W 1159   4.728   1.951  10.966
31279W        W 1160   7.784  30.645   4.274
31280W        W 1161  35.991  20.137  10.467
31281W        W 1162   0.458  29.479   3.640
31282W        W 1163  37.336  24.090   2.894
31283W        W 1164  21.564  23.239   2.715
31284W        W 1165  18.665  25.058   2.756
31285W        W 1166  24.692  22.151  11.393
31286W        W 1167   3.806  11.694  13.368
31287W        W 1168  24.551   5.322  13.400
31288W        W 1169  15.235  36.065   1.721
31289W        W 1170   4.899   2.273  12.953
31290W        W 1171  22.678  28.547  12.429
31291W        W 1172   6.689   4.885  11.415
31292W        W 1173   7.306  43.786   2.304
31293W        W 1174  18.237  28.947   1.705
31294W        W 1175  28.113  31.933   2.887
31295W        W 1176  44.328  10.825  12.416
31296W        W 1177  43.928  35.961  13.429
31297W        W 1178   5.338   5.197  11.504
31298W        W 1179  38.565   7.178   4.661
31299W        W 1180  13.626  29.019   1.349
31300W        W 1181  10.872  35.386   2.704
31301W        W 1182   1.792   5.408   1.392
31302W        W 1183   1.289  34.524  12.390
31303W        W 1184  44.302  21.629   1.935
31304W        W 1185   3.399  38.524   1.229
31305W        W 1186   0.757  16.101   0.767
31306W        W 1187  20.104  24.093   4.751
31307W        W 1188   7.777  43.016  13.880
31308W        W 1189  23.026  15.754  11.878
31309W        W 1190  33.443  17.760  10.079
31310W        W 1191  42.471  34.878  12.996
31311W        W 1192   0.856  20.694  14.866
31312W        W 1193  38.834  36.451  13.895
31313W        W 1194  15.089  19.105   1.711
31314W        W 1195  41.389  29.162  13.916
31315W        W 1196  15.187   4.716  13.326
31316W        W 1197  42.830  23.110   4.657
31317W        W 1198  35.016  44.433   4.807
31318W        W 1199  43.439   0.848   0.920
31319W        W 1200  37.338  33.897   2.194
31320W        W 1201  25.962  20.626  12.437
31321W        W 1202  44.361  30.913   1.223
31322W        W 1203   7.824  40.867  11.585
31323W        W 1204  10.746  21.583  14.497
31324W        W 1205  32.549   6.358   1.383
31325W        W 1206  17.214  44.974  13.032
31326W        W 1207   4.907   2.425  13.394
31327W        W 1208  30.162  10.195  11.114
31328W        W 1209   7.225  30.560   3.721
31329W        W 1210  15.580  43.433  12.341
31330W        W 1211  16.787  24.636   4.756
31331W        W 1212  34.079   9.338  10.901
31332W        W 1213   3.379   2.365   4.750
31333W        W 1214  20.216   8.713  10.577
31334W        W 1215  22.648  12.327   2.745
31335W        W 1216  39.363  10.801   1.915
31336W        W 1217   4.369  32.050  13.865
31337W        W 1218  19.569  27.161  12.505
31338W        W 1219   2.248   8.377  12.979
31339W        W 1220  37.448  25.148   3.316
31340W        W 1221  44.430   9.284   0.824
31341W        W 1222  32.433  10.156   4.768
31342W        W 1223  30.594  13.156   2.246
31343W        W 1224  11.751  20.262   1.221
31344W        W 1225  23.024  44.485   3.374
31345W        W 1226  24.598  37.980  14.025
31346W        W 1227  31.418  15.281  14.971
31347W        W 1228   0.815  17.273   4.665
31348W        W 1229   9.662   8.729   4.213
31349W        W 1230  23.658   0.424  11.451
31350W        W 1231  20.660  21.229   4.272
31351W        W 1232  10.353  12.729   1.832
31352W        W 1233  28.676  43.848  11.858
31353W        W 1234  16.576   8.384  13.995
31354W        W 1235  42.010  43.480  14.818
31355W        W 1236   4.914   0.879  11.867
31356W        W 1237  34.566  23.715  13.455
31357W        W 1238   8.839  44.445   0.777
31358W        W 1239  19.583  37.998   1.919
31359W        W 1240  22.725  32.481   4.278
31360W        W 1241  44.932  33.503   4.767
31361W        W 1242  38.851  11.734   2.388
31362W        W 1243   7.800  40.816  10.925
31363W        W 1244  30.965  12.749  10.543
31364W        W 1245  22.135   9.358  14.337
31365W        W 1246  10.688  14.101  10.487
31366W        W 1247  29.658  12.850   9.960
31367W        W 1248  31.457  27.599  11.866
31368W        W 1249  26.205  16.811  12.858
31369W        W 1250  15.611  23.052   3.152
31370W        W 1251  42.360  35.363   0.460
31371W        W 1252  24.673   6.780  14.903
31372W        W 1253  37.045  30.584  11.921
31373W        W 1254  17.629  38.946  12.460
31374W        W 1255  18.278  42.373   0.838
31375W        W 1256  38.347  44.955  10.522
31376W        W 1257  30.515   4.875  12.856
31377W        W 1258   0.375   3.751   3.305
31378W        W 1259  22.188  21.653  12.529
31379W        W 1260  14.631  11.753  13.544
31380W        W 1261  26.073  27.563  13.922
31381W        W 1262  33.404  23.614   1.708
31382W        W 1263   0.413   4.765   1.829
31383W        W 1264  20.082   4.367   3.348
31384W        W 1265  15.818  26.497  10.492
31385W        W 1266  35.565  39.890   1.379
31386W        W 1267   1.366   5.410   4.130
31387W        W 1268  18.149  39.556   3.148
31388W        W 1269  42.916  24.696   2.692
31389W        W 1270  42.344  10.208   1.284
31390W        W 1271   5.425  26.169  13.922
31391W        W 1272   8.787  10.773   0.764
31392W        W 1273  29.649  22.545  14.823
31393W        W 1274   1.929   3.826   0.363
31394W        W 1275  30.097  34.500  11.053
31395W        W 1276  17.782   6.190  13.925
31396W        W 1277  44.395  38.941   4.212
31397W        W 1278  15.182  27.060   0.783
31398W        W 1279  36.048  40.504   0.827
31399W        W 1280  12.265  23.031   1.933
31400W        W 1281  31.141  23.542  10.991
31401W        W 1282  37.573  34.587   2.285
31402W        W 1283  27.059  15.222   1.287
31403W        W 1284  10.690  14.762   0.328
31404W        W 1285  16.194  19.609  11.072
31405W        W 1286  35.461  18.291   0.746
31406W        W 1287  18.199  35.390   1.701
31407W        W 1288   8.705   4.325  12.500
31408W        W 1289  21.750  20.219   1.243
31409W        W 1290  30.086  24.997   1.280
31410W        W 1291  12.157  25.578  12.368
31411W        W 1292  10.339  33.611   1.341
31412W        W 1293   0.294  19.102   4.226
31413W        W 1294  31.959  28.035  11.044
31414W        W 1295   1.917  21.192   2.661
31415W        W 1296  30.038  14.619   2.886
31416W        W 1297   3.772  27.114  10.462
31417W        W 1298  20.160  28.044   4.272
31418W        W 1299  38.958  14.609   2.349
31419W        W 1300  10.658   6.290   4.736
31420W        W 1301  42.878  28.545  11.919
31421W        W 1302   4.285  27.089   3.384
31422W        W 1303   2.726  20.222  11.899
31423W        W 1304  33.582   2.743  14.830
31424W        W 1305  13.725  42.808  11.502
31425W        W 1306  33.504  21.195   1.371
31426W        W 1307  21.550  16.687  10.546
31427W        W 1308  43.998   3.402  12.480
31428W        W 1309  36.943  11.262   1.275
31429W        W 1310  34.056  39.931   2.779
31430W        W 1311  15.709  26.620  13.054
31431W        W 1312   5.895  38.444  14.873
31432W        W 1313  11.288  13.699   4.702
31433W        W 1314  36.373  21.218   1.407
31434W        W 1315  34.392  22.007   2.289
31435W        W 1316  12.239   1.856  11.557
31436W        W 1317   0.339  42.981   2.180
31437W        W 1318  43.788  17.770  12.474
31438W        W 1319  24.613  41.452   4.334
31439W        W 1320  37.525  18.222   4.684
31440W        W 1321  28.045  16.801   2.195
31441W        W 1322  12.346   9.210  10.925
31442W        W 1323  13.726  23.619  11.609
31443W        W 1324  21.139  23.530   3.286
31444W        W 1325   3.337  10.754  12.391
31445W        W 1326  22.233  26.580  12.892
31446W        W 1327  18.697   9.267  12.061
31447W        W 1328   3.743  33.400   2.730
31448W        W 1329  34.067  16.775  13.032
31449W        W 1330  35.962  44.824  12.006
31450W        W 1331  18.678   8.850  11.957
31451W        W 1332  42.944  44.822  14.861
31452W        W 1333  43.409  34.388   3.844
31453W        W 1334  37.966  30.484  10.021
31454W        W 1335   0.318  39.050  10.951
31455W        W 1336   3.317  18.142   4.142
31456W        W 1337  41.380  44.962  11.964
31457W        W 1338  34.945  16.286  10.603
31458W        W 1339  17.084  32.992   0.286
31459W        W 1340  24.061  15.592  11.117
31460W        W 1341  28.632  11.721  14.305
31461W        W 1342  25.564  23.161   2.231
31462W        W 1343  21.756  21.571   2.871
31463W        W 1344  43.850   8.663   4.815
31464W        W 1345  29.519  16.752  14.004
31465W        W 1346  35.033   7.693  14.896
31466W        W 1347  25.219  17.188  12.976
31467W        W 1348  21.683  28.017  10.081
31468W        W 1349  29.537  41.998  14.907
31469W        W 1350   6.377  34.101   2.215
31470W        W 1351  30.924  18.084  13.478
31471W        W 1352  30.580  44.453  11.885
31472W        W 1353  16.688   8.663   0.796
31473W        W 1354  21.633  40.494  12.366
31474W        W 1355  33.453  10.300  12.556
31475W        W 1356  18.632  25.522  11.954
31476W        W 1357  32.599  41.535  14.279
31477W        W 1358   8.659  37.561  10.992
31478W        W 1359   7.205  42.517  11.396
31479W        W 1360   5.859  15.579   2.739
31480W        W 1361  12.707  25.151   0.247
31481W        W 1362   8.293   2.454   3.815
31482W        W 1363  20.766  18.642  13.512
31483W        W 1364  32.891  12.273   4.791
31484W        W 1365   0.306  10.643  11.502
31485W        W 1366  19.284   4.371   1.307
31486W        W 1367  38.053  41.799   3.175
31487W        W 1368  40.018  11.154   1.358
31488W        W 1369  12.190  36.054   4.623
31489W        W 1370  44.996   2.915  11.586
31490W        W 1371  44.938  39.425   0.866
31491W        W 1372  18.666  20.624  14.437
31492W        W 1373   4.803  27.639  11.460
31493W        W 1374  38.525   7.768  12.470
31494W        W 1375  42.001  36.573  11.495
31495W        W 1376  35.952   6.764   2.396
31496W        W 1377  11.797  10.754  10.898
31497W        W 1378  42.896  14.156   1.261
31498W        W 1379   9.391  21.055   3.202
31499W        W 1380   3.327   3.718   1.829
31500W        W 1381  14.659   2.366  11.094
31501W        W 1382   5.431  25.964  14.342
31502W        W 1383   2.408  40.804   0.883
31503W        W 1384   9.861  24.177   1.919
31504W        W 1385  42.028  40.943   4.785
31505W        W 1386   9.869  43.819  11.467
31506W        W 1387  26.150  41.888  13.455
31507W        W 1388  35.973  42.381  11.384
31508W        W 1389   2.399  43.967  13.894
31509W        W 1390  41.301   7.339  14.354
31510W        W 1391   1.796   6.409  12.013
31511W        W 1392   9.849  41.892   3.693
31512W        W 1393  26.963   1.859   5.233
31513W        W 1394   2.871  14.759  13.356
31514W        W 1395  44.447   3.734  13.836
31515W        W 1396  15.769  38.418  10.596
31516W        W 1397  11.179   1.276   0.935
31517W        W 1398   7.394   4.782   3.687
31518W        W 1399   7.868  23.654  11.036
31519W        W 1400   0.267   6.216  13.812
31520W        W 1401  44.452  42.809  14.341
31521W        W 1402  13.333  19.550  14.322
31522W        W 1403  29.487  38.056  10.516
31523W        W 1404  42.974  36.058   2.289
31524W        W 1405   0.918   6.800  11.475
31525W        W 1406  44.469  30.957   4.741
31526W        W 1407  16.578  10.318   3.296
31527W        W 1408  26.660  23.589  13.423
31528W        W 1409  31.087  42.856   4.834
31529W        W 1410  13.627  44.954   2.812
31530W        W 1411  22.593  19.263   4.324
31531W        W 1412  20.064   1.292   2.319
31532W        W 1413  39.876  33.616   1.826
31533W        W 1414   1.877   5.822  12.973
31534W        W 1415   5.301  32.006   0.354
31535W        W 1416  36.034   4.882   1.257
31536W        W 1417   2.951  24.580   0.291
31537W        W 1418  30.127   9.831   4.195
31538W        W 1419  14.643  35.364  13.488
31539W        W 1420  30.116  44.327  14.294
31540W        W 1421   8.309   0.355   1.443
31541W        W 1422   7.738   7.802   4.322
31542W        W 1423  17.615  12.657   4.614
31543W        W 1424   5.427  32.456   2.308
31544W        W 1425   3.282  12.839   0.374
31545W        W 1426  27.665  26.086   4.352
31546W        W 1427   9.314  26.090  10.928
31547W        W 1428  25.160  37.430  13.313
31548W        W 1429   7.289   0.818  10.526
31549W        W 1430  18.654  36.034  12.542
31550W        W 1431  39.505   9.842  11.016
31551W        W 1432  16.103  40.849  12.546
31552W        W 1433  18.283  23.495  14.508
31553W        W 1434  21.025  31.001  14.358
31554W        W 1435   9.343  16.665   0.348
31555W        W 1436  43.274  29.609   3.798
31556W        W 1437  34.997  13.281   3.187
31557W        W 1438  35.903  29.443   1.800
31558W        W 1439  26.116   4.227   0.328
31559W        W 1440  31.489  16.673  10.920
31560W        W 1441  16.193   1.303  14.998
31561W        W 1442  41.847   8.333  12.957
31562W        W 1443   0.366  10.281   3.277
31563W        W 1444  12.157   1.839   4.698
31564W        W 1445  27.670  20.202  13.401
31565W        W 1446  14.287  27.096   2.845
31566W        W 1447  25.190  27.949  13.418
31567W        W 1448   3.770  17.774   0.413
31568W        W 1449  33.616  35.572  12.558
31569W        W 1450  14.172  39.044   1.424
31570W        W 1451  10.803   6.735  10.630
31571W        W 1452  25.658  13.745  12.395
31572W        W 1453  16.313  44.428  13.817
31573W        W 1454   7.783  14.178   2.871
31574W        W 1455  35.931  27.616   0.282
31575W        W 1456  21.632   5.833   4.772
31576W        W 1457   2.359  27.599  13.935
31577W        W 1458  35.362   1.948  14.503
31578W        W 1459   9.703   9.245   0.390
31579W        W 1460   0.319  29.529  14.356
31580W        W 1461  41.793  26.483  13.520
31581W        W 1462  29.044   4.230   1.395
31582W        W 1463  33.125  17.251   5.619
31583W        W 1464  27.455  14.757   0.394
31584W        W 1465  26.064  35.501   3.336
31585W        W 1466  35.457   1.827  12.497
31586W        W 1467  24.103   9.792  11.908
31587W        W 1468  31.112  20.228  11.079
31588W        W 1469  25.167  42.502   0.818
31589W        W 1470  36.008   2.852  14.402
31590W        W 1471  37.558   5.270   3.813
31591W        W 1472  23.136   5.284  14.949
31592W        W 1473  32.550  29.458  11.921
31593W        W 1474   7.844  21.246  11.601
31594W        W 1475   2.421  14.155   0.929
31595W        W 1476  33.946  32.543  11.883
31596W        W 1477   3.397  42.380   0.781
31597W        W 1478  33.071  21.254   5.086
31598W        W 1479  20.745  17.792  11.055
31599W        W 1480  29.446  15.657   2.299
31600W        W 1481   5.817  29.136  13.012
31601W        W 1482  32.392  32.416   1.315
31602W        W 1483   5.395   1.960  14.944
31603W        W 1484  43.799  24.670   4.641
31604W        W 1485  16.690   1.259  13.043
31605W        W 1486  35.028  21.521   1.873
31606W        W 1487  40.953  11.129  12.964
31607W        W 1488  43.989  33.100  12.435
31608W        W 1489  42.995  40.999   0.359
31609W        W 1490   5.858  37.054  13.846
31610W        W 1491  16.082  19.083  13.467
31611W        W 1492  14.218  17.736  11.550
31612W        W 1493  33.388  16.613   2.405
31613W        W 1494  44.816   1.347  14.490
31614W        W 1495  42.483  40.493   4.628
31615W        W 1496  37.925   1.747  10.983
31616W        W 1497  11.767   1.956   0.801
31617W        W 1498  36.879  31.456  11.884
31618W        W 1499  24.101   1.363  11.513
31619W        W 1500  20.212  17.606  13.386
31620W        W 1501  44.775  31.458   0.813
31621W        W 1502  38.371  32.486  10.952
31622W        W 1503  26.186  20.752  12.032
31623W        W 1504  13.812  30.063  12.472
31624W        W 1505  25.040  33.970   2.767
31625W        W 1506  24.712  41.346   1.246
31626W        W 1507  14.326   8.734  11.059
31627W        W 1508  13.303   2.941  14.459
31628W        W 1509   9.177   9.822  11.610
31629W        W 1510  31.028  11.864   4.631
31630W        W 1511  31.918  33.009   4.314
31631W        W 1512  32.083  44.006   2.791
31632W        W 1513  39.019  25.612   4.717
31633W        W 1514  22.231  44.278   3.330
31634W        W 1515  44.915  35.095   2.722
31635W        W 1516  17.182  34.493   4.796
31636W        W 1517   9.681  33.472   0.749
31637W        W 1518  39.533  28.155   2.842
31638W        W 1519  22.565  31.142   1.698
31639W        W 1520  40.399  35.542  13.395
31640W        W 1521  44.930  26.625   0.416
31641W        W 1522   5.425  15.294   0.334
31642W        W 1523  25.700  27.196  10.427
31643W        W 1524  14.284  30.945   2.790
31644W        W 1525  34.380  29.513   2.831
31645W        W 1526  40.380  40.936   1.411
31646W        W 1527  37.438  27.601   3.645
31647W        W 1528  34.919  26.616   1.784
31648W        W 1529  23.672   7.867  10.938
31649W        W 1530  37.010   3.762  10.478
31650W        W 1531   0.824  11.682   1.714
31651W        W 1532  17.236   2.419  11.477
31652W        W 1533  30.985   7.372  12.360
31653W        W 1534  35.922  36.975   4.128
31654W        W 1535  43.926  13.166  11.046
31655W        W 1536  34.514   9.327   0.757
31656W        W 1537  34.000   6.415   2.229
31657W        W 1538  11.356  20.562  13.834
31658W        W 1539  29.644   4.834   4.314
31659W        W 1540  32.608  29.646   4.347
31660W        W 1541  38.006  13.826   2.183
31661W        W 1542  22.533  14.213   1.324
31662W        W 1543  19.094  23.690   0.786
31663W        W 1544  23.536  41.950   1.443
31664W        W 1545  11.315   3.371  13.995
31665W        W 1546  11.254  10.226  14.432
31666W        W 1547  26.101   4.862   3.278
31667W        W 1548  18.188  11.144   3.727
31668W        W 1549  14.709  18.768   2.776
31669W        W 1550   7.360  40.351   1.256
31670W        W 1551  10.658   3.719  14.798
31671W        W 1552   0.815   5.308   3.714
31672W        W 1553  34.386   2.434   4.714
31673W        W 1554  44.838  13.255   3.821
31674W        W 1555  36.577   9.648   0.330
31675W        W 1556  15.803   5.862   4.691
31676W        W 1557   5.263  24.591   4.831
31677W        W 1558  17.303   5.829  14.326
31678W        W 1559   1.293  14.184   3.724
31679W        W 1560   7.810   9.208   0.480
31680W        W 1561  33.588  37.455  12.915
31681W        W 1562   2.226   5.424  12.828
31682W        W 1563  39.339  33.448  11.885
31683W        W 1564   3.315  40.891   1.868
31684W        W 1565   9.190  15.778  11.515
31685W        W 1566  24.036  17.563   4.662
31686W        W 1567  24.037   7.681   4.682
31687W        W 1568  44.874  34.427   2.231
31688W        W 1569  12.208   5.418   2.755
31689W        W 1570   7.818   5.387  12.829
31690W        W 1571  12.348  23.223  10.980
31691W        W 1572  40.393  28.025   0.274
31692W        W 1573   2.401  44.856  10.911
31693W        W 1574   3.331  22.551  11.078
31694W        W 1575  12.362  41.464  12.056
31695W        W 1576   8.274  29.953  12.354
31696W        W 1577  40.018  37.962   0.412
31697W        W 1578   0.419  39.538  11.529
31698W        W 1579  44.920  25.997   0.848
31699W        W 1580  31.047  42.832   3.726
31700W        W 1581   5.933  25.498  13.975
31701W        W 1582  43.940   5.266   1.219
31702W        W 1583  40.305  21.183   2.821
31703W        W 1584  37.037  42.998  11.920
31704W        W 1585  19.277   4.220  13.889
31705W        W 1586  19.759  11.180  13.408
31706W        W 1587  33.401  10.705  11.392
31707W        W 1588  42.014  24.108  10.542
31708W        W 1589  34.922  10.787  13.827
31709W        W 1590   5.842  29.438   2.194
31710W        W 1591   1.751   3.898   4.815
31711W        W 1592  37.343  44.947   1.357
31712W        W 1593  26.194   7.694  11.973
31713W        W 1594  22.565   3.411  13.983
31714W        W 1595  18.156  17.576   1.878
31715W        W 1596  19.645  23.063   1.862
31716W        W 1597  41.883   4.746  13.447
31717W        W 1598  14.653  37.049  11.906
31718W        W 1599  16.739  13.139  11.007
31719W        W 1600  42.820  18.230   3.784
31720W        W 1601  21.745  34.421   4.651
31721W        W 1602  15.280  14.745   0.247
31722W        W 1603  44.903  31.426   2.856
31723W        W 1604  35.586  38.526  11.567
31724W        W 1605  20.654   7.373  12.894
31725W        W 1606  32.600  25.671  14.412
31726W        W 1607  34.985   8.195  12.991
31727W        W 1608  43.439  40.442  14.456
31728W        W 1609   8.195  26.529   1.776
31729W        W 1610  40.839  31.052  13.909
31730W        W 1611  39.517  14.731  12.550
31731W        W 1612  26.487  43.955  13.853
31732W        W 1613  31.584  19.768  12.427
31733W        W 1614   2.462  17.198   1.924
31734W        W 1615  24.723   1.462   2.794
31735W        W 1616  44.009  17.213   2.779
31736W        W 1617  23.569  42.490  14.017
31737W        W 1618  36.971  40.885  14.481
31738W        W 1619  43.912  34.381  14.371
31739W        W 1620  13.614  36.513   2.328
31740W        W 1621  24.524  31.641   3.746
31741W        W 1622  23.706  13.770  12.421
31742W        W 1623  35.513  18.788   1.384
31743W        W 1624  19.197  27.587  11.024
31744W        W 1625  17.239   4.900  11.921
31745W        W 1626   2.957  23.135  12.050
31746W        W 1627  20.175  38.053  13.513
31747W        W 1628   8.189  35.956   1.902
31748W        W 1629   8.749  25.627   4.348
31749W        W 1630  27.011  21.538   2.240
31750W        W 1631  14.653  12.787   1.290
31751W        W 1632   6.873  22.582  11.584
31752W        W 1633  15.283   8.404  11.583
31753W        W 1634  30.637  27.969   2.377
31754W        W 1635  40.052  38.336  11.510
31755W        W 1636  13.124  42.377   2.224
31756W        W 1637   3.284  27.140   3.253
31757W        W 1638  23.227  32.988  12.348
31758W        W 1639  21.614  18.663   1.740
31759W        W 1640  25.474   7.908  12.412
31760W        W 1641   7.827  34.933  10.558
31761W        W 1642  21.639  22.729   4.819
31762W        W 1643  33.611  12.638  10.595
31763W        W 1644  36.908  21.729  12.052
31764W        W 1645  13.236  38.350  12.069
31765W        W 1646  12.248   2.420  14.959
31766W        W 1647  37.007   8.356  14.927
31767W        W 1648  32.573  27.063   4.227
31768W        W 1649   4.255   3.836   2.326
31769W        W 1650  32.977   1.766   1.806
31770W        W 1651  43.867  41.965   1.307
31771W        W 1652   3.942  10.877  13.307
31772W        W 1653   9.832  44.463  13.866
31773W        W 1654  43.281  21.663   4.148
31774W        W 1655  40.036  29.148  14.279
31775W        W 1656  28.029  30.927  13.411
31776W        W 1657   1.794  37.568   0.809
31777W        W 1658   9.368  33.423  12.022
31778W        W 1659   2.228   1.415  12.369
31779W        W 1660  23.700  41.968  13.811
31780W        W 1661  15.643   8.858  14.406
31781W        W 1662  29.065  44.499  14.498
31782W        W 1663  15.805   6.900  13.353
31783W        W 1664  43.787   6.290  10.569
31784W        W 1665  26.657  29.449  13.323
31785W        W 1666  30.592   6.711   4.672
31786W        W 1667  20.181  19.075  13.329
31787W        W 1668   4.388   3.346  12.501
31788W        W 1669   7.899  22.142  14.422
31789W        W 1670  13.780   9.327  11.405
31790W        W 1671  38.070  40.833  11.548
31791W        W 1672  43.779  21.521   1.888
31792W        W 1673  16.264  28.027   3.647
31793W        W 1674  15.588  26.638   2.224
31794W        W 1675  15.682  33.069  14.924
31795W        W 1676  16.218  16.576  10.620
31796W        W 1677   3.903  20.738   0.470
31797W        W 1678  39.379  15.589  11.577
31798W        W 1679  23.712  11.704   3.285
31799W        W 1680  19.243  38.996  13.384
31800W        W 1681   4.723  29.934   2.329
31801W        W 1682   1.287  16.271  12.944
31802W        W 1683   5.799  29.930  13.486
31803W        W 1684   1.935   6.307   2.186
31804W        W 1685  21.750  38.999   1.442
31805W        W 1686  28.659  24.642   0.947
31806W        W 1687  14.114   6.903   2.362
31807W        W 1688  32.608  37.505   1.228
31808W        W 1689  35.934  31.465   3.748
31809W        W 1690  25.992  32.462   3.812
31810W        W 1691  23.577   2.226  12.476
31811W        W 1692  20.146   6.343   3.769
31812W        W 1693  31.450  38.041  11.883
31813W        W 1694  23.148  19.714   1.929
31814W        W 1695  40.977  20.100  13.361
31815W        W 1696  31.111   6.860   4.773
31816W        W 1697   5.431  39.896   3.314
31817W        W 1698  36.553   1.736   0.380
31818W        W 1699  14.218  32.047  11.943
31819W        W 1700  10.769   3.956   3.634
31820W        W 1701  17.072  25.020  11.373
31821W        W 1702   3.218   8.893   3.315
31822W        W 1703  33.414  13.158   3.154
31823W        W 1704  15.161  44.917  14.493
31824W        W 1705   2.294  29.445  11.997
31825W        W 1706  10.684  28.015  13.488
31826W        W 1707  33.030  31.987   2.677
31827W        W 1708  40.848  29.095   2.863
31828W        W 1709  43.005   2.326   4.285
31829W        W 1710  43.322   4.291  13.870
31830W        W 1711   4.335  24.027  13.533
31831W        W 1712  27.567  36.378   2.401
31832W        W 1713  11.675  40.333  13.461
31833W        W 1714   4.724  36.572   4.622
31834W        W 1715  39.352   0.981  14.351
31835W        W 1716  22.189  34.581  14.490
31836W        W 1717  22.588   9.742  12.903
31837W        W 1718  42.360  32.435   3.163
31838W        W 1719  30.981  44.923  13.892
31839W        W 1720  17.674   8.173   2.738
31840W        W 1721  35.076   0.907   4.751
31841W        W 1722  43.387  18.679  14.822
31842W        W 1723  39.524   1.963   3.812
31843W        W 1724  18.734   8.807   2.336
31844W        W 1725   6.858  15.662  13.018
31845W        W 1726   7.668  31.938   1.870
31846W        W 1727  17.280  35.581   2.774
31847W        W 1728  26.550  42.836  14.999
31848W        W 1729   7.319  21.066   0.415
31849W        W 1730  20.527  13.341  11.947
31850W        W 1731   8.334  17.617   1.325
31851W        W 1732  43.501  34.522  14.463
31852W        W 1733  28.479  28.945   1.798
31853W        W 1734  20.662  38.826  11.495
31854W        W 1735  34.462  11.733  11.124
31855W        W 1736  42.444  17.143  14.423
31856W        W 1737   0.288  17.656   3.281
31857W        W 1738   4.238  28.995  11.079
31858W        W 1739   3.267  31.154  14.346
31859W        W 1740  41.334  16.077   3.150
31860W        W 1741   3.266   4.383   4.160
31861W        W 1742  30.144  21.114   0.753
31862W        W 1743  24.697  25.212  11.928
31863W        W 1744   0.769  17.076   0.298
31864W        W 1745  31.021  33.061   4.655
31865W        W 1746  26.001   2.898   2.848
31866W        W 1747  43.985  32.531   4.207
31867W        W 1748  40.507  28.490  11.481
31868W        W 1749   0.445  12.805  13.992
31869W        W 1750   1.450   7.276  11.123
31870W        W 1751  38.998   2.331  14.338
31871W        W 1752  28.952   8.805  14.397
31872W        W 1753  36.874  38.855   2.392
31873W        W 1754  28.537  16.689  14.018
31874W        W 1755  29.578  22.232  13.005
31875W        W 1756   9.395  10.378  10.634
31876W        W 1757  42.469  11.838   3.205
31877W        W 1758  32.482   3.240   2.709
31878W        W 1759  14.826  21.263  13.499
31879W        W 1760  22.177   1.747  11.001
31880W        W 1761  43.363  10.253   3.179
31881W        W 1762   0.484  15.153  11.446
31882W        W 1763   1.405  22.224   4.759
31883W        W 1764  27.192  42.973   5.119
31884W        W 1765  23.237  29.007  14.961
31885W        W 1766   2.451  17.285  13.999
31886W        W 1767  33.435  36.376  10.609
31887W        W 1768  29.650  31.432   2.696
31888W        W 1769   6.406  12.256   1.210
31889W        W 1770   9.184  29.498  11.972
31890W        W 1771  19.140  24.721   1.777
31891W        W 1772   2.289  16.679  11.942
31892W        W 1773   2.817  18.091   2.203
31893W        W 1774  35.598  24.030   4.714
31894W        W 1775  11.307  13.247  11.559
31895W        W 1776   4.750  27.061  14.774
31896W        W 1777   1.344  25.158   4.765
31897W        W 1778   6.801  24.011   1.276
31898W        W 1779   2.823  11.747   2.819
31899W        W 1780  26.187  19.223  11.476
31900W        W 1781  17.080  19.135   2.355
31901W        W 1782   5.248  20.231  13.880
31902W        W 1783  13.177  31.045   3.743
31903W        W 1784  22.687  41.021   0.820
31904W        W 1785  10.849  11.288  14.877
31905W        W 1786  28.947   7.754  12.062
31906W        W 1787  17.706  32.111  10.939
31907W        W 1788  42.957  17.128  14.467
31908W        W 1789   0.337  18.237   0.399
31909W        W 1790  18.090  36.973   3.843
31910W        W 1791  36.582  18.554  11.856
31911W        W 1792  10.249  36.488   4.154
31912W        W 1793  28.521  30.911  14.284
31913W        W 1794  15.640  11.677  13.510
31914W        W 1795  13.341   4.250   1.698
31915W        W 1796  43.832  29.659   2.863
31916W        W 1797  40.885  24.625  13.986
31917W        W 1798   9.837  33.412  12.864
31918W        W 1799  12.264  26.670   4.278
31919W        W 1800  43.341   4.733  10.907
31920W        W 1801  27.584  32.601   2.876
31921W        W 1802   4.334  21.067   2.328
31922W        W 1803  28.012  25.702   0.250
31923W        W 1804   5.887  32.949   0.834
31924W        W 1805   2.408  16.234   3.296
31925W        W 1806  31.145   2.814   2.324
31926W        W 1807  29.553  42.424   3.786
31927W        W 1808  38.969  15.724   2.348
31928W        W 1809  37.961  26.090  12.008
31929W        W 1810  22.069   9.236  13.943
31930W        W 1811  35.884   2.233  14.341
31931W        W 1812  32.998   8.704  12.907
31932W        W 1813  27.128   8.780  14.285
31933W        W 1814  23.159  37.940  12.901
31934W        W 1815  38.935  44.430   0.924
31935W        W 1816  41.973   4.422   2.739
31936W        W 1817  15.600  43.494   4.253
31937W        W 1818   1.244  19.603   1.212
31938W        W 1819  15.172  29.490   1.920
31939W        W 1820  17.098   1.275   1.696
31940W        W 1821   4.318  19.637   1.892
31941W        W 1822  41.416  26.209   1.303
31942W        W 1823  24.000  18.770   2.894
31943W        W 1824  27.965  19.055   4.214
31944W        W 1825   7.689  28.607   3.737
31945W        W 1826  34.520  17.643   3.692
31946W        W 1827  24.091  35.873   1.296
31947W        W 1828  42.874  40.343  11.099
31948W        W 1829  43.796   4.763  10.502
31949W        W 1830  39.865  23.711   4.625
31950W        W 1831  39.016   7.864   4.771
31951W        W 1832  30.633  12.651  11.893
31952W        W 1833   1.882   4.912  11.394
31953W        W 1834  43.321  37.378  14.385
31954W        W 1835  13.282  36.423   2.330
31955W        W 1836  14.117   5.399  13.423
31956W        W 1837   2.458  10.270  11.024
31957W        W 1838  18.244  44.895   0.844
31958W        W 1839  25.125  22.129   3.730
31959W        W 1840  38.861  41.447   4.139
31960W        W 1841  29.492  39.529   1.431
31961W        W 1842   2.409  40.514  14.380
31962W        W 1843  30.500  23.150  14.369
31963W        W 1844  25.544   5.400   3.712
31964W        W 1845  14.225  34.509  11.898
31965W        W 1846  21.697  23.070  11.420
31966W        W 1847   6.391  13.180   1.883
31967W        W 1848  20.085  42.860   2.411
31968W        W 1849   7.831  42.390   1.912
31969W        W 1850  42.398   2.410  13.405
31970W        W 1851   0.888  23.054  10.445
31971W        W 1852   6.778  44.282   3.656
31972W        W 1853  34.892  44.000  12.080
31973W        W 1854  40.323  13.129   1.230
31974W        W 1855  37.567   6.292  13.008
31975W        W 1856  25.041   0.334  13.064
31976W        W 1857  23.675  42.921   0.478
31977W        W 1858  44.932  18.630   0.801
31978W        W 1859  25.168  35.866  11.859
31979W        W 1860  42.466  34.912   3.734
31980W        W 1861  26.124  24.162  10.026
31981W        W 1862  29.522   2.845  10.500
31982W        W 1863  19.664  13.642  14.008
31983W        W 1864  15.627  25.078   9.932
31984W        W 1865  27.578  17.760  12.404
31985W        W 1866   0.254  18.268   3.296
31986W        W 1867  38.975  31.525  10.418
31987W        W 1868  14.683  31.928  12.903
31988W        W 1869  38.936  37.351   3.172
31989W        W 1870  17.100  37.003  10.012
31990W        W 1871  20.094  43.362   1.767
31991W        W 1872  44.879  21.727  12.871
31992W        W 1873  44.792  32.569   2.832
31993W        W 1874  11.261  28.119  13.818
31994W        W 1875  31.940  30.003   3.796
31995W        W 1876  15.121   5.305   2.674
31996W        W 1877   0.448  15.160   0.922
31997W        W 1878   4.232  33.479  14.862
31998W        W 1879  30.476  22.166   0.432
31999W        W 1880   2.267  11.185  11.000
32000W        W 1881  26.986  16.117   1.847
32001W        W 1882   6.832  15.313   1.903
32002W        W 1883  25.054  32.019   2.880
32003W        W 1884  35.049  39.317  13.335
32004W        W 1885  33.406  31.416   2.694
32005W        W 1886  41.010   5.332   1.798
32006W        W 1887  30.570   7.840  12.952
32007W        W 1888  31.470  30.633   2.821
32008W        W 1889  38.976  14.119  13.938
32009W        W 1890  33.595   0.489   0.857
32010W        W 1891  32.566   3.729   3.791
32011W        W 1892  28.005  12.301   4.752
32012W        W 1893  21.035  31.041  11.884
32013W        W 1894  39.553  11.147  10.984
32014W        W 1895   4.876  33.962   0.811
32015W        W 1896  12.737  43.911  11.492
32016W        W 1897  42.320  12.127  11.545
32017W        W 1898  30.939   4.251  13.054
32018W        W 1899   0.409   9.807   3.217
32019W        W 1900  42.892  32.398  12.890
32020W        W 1901  12.695   7.184   1.351
32021W        W 1902  20.752  36.402  14.030
32022W        W 1903  33.448   4.837   3.229
32023W        W 1904  39.456  28.494  12.946
32024W        W 1905  18.545  17.607  12.011
32025W        W 1906  41.409  43.480  12.903
32026W        W 1907  20.273   6.327   0.395
32027W        W 1908  18.725  11.711  11.117
32028W        W 1909  11.702  12.613  12.543
32029W        W 1910   1.363  38.056   2.318
32030W        W 1911  32.464  16.638  13.979
32031W        W 1912  42.883   6.685   0.259
32032W        W 1913  41.920  15.118   2.707
32033W        W 1914  10.272  27.160  14.826
32034W        W 1915  20.636  25.478   0.452
32035W        W 1916  21.680   3.844  13.892
32036W        W 1917  28.946  13.792  10.584
32037W        W 1918  43.445  24.129  11.118
32038W        W 1919  17.071  35.387   0.919
32039W        W 1920  18.690  15.150  11.425
32040W        W 1921   0.840   5.352   1.726
32041W        W 1922   2.760  37.365   4.325
32042W        W 1923  12.847   9.677  13.935
32043W        W 1924  29.502  33.543  10.137
32044W        W 1925  16.728  14.684  11.972
32045W        W 1926   9.845   3.410   4.127
32046W        W 1927  43.443  20.700   2.761
32047W        W 1928  19.248  38.353   3.680
32048W        W 1929   1.958  37.374   1.361
32049W        W 1930   6.295  34.901   4.704
32050W        W 1931  35.594  31.088   4.733
32051W        W 1932  23.722  36.047   0.461
32052W        W 1933  39.029   7.780  12.902
32053W        W 1934  39.065  38.951  11.484
32054W        W 1935  35.096   7.199   0.354
32055W        W 1936  25.505   9.853   4.302
32056W        W 1937  41.495  13.807   2.861
32057W        W 1938  38.364  38.415  12.033
32058W        W 1939  40.534  11.802   9.969
32059W        W 1940  27.665  33.102  11.864
32060W        W 1941  31.072  24.139  14.958
32061W        W 1942  44.902  36.545   4.822
32062W        W 1943  23.612   5.337  13.832
32063W        W 1944  22.177   2.859  12.025
32064W        W 1945  25.127  13.839  12.860
32065W        W 1946  44.917  25.102   2.246
32066W        W 1947   1.811  35.866  10.904
32067W        W 1948  11.290  23.514   3.734
32068W        W 1949   0.987   9.355  12.379
32069W        W 1950  27.538  31.144  14.775
32070W        W 1951  17.594   3.768  12.393
32071W        W 1952  16.783  28.586  13.393
32072W        W 1953  25.184  36.092  14.930
32073W        W 1954   5.921  33.941   3.330
32074W        W 1955  12.809   2.329  11.855
32075W        W 1956  20.620  27.561   3.307
32076W        W 1957   1.790   6.893  14.509
32077W        W 1958  32.602  35.944   4.201
32078W        W 1959   6.348   8.742   0.330
32079W        W 1960  39.369  31.427   0.265
32080W        W 1961  29.498  33.496   0.756
32081W        W 1962  25.591  21.242  10.960
32082W        W 1963  10.830  22.612   0.371
32083W        W 1964  19.765  28.075   1.761
32084W        W 1965  16.618  14.258   2.361
32085W        W 1966  30.063  12.811  14.449
32086W        W 1967   3.767   1.935  14.004
32087W        W 1968  38.463  11.770   0.369
32088W        W 1969  39.890  15.681  14.388
32089W        W 1970  19.661  19.770   2.725
32090W        W 1971  42.797   6.277  11.112
32091W        W 1972   9.246  38.355   3.350
32092W        W 1973  18.269  21.140   3.844
32093W        W 1974  30.073   6.851  14.929
32094W        W 1975  41.360  19.229  11.017
32095W        W 1976  27.466  12.619   4.747
32096W        W 1977  21.564  39.816  14.795
32097W        W 1978   1.755   1.948   4.798
32098W        W 1979  30.596  11.360  12.894
32099W        W 1980  12.743  32.491  14.793
32100W        W 1981   5.301  18.214   0.274
32101W        W 1982  31.930  37.066   4.740
32102W        W 1983  36.070  29.637  11.518
32103W        W 1984  41.451  10.686  12.440
32104W        W 1985  27.633  30.489  10.555
32105W        W 1986  15.583  37.862  12.564
32106W        W 1987  44.812  23.596   2.205
32107W        W 1988  11.368  42.834  12.550
32108W        W 1989  15.774  18.263  12.545
32109W        W 1990  39.012  42.003   0.904
32110W        W 1991   3.856  26.191  11.412
32111W        W 1992  44.865  21.671  14.346
32112W        W 1993  24.627   7.885  11.391
32113W        W 1994  11.814  25.161   5.206
32114W        W 1995  21.648  18.053   4.672
32115W        W 1996  15.670  22.732   3.793
32116W        W 1997   9.812  29.918   1.796
32117W        W 1998  25.024  41.948  10.413
32118W        W 1999  13.630  44.307   1.777
32119W        W 2000   9.280  22.099  13.380
32120W        W 2001  27.081  19.198  11.127
32121W        W 2002   8.278  22.501  10.987
32122W        W 2003   6.898   3.939   0.408
32123W        W 2004   2.898  36.593   0.326
32124W        W 2005  29.954  16.788  14.503
32125W        W 2006  23.014   4.349  12.409
32126W        W 2007  43.391  18.545  13.415
32127W        W 2008  28.982  42.943  13.942
32128W        W 2009   5.361  10.739  13.868
32129W        W 2010   0.318  31.600   3.812
32130W        W 2011   3.921  18.787  14.937
32131W        W 2012  26.630  20.083   2.803
32132W        W 2013  11.694  27.994   4.763
32133W        W 2014  25.712  22.737   3.679
32134W        W 2015  22.047  20.523  12.996
32135W        W 2016   1.794  40.985   4.609
32136W        W 2017  38.416  21.232  12.415
32137W        W 2018  22.711  21.233  10.641
32138W        W 2019  23.193  34.084  12.424
32139W        W 2020  32.403  14.633   3.220
32140W        W 2021  12.703  17.723   2.696
32141W        W 2022  20.060  43.897   4.146
32142W        W 2023  44.369  43.823  14.989
32143W        W 2024  35.014  15.679  11.995
32144W        W 2025  35.027  17.150  14.868
32145W        W 2026   7.200  24.580  14.428
32146W        W 2027  34.437   6.294   2.815
32147W        W 2028  13.675  20.725   3.685
32148W        W 2029  28.546  13.788  12.077
32149W        W 2030  10.167  26.637  10.116
32150W        W 2031  44.411  32.575  13.524
32151W        W 2032  17.148   0.360  13.971
32152W        W 2033  27.181  41.304  12.370
32153W        W 2034  28.090  28.534   4.804
32154W        W 2035   2.869  36.906   4.348
32155W        W 2036   9.207  13.681   3.846
32156W        W 2037  29.540  34.503  13.914
32157W        W 2038  26.465  13.345   1.781
32158W        W 2039  41.336  27.450  13.472
32159W        W 2040  34.979  39.911   2.371
32160W        W 2041  31.967   7.356  13.793
32161W        W 2042  37.369  29.515  10.482
32162W        W 2043  41.374  32.455   2.740
32163W        W 2044  38.332   0.434   1.712
32164W        W 2045  13.207  17.793   1.736
32165W        W 2046   8.686  17.641  13.970
32166W        W 2047   0.835  29.518  11.031
32167W        W 2048  29.033   7.338   4.194
32168W        W 2049  31.051  10.199  11.603
32169W        W 2050  10.150  14.725  12.943
32170W        W 2051  31.956  13.776   2.191
32171W        W 2052  28.111  42.792   2.369
32172W        W 2053  12.334  34.375  12.056
32173W        W 2054  35.599  20.119   1.862
32174W        W 2055  23.102  12.788   0.468
32175W        W 2056  21.041  17.665   1.359
32176W        W 2057  14.769  23.577   4.743
32177W        W 2058  30.050  24.149  10.571
32178W        W 2059   6.223  19.629   3.209
32179W        W 2060  25.097  19.200  10.599
32180W        W 2061  12.322  42.392  13.412
32181W        W 2062  22.022  29.428  14.340
32182W        W 2063  16.303  17.790  12.836
32183W        W 2064   1.859  18.611   1.387
32184W        W 2065  36.351  23.664   3.147
32185W        W 2066  26.124  28.589   1.261
32186W        W 2067  40.413  16.118   4.212
32187W        W 2068  27.126  41.819   1.760
32188W        W 2069  24.102  44.311  14.921
32189W        W 2070  33.954  15.662  11.981
32190W        W 2071  25.194  26.051   1.785
32191W        W 2072  42.845  35.895   0.815
32192W        W 2073  16.622  40.513  12.953
32193W        W 2074  32.115  40.042  11.373
32194W        W 2075   7.382  10.377   4.829
32195W        W 2076  40.823  18.791  12.573
32196W        W 2077   1.341  13.146   3.715
32197W        W 2078  19.543  22.107   1.399
32198W        W 2079  43.941   4.846   0.865
32199W        W 2080  36.864  20.104   3.155
32200W        W 2081  36.059  18.552   4.757
32201W        W 2082   9.289   0.849   1.323
32202W        W 2083  44.497   4.827  12.880
32203W        W 2084  38.411  35.037   2.354
32204W        W 2085  16.281  25.147   0.440
32205W        W 2086  25.033  18.579  11.444
32206W        W 2087  38.053   0.961   2.231
32207W        W 2088  38.980   5.226  10.609
32208W        W 2089   3.941   6.753  10.892
32209W        W 2090  40.316  43.415   3.835
32210W        W 2091   4.782   6.820   3.836
32211W        W 2092  17.077   3.440   4.200
32212W        W 2093  32.909  21.043  14.274
32213W        W 2094  43.839   6.781  13.982
32214W        W 2095   8.386  26.565   0.296
32215W        W 2096  10.254   9.291  11.913
32216W        W 2097  28.648  42.387  14.367
32217W        W 2098   5.406  33.427  13.919
32218W        W 2099  33.587  23.186  13.453
32219W        W 2100  41.863  25.634   4.791
32220W        W 2101   4.435  26.009  13.544
32221W        W 2102  21.183  26.166   2.295
32222W        W 2103  25.063  31.032  14.493
32223W        W 2104  44.876  22.608   2.833
32224W        W 2105   5.771  31.123  12.434
32225W        W 2106  20.682  15.310  12.529
32226W        W 2107   1.975   8.295  11.592
32227W        W 2108  28.456  43.398  13.864
32228W        W 2109  35.874  38.465  14.386
32229W        W 2110   2.263   7.702   4.769
32230W        W 2111  25.679  44.446  11.447
32231W        W 2112  24.034  21.193   1.898
32232W        W 2113  16.636  32.061   1.447
32233W        W 2114  39.355  23.656   4.286
32234W        W 2115  31.597  16.107  12.096
32235W        W 2116  13.128  36.385  13.871
32236W        W 2117  40.361  24.204   5.082
32237W        W 2118  22.051   7.711   1.865
32238W        W 2119   0.327  15.218  11.957
32239W        W 2120  16.118   7.704  14.937
32240W        W 2121  35.382  35.077   3.162
32241W        W 2122  28.620   7.396  12.006
32242W        W 2123  20.571  23.162   0.284
32243W        W 2124  20.543  10.336  11.987
32244W        W 2125   6.901   3.918   3.267
32245W        W 2126  37.942  33.436  14.280
32246W        W 2127  26.670  39.449   3.677
32247W        W 2128  12.656  39.358   4.830
32248W        W 2129  15.658  43.817   3.713
32249W        W 2130  13.207   8.803   3.256
32250W        W 2131  41.957  44.801   3.672
32251W        W 2132   8.795  19.271   2.377
32252W        W 2133  10.365  40.535  13.898
32253W        W 2134  17.623   0.963   2.349
32254W        W 2135  20.622  35.954   4.135
32255W        W 2136  20.571  27.009  12.856
32256W        W 2137  33.439  34.923   5.308
32257W        W 2138  17.209  34.469   0.876
32258W        W 2139   7.895   0.829  12.341
32259W        W 2140  20.625  26.166  13.515
32260W        W 2141  12.336  11.281   3.285
32261W        W 2142   3.819   4.379   1.273
32262W        W 2143   6.849  31.931  13.396
32263W        W 2144  29.957   8.867   9.996
32264W        W 2145  44.909  41.390   1.297
32265W        W 2146  42.004  25.577  13.874
32266W        W 2147  37.013  33.450   2.824
32267W        W 2148  14.768  39.968  11.883
32268W        W 2149  13.187   6.186   9.982
32269W        W 2150  13.349  16.133  11.077
32270W        W 2151  34.518  25.144  12.916
32271W        W 2152  35.601  31.533   2.834
32272W        W 2153   2.724  12.754  13.329
32273W        W 2154  15.088  41.942  12.457
32274W        W 2155  26.116  16.190   0.796
32275W        W 2156  34.976  34.594   2.281
32276W        W 2157   3.228  31.512   4.805
32277W        W 2158  24.650   1.356  13.327
32278W        W 2159  23.515  39.332   0.737
32279W        W 2160   0.877  35.428   3.329
32280W        W 2161  25.180  24.589   0.751
32281W        W 2162  24.116  25.999  12.084
32282W        W 2163  22.551  34.577  10.454
32283W        W 2164   6.775  13.629   0.820
32284W        W 2165  28.479  14.215  14.027
32285W        W 2166  13.191  37.074   1.870
32286W        W 2167  34.438  28.576   1.827
32287W        W 2168  19.047  28.470   0.729
32288W        W 2169  12.262   3.403  10.421
32289W        W 2170  15.623  24.099  11.978
32290W        W 2171  36.048  35.982   1.799
32291W        W 2172  25.119  24.540   4.139
32292W        W 2173  20.750   7.889  12.407
32293W        W 2174  18.107  25.092   4.721
32294W        W 2175  30.967  37.926  14.409
32295W        W 2176   8.245  32.571   1.403
32296W        W 2177  42.337  43.851   1.850
32297W        W 2178  35.380  38.513  14.767
32298W        W 2179  19.697  21.103   0.265
32299W        W 2180  10.149  35.515   0.777
32300W        W 2181   9.684  15.124   1.822
32301W        W 2182  15.171  19.697  12.834
32302W        W 2183  41.806  42.027   0.780
32303W        W 2184  16.150  16.144   0.481
32304W        W 2185  28.537  43.294  14.438
32305W        W 2186  23.126  16.663   1.269
32306W        W 2187   1.763  41.790  14.814
32307W        W 2188  26.046  33.032  12.029
32308W        W 2189   9.719  11.698  11.477
32309W        W 2190  31.046  15.779   4.150
32310W        W 2191  44.372  41.298  12.015
32311W        W 2192  20.110  28.546  14.477
32312W        W 2193   1.333  24.079  11.588
32313W        W 2194  12.335  23.053   1.440
32314W        W 2195  21.693  26.541  14.947
32315W        W 2196   1.900  39.540  10.526
32316W        W 2197  26.990  22.084   4.777
32317W        W 2198  38.391  13.696   3.765
32318W        W 2199  43.347   4.792   0.850
32319W        W 2200   7.397  39.895   2.379
32320W        W 2201   7.399  11.794  13.991
32321W        W 2202  43.950  42.940  13.943
32322W        W 2203  33.619  14.335   5.096
32323W        W 2204  25.052  16.729  13.306
32324W        W 2205  26.546  39.483  12.016
32325W        W 2206  30.470  29.660  14.906
32326W        W 2207  33.586  22.669   2.243
32327W        W 2208  23.991  41.414  13.413
32328W        W 2209  41.927   5.225  13.532
32329W        W 2210  21.194  32.060   2.389
32330W        W 2211   6.864  40.036   0.843
32331W        W 2212  25.202  33.386  11.560
32332W        W 2213  16.810  27.021  11.866
32333W        W 2214   7.881  31.896  13.477
32334W        W 2215  43.808  10.701   0.931
32335W        W 2216   3.267  25.963   2.716
32336W        W 2217  30.493  35.549  11.575
32337W        W 2218  31.584  23.519  14.515
32338W        W 2219  35.412  34.030  13.407
32339W        W 2220  13.603  29.946   3.235
32340W        W 2221  15.172  29.134   3.657
32341W        W 2222  18.216  44.429   3.265
32342W        W 2223  36.850   3.278   3.326
32343W        W 2224  11.716  24.030  13.870
32344W        W 2225   4.769  28.675  11.401
32345W        W 2226  28.987   5.858   3.676
32346W        W 2227  41.416  44.769   0.791
32347W        W 2228  21.540  41.937  13.376
32348W        W 2229  31.533  22.688   0.467
32349W        W 2230   2.439  38.462  12.942
32350W        W 2231  11.799   1.294   1.303
32351W        W 2232   2.892   3.732   1.447
32352W        W 2233  30.015   2.280   3.169
32353W        W 2234  39.519  19.063   2.188
32354W        W 2235  32.625  25.182  12.356
32355W        W 2236  16.102  35.953   2.758
32356W        W 2237  38.945  21.122  11.501
32357W        W 2238  16.736  39.373  11.579
32358W        W 2239   8.283  31.563   4.115
32359W        W 2240  32.886  18.186  12.016
32360W        W 2241  43.355  21.071   2.396
32361W        W 2242  11.660  17.255  10.522
32362W        W 2243  41.958  26.480  10.452
32363W        W 2244  24.121  19.281   5.280
32364W        W 2245  17.093  26.630  14.491
32365W        W 2246  13.348  24.036   3.726
32366W        W 2247  21.025   3.383   3.212
32367W        W 2248  18.134  27.012   3.718
32368W        W 2249  43.292  24.999   2.412
32369W        W 2250  43.974  39.898  11.975
32370W        W 2251   8.305  13.178   2.361
32371W        W 2252  43.431  11.298   1.830
32372W        W 2253  39.044   0.869  12.865
32373W        W 2254  31.097  21.228  14.930
32374W        W 2255  34.552  37.435   3.849
32375W        W 2256  25.179  25.475   3.772
32376W        W 2257  13.823  37.977   2.676
32377W        W 2258   2.875  31.986  11.524
32378W        W 2259  42.405  16.120   3.324
32379W        W 2260   1.971  36.385   4.222
32380W        W 2261  29.032  33.553   2.748
32381W        W 2262   2.321  33.529   3.740
32382W        W 2263   0.252  40.867  12.917
32383W        W 2264  14.123  30.129  14.358
32384W        W 2265  13.227  22.037   4.252
32385W        W 2266  34.872  21.056   4.823
32386W        W 2267  37.511  10.854   4.808
32387W        W 2268  16.800  37.513   2.869
32388W        W 2269  14.732  33.412  14.781
32389W        W 2270  16.267  25.072   2.673
32390W        W 2271  29.614  12.320   2.665
32391W        W 2272  25.570  23.664   0.931
32392W        W 2273  23.715  35.507   1.354
32393W        W 2274  29.071  15.271  13.887
32394W        W 2275   9.390  16.628  11.017
32395W        W 2276  41.973  35.992   0.336
32396W        W 2277  24.482  23.045  13.959
32397W        W 2278  42.437  27.479   2.743
32398W        W 2279  13.173  33.885   2.679
32399W        W 2280  12.835  20.251  12.428
32400W        W 2281  23.107  21.167  12.045
32401W        W 2282  23.232  34.455   3.862
32402W        W 2283  14.665  30.997   4.253
32403W        W 2284  29.105  17.164  10.567
32404W        W 2285  35.395  34.946   0.467
32405W        W 2286  19.560   5.725  13.457
32406W        W 2287  11.849  21.602  12.958
32407W        W 2288  44.836  40.896   0.879
32408W        W 2289  44.879  11.810   4.262
32409W        W 2290  36.094  27.145  13.986
32410W        W 2291  43.876  16.743   2.203
32411W        W 2292   5.913   5.839   4.311
32412W        W 2293   4.297  33.581   2.719
32413W        W 2294  39.389  38.877  12.467
32414W        W 2295   6.719   0.862   2.670
32415W        W 2296  17.690   1.846   1.803
32416W        W 2297  13.811  13.673   2.304
32417W        W 2298  26.182  14.775  14.812
32418W        W 2299  15.123  25.013  12.539
32419W        W 2300  14.201  42.803   3.255
32420W        W 2301   4.804  10.296  13.894
32421W        W 2302  35.447  22.562   3.280
32422W        W 2303  37.375   1.893  11.388
32423W        W 2304   7.695  30.605  11.023
32424W        W 2305  42.353   0.432  14.963
32425W        W 2306  12.646  18.198   2.394
32426W        W 2307  18.700  31.925   5.146
32427W        W 2308  14.215  12.795  10.421
32428W        W 2309  40.432  10.754   2.372
32429W        W 2310  39.980  41.007   2.843
32430W        W 2311  30.085  17.270  12.947
32431W        W 2312  41.011  30.458  12.360
32432W        W 2313  11.327  37.438   5.315
32433W        W 2314  21.657  43.003  11.950
32434W        W 2315  30.461   1.397   3.707
32435W        W 2316   0.754  13.704   1.311
32436W        W 2317   5.692   7.788  11.502
32437W        W 2318  39.843  20.217   0.929
32438W        W 2319  39.540  27.660  12.894
32439W        W 2320  44.308  17.711   2.679
32440W        W 2321   8.348  17.065  12.857
32441W        W 2322  16.246  26.162  11.499
32442W        W 2323   5.754  32.400  14.760
32443W        W 2324  39.027  15.133   3.854
32444W        W 2325  39.052  13.204   4.133
32445W        W 2326  17.195  28.549   1.408
32446W        W 2327  17.082  25.004  11.951
32447W        W 2328   5.849  27.495   2.327
32448W        W 2329  40.311  28.066   1.317
32449W        W 2330  25.035  22.137   3.320
32450W        W 2331  15.319   5.883   2.409
32451W        W 2332   1.438   5.199  11.550
32452W        W 2333   4.403  34.428  11.007
32453W        W 2334  36.005  14.299  10.990
32454W        W 2335  44.475  32.086   2.314
32455W        W 2336  36.913  39.556  10.424
32456W        W 2337  32.888   0.469   0.289
32457W        W 2338  42.333  26.631   3.163
32458W        W 2339  20.622  32.623   3.789
32459W        W 2340  22.143  27.018   4.639
32460W        W 2341   5.300   5.703   3.713
32461W        W 2342  14.160   7.679   0.734
32462W        W 2343  34.997  13.701  13.849
32463W        W 2344  37.453  37.075  14.870
32464W        W 2345   9.283   8.230   0.440
32465W        W 2346  25.478  44.260  10.156
32466W        W 2347  17.068  33.883   0.898
32467W        W 2348  38.074  42.799   1.387
32468W        W 2349  16.653  28.501   0.914
32469W        W 2350  41.792  16.251  14.311
32470W        W 2351  40.826   8.256  12.830
32471W        W 2352  11.333  26.675  10.908
32472W        W 2353  25.692  21.224   0.748
32473W        W 2354  22.145  20.068  12.893
32474W        W 2355  12.620  44.817   2.407
32475W        W 2356  29.090   6.780   9.957
32476W        W 2357   9.772  38.929   2.378
32477W        W 2358  40.347  38.438  10.642
32478W        W 2359   6.280  27.648   4.314
32479W        W 2360   5.362  11.299   3.174
32480W        W 2361  39.811  40.432   3.860
32481W        W 2362  19.559   1.949   0.787
32482W        W 2363  41.434  13.157  10.550
32483W        W 2364  26.547  25.646   1.715
32484W        W 2365  44.303  10.184   4.328
32485W        W 2366   4.787  36.527   3.277
32486W        W 2367  22.227  37.448  10.918
32487W        W 2368  13.826  40.510   3.728
32488W        W 2369  39.914   5.851  10.476
32489W        W 2370  39.816  39.425  14.277
32490W        W 2371  33.062  15.246   1.833
32491W        W 2372  14.599  37.914  14.889
32492W        W 2373  29.013  37.445   2.402
32493W        W 2374  13.266  35.918  13.535
32494W        W 2375  44.304  42.303   0.362
32495W        W 2376  33.925  29.155  10.895
32496W        W 2377  36.454   1.789   1.392
32497W        W 2378  16.155  36.424   4.777
32498W        W 2379   9.717  31.116   3.852
32499W        W 2380  16.648  32.081  14.405
32500W        W 2381  32.111  31.616  14.386
32501W        W 2382  41.432  44.486  12.970
32502W        W 2383   8.698  31.112  10.601
32503W        W 2384  43.337  21.110  12.073
32504W        W 2385  34.034  18.661  10.637
32505W        W 2386   3.332  31.062   0.351
32506W        W 2387  26.475  16.717  13.909
32507W        W 2388   7.280  40.399  13.310
32508W        W 2389   3.945  11.848  10.985
32509W        W 2390   9.703  17.176   0.267
32510W        W 2391   8.271   7.813   1.733
32511W        W 2392   9.386  15.152   3.174
32512W        W 2393  36.372  25.642  13.018
32513W        W 2394  33.929  37.026  13.481
32514W        W 2395   1.853   2.794   1.398
32515W        W 2396  23.061  17.119  12.939
32516W        W 2397  31.603  16.588   4.126
32517W        W 2398  20.612   9.790   4.799
32518W        W 2399  17.648  24.560  12.528
32519W        W 2400  34.384  31.569   3.289
32520W        W 2401  26.563  32.942  10.528
32521W        W 2402  27.469  21.677   2.750
32522W        W 2403   8.749  29.050  13.953
32523W        W 2404  36.424  35.873   1.871
32524W        W 2405  39.523  26.513   4.168
32525W        W 2406  41.521  13.666  14.337
32526W        W 2407  24.193   7.374   0.932
32527W        W 2408  15.308  16.579  14.997
32528W        W 2409  28.083  18.146   5.273
32529W        W 2410  10.748  40.474  14.365
32530W        W 2411  12.769  34.457   1.758
32531W        W 2412  42.340  11.763   4.225
32532W        W 2413  23.184  41.043   3.729
32533W        W 2414   2.243  30.612   3.848
32534W        W 2415  37.357  43.866   1.881
32535W        W 2416  42.418   9.790  10.595
32536W        W 2417   1.785  23.732   1.360
32537W        W 2418  34.472   6.261  11.046
32538W        W 2419  32.492  19.250  13.508
32539W        W 2420  25.551  18.646   1.835
32540W        W 2421  25.608   0.454  11.033
32541W        W 2422  12.669   2.243  11.477
32542W        W 2423   8.665  25.094  10.418
32543W        W 2424   6.815  33.104  13.853
32544W        W 2425  38.398  43.972  12.559
32545W        W 2426   6.890  32.616  13.838
32546W        W 2427  16.628  26.095  14.982
32547W        W 2428  39.530  26.001   0.745
32548W        W 2429   8.180  19.707   2.385
32549W        W 2430  42.970   5.341   4.191
32550W        W 2431  11.305  23.191  11.099
32551W        W 2432  29.513  21.547   4.116
32552W        W 2433  12.812  28.471  14.011
32553W        W 2434   7.310  25.042  14.388
32554W        W 2435   5.273   7.696  14.505
32555W        W 2436   9.192  22.130  13.901
32556W        W 2437  23.998  28.936  13.486
32557W        W 2438  43.488  36.891  11.958
32558W        W 2439  21.183  33.448  14.851
32559W        W 2440  14.753   0.320  11.009
32560W        W 2441  15.644  19.148   1.359
32561W        W 2442  14.635   8.779   0.352
32562W        W 2443  41.487  20.108  11.419
32563W        W 2444  25.508  40.374  11.038
32564W        W 2445  20.714  43.481  10.456
32565W        W 2446  35.976  33.594  14.760
32566W        W 2447  20.702  43.869  10.568
32567W        W 2448   0.958  23.694   0.787
32568W        W 2449  24.053  10.865  10.610
32569W        W 2450   0.323  41.476  14.856
32570W        W 2451  19.203  36.502   4.652
32571W        W 2452  10.814  38.887   2.715
32572W        W 2453  21.553  44.349  13.530
32573W        W 2454   9.216  12.158   1.339
32574W        W 2455  15.824  40.851   0.742
32575W        W 2456  12.761  37.949   3.684
32576W        W 2457  33.410  20.117  14.786
32577W        W 2458  31.910  21.170   5.136
32578W        W 2459  39.980  30.036  14.480
32579W        W 2460  41.983  27.616   4.188
32580W        W 2461  40.975   8.206   2.203
32581W        W 2462   4.764  39.997  13.323
32582W        W 2463  33.936  15.100   3.258
32583W        W 2464  37.527  24.595  14.479
32584W        W 2465  31.967  40.937   1.316
32585W        W 2466   8.376  17.728   4.602
32586W        W 2467  43.369  13.619  13.401
32587W        W 2468  22.673   2.940   3.675
32588W        W 2469   7.279  29.563  10.940
32589W        W 2470  13.123  38.038   0.728
32590W        W 2471  10.302  16.611   0.934
32591W        W 2472  31.508  42.382  14.949
32592W        W 2473  24.614  13.661   0.753
32593W        W 2474  40.306  39.523  10.545
32594W        W 2475  26.510  36.475   4.718
32595W        W 2476  44.971   7.232   4.701
32596W        W 2477  28.563  19.722  10.523
32597W        W 2478  42.447  37.516  12.878
32598W        W 2479  25.105  39.955   1.756
32599W        W 2480  39.945  20.618   2.411
32600W        W 2481  10.767  23.061  13.009
32601W        W 2482  23.603   3.384   4.166
32602W        W 2483  16.229  19.646   0.828
32603W        W 2484  43.496  18.145   1.318
32604W        W 2485   7.797  13.188   2.832
32605W        W 2486  10.229  41.461   3.307
32606W        W 2487  18.276  32.971   0.853
32607W        W 2488  29.028  42.450   0.403
32608W        W 2489   0.438   4.824   3.745
32609W        W 2490  32.425   5.316   2.765
32610W        W 2491  38.355  39.943  13.004
32611W        W 2492   8.387   5.865  14.362
32612W        W 2493  27.621   4.424   0.253
32613W        W 2494  36.069   1.927  13.942
32614W        W 2495  25.995  29.117  14.781
32615W        W 2496  39.401  17.203   0.287
32616W        W 2497  22.154  24.078   3.817
32617W        W 2498  10.304  28.599  14.015
32618W        W 2499  36.008  18.682   0.930
32619W        W 2500   7.268   6.861   0.770
32620W        W 2501  33.006   1.465   2.787
32621W        W 2502  42.470   4.325  10.552
32622W        W 2503  40.033  22.584   2.219
32623W        W 2504  39.930  12.799   3.329
32624W        W 2505   6.419  15.083   1.291
32625W        W 2506  35.536  20.261  13.456
32626W        W 2507  27.943  20.072  14.882
32627W        W 2508  40.863  42.389   1.749
32628W        W 2509  29.122  10.673  12.360
32629W        W 2510  33.607  18.657  13.513
32630W        W 2511  32.541  20.180   2.356
32631W        W 2512  28.640  42.840   4.304
32632W        W 2513  16.135   5.927   3.370
32633W        W 2514   0.377  15.670   3.334
32634W        W 2515  17.281  44.935   3.375
32635W        W 2516  11.371   1.937   0.798
32636W        W 2517  42.496   7.796   3.664
32637W        W 2518  25.624  15.193  13.886
32638W        W 2519   6.396  26.539   1.383
32639W        W 2520  38.358  16.268   4.613
32640W        W 2521  21.515  29.634   3.157
32641W        W 2522  33.014  41.035  13.454
32642W        W 2523  34.523  27.943   2.394
32643W        W 2524  27.170  26.192  10.944
32644W        W 2525  39.347  16.645   1.392
32645W        W 2526  19.710   0.317   0.278
32646W        W 2527  35.393  28.664   0.365
32647W        W 2528  37.911  36.374  12.356
32648W        W 2529  17.639  24.638  14.792
32649W        W 2530  42.322  25.498   1.778
32650W        W 2531  35.907  12.716  13.913
32651W        W 2532   2.957  20.091  13.887
32652W        W 2533  12.148  43.452  14.389
32653W        W 2534  25.019  30.623  13.539
32654W        W 2535  40.428   7.267   1.425
32655W        W 2536  17.265  15.602  10.151
32656W        W 2537  20.230   9.347   4.651
32657W        W 2538   4.836  34.036   2.212
32658W        W 2539  12.325  43.941   4.240
32659W        W 2540  22.651  21.229  11.546
32660W        W 2541  27.492  30.148   1.336
32661W        W 2542  17.150   3.891  10.106
32662W        W 2543  30.998   3.290  13.373
32663W        W 2544   6.396  39.987  12.371
32664W        W 2545  43.972  27.472  10.456
32665W        W 2546  15.307  12.326  14.976
32666W        W 2547  19.675  17.120  12.496
32667W        W 2548  31.035  37.449   0.923
32668W        W 2549  19.778  10.277   2.675
32669W        W 2550  15.626   5.782   2.299
32670W        W 2551  37.065  33.595   4.616
32671W        W 2552  29.968  23.030  13.544
32672W        W 2553   7.759  23.182   2.250
32673W        W 2554   5.270  13.738  14.925
32674W        W 2555  19.151  37.546  12.832
32675W        W 2556   2.819  12.735  14.447
32676W        W 2557  40.044   5.358  11.537
32677W        W 2558  43.944   1.476   2.666
32678W        W 2559   9.158   7.255   3.208
32679W        W 2560  15.816  17.668   1.764
32680W        W 2561  24.617  38.325   2.861
32681W        W 2562  29.931  37.394   4.158
32682W        W 2563  13.119  15.317  12.934
32683W        W 2564  25.020  37.917   3.721
32684W        W 2565  18.560  14.637   2.779
32685W        W 2566  10.730  14.636   4.288
32686W        W 2567  24.597   2.853   2.195
32687W        W 2568   6.409  36.894  12.436
32688W        W 2569  27.091  23.123  14.772
32689W        W 2570  17.779   5.194  10.417
32690W        W 2571  40.436  17.785  11.923
32691W        W 2572  17.113  39.879   3.212
32692W        W 2573   0.349  15.732   2.331
32693W        W 2574  12.804  39.982   1.908
32694W        W 2575  44.298   7.823   1.294
32695W        W 2576  19.659  34.519  13.485
32696W        W 2577  22.234  41.032   0.767
32697W        W 2578   5.240   8.390   2.325
32698W        W 2579  37.340  14.319   3.295
32699W        W 2580  41.430  23.491  13.060
32700W        W 2581  12.341  20.669   0.774
32701W        W 2582  11.778  32.453  10.434
32702W        W 2583  25.531  20.624   2.715
32703W        W 2584  38.068  31.149   0.346
32704W        W 2585  36.397  41.848   4.171
32705W        W 2586  17.651   6.205   1.734
32706W        W 2587  31.002  24.224   1.228
32707W        W 2588   7.752   0.470  13.369
32708W        W 2589   9.339  18.051   4.658
32709W        W 2590  22.707   6.280  14.512
32710W        W 2591  18.655  38.500   4.829
32711W        W 2592  11.791  36.528   1.245
32712W        W 2593  34.936  16.262  12.390
32713W        W 2594  26.554  32.135   0.369
32714W        W 2595   8.721  36.870  11.004
32715W        W 2596  39.922  39.534  13.314
32716W        W 2597  34.556  16.590   1.289
32717W        W 2598  31.562  20.223   4.123
32718W        W 2599  39.868  12.362  11.068
32719W        W 2600   4.737   6.883  12.360
32720W        W 2601  37.921  15.289  11.908
32721W        W 2602  22.561  14.785  11.111
32722W        W 2603   0.987   8.757  10.063
32723W        W 2604   9.767  29.079   4.636
32724W        W 2605  23.724  40.846  10.538
32725W        W 2606  20.225  24.636   2.412
32726W        W 2607  29.476  43.324  14.346
32727W        W 2608  11.691   1.830  11.469
32728W        W 2609  39.040  19.076   1.287
32729W        W 2610  36.540  25.126  13.531
32730W        W 2611  22.641   9.758   1.349
32731W        W 2612  39.007  22.660   2.308
32732W        W 2613   7.842  42.864  10.446
32733W        W 2614   6.213  43.428  11.426
32734W        W 2615  36.353  40.428  11.061
32735W        W 2616   8.708  11.680  10.604
32736W        W 2617  13.119   6.682   3.637
32737W        W 2618  19.054  10.694  14.368
32738W        W 2619  29.494  19.592   5.159
32739W        W 2620   3.832  23.638   0.811
32740W        W 2621  19.600   3.748   3.674
32741W        W 2622  20.712  14.095  12.829
32742W        W 2623   6.734  31.448   0.426
32743W        W 2624   6.807   3.302  11.477
32744W        W 2625   8.359  34.583   2.901
32745W        W 2626  25.615  14.314  10.457
32746W        W 2627  31.154  40.870   1.365
32747W        W 2628  21.589  20.701  12.914
32748W        W 2629  42.393  43.322  11.950
32749W        W 2630  25.196  23.077  11.448
32750W        W 2631  26.593  44.466   4.156
32751W        W 2632   6.734  17.797   1.843
32752W        W 2633  31.024  41.350  12.935
32753W        W 2634  21.565  21.021  10.077
32754W        W 2635  11.153   3.830   1.811
32755W        W 2636  38.509  39.046  10.965
32756W        W 2637  32.944  21.030  12.824
32757W        W 2638  20.194   7.203   3.833
32758W        W 2639  19.260   7.362  10.413
32759W        W 2640  28.643   6.837   5.106
32760W        W 2641  25.682  11.171   1.858
32761W        W 2642  44.928  35.975   1.831
32762W        W 2643  15.590   8.818   0.317
32763W        W 2644  26.564  32.414   0.426
32764W        W 2645  23.570   9.345  12.404
32765W        W 2646  35.600   3.799   0.760
32766W        W 2647   0.827  37.393   2.202
32767W        W 2648  18.617  31.451  11.017
32768W        W 2649  11.833  42.889  13.455
32769W        W 2650  44.906  43.294  13.907
32770W        W 2651  24.576  39.557   3.821
32771W        W 2652  34.105   4.336  10.634
32772W        W 2653  34.379  42.485  11.571
32773W        W 2654  39.322   7.272   1.288
32774W        W 2655  41.491  43.376   4.808
32775W        W 2656  13.133   3.416   4.221
32776W        W 2657  33.913  27.074  11.066
32777W        W 2658  36.857  32.120  11.550
32778W        W 2659  30.419  40.381  14.928
32779W        W 2660  23.629  26.595   1.232
32780W        W 2661  43.970  31.988  13.524
32781W        W 2662   4.248  43.372   3.307
32782W        W 2663  31.079  42.838   3.282
32783W        W 2664   4.275  41.835   1.887
32784W        W 2665  32.000  31.931  11.888
32785W        W 2666  27.528   7.183   3.226
32786W        W 2667  34.569  28.029  10.506
32787W        W 2668  37.874   4.341  10.947
32788W        W 2669  24.615  17.667   9.472
32789W        W 2670  34.002   1.418   4.339
32790W        W 2671  21.598  33.430   4.786
32791W        W 2672   1.867   1.430  12.062
32792W        W 2673  26.017  39.937   2.361
32793W        W 2674  38.930  35.556   3.753
32794W        W 2675  12.283  22.607  11.038
32795W        W 2676  44.429  25.208  10.593
32796W        W 2677   9.277  21.537   4.185
32797W        W 2678  20.204  38.326  11.064
32798W        W 2679  41.990  31.494  12.015
32799W        W 2680  17.733  35.477   0.395
32800W        W 2681  41.485   3.388  10.979
32801W        W 2682  11.784  25.549   2.388
32802W        W 2683  20.698  35.953  14.822
32803W        W 2684   5.855   9.178   2.261
32804W        W 2685   8.894  37.353  12.384
32805W        W 2686  19.211   1.344   2.329
32806W        W 2687  24.080   5.227   1.799
32807W        W 2688   7.752  39.509  13.521
32808W        W 2689   9.238  25.676  14.961
32809W        W 2690  17.258  10.645   1.240
32810W        W 2691  31.420  38.427   4.804
32811W        W 2692  23.133  20.209  11.570
32812W        W 2693  39.970  16.716   0.939
32813W        W 2694  33.447  23.108  14.928
32814W        W 2695  16.644  21.520  13.425
32815W        W 2696   1.426  42.518  14.807
32816W        W 2697  10.274  36.428  14.386
32817W        W 2698  39.501   1.959   1.710
32818W        W 2699  25.192  26.622   1.705
32819W        W 2700  18.055  26.568   2.264
32820W        W 2701  28.096  33.092  14.918
32821W        W 2702   2.827  43.955   2.785
32822W        W 2703  39.837  18.589   4.167
32823W        W 2704  29.439  32.972   2.358
32824W        W 2705   2.742  12.721   0.412
32825W        W 2706  31.133  21.191  14.313
32826W        W 2707   7.789  37.000  12.857
32827W        W 2708  39.877  39.836  12.505
32828W        W 2709  21.525  18.605  14.775
32829W        W 2710   2.961   4.244   3.159
32830W        W 2711  28.629  13.124  12.507
32831W        W 2712   5.346   5.340   2.277
32832W        W 2713   6.407  14.726   3.663
32833W        W 2714  27.077   2.944  11.562
32834W        W 2715   5.778  32.037  12.481
32835W        W 2716  11.710  33.949   1.333
32836W        W 2717   4.834  41.415   4.629
32837W        W 2718  12.838  20.750   4.312
32838W        W 2719   1.406  31.124   0.465
32839W        W 2720  30.945  16.688   3.795
32840W        W 2721  25.062  14.160   2.195
32841W        W 2722  27.034  11.150  10.613
32842W        W 2723  13.615  15.296  12.867
32843W        W 2724   1.886  33.955   2.738
32844W        W 2725  32.636  40.971   2.754
32845W        W 2726  15.592  19.760   3.670
32846W        W 2727   6.244   0.349   0.739
32847W        W 2728  33.587   4.723   1.883
32848W        W 2729  16.635  44.396  13.007
32849W        W 2730  14.737  29.515   3.256
32850W        W 2731   1.238  42.494  13.458
32851W        W 2732  19.164  40.472  11.016
32852W        W 2733  24.661  21.707   4.750
32853W        W 2734   1.808  38.974   0.937
32854W        W 2735   8.307  14.322   3.197
32855W        W 2736  18.103  22.166  11.089
32856W        W 2737   4.895  44.929   4.289
32857W        W 2738  30.557  19.257  13.455
32858W        W 2739  37.926  26.138  14.801
32859W        W 2740  35.052  32.923   3.791
32860W        W 2741  39.932  26.113  11.394
32861W        W 2742  13.296  11.212   0.251
32862W        W 2743  34.566  44.271  12.967
32863W        W 2744  38.341   1.891  12.889
32864W        W 2745  42.821  36.942  14.027
32865W        W 2746   0.986  30.957  13.307
32866W        W 2747  43.355  44.768  14.427
32867W        W 2748   7.304  38.329   3.815
32868W        W 2749   1.297  38.554  13.934
32869W        W 2750  39.496  27.532   3.699
32870W        W 2751  27.010  26.670   5.137
32871W        W 2752  23.662  24.567  10.970
32872W        W 2753  21.021   1.784  14.972
32873W        W 2754  20.705  34.982   4.725
32874W        W 2755  35.901  40.046   1.429
32875W        W 2756   1.283   2.840   1.299
32876W        W 2757   8.393  33.961   4.209
32877W        W 2758  39.908  16.726   4.601
32878W        W 2759  33.988   3.801  12.924
32879W        W 2760  35.859  29.594   5.306
32880W        W 2761  25.101  41.996  12.052
32881W        W 2762  34.603  36.586  13.365
32882W        W 2763  30.926  37.579   0.385
32883W        W 2764  29.505  10.204   3.212
32884W        W 2765   8.708  35.515   1.766
32885W        W 2766  43.886   7.761   0.740
32886W        W 2767  13.624  12.839   1.373
32887W        W 2768  44.264  33.608   5.122
32888W        W 2769  10.874  30.119   4.778
32889W        W 2770  19.541   9.769  12.980
32890W        W 2771  26.625  21.115   0.252
32891W        W 2772  35.883  34.075  10.431
32892W        W 2773  28.527  40.833  11.919
32893W        W 2774   5.420  23.195   0.380
32894W        W 2775  25.057   0.827  11.910
32895W        W 2776  39.962  10.252   4.633
32896W        W 2777  40.413   5.835   0.436
32897W        W 2778   0.383  16.730  11.565
32898W        W 2779  43.950  35.542  14.816
32899W        W 2780  10.766  15.181  13.329
32900W        W 2781  17.608  11.333   2.404
32901W        W 2782  15.111  27.479  13.024
32902W        W 2783  42.899  14.771   1.921
32903W        W 2784  43.433  17.627  14.985
32904W        W 2785  37.064  16.221  10.900
32905W        W 2786   2.743  34.454  13.989
32906W        W 2787   8.249  31.596   3.802
32907W        W 2788  25.620  14.638  10.935
32908W        W 2789   6.252  42.462  14.980
32909W        W 2790  28.053  41.414  14.926
32910W        W 2791  13.645  26.102   1.367
32911W        W 2792  17.276  30.929  12.948
32912W        W 2793  34.091   8.830  12.470
32913W        W 2794  16.740  26.549  12.027
32914W        W 2795  38.069  24.031  12.456
32915W        W 2796  11.138   0.348  14.780
32916W        W 2797  40.303  14.667   1.775
32917W        W 2798  33.413   6.701  13.925
32918W        W 2799   7.873  29.430   5.146
32919W        W 2800  41.298  37.983  12.552
32920W        W 2801  35.576  40.891   2.872
32921W        W 2802  40.890  29.617  11.939
32922W        W 2803  27.552  30.657  11.503
32923W        W 2804  22.120  20.043  14.434
32924W        W 2805  10.146  30.973  12.374
32925W        W 2806  38.008  31.426  10.559
32926W        W 2807  35.367  16.618   3.166
32927W        W 2808  31.124  26.612  12.452
32928W        W 2809  16.117   5.207  14.814
32929W        W 2810   3.448   7.793   4.804
32930W        W 2811  12.312  18.161   5.286
32931W        W 2812  21.070  41.860   1.908
32932W        W 2813  31.122  36.891  11.934
32933W        W 2814   4.255  37.434  13.407
32934W        W 2815  22.139  14.667   0.901
32935W        W 2816   8.702  23.704   3.262
32936W        W 2817  41.319  29.030  14.404
32937W        W 2818   5.300  30.427   0.852
32938W        W 2819   6.918  36.433  11.059
32939W        W 2820   9.859  13.337   4.720
32940W        W 2821   0.861  27.068  13.994
32941W        W 2822  16.279   0.898  12.376
32942W        W 2823   0.357  30.085  14.415
32943W        W 2824  24.166  42.938   1.280
32944W        W 2825  36.964   3.403  13.478
32945W        W 2826   3.878  35.421  13.923
32946W        W 2827   3.752   5.348   4.724
32947W        W 2828   4.284  28.441  12.831
32948W        W 2829  12.679  38.392   1.865
32949W        W 2830  23.022  17.581   1.215
32950W        W 2831  20.749  23.571   2.273
32951W        W 2832  38.030  27.641  10.951
32952W        W 2833  16.770  35.066  12.088
32953W        W 2834  37.038  34.915  11.518
32954W        W 2835  40.483  38.541   0.738
32955W        W 2836  18.264   5.782   1.933
32956W        W 2837  25.672   2.744  11.587
32957W        W 2838  28.036  25.118  11.456
32958W        W 2839  34.404   3.862  10.994
32959W        W 2840   4.317   9.772   1.309
32960W        W 2841  27.025  17.775  11.421
32961W        W 2842  37.545  35.415  13.802
32962W        W 2843  29.552  40.030  13.333
32963W        W 2844  15.320  13.689   3.791
32964W        W 2845  22.693   1.754   3.677
32965W        W 2846  30.138  35.855  14.985
32966W        W 2847  40.479  43.933   4.180
32967W        W 2848  36.356   1.892  13.450
32968W        W 2849   1.907   2.381   0.854
32969W        W 2850   8.681   6.377  14.804
32970W        W 2851  14.721  12.142  12.047
32971W        W 2852  16.679  34.455  12.887
32972W        W 2853  28.534  28.454  11.487
32973W        W 2854  27.458  35.493  13.364
32974W        W 2855  18.090  25.028   3.337
32975W        W 2856   5.864  35.931   0.339
32976W        W 2857  33.440   8.849  11.525
32977W        W 2858  17.719  19.555  11.072
32978W        W 2859  41.396  26.475  14.443
32979W        W 2860  16.628   1.937  13.494
32980W        W 2861  24.138  18.583  14.365
32981W        W 2862  32.450   6.398   0.250
32982W        W 2863  20.617   1.301   9.991
32983W        W 2864  38.536  12.699   2.304
32984W        W 2865  25.577  23.512  11.931
32985W        W 2866  31.559  17.202  14.281
32986W        W 2867  21.083  25.531  11.889
32987W        W 2868  37.838  20.614   4.730
32988W        W 2869  36.428  27.500   4.157
32989W        W 2870  11.151  39.896  10.522
32990W        W 2871  19.162  17.603  10.620
32991W        W 2872  25.564  22.681   0.863
32992W        W 2873  44.761  23.624  10.467
32993W        W 2874  38.361  22.168  11.455
32994W        W 2875  26.198   7.711   4.130
32995W        W 2876  22.586  35.023  14.471
32996W        W 2877  30.030  20.536   2.821
32997W        W 2878  24.515  17.563  11.394
32998W        W 2879  41.436  32.955   0.756
32999W        W 2880  11.734  43.853   4.322
33000W        W 2881   6.707  42.921   1.255
33001W        W 2882  43.441  26.678   2.898
33002W        W 2883  34.046  30.623  13.503
33003W        W 2884  30.543   0.427  12.433
33004W        W 2885  42.365  20.110  12.002
33005W        W 2886  17.616   7.255  11.986
33006W        W 2887  29.426  29.026  14.321
33007W        W 2888  25.482  14.213   3.814
33008W        W 2889  16.674  18.622   2.357
33009W        W 2890   7.264   1.824   1.789
33010W        W 2891  12.167  32.017   3.374
33011W        W 2892  26.022  19.064   4.352
33012W        W 2893  13.707  43.854  12.027
33013W        W 2894  21.585  22.519   3.344
33014W        W 2895  12.181  11.748   0.939
33015W        W 2896  13.612  26.027  12.434
33016W        W 2897  26.162  30.501  12.442
33017W        W 2898  22.742  24.183  10.973
33018W        W 2899  38.061  36.851  13.853
33019W        W 2900   4.805  20.541   0.262
33020W        W 2901   8.337  33.024   3.681
33021W        W 2902  43.321  39.980   3.180
33022W        W 2903   5.702  15.742  10.637
33023W        W 2904   4.398  26.582  11.006
33024W        W 2905   9.755  15.817  11.558
33025W        W 2906  13.210  19.560   3.249
33026W        W 2907  31.896  43.850  10.474
33027W        W 2908  33.540   8.242   1.802
33028W        W 2909  37.468  14.153   2.335
33029W        W 2910  16.685   3.750  14.769
33030W        W 2911  14.304  14.627   2.839
33031W        W 2912  18.093  26.164  10.424
33032W        W 2913  32.523  26.597   1.793
33033W        W 2914   7.402  33.876  12.010
33034W        W 2915  21.146  33.432  11.489
33035W        W 2916  37.501  30.598  14.976
33036W        W 2917  17.645  17.581   4.212
33037W        W 2918  38.508  42.875   3.770
33038W        W 2919  35.041  18.267   1.357
33039W        W 2920  29.041  22.532  12.387
33040W        W 2921   7.223   2.927   2.388
33041W        W 2922  35.431  31.098   2.711
33042W        W 2923  31.924  23.608  13.422
33043W        W 2924  37.411   1.907   4.170
33044W        W 2925  25.147  19.756  13.308
33045W        W 2926  40.814  21.040   4.814
33046W        W 2927  19.206  39.837  10.917
33047W        W 2928  14.105  26.200   3.314
33048W        W 2929  24.513  37.538  12.367
33049W        W 2930  34.904  43.343  11.967
33050W        W 2931   6.244   7.260   4.295
33051W        W 2932  15.142  26.122   1.311
33052W        W 2933   7.307  19.571  12.885
33053W        W 2934  30.519  43.777  13.374
33054W        W 2935  17.061   2.292  14.016
33055W        W 2936  28.592  31.028  11.400
33056W        W 2937  27.042  14.699  10.457
33057W        W 2938   4.742   1.284   3.300
33058W        W 2939  38.518  38.931  13.031
33059W        W 2940  16.258  39.008   4.148
33060W        W 2941  40.831   2.376   1.871
33061W        W 2942  32.036  15.319   0.311
33062W        W 2943  20.658  13.291   0.362
33063W        W 2944  32.914  27.513   2.399
33064W        W 2945  31.025  18.688   3.848
33065W        W 2946   7.314  18.191   3.383
33066W        W 2947  35.951  13.257   1.407
33067W        W 2948  29.919  28.030   2.731
33068W        W 2949  18.557   7.201  10.487
33069W        W 2950  25.488  40.461  12.985
33070W        W 2951  10.353   4.224   2.270
33071W        W 2952  25.665  20.747  13.413
33072W        W 2953   0.392  43.328   1.423
33073W        W 2954  39.426  41.439  12.463
33074W        W 2955   1.760  39.891  14.276
33075W        W 2956  40.434  26.615  14.006
33076W        W 2957   1.427  28.534   4.269
33077W        W 2958   4.901  18.619  14.281
33078W        W 2959  25.204   8.852   1.705
33079W        W 2960  33.612  39.018  14.862
33080W        W 2961  13.720  26.088  11.566
33081W        W 2962  12.137  16.234   0.454
33082W        W 2963   9.222  16.128   0.287
33083W        W 2964  38.843  21.543   4.728
33084W        W 2965  19.199  11.820  13.985
33085W        W 2966  39.908  25.709   1.222
33086W        W 2967  33.458  14.725  14.392
33087W        W 2968   7.352   0.894  11.570
33088W        W 2969  39.865  11.156  10.565
33089W        W 2970  32.893   3.392   3.161
33090W        W 2971  44.470  38.361   0.343
33091W        W 2972  30.448   7.695  10.580
33092W        W 2973   4.718   4.269   1.218
33093W        W 2974  27.189  41.911  14.312
33094W        W 2975  37.856  34.485  10.066
33095W        W 2976  33.974  11.838  10.465
33096W        W 2977   4.376  31.966  14.759
33097W        W 2978   1.346  24.045   0.852
33098W        W 2979  13.642  12.772   0.929
33099W        W 2980   8.797  11.660  13.834
33100W        W 2981  19.232  19.273   4.261
33101W        W 2982  29.062   2.380   3.784
33102W        W 2983   1.463   3.725  12.079
33103W        W 2984  20.044  17.088   3.760
33104W        W 2985   8.803  21.182  14.866
33105W        W 2986  19.646  29.988  13.472
33106W        W 2987  32.928  27.513  12.918
33107W        W 2988  10.320  19.665  12.954
33108W        W 2989  10.220   7.820  14.958
33109W        W 2990   9.810   2.791  14.831
33110W        W 2991  20.088  14.612   2.893
33111W        W 2992  39.857  12.612  14.829
33112W        W 2993  25.087  40.918  14.875
33113W        W 2994   1.857   1.251   0.842
33114W        W 2995   3.244  24.651  11.556
33115W        W 2996  43.789  20.040   3.788
33116W        W 2997  16.672  12.809  11.436
33117W        W 2998   9.679  33.401   0.353
33118W        W 2999   1.329  18.723  12.834
33119W        W 3000   7.693  20.105  11.872
33120W        W 3001  37.977  23.007  12.880
33121W        W 3002   6.187  22.717  12.386
33122W        W 3003  19.222  16.230   1.395
33123W        W 3004  40.465  27.619   3.855
33124W        W 3005  11.335  21.202  14.925
33125W        W 3006  14.322   5.932   4.191
33126W        W 3007  25.115  10.653  13.901
33127W        W 3008  38.332  12.787   0.469
33128W        W 3009  30.103  19.714   4.714
33129W        W 3010  33.430  19.128  12.399
33130W        W 3011  24.541  17.771  14.882
33131W        W 3012  36.473   7.316   5.160
33132W        W 3013  31.915  24.548  12.837
33133W        W 3014   0.806   1.785   3.800
33134W        W 3015  42.999  36.965   1.276
33135W        W 3016   1.748  13.201  13.801
33136W        W 3017  26.579  34.452  11.560
33137W        W 3018  15.622  28.588  14.970
33138W        W 3019  18.674  14.812   1.409
33139W        W 3020  39.013  27.632   2.344
33140W        W 3021  30.086  16.143   0.380
33141W        W 3022  41.339  36.020   2.851
33142W        W 3023  35.551  37.959   3.772
33143W        W 3024  15.288  36.092   2.665
33144W        W 3025  21.541  14.294  12.562
33145W        W 3026   4.213  18.283  13.839
33146W        W 3027  37.070  19.214   4.185
33147W        W 3028   4.760  25.663   0.307
33148W        W 3029   6.247  44.409   4.769
33149W        W 3030  13.680  43.891  11.515
33150W        W 3031   1.780   2.262   1.409
33151W        W 3032  14.809  13.841   2.811
33152W        W 3033  19.246   4.838   0.818
33153W        W 3034  11.724  26.151   1.914
33154W        W 3035  34.599  17.133  12.361
33155W        W 3036  44.284   8.243   1.253
33156W        W 3037   2.446   6.776  13.335
33157W        W 3038  44.360  18.141   2.815
33158W        W 3039  20.629   7.673  11.458
33159W        W 3040  36.940  22.735  14.428
33160W        W 3041  36.446   2.735   4.350
33161W        W 3042   3.727  17.255   2.249
33162W        W 3043  38.055  19.254   3.359
33163W        W 3044  22.739  36.842   1.226
33164W        W 3045   6.273   1.324   1.260
33165W        W 3046  21.539   1.856   3.669
33166W        W 3047  23.087   3.369  12.371
33167W        W 3048   5.828  43.002  13.458
33168W        W 3049  19.160   7.688   3.870
33169W        W 3050  16.290   7.203  14.334
33170W        W 3051  17.296   8.206   0.248
33171W        W 3052  30.497  34.399   4.719
33172W        W 3053  22.178  18.572   3.153
33173W        W 3054  36.084   5.919   3.750
33174W        W 3055  18.053  43.821   0.289
33175W        W 3056  31.029  24.558   2.360
33176W        W 3057  33.547  27.105  13.868
33177W        W 3058   7.335  10.185   1.925
33178W        W 3059  28.163  42.301  11.482
33179W        W 3060  25.515  12.296  10.454
33180W        W 3061  20.190  36.878  14.967
33181W        W 3062   1.850  36.964  14.308
33182W        W 3063  35.893   5.883   2.754
33183W        W 3064  36.973  20.053  12.555
33184W        W 3065  36.987  14.819  14.858
33185W        W 3066  11.734  30.419   5.294
33186W        W 3067  29.423  32.467   1.400
33187W        W 3068  22.156  24.551   3.785
33188W        W 3069  16.098  18.137  12.369
33189W        W 3070  16.649  44.276   4.319
33190W        W 3071   0.384  29.505   1.246
33191W        W 3072   6.217   5.741   9.962
33192W        W 3073  26.962  24.159  14.928
33193W        W 3074   5.272   9.153   4.654
33194W        W 3075  38.488   2.295  12.891
33195W        W 3076  42.883  27.644  13.060
33196W        W 3077   0.431  33.571   1.787
33197W        W 3078  36.432   6.876  14.439
33198W        W 3079  41.393  33.080  13.953
33199W        W 3080  19.780  24.151  10.923
33200W        W 3081  42.855  43.417   1.407
33201W        W 3082  32.584  21.513   2.735
33202W        W 3083  14.633   2.931   4.317
33203W        W 3084  41.473  32.539  13.810
33204W        W 3085  37.497   6.836  13.392
33205W        W 3086   9.259  35.074  13.489
33206W        W 3087   4.204  26.540   3.348
33207W        W 3088   9.285  37.474   4.326
33208W        W 3089   5.252  16.593  14.310
33209W        W 3090   6.920  23.583  14.479
33210W        W 3091  37.344  44.406  11.418
33211W        W 3092  43.873  37.912  14.295
33212W        W 3093   3.883   2.308  14.833
33213W        W 3094   8.388  14.820   0.430
33214W        W 3095  28.529   9.722  10.437
33215W        W 3096  38.495  16.168  13.849
33216W        W 3097  28.052  39.855  10.006
33217W        W 3098  19.227  39.945  12.511
33218W        W 3099  18.187  13.287  10.918
33219W        W 3100  12.665  12.679   1.923
33220W        W 3101  44.261   7.677   2.181
33221W        W 3102   7.304  40.346   3.380
33222W        W 3103   2.966  38.046  12.995
33223W        W 3104   8.839   4.804  14.448
33224W        W 3105  17.159  20.185   0.418
33225W        W 3106  10.161   0.421   2.203
33226W        W 3107   0.787   4.295  12.524
33227W        W 3108  39.553  33.965  11.447
33228W        W 3109  15.282  27.147   2.666
33229W        W 3110  12.145  23.522  11.515
33230W        W 3111  30.041   5.860   1.280
33231W        W 3112  24.588  37.032  13.825
33232W        W 3113   2.911  37.484   2.748
33233W        W 3114  22.164  43.966   2.888
33234W        W 3115  24.631  11.621   3.682
33235W        W 3116  17.251  40.470   2.190
33236W        W 3117  13.284  14.816  10.970
33237W        W 3118  39.362  19.696  14.854
33238W        W 3119  37.079  31.551   4.151
33239W        W 3120  42.779  28.112  11.914
33240W        W 3121  41.521  14.818  11.891
33241W        W 3122  11.165   0.872  12.416
33242W        W 3123  11.775  32.985   3.772
33243W        W 3124  18.109  24.612  13.415
33244W        W 3125   8.791  18.610  11.128
33245W        W 3126   9.651  17.740   1.695
33246W        W 3127  20.146  31.029  11.392
33247W        W 3128  25.029   9.305  14.380
33248W        W 3129  17.633  11.639  11.416
33249W        W 3130  25.043   7.878  14.948
33250W        W 3131   5.762   5.375   0.876
33251W        W 3132  11.249   5.261  10.637
33252W        W 3133  26.686  33.596   5.251
33253W        W 3134  31.049  43.306   1.786
33254W        W 3135   7.837  24.092  14.407
33255W        W 3136  20.053  43.021   2.743
33256W        W 3137  25.217   7.329   0.359
33257W        W 3138   4.331  35.944   0.410
33258W        W 3139   5.312  29.441   3.809
33259W        W 3140  29.062  32.480  13.496
33260W        W 3141   8.238  32.527  11.445
33261W        W 3142   2.415   8.878   4.156
33262W        W 3143  26.559   4.349   4.711
33263W        W 3144  20.106  44.481  10.422
33264W        W 3145  18.780  30.623  14.424
33265W        W 3146  14.623   4.917  10.087
33266W        W 3147  25.002  20.064  10.991
33267W        W 3148  26.022  32.548  10.524
33268W        W 3149   4.907  40.043  11.470
33269W        W 3150  11.709  27.603   0.765
33270W        W 3151  36.562   9.337  14.425
33271W        W 3152  42.846  16.242   0.807
33272W        W 3153  19.722  24.604  12.455
33273W        W 3154   0.766  40.418   0.960
33274W        W 3155   3.316  21.027   2.858
33275W        W 3156  39.527   6.417   0.367
33276W        W 3157  32.487   4.725  12.018
33277W        W 3158   5.296  14.260   1.821
33278W        W 3159  29.059  35.585   1.415
33279W        W 3160   1.912  42.491  12.076
33280W        W 3161  33.460  35.503   1.322
33281W        W 3162  32.462   3.305  10.062
33282W        W 3163  38.387  10.357  12.389
33283W        W 3164   4.835  12.813  14.418
33284W        W 3165  22.589  41.401  10.428
33285W        W 3166  20.684  33.036   3.286
33286W        W 3167  30.590  20.125   0.389
33287W        W 3168  17.169   2.471   0.246
33288W        W 3169  35.391  28.505  13.806
33289W        W 3170  39.963  39.388  10.470
33290W        W 3171  13.809   6.189   1.765
33291W        W 3172  11.195   5.380   3.655
33292W        W 3173  17.675  36.052   3.828
33293W        W 3174  22.660   5.343   3.842
33294W        W 3175  31.607  22.137   2.903
33295W        W 3176  34.050  39.981   0.760
33296W        W 3177  25.619  14.251   2.678
33297W        W 3178  34.921  22.169   4.125
33298W        W 3179  33.047  28.515  12.938
33299W        W 3180  28.179  21.057   1.434
33300W        W 3181  25.700  12.780   2.286
33301W        W 3182  44.760  20.555   1.412
33302W        W 3183  28.962  22.722  14.988
33303W        W 3184  31.148  33.110   1.899
33304W        W 3185  28.634  32.553   0.324
33305W        W 3186  44.910   9.881   2.406
33306W        W 3187  33.414  23.683   4.175
33307W        W 3188  39.929  23.735   1.237
33308W        W 3189  29.979  28.121  12.569
33309W        W 3190   2.862  34.600  12.514
33310W        W 3191  10.720   6.379  13.852
33311W        W 3192  21.567  23.519   1.709
33312W        W 3193  31.608   3.849   2.740
33313W        W 3194  30.927  15.824  12.574
33314W        W 3195  18.706  13.619   2.241
33315W        W 3196  23.669  36.873   3.221
33316W        W 3197  15.153  43.284  10.518
33317W        W 3198  43.283  18.130   4.718
33318W        W 3199  43.417  12.233  10.429
33319W        W 3200  39.912  11.730   1.424
33320W        W 3201  26.531  21.697  12.042
33321W        W 3202  31.486  18.656  13.307
33322W        W 3203  26.626   5.283  12.050
33323W        W 3204  34.903  22.643   0.440
33324W        W 3205  40.978  15.104   2.711
33325W        W 3206  10.322   9.310   4.192
33326W        W 3207  32.057  26.533   4.297
33327W        W 3208   4.342   0.777  11.563
33328W        W 3209  30.483   7.694   0.856
33329W        W 3210   8.253  18.725   4.336
33330W        W 3211  11.753  25.616   4.641
33331W        W 3212   5.420  33.109   4.825
33332W        W 3213  16.184   6.406  12.357
33333W        W 3214  39.031  27.050   2.730
33334W        W 3215  23.548  36.963   4.614
33335W        W 3216  36.549  10.251   3.776
33336W        W 3217   6.738   3.366  13.868
33337W        W 3218  10.197  36.944   3.774
33338W        W 3219  16.191  18.131  13.331
33339W        W 3220   2.811  17.612   4.232
33340W        W 3221  44.368  26.559   1.314
33341W        W 3222  21.562  39.936   4.123
33342W        W 3223  22.633  33.123   0.477
33343W        W 3224  18.574   1.350   1.428
33344W        W 3225  38.961  27.008   4.270
33345W        W 3226  33.474   0.964   1.277
33346W        W 3227  34.000  18.215   2.696
33347W        W 3228  30.061   3.822   1.735
33348W        W 3229  24.105   0.782  10.895
33349W        W 3230   2.909  35.390  11.383
33350W        W 3231  42.816  12.257   1.229
33351W        W 3232  37.457  35.497  12.490
33352W        W 3233   2.724  13.651   1.838
33353W        W 3234  16.256  31.071  14.920
33354W        W 3235   6.212  26.563  11.452
33355W        W 3236  37.342  37.975   3.778
33356W        W 3237  37.883  37.879  11.099
33357W        W 3238   8.708  27.171  13.860
33358W        W 3239  18.614  19.225   4.736
33359W        W 3240  22.663  22.208  11.007
33360W        W 3241   6.891  31.578  10.892
33361W        W 3242   7.187  32.943   3.826
33362W        W 3243  11.254  39.423  13.895
33363W        W 3244  10.696   4.208   0.803
33364W        W 3245  34.010   5.436  13.978
33365W        W 3246   6.305  43.291   3.743
33366W        W 3247  19.655  27.456  12.370
33367W        W 3248  22.501  35.526   3.148
33368W        W 3249  17.101  39.857   1.417
33369W        W 3250  35.041  28.132   3.844
33370W        W 3251  24.670  42.321  14.904
33371W        W 3252  24.688  29.963   3.255
33372W        W 3253  17.185  18.267   1.751
33373W        W 3254   2.241  12.655  13.511
33374W        W 3255  16.757   6.704  14.824
33375W        W 3256  18.115  14.615   3.219
33376W        W 3257  19.537   7.786  13.896
33377W        W 3258  35.567  21.672  13.062
33378W        W 3259   3.901  10.741   4.253
33379W        W 3260  23.611   9.654   2.669
33380W        W 3261  14.677  16.589  13.877
33381W        W 3262  20.100  43.269  11.453
33382W        W 3263  25.191   5.911  10.563
33383W        W 3264  34.975  20.755  12.035
33384W        W 3265  35.376  42.822  14.875
33385W        W 3266  14.317  12.335  14.377
33386W        W 3267   6.921  16.162  11.961
33387W        W 3268  16.176  29.606   0.361
33388W        W 3269   9.299   2.748  12.457
33389W        W 3270  16.647  31.499   4.812
33390W        W 3271  30.422   8.270  10.558
33391W        W 3272  28.106  44.266  12.999
33392W        W 3273  17.213  40.818   2.718
33393W        W 3274   9.181   9.264   1.295
33394W        W 3275  28.008   3.952   4.680
33395W        W 3276  11.788  24.568   1.934
33396W        W 3277  42.490  17.239   3.288
33397W        W 3278  16.268   6.897  12.551
33398W        W 3279  40.454  14.792  11.899
33399W        W 3280  28.113  33.456   2.365
33400W        W 3281   1.867   0.908  14.925
33401W        W 3282  41.954  23.599   3.341
33402W        W 3283  32.637  18.242   1.717
33403W        W 3284  13.304  12.279  11.923
33404W        W 3285  39.970  10.721  14.911
33405W        W 3286   5.308   8.216   1.316
33406W        W 3287  10.740  40.503   1.358
33407W        W 3288   2.777  36.890  14.492
33408W        W 3289  31.118  26.672   4.713
33409W        W 3290  32.578  19.127   4.602
33410W        W 3291  41.522   9.375   2.840
33411W        W 3292   3.409  26.079  14.029
33412W        W 3293  12.265  27.155  11.047
33413W        W 3294  10.343  40.866   0.394
33414W        W 3295  26.518  33.477  13.894
33415W        W 3296  28.174   8.182  13.984
33416W        W 3297  17.574   3.353   3.649
33417W        W 3298  23.048  18.659  10.075
33418W        W 3299  20.086  21.570   0.921
33419W        W 3300  43.438  11.735  10.605
33420W        W 3301  32.141  39.981   3.317
33421W        W 3302  21.144  10.146  12.069
33422W        W 3303  28.172   7.411  14.492
33423W        W 3304   1.917   6.755   0.376
33424W        W 3305  32.492  19.703  13.954
33425W        W 3306  22.597  40.350   3.653
33426W        W 3307  34.102  41.894   2.368
33427W        W 3308   7.404   2.730  13.414
33428W        W 3309  29.574   5.432  11.597
33429W        W 3310   5.699  19.624   1.829
33430W        W 3311   8.393  29.107   3.196
33431W        W 3312  26.117  19.056   3.799
33432W        W 3313   4.387   4.849  13.994
33433W        W 3314  42.305  38.071   0.815
33434W        W 3315  29.523  42.920  13.967
33435W        W 3316  39.382  38.403  12.553
33436W        W 3317   8.759  12.718  12.883
33437W        W 3318  19.054   1.352  14.286
33438W        W 3319  44.438  10.301   0.890
33439W        W 3320  14.689  43.500  12.386
33440W        W 3321   4.287   8.184   3.794
33441W        W 3322   5.889  15.728  14.769
33442W        W 3323   1.791  32.066   4.239
33443W        W 3324  37.062  40.380  13.347
33444W        W 3325   4.861  10.671  14.439
33445W        W 3326  13.820  37.579   2.270
33446W        W 3327   4.316  22.517  12.440
33447W        W 3328  41.440  31.041   0.898
33448W        W 3329  29.507  40.424  11.018
33449W        W 3330  17.794   2.232  10.486
33450W        W 3331  24.119  20.715   4.604
33451W        W 3332  23.225  28.118   4.211
33452W        W 3333   6.329   2.764   3.209
33453W        W 3334  20.155  11.370  14.891
33454W        W 3335  19.209  32.615  13.944
33455W        W 3336   9.395  31.599   2.231
33456W        W 3337  21.175  32.001  14.941
33457W        W 3338   1.906  18.208   0.885
33458W        W 3339   0.929  27.108   2.386
33459W        W 3340   3.801  12.361   0.397
33460W        W 3341  15.722   3.825   0.333
33461W        W 3342  26.639  12.173  11.482
33462W        W 3343  10.867   7.665   3.705
33463W        W 3344   7.249  35.914   2.221
33464W        W 3345  27.188  32.073  14.384
33465W        W 3346  35.913  32.476   3.786
33466W        W 3347  44.963  14.700  13.791
33467W        W 3348  14.264   1.291   4.774
33468W        W 3349  13.646   6.847  11.543
33469W        W 3350  39.524  24.618  13.520
33470W        W 3351   3.398  27.173   2.671
33471W        W 3352   3.252   9.203   0.388
33472W        W 3353  20.627   0.948  10.020
33473W        W 3354  34.507   9.711   2.371
33474W        W 3355  26.132  35.488   2.893
33475W        W 3356  20.185  11.699   4.247
33476W        W 3357  13.678  41.395  14.820
33477W        W 3358  42.436  19.144  12.927
33478W        W 3359  18.629  33.965  11.566
33479W        W 3360  17.765   2.332  13.429
33480W        W 3361  16.567  40.999   4.219
33481W        W 3362  12.355  40.981   4.287
33482W        W 3363  19.707  21.670  13.917
33483W        W 3364  34.035  21.213  10.568
33484W        W 3365   7.242  14.795  13.351
33485W        W 3366  24.672  29.515   0.849
33486W        W 3367  18.661  25.483  10.574
33487W        W 3368  28.061  44.988  10.457
33488W        W 3369  31.603  43.919  14.484
33489W        W 3370   8.173  23.060  11.988
33490W        W 3371   4.293  35.029   4.813
33491W        W 3372  31.470  44.292   1.266
33492W        W 3373  35.857  43.006  14.031
33493W        W 3374  13.783  44.825  11.471
33494W        W 3375   3.905  41.524  12.009
33495W        W 3376  35.406  34.429  14.423
33496W        W 3377  38.541   9.395   3.859
33497W        W 3378  13.642  38.497  12.495
33498W        W 3379   1.757   8.230  10.420
33499W        W 3380   6.788  36.403   4.642
33500W        W 3381   8.771   9.834   1.853
33501W        W 3382  27.610  13.245  14.838
33502W        W 3383  39.448   3.722  14.902
33503W        W 3384  23.151  17.168   4.623
33504W        W 3385   4.810   0.370   5.131
33505W        W 3386  14.686  25.210   0.947
33506W        W 3387  40.054  28.522  13.317
33507W        W 3388  33.576  28.448   1.717
33508W        W 3389  17.173  26.601   0.447
33509W        W 3390  42.903  25.640  10.591
33510W        W 3391  16.226  15.164   1.719
33511W        W 3392  30.076  35.523   4.127
33512W        W 3393  15.592  19.578  10.951
33513W        W 3394  23.707   7.370   4.138
33514W        W 3395  28.467  20.644   1.377
33515W        W 3396  32.058  21.222  12.903
33516W        W 3397  15.086  10.222   3.167
33517W        W 3398  42.331  29.063   2.758
33518W        W 3399  23.082  37.374   3.802
33519W        W 3400  44.402  38.464  14.389
33520W        W 3401  13.776  21.063   0.281
33521W        W 3402  27.482  25.045  14.898
33522W        W 3403   9.383  12.212  12.047
33523W        W 3404  22.176  24.623  11.498
33524W        W 3405  13.842  17.141  11.056
33525W        W 3406  39.908  10.174  11.473
33526W        W 3407  25.520   5.839   0.272
33527W        W 3408  28.947  19.721  10.540
33528W        W 3409  37.072   0.869   3.811
33529W        W 3410   4.257  20.677  12.090
33530W        W 3411  33.090  42.327   1.903
33531W        W 3412  35.852  21.242  10.513
33532W        W 3413  26.513  34.063   1.891
33533W        W 3414  25.497  42.426   1.244
33534W        W 3415  26.657  20.268  10.481
33535W        W 3416  43.917  10.734  14.925
33536W        W 3417  10.861  23.520   2.858
33537W        W 3418  21.652  42.993   2.731
33538W        W 3419  22.616  35.937   4.653
33539W        W 3420   7.379   0.880   0.326
33540W        W 3421   1.878   1.752  11.918
33541W        W 3422  32.483  35.549   2.687
33542W        W 3423  17.158  31.596  11.595
33543W        W 3424  44.403   1.947  12.941
33544W        W 3425  16.766  22.655  13.530
33545W        W 3426  10.282  43.949   1.415
33546W        W 3427  32.422   5.865  14.348
33547W        W 3428  33.600  16.633   0.920
33548W        W 3429  42.521  33.431  14.860
33549W        W 3430  13.245   8.738   1.856
33550W        W 3431   9.711  24.201  11.113
33551W        W 3432  23.014  40.355  12.094
33552W        W 3433   5.768  18.259   4.351
33553W        W 3434  42.336  34.049   4.739
33554W        W 3435  28.945  12.731  10.616
33555W        W 3436  33.121   2.408  13.993
33556W        W 3437  16.184  27.473  13.050
33557W        W 3438  40.813   1.358  13.800
33558W        W 3439  15.110  34.615   4.157
33559W        W 3440  27.613  22.508  14.971
33560W        W 3441  19.632  34.928   1.796
33561W        W 3442   2.943  20.646  12.874
33562W        W 3443   9.302   1.360  14.404
33563W        W 3444   4.344   8.285   1.319
33564W        W 3445  17.305  14.116   2.801
33565W        W 3446   1.731  42.908   3.832
33566W        W 3447   5.716   4.831   1.799
33567W        W 3448   7.788  28.978  12.437
33568W        W 3449  33.088  13.352   0.770
33569W        W 3450   1.743  28.026   2.315
33570W        W 3451  28.486  26.191  11.600
33571W        W 3452  41.983  18.747  12.552
33572W        W 3453  22.633  11.824  11.412
33573W        W 3454  21.704  14.198  13.865
33574W        W 3455  37.355  17.133   3.661
33575W        W 3456  32.978   5.698   3.151
33576W        W 3457  26.182  40.896  11.502
33577W        W 3458  17.226  43.916   0.829
33578W        W 3459  17.758   5.340  12.043
33579W        W 3460  20.683  12.151  13.862
33580W        W 3461  36.977  12.172   1.735
33581W        W 3462  34.398  18.065   4.689
33582W        W 3463  42.410  26.579  12.986
33583W        W 3464   2.896  18.157  11.966
33584W        W 3465  13.833  17.639   3.230
33585W        W 3466  32.007  28.628   2.395
33586W        W 3467  10.643  43.841   0.307
33587W        W 3468  40.390   9.863  10.935
33588W        W 3469  27.655   0.317  12.559
33589W        W 3470  21.671  35.485   2.710
33590W        W 3471   6.369  39.499   4.831
33591W        W 3472  36.956  36.900  13.445
33592W        W 3473  44.364   0.796   0.868
33593W        W 3474   4.708  42.914   3.667
33594W        W 3475   5.394  29.927   1.798
33595W        W 3476  44.290  11.632   2.315
33596W        W 3477  11.295  40.811  10.634
33597W        W 3478  43.797  13.820  14.951
33598W        W 3479  17.206   0.389   4.679
33599W        W 3480  23.660   9.355   2.673
33600W        W 3481  40.996  17.062   3.331
33601W        W 3482   2.939  31.046   1.847
33602W        W 3483  12.131  11.762   1.446
33603W        W 3484  36.993   1.467   5.669
33604W        W 3485  11.157   6.322  12.987
33605W        W 3486  43.502   0.466  12.918
33606W        W 3487  19.654   2.750   4.171
33607W        W 3488   8.719   8.337  11.587
33608W        W 3489  41.516  35.078  14.504
33609W        W 3490  22.618  35.940  14.964
33610W        W 3491  42.802  43.426   1.916
33611W        W 3492  25.043  31.012  11.558
33612W        W 3493  15.626  14.281  13.017
33613W        W 3494  11.813  38.874  14.954
33614W        W 3495  41.496  44.907   0.451
33615W        W 3496  29.003  12.130  14.325
33616W        W 3497  34.994  34.548  10.519
33617W        W 3498   7.711  39.905   4.181
33618W        W 3499  28.499  37.915  12.941
33619W        W 3500  23.148   9.808  13.434
33620W        W 3501  20.063  18.248  10.507
33621W        W 3502  31.029  34.931  12.943
33622W        W 3503  30.499   0.846   2.898
33623W        W 3504  27.051  23.145  12.853
33624W        W 3505  30.523  33.467   1.724
33625W        W 3506  25.177   7.232   0.781
33626W        W 3507  23.660  15.184  13.337
33627W        W 3508  19.688  24.210   4.162
33628W        W 3509   9.165  11.776   3.172
33629W        W 3510  30.974  33.582  11.880
33630W        W 3511   7.294  12.774  14.814
33631W        W 3512  35.554  15.187  14.918
33632W        W 3513  39.841   0.462   3.732
33633W        W 3514   1.431  44.000   4.719
33634W        W 3515  32.064  38.977   3.295
33635W        W 3516  16.727   5.693   2.181
33636W        W 3517  18.229  25.564   2.253
33637W        W 3518  32.913  33.978  13.904
33638W        W 3519  37.866  32.907  14.505
33639W        W 3520  34.931   9.694  13.487
33640W        W 3521  18.133  36.376  10.514
33641W        W 3522  16.568  40.483  12.491
33642W        W 3523  40.490  18.086   2.356
33643W        W 3524  41.863  18.160  10.015
33644W        W 3525   4.856  18.094   2.361
33645W        W 3526  18.205   7.338  13.534
33646W        W 3527  14.306  32.011   2.282
33647W        W 3528  12.696  23.648  13.827
33648W        W 3529   7.176   3.866   1.811
33649W        W 3530   8.256  17.802  11.523
33650W        W 3531  22.520  38.557  12.020
33651W        W 3532  37.357  14.810  12.432
33652W        W 3533  30.070  24.119   0.252
33653W        W 3534  42.008  26.648   5.211
33654W        W 3535  33.610  21.748   3.657
33655W        W 3536  34.594   4.806  14.769
33656W        W 3537   5.786   1.454   2.848
33657W        W 3538  19.686   4.872   5.224
33658W        W 3539  16.784  25.009   1.780
33659W        W 3540  25.601   5.906  14.515
33660W        W 3541   8.189   9.669   3.347
33661W        W 3542  34.379  11.636  13.455
33662W        W 3543   8.764  23.086   3.661
33663W        W 3544   1.480  23.532   4.332
33664W        W 3545  20.679  31.648   3.359
33665W        W 3546   4.892  43.369   3.385
33666W        W 3547  32.610   3.365  11.427
33667W        W 3548  39.970  12.817   1.311
33668W        W 3549  36.926  40.022  12.375
33669W        W 3550  31.466  10.274   2.811
33670W        W 3551  19.772  38.359  12.373
33671W        W 3552  39.340   9.177   0.299
33672W        W 3553  15.718   9.787  14.415
33673W        W 3554  31.059  41.892  10.996
33674W        W 3555  30.465  22.166   4.702
33675W        W 3556  15.220  25.659   2.212
33676W        W 3557  35.021  14.770   2.278
33677W        W 3558  33.494  19.196  11.457
33678W        W 3559  14.751  36.075  10.900
33679W        W 3560   6.812  22.016   3.702
33680W        W 3561  14.301  26.512  13.390
33681W        W 3562  22.123  40.429  14.460
33682W        W 3563  44.324  31.148   0.276
33683W        W 3564   2.456  31.418  13.308
33684W        W 3565  14.649  19.754   2.331
33685W        W 3566   0.778   5.404  10.992
33686W        W 3567  10.226  22.191  13.862
33687W        W 3568  22.053  42.879   2.385
33688W        W 3569  32.623  21.093   9.997
33689W        W 3570  11.651  28.131   3.640
33690W        W 3571  30.997  29.662  11.036
33691W        W 3572  41.454  30.525   1.312
33692W        W 3573  22.044   8.202   0.912
33693W        W 3574  43.855  16.614  10.961
33694W        W 3575  27.056  19.661   3.868
33695W        W 3576  20.043  11.668  12.527
33696W        W 3577  19.220   2.396   4.735
33697W        W 3578   2.930  13.653   1.370
33698W        W 3579  41.809  21.629  13.965
33699W        W 3580  40.811   5.788   0.859
33700W        W 3581  31.929  26.975   2.757
33701W        W 3582  43.961  32.508  13.330
33702W        W 3583  20.581  23.565   0.271
33703W        W 3584  10.652  16.577   4.303
33704W        W 3585  30.095  37.552   0.817
33705W        W 3586  10.649  36.504  11.073
33706W        W 3587  40.514  12.618   4.807
33707W        W 3588  11.296  13.690  11.120
33708W        W 3589   8.716  40.323  14.899
33709W        W 3590  28.465   6.886   4.718
33710W        W 3591  41.412  33.522  11.955
33711W        W 3592  31.965  41.347  12.506
33712W        W 3593  20.057  21.245   0.768
33713W        W 3594   3.457  20.540  14.873
33714W        W 3595   5.785  38.885   3.844
33715W        W 3596  44.764  33.530  10.934
33716W        W 3597  13.613  12.854  14.004
33717W        W 3598   7.297  10.204  12.070
33718W        W 3599  19.755   3.863  14.826
33719W        W 3600  32.554  13.315   1.286
33720W        W 3601  13.710  34.398  13.496
33721W        W 3602   0.869  10.327  14.766
33722W        W 3603  30.094  30.417  14.342
33723W        W 3604  24.102  31.618  14.515
33724W        W 3605  40.545   4.839  13.532
33725W        W 3606  13.624  20.258  11.502
33726W        W 3607  26.541  20.247   0.860
33727W        W 3608  44.891   9.742  11.549
33728W        W 3609   0.257  12.285   1.451
33729W        W 3610  15.221   6.818   2.279
33730W        W 3611  27.983   2.769   3.687
33731W        W 3612   6.248  16.678   4.629
33732W        W 3613  44.979  14.181   4.675
33733W        W 3614  16.709  20.028  11.516
33734W        W 3615  27.530  28.034  12.845
33735W        W 3616  32.081  18.745   4.345
33736W        W 3617  13.224  28.085   1.777
33737W        W 3618  26.169  43.479   2.193
33738W        W 3619  28.584  14.709   3.859
33739W        W 3620  29.982  23.212   1.257
33740W        W 3621  36.903  21.070   1.877
33741W        W 3622   1.432  17.742   2.880
33742W        W 3623  25.653  33.384  12.019
33743W        W 3624   1.883   9.264   3.207
33744W        W 3625   3.431  12.820   1.816
33745W        W 3626  21.689   6.230   4.625
33746W        W 3627  16.088   3.382   2.238
33747W        W 3628  16.302   8.872  11.013
33748W        W 3629   9.371  25.183  14.960
33749W        W 3630  24.019   5.729  14.852
33750W        W 3631  20.523   5.849  11.461
33751W        W 3632  30.099   4.444   1.322
33752W        W 3633  33.989  26.972  11.377
33753W        W 3634   8.745   6.780  13.890
33754W        W 3635  38.353  14.656  11.607
33755W        W 3636  14.338  27.543   1.870
33756W        W 3637   5.773  24.006   4.238
33757W        W 3638  13.280  31.425   1.225
33758W        W 3639  36.438  27.183  13.794
33759W        W 3640  31.485  11.328   3.226
33760W        W 3641  17.579   0.861  11.064
33761W        W 3642  16.636  24.580   3.632
33762W        W 3643   5.430  21.060  14.483
33763W        W 3644  26.084   5.859   3.311
33764W        W 3645  15.278  14.706   0.812
33765W        W 3646  40.367   3.775   3.285
33766W        W 3647   1.277  20.728  12.513
33767W        W 3648  39.901  39.041  10.531
33768W        W 3649  33.077  13.670  11.482
33769W        W 3650  15.661  18.629   4.650
33770W        W 3651   5.753  21.059   2.270
33771W        W 3652   5.255  11.843   4.654
33772W        W 3653  10.377   4.874  12.010
33773W        W 3654  38.475  23.542   2.725
33774W        W 3655  39.441   4.444   4.707
33775W        W 3656  44.812  42.495   1.252
33776W        W 3657  42.339  20.761   4.280
33777W        W 3658  33.516   3.908  10.967
33778W        W 3659  43.979  10.316   2.813
33779W        W 3660  14.247  38.019   4.323
33780W        W 3661  41.461  30.482  13.321
33781W        W 3662  20.528  13.737   1.351
33782W        W 3663   8.881  24.058  12.952
33783W        W 3664  26.526  20.072  12.508
33784W        W 3665  42.356  36.520  11.924
33785W        W 3666  30.587  39.892   0.732
33786W        W 3667  18.637  20.575   0.472
33787W        W 3668   4.378  13.192  10.950
33788W        W 3669   3.379  22.505  11.980
33789W        W 3670   2.338  42.893   3.729
33790W        W 3671  29.446  37.411   4.643
33791W        W 3672  19.079  26.094   0.802
33792W        W 3673   2.460  33.539  12.378
33793W        W 3674   4.232  28.530   2.818
33794W        W 3675  44.367   6.185  11.089
33795W        W 3676  12.140  35.419   3.217
33796W        W 3677  29.046  17.272   2.380
33797W        W 3678  22.586  40.329  10.462
33798W        W 3679  15.105  24.203  13.946
33799W        W 3680  15.100  14.167  11.015
33800W        W 3681  22.650  17.255   2.841
33801W        W 3682  37.998  29.613  14.892
33802W        W 3683  21.085  36.044  14.301
33803W        W 3684   4.902  25.200  14.828
33804W        W 3685  23.010  34.369   4.322
33805W        W 3686  27.115  28.649   2.772
33806W        W 3687  14.680  26.650  11.128
33807W        W 3688  26.618  34.114  13.429
33808W        W 3689  30.125  30.638  11.391
33809W        W 3690   1.830  17.724   1.267
33810W        W 3691  40.546  17.635   1.877
33811W        W 3692  20.200   1.425  12.340
33812W        W 3693  32.563   4.881   4.686
33813W        W 3694  17.685  32.438   2.877
33814W        W 3695  25.202  19.742   2.898
33815W        W 3696  14.236  24.666  13.980
33816W        W 3697  40.824  14.623   2.284
33817W        W 3698  11.236  32.532   1.391
33818W        W 3699  35.455  13.801  14.932
33819W        W 3700  36.960  10.718   2.811
33820W        W 3701   1.760  25.505   4.201
33821W        W 3702  35.973  32.931  11.546
33822W        W 3703  24.710  23.605  12.522
33823W        W 3704  32.457  31.000   0.399
33824W        W 3705  23.224  30.015   3.688
33825W        W 3706  15.593  39.856   2.415
33826W        W 3707  23.734   0.909  14.405
33827W        W 3708  36.861  42.454  14.959
33828W        W 3709  19.178  28.017   9.626
33829W        W 3710  29.503  41.427   2.859
33830W        W 3711  13.743  25.121   3.759
33831W        W 3712  15.680  12.255  10.065
33832W        W 3713  25.535  10.719   2.264
33833W        W 3714  33.496  14.289   2.190
33834W        W 3715  32.041  37.834   0.730
33835W        W 3716  10.347   8.881  11.871
33836W        W 3717  29.649  13.707  14.915
33837W        W 3718  15.582  29.484   0.805
33838W        W 3719  26.474  29.587  10.612
33839W        W 3720  26.958  39.399  12.952
33840W        W 3721  25.574  40.807   4.711
33841W        W 3722   9.337   3.430  10.986
33842W        W 3723  22.659  38.041   0.745
33843W        W 3724  32.908   9.890  14.458
33844W        W 3725  40.439   7.756   2.229
33845W        W 3726  39.984  24.111  14.832
33846W        W 3727  33.962  19.136   1.239
33847W        W 3728   0.307  12.746   3.214
33848W        W 3729  34.414  30.621   0.261
33849W        W 3730  11.788   7.354  14.882
33850W        W 3731  41.413  44.299  11.940
33851W        W 3732  12.305   2.883   4.656
33852W        W 3733  18.772  16.305  12.028
33853W        W 3734   9.173  42.360  10.587
33854W        W 3735  20.110   7.817   4.606
33855W        W 3736  43.923  37.405  10.524
33856W        W 3737  16.140  15.184   2.260
33857W        W 3738  35.445  18.234   1.438
33858W        W 3739  19.186  22.020   0.967
33859W        W 3740  21.143   2.773   4.696
33860W        W 3741   4.750  28.009   9.940
33861W        W 3742  40.540  33.466  10.512
33862W        W 3743  28.010  15.181   0.364
33863W        W 3744  20.710  13.332   1.800
33864W        W 3745  14.773  25.976   2.415
33865W        W 3746  13.762  26.073  12.829
33866W        W 3747   2.817  12.719   2.868
33867W        W 3748   0.841  31.578   1.829
33868W        W 3749   1.433   0.330  14.767
33869W        W 3750  43.916  28.602   1.214
33870W        W 3751  40.005   2.958   4.647
33871W        W 3752  35.036  19.604   4.293
33872W        W 3753   7.331  24.989  11.598
33873W        W 3754  21.178  26.675  13.455
33874W        W 3755   2.320  15.695  11.510
33875W        W 3756  43.871  26.521  12.002
33876W        W 3757  41.392  19.204   3.672
33877W        W 3758  20.169  28.153   2.255
33878W        W 3759  12.690  28.518  11.961
33879W        W 3760   4.778  13.309  11.373
33880W        W 3761  38.522  33.534  11.463
33881W        W 3762  41.313  17.785   2.192
33882W        W 3763  29.148   0.274   2.264
33883W        W 3764   5.708  18.710   2.691
33884W        W 3765  22.600  13.307  14.461
33885W        W 3766   2.797  38.018  12.392
33886W        W 3767  41.437  23.154   0.386
33887W        W 3768  30.958  32.031  11.910
33888W        W 3769  15.725  11.867   1.740
33889W        W 3770  29.983  43.817   0.475
33890W        W 3771  42.833  32.888  12.853
33891W        W 3772  31.604  13.622   1.434
33892W        W 3773   5.354  42.392  14.483
33893W        W 3774   7.750  10.842   1.736
33894W        W 3775  27.483  29.148  12.553
33895W        W 3776  30.642  26.476   1.744
33896W        W 3777  40.849  30.559   0.430
33897W        W 3778  17.742   5.923  14.016
33898W        W 3779  29.954  28.434   3.830
33899W        W 3780  28.144  32.999   4.223
33900W        W 3781  40.335  20.232   3.756
33901W        W 3782  23.517   2.942  10.422
33902W        W 3783  27.643  27.094   1.327
33903W        W 3784   2.227  40.902  11.980
33904W        W 3785  18.585  37.575  14.457
33905W        W 3786   5.878  16.125   3.664
33906W        W 3787  42.460  41.977   4.277
33907W        W 3788  10.725  36.098   1.768
33908W        W 3789  38.412   4.899   0.445
33909W        W 3790   5.883   0.324  13.839
33910W        W 3791   7.814  21.709  14.295
33911W        W 3792  27.557   5.294  11.413
33912W        W 3793  42.877   7.702   2.231
33913W        W 3794  20.196  31.454  14.320
33914W        W 3795  42.956  39.923  11.559
33915W        W 3796  37.085   0.833   1.821
33916W        W 3797  23.129   5.264  11.601
33917W        W 3798   5.765  20.574   0.964
33918W        W 3799   3.295  32.472  12.551
33919W        W 3800  26.952  36.923   0.448
33920W        W 3801  34.603  10.710  14.277
33921W        W 3802  31.961   8.176  14.859
33922W        W 3803  21.038  28.164   2.178
33923W        W 3804  39.504  38.012  12.884
33924W        W 3805  28.949  13.696   1.851
33925W        W 3806  30.910  30.997  11.070
33926W        W 3807  27.577  36.503   4.723
33927W        W 3808  11.627   9.757  11.975
33928W        W 3809  17.755  16.258   0.835
33929W        W 3810  39.510   0.294   2.830
33930W        W 3811  43.346  27.983   4.651
33931W        W 3812  35.870  23.605   4.278
33932W        W 3813  35.896   2.830   3.822
33933W        W 3814  10.191  30.106  13.031
33934W        W 3815  31.109   9.260   4.811
33935W        W 3816  10.230   6.190   2.361
33936W        W 3817  17.591  40.340  13.829
33937W        W 3818  40.487  36.352   2.214
33938W        W 3819  16.223  44.280  14.507
33939W        W 3820  14.689  35.039  13.335
33940W        W 3821   4.863  36.845   0.841
33941W        W 3822  31.076   9.182   2.892
33942W        W 3823   0.791   4.279  13.475
33943W        W 3824  38.000   6.857  11.419
33944W        W 3825  13.737  14.784  14.343
33945W        W 3826  16.286  34.059  14.914
33946W        W 3827  33.624  18.604  10.534
33947W        W 3828  34.426  36.876   0.382
33948W        W 3829  14.120  37.883   4.751
33949W        W 3830  39.876  42.868   2.228
33950W        W 3831  36.051  28.525   4.823
33951W        W 3832  13.636   8.705  13.992
33952W        W 3833  13.758  21.147   4.698
33953W        W 3834  15.092  43.802   4.120
33954W        W 3835  11.864  34.569  10.563
33955W        W 3836  15.096   6.267  11.036
33956W        W 3837  27.456  20.089   3.314
33957W        W 3838   5.827  41.973   4.279
33958W        W 3839  10.767  44.400  10.094
33959W        W 3840  43.780  37.932   0.371
33960W        W 3841  37.869   0.340   0.315
33961W        W 3842  11.171  30.520   2.210
33962W        W 3843   5.412  28.022  14.356
33963W        W 3844   6.246  40.431  11.036
33964W        W 3845   0.252   5.210  14.445
33965W        W 3846   3.345  30.432  11.080
33966W        W 3847  41.355  20.621   4.637
33967W        W 3848  24.562  10.669  12.955
33968W        W 3849  36.091  22.094   4.242
33969W        W 3850  35.521   3.821  12.888
33970W        W 3851  16.614   5.855   4.639
33971W        W 3852  33.516  12.701   4.210
33972W        W 3853   6.803  37.336   2.664
33973W        W 3854   0.248  24.638  13.520
33974W        W 3855  26.599   5.895   4.196
33975W        W 3856  43.858   7.812  10.484
33976W        W 3857  12.733  41.385  13.881
33977W        W 3858  25.156  30.466  12.072
33978W        W 3859  31.950  40.346  10.951
33979W        W 3860  27.075  42.450   3.285
33980W        W 3861   0.769  12.184   2.713
33981W        W 3862   6.312  36.871  14.325
33982W        W 3863  33.575  18.089   1.442
33983W        W 3864   4.753  35.587  13.311
33984W        W 3865  10.643  41.338   3.173
33985W        W 3866  35.875   5.271  10.918
33986W        W 3867   7.360   7.375  13.307
33987W        W 3868  24.716  44.867  10.578
33988W        W 3869  44.355  10.667  13.876
33989W        W 3870  44.349   8.896   1.322
33990W        W 3871  20.230  31.913   4.624
33991W        W 3872   0.395  13.824  14.443
33992W        W 3873   1.439  13.636   0.838
33993W        W 3874  21.039   3.359   5.150
33994W        W 3875  40.872  33.890  12.945
33995W        W 3876   0.285  27.083   4.824
33996W        W 3877  24.685  30.161   0.768
33997W        W 3878  10.858  29.532   4.187
33998W        W 3879  25.191  28.947  13.388
33999W        W 3880   7.809  28.538   0.895
34000W        W 3881  41.015  16.674  13.963
34001W        W 3882  11.696   1.811   3.806
34002W        W 3883  23.228  37.373   4.794
34003W        W 3884  18.562  11.720   0.478
34004W        W 3885   1.389   5.374   4.741
34005W        W 3886  31.073   5.426   4.162
34006W        W 3887   8.272  18.701   3.854
34007W        W 3888  18.244  32.982  11.900
34008W        W 3889   4.891  19.632   5.133
34009W        W 3890  17.776  17.162  11.410
34010W        W 3891  18.596  38.484  13.834
34011W        W 3892  10.340  33.455   4.670
34012W        W 3893  12.645  36.853  10.633
34013W        W 3894  13.671  19.606   0.298
34014W        W 3895   4.262  36.861   1.378
34015W        W 3896  30.421   6.365   3.718
34016W        W 3897  15.219   0.432   0.372
34017W        W 3898   4.278   7.756  12.494
34018W        W 3899   4.318  33.911   4.212
34019W        W 3900   6.243   0.348   0.395
34020W        W 3901   6.296  16.766   0.748
34021W        W 3902  11.177   1.444  11.938
34022W        W 3903  35.399  12.203   1.217
34023W        W 3904  25.701  12.624   4.266
34024W        W 3905  38.839  44.326  14.868
34025W        W 3906  38.327  16.795   0.302
34026W        W 3907   3.740  26.508  13.415
34027W        W 3908  20.109  17.222  12.555
34028W        W 3909  15.782   2.400  13.867
34029W        W 3910   3.877  17.644  11.602
34030W        W 3911   0.791  19.721  13.893
34031W        W 3912  14.270   8.893   1.813
34032W        W 3913  10.761  16.622   1.387
34033W        W 3914  18.231   2.810  13.318
34034W        W 3915  11.147   5.252  13.333
34035W        W 3916  17.746  23.556   3.343
34036W        W 3917  14.232  44.498   2.318
34037W        W 3918  30.498  14.280  14.452
34038W        W 3919  17.304  26.688  11.091
34039W        W 3920  35.426  30.909  13.337
34040W        W 3921  42.295  31.549   1.225
34041W        W 3922  25.505   2.363   1.270
34042W        W 3923  15.241  31.506  13.333
34043W        W 3924  38.055  42.339  11.886
34044W        W 3925  13.294  17.731   4.140
34045W        W 3926  31.618   8.325  12.480
34046W        W 3927   7.283  18.748   0.727
34047W        W 3928   0.463  37.419  13.502
34048W        W 3929  21.252   8.312   0.790
34049W        W 3930  32.427  13.165  10.612
34050W        W 3931  42.909  16.258   3.764
34051W        W 3932   6.246  31.933   1.814
34052W        W 3933  25.650  42.489  12.030
34053W        W 3934  43.448  25.997  14.909
34054W        W 3935  41.985  39.534  10.618
34055W        W 3936  21.687   9.198  13.998
34056W        W 3937  19.248   7.304   4.602
34057W        W 3938   2.915  43.911   0.346
34058W        W 3939  26.994  22.013  12.846
34059W        W 3940  27.153  27.675   2.666
34060W        W 3941  36.546  13.648   2.866
34061W        W 3942  35.955   5.439   1.310
34062W        W 3943  32.602   9.261   0.853
34063W        W 3944  26.972   8.350   4.237
34064W        W 3945  19.129   5.413   1.814
34065W        W 3946  39.922  12.194  12.464
34066W        W 3947  40.818  20.143  14.005
34067W        W 3948  10.367  24.621   2.180
34068W        W 3949  37.546  34.088   1.303
34069W        W 3950   3.756  16.647   2.219
34070W        W 3951   5.920  39.519  13.334
34071W        W 3952  30.545  38.991  12.090
34072W        W 3953  20.661  13.839   2.235
34073W        W 3954   7.783  36.910  11.004
34074W        W 3955  36.553  26.532   2.222
34075W        W 3956  17.093  17.772   3.819
34076W        W 3957  20.045  18.756   0.393
34077W        W 3958  19.638  39.411  10.442
34078W        W 3959  15.324  38.566  11.494
34079W        W 3960  40.839  44.423   2.743
34080W        W 3961  44.386  36.396  14.982
34081W        W 3962  28.087   6.202  11.388
34082W        W 3963  10.789   0.920  11.022
34083W        W 3964   4.737  38.865  11.461
34084W        W 3965  27.056   3.918  13.891
34085W        W 3966  10.815   0.445   0.363
34086W        W 3967  26.047   6.820  12.571
34087W        W 3968  41.041  20.126   1.877
34088W        W 3969  36.961  13.770   4.236
34089W        W 3970  32.927  22.641  11.596
34090W        W 3971   3.917  23.613   0.413
34091W        W 3972  10.700  15.803  14.031
34092W        W 3973  33.944  17.231   3.230
34093W        W 3974  18.194  31.064  13.960
34094W        W 3975  24.042   0.861   0.290
34095W        W 3976  10.761   9.350   2.270
34096W        W 3977  34.511  35.978  14.505
34097W        W 3978  39.052  37.999  13.866
34098W        W 3979  23.053  18.687  13.336
34099W        W 3980  24.622   2.930  12.011
34100W        W 3981  44.318  29.076   3.231
34101W        W 3982  32.434  21.106  11.008
34102W        W 3983  29.953   8.708   2.896
34103W        W 3984  27.567  35.010   0.867
34104W        W 3985   5.208  24.110   2.831
34105W        W 3986  24.066   7.834   2.865
34106W        W 3987   4.732  14.321   2.383
34107W        W 3988  43.866   1.269  13.429
34108W        W 3989  13.331  12.665   0.839
34109W        W 3990  29.103  20.755   1.259
34110W        W 3991  29.527   7.719   0.737
34111W        W 3992  32.407  10.753   4.660
34112W        W 3993  39.373  29.631  10.512
34113W        W 3994  20.109  41.952   2.835
34114W        W 3995  12.776  17.167   4.126
34115W        W 3996  12.764  41.887  14.997
34116W        W 3997  42.981  12.812   2.834
34117W        W 3998  22.106   6.821  11.395
34118W        W 3999  19.183  14.130   0.931
34119W        W 4000  31.541  16.742  13.997
34120W        W 4001   7.781  41.492   4.159
34121W        W 4002  40.420  27.177  13.860
34122W        W 4003   2.798  15.641  13.938
34123W        W 4004   2.356   5.354  13.445
34124W        W 4005  20.177  12.661  13.501
34125W        W 4006  16.660  38.931  13.474
34126W        W 4007  11.246   2.250  10.474
34127W        W 4008  30.967  31.483   2.258
34128W        W 4009  23.034   2.779   0.309
34129W        W 4010  39.557  22.047   1.377
34130W        W 4011  30.599  39.912   3.146
34131W        W 4012  34.033   6.734   2.209
34132W        W 4013  18.107  21.259   3.292
34133W        W 4014   8.851  30.161  10.550
34134W        W 4015  41.385  25.498   2.694
34135W        W 4016  19.728  10.364  13.913
34136W        W 4017  38.975  29.441  10.910
34137W        W 4018   3.251  25.135  10.431
34138W        W 4019   5.250  37.541   0.941
34139W        W 4020   5.229  36.568  12.397
34140W        W 4021   6.804  19.604  12.932
34141W        W 4022  18.759  25.202  13.965
34142W        W 4023  22.107   6.922  14.975
34143W        W 4024   6.822  24.602  11.432
34144W        W 4025   2.233  43.910  13.417
34145W        W 4026   9.231  25.063  13.938
34146W        W 4027  32.108  35.956   2.404
34147W        W 4028  18.658   2.261  11.994
34148W        W 4029   4.447  19.754   0.770
34149W        W 4030  11.693  33.508  13.036
34150W        W 4031  37.468  26.618  10.932
34151W        W 4032  21.082  44.334   4.344
34152W        W 4033  13.214  17.613  10.614
34153W        W 4034  21.055  19.101   2.734
34154W        W 4035  41.867  23.179   4.827
34155W        W 4036  36.889  24.209  14.841
34156W        W 4037  44.320   8.237  14.007
34157W        W 4038  26.597  43.823   4.732
34158W        W 4039  26.977  23.608   1.343
34159W        W 4040  30.549  24.208  13.427
34160W        W 4041  16.243  28.999  13.791
34161W        W 4042   8.405  24.121   1.695
34162W        W 4043  15.597  12.129  13.366
34163W        W 4044  33.391  33.936   0.880
34164W        W 4045  42.385  13.800  13.840
34165W        W 4046   7.305  44.291   0.438
34166W        W 4047   4.849  17.075   3.857
34167W        W 4048  19.588  38.540  13.799
34168W        W 4049  16.768  42.444   0.852
34169W        W 4050  17.688  10.742  14.029
34170W        W 4051  25.604  24.152  14.865
34171W        W 4052  32.996  31.914   4.608
34172W        W 4053  28.110  13.794  12.827
34173W        W 4054   9.652  36.031   2.279
34174W        W 4055  27.572  37.959  12.061
34175W        W 4056  20.700  37.391  12.539
34176W        W 4057  11.793  23.588  14.471
34177W        W 4058  42.974   0.448   2.179
34178W        W 4059  15.638   9.370  11.422
34179W        W 4060  34.380   1.916  13.825
34180W        W 4061  22.149   6.906  10.987
34181W        W 4062  14.770  12.356   1.451
34182W        W 4063  36.592  23.598  14.892
34183W        W 4064  43.912  42.323  14.347
34184W        W 4065  32.051   6.276   3.684
34185W        W 4066  24.577  25.689   1.865
34186W        W 4067  28.039   0.265  12.419
34187W        W 4068   1.946  14.214   2.901
34188W        W 4069  38.468   6.831   0.770
34189W        W 4070  20.118  19.264   0.405
34190W        W 4071  21.720  18.585   0.441
34191W        W 4072  34.957  16.629   2.272
34192W        W 4073   9.174  22.728  10.613
34193W        W 4074   9.192  44.289  14.432
34194W        W 4075  12.290   4.347   3.372
34195W        W 4076  42.002  19.666  11.473
34196W        W 4077  23.629  11.183   2.418
34197W        W 4078  35.925  13.199  11.019
34198W        W 4079   4.835  41.400   0.422
34199W        W 4080  41.429  10.657   3.185
34200W        W 4081  34.611  24.162  10.487
34201W        W 4082   8.263  21.018   4.169
34202W        W 4083  24.572   1.477  12.046
34203W        W 4084  33.047  22.058  11.959
34204W        W 4085   4.303   0.838  11.120
34205W        W 4086   3.894  22.605  11.520
34206W        W 4087   5.357  11.700   3.274
34207W        W 4088  27.025  29.558  10.644
34208W        W 4089   7.721  30.621   0.912
34209W        W 4090  17.655  19.585   2.806
34210W        W 4091  39.821  23.516  13.837
34211W        W 4092  33.453   7.742   3.869
34212W        W 4093  18.561  22.995  13.033
34213W        W 4094   3.454  40.009   2.263
34214W        W 4095   6.423  41.362   4.132
34215W        W 4096   1.941   0.961   3.242
34216W        W 4097   6.815  37.445  14.323
34217W        W 4098  44.817   1.896  12.467
34218W        W 4099  15.099  35.473   0.816
34219W        W 4100  14.149   4.382  12.393
34220W        W 4101   3.799  34.996   1.441
34221W        W 4102   2.247  15.217   1.294
34222W        W 4103  26.160  44.800  12.000
34223W        W 4104  32.980  40.863   0.444
34224W        W 4105  22.538  17.745  13.370
34225W        W 4106  35.463  26.514  10.985
34226W        W 4107  31.048   5.402  10.461
34227W        W 4108  35.506  27.002   0.436
34228W        W 4109  14.332  27.616  11.100
34229W        W 4110  36.593   4.290  14.289
34230W        W 4111  30.555   2.237  14.376
34231W        W 4112  40.344  38.876  14.958
34232W        W 4113  20.089  39.015   4.194
34233W        W 4114  27.518  29.105  11.474
34234W        W 4115  27.051  29.136  14.370
34235W        W 4116  42.284  21.181   4.193
34236W        W 4117  22.609  32.438  12.095
34237W        W 4118  36.545  35.409  13.388
34238W        W 4119   9.704  14.655  14.502
34239W        W 4120  14.818   6.705   3.307
34240W        W 4121  28.670  29.435  12.839
34241W        W 4122  28.038  36.381   0.428
34242W        W 4123  42.289  15.200   4.761
34243W        W 4124  15.600  38.326   5.712
34244W        W 4125  32.514  27.974   4.272
34245W        W 4126   0.400  36.380  13.860
34246W        W 4127  35.011  18.144   1.696
34247W        W 4128  35.530  13.346   2.720
34248W        W 4129  35.389   9.777   0.314
34249W        W 4130  44.803  38.420  14.510
34250W        W 4131  23.000  38.328  14.286
34251W        W 4132  36.912  13.717   3.251
34252W        W 4133   0.401  43.322   4.307
34253W        W 4134   9.160  32.084   0.273
34254W        W 4135  25.659   8.730  12.096
34255W        W 4136   2.879  39.359  12.061
34256W        W 4137  30.109  40.978   4.679
34257W        W 4138  21.182  29.598   4.121
34258W        W 4139  14.124  39.514   4.669
34259W        W 4140  13.166  27.069   4.833
34260W        W 4141  36.957   9.857  13.517
34261W        W 4142  34.988  38.393  10.486
34262W        W 4143  21.090   5.933  11.082
34263W        W 4144  31.920  44.266   2.188
34264W        W 4145   9.880   6.817   1.898
34265W        W 4146  24.020  15.652  13.800
34266W        W 4147  22.007  20.638   1.703
34267W        W 4148  18.743  25.981  13.921
34268W        W 4149  37.384  33.531   2.787
34269W        W 4150  25.128  43.981   0.420
34270W        W 4151   6.190  14.684   0.248
34271W        W 4152  39.859  12.737   1.757
34272W        W 4153  21.165  11.747   0.850
34273W        W 4154   1.909  35.865  14.321
34274W        W 4155  41.405  35.864   3.250
34275W        W 4156  19.046  24.046  14.323
34276W        W 4157  16.135   4.278   3.184
34277W        W 4158  38.396  39.038  13.394
34278W        W 4159  38.458   7.241   2.410
34279W        W 4160  22.147   7.865   2.877
34280W        W 4161  10.657  25.656  12.003
34281W        W 4162  29.011  23.706   4.156
34282W        W 4163  15.673  33.621   3.355
34283W        W 4164   3.412  21.017   3.771
34284W        W 4165  39.064  24.056  10.566
34285W        W 4166  44.276  20.114   3.197
34286W        W 4167   0.754  43.399   4.753
34287W        W 4168  34.606  20.733   4.773
34288W        W 4169  37.040  41.799   4.831
34289W        W 4170   8.297  34.995   4.806
34290W        W 4171   2.776  16.285  11.036
34291W        W 4172  17.132  39.556   4.353
34292W        W 4173  31.100  22.167  11.541
34293W        W 4174  15.189  27.626  11.045
34294W        W 4175  33.025  38.822  13.423
34295W        W 4176  36.020  16.221  14.335
34296W        W 4177   3.913  33.935  12.436
34297W        W 4178  37.078  19.581  10.427
34298W        W 4179  33.062   6.383   3.295
34299W        W 4180  42.356   9.711  11.424
34300W        W 4181  21.636  19.196   4.794
34301W        W 4182  38.335  29.036   1.440
34302W        W 4183  15.613   3.452  13.928
34303W        W 4184  41.365  23.082   4.622
34304W        W 4185  19.574   4.369   0.950
34305W        W 4186  35.404  31.950   4.216
34306W        W 4187   7.322  36.366   0.854
34307W        W 4188  42.839  40.407   4.720
34308W        W 4189  33.099  26.518   2.359
34309W        W 4190  34.392  44.299   1.394
34310W        W 4191  39.981  37.026   2.754
34311W        W 4192  19.216  24.034  14.763
34312W        W 4193  18.154  38.550   2.902
34313W        W 4194  36.501   7.325  11.560
34314W        W 4195  25.619   3.215  13.900
34315W        W 4196  43.471  39.911  14.773
34316W        W 4197  33.585  38.857   4.774
34317W        W 4198   7.830   2.441  13.844
34318W        W 4199  21.623  24.561   2.198
34319W        W 4200  32.026  18.705  12.072
34320W        W 4201  21.598  44.958  13.035
34321W        W 4202  40.989  26.090   1.805
34322W        W 4203  26.657  25.988   4.648
34323W        W 4204  37.984  35.562   1.749
34324W        W 4205  10.747  30.026   5.591
34325W        W 4206  18.692   5.228   4.281
34326W        W 4207  10.296   1.453   4.324
34327W        W 4208  24.510  12.311  12.567
34328W        W 4209  26.594  16.613  13.472
34329W        W 4210  44.782  31.515   1.244
34330W        W 4211  21.147  34.060   1.304
34331W        W 4212  20.646  15.321  13.369
34332W        W 4213  20.660  38.037  12.904
34333W        W 4214  18.693  32.519  13.452
34334W        W 4215   9.660  18.135   3.727
34335W        W 4216  11.733  40.434   1.812
34336W        W 4217  33.589  31.943   4.617
34337W        W 4218   1.477   7.767   1.330
34338W        W 4219  22.200   4.207   0.371
34339W        W 4220  37.914  24.001   2.794
34340W        W 4221  21.512   5.423   0.426
34341W        W 4222  25.566  18.108   4.744
34342W        W 4223  30.967  31.125   0.264
34343W        W 4224  15.177  11.743   1.244
34344W        W 4225  18.208  17.087   2.307
34345W        W 4226  11.859   6.328  14.408
34346W        W 4227  30.550  22.587   4.319
34347W        W 4228  40.328  31.534   0.848
34348W        W 4229  26.175  17.307  13.981
34349W        W 4230  14.715  11.783   3.296
34350W        W 4231  20.253  28.561   1.758
34351W        W 4232  41.919  10.775  10.525
34352W        W 4233   0.471  14.695   4.298
34353W        W 4234   0.427   0.406   1.719
34354W        W 4235  42.413  19.111   1.910
34355W        W 4236  37.369  11.806  13.015
34356W        W 4237  11.157  36.369   0.881
34357W        W 4238  22.241  36.913   3.336
34358W        W 4239  19.259   1.302   3.296
34359W        W 4240  14.166  43.815   3.357
34360W        W 4241   4.774  19.595   1.324
34361W        W 4242  30.513  24.558   3.851
34362W        W 4243  23.497  26.145   2.874
34363W        W 4244  38.971  38.053   3.739
34364W        W 4245  30.053  32.092   1.815
34365W        W 4246  41.868  12.676   1.270
34366W        W 4247  44.909  38.847  14.455
34367W        W 4248  36.560  36.063  12.889
34368W        W 4249  11.852  20.256  13.860
34369W        W 4250  17.691  28.439  13.328
34370W        W 4251  11.717  27.024   2.813
34371W        W 4252  12.168  17.709   2.330
34372W        W 4253  14.676  14.746  12.547
34373W        W 4254   0.357  41.811  11.118
34374W        W 4255   2.407  32.116   1.793
34375W        W 4256  19.765  25.966  11.044
34376W        W 4257  21.195  43.802   3.254
34377W        W 4258  34.429  30.004  13.390
34378W        W 4259   2.779   8.732  13.450
34379W        W 4260  19.205  40.939   2.324
34380W        W 4261  24.629  25.020   1.872
34381W        W 4262  39.351  22.126   4.784
34382W        W 4263  44.412  25.684   1.301
34383W        W 4264  31.625  19.563   2.677
34384W        W 4265   9.193  30.991  10.966
34385W        W 4266   3.947  34.009  13.327
34386W        W 4267   0.781  27.609  14.794
34387W        W 4268  30.012  10.237   4.164
34388W        W 4269  43.927   5.890  14.774
34389W        W 4270  15.751  24.155   2.896
34390W        W 4271  18.073  21.152   1.834
34391W        W 4272   2.798  15.618   0.312
34392W        W 4273   5.841  33.470   4.300
34393W        W 4274  42.362  33.003   3.317
34394W        W 4275  33.019  36.476   0.915
34395W        W 4276  36.888  31.532   0.411
34396W        W 4277  39.425  18.144   0.731
34397W        W 4278   7.882  39.856  14.446
34398W        W 4279  43.469  33.051   0.319
34399W        W 4280  23.001  33.015  13.466
34400W        W 4281  37.939  22.504   2.857
34401W        W 4282  31.591  23.727  13.833
34402W        W 4283   9.304  44.347   5.296
34403W        W 4284  12.680  25.154  12.870
34404W        W 4285  17.261  33.619  11.951
34405W        W 4286  43.809   2.247   3.752
34406W        W 4287  22.129  17.116   4.715
34407W        W 4288  27.551   5.439   0.879
34408W        W 4289  16.684  22.194   4.115
34409W        W 4290  24.077  41.004   2.190
34410W        W 4291  11.321  12.838  14.879
34411W        W 4292  16.748  20.555   3.211
34412W        W 4293  11.741  32.911  13.428
34413W        W 4294  41.483   7.291   0.818
34414W        W 4295  14.206  39.535   9.474
34415W        W 4296  11.255  44.773  10.537
34416W        W 4297  42.954   4.815   4.693
34417W        W 4298  21.730   5.310  11.001
34418W        W 4299  14.142  37.970  12.055
34419W        W 4300  21.044  39.822  14.296
34420W        W 4301  27.109  18.610  14.971
34421W        W 4302   6.720  44.333  11.885
34422W        W 4303  21.183  42.489   1.274
34423W        W 4304  17.071  21.515   0.295
34424W        W 4305  34.035  26.119   4.250
34425W        W 4306  17.152  33.949  13.840
34426W        W 4307  39.014   6.734  14.828
34427W        W 4308  19.747   0.795  12.465
34428W        W 4309  18.091  24.202   2.889
34429W        W 4310  23.223   6.410   1.238
34430W        W 4311  17.774  30.078  12.045
34431W        W 4312  18.770  35.538  14.871
34432W        W 4313   0.803  13.124  10.600
34433W        W 4314  20.116  35.026  14.897
34434W        W 4315  15.154  28.638  14.893
34435W        W 4316  11.737  35.477  10.590
34436W        W 4317  26.073  18.715   3.332
34437W        W 4318  15.323   2.897   0.255
34438W        W 4319  20.137  10.153  10.054
34439W        W 4320  13.148  29.450   2.219
34440W        W 4321  39.500  26.483   2.191
34441W        W 4322  14.269  34.461   3.237
34442W        W 4323   2.326  13.639  12.078
34443W        W 4324  40.938  10.647   0.803
34444W        W 4325  14.650  36.542  11.965
34445W        W 4326   7.324  18.739   4.621
34446W        W 4327  33.108   5.427   2.194
34447W        W 4328  31.593   3.221   4.166
34448W        W 4329  38.067  32.940  10.433
34449W        W 4330  28.665   3.406  10.479
34450W        W 4331  24.013   8.232  11.459
34451W        W 4332  10.184  41.981  11.397
34452W        W 4333  30.616   9.230   1.432
34453W        W 4334  38.046  39.056   9.940
34454W        W 4335  17.081  19.687   9.992
34455W        W 4336   7.804  20.209  11.527
34456W        W 4337  29.981  14.750   4.827
34457W        W 4338   1.363   7.731   2.804
34458W        W 4339   0.304   9.355  12.949
34459W        W 4340  10.361  16.587   1.259
34460W        W 4341   2.880  21.112  11.119
34461W        W 4342  22.213  21.091  10.441
34462W        W 4343   5.688  41.405   2.687
34463W        W 4344  43.814  10.347   1.877
34464W        W 4345  36.408  42.323  12.984
34465W        W 4346   6.197   9.887  12.447
34466W        W 4347  39.056  32.913   2.808
34467W        W 4348  33.026   0.456  12.022
34468W        W 4349  14.698  22.722   1.331
34469W        W 4350  36.880  27.070  13.837
34470W        W 4351   6.343  21.171  12.014
34471W        W 4352  35.852  34.461   1.855
34472W        W 4353   0.387  43.467   0.440
34473W        W 4354  27.461   6.798  11.445
34474W        W 4355   9.321   1.804   0.245
34475W        W 4356  12.719  36.048  10.930
34476W        W 4357  29.447  22.725   0.782
34477W        W 4358  24.208  33.489   5.159
34478W        W 4359   4.424  43.981  13.946
34479W        W 4360  28.572  34.878  11.951
34480W        W 4361   6.286   3.291   1.391
34481W        W 4362  39.903  28.008   4.620
34482W        W 4363  35.860  16.568  13.399
34483W        W 4364  34.009  27.583  12.562
34484W        W 4365  34.985  28.671   4.302
34485W        W 4366   5.839   8.374   4.268
34486W        W 4367  16.789   6.356   4.806
34487W        W 4368  40.504  23.662   3.378
34488W        W 4369  17.271   5.917   3.171
34489W        W 4370   3.282   2.749  14.424
34490W        W 4371  21.690  22.610  14.762
34491W        W 4372  31.977  38.466   1.721
34492W        W 4373   8.837   6.810  11.540
34493W        W 4374  17.711  39.438   2.794
34494W        W 4375  21.144   0.829   4.215
34495W        W 4376  44.278   4.702   0.265
34496W        W 4377  22.505  41.845  10.469
34497W        W 4378  33.602   3.348   2.736
34498W        W 4379  29.131  33.900  13.879
34499W        W 4380  38.035  30.435  13.357
34500W        W 4381  22.683   4.764   3.161
34501W        W 4382  26.033  26.465   1.845
34502W        W 4383  37.531  28.452   2.207
34503W        W 4384  34.095  13.612  11.926
34504W        W 4385  21.561  17.702  14.374
34505W        W 4386  26.622  23.096   0.416
34506W        W 4387  33.878   2.250  13.894
34507W        W 4388   3.788  13.166   3.278
34508W        W 4389  14.623  23.611   2.863
34509W        W 4390  12.793  26.670   0.926
34510W        W 4391  26.035  43.984   4.315
34511W        W 4392  24.720   4.320   2.328
34512W        W 4393   2.754  18.654   3.662
34513W        W 4394   0.864  14.184  14.283
34514W        W 4395  27.026  43.277   3.720
34515W        W 4396  10.288  32.449  14.493
34516W        W 4397  14.773   4.319   2.326
34517W        W 4398   9.836  20.713   1.247
34518W        W 4399  28.104  17.638  12.560
34519W        W 4400  35.866   8.819  10.432
34520W        W 4401  42.342  18.752  12.547
34521W        W 4402  38.331  37.341  14.977
34522W        W 4403   9.667  23.172  13.044
34523W        W 4404  21.753  41.469   2.342
34524W        W 4405  41.917  41.859   4.698
34525W        W 4406  17.127   8.888   4.283
34526W        W 4407  15.277  38.374   0.827
34527W        W 4408  17.156   9.837  12.008
34528W        W 4409  18.701  30.576   2.401
34529W        W 4410  30.511  43.298  10.424
34530W        W 4411  33.543  29.175  10.604
34531W        W 4412  31.975  31.098  11.106
34532W        W 4413  30.035   0.330  12.472
34533W        W 4414  17.758   5.406  11.041
34534W        W 4415  40.039  39.845  13.801
34535W        W 4416  12.731  42.900  14.320
34536W        W 4417   6.375  12.228   2.229
34537W        W 4418  41.439  15.596   4.166
34538W        W 4419  35.520  37.009   3.669
34539W        W 4420   0.377  32.991  10.507
34540W        W 4421  39.347  25.007  10.448
34541W        W 4422   9.879   1.957  11.379
34542W        W 4423   8.826  11.750  14.426
34543W        W 4424   5.878  16.795   1.881
34544W        W 4425   8.658  31.914   2.356
34545W        W 4426  19.699  28.555   3.684
34546W        W 4427  27.679  38.404   0.945
34547W        W 4428   2.823  11.842   3.190
34548W        W 4429   2.443  19.755  11.999
34549W        W 4430  25.187  43.953   2.816
34550W        W 4431  18.663   0.888  13.849
34551W        W 4432  24.018   2.364   3.639
34552W        W 4433  35.528  13.807  11.968
34553W        W 4434  44.472  24.168  14.823
34554W        W 4435   7.329  21.200   1.880
34555W        W 4436  35.424  32.504   2.730
34556W        W 4437   3.936   6.241   0.340
34557W        W 4438  31.977  43.389   0.271
34558W        W 4439  36.501   1.339  13.043
34559W        W 4440  20.206  26.082  13.026
34560W        W 4441   3.361   2.231  12.875
34561W        W 4442  22.242   6.311  12.908
34562W        W 4443  40.025   0.821  11.895
34563W        W 4444  14.267  23.195  10.891
34564W        W 4445  21.581  12.256  11.472
34565W        W 4446  41.835  44.399  13.454
34566W        W 4447   4.388  14.177  10.453
34567W        W 4448   8.401  44.348   2.860
34568W        W 4449  36.913   2.409  11.440
34569W        W 4450  27.107   1.741   1.838
34570W        W 4451  13.262  20.205   3.730
34571W        W 4452  29.427  36.459  12.036
34572W        W 4453  29.661  21.632   3.642
34573W        W 4454  26.953  27.170  14.428
34574W        W 4455  21.722  27.495  11.887
34575W        W 4456  26.508  16.662  14.839
34576W        W 4457   6.704   0.988   3.162
34577W        W 4458   9.305   4.246  12.419
34578W        W 4459  18.089   4.808  14.882
34579W        W 4460  39.050  42.281   2.893
34580W        W 4461  37.513   1.873   1.259
34581W        W 4462   3.369  13.785  14.988
34582W        W 4463   6.361  37.338  11.860
34583W        W 4464  15.606  17.105   1.419
34584W        W 4465  20.713   9.656  12.828
34585W        W 4466  42.451  38.837   3.282
34586W        W 4467  28.005  32.479  12.569
34587W        W 4468  43.295   1.882   3.236
34588W        W 4469  22.653  22.616  14.491
34589W        W 4470   6.261  14.217   9.933
34590W        W 4471  20.120  29.945  13.955
34591W        W 4472  29.076  41.305  10.626
34592W        W 4473  35.499  35.416  13.340
34593W        W 4474  10.734  44.418  10.922
34594W        W 4475  29.434  32.553  10.993
34595W        W 4476  10.259  21.066  10.598
34596W        W 4477  44.423  44.474  13.415
34597W        W 4478  34.380  37.574   1.913
34598W        W 4479  38.561   0.923   0.729
34599W        W 4480  37.389  25.072  10.408
34600W        W 4481  29.060   5.812  14.899
34601W        W 4482   5.274  12.830  12.449
34602W        W 4483  23.115  35.433   0.735
34603W        W 4484  31.564  23.992   1.801
34604W        W 4485  35.951  20.086   2.352
34605W        W 4486  16.182  31.464  13.820
34606W        W 4487  44.907  29.029  11.412
34607W        W 4488  23.011   2.315  12.533
34608W        W 4489   0.857  11.347   2.316
34609W        W 4490  31.507  13.178  11.468
34610W        W 4491  22.626  23.213   3.805
34611W        W 4492  37.380  12.319   0.822
34612W        W 4493  12.723   3.216   4.633
34613W        W 4494   8.260  18.073  12.497
34614W        W 4495  38.481  39.432  14.009
34615W        W 4496  43.774   0.288  11.467
34616W        W 4497   2.389  36.899   1.887
34617W        W 4498   9.839  27.537   1.212
34618W        W 4499   5.882  26.143  12.975
34619W        W 4500   7.231   3.215   4.769
34620W        W 4501  20.031  32.087  13.439
34621W        W 4502  44.944  44.855  14.463
34622W        W 4503  19.238  24.120   4.161
34623W        W 4504  17.730  23.142   4.148
34624W        W 4505  13.727   2.792  14.274
34625W        W 4506  17.644  31.115  11.031
34626W        W 4507  31.980   8.679   3.686
34627W        W 4508  41.884  39.850  12.494
34628W        W 4509  12.146  32.548  13.500
34629W        W 4510  38.039  13.214   1.906
34630W        W 4511   6.887   2.421  10.407
34631W        W 4512  41.483  23.066   4.178
34632W        W 4513  44.922  32.109   0.946
34633W        W 4514  33.553  38.547   4.122
34634W        W 4515  16.241  44.892  12.061
34635W        W 4516  23.115  35.044   1.918
34636W        W 4517   3.365  19.154   2.346
34637W        W 4518  11.834  15.731  11.512
34638W        W 4519  43.398  17.608   4.718
34639W        W 4520  24.074   3.348  12.065
34640W        W 4521  40.815  36.574   4.135
34641W        W 4522   9.274  28.506  12.928
34642W        W 4523  27.578  37.051   0.810
34643W        W 4524  30.003  16.209  14.456
34644W        W 4525  34.103  33.086   0.789
34645W        W 4526  33.025  10.782   0.813
34646W        W 4527  21.050  37.504  11.453
34647W        W 4528   4.761  41.352   1.805
34648W        W 4529  36.047  36.868  12.897
34649W        W 4530  25.976   8.807   0.808
34650W        W 4531  44.938  25.150  12.407
34651W        W 4532  23.505  21.562   1.393
34652W        W 4533  17.573   0.915  13.889
34653W        W 4534  12.703  40.480   1.727
34654W        W 4535  17.185  23.210   0.422
34655W        W 4536   1.254  16.123   3.723
34656W        W 4537   0.371  44.355  10.958
34657W        W 4538  30.007  19.604   0.739
34658W        W 4539  39.384   4.935   2.811
34659W        W 4540  41.014  44.799  14.363
34660W        W 4541   1.820  21.017  14.795
34661W        W 4542  39.425  19.122  12.056
34662W        W 4543  37.473   8.316  12.882
34663W        W 4544   9.856   6.693   1.306
34664W        W 4545  12.735  15.137  10.913
34665W        W 4546  18.063  16.291   2.349
34666W        W 4547  37.954   3.759  13.901
34667W        W 4548   3.775  36.361  13.026
34668W        W 4549  12.158  36.916   2.744
34669W        W 4550  26.481  23.646   0.314
34670W        W 4551   3.952  11.762   0.265
34671W        W 4552  26.000  20.676   0.840
34672W        W 4553  11.156  37.502  12.417
34673W        W 4554  13.626  10.643  10.615
34674W        W 4555  40.530  38.509   2.289
34675W        W 4556  32.985   7.816   4.622
34676W        W 4557  20.736  27.477  10.963
34677W        W 4558  31.040  25.016  10.518
34678W        W 4559  16.708   0.760   1.298
34679W        W 4560  36.077  11.315   4.118
34680W        W 4561   1.943  29.139  11.883
34681W        W 4562  16.791  28.114  11.476
34682W        W 4563  17.635  41.388  14.896
34683W        W 4564  16.152  16.697   1.919
34684W        W 4565  12.353  11.690  10.528
34685W        W 4566  15.674   1.734  11.113
34686W        W 4567  13.321  32.621   3.369
34687W        W 4568  34.528   9.225   4.625
34688W        W 4569  32.998   8.864   1.412
34689W        W 4570  43.973  38.508  12.997
34690W        W 4571  41.841  28.503  10.629
34691W        W 4572  21.629  19.757   1.892
34692W        W 4573  44.269  38.375  11.953
34693W        W 4574   5.394   0.284   1.419
34694W        W 4575  38.837   6.237  14.915
34695W        W 4576  39.017   1.397  10.919
34696W        W 4577  37.996  29.082   3.751
34697W        W 4578  12.694   4.735   0.881
34698W        W 4579  22.714  24.088   4.207
34699W        W 4580  40.419  16.740  14.961
34700W        W 4581  25.078  26.661  14.919
34701W        W 4582   3.909  36.414  12.433
34702W        W 4583  23.036  28.633   1.860
34703W        W 4584  28.444  26.531   3.770
34704W        W 4585   4.420  44.963  11.386
34705W        W 4586  15.207  20.137  12.357
34706W        W 4587  26.020  18.241   1.236
34707W        W 4588  35.434  35.551   2.820
34708W        W 4589   6.802  37.994  11.552
34709W        W 4590  35.045   3.216  14.789
34710W        W 4591   9.288  31.920  10.480
34711W        W 4592  32.553   4.291  14.976
34712W        W 4593  36.041   1.932   3.373
34713W        W 4594   7.751   3.389  12.543
34714W        W 4595  22.634   9.377  11.421
34715W        W 4596   9.792   6.785  12.881
34716W        W 4597  10.843  33.110   1.254
34717W        W 4598  23.582   7.709   2.331
34718W        W 4599  39.530  38.822   0.888
34719W        W 4600  31.481  30.424   4.272
34720W        W 4601  41.899  24.066  14.326
34721W        W 4602  11.689  19.233  12.431
34722W        W 4603  31.954  27.540   4.673
34723W        W 4604   1.792  29.456   1.436
34724W        W 4605  31.624   8.800   1.788
34725W        W 4606  26.074  12.255   3.285
34726W        W 4607  13.844  23.637   0.948
34727W        W 4608  13.637  38.401  11.474
34728W        W 4609  24.153  23.215   1.246
34729W        W 4610  37.340   2.375  12.975
34730W        W 4611  11.183  19.737  10.526
34731W        W 4612  18.739  44.837  13.321
34732W        W 4613  15.749   2.911   0.917
34733W        W 4614  10.770   6.293  11.971
34734W        W 4615  18.202   0.962  10.918
34735W        W 4616  17.130  32.104  11.418
34736W        W 4617  34.895  33.039  10.593
34737W        W 4618  28.027  18.076  10.607
34738W        W 4619  33.891  19.614   1.423
34739W        W 4620   6.391  23.595   2.792
34740W        W 4621  22.131  33.558  13.807
34741W        W 4622  15.727  30.475   4.682
34742W        W 4623   8.191  19.081  13.378
34743W        W 4624  43.475  32.921  11.404
34744W        W 4625  34.112   2.909   4.664
34745W        W 4626  22.137  43.365  11.968
34746W        W 4627  24.015  12.655   5.150
34747W        W 4628  14.784  23.167   4.140
34748W        W 4629   4.292  40.863  11.434
34749W        W 4630  39.971   6.820  13.815
34750W        W 4631   2.389  22.041   1.701
34751W        W 4632  20.222   3.359  13.981
34752W        W 4633  33.921  10.376   3.376
34753W        W 4634  37.971  12.209   3.777
34754W        W 4635  13.644  34.585  13.802
34755W        W 4636  24.167  36.971  14.807
34756W        W 4637  44.284  23.052  12.390
34757W        W 4638  44.445  32.016   4.296
34758W        W 4639  40.035   9.251   3.305
34759W        W 4640  16.122  24.049   2.735
34760W        W 4641   6.689  44.003  12.500
34761W        W 4642   5.422  11.194   0.371
34762W        W 4643  16.080  42.491   0.779
34763W        W 4644  37.502  25.121  13.892
34764W        W 4645  31.086  11.329   1.236
34765W        W 4646  31.070  12.624   0.414
34766W        W 4647  24.610  15.757  10.405
34767W        W 4648   5.217   9.760  13.838
34768W        W 4649  26.178  26.020   3.163
34769W        W 4650  15.308  30.469   2.362
34770W        W 4651  38.451  17.673  11.421
34771W        W 4652  29.465  27.668  14.012
34772W        W 4653   2.229  21.070  11.028
34773W        W 4654  25.099  18.166  13.887
34774W        W 4655   3.225  22.624   0.861
34775W        W 4656  43.934  18.722  11.439
34776W        W 4657  27.488  29.589   4.281
34777W        W 4658  38.462  44.789   4.264
34778W        W 4659  28.115  35.363   2.673
34779W        W 4660  24.190  40.528   3.766
34780W        W 4661  43.479  18.637  11.118
34781W        W 4662  28.563   7.809   9.964
34782W        W 4663   5.894  40.402   0.866
34783W        W 4664  20.120  42.302  14.887
34784W        W 4665   5.712  17.728   1.878
34785W        W 4666   2.283  31.425  12.034
34786W        W 4667   9.219  39.454  11.493
34787W        W 4668   2.865  35.969  12.345
34788W        W 4669  32.972   2.869  12.527
34789W        W 4670  33.088  11.195   2.193
34790W        W 4671  28.154   5.736   1.793
34791W        W 4672  25.617  19.157  12.068
34792W        W 4673  13.161   6.694  11.077
34793W        W 4674  32.604  39.822   4.647
34794W        W 4675  19.227   0.932  13.875
34795W        W 4676  18.154  13.138  13.982
34796W        W 4677   5.859  25.552  10.537
34797W        W 4678  22.642  42.332  10.973
34798W        W 4679  33.065  43.804  10.939
34799W        W 4680   7.909   0.448  10.119
34800W        W 4681  37.900   4.423   4.292
34801W        W 4682   3.254  19.066  10.412
34802W        W 4683   8.275  16.140  14.339
34803W        W 4684  23.624  39.852  12.047
34804W        W 4685   0.451  36.850   4.728
34805W        W 4686  44.464  29.096  14.347
34806W        W 4687  27.042   1.431  13.411
34807W        W 4688  44.285  31.131   3.363
34808W        W 4689  33.961  13.328  12.385
34809W        W 4690  10.644  22.170   4.159
34810W        W 4691  34.056  43.981   4.238
34811W        W 4692  44.961  19.276  13.871
34812W        W 4693  19.674  26.649  13.902
34813W        W 4694  25.103  34.081  11.109
34814W        W 4695  13.267  12.201   0.346
34815W        W 4696   2.320  14.670  12.525
34816W        W 4697  11.814  20.047  13.456
34817W        W 4698  21.680  28.069   2.316
34818W        W 4699   9.237  42.354   1.917
34819W        W 4700   2.261  11.343   3.169
34820W        W 4701  24.072  33.986   3.328
34821W        W 4702   0.766  26.619  11.086
34822W        W 4703   9.305   7.856   4.340
34823W        W 4704  31.957  43.906  11.124
34824W        W 4705  26.007  12.805  13.927
34825W        W 4706   2.468  23.606   3.740
34826W        W 4707  36.503  44.340   0.886
34827W        W 4708  39.842  11.129   0.318
34828W        W 4709  24.627  18.242  11.889
34829W        W 4710  13.303  24.161   1.787
34830W        W 4711   3.736  26.616   1.713
34831W        W 4712  25.069   7.902   1.742
34832W        W 4713  11.319  43.448  12.396
34833W        W 4714   9.785  34.557  11.473
34834W        W 4715   0.830   0.973  12.500
34835W        W 4716  35.427  14.117   1.736
34836W        W 4717  43.423  44.282   3.218
34837W        W 4718   9.763  16.673   3.284
34838W        W 4719  40.462  25.694   4.230
34839W        W 4720  22.161  29.168  10.946
34840W        W 4721  24.624  43.385  13.543
34841W        W 4722  37.953  28.081  13.963
34842W        W 4723  32.036  24.200   3.339
34843W        W 4724  36.095  23.120   0.953
34844W        W 4725  14.691  42.424  10.586
34845W        W 4726  35.998   1.239   3.814
34846W        W 4727  29.122  34.455  14.341
34847W        W 4728  13.309  37.058  13.835
34848W        W 4729   8.661  32.499   1.287
34849W        W 4730  22.740  37.492   5.219
34850W        W 4731  39.964  29.950   0.476
34851W        W 4732  14.652  29.981  12.873
34852W        W 4733  17.113  29.095   3.660
34853W        W 4734  20.136  31.470   2.312
34854W        W 4735  30.536  20.143   3.773
34855W        W 4736  33.461   7.681  14.482
34856W        W 4737   5.711  24.113  11.510
34857W        W 4738  39.403  23.489   3.653
34858W        W 4739   5.770   0.931   2.306
34859W        W 4740  16.706   3.227  14.775
34860W        W 4741  27.691  37.385   1.835
34861W        W 4742  39.507  14.131  14.492
34862W        W 4743  16.112  32.000  10.637
34863W        W 4744  22.023   5.222   2.895
34864W        W 4745   3.710   3.928   4.121
34865W        W 4746  26.595  18.682  13.894
34866W        W 4747  36.356  39.319   0.727
34867W        W 4748  18.284   3.448  13.317
34868W        W 4749  24.703  24.151  14.390
34869W        W 4750  15.777   9.389   0.768
34870W        W 4751  34.923  30.042  14.357
34871W        W 4752   3.926  24.662  11.990
34872W        W 4753  16.209   1.761   4.751
34873W        W 4754   4.435  21.225  12.407
34874W        W 4755  35.084  16.774   1.229
34875W        W 4756   9.752  26.651   0.879
34876W        W 4757   4.828  29.057   4.220
34877W        W 4758  13.626  14.605  13.887
34878W        W 4759  43.841  21.150   0.482
34879W        W 4760   2.927  14.658   3.739
34880W        W 4761   0.455  30.928   3.199
34881W        W 4762  41.028  11.231  10.967
34882W        W 4763  38.359  16.185   3.630
34883W        W 4764   4.370  17.581   3.327
34884W        W 4765   5.401  21.730  13.997
34885W        W 4766  37.861  16.180   1.757
34886W        W 4767  32.586  27.686   1.818
34887W        W 4768   0.925  40.423  13.793
34888W        W 4769  31.551  24.550   2.282
34889W        W 4770   3.260  18.621   3.317
34890W        W 4771  21.513  12.828  14.790
34891W        W 4772   2.744  33.053  13.934
34892W        W 4773   9.763   6.236  14.023
34893W        W 4774  44.891  29.506  10.547
34894W        W 4775  22.643   4.217  11.609
34895W        W 4776   8.665  42.950   4.352
34896W        W 4777  35.431  41.515  11.056
34897W        W 4778  21.559  12.834   1.740
34898W        W 4779  15.653   6.315  14.819
34899W        W 4780  23.217   4.840  11.024
34900W        W 4781  30.071   6.311   5.184
34901W        W 4782   1.816  14.235   1.916
34902W        W 4783  14.118  41.404   4.238
34903W        W 4784   6.395   3.893  11.991
34904W        W 4785  27.005   1.386   3.313
34905W        W 4786  36.468  20.621   4.354
34906W        W 4787  23.144  15.109  14.443
34907W        W 4788  28.616  13.265   2.778
34908W        W 4789  11.215   9.355  11.508
34909W        W 4790  19.536  43.896   2.674
34910W        W 4791   4.743  32.456   2.769
34911W        W 4792  44.958  11.319   3.803
34912W        W 4793  34.446   1.794   2.769
34913W        W 4794  15.258  37.888   0.812
34914W        W 4795   6.380  28.120   0.433
34915W        W 4796  11.709  31.023   1.384
34916W        W 4797  35.964  27.520   0.933
34917W        W 4798  41.297  42.471   1.698
34918W        W 4799  24.181   6.342  13.394
34919W        W 4800  12.790  12.641  12.483
34920W        W 4801  34.410  12.767   1.741
34921W        W 4802  42.971   1.386  10.889
34922W        W 4803   1.476  38.849  13.840
34923W        W 4804  19.559   3.723  12.429
34924W        W 4805  39.457  14.707  11.410
34925W        W 4806  25.602  39.386   4.179
34926W        W 4807  14.175  44.398   0.320
34927W        W 4808  16.110   7.410   5.091
34928W        W 4809  15.123   1.797  13.996
34929W        W 4810  21.069  40.981   4.751
34930W        W 4811  15.786  17.062   0.931
34931W        W 4812  18.206  27.574   3.209
34932W        W 4813  23.989  27.042  14.406
34933W        W 4814  35.589  12.119   0.829
34934W        W 4815  39.552  26.540   1.906
34935W        W 4816  26.556  35.882   0.898
34936W        W 4817   8.253  26.640  14.308
34937W        W 4818  37.413  37.983  14.448
34938W        W 4819  23.035  41.848  10.541
34939W        W 4820  17.066  35.931   1.249
34940W        W 4821  23.495   9.303   0.300
34941W        W 4822   3.767   4.731  10.973
34942W        W 4823   9.844   8.668  10.548
34943W        W 4824  21.541  43.334  13.059
34944W        W 4825  32.485   3.418  12.539
34945W        W 4826  27.630  34.030   0.376
34946W        W 4827  19.760  35.017  11.043
34947W        W 4828  39.994  40.850  11.096
34948W        W 4829   0.834  17.163  11.612
34949W        W 4830   0.422  27.090  14.486
34950W        W 4831  26.084  34.012  11.895
34951W        W 4832  34.863  30.588  12.559
34952W        W 4833  16.625  33.399   3.846
34953W        W 4834  27.541  15.102  13.003
34954W        W 4835  42.448  19.587  11.037
34955W        W 4836   6.281   6.184  14.006
34956W        W 4837  14.779  34.930  14.430
34957W        W 4838  27.032   8.365  12.516
34958W        W 4839   9.396  28.138  11.117
34959W        W 4840  30.426  24.054  10.972
34960W        W 4841  15.819   4.739   1.423
34961W        W 4842  43.976  42.006   2.243
34962W        W 4843  32.561  28.629   1.310
34963W        W 4844  35.998  17.246  14.780
34964W        W 4845   1.312  30.966  11.559
34965W        W 4846  28.096  18.567  14.358
34966W        W 4847  31.406  27.676  10.424
34967W        W 4848  13.133  13.600  12.086
34968W        W 4849  24.498  42.908  13.995
34969W        W 4850  27.172  43.475  14.990
34970W        W 4851  34.614  43.934  14.989
34971W        W 4852   7.871  34.093   4.280
34972W        W 4853   4.853  35.374   3.732
34973W        W 4854  29.072  42.347  12.495
34974W        W 4855  17.069  31.507  12.917
34975W        W 4856  13.675  33.616   1.399
34976W        W 4857  10.659  25.064   5.144
34977W        W 4858   0.897  23.591   3.828
34978W        W 4859   4.345   5.864   0.760
34979W        W 4860  37.577  42.020   2.359
34980W        W 4861  19.214  12.666   3.147
34981W        W 4862  38.547  27.583  11.577
34982W        W 4863  29.442  28.125  14.364
34983W        W 4864  31.576  26.063   3.188
34984W        W 4865   5.702  26.641   1.873
34985W        W 4866   4.236  35.913  11.547
34986W        W 4867  13.722  22.529  12.350
34987W        W 4868   3.432   1.419  11.469
34988W        W 4869  14.724  30.097  12.449
34989W        W 4870  36.965  42.407   0.255
34990W        W 4871  32.560  41.441  10.900
34991W        W 4872  24.207  43.463  10.408
34992W        W 4873  35.383  26.965   2.724
34993W        W 4874   7.901  23.628  12.471
34994W        W 4875  29.657   6.841   4.266
34995W        W 4876  31.588  38.416  14.908
34996W        W 4877  34.465   2.436  14.276
34997W        W 4878   7.744  42.998   0.917
34998W        W 4879  42.495  27.667  11.428
34999W        W 4880  32.515  11.133  14.971
35000W        W 4881  34.049  16.592  13.365
35001W        W 4882  24.064  21.652   0.936
35002W        W 4883  29.938  29.443   4.746
35003W        W 4884  43.453   5.854  14.454
35004W        W 4885  16.797  34.064   2.825
35005W        W 4886  39.346   4.395   0.259
35006W        W 4887  29.486  44.371  11.567
35007W        W 4888  22.108   6.291   3.285
35008W        W 4889  15.138  15.175   3.280
35009W        W 4890  18.547  39.335  13.036
35010W        W 4891  27.490   3.317  14.332
35011W        W 4892  10.673   4.390   3.858
35012W        W 4893  10.225  23.084   2.811
35013W        W 4894   8.872  40.417  11.573
35014W        W 4895  32.987  29.001   4.209
35015W        W 4896   5.275  12.316   2.335
35016W        W 4897  28.633  38.327  13.813
35017W        W 4898  41.426  38.454  13.975
35018W        W 4899  27.627   9.688   2.835
35019W        W 4900  12.310  20.762   3.359
35020W        W 4901  41.811  22.638  10.095
35021W        W 4902  29.668  29.042   3.861
35022W        W 4903   3.847  26.178   1.399
35023W        W 4904  21.018  12.690   5.103
35024W        W 4905  43.828   6.287   1.697
35025W        W 4906   6.225  17.676  14.996
35026W        W 4907   8.743  35.454  12.980
35027W        W 4908  16.591  38.890  12.486
35028W        W 4909   4.745   2.327  14.455
35029W        W 4910  15.797  32.616  10.070
35030W        W 4911  36.059  11.790   1.332
35031W        W 4912  44.400   3.365   2.383
35032W        W 4913  32.542  40.937  13.988
35033W        W 4914  29.175  38.982   2.802
35034W        W 4915  13.228   1.965   2.696
35035W        W 4916  21.581   1.870   2.743
35036W        W 4917   9.283   9.879  12.853
35037W        W 4918  35.955  15.754   4.621
35038W        W 4919  20.245  29.987   0.835
35039W        W 4920  30.986  21.695   3.866
35040W        W 4921  33.414   5.425   2.878
35041W        W 4922  31.962  10.645  12.912
35042W        W 4923  39.409  18.756  12.881
35043W        W 4924  40.533  22.564  12.864
35044W        W 4925  40.805  32.905  14.000
35045W        W 4926   1.433  19.666  10.451
35046W        W 4927   9.853  10.276   0.727
35047W        W 4928  14.244  27.074   2.236
35048W        W 4929  15.583  25.131  10.455
35049W        W 4930  10.273  43.492   4.304
35050W        W 4931  11.854  13.825  11.384
35051W        W 4932  33.069  21.212  14.992
35052W        W 4933   8.898   8.308   0.815
35053W        W 4934  35.533  27.175  10.972
35054W        W 4935  39.472  13.197  12.415
35055W        W 4936  21.695  15.209   2.843
35056W        W 4937   6.197  30.481   0.388
35057W        W 4938  25.714  26.542   1.845
35058W        W 4939   7.775   1.908   3.807
35059W        W 4940  11.744  17.698   3.319
35060W        W 4941  17.777  28.579   4.774
35061W        W 4942  12.249  24.093  10.579
35062W        W 4943  15.090   5.924   2.700
35063W        W 4944  20.550   8.296  10.533
35064W        W 4945  42.293  38.064   0.456
35065W        W 4946   6.361   7.404  11.864
35066W        W 4947   7.299  15.205   3.839
35067W        W 4948  43.464  13.747   3.236
35068W        W 4949  38.917   4.760   3.843
35069W        W 4950  44.828  40.839  12.381
35070W        W 4951   7.224  39.340  11.123
35071W        W 4952  34.052  27.581   1.314
35072W        W 4953  18.644  21.523  10.979
35073W        W 4954  29.655   6.736  13.539
35074W        W 4955   1.375  12.334   2.266
35075W        W 4956  28.045   8.782  11.501
35076W        W 4957   5.204  11.201  11.912
35077W        W 4958   3.274  34.997   1.384
35078W        W 4959  31.026  28.163  13.378
35079W        W 4960  28.591  41.854   2.342
35080W        W 4961  43.399  30.520   2.716
35081W        W 4962  26.061   3.330   3.821
35082W        W 4963  30.153   5.922  13.994
35083W        W 4964  12.828  41.310   4.189
35084W        W 4965  17.254  31.628   1.918
35085W        W 4966  36.472  12.626   2.751
35086W        W 4967  20.127  41.037  13.394
35087W        W 4968  12.169  21.235  14.460
35088W        W 4969   5.366  29.072  14.879
35089W        W 4970  36.576  41.488   5.294
35090W        W 4971  35.852  40.870   0.796
35091W        W 4972  25.186  10.859   1.360
35092W        W 4973  10.670  13.164   0.754
35093W        W 4974  23.675  20.052  13.507
35094W        W 4975   1.344   0.385  10.895
35095W        W 4976  38.065   7.325   2.180
35096W        W 4977  10.341  37.998   4.692
35097W        W 4978  33.047  15.230   4.718
35098W        W 4979  15.188  35.039  10.917
35099W        W 4980   7.751   6.913   1.776
35100W        W 4981  39.395  28.973  12.387
35101W        W 4982  39.347  15.615  14.286
35102W        W 4983  14.694  25.470  14.454
35103W        W 4984  39.043  25.218   4.789
35104W        W 4985  11.771   1.407   4.716
35105W        W 4986  31.023   5.779  12.835
35106W        W 4987  17.273  13.629   3.269
35107W        W 4988   6.368   0.247  11.898
35108W        W 4989   5.426  27.461  13.062
35109W        W 4990  23.721  15.097   4.281
35110W        W 4991  37.429  12.198   2.879
35111W        W 4992  25.537  39.888  11.894
35112W        W 4993  26.550  24.977   4.260
35113W        W 4994   1.785   2.888   0.831
35114W        W 4995  11.158  25.067  13.479
35115W        W 4996  41.879  38.918   5.318
35116W        W 4997  38.958  19.249  14.496
35117W        W 4998   2.288  41.003   4.354
35118W        W 4999   8.699   9.695   4.686
35119W        W 5000   4.315  27.086   0.789
35120W        W 5001  15.284   3.778  12.394
35121W        W 5002  14.758  38.973   5.089
35122W        W 5003  18.108   7.215   0.440
35123W        W 5004  28.569   1.381   1.413
35124W        W 5005  27.003  34.560   1.783
35125W        W 5006   6.263   4.811   2.766
35126W        W 5007  33.495  22.168   4.224
35127W        W 5008  31.094  32.102  11.594
35128W        W 5009  15.613  36.896   0.844
35129W        W 5010   8.768  13.338   4.334
35130W        W 5011  41.538  20.565  14.433
35131W        W 5012  44.357  42.308  13.324
35132W        W 5013   9.737  29.479   2.192
35133W        W 5014  38.536  32.020  14.451
35134W        W 5015  14.174  11.144  11.472
35135W        W 5016  29.606  37.381  11.859
35136W        W 5017   6.228  26.682   1.840
35137W        W 5018   9.372   5.756  11.382
35138W        W 5019  32.963   1.458   1.899
35139W        W 5020   3.334  41.365   2.876
35140W        W 5021  25.073  15.182  12.428
35141W        W 5022  34.942  21.659  14.394
35142W        W 5023  36.845  43.976   5.258
35143W        W 5024   8.680  32.968   0.404
35144W        W 5025  44.289  30.549  10.638
35145W        W 5026   6.329  18.277  14.829
35146W        W 5027  22.018  22.617  14.313
35147W        W 5028  31.903  43.990   0.885
35148W        W 5029  42.023  11.747  12.840
35149W        W 5030  17.142  18.068   0.344
35150W        W 5031   9.728  33.395  13.331
35151W        W 5032  36.012   4.325   4.838
35152W        W 5033   4.820  31.915  13.401
35153W        W 5034   4.732  11.301  10.469
35154W        W 5035  25.005  36.863  11.088
35155W        W 5036   3.282  32.031   1.220
35156W        W 5037  23.606   8.246  14.277
35157W        W 5038  41.965   0.349  10.953
35158W        W 5039  21.626  16.808   4.305
35159W        W 5040  34.114  16.619  12.092
35160W        W 5041  18.757  32.478   2.357
35161W        W 5042   8.817   8.211  11.018
35162W        W 5043  10.657  18.759  13.413
35163W        W 5044  41.020   4.744  12.089
35164W        W 5045  44.479   5.888  14.779
35165W        W 5046  16.680  15.320   4.787
35166W        W 5047  19.171  20.677  10.589
35167W        W 5048  41.834  36.020  12.395
35168W        W 5049  32.455   2.786   2.329
35169W        W 5050   5.291  25.047   3.865
35170W        W 5051  39.342  44.994  12.853
35171W        W 5052   3.753   0.412   0.422
35172W        W 5053  17.133  29.585   2.822
35173W        W 5054  44.767  39.467  10.574
35174W        W 5055  39.363  30.585  12.417
35175W        W 5056  25.168  34.451  11.502
35176W        W 5057  11.799  39.910  11.090
35177W        W 5058  34.028  31.470   3.227
35178W        W 5059  32.077  16.616   1.225
35179W        W 5060  25.612  26.074   2.748
35180W        W 5061  36.930   9.360  12.910
35181W        W 5062   8.766  30.528  10.892
35182W        W 5063  24.019  33.468  12.844
35183W        W 5064  10.269  27.636  10.904
35184W        W 5065   5.314  30.920  11.058
35185W        W 5066  31.936  19.727   2.370
35186W        W 5067  18.731   8.202   1.791
35187W        W 5068  18.583  27.690  10.026
35188W        W 5069   3.236  30.524   2.351
35189W        W 5070   2.343  32.062   1.333
35190W        W 5071  18.725   5.233   1.805
35191W        W 5072  29.453  12.752  11.884
35192W        W 5073  20.718  10.688  10.410
35193W        W 5074   4.325  35.508  10.615
35194W        W 5075   6.797   5.863  10.635
35195W        W 5076   9.717  24.037  11.561
35196W        W 5077  19.682  32.517  10.915
35197W        W 5078  40.443  17.688  14.278
35198W        W 5079  11.860  22.674  11.943
35199W        W 5080  36.919  19.145  12.554
35200W        W 5081  28.445   7.760  10.450
35201W        W 5082   1.894  26.968  14.981
35202W        W 5083   6.687  18.191   0.360
35203W        W 5084   7.879  13.619   3.323
35204W        W 5085  41.927  43.918   3.277
35205W        W 5086  32.429  17.198   0.469
35206W        W 5087  25.216  36.097   1.742
35207W        W 5088   8.392  29.134  10.563
35208W        W 5089  31.039  24.113  10.531
35209W        W 5090  21.659   0.796   5.230
35210W        W 5091  44.298   3.848   2.675
35211W        W 5092   5.333  39.315  14.346
35212W        W 5093  35.902  16.146  12.976
35213W        W 5094  26.656  24.056   4.769
35214W        W 5095  25.651  40.360  12.341
35215W        W 5096  37.910  37.581   3.320
35216W        W 5097   1.835  16.111   1.343
35217W        W 5098  23.571   5.345   2.804
35218W        W 5099   7.713   5.248  10.509
35219W        W 5100  31.514   8.180   3.761
35220W        W 5101  12.229  33.921   2.742
35221W        W 5102  18.706  34.942   4.186
35222W        W 5103  28.007  17.560  11.412
35223W        W 5104   8.790  13.633  13.904
35224W        W 5105   4.737  36.045  11.858
35225W        W 5106  12.251   8.257  10.933
35226W        W 5107   0.396  21.579   1.330
35227W        W 5108  10.231  17.249   4.115
35228W        W 5109  22.532  22.132  11.870
35229W        W 5110  25.999  36.976  10.419
35230W        W 5111   9.702   4.779   4.269
35231W        W 5112  14.313  40.876   0.337
35232W        W 5113  44.484  10.225  13.484
35233W        W 5114  11.157  14.745   1.813
35234W        W 5115   0.320  27.521   1.433
35235W        W 5116   6.338  26.508   0.340
35236W        W 5117  21.602  42.861  14.877
35237W        W 5118  31.908  20.029  14.460
35238W        W 5119   8.345  23.706  12.054
35239W        W 5120  38.992   9.228  11.969
35240W        W 5121   8.742   9.850   2.667
35241W        W 5122  42.347  43.415  14.844
35242W        W 5123   6.746  21.154   4.242
35243W        W 5124  15.122  11.731  13.059
35244W        W 5125  20.105  30.154  13.545
35245W        W 5126  14.597  17.296   3.807
35246W        W 5127  16.142  20.204  11.475
35247W        W 5128  34.065  28.608  13.484
35248W        W 5129  39.015  12.341   2.185
35249W        W 5130  44.818   0.956  13.386
35250W        W 5131  26.477  12.334   4.814
35251W        W 5132  13.334  17.128   2.256
35252W        W 5133  24.090  12.621  10.984
35253W        W 5134   7.667  30.641  11.524
35254W        W 5135   8.178   4.933   3.664
35255W        W 5136  27.014  37.519  14.789
35256W        W 5137  24.030  18.759   4.221
35257W        W 5138  17.193  16.650  14.867
35258W        W 5139  34.483  19.555  14.292
35259W        W 5140  15.320  41.477   1.799
35260W        W 5141  39.547  35.081   0.352
35261W        W 5142  38.434  15.196   3.161
35262W        W 5143  29.968  44.328   3.169
35263W        W 5144  30.981  12.776  14.966
35264W        W 5145   9.810  35.362   1.883
35265W        W 5146  33.577  10.189   3.336
35266W        W 5147   2.236  42.953   0.446
35267W        W 5148  22.011  26.572   2.678
35268W        W 5149  35.583  27.616  10.991
35269W        W 5150  30.157  32.618   0.429
35270W        W 5151  15.659   1.760  12.841
35271W        W 5152  11.236  35.040  14.298
35272W        W 5153  31.932  32.924  12.045
35273W        W 5154   7.205  10.841  13.977
35274W        W 5155   0.433  34.898  10.552
35275W        W 5156  22.221  25.505  13.825
35276W        W 5157  37.377  29.922  10.432
35277W        W 5158   9.299  30.617  14.011
35278W        W 5159  20.569  38.854   2.180
35279W        W 5160  35.091  39.393  11.395
35280W        W 5161  13.158  17.183   4.742
35281W        W 5162  38.458  11.811  13.937
35282W        W 5163  25.024  23.657   2.385
35283W        W 5164   5.433  29.474  12.495
35284W        W 5165  35.893  23.234  12.973
35285W        W 5166  11.655  37.830  13.903
35286W        W 5167   8.306   3.765  10.417
35287W        W 5168  19.114  40.914   1.322
35288W        W 5169  18.052   2.888  11.036
35289W        W 5170  31.111  41.461   0.830
35290W        W 5171  41.797   7.369   2.257
35291W        W 5172  37.554   9.373  13.445
35292W        W 5173   2.396  44.834  10.426
35293W        W 5174   1.401   5.215  12.493
35294W        W 5175  34.913  14.290  13.866
35295W        W 5176  19.075  32.095  11.948
35296W        W 5177   0.438  33.118  10.945
35297W        W 5178  38.508  28.597   4.686
35298W        W 5179  28.477  22.742   3.381
35299W        W 5180  20.556   3.786   1.887
35300W        W 5181  35.949  33.028   2.901
35301W        W 5182  30.515   9.395  14.398
35302W        W 5183  12.314  43.428  13.440
35303W        W 5184  29.132  24.040  13.461
35304W        W 5185   1.433  23.578   2.257
35305W        W 5186   3.869  11.690   1.725
35306W        W 5187  21.726   9.866  14.780
35307W        W 5188  24.227  43.963   4.185
35308W        W 5189  25.102   7.715   4.731
35309W        W 5190   4.251   4.205  13.861
35310W        W 5191  18.604  13.182  13.346
35311W        W 5192  41.495  15.296  12.878
35312W        W 5193  21.104  24.165   0.247
35313W        W 5194  41.474   0.861   1.854
35314W        W 5195  14.264  11.304  13.354
35315W        W 5196  38.026  20.715  11.918
35316W        W 5197  29.939  19.652   3.859
35317W        W 5198  42.997  25.640   0.279
35318W        W 5199  35.978  31.462   1.274
35319W        W 5200   8.195  39.027  13.851
35320W        W 5201  24.163  42.376  11.603
35321W        W 5202  41.876  32.109  14.445
35322W        W 5203  39.421  18.625   0.483
35323W        W 5204  40.496  14.121   2.361
35324W        W 5205  31.406  13.754   3.801
35325W        W 5206   2.830  40.307   0.755
35326W        W 5207   0.287  36.969   2.796
35327W        W 5208  21.570   5.816  12.381
35328W        W 5209   4.426   6.418  14.312
35329W        W 5210  16.744   5.196  10.969
35330W        W 5211  16.199  14.713   0.406
35331W        W 5212  30.038  36.511  10.423
35332W        W 5213  10.787  14.614   3.223
35333W        W 5214   6.355  29.012   0.441
35334W        W 5215  25.670  34.984  10.928
35335W        W 5216  12.314  26.012  11.882
35336W        W 5217  14.832  32.012  11.927
35337W        W 5218  28.449  38.044  11.015
35338W        W 5219  28.645  24.031   5.123
35339W        W 5220  22.024  32.545   1.793
35340W        W 5221  24.576  13.272   0.424
35341W        W 5222  22.701  39.511   1.297
35342W        W 5223  11.190  36.356  11.504
35343W        W 5224  36.870  35.522  14.493
35344W        W 5225  35.603  28.988  11.986
35345W        W 5226  37.455  34.895  12.871
35346W        W 5227  21.678  29.039  10.977
35347W        W 5228  33.455  29.089   5.097
35348W        W 5229  28.547  43.877   2.382
35349W        W 5230  17.737  26.094  12.578
35350W        W 5231   7.876  22.664  13.379
35351W        W 5232  35.030   6.387  14.934
35352W        W 5233  29.436   7.818   4.343
35353W        W 5234   6.244  12.700   3.308
35354W        W 5235  44.302  37.074  13.422
35355W        W 5236   1.336  22.997   0.902
35356W        W 5237  16.782  35.003   1.774
35357W        W 5238  14.274  12.717  11.954
35358W        W 5239  42.362  21.591   3.199
35359W        W 5240  12.230  28.964   3.309
35360W        W 5241  35.920  35.401  12.569
35361W        W 5242  26.646   9.331  13.012
35362W        W 5243  44.428  27.554   2.784
35363W        W 5244  15.086   1.840   4.719
35364W        W 5245  14.194   9.823  12.449
35365W        W 5246  36.361  25.985  13.833
35366W        W 5247   5.439  14.719   0.390
35367W        W 5248  30.056  35.924   1.385
35368W        W 5249  33.972  40.347  13.420
35369W        W 5250  15.112  24.595  11.378
35370W        W 5251   4.785  36.499  12.426
35371W        W 5252  38.413  17.641  12.550
35372W        W 5253  19.610   0.350   5.246
35373W        W 5254  42.300  42.337   2.870
35374W        W 5255  15.303  13.610  11.587
35375W        W 5256  28.633  19.645  12.942
35376W        W 5257  20.233  41.305   2.390
35377W        W 5258  40.357  27.076  10.905
35378W        W 5259  16.798  23.550  12.950
35379W        W 5260  31.029  20.630   0.842
35380W        W 5261  37.957  40.503  13.511
35381W        W 5262  13.615   0.987   4.185
35382W        W 5263  39.046   3.458  14.484
35383W        W 5264  40.975  37.528  12.474
35384W        W 5265  38.457  21.628  11.515
35385W        W 5266  14.280  11.759  13.919
35386W        W 5267  40.353  31.524  13.991
35387W        W 5268  22.151  12.617  11.104
35388W        W 5269  33.006  32.528  13.913
35389W        W 5270   5.314   5.856  12.955
35390W        W 5271  19.285  39.910   0.931
35391W        W 5272   8.681  31.538  11.605
35392W        W 5273  37.895   4.739  12.838
35393W        W 5274  42.958  35.037  12.904
35394W        W 5275  36.550  13.136   4.114
35395W        W 5276  11.690   6.733  11.091
35396W        W 5277   4.410  30.473  14.295
35397W        W 5278  11.804  24.167   0.284
35398W        W 5279  14.697  30.646   4.739
35399W        W 5280  23.120  38.373   4.782
35400W        W 5281  43.947   8.842  13.892
35401W        W 5282  28.983   2.725   4.242
35402W        W 5283   8.681  40.408  13.956
35403W        W 5284  14.267  42.927   4.792
35404W        W 5285  32.404  21.186  11.573
35405W        W 5286   8.730   6.318   3.211
35406W        W 5287  26.114   4.917  14.905
35407W        W 5288  32.047  18.592   0.833
35408W        W 5289  30.995  42.348  11.011
35409W        W 5290  13.688  11.274   3.634
35410W        W 5291   8.383   6.774  10.979
35411W        W 5292  41.863  37.471  10.962
35412W        W 5293  33.048  42.993   2.849
35413W        W 5294  24.207  29.621   0.338
35414W        W 5295  35.360  23.152   0.271
35415W        W 5296  15.589   4.246   1.274
35416W        W 5297  28.643  20.596  12.505
35417W        W 5298   6.427  13.127   2.419
35418W        W 5299   2.438  29.604   0.941
35419W        W 5300  35.861  12.805  14.822
35420W        W 5301  33.993  11.808   3.868
35421W        W 5302  26.071  32.535  14.840
35422W        W 5303  29.551   1.966  14.814
35423W        W 5304  18.713  13.704  13.015
35424W        W 5305   8.221  36.511  10.436
35425W        W 5306   4.741  32.463  13.990
35426W        W 5307  39.031   2.423   0.913
35427W        W 5308   6.241  33.963   3.633
35428W        W 5309   8.339  19.558  10.504
35429W        W 5310   4.879  29.544  14.817
35430W        W 5311   0.775  41.394   2.815
35431W        W 5312  38.446  36.004  13.882
35432W        W 5313  33.917  35.452   1.386
35433W        W 5314  13.328   2.382  13.997
35434W        W 5315  32.485  38.877   0.812
35435W        W 5316  33.875   1.807  13.333
35436W        W 5317  35.511  29.565   1.825
35437W        W 5318  39.346   7.318   0.344
35438W        W 5319  36.541  16.199  13.499
35439W        W 5320  14.340  32.630  12.504
35440W        W 5321  24.080   3.314  14.964
35441W        W 5322  33.602   8.161  10.016
35442W        W 5323  19.116  20.210   1.794
35443W        W 5324  36.972  22.131   2.393
35444W        W 5325  40.380  22.620   9.968
35445W        W 5326  21.716   0.406   1.298
35446W        W 5327  43.330  40.036  12.555
35447W        W 5328   2.364   9.743  11.915
35448W        W 5329  22.655  10.295   0.363
35449W        W 5330  28.541  14.662   1.388
35450W        W 5331  35.890  36.890   2.274
35451W        W 5332  16.641   6.801   4.166
35452W        W 5333  16.624  38.992   1.735
35453W        W 5334   9.306  29.644  12.983
35454W        W 5335  24.682  38.327  14.852
35455W        W 5336  10.770   9.264   1.386
35456W        W 5337  41.508   2.296   2.327
35457W        W 5338  39.411   6.343   4.636
35458W        W 5339  27.993  21.131  12.437
35459W        W 5340   8.204  24.153  14.288
35460W        W 5341  37.039   1.916  11.915
35461W        W 5342  23.019  16.155   5.101
35462W        W 5343  17.645   4.943   1.906
35463W        W 5344  16.131  29.957   4.814
35464W        W 5345  32.043  37.475  13.484
35465W        W 5346  15.092  33.468  14.883
35466W        W 5347  17.673  18.243   1.838
35467W        W 5348  30.977  24.011  13.478
35468W        W 5349  16.575  13.828  12.436
35469W        W 5350  21.566  13.331  12.051
35470W        W 5351  17.223  34.116   2.390
35471W        W 5352  24.689  40.882   3.292
35472W        W 5353  19.091  34.910  13.883
35473W        W 5354  35.547  17.767  14.423
35474W        W 5355  37.985   3.407  11.439
35475W        W 5356  32.547  18.709  11.883
35476W        W 5357  22.227  13.173  14.868
35477W        W 5358   0.355   1.308  14.020
35478W        W 5359  39.366  42.318  14.462
35479W        W 5360  15.273   1.438   3.250
35480W        W 5361  35.480  39.914  12.846
35481W        W 5362   0.823  23.029  14.361
35482W        W 5363  19.217  16.758   3.278
35483W        W 5364  13.765  41.344  13.503
35484W        W 5365   8.249  43.919  13.965
35485W        W 5366   2.327  21.733   1.762
35486W        W 5367  35.888  43.424   1.331
35487W        W 5368   1.244  44.403  12.869
35488W        W 5369  44.291  42.838  11.481
35489W        W 5370  41.819   1.347   3.634
35490W        W 5371  15.232   1.847   0.840
35491W        W 5372   8.879  15.110   0.769
35492W        W 5373  43.002  33.617  10.114
35493W        W 5374  35.422  28.533  10.615
35494W        W 5375   6.879  29.117  14.795
35495W        W 5376  32.632   2.299  10.934
35496W        W 5377  41.873  12.613   4.685
35497W        W 5378  22.056  28.969  14.765
35498W        W 5379   7.792   6.759   2.828
35499W        W 5380  23.115   9.300   0.849
35500W        W 5381  26.130  19.683  14.857
35501W        W 5382  32.452   8.820   2.269
35502W        W 5383  28.498  32.024   0.345
35503W        W 5384   5.721  31.962  11.014
35504W        W 5385  42.826  21.163   5.244
35505W        W 5386   0.319  40.397   2.343
35506W        W 5387  16.641  13.296  11.989
35507W        W 5388  20.570  23.995  14.016
35508W        W 5389  22.505  34.571   1.410
35509W        W 5390  30.121  16.670  10.518
35510W        W 5391  31.938  19.058   4.632
35511W        W 5392  37.395   7.680   1.845
35512W        W 5393  13.642  16.712  14.979
35513W        W 5394  18.638  26.002  14.281
35514W        W 5395  21.687  11.320  12.469
35515W        W 5396  14.658  18.702  10.927
35516W        W 5397  18.113   4.308   2.373
35517W        W 5398  38.965  29.034   5.203
35518W        W 5399  25.149  11.826  14.419
35519W        W 5400  20.606  29.125   4.625
35520W        W 5401  24.486   3.270  11.126
35521W        W 5402  31.634  22.079  13.489
35522W        W 5403  11.313  11.847  10.981
35523W        W 5404  24.158  29.081   4.666
35524W        W 5405  36.017  31.093   0.330
35525W        W 5406  36.396  37.869   4.798
35526W        W 5407  16.227   1.868   0.831
35527W        W 5408  32.100  12.346   2.725
35528W        W 5409  44.958  13.260  13.014
35529W        W 5410  44.979  12.680   3.678
35530W        W 5411  42.819  26.089   0.422
35531W        W 5412  15.699   1.390   0.464
35532W        W 5413   2.873  20.091   0.402
35533W        W 5414  27.950  36.845   3.170
35534W        W 5415   5.294  38.552  13.799
35535W        W 5416  16.253  15.591  10.470
35536W        W 5417  22.536  27.539   1.872
35537W        W 5418   2.820   4.787   4.210
35538W        W 5419   8.326   6.679  11.882
35539W        W 5420  19.090  14.331   1.379
35540W        W 5421  18.062   1.376   0.727
35541W        W 5422  37.936  14.262   5.311
35542W        W 5423  36.044  36.871   4.714
35543W        W 5424  16.635  35.000   4.748
35544W        W 5425  41.884  23.220  13.379
35545W        W 5426  15.675   3.430   4.324
35546W        W 5427  21.090   4.830   4.140
35547W        W 5428  16.224  41.296  13.403
35548W        W 5429  15.814  34.060  12.883
35549W        W 5430  42.951  23.180   0.363
35550W        W 5431  10.356  25.655   1.354
35551W        W 5432  32.616  23.507   2.671
35552W        W 5433  41.967  31.058   3.683
35553W        W 5434  39.413  26.492   2.675
35554W        W 5435  28.546  32.604   3.721
35555W        W 5436  30.462  23.551   3.185
35556W        W 5437  23.721  21.607  14.415
35557W        W 5438  27.962  31.990   2.371
35558W        W 5439   6.909  28.052  11.114
35559W        W 5440   0.444  20.768   2.284
35560W        W 5441  24.030  10.146  11.953
35561W        W 5442  38.401  25.656   1.716
35562W        W 5443   5.239  43.939  13.057
35563W        W 5444   2.441  36.515  10.908
35564W        W 5445  21.706  26.080  11.607
35565W        W 5446  38.325  40.389   2.189
35566W        W 5447  42.792  24.132   4.257
35567W        W 5448  26.019   8.335  10.995
35568W        W 5449  35.922  35.039   0.877
35569W        W 5450  36.475  19.215  12.972
35570W        W 5451   3.788  41.423  14.376
35571W        W 5452  18.648  22.652  12.947
35572W        W 5453  12.652  38.327  12.557
35573W        W 5454  15.685  25.591   3.705
35574W        W 5455  20.142  33.933   2.832
35575W        W 5456  31.531  35.095   1.905
35576W        W 5457  23.581  11.154   0.850
35577W        W 5458  16.155  13.804   3.187
35578W        W 5459   7.311  21.714  11.112
35579W        W 5460  42.025  43.488  10.966
35580W        W 5461  31.045  16.163   3.318
35581W        W 5462  21.598  38.329  12.003
35582W        W 5463  22.578  23.686  11.436
35583W        W 5464  20.103  37.023   4.249
35584W        W 5465  37.012  36.576   1.249
35585W        W 5466   0.874   9.661   4.215
35586W        W 5467  32.441  39.317   1.367
35587W        W 5468  13.242   9.392   0.312
35588W        W 5469  34.869  19.048   2.397
35589W        W 5470  12.731   7.852  13.826
35590W        W 5471  39.988   4.878   0.317
35591W        W 5472  14.275   2.400   2.208
35592W        W 5473  43.907  38.001   0.919
35593W        W 5474  44.771   2.301   2.678
35594W        W 5475  15.136  10.246  11.429
35595W        W 5476  44.819  36.479   3.339
35596W        W 5477  32.435  20.552  10.912
35597W        W 5478  31.496  17.207   2.747
35598W        W 5479  36.499  40.806  11.954
35599W        W 5480  33.881  10.193   4.224
35600W        W 5481  36.347  39.359  12.574
35601W        W 5482  16.615  22.732  10.528
35602W        W 5483  33.538   0.835  10.495
35603W        W 5484  29.498  10.299  12.565
35604W        W 5485   6.395  39.941   1.437
35605W        W 5486  42.413  29.046   0.829
35606W        W 5487  11.793  13.624  14.850
35607W        W 5488  41.426  10.265   1.925
35608W        W 5489  35.981  35.036  12.545
35609W        W 5490   2.318  10.144  11.855
35610W        W 5491  43.875  25.643  10.550
35611W        W 5492  13.833  44.284   3.235
35612W        W 5493  27.525  40.906   2.843
35613W        W 5494  19.719  40.001   1.233
35614W        W 5495  13.802  27.657   2.409
35615W        W 5496   4.852  10.745   1.330
35616W        W 5497  12.339  17.569  12.879
35617W        W 5498   0.753  23.176   0.804
35618W        W 5499  12.689  33.572   0.252
35619W        W 5500  19.190  44.495   0.453
35620W        W 5501  40.398  10.744   0.834
35621W        W 5502  39.858  34.587   3.267
35622W        W 5503   9.692  42.791   4.601
35623W        W 5504  16.122   5.798   0.304
35624W        W 5505   7.784  40.470  11.114
35625W        W 5506  23.018   9.159   1.445
35626W        W 5507  18.589  18.659  11.105
35627W        W 5508  40.445  30.504  13.312
35628W        W 5509  28.556  26.024   1.738
35629W        W 5510  26.090   8.866   4.685
35630W        W 5511  28.085  15.654  14.872
35631W        W 5512  20.699  25.995  14.298
35632W        W 5513   0.968   9.666   3.250
35633W        W 5514  13.341   3.279   3.804
35634W        W 5515   6.757  38.935  11.484
35635W        W 5516  14.714   9.372   1.295
35636W        W 5517  18.273  38.014   1.726
35637W        W 5518   0.913  18.064   3.307
35638W        W 5519  16.715   9.291  12.430
35639W        W 5520  38.408  39.318   0.465
35640W        W 5521  38.991  27.625  11.981
35641W        W 5522  21.195  28.618   0.308
35642W        W 5523   0.414  41.942  10.590
35643W        W 5524  22.206  31.451   2.813
35644W        W 5525  16.207  10.787   1.732
35645W        W 5526  11.281  32.091   3.840
35646W        W 5527  12.630  13.206   2.702
35647W        W 5528  33.498  21.641  14.415
35648W        W 5529  38.490  14.207   4.664
35649W        W 5530   2.395  15.761  13.010
35650W        W 5531   7.844  38.553  13.455
35651W        W 5532  40.327  12.245   4.609
35652W        W 5533  42.402  14.818   1.260
35653W        W 5534  27.617  38.878   3.303
35654W        W 5535  36.074   0.831   1.836
35655W        W 5536  19.547  19.599   0.246
35656W        W 5537  26.626  38.985   0.858
35657W        W 5538  28.043   4.352   4.639
35658W        W 5539  33.585  28.097  11.506
35659W        W 5540  29.947  13.604  11.402
35660W        W 5541  39.065  23.194   0.905
35661W        W 5542  19.651  20.539   0.306
35662W        W 5543  22.555  34.498  13.945
35663W        W 5544  25.115  39.346   3.199
35664W        W 5545  41.845  34.105  12.944
35665W        W 5546  38.894  42.870   5.204
35666W        W 5547   0.262  32.405  14.778
35667W        W 5548   6.416   9.339   1.791
35668W        W 5549   5.787  15.675   1.275
35669W        W 5550  16.656  27.586   1.356
35670W        W 5551  31.629  37.873   0.261
35671W        W 5552  23.033   8.777  10.948
35672W        W 5553  37.045  37.847   0.816
35673W        W 5554   9.815  17.737  14.825
35674W        W 5555  18.730   3.442   2.411
35675W        W 5556  26.966   7.348   1.255
35676W        W 5557   0.488  41.936   2.802
35677W        W 5558  14.746   5.811  14.911
35678W        W 5559  25.996  32.093   2.764
35679W        W 5560   9.858  25.158   0.767
35680W        W 5561  19.719  23.591   4.838
35681W        W 5562  23.674  14.816   1.804
35682W        W 5563  22.145  21.161   2.371
35683W        W 5564  24.660  30.637  11.911
35684W        W 5565  21.030  37.085  10.889
35685W        W 5566  14.636  18.560   1.816
35686W        W 5567   6.892  13.842   0.336
35687W        W 5568  30.504   6.770  14.974
35688W        W 5569  38.377  11.727  12.463
35689W        W 5570   6.769  43.481  14.855
35690W        W 5571  13.649  37.342  11.046
35691W        W 5572   0.962  30.952   2.351
35692W        W 5573  38.899  23.036   3.250
35693W        W 5574  28.511   4.880  11.077
35694W        W 5575  43.860  34.573   3.160
35695W        W 5576  37.388  44.358  14.277
35696W        W 5577   0.425  38.468  13.792
35697W        W 5578  18.059  23.030   1.217
35698W        W 5579   8.265  20.121   2.292
35699W        W 5580  23.603  11.348  13.528
35700W        W 5581  40.008  27.119  13.478
35701W        W 5582  29.459  36.390   3.849
35702W        W 5583  32.583   6.732  10.520
35703W        W 5584  42.498  29.628  14.016
35704W        W 5585  38.421   9.201   0.775
35705W        W 5586   0.760  29.559  12.467
35706W        W 5587   4.858   5.755  11.483
35707W        W 5588  43.918  20.524  13.044
35708W        W 5589  29.115  31.611  10.423
35709W        W 5590   5.405   3.392  13.043
35710W        W 5591  44.898   5.694  11.940
35711W        W 5592  36.570  40.972   0.330
35712W        W 5593   4.278   2.248  13.544
35713W        W 5594  29.101  43.988   1.266
35714W        W 5595  30.010  11.308   1.826
35715W        W 5596  40.403  21.109  14.946
35716W        W 5597  38.347  23.171   0.861
35717W        W 5598  19.068  28.439   1.843
35718W        W 5599  36.938   6.797  12.066
35719W        W 5600  11.695   3.786  12.558
35720W        W 5601   1.468  32.000  12.514
35721W        W 5602  25.711  10.220  10.591
35722W        W 5603  13.255  38.912  11.493
35723W        W 5604  17.770  10.301  11.923
35724W        W 5605  31.992  23.094  12.433
35725W        W 5606  37.854   3.335   3.271
35726W        W 5607  38.869  25.160  13.920
35727W        W 5608  12.266  27.570   2.415
35728W        W 5609  27.456   6.771   4.280
35729W        W 5610  41.867  37.883   1.876
35730W        W 5611  14.802  20.168   1.335
35731W        W 5612  26.992  12.841   1.891
35732W        W 5613  30.001  39.401  13.508
35733W        W 5614  29.578  29.118   4.655
35734W        W 5615  28.151  14.267   4.838
35735W        W 5616  26.134   2.912  10.919
35736W        W 5617  43.473  37.399  11.047
35737W        W 5618  13.320  25.142  13.973
35738W        W 5619  28.089  41.931  14.911
35739W        W 5620  21.021  28.533   2.835
35740W        W 5621  34.007  18.284   2.267
35741W        W 5622  36.449   9.233   4.837
35742W        W 5623   5.692  28.551  10.628
35743W        W 5624  21.215  25.641  14.447
35744W        W 5625   7.674  15.135  14.376
35745W        W 5626  15.317   6.759  10.627
35746W        W 5627  25.179  23.051  12.921
35747W        W 5628  30.914   6.824   3.374
35748W        W 5629  40.337   2.326   3.790
35749W        W 5630   4.272  31.057  13.039
35750W        W 5631  22.999  12.233  12.885
35751W        W 5632   7.829  25.083   3.635
35752W        W 5633  29.157  25.608   9.452
35753W        W 5634  38.480  10.737  10.509
35754W        W 5635  17.775   8.767   1.774
35755W        W 5636  38.484   9.163   1.901
35756W        W 5637  43.773   6.784   0.385
35757W        W 5638  39.018  22.523  11.586
35758W        W 5639  16.123   1.470   1.234
35759W        W 5640  16.572  30.578   4.297
35760W        W 5641  23.199  21.704   0.797
35761W        W 5642  42.390  41.473   0.884
35762W        W 5643  36.002  18.192  11.453
35763W        W 5644  28.954   5.791   4.783
35764W        W 5645  26.052   0.874   3.218
35765W        W 5646   6.407  10.834  11.439
35766W        W 5647   5.397  34.577   4.830
35767W        W 5648  36.911  43.500   1.398
35768W        W 5649  43.856  40.502   0.249
35769W        W 5650  38.517  22.739  14.490
35770W        W 5651  37.082  16.224  14.976
35771W        W 5652  19.152   0.802  11.867
35772W        W 5653  29.479  36.944  13.477
35773W        W 5654  16.290  23.655  13.011
35774W        W 5655  30.424  16.582   3.702
35775W        W 5656  39.957  43.811  14.338
35776W        W 5657  11.762  20.130   2.359
35777W        W 5658   4.376  27.117  11.550
35778W        W 5659  14.196  14.689  12.481
35779W        W 5660   1.352  18.236  11.608
35780W        W 5661  22.163  39.042   1.768
35781W        W 5662  19.700  25.209   4.268
35782W        W 5663  12.663   4.319   0.739
35783W        W 5664  12.123   0.405   2.717
35784W        W 5665   5.434  41.039   1.256
35785W        W 5666  11.129   2.470   4.640
35786W        W 5667  43.440  44.294   3.859
35787W        W 5668  34.924  39.399  12.464
35788W        W 5669  32.089   0.353   1.229
35789W        W 5670   4.729  20.601   4.311
35790W        W 5671  28.123   1.272   9.957
35791W        W 5672   5.302  25.007   4.263
35792W        W 5673  29.950  39.895  11.431
35793W        W 5674  40.010  43.512  12.444
35794W        W 5675  33.438  10.151   1.332
35795W        W 5676  19.604   5.778  10.500
35796W        W 5677  40.413  30.055  12.961
35797W        W 5678  25.046  39.343   2.752
35798W        W 5679  22.551  41.903  12.446
35799W        W 5680  42.837   8.803  14.811
35800W        W 5681  25.601  37.474   0.319
35801W        W 5682   7.835  10.250  11.560
35802W        W 5683  43.382  23.153   0.483
35803W        W 5684   6.871  15.120  13.017
35804W        W 5685  30.112  16.701   5.109
35805W        W 5686  16.662  12.667  11.972
35806W        W 5687  27.981  35.007  12.494
35807W        W 5688  27.546  35.855   0.309
35808W        W 5689  23.070   8.792  14.994
35809W        W 5690   9.752  34.585   4.819
35810W        W 5691  44.833  43.005  13.991
35811W        W 5692   2.866  42.310  12.484
35812W        W 5693  36.059  22.678   2.825
35813W        W 5694   8.242  30.449   3.314
35814W        W 5695  34.371  43.334  10.546
35815W        W 5696   6.921   5.364   2.346
35816W        W 5697   9.699  10.355   0.272
35817W        W 5698   2.894  11.337  14.485
35818W        W 5699  42.864   1.388   4.252
35819W        W 5700  29.014  37.424  12.414
35820W        W 5701  12.759  16.259   4.226
35821W        W 5702  26.563  29.062  12.006
35822W        W 5703  43.961  27.456  11.000
35823W        W 5704   6.396   4.865   0.891
35824W        W 5705  36.966  37.047   0.311
35825W        W 5706  25.175  15.612   4.267
35826W        W 5707   4.884   2.436   4.324
35827W        W 5708  26.052  22.073   0.861
35828W        W 5709  36.493  43.419   1.801
35829W        W 5710   7.852  18.679  14.308
35830W        W 5711  40.475   5.703  11.603
35831W        W 5712   6.342  17.794  12.570
35832W        W 5713  13.807  22.662   0.912
35833W        W 5714  23.152  14.835   4.223
35834W        W 5715  27.630  27.653  11.413
35835W        W 5716  44.979  33.421  14.352
35836W        W 5717  39.971  18.263   3.758
35837W        W 5718  38.961  24.227   0.905
35838W        W 5719  41.862   4.874   4.275
35839W        W 5720  15.200   3.340  12.825
35840W        W 5721  10.800  40.873  14.015
35841W        W 5722   0.951  26.062  12.016
35842W        W 5723  42.383   0.905  13.957
35843W        W 5724  39.885   0.769  10.413
35844W        W 5725  21.131  24.063   1.402
35845W        W 5726  16.585  18.191  10.417
35846W        W 5727  23.654  41.463   4.716
35847W        W 5728   2.376  30.924   4.647
35848W        W 5729  14.295  32.506  11.560
35849W        W 5730  26.169  42.510  12.374
35850W        W 5731  23.201   6.728  11.018
35851W        W 5732  20.151   3.363  12.925
35852W        W 5733  37.537  13.338  12.072
35853W        W 5734  13.110  35.886   1.365
35854W        W 5735  19.699  17.227  11.472
35855W        W 5736  13.301  40.920   1.311
35856W        W 5737   3.908  25.632   1.234
35857W        W 5738  15.720   7.784   2.829
35858W        W 5739  24.150  30.074  14.407
35859W        W 5740  10.229  31.506   0.818
35860W        W 5741  43.488  23.693   2.884
35861W        W 5742  18.263  12.766  12.480
35862W        W 5743  35.879  44.939  13.375
35863W        W 5744  36.522  17.157   0.439
35864W        W 5745  24.584  21.185  13.850
35865W        W 5746  13.179  41.493   0.846
35866W        W 5747  26.202  41.299   3.356
35867W        W 5748  30.087  34.601   3.713
35868W        W 5749  27.648   6.371   1.327
35869W        W 5750   8.298  30.999   0.854
35870W        W 5751  13.192  20.680  11.447
35871W        W 5752  25.586  25.468   3.714
35872W        W 5753  34.600  40.939  13.801
35873W        W 5754  40.029  18.184  13.061
35874W        W 5755  18.284  15.096  14.819
35875W        W 5756  39.037  36.508  10.488
35876W        W 5757   3.295   3.949   2.772
35877W        W 5758  15.639  10.797  14.493
35878W        W 5759  26.549  28.626   3.324
35879W        W 5760  15.317  41.400   4.154
35880W        W 5761   9.871   6.246   0.436
35881W        W 5762  25.569  40.362   0.965
35882W        W 5763  37.525  37.431  12.400
35883W        W 5764  23.629  44.805  12.571
35884W        W 5765   8.835  43.928   4.249
35885W        W 5766  39.472   0.473   0.301
35886W        W 5767  19.627  40.360  14.397
35887W        W 5768  31.928  11.779   1.802
35888W        W 5769  14.313   7.773  14.353
35889W        W 5770   9.870  10.728  14.476
35890W        W 5771  43.980  32.512  12.833
35891W        W 5772  35.411  28.090   4.342
35892W        W 5773  39.343  34.983  12.992
35893W        W 5774  34.451   9.162   1.875
35894W        W 5775  27.679  34.532   4.622
35895W        W 5776  33.952  39.345  10.411
35896W        W 5777  29.548  34.969   0.738
35897W        W 5778  36.965  11.718  14.390
35898W        W 5779  15.213  43.777  10.443
35899W        W 5780  30.413  39.496  10.436
35900W        W 5781  37.349  41.958  13.856
35901W        W 5782  14.154  18.293  11.899
35902W        W 5783  38.061  18.643  13.545
35903W        W 5784  29.061  14.297  14.314
35904W        W 5785  39.911  41.481  11.386
35905W        W 5786   8.183  27.517  10.629
35906W        W 5787  36.575  37.355   0.948
35907W        W 5788  40.398  23.214   0.327
35908W        W 5789  28.154  38.041   2.815
35909W        W 5790  39.363  26.679   3.748
35910W        W 5791  23.071  30.008  14.428
35911W        W 5792  21.514   0.342  12.556
35912W        W 5793  29.033  35.456   2.732
35913W        W 5794  28.995  27.179   4.255
35914W        W 5795   9.351   1.959   2.336
35915W        W 5796  14.792  36.471   3.269
35916W        W 5797  31.449  21.556   0.300
35917W        W 5798  37.054  26.026  13.978
35918W        W 5799  26.182   0.906  12.520
35919W        W 5800   7.851  37.877  14.308
35920W        W 5801  15.252  10.642  11.400
35921W        W 5802   3.369   0.479   0.769
35922W        W 5803  41.357  40.929  14.840
35923W        W 5804  35.069  36.443  11.538
35924W        W 5805  11.721  18.546   2.819
35925W        W 5806  34.027  13.768   0.928
35926W        W 5807  26.576  18.153  11.520
35927W        W 5808  44.842  29.031   2.409
35928W        W 5809  23.597  43.829   1.740
35929W        W 5810   7.368   5.292   3.720
35930W        W 5811  15.615   5.255   0.330
35931W        W 5812  17.672   8.715  11.469
35932W        W 5813  43.412  19.592   1.416
35933W        W 5814  27.176  28.171   2.389
35934W        W 5815  33.457  38.363  14.407
35935W        W 5816  34.016  37.416  12.531
35936W        W 5817  26.041   6.255  14.961
35937W        W 5818  23.160  41.413  11.416
35938W        W 5819  34.464  28.494  11.908
35939W        W 5820   6.188   3.719   3.348
35940W        W 5821   7.182  31.954  14.938
35941W        W 5822   1.937  43.887  13.791
35942W        W 5823   1.738  25.143  14.373
35943W        W 5824  24.127  44.410   3.659
35944W        W 5825  23.674  17.194   4.623
35945W        W 5826  33.383  13.151   0.929
35946W        W 5827  22.179  21.639   0.940
35947W        W 5828  18.259  38.908   0.810
35948W        W 5829  32.534  26.032  13.411
35949W        W 5830  32.580  38.887  14.796
35950W        W 5831  10.849  15.822  11.503
35951W        W 5832  28.571  40.951  10.581
35952W        W 5833  13.250  39.960   0.330
35953W        W 5834  42.808  14.686   2.181
35954W        W 5835  40.394   3.758  10.498
35955W        W 5836   0.455  24.546   3.666
35956W        W 5837  27.049   4.330  14.495
35957W        W 5838  36.389  44.965  10.955
35958W        W 5839  43.893  40.995   3.269
35959W        W 5840   6.890  35.948  11.451
35960W        W 5841  44.855  25.553  10.600
35961W        W 5842   3.380  44.426  13.047
35962W        W 5843   1.442  12.684   4.740
35963W        W 5844  43.787  22.521   3.647
35964W        W 5845   1.430  22.181  13.990
35965W        W 5846  27.690  23.225  10.607
35966W        W 5847   0.821  39.901  10.638
35967W        W 5848  16.283  33.413  11.098
35968W        W 5849  35.576  20.536   4.659
35969W        W 5850   7.223  19.721   2.399
35970W        W 5851  35.995  29.470  10.429
35971W        W 5852  13.698  26.971  11.995
35972W        W 5853  10.635  39.934   4.305
35973W        W 5854  16.791  22.521   3.716
35974W        W 5855   7.352  30.967   5.258
35975W        W 5856  16.316  10.826  12.511
35976W        W 5857  29.091   9.336   1.285
35977W        W 5858   1.920  30.951   0.806
35978W        W 5859  17.305  15.693  14.482
35979W        W 5860  30.948   8.796   3.314
35980W        W 5861   9.255  24.152   2.738
35981W        W 5862  23.656  39.477  10.954
35982W        W 5863  27.144  30.120  12.432
35983W        W 5864  18.730  25.965   0.455
35984W        W 5865  36.011  38.865  12.073
35985W        W 5866  35.422  23.156  13.330
35986W        W 5867   9.349  44.984  11.463
35987W        W 5868  42.853  19.695   4.799
35988W        W 5869  34.869  18.728   1.838
35989W        W 5870  10.725   7.362   3.252
35990W        W 5871   9.800  20.240  12.011
35991W        W 5872  35.004   5.798   0.781
35992W        W 5873  22.234   9.649   1.841
35993W        W 5874  38.363  10.743  12.578
35994W        W 5875  11.829   4.389  12.551
35995W        W 5876  15.304  36.072   4.131
35996W        W 5877   5.305  31.407   0.735
35997W        W 5878   6.849  38.365   3.251
35998W        W 5879  22.556  41.526   2.197
35999W        W 5880  44.973  23.234   1.895
36000W        W 5881  26.088   3.835  12.555
36001W        W 5882  10.191  37.052   0.911
36002W        W 5883  28.487  10.342  13.841
36003W        W 5884  32.045  43.932  11.489
36004W        W 5885  25.682  33.970   4.268
36005W        W 5886  20.709  34.880  13.915
36006W        W 5887  19.259   4.807   0.476
36007W        W 5888   5.401  25.583   4.176
36008W        W 5889  20.676  25.111   1.765
36009W        W 5890   9.234  43.786  12.471
36010W        W 5891   9.823  32.990   2.853
36011W        W 5892  40.435   6.903   4.677
36012W        W 5893  29.598   7.384   2.801
36013W        W 5894  34.105  19.754   4.169
36014W        W 5895  37.371  13.294  13.502
36015W        W 5896  13.834   4.243  13.809
36016W        W 5897  23.009  41.369  14.762
36017W        W 5898  22.026   0.762   5.638
36018W        W 5899  21.622   1.475  10.436
36019W        W 5900  12.612  16.770  14.013
36020W        W 5901  15.612  42.858   5.226
36021W        W 5902  16.318  36.520   2.307
36022W        W 5903   7.805   9.724   3.803
36023W        W 5904  41.976  44.909  14.781
36024W        W 5905  39.013  38.483   2.184
36025W        W 5906  31.445   2.944   2.734
36026W        W 5907  39.883  17.083  13.493
36027W        W 5908  26.018  22.631   0.264
36028W        W 5909  29.078  42.295   2.265
36029W        W 5910  42.979  38.913   1.838
36030W        W 5911  39.314  32.105  11.950
36031W        W 5912  13.217  11.265   3.291
36032W        W 5913   5.295  21.038   0.782
36033W        W 5914  42.518  23.549   4.177
36034W        W 5915   7.857   2.746   0.850
36035W        W 5916  44.427  35.088  12.526
36036W        W 5917  31.537   8.824  11.593
36037W        W 5918  10.814  17.131   3.159
36038W        W 5919  39.443  27.137   0.275
36039W        W 5920  21.229   4.237   1.755
36040W        W 5921  11.256  11.707  12.964
36041W        W 5922   7.322  42.793  11.933
36042W        W 5923   5.317  22.690   0.282
36043W        W 5924  10.143  23.053  10.548
36044W        W 5925  36.020  10.339   4.744
36045W        W 5926  29.013  14.298  11.902
36046W        W 5927   0.424   8.194   3.787
36047W        W 5928  10.296  29.148  14.875
36048W        W 5929  17.672  38.066   3.786
36049W        W 5930  36.370   9.315  10.563
36050W        W 5931  15.625  38.441   1.279
36051W        W 5932  10.682  38.440  10.511
36052W        W 5933   0.799  36.351  14.351
36053W        W 5934  38.960  34.060  14.509
36054W        W 5935   9.710  25.095  11.587
36055W        W 5936  41.873  31.118  14.375
36056W        W 5937  34.430  29.060   0.312
36057W        W 5938  33.542   0.777   3.685
36058W        W 5939   3.313   0.371  13.520
36059W        W 5940  37.577   0.973   2.340
36060W        W 5941   5.243   7.303  10.578
36061W        W 5942   3.953  17.195  11.054
36062W        W 5943  19.152  28.973   3.208
36063W        W 5944  28.174  37.423  13.388
36064W        W 5945  43.795  35.044   0.768
36065W        W 5946  10.222  41.810  13.510
36066W        W 5947   7.270   7.816   4.182
36067W        W 5948   2.794   6.237   2.757
36068W        W 5949   8.876  32.113  10.920
36069W        W 5950   3.286  42.880  10.620
36070W        W 5951  38.851  42.509  13.838
36071W        W 5952  29.014  16.682  14.375
36072W        W 5953   8.371  40.520   3.843
36073W        W 5954  25.475  10.659   0.432
36074W        W 5955  16.243  27.639   1.337
36075W        W 5956  19.748  30.508   3.149
36076W        W 5957  37.505  24.620  12.918
36077W        W 5958  15.611  27.084   1.384
36078W        W 5959  30.056  19.247   3.261
36079W        W 5960  11.643  33.482   4.279
36080W        W 5961  36.030  22.596  12.437
36081W        W 5962  23.149   6.423  12.477
36082W        W 5963  22.145  11.130   1.845
36083W        W 5964  25.570   1.894  13.530
36084W        W 5965  10.853   2.256   0.242
36085W        W 5966  35.937  35.084   3.796
36086W        W 5967   3.373  29.929  14.893
36087W        W 5968   1.837   9.171  11.527
36088W        W 5969  35.405   8.323   2.187
36089W        W 5970  42.463   3.775  11.029
36090W        W 5971  32.142   4.779   0.910
36091W        W 5972  28.096  31.419  14.024
36092W        W 5973  13.200  21.110  11.529
36093W        W 5974   0.493  34.086   0.295
36094W        W 5975   4.422  36.011  12.449
36095W        W 5976  20.627  14.137  13.390
36096W        W 5977  27.618  15.823  13.329
36097W        W 5978   7.773  32.602   3.682
36098W        W 5979  16.604  10.827   0.796
36099W        W 5980  39.063  20.087  14.970
36100W        W 5981  13.792  38.923   4.285
36101W        W 5982  26.051  33.593  11.599
36102W        W 5983  27.578  10.262   4.692
36103W        W 5984  42.354  29.427   1.248
36104W        W 5985  20.253  16.598  14.337
36105W        W 5986  15.638  30.989  11.601
36106W        W 5987   7.378  36.897  12.912
36107W        W 5988   6.300  41.399   5.082
36108W        W 5989  23.236   1.411  12.577
36109W        W 5990  27.120  35.528  12.869
36110W        W 5991   0.761  30.643  13.470
36111W        W 5992  36.951  26.965  14.859
36112W        W 5993   2.257   3.345   1.329
36113W        W 5994  14.145  13.750   0.775
36114W        W 5995  22.726  43.791   0.901
36115W        W 5996  14.590  22.065  12.353
36116W        W 5997  37.368  25.702   0.936
36117W        W 5998   1.831  16.171   3.228
36118W        W 5999   6.396  35.522   3.777
36119W        W 6000   5.346  28.495   4.181
36120W        W 6001  16.267  36.942  10.434
36121W        W 6002   5.906  31.544   1.314
36122W        W 6003   5.310   7.413   1.836
36123W        W 6004  25.044   8.872   3.838
36124W        W 6005  19.620  11.256  11.077
36125W        W 6006   4.337  33.481  12.376
36126W        W 6007  28.930  42.478  14.290
36127W        W 6008  21.105   5.263   3.757
36128W        W 6009  22.125  24.668  11.884
36129W        W 6010  32.913  15.227  12.453
36130W        W 6011   1.245  15.136   0.312
36131W        W 6012  24.176  11.634  13.915
36132W        W 6013   4.867  32.114   2.279
36133W        W 6014  41.020  22.538  14.277
36134W        W 6015  28.536  16.179  12.057
36135W        W 6016   2.801  14.118   2.762
36136W        W 6017  11.661  18.291   2.277
36137W        W 6018  34.038  39.918  12.519
36138W        W 6019   3.820  12.192   4.190
36139W        W 6020   8.302  13.721   1.390
36140W        W 6021  32.015  18.783   1.932
36141W        W 6022   6.247   1.840  10.084
36142W        W 6023  34.898  38.037   3.640
36143W        W 6024  35.504  17.764   4.602
36144W        W 6025  29.952   3.729   2.329
36145W        W 6026  26.112   4.733  14.408
36146W        W 6027  35.075   2.453  11.474
36147W        W 6028  34.049   7.786  12.895
36148W        W 6029  39.927  16.078  11.397
36149W        W 6030   9.280  34.007  13.889
36150W        W 6031  40.459  40.548  11.488
36151W        W 6032   1.392  22.522   3.835
36152W        W 6033  18.297  11.267   1.909
36153W        W 6034  25.534   1.356  14.783
36154W        W 6035   6.887  43.486  12.359
36155W        W 6036  22.503   5.198   3.317
36156W        W 6037  18.137   6.239  13.016
36157W        W 6038  23.160  22.213   0.783
36158W        W 6039  32.989  36.531  10.407
36159W        W 6040  34.468  26.562   5.288
36160W        W 6041  37.441  36.485  11.398
36161W        W 6042  36.882   5.209   2.762
36162W        W 6043   3.271  34.045   0.759
36163W        W 6044  24.084  40.357  10.624
36164W        W 6045  12.710   2.774  11.497
36165W        W 6046  20.638  20.692   4.679
36166W        W 6047  12.796   8.842   1.914
36167W        W 6048  31.490   1.867  10.435
36168W        W 6049  13.135  22.252   3.157
36169W        W 6050  35.943  21.116  11.892
36170W        W 6051  23.064  34.984   1.425
36171W        W 6052  17.263   2.455   3.746
36172W        W 6053  17.203  38.008  13.481
36173W        W 6054   5.346  20.759   3.311
36174W        W 6055  31.515  39.979   2.846
36175W        W 6056  30.427  20.250  11.093
36176W        W 6057  27.159  39.515  12.484
36177W        W 6058  25.587   2.773   1.252
36178W        W 6059  27.147  19.592   0.268
36179W        W 6060   7.739  31.612  11.984
36180W        W 6061  39.448  28.153   3.654
36181W        W 6062  18.554  15.677   0.947
36182W        W 6063   1.426   6.701   4.728
36183W        W 6064  38.972  16.219   2.748
36184W        W 6065  29.942  11.624   0.323
36185W        W 6066  43.994  13.312   0.767
36186W        W 6067   3.227  34.956  12.339
36187W        W 6068  29.513  16.287  12.552
36188W        W 6069  25.479  43.431   1.319
36189W        W 6070   6.736  10.359  10.083
36190W        W 6071  24.136  15.304   1.439
36191W        W 6072  33.949  13.191   3.714
36192W        W 6073  26.595  32.900  12.891
36193W        W 6074   6.809   7.310  14.012
36194W        W 6075  28.080  42.938  10.520
36195W        W 6076   4.376   3.325  13.445
36196W        W 6077  29.530  25.978  13.901
36197W        W 6078  14.293  15.112  14.297
36198W        W 6079   7.737  10.256  13.877
36199W        W 6080   1.963  42.005   3.281
36200W        W 6081   1.381   1.263  13.484
36201W        W 6082  39.315  22.215  10.530
36202W        W 6083  41.315  36.454   2.334
36203W        W 6084   2.352  40.347   1.441
36204W        W 6085  35.006   9.790   1.280
36205W        W 6086  35.372  25.618  13.014
36206W        W 6087  41.988  31.990   1.926
36207W        W 6088  24.032  35.968   2.203
36208W        W 6089  32.071  24.991  11.079
36209W        W 6090  33.580   8.772   3.147
36210W        W 6091  21.079  44.311  13.048
36211W        W 6092   9.745  19.233   0.249
36212W        W 6093   2.249  31.600   0.777
36213W        W 6094   4.404  36.405  13.516
36214W        W 6095  36.893   7.875   4.605
36215W        W 6096  26.977  27.193   3.278
36216W        W 6097   5.299  24.187   3.674
36217W        W 6098  26.160  28.570  14.362
36218W        W 6099   0.311  24.143   4.743
36219W        W 6100  28.985  10.681   3.832
36220W        W 6101   6.206  15.307   3.275
36221W        W 6102  26.169   2.357  13.463
36222W        W 6103   6.856  37.043  12.937
36223W        W 6104  10.792  30.090   5.285
36224W        W 6105   3.932   8.661  12.022
36225W        W 6106   4.863  27.124  12.092
36226W        W 6107  41.430  22.241  14.418
36227W        W 6108   7.863  14.207  10.079
36228W        W 6109  16.212  35.094  12.416
36229W        W 6110   9.359  15.293   2.400
36230W        W 6111  22.033  34.374  10.960
36231W        W 6112   0.488  22.574   2.254
36232W        W 6113   8.671  35.573  13.803
36233W        W 6114   8.286  33.618  10.890
36234W        W 6115  44.503   8.324   0.370
36235W        W 6116  42.316   3.370   0.401
36236W        W 6117  20.587  15.084  10.916
36237W        W 6118  38.362  42.519  11.581
36238W        W 6119   1.969  11.765  11.522
36239W        W 6120   1.757  20.695   4.674
36240W        W 6121  32.420  35.858  12.371
36241W        W 6122  37.902   5.777   3.211
36242W        W 6123  34.889   8.206   1.910
36243W        W 6124  41.889  15.131  11.556
36244W        W 6125   2.794  16.297   2.705
36245W        W 6126   6.920   7.757  14.796
36246W        W 6127   3.903  32.566  14.364
36247W        W 6128  16.802  15.159   2.801
36248W        W 6129  37.432  38.006   2.700
36249W        W 6130  37.848  11.149  14.788
36250W        W 6131  29.453  19.600   4.170
36251W        W 6132  27.957  34.464  11.428
36252W        W 6133   1.331  18.758   1.295
36253W        W 6134   6.844  25.009   2.745
36254W        W 6135   8.193  25.625  11.938
36255W        W 6136  10.844  15.780   3.379
36256W        W 6137  13.310  17.271  10.072
36257W        W 6138  40.350  24.149   2.798
36258W        W 6139  37.947  15.710  11.477
36259W        W 6140  18.634  44.308  11.013
36260W        W 6141   5.241  34.511   3.355
36261W        W 6142  13.346  31.079   1.782
36262W        W 6143  14.144  23.063   4.215
36263W        W 6144  44.889  23.568  13.444
36264W        W 6145   5.803  25.703   0.776
36265W        W 6146  28.026  43.496  12.437
36266W        W 6147   9.857  33.592   2.896
36267W        W 6148  26.560  22.169   1.759
36268W        W 6149   1.761  41.423  10.624
36269W        W 6150  26.038   9.283   3.810
36270W        W 6151  33.500   9.786  11.434
36271W        W 6152   8.291  38.032  13.797
36272W        W 6153  42.412  27.054  11.572
36273W        W 6154  38.372   8.892   4.703
36274W        W 6155  20.701  17.732   3.746
36275W        W 6156  38.826   1.861   2.297
36276W        W 6157   2.949   9.217  11.859
36277W        W 6158  15.169  19.191  14.921
36278W        W 6159  14.657  31.911   0.264
36279W        W 6160   0.791  30.460  11.962
36280W        W 6161  40.512  29.544   0.459
36281W        W 6162  17.729   6.264  13.542
36282W        W 6163  37.453  34.058  13.528
36283W        W 6164  30.063   0.766   3.762
36284W        W 6165   0.888  24.997  11.564
36285W        W 6166  14.225  12.136  11.427
36286W        W 6167  32.955  28.951  12.389
36287W        W 6168  44.972  26.638   1.308
36288W        W 6169  29.483  39.044  14.416
36289W        W 6170  32.518   1.400  12.559
36290W        W 6171  22.723  40.030  13.809
36291W        W 6172  32.473  24.581   2.236
36292W        W 6173   9.735  21.608   2.389
36293W        W 6174  36.022   2.353   2.403
36294W        W 6175  17.299  29.078  10.127
36295W        W 6176  28.176  33.535   4.290
36296W        W 6177  34.095   5.908   0.333
36297W        W 6178  39.004  18.112  11.439
36298W        W 6179  43.788   0.921  12.054
36299W        W 6180   2.373  25.144  11.019
36300W        W 6181  10.806  34.468   4.739
36301W        W 6182  27.052  17.763  11.057
36302W        W 6183  32.915  20.033   3.201
36303W        W 6184   5.382  19.633   2.340
36304W        W 6185  42.848  12.191  11.120
36305W        W 6186  37.386  13.836   3.707
36306W        W 6187  28.680  17.767   2.281
36307W        W 6188   3.816  16.586  13.977
36308W        W 6189   2.263  38.363  14.764
36309W        W 6190  13.763  30.102   0.822
36310W        W 6191  24.230   1.777   2.859
36311W        W 6192   1.277  34.538  13.406
36312W        W 6193  17.773   5.415   1.223
36313W        W 6194   8.681  42.966   1.219
36314W        W 6195  25.713  16.299  12.422
36315W        W 6196  41.338  20.627  13.842
36316W        W 6197  15.214  13.719   2.900
36317W        W 6198  12.620  18.703  14.780
36318W        W 6199   3.215  35.603   2.811
36319W        W 6200  11.826   3.904  10.533
36320W        W 6201   7.857   2.247  12.963
36321W        W 6202  42.927   7.668   1.903
36322W        W 6203  12.614  17.169  13.531
36323W        W 6204  36.883  34.504   4.247
36324W        W 6205  39.017  31.582   0.863
36325W        W 6206  36.592   7.848  14.318
36326W        W 6207  42.470  29.425   0.811
36327W        W 6208  36.536   0.807   2.679
36328W        W 6209  32.442  17.293  11.941
36329W        W 6210   4.867   3.313  12.012
36330W        W 6211   9.678  10.746  14.955
36331W        W 6212   4.742  19.221   2.847
36332W        W 6213  30.556   2.424  13.315
36333W        W 6214  31.069   1.973   1.421
36334W        W 6215   6.349   4.881   5.223
36335W        W 6216  37.361   5.893  12.505
36336W        W 6217  34.505  32.902   0.864
36337W        W 6218  29.060  24.120  14.839
36338W        W 6219  33.577  24.591   4.202
36339W        W 6220  38.912  10.289   0.897
36340W        W 6221  33.984   2.447   2.753
36341W        W 6222  43.384  11.683  14.790
36342W        W 6223   8.204   2.739   3.779
36343W        W 6224  42.453  35.456   1.908
36344W        W 6225  28.637  10.835  12.889
36345W        W 6226  29.472  38.457   2.368
36346W        W 6227  20.070  18.774  14.356
36347W        W 6228  12.173  33.113  10.959
36348W        W 6229  12.132   7.789  10.536
36349W        W 6230  41.419  27.947   0.479
36350W        W 6231  17.620   8.800  14.276
36351W        W 6232  11.673   8.245  13.794
36352W        W 6233  30.915  44.336  11.093
36353W        W 6234  24.230  44.755   1.254
36354W        W 6235  34.565  33.016   3.790
36355W        W 6236   3.294  17.800   2.280
36356W        W 6237  27.087  44.929  12.867
36357W        W 6238  11.859  14.791   2.202
36358W        W 6239  17.207   8.340  10.536
36359W        W 6240  22.222   3.779   1.279
36360W        W 6241  15.323   0.305   3.281
36361W        W 6242  25.501  43.873  12.834
36362W        W 6243   5.394  25.524   0.482
36363W        W 6244  12.268  39.896  14.978
36364W        W 6245  28.455  40.858   4.151
36365W        W 6246   9.284  39.942  14.851
36366W        W 6247   2.936  18.547   0.288
36367W        W 6248  29.458  39.487  11.018
36368W        W 6249  16.742  25.093   4.148
36369W        W 6250  36.978  18.224   4.176
36370W        W 6251  37.471  21.608  14.864
36371W        W 6252   6.906   8.359   1.755
36372W        W 6253  36.371  14.143  12.956
36373W        W 6254  25.688  35.364  14.388
36374W        W 6255  14.631  31.468   1.227
36375W        W 6256  16.659  33.990   1.721
36376W        W 6257  32.123  24.097  10.911
36377W        W 6258  26.129  26.106  13.955
36378W        W 6259  19.074  13.793   3.678
36379W        W 6260  21.236  43.475  12.878
36380W        W 6261   6.354  14.135   3.323
36381W        W 6262  28.522  19.271  11.417
36382W        W 6263  17.252  14.695   1.882
36383W        W 6264  31.907   9.772  12.035
36384W        W 6265  21.106  24.666  12.575
36385W        W 6266   9.778  22.681  11.033
36386W        W 6267  39.410   9.323   4.719
36387W        W 6268  42.900  16.764   2.824
36388W        W 6269  25.484  41.416   5.307
36389W        W 6270  32.911  19.620   1.288
36390W        W 6271  36.508  15.647   5.232
36391W        W 6272  40.525  31.491  14.377
36392W        W 6273  33.028  32.905  13.312
36393W        W 6274  42.344  16.570  13.308
36394W        W 6275  44.843  42.380  10.559
36395W        W 6276  40.023  14.199  14.031
36396W        W 6277  35.426  14.792  11.043
36397W        W 6278  42.365  42.326  13.824
36398W        W 6279  33.511  32.966  12.088
36399W        W 6280  30.960   0.968  14.786
36400W        W 6281  43.412  22.118   0.745
36401W        W 6282   7.380  44.443  10.568
36402W        W 6283  30.425   9.801   2.732
36403W        W 6284  17.587  34.012  11.928
36404W        W 6285   0.259   8.690  14.374
36405W        W 6286  20.534  27.556   3.731
36406W        W 6287  36.556  14.667   1.336
36407W        W 6288  19.040  34.944   1.857
36408W        W 6289   4.932  12.715   3.694
36409W        W 6290  19.210  26.052   4.653
36410W        W 6291  42.992  17.091   1.446
36411W        W 6292   9.760  23.141  14.836
36412W        W 6293  16.242  11.255   3.633
36413W        W 6294  31.506   9.237  12.437
36414W        W 6295  23.203  32.536  12.349
36415W        W 6296  44.943   2.403  13.405
36416W        W 6297  26.140  43.453   1.774
36417W        W 6298  43.444  22.007  10.959
36418W        W 6299  21.733  19.572   4.749
36419W        W 6300   9.648  27.945   1.766
36420W        W 6301  20.756  35.549   0.786
36421W        W 6302   2.312  11.742   4.178
36422W        W 6303   4.822   7.667  10.938
36423W        W 6304   5.875  28.182   2.828
36424W        W 6305  34.405  29.424   0.812
36425W        W 6306  35.048   3.341   5.301
36426W        W 6307   7.734  21.734   2.853
36427W        W 6308   3.344  35.465  14.810
36428W        W 6309   7.753  11.658   1.856
36429W        W 6310  25.161   4.239   1.853
36430W        W 6311   8.263  26.191  13.837
36431W        W 6312  29.475   8.405   2.864
36432W        W 6313  15.150  18.691  10.626
36433W        W 6314  30.042  26.182   4.755
36434W        W 6315  12.852  14.223   0.837
36435W        W 6316  34.468  38.477  14.844
36436W        W 6317  23.011  31.912  10.124
36437W        W 6318   3.358   9.168   3.256
36438W        W 6319  17.109  38.537  14.419
36439W        W 6320   4.867  15.582   4.730
36440W        W 6321  23.078  34.543   2.872
36441W        W 6322  11.628  10.183   2.340
36442W        W 6323  30.145  22.686  11.046
36443W        W 6324   2.278  41.847  11.991
36444W        W 6325  23.668  31.624  14.353
36445W        W 6326  17.696  37.411   4.334
36446W        W 6327  14.266  42.797   2.695
36447W        W 6328  44.757   2.816   1.302
36448W        W 6329  34.869  38.429   1.241
36449W        W 6330  34.962  32.128   4.731
36450W        W 6331  18.600  20.206  13.052
36451W        W 6332  27.554  27.458  11.964
36452W        W 6333  15.798  33.466   1.721
36453W        W 6334  14.752   4.761   5.249
36454W        W 6335  36.494   1.977  12.373
36455W        W 6336  13.273  37.402  12.352
36456W        W 6337  43.301  16.229  12.470
36457W        W 6338   4.925  29.016  12.509
36458W        W 6339   0.297  32.613   2.323
36459W        W 6340   6.857   6.749  12.360
36460W        W 6341  38.821   9.806  13.983
36461W        W 6342  11.272  17.184  12.482
36462W        W 6343  32.460  12.147  13.886
36463W        W 6344   7.693   1.326  10.888
36464W        W 6345  17.736  26.966  11.927
36465W        W 6346  28.051  39.352   4.154
36466W        W 6347   6.188  41.813   2.837
36467W        W 6348  16.767   1.921  11.060
36468W        W 6349  42.401   7.805   1.701
36469W        W 6350  11.669  16.604   1.299
36470W        W 6351  44.313   3.727  14.460
36471W        W 6352   5.239  24.708   3.844
36472W        W 6353  27.970  27.090  14.274
36473W        W 6354   1.465  34.568   3.208
36474W        W 6355  42.344  13.168  13.461
36475W        W 6356   3.270  19.142  13.881
36476W        W 6357  15.756  40.414   1.229
36477W        W 6358  44.272  30.025   2.274
36478W        W 6359  23.189  37.011   0.457
36479W        W 6360   7.231   2.332   3.322
36480W        W 6361  25.467  25.569  13.360
36481W        W 6362  10.702  28.470   0.774
36482W        W 6363  41.943   6.269  13.350
36483W        W 6364  26.639  40.865   4.608
36484W        W 6365  21.085  44.315   5.264
36485W        W 6366   2.451   2.440  13.931
36486W        W 6367  24.212  20.135   2.864
36487W        W 6368  39.884  37.400  14.286
36488W        W 6369  14.700  44.963  13.006
36489W        W 6370  21.532  24.019  13.064
36490W        W 6371  40.904  34.426   2.707
36491W        W 6372  39.835  34.581   2.798
36492W        W 6373  15.703   8.698  13.376
36493W        W 6374  20.568  10.273  12.875
36494W        W 6375  40.907   2.327  10.432
36495W        W 6376  24.146  27.606  12.906
36496W        W 6377  42.922  18.270  12.856
36497W        W 6378  21.106  15.136  11.490
36498W        W 6379  16.754  23.001   3.679
36499W        W 6380  10.751  13.670   4.720
36500W        W 6381  16.669  43.881  14.339
36501W        W 6382  36.948  20.730  14.821
36502W        W 6383  33.874  33.554   1.755
36503W        W 6384  41.791  39.395  11.433
36504W        W 6385  41.819  11.719  13.525
36505W        W 6386   0.768  24.015   0.774
36506W        W 6387  32.141  13.183  10.421
36507W        W 6388  25.006   6.359   4.674
36508W        W 6389   0.395   1.239  11.493
36509W        W 6390  15.230   4.707  14.974
36510W        W 6391  11.666  35.040  10.494
36511W        W 6392  21.245   1.441  14.417
36512W        W 6393  15.801   3.711  13.818
36513W        W 6394  43.436  43.827   2.380
36514W        W 6395  28.141   0.832  10.577
36515W        W 6396  10.149  19.104  11.510
36516W        W 6397  44.880  19.596   3.646
36517W        W 6398  36.381  22.547   2.180
36518W        W 6399   9.193   3.906  10.998
36519W        W 6400   2.757   9.705   4.224
36520W        W 6401   1.481   8.173  12.836
36521W        W 6402  35.898   6.410  13.547
36522W        W 6403   1.282  12.274  12.870
36523W        W 6404  34.972   0.349  10.564
36524W        W 6405  25.216   5.429  10.488
36525W        W 6406  15.283  32.102   0.315
36526W        W 6407  28.631   5.387  11.992
36527W        W 6408  19.627   1.908   4.119
36528W        W 6409  38.961  14.191   2.414
36529W        W 6410   8.706  15.758  14.993
36530W        W 6411  19.770  43.898  12.914
36531W        W 6412  15.267  30.444  11.016
36532W        W 6413  19.046  39.335  10.436
36533W        W 6414  13.608   2.373  13.909
36534W        W 6415  28.495  19.160   0.903
36535W        W 6416  12.164  42.966   3.812
36536W        W 6417  35.461  42.302  10.493
36537W        W 6418   7.715   8.784   4.324
36538W        W 6419  30.926  43.855   1.786
36539W        W 6420  42.382  32.439   4.175
36540W        W 6421  39.530  13.188   4.800
36541W        W 6422  32.097  20.036  13.361
36542W        W 6423  43.503   9.353  12.535
36543W        W 6424  13.253   7.770  13.868
36544W        W 6425  28.989  24.655  14.453
36545W        W 6426  31.139  27.671  11.587
36546W        W 6427  26.659   4.447  12.824
36547W        W 6428   5.284  18.769  13.307
36548W        W 6429  15.638  30.148   0.804
36549W        W 6430  10.739  37.436  12.474
36550W        W 6431  13.629  16.304  11.584
36551W        W 6432  19.195  15.116  12.407
36552W        W 6433  13.261  22.115  11.610
36553W        W 6434  29.080  24.064  12.945
36554W        W 6435  31.048  37.924  13.539
36555W        W 6436  27.970   6.830  11.424
36556W        W 6437  27.194   8.756  11.873
36557W        W 6438  15.786   4.386   2.719
36558W        W 6439  35.418   8.821   0.869
36559W        W 6440  10.812   0.412  12.845
36560W        W 6441  13.333  35.494   3.277
36561W        W 6442  21.649  13.612   1.924
36562W        W 6443   7.868  43.932  12.405
36563W        W 6444  17.630  44.269   1.748
36564W        W 6445  41.011  13.161   2.410
36565W        W 6446  30.095   5.273   2.744
36566W        W 6447   5.222   7.239  11.426
36567W        W 6448  17.667  14.275   2.336
36568W        W 6449  17.600  23.594  13.064
36569W        W 6450  16.647   6.740  12.032
36570W        W 6451   1.748  12.856  14.465
36571W        W 6452  10.839  34.563   3.221
36572W        W 6453   1.739   8.379   1.933
36573W        W 6454  12.744  17.604  14.956
36574W        W 6455  36.935  19.039   4.777
36575W        W 6456  24.707  40.888   4.171
36576W        W 6457  24.196   8.791   3.221
36577W        W 6458  38.385   4.230   0.333
36578W        W 6459   9.171   1.958   9.933
36579W        W 6460  34.987  34.076   4.685
36580W        W 6461  21.692  13.114   3.218
36581W        W 6462  31.490  21.178  14.823
36582W        W 6463  29.540  33.618  14.416
36583W        W 6464  14.134  13.338   4.683
36584W        W 6465  13.141  35.056  11.486
36585W        W 6466  17.700   7.361  12.527
36586W        W 6467  30.162  24.545   1.403
36587W        W 6468   9.223  43.433   3.148
36588W        W 6469  31.104   0.266   0.397
36589W        W 6470  24.645  33.385   3.729
36590W        W 6471  36.069  30.526   4.634
36591W        W 6472  39.421  21.205  14.464
36592W        W 6473  40.544   1.310  12.022
36593W        W 6474   3.770   7.896  14.801
36594W        W 6475  30.540  23.061   3.154
36595W        W 6476  35.999  33.433   4.152
36596W        W 6477  41.037  17.270  14.288
36597W        W 6478  33.019  21.512   1.251
36598W        W 6479   8.262  16.289   0.390
36599W        W 6480  30.158  28.583   0.814
36600W        W 6481  15.808  13.814  12.436
36601W        W 6482   8.216  14.238   4.338
36602W        W 6483  28.055  17.225  14.956
36603W        W 6484  35.444  25.972  11.984
36604W        W 6485  24.989   6.905  14.444
36605W        W 6486  43.020   4.917  11.435
36606W        W 6487  28.571  13.327  12.943
36607W        W 6488   3.362  20.625   2.329
36608W        W 6489  16.687  42.778   4.656
36609W        W 6490  24.691  34.050  10.991
36610W        W 6491  24.612  10.158  13.459
36611W        W 6492  23.713  28.503  10.634
36612W        W 6493   1.481   1.787   3.148
36613W        W 6494  10.148  22.240   0.470
36614W        W 6495   3.754  43.353   2.883
36615W        W 6496   6.287  34.084   4.119
36616W        W 6497   3.741   6.414  14.438
36617W        W 6498  28.660  14.768  11.109
36618W        W 6499  19.777  12.311   1.870
36619W        W 6500  12.158  25.548  13.510
36620W        W 6501  36.435  39.538   2.373
36621W        W 6502  36.531  31.018   0.763
36622W        W 6503  44.963   7.852  13.822
36623W        W 6504  23.156  35.096   0.758
36624W        W 6505  28.554  38.915   3.824
36625W        W 6506  13.647   0.470  10.545
36626W        W 6507  36.456  32.970   4.257
36627W        W 6508  38.358  33.020   1.391
36628W        W 6509  41.910  21.064   2.760
36629W        W 6510  42.356  36.843  11.408
36630W        W 6511   3.438   9.305   0.787
36631W        W 6512  29.443   9.164  10.645
36632W        W 6513  23.092  21.169   2.272
36633W        W 6514  33.393  32.039   9.976
36634W        W 6515   5.397  44.390  10.540
36635W        W 6516  17.591   9.686  12.508
36636W        W 6517  15.582  32.956   1.313
36637W        W 6518  18.286  21.188   1.447
36638W        W 6519   7.295  20.105  11.876
36639W        W 6520  27.681  33.038   3.776
36640W        W 6521   6.724  12.327  11.062
36641W        W 6522  44.776  25.637   4.729
36642W        W 6523  19.725  18.184  13.962
36643W        W 6524   2.439  31.580   3.648
36644W        W 6525  33.615  22.205  11.466
36645W        W 6526  13.248  34.921  13.482
36646W        W 6527  10.369  24.134  10.917
36647W        W 6528  17.792  41.893   4.752
36648W        W 6529  30.936  39.512   1.225
36649W        W 6530  22.006  11.338   3.339
36650W        W 6531   2.278  27.559  11.453
36651W        W 6532  35.102  19.765   3.339
36652W        W 6533  21.085  12.709   3.310
36653W        W 6534  21.751  42.313   1.861
36654W        W 6535  35.526   5.695  10.494
36655W        W 6536   4.937  14.315  13.514
36656W        W 6537  40.007  17.660   0.801
36657W        W 6538   3.746  13.620  13.919
36658W        W 6539  30.971  42.420   1.316
36659W        W 6540  31.631   0.426   0.433
36660W        W 6541  42.029  34.386   4.143
36661W        W 6542  14.619  28.965   2.707
36662W        W 6543  31.508  19.684  10.551
36663W        W 6544  12.699   4.294  13.953
36664W        W 6545  26.702  31.976  14.516
36665W        W 6546  41.926  23.214   3.362
36666W        W 6547   1.746  41.323  13.912
36667W        W 6548   2.808   3.865  12.506
36668W        W 6549  22.741  20.189   3.771
36669W        W 6550  36.487  14.220  12.360
36670W        W 6551  23.132   4.911  10.643
36671W        W 6552  38.886   1.471   4.729
36672W        W 6553  28.016   4.857   3.307
36673W        W 6554  35.858   2.335  10.981
36674W        W 6555  15.753  42.974   2.377
36675W        W 6556  11.152  27.162  14.356
36676W        W 6557  21.108  19.061   4.793
36677W        W 6558  30.059  20.256  14.911
36678W        W 6559  38.952  30.538   2.758
36679W        W 6560  34.487  31.627  13.360
36680W        W 6561   9.781  42.954   0.766
36681W        W 6562  28.175  24.488   0.365
36682W        W 6563  42.444  41.505   2.723
36683W        W 6564  36.365  25.168   2.815
36684W        W 6565  44.355  44.459   4.134
36685W        W 6566  24.594   5.708  11.009
36686W        W 6567  25.709   5.396   2.390
36687W        W 6568  27.649  33.906   0.825
36688W        W 6569  38.453  13.646  14.027
36689W        W 6570  26.522  38.955   3.225
36690W        W 6571  22.206   0.258  12.844
36691W        W 6572  40.318  33.885   1.745
36692W        W 6573  15.125  37.477  12.949
36693W        W 6574  25.191   6.811  12.393
36694W        W 6575  36.582  39.066   0.790
36695W        W 6576  25.179   1.329  11.061
36696W        W 6577  34.613  24.712   2.884
36697W        W 6578   7.881  13.318  13.864
36698W        W 6579  25.633  39.889   2.891
36699W        W 6580  34.077  33.570   4.239
36700W        W 6581  29.631  17.630  12.958
36701W        W 6582  28.149  41.328   4.145
36702W        W 6583   6.848  41.368  10.545
36703W        W 6584  27.123  20.029   4.274
36704W        W 6585  36.583  40.389   3.723
36705W        W 6586   6.193   9.652   2.794
36706W        W 6587  33.387  34.008  11.119
36707W        W 6588   1.263  24.070  12.519
36708W        W 6589  37.051  42.890   1.762
36709W        W 6590  20.144  26.503   2.685
36710W        W 6591  39.827  12.738  14.504
36711W        W 6592  35.576  19.050  12.386
36712W        W 6593  25.084   6.922   4.172
36713W        W 6594  41.320  16.810  10.605
36714W        W 6595  34.080  43.482   4.294
36715W        W 6596   3.848  29.925  12.935
36716W        W 6597  25.571  25.016  12.363
36717W        W 6598  16.283  36.877   4.178
36718W        W 6599  25.109   6.823   4.759
36719W        W 6600  37.409   4.433   2.308
36720W        W 6601  33.579  23.594   2.400
36721W        W 6602   7.318  17.720  13.969
36722W        W 6603  34.371  14.817  14.760
36723W        W 6604  17.636   4.839  14.487
36724W        W 6605  20.617   5.875   3.219
36725W        W 6606  28.518  43.402  11.058
36726W        W 6607  38.442  35.530  13.451
36727W        W 6608   1.960   2.368   5.287
36728W        W 6609  31.632  22.537   1.927
36729W        W 6610   1.903  15.579  13.349
36730W        W 6611   0.800  44.966   4.742
36731W        W 6612   5.396  24.554  13.489
36732W        W 6613  23.550  44.928   2.212
36733W        W 6614  18.264   2.317  12.003
36734W        W 6615  33.590  39.523   4.193
36735W        W 6616  20.241  36.068   4.655
36736W        W 6617   8.726  24.994   4.712
36737W        W 6618   5.218  20.176   2.382
36738W        W 6619  21.210   7.768   4.757
36739W        W 6620   2.352  25.160   5.297
36740W        W 6621   0.382  39.834  13.864
36741W        W 6622  26.604  16.305  12.922
36742W        W 6623  19.098  11.628  12.521
36743W        W 6624  44.433  14.697   1.275
36744W        W 6625   6.246   8.387   0.923
36745W        W 6626  36.440  15.272   0.446
36746W        W 6627  21.672   3.778  14.476
36747W        W 6628  19.568   3.255   3.299
36748W        W 6629  41.514  36.442  12.076
36749W        W 6630  12.236  19.110  11.593
36750W        W 6631  26.062  23.617   9.997
36751W        W 6632  14.317  31.130   4.720
36752W        W 6633  13.192  37.579   9.949
36753W        W 6634  21.655  36.574   1.318
36754W        W 6635  27.575  26.150  14.515
36755W        W 6636  20.682  31.101   1.380
36756W        W 6637  34.068  40.440   1.345
36757W        W 6638  30.973  29.005  10.085
36758W        W 6639  39.489  23.206  13.799
36759W        W 6640  27.538  10.172  11.459
36760W        W 6641   3.218  20.059   4.642
36761W        W 6642  30.156  25.513  13.420
36762W        W 6643  15.623  29.056   2.720
36763W        W 6644  11.160   8.185   2.895
36764W        W 6645  27.617  33.442  13.313
36765W        W 6646   2.344  25.219  14.990
36766W        W 6647   3.222  23.192   4.823
36767W        W 6648  43.784  16.214  13.798
36768W        W 6649  19.605  31.149   0.767
36769W        W 6650  20.192  30.553   9.618
36770W        W 6651  39.407  21.073   1.926
36771W        W 6652  27.953  13.691  14.894
36772W        W 6653  35.984  10.360  10.452
36773W        W 6654  24.550  12.225   0.824
36774W        W 6655  25.526  24.147   0.249
36775W        W 6656  40.808  29.607  10.505
36776W        W 6657   2.408   1.919  10.566
36777W        W 6658  23.211  29.572  13.413
36778W        W 6659  34.011  14.120  12.052
36779W        W 6660  23.187   2.436   2.304
36780W        W 6661  43.015  26.629  13.974
36781W        W 6662   7.396  24.114   1.704
36782W        W 6663  13.252  25.989  10.430
36783W        W 6664  32.135  40.346  14.797
36784W        W 6665  33.945  27.593  14.449
36785W        W 6666   3.722   9.886  14.803
36786W        W 6667  35.403   8.707  12.925
36787W        W 6668  12.223  18.205  13.999
36788W        W 6669   0.469  25.682   0.357
36789W        W 6670  27.495  34.932  11.882
36790W        W 6671   3.747   4.812  11.599
36791W        W 6672  16.173  30.647   4.616
36792W        W 6673  29.471  39.924  11.567
36793W        W 6674  44.316  17.244  13.445
36794W        W 6675  20.042  28.667  12.973
36795W        W 6676  11.135  19.101   4.199
36796W        W 6677   9.379  20.040   4.191
36797W        W 6678  38.958  36.004   3.376
36798W        W 6679  22.553   8.768   0.300
36799W        W 6680  44.293  29.592  11.458
36800W        W 6681  28.618  11.185   1.360
36801W        W 6682  43.501   8.308  10.514
36802W        W 6683  12.337   4.884   0.833
36803W        W 6684  28.966  43.855  14.841
36804W        W 6685  30.932  35.908  12.477
36805W        W 6686  34.594   5.409   0.394
36806W        W 6687   6.256  21.135   0.842
36807W        W 6688  42.902  11.681   4.768
36808W        W 6689  16.184   2.841   4.691
36809W        W 6690   3.769   0.949   2.302
36810W        W 6691  21.599  18.082  10.566
36811W        W 6692  43.379  44.849  10.537
36812W        W 6693  41.801  18.698   1.402
36813W        W 6694  10.754  30.597  10.480
36814W        W 6695  32.922  12.663   0.783
36815W        W 6696  44.846   0.420  14.459
36816W        W 6697  16.628   9.285   0.844
36817W        W 6698  30.570  30.155  14.363
36818W        W 6699  19.249  42.296  11.503
36819W        W 6700  24.585   2.234  13.972
36820W        W 6701  40.518  38.875  11.934
36821W        W 6702  14.700  32.541  13.968
36822W        W 6703   0.894   2.250  11.584
36823W        W 6704  12.826  40.931  14.300
36824W        W 6705  29.929  33.606   3.319
36825W        W 6706  36.884  26.195  11.981
36826W        W 6707  20.596  37.411  14.918
36827W        W 6708  33.932   0.893  14.803
36828W        W 6709  34.377   4.363  11.992
36829W        W 6710  26.136  32.122  12.095
36830W        W 6711   1.330   6.694  14.027
36831W        W 6712   7.713  29.140   1.930
36832W        W 6713  34.940  43.974   0.934
36833W        W 6714  33.580  32.425   1.319
36834W        W 6715  10.649  44.786   1.337
36835W        W 6716  37.868  38.452  13.883
36836W        W 6717  12.294   2.376   2.276
36837W        W 6718  15.624  13.600  12.096
36838W        W 6719  24.194  39.909   4.307
36839W        W 6720  25.489  13.642   3.669
36840W        W 6721   3.899  31.020   3.149
36841W        W 6722  18.647  25.481  12.498
36842W        W 6723  17.298  15.726  10.910
36843W        W 6724  30.434  11.719   4.259
36844W        W 6725  37.849  22.746   0.798
36845W        W 6726  43.973  12.171   0.798
36846W        W 6727   1.368  31.038  12.053
36847W        W 6728  41.479   6.711   3.363
36848W        W 6729   3.408   6.315   2.671
36849W        W 6730  31.077   3.327   1.356
36850W        W 6731  18.682  29.614   2.708
36851W        W 6732  15.707  18.777  10.494
36852W        W 6733  44.352  23.141   4.677
36853W        W 6734  40.971   1.781  13.899
36854W        W 6735  24.714  36.063   4.241
36855W        W 6736  29.022  12.136  13.500
36856W        W 6737  44.914  16.229   2.788
36857W        W 6738  13.703  19.722  11.027
36858W        W 6739   8.675  34.958   3.246
36859W        W 6740  40.880  18.587   0.440
36860W        W 6741  43.910   6.766  11.979
36861W        W 6742  36.532  38.075  14.298
36862W        W 6743  40.405  33.382   2.342
36863W        W 6744  41.878  34.405  14.425
36864W        W 6745  13.600  14.161  12.458
36865W        W 6746   9.208   8.800  10.550
36866W        W 6747  10.766  44.502  14.868
36867W        W 6748  39.521  25.075   3.862
36868W        W 6749  16.628  11.710   0.811
36869W        W 6750  22.564   1.874  14.003
36870W        W 6751   8.681  10.296  14.387
36871W        W 6752  41.845  37.409   3.814
36872W        W 6753  39.986  32.459  14.009
36873W        W 6754   0.760   9.304   3.839
36874W        W 6755  44.316  22.739   3.356
36875W        W 6756  38.380  10.803  13.923
36876W        W 6757  33.076   2.721  14.322
36877W        W 6758  40.913  24.588  11.937
36878W        W 6759  43.782   6.859   1.266
36879W        W 6760  38.436  15.819  11.022
36880W        W 6761  16.671   1.450   0.289
36881W        W 6762   3.748  42.814   4.652
36882W        W 6763   5.899  37.347   5.291
36883W        W 6764  33.614  36.426  14.799
36884W        W 6765   8.381  38.368  12.550
36885W        W 6766  10.261  25.633   0.743
36886W        W 6767  18.139  38.547  13.981
36887W        W 6768  10.714  31.460   1.694
36888W        W 6769  25.998  35.886  11.057
36889W        W 6770  18.059  18.141   4.143
36890W        W 6771  10.828  32.141  12.476
36891W        W 6772  19.240  36.514  13.996
36892W        W 6773  22.232  31.936  13.373
36893W        W 6774  15.300  35.521   2.280
36894W        W 6775   6.762  40.986   3.317
36895W        W 6776  37.872  34.040   4.707
36896W        W 6777  35.881  32.944   3.847
36897W        W 6778   1.388  17.252  14.444
36898W        W 6779  44.933  42.316  14.393
36899W        W 6780  30.477  24.605   4.255
36900W        W 6781  28.992  19.563   3.841
36901W        W 6782  22.651  40.927  14.786
36902W        W 6783  36.475   2.449   0.918
36903W        W 6784   7.823  16.680  14.482
36904W        W 6785   1.459  17.715   0.963
36905W        W 6786  34.081  11.712   4.738
36906W        W 6787  37.435   2.921   1.808
36907W        W 6788  29.100  39.859  14.770
36908W        W 6789  33.092  17.662  11.883
36909W        W 6790  11.231  16.568   5.135
36910W        W 6791  35.371  15.764  14.937
36911W        W 6792  13.776  39.424  10.992
36912W        W 6793   5.365   9.888  14.894
36913W        W 6794  13.775   9.715   4.676
36914W        W 6795  43.007  28.637  13.024
36915W        W 6796  19.709  25.986  10.539
36916W        W 6797  33.984  37.072  12.373
36917W        W 6798  19.122  44.855  14.836
36918W        W 6799   3.276  10.367  14.322
36919W        W 6800  32.495  39.949  12.343
36920W        W 6801  26.128  30.532  11.065
36921W        W 6802  22.148  17.802  10.406
36922W        W 6803  17.145  17.671  13.820
36923W        W 6804  22.996  25.556   1.386
36924W        W 6805  43.306  22.691  11.998
36925W        W 6806  44.878  14.612   4.310
36926W        W 6807  33.464  34.082   1.247
36927W        W 6808  15.328  30.151  13.924
36928W        W 6809  25.988   3.810   4.294
36929W        W 6810  25.521   1.295   2.226
36930W        W 6811  36.042  44.468  13.465
36931W        W 6812  40.983  19.060  10.543
36932W        W 6813  24.106   0.826   3.679
36933W        W 6814  11.833  33.064   4.202
36934W        W 6815  30.532   8.665  10.419
36935W        W 6816   9.797  16.290  13.007
36936W        W 6817  23.721   5.212   0.763
36937W        W 6818   1.967  20.078  11.043
36938W        W 6819  44.425  27.514  14.405
36939W        W 6820  22.740  25.571  11.977
36940W        W 6821  14.140  38.456  11.978
36941W        W 6822  18.107  24.719  12.853
36942W        W 6823  43.280  41.349   9.966
36943W        W 6824  44.313  29.544   4.219
36944W        W 6825  21.097  32.527  14.830
36945W        W 6826  27.129  13.164  13.867
36946W        W 6827  42.985  16.298   4.299
36947W        W 6828  20.684  32.569   3.333
36948W        W 6829  43.015  38.012   5.105
36949W        W 6830  36.528   9.227  12.980
36950W        W 6831  25.605  14.322   3.327
36951W        W 6832  30.467  15.681   2.734
36952W        W 6833  39.944  10.875   2.250
36953W        W 6834   6.186  14.235   2.204
36954W        W 6835  17.721  35.858   3.149
36955W        W 6836   8.658   5.302   4.345
36956W        W 6837  19.559  28.594   2.179
36957W        W 6838  39.959  29.965  10.523
36958W        W 6839  11.212  22.583   2.797
36959W        W 6840  13.280  11.770   0.747
36960W        W 6841  41.949  17.675  14.400
36961W        W 6842   9.815  16.158  14.969
36962W        W 6843   8.836   9.722   3.311
36963W        W 6844  35.867   2.745  14.860
36964W        W 6845  39.454  30.442  14.465
36965W        W 6846  21.753   7.329  11.382
36966W        W 6847   2.275  34.475  14.998
36967W        W 6848  26.036  33.470  11.867
36968W        W 6849  28.103  38.442  11.376
36969W        W 6850  31.552   9.687   2.328
36970W        W 6851  25.179  16.567   3.272
36971W        W 6852   2.831  22.210   4.127
36972W        W 6853  42.460  11.821  13.819
36973W        W 6854  18.593  13.180   0.391
36974W        W 6855  43.013  36.008   3.339
36975W        W 6856  43.858  18.570   2.386
36976W        W 6857  44.772   8.196   3.769
36977W        W 6858  36.543  32.561  10.510
36978W        W 6859  36.884   2.954  11.975
36979W        W 6860   3.765  31.453  14.809
36980W        W 6861   2.294  21.109  12.956
36981W        W 6862  19.148  18.740   1.734
36982W        W 6863   7.904  15.698  11.857
36983W        W 6864  43.945  17.267   4.829
36984W        W 6865  16.777   5.882   2.753
36985W        W 6866  20.080  36.467  12.439
36986W        W 6867  20.726  42.872   1.342
36987W        W 6868  32.000  17.674  14.812
36988W        W 6869  41.864  11.269  12.356
36989W        W 6870  43.998   8.406   1.324
36990W        W 6871   8.767  10.221   0.351
36991W        W 6872  15.582   4.835  10.158
36992W        W 6873   4.887  39.499  13.852
36993W        W 6874  13.618   8.265   1.768
36994W        W 6875  32.540  33.926   3.224
36995W        W 6876   9.743  33.554  12.011
36996W        W 6877   8.866  10.227  12.347
36997W        W 6878  25.484  33.885   2.688
36998W        W 6879   1.971  43.964   4.683
36999W        W 6880  29.163   3.332  12.549
37000W        W 6881  24.645  19.243   3.201
37001W        W 6882  42.281  18.609  11.100
37002W        W 6883  41.424  20.109   3.367
37003W        W 6884  25.686  29.094   4.294
37004W        W 6885  33.548  26.531   2.270
37005W        W 6886  27.655  16.285   0.458
37006W        W 6887  23.636  13.267  10.980
37007W        W 6888  40.826  22.082   4.834
37008W        W 6889  32.981   3.728  12.344
37009W        W 6890   9.762  28.550  12.048
37010W        W 6891  20.604   1.335  12.401
37011W        W 6892  25.523  27.512   2.344
37012W        W 6893  10.279  18.208  14.304
37013W        W 6894  25.567  37.478   3.272
37014W        W 6895   3.305  36.037  14.473
37015W        W 6896  39.971  22.241   4.607
37016W        W 6897  36.422  23.600  13.471
37017W        W 6898   6.919  35.958   3.772
37018W        W 6899  39.422  11.216   3.158
37019W        W 6900  15.807  43.969   2.322
37020W        W 6901   9.378  16.189   2.391
37021W        W 6902  12.254   4.882  10.438
37022W        W 6903  13.816  43.488   1.230
37023W        W 6904  16.138  24.095  12.872
37024W        W 6905   2.443  41.354  13.533
37025W        W 6906   7.189  27.144   2.258
37026W        W 6907   9.695  29.060  12.443
37027W        W 6908   3.737  42.473  12.425
37028W        W 6909  38.949  26.462   1.387
37029W        W 6910  18.719  39.458  10.935
37030W        W 6911  40.522   4.824   4.219
37031W        W 6912  27.684  15.220   0.867
37032W        W 6913   6.252  10.323   1.696
37033W        W 6914  41.040  41.866   1.253
37034W        W 6915  24.995   3.886  13.546
37035W        W 6916  25.027  14.620  11.069
37036W        W 6917  18.262   3.253   2.767
37037W        W 6918  21.027  20.120  12.925
37038W        W 6919  24.178   0.261   4.299
37039W        W 6920  39.524   4.916   1.423
37040W        W 6921  34.978  41.461   3.784
37041W        W 6922  25.149  38.032   3.306
37042W        W 6923  42.007  35.594   4.806
37043W        W 6924   9.675  31.947   4.657
37044W        W 6925  30.091  41.867  11.530
37045W        W 6926  20.764  44.829  10.007
37046W        W 6927  23.574  36.385  13.051
37047W        W 6928  31.923  22.013   3.806
37048W        W 6929  25.988  20.682   4.154
37049W        W 6930   6.353   9.278  13.821
37050W        W 6931  38.843  33.084  14.896
37051W        W 6932  38.966  42.874  13.057
37052W        W 6933  36.957  26.990  10.451
37053W        W 6934  38.980  35.590  13.468
37054W        W 6935   8.272  42.992  12.974
37055W        W 6936  27.967  30.654  14.996
37056W        W 6937  39.384  24.635   1.302
37057W        W 6938   1.744   1.895   0.466
37058W        W 6939  41.455   1.756   2.375
37059W        W 6940  23.710   9.881   3.325
37060W        W 6941  19.661  36.570   3.247
37061W        W 6942  40.418  28.534   3.320
37062W        W 6943  18.742  44.265   0.439
37063W        W 6944  25.962  35.452   2.192
37064W        W 6945  43.916  11.257   1.712
37065W        W 6946  40.321  19.685   4.708
37066W        W 6947   5.239  11.804  11.057
37067W        W 6948   9.828  29.953  10.581
37068W        W 6949  15.166  37.935  13.847
37069W        W 6950  13.657  42.921  12.389
37070W        W 6951  23.698   1.801  10.585
37071W        W 6952  25.654  25.505  12.356
37072W        W 6953  12.273  29.555   0.433
37073W        W 6954  19.535   7.306   2.901
37074W        W 6955  10.182  15.087   0.451
37075W        W 6956   8.238  10.170   4.791
37076W        W 6957   5.287  10.666   3.198
37077W        W 6958  35.043  40.819   1.346
37078W        W 6959  36.417  13.750   3.258
37079W        W 6960  22.186  31.078   4.321
37080W        W 6961   1.913  30.490  14.416
37081W        W 6962  34.479  37.987  13.444
37082W        W 6963  42.500  16.126  14.387
37083W        W 6964   4.746  38.519  10.453
37084W        W 6965  10.292  31.588  14.451
37085W        W 6966   2.942  17.683  11.438
37086W        W 6967  25.965  30.453  12.841
37087W        W 6968   3.754  42.809  12.961
37088W        W 6969  21.527  37.438   0.322
37089W        W 6970  11.347  13.345  14.371
37090W        W 6971  33.115   0.482  10.517
37091W        W 6972  37.874  14.205  10.967
37092W        W 6973  26.053  41.455  10.957
37093W        W 6974  31.570   3.226  10.470
37094W        W 6975  44.309  21.259   9.973
37095W        W 6976  10.853   4.944   2.830
37096W        W 6977  21.058  17.277   4.336
37097W        W 6978  20.113  17.199   3.309
37098W        W 6979  43.784  13.791   2.799
37099W        W 6980   1.945   0.915  10.487
37100W        W 6981   4.864  13.240  12.871
37101W        W 6982   2.845  23.230   1.232
37102W        W 6983  24.205   9.301   0.450
37103W        W 6984  42.860  13.789   4.653
37104W        W 6985  12.243  35.104  10.890
37105W        W 6986  29.602   6.792   4.830
37106W        W 6987  15.814  22.648   2.276
37107W        W 6988  23.077  14.791  11.021
37108W        W 6989  24.092  16.768  14.515
37109W        W 6990   5.251   6.238  14.424
37110W        W 6991  28.671  33.044  13.041
37111W        W 6992  42.836  34.554  12.089
37112W        W 6993   2.757  36.404   1.782
37113W        W 6994  15.610   9.648   3.213
37114W        W 6995  30.479  44.987   3.684
37115W        W 6996  11.693  13.337  10.910
37116W        W 6997  15.581  35.560  10.920
37117W        W 6998  13.842  19.546   1.268
37118W        W 6999  32.550   9.822   0.847
37119W        W 7000  24.080  30.971  10.969
37120W        W 7001  40.828   3.898  13.471
37121W        W 7002  12.238  37.579  13.925
37122W        W 7003   5.908  34.062  11.496
37123W        W 7004  19.769  21.037   0.900
37124W        W 7005  32.497   9.337   3.692
37125W        W 7006  24.488   8.321   2.284
37126W        W 7007  19.633  27.448   3.704
37127W        W 7008  39.337  41.969  14.025
37128W        W 7009  21.589  35.588   1.286
37129W        W 7010  15.659  40.004   5.183
37130W        W 7011   1.345  38.830  14.787
37131W        W 7012  36.042  43.019   1.277
37132W        W 7013   4.214  34.491   3.829
37133W        W 7014  17.185  40.929  12.933
37134W        W 7015  44.850   4.335  14.804
37135W        W 7016  11.627  32.949   1.810
37136W        W 7017  44.919  27.650  10.449
37137W        W 7018  34.547  37.513   4.771
37138W        W 7019  12.191   9.799   0.482
37139W        W 7020  11.837  28.541   5.299
37140W        W 7021  33.409  13.677   2.663
37141W        W 7022  35.983  11.850   0.779
37142W        W 7023  32.143   7.795   0.779
37143W        W 7024   7.380  21.042   4.675
37144W        W 7025   8.864  23.665   2.249
37145W        W 7026  35.856  38.896   9.969
37146W        W 7027  20.766  30.555  10.519
37147W        W 7028   7.745   4.862  13.965
37148W        W 7029  39.919  36.589   2.756
37149W        W 7030   7.330  35.040  12.357
37150W        W 7031  26.492  41.397   2.270
37151W        W 7032  25.546  41.891  14.275
37152W        W 7033  23.682  35.562  12.048
37153W        W 7034  14.730  25.576   1.214
37154W        W 7035  25.049  23.641   4.656
37155W        W 7036  44.421   5.418   1.273
37156W        W 7037  28.072  17.688  12.940
37157W        W 7038   1.847  18.170  11.873
37158W        W 7039   1.938  25.174   1.721
37159W        W 7040  33.890  37.382  12.980
37160W        W 7041  35.029  23.696   4.796
37161W        W 7042  23.082  20.035  13.435
37162W        W 7043   5.403  43.312   0.434
37163W        W 7044  26.691  44.995   3.733
37164W        W 7045   9.801  10.378   1.729
37165W        W 7046  26.040  11.850  13.363
37166W        W 7047  37.862  42.032   0.911
37167W        W 7048  25.658  13.631   3.191
37168W        W 7049   3.335   4.862  13.997
37169W        W 7050  34.900  15.694   4.683
37170W        W 7051  33.468  31.957  10.506
37171W        W 7052  37.581  25.025  13.431
37172W        W 7053  18.699  44.930  13.059
37173W        W 7054   7.377  34.918   1.280
37174W        W 7055  15.696  44.981  14.815
37175W        W 7056   6.405   3.909  13.962
37176W        W 7057  24.527  10.215  12.549
37177W        W 7058  36.470  13.251  14.447
37178W        W 7059  17.208  20.740   0.286
37179W        W 7060  30.074  40.390   1.845
37180W        W 7061  33.097   2.245  12.964
37181W        W 7062   5.754  13.194   3.632
37182W        W 7063  36.958  44.989   3.671
37183W        W 7064  39.967   8.328  11.503
37184W        W 7065   7.833  33.443   3.209
37185W        W 7066  15.724  21.619   1.787
37186W        W 7067  15.756  15.708   1.373
37187W        W 7068  16.783  39.488   4.748
37188W        W 7069  29.486  43.468   4.296
37189W        W 7070  21.537  42.366   3.654
37190W        W 7071  14.294  44.977  11.484
37191W        W 7072   3.414   3.308  10.505
37192W        W 7073   9.384   0.331  11.464
37193W        W 7074   0.786  44.460   3.369
37194W        W 7075   7.713   0.771  14.343
37195W        W 7076  14.197  10.222  12.999
37196W        W 7077  11.801  10.338  10.150
37197W        W 7078  16.713  39.021  13.016
37198W        W 7079  37.425  25.641   3.217
37199W        W 7080  15.114   5.263   4.319
37200W        W 7081  25.619  12.246   3.686
37201W        W 7082  11.222  41.352   3.689
37202W        W 7083  32.133   1.341   4.631
37203W        W 7084  29.603  22.625   3.805
37204W        W 7085  17.283   3.903  11.482
37205W        W 7086  29.953  44.267  10.523
37206W        W 7087  16.775   4.404   0.944
37207W        W 7088  16.281  30.153  14.387
37208W        W 7089  11.192   0.787   4.148
37209W        W 7090  30.962   3.300   3.751
37210W        W 7091  39.890  20.681  12.851
37211W        W 7092  42.954  32.911   1.414
37212W        W 7093  38.953   0.837   3.630
37213W        W 7094  29.079  24.135  12.541
37214W        W 7095  35.484  41.438   4.761
37215W        W 7096  13.347  32.127   5.184
37216W        W 7097  25.482   2.920  14.325
37217W        W 7098  25.515  13.275   0.845
37218W        W 7099  36.509  27.079  11.439
37219W        W 7100   4.215   6.267   2.321
37220W        W 7101  36.074   9.876  13.927
37221W        W 7102  42.407   6.231   4.303
37222W        W 7103  27.532  18.144  12.434
37223W        W 7104   6.909  12.132   1.875
37224W        W 7105  29.501   5.313   3.164
37225W        W 7106  32.418   5.270   4.226
37226W        W 7107  17.700  33.101  13.909
37227W        W 7108  11.839  38.926  13.482
37228W        W 7109  22.236  20.050   2.845
37229W        W 7110  33.875  28.981   2.212
37230W        W 7111  11.783  32.537  13.419
37231W        W 7112  36.548  11.135  12.434
37232W        W 7113  25.204   2.457  14.872
37233W        W 7114  42.968  13.716  11.867
37234W        W 7115  29.463   6.825   2.181
37235W        W 7116   9.160  43.005  11.376
37236W        W 7117  41.907  17.593   4.770
37237W        W 7118  13.147  36.998  10.966
37238W        W 7119  16.132   3.325   3.855
37239W        W 7120  32.088  41.364   1.813
37240W        W 7121  41.360  28.529   3.859
37241W        W 7122  37.397  42.285  13.414
37242W        W 7123   1.270   1.279  12.909
37243W        W 7124  19.633   0.881   4.775
37244W        W 7125  17.287  34.500  12.046
37245W        W 7126   1.239  26.058  11.418
37246W        W 7127  11.162  42.513   0.341
37247W        W 7128  24.067  31.120  10.499
37248W        W 7129   5.289   8.691   4.683
37249W        W 7130  12.349  43.950  13.892
37250W        W 7131  21.258  26.517   1.347
37251W        W 7132   4.822  16.753   4.676
37252W        W 7133  31.050  33.514  11.372
37253W        W 7134   0.248  42.460  12.967
37254W        W 7135   5.290  30.511   4.325
37255W        W 7136  25.977  31.451  13.521
37256W        W 7137  20.198  24.097  13.017
37257W        W 7138  13.153  14.138  11.049
37258W        W 7139  20.146   2.845   0.801
37259W        W 7140   4.283  35.858   1.720
37260W        W 7141  10.797  31.513   3.213
37261W        W 7142   4.269   4.261   1.786
37262W        W 7143  30.941  20.644  11.524
37263W        W 7144  20.213   2.844   2.871
37264W        W 7145  10.196  40.399  10.415
37265W        W 7146  29.592  37.501  14.892
37266W        W 7147  29.139  40.540   1.437
37267W        W 7148   6.302  40.533   0.727
37268W        W 7149  40.943   4.211   0.432
37269W        W 7150  14.246  24.538   4.139
37270W        W 7151  11.750  35.086   3.683
37271W        W 7152   1.425  13.239   1.288
37272W        W 7153  12.828  15.683  14.801
37273W        W 7154  34.059  38.849   0.286
37274W        W 7155   6.818  20.594   3.822
37275W        W 7156  38.457  35.406  14.879
37276W        W 7157  27.995  42.943  14.959
37277W        W 7158  32.465   2.400  11.388
37278W        W 7159  30.131  38.513   4.204
37279W        W 7160  23.633  30.459  13.834
37280W        W 7161   1.432  43.295  10.892
37281W        W 7162  18.681   7.189   2.777
37282W        W 7163  11.367   7.800  12.926
37283W        W 7164   2.770  30.413  11.986
37284W        W 7165  42.493  44.882  10.627
37285W        W 7166  11.159  13.298   1.258
37286W        W 7167  12.669  24.140  14.486
37287W        W 7168  19.727  39.895   0.880
37288W        W 7169  23.184  12.698  10.612
37289W        W 7170   2.248  18.127  12.070
37290W        W 7171  14.167  43.811  14.370
37291W        W 7172  17.305  25.026   2.789
37292W        W 7173  28.578   5.899  14.355
37293W        W 7174  15.696  15.750  13.042
37294W        W 7175   7.797   1.478   3.685
37295W        W 7176  37.410  34.570  11.457
37296W        W 7177  30.977  32.400  14.326
37297W        W 7178  21.548  33.382   2.191
37298W        W 7179  10.286  18.174   2.767
37299W        W 7180  22.564  42.975   1.359
37300W        W 7181  41.439  24.599   1.930
37301W        W 7182  42.424  37.973  10.514
37302W        W 7183  18.610  33.428   2.222
37303W        W 7184   2.280  41.496  11.563
37304W        W 7185  43.874  39.483   1.885
37305W        W 7186  28.075  29.467   2.804
37306W        W 7187  19.219  21.667   4.822
37307W        W 7188   4.428  43.345  12.057
37308W        W 7189  33.444   0.955  13.969
37309W        W 7190  14.102  10.837   2.208
37310W        W 7191   5.274  11.260   0.768
37311W        W 7192  19.087  31.513   3.282
37312W        W 7193   5.402  26.972  10.639
37313W        W 7194   0.822  41.536  12.469
37314W        W 7195  37.443  14.323  11.063
37315W        W 7196  30.624  29.598  11.037
37316W        W 7197   4.300  18.133  11.399
37317W        W 7198   7.326  35.521   1.274
37318W        W 7199  16.683  10.169   1.264
37319W        W 7200   8.714  28.167  10.551
37320W        W 7201  44.291  24.605   4.221
37321W        W 7202  34.884  36.050   1.752
37322W        W 7203  23.509  32.129  12.984
37323W        W 7204  33.122  36.413   2.875
37324W        W 7205   4.320  36.548  11.105
37325W        W 7206  31.011   0.354  13.359
37326W        W 7207  23.241  12.175  13.316
37327W        W 7208  12.306  32.398   1.394
37328W        W 7209  16.790   5.258  13.870
37329W        W 7210  43.324  16.666   2.898
37330W        W 7211   7.775  36.349   1.278
37331W        W 7212  14.108   9.337  14.781
37332W        W 7213  13.797  21.567   4.637
37333W        W 7214  38.925   7.793  11.610
37334W        W 7215  29.969  42.519   1.755
37335W        W 7216  18.599   6.897  13.470
37336W        W 7217  19.756  23.193  12.969
37337W        W 7218  42.416   0.395   0.965
37338W        W 7219   9.364  10.224   3.686
37339W        W 7220   7.786   4.383  11.385
37340W        W 7221   0.851  39.350  14.972
37341W        W 7222   7.407  14.702   2.846
37342W        W 7223  31.069   0.869   3.217
37343W        W 7224  10.669  11.837   3.655
37344W        W 7225   4.909  41.864   3.195
37345W        W 7226  25.594   6.738  11.504
37346W        W 7227  20.086  17.698  14.857
37347W        W 7228  31.941  32.046  14.328
37348W        W 7229  30.944  33.598  12.987
37349W        W 7230  43.343   0.449  13.496
37350W        W 7231  34.573   6.284   4.799
37351W        W 7232  21.701  27.051   1.708
37352W        W 7233  35.913  22.630   4.237
37353W        W 7234  44.455  15.646   0.430
37354W        W 7235   6.818  28.532  11.426
37355W        W 7236  30.047  16.803   1.388
37356W        W 7237  21.652  35.540  12.538
37357W        W 7238  16.263  29.012  11.889
37358W        W 7239   0.778  33.519  14.505
37359W        W 7240   2.768  20.583  11.401
37360W        W 7241  20.057   1.973   5.177
37361W        W 7242  19.110  22.027  12.064
37362W        W 7243  37.967  12.657  10.988
37363W        W 7244  11.759   8.888   4.748
37364W        W 7245  24.197  25.588   2.180
37365W        W 7246  40.992  13.637  11.093
37366W        W 7247   0.281  26.562  12.507
37367W        W 7248  20.680  39.926   2.867
37368W        W 7249  29.650  31.938   2.764
37369W        W 7250  28.074  30.580  12.031
37370W        W 7251  35.970  15.102   4.174
37371W        W 7252  23.595  28.603   4.210
37372W        W 7253  23.732  38.966   1.720
37373W        W 7254  19.245  35.551   1.249
37374W        W 7255   2.373   0.327  12.550
37375W        W 7256  25.972  35.997   3.666
37376W        W 7257   3.457   0.253  10.160
37377W        W 7258  33.002   3.740  10.457
37378W        W 7259  41.899  42.442   3.380
37379W        W 7260  31.975  42.934   3.796
37380W        W 7261  44.362   5.769  12.082
37381W        W 7262  33.085  21.112  10.507
37382W        W 7263   3.763  19.041   1.815
37383W        W 7264  18.103  43.466  14.423
37384W        W 7265  41.892  21.704   4.337
37385W        W 7266  17.711  12.857   1.885
37386W        W 7267  15.757  43.281  14.798
37387W        W 7268  14.626   7.705  10.441
37388W        W 7269   4.818  12.279   0.293
37389W        W 7270  28.564  36.590  14.393
37390W        W 7271  32.046  34.477   0.325
37391W        W 7272  34.927  35.958   9.981
37392W        W 7273  27.567   4.863   0.382
37393W        W 7274  39.457  10.329  13.338
37394W        W 7275  40.870  19.164  11.449
37395W        W 7276   1.317   8.826  14.008
37396W        W 7277  44.396  19.543   0.343
37397W        W 7278  23.636   1.307  14.470
37398W        W 7279  30.916  29.512   1.344
37399W        W 7280  18.702  20.185   1.809
37400W        W 7281   9.211  37.072   3.386
37401W        W 7282   9.260  40.052   1.927
37402W        W 7283  40.329  32.415  14.429
37403W        W 7284  19.153  15.612   3.206
37404W        W 7285  19.771  21.627  13.387
37405W        W 7286   5.931  37.853   1.424
37406W        W 7287  32.026  20.071  12.982
37407W        W 7288   5.770  17.081   4.672
37408W        W 7289  31.581  29.936   3.821
37409W        W 7290  34.068  18.734   0.458
37410W        W 7291  41.898  30.524   1.322
37411W        W 7292  37.950  38.067  10.545
37412W        W 7293  43.875  27.149  14.372
37413W        W 7294   6.749   9.155   2.203
37414W        W 7295   5.765  41.911   4.631
37415W        W 7296  32.635   3.384   3.656
37416W        W 7297  23.560   2.741  12.888
37417W        W 7298  25.622  43.422   0.479
37418W        W 7299  32.633  12.735  10.586
37419W        W 7300  24.153  18.568  14.926
37420W        W 7301  43.474  32.081  13.848
37421W        W 7302   0.852  29.567  12.930
37422W        W 7303  25.201  40.809   2.231
37423W        W 7304  19.691  19.097   0.932
37424W        W 7305   5.794   7.312  11.423
37425W        W 7306  38.386  43.963  11.107
37426W        W 7307  29.063  44.928  13.045
37427W        W 7308   2.926   1.836   0.292
37428W        W 7309  40.306  42.355  13.009
37429W        W 7310  13.744  10.256   4.767
37430W        W 7311  35.030  41.490  10.889
37431W        W 7312  27.627   9.703   0.869
37432W        W 7313  40.806  22.672   4.683
37433W        W 7314  26.959  17.722  10.473
37434W        W 7315  21.604  32.423  13.048
37435W        W 7316  40.987  28.011   3.259
37436W        W 7317  32.113  14.115   1.288
37437W        W 7318  17.153  28.493  11.032
37438W        W 7319  34.402  11.762  12.425
37439W        W 7320  21.694  20.565   0.936
37440W        W 7321  35.005   7.727  13.888
37441W        W 7322  34.950  20.109   2.772
37442W        W 7323  41.960  32.047   3.813
37443W        W 7324   7.307  31.924  11.384
37444W        W 7325  22.517  44.818  11.106
37445W        W 7326  26.998  30.139  13.517
37446W        W 7327  23.019  29.656   4.315
37447W        W 7328  40.875  30.909   1.342
37448W        W 7329   4.368  13.184   1.833
37449W        W 7330  11.715  13.105   0.392
37450W        W 7331   4.412  35.091   3.705
37451W        W 7332  11.320  39.913  13.006
37452W        W 7333  41.402  44.316  12.457
37453W        W 7334  23.661  16.761  10.568
37454W        W 7335  40.860  11.691   0.888
37455W        W 7336   7.215  32.563   4.344
37456W        W 7337  36.559  32.549  11.063
37457W        W 7338  37.463   8.294   1.900
37458W        W 7339  32.583  31.594  14.857
37459W        W 7340  26.694  17.194  11.951
37460W        W 7341  10.764  42.524   1.925
37461W        W 7342  23.166  11.686  11.102
37462W        W 7343  19.204  29.113   1.931
37463W        W 7344  24.040  39.858  14.890
37464W        W 7345  30.497  18.673  12.936
37465W        W 7346   4.873   3.809   5.184
37466W        W 7347  29.128  40.812  10.546
37467W        W 7348   9.748  34.572  10.895
37468W        W 7349  19.062  30.612   4.617
37469W        W 7350   7.332  23.673  10.502
37470W        W 7351   7.739  11.747   2.370
37471W        W 7352  32.524  12.837  14.941
37472W        W 7353  24.148  44.998   0.246
37473W        W 7354  43.005  33.003  12.471
37474W        W 7355  24.548  38.887  13.366
37475W        W 7356  20.724  36.537   0.757
37476W        W 7357  35.602  42.883  13.537
37477W        W 7358  18.569  21.215  12.935
37478W        W 7359  20.257  18.181  14.368
37479W        W 7360  38.914   3.244   4.750
37480W        W 7361  14.193  34.870   4.296
37481W        W 7362  20.751  41.932   4.640
37482W        W 7363  38.552  36.561  12.387
37483W        W 7364   5.880  31.972  13.964
37484W        W 7365  29.577  17.724  10.899
37485W        W 7366  37.453  40.307  14.000
37486W        W 7367  26.533  32.108   9.997
37487W        W 7368  14.115  24.206  12.441
37488W        W 7369   4.917  15.801   4.222
37489W        W 7370  43.477  41.474  14.801
37490W        W 7371  16.601   8.854   0.276
37491W        W 7372  18.289  43.270   3.228
37492W        W 7373  34.931  26.090   4.667
37493W        W 7374  24.568  10.765  14.907
37494W        W 7375   7.283  44.300   3.206
37495W        W 7376  35.533  38.552  11.926
37496W        W 7377  36.491  21.649  13.879
37497W        W 7378  13.742   6.788   1.256
37498W        W 7379   1.895   1.889   1.303
37499W        W 7380  11.699   0.941   2.662
37500W        W 7381  17.066  25.159  11.004
37501W        W 7382   6.771  27.548  12.958
37502W        W 7383   9.188   4.867  11.935
37503W        W 7384  17.265   5.277   0.373
37504W        W 7385  26.113  22.245  10.625
37505W        W 7386   9.241   0.402  12.463
37506W        W 7387   9.381   6.750  13.054
37507W        W 7388  37.965  44.969   0.964
37508W        W 7389   8.676   3.890   3.318
37509W        W 7390  33.519  29.619   1.330
37510W        W 7391  32.528  17.156  14.856
37511W        W 7392  30.028  13.230   2.702
37512W        W 7393  34.973  41.384  12.067
37513W        W 7394  23.696  37.437  11.951
37514W        W 7395  16.707  35.544  12.525
37515W        W 7396  30.039  37.388  11.408
37516W        W 7397  19.567  22.111   2.813
37517W        W 7398  40.819  10.666  13.428
37518W        W 7399  43.462  33.892  10.994
37519W        W 7400  28.458  20.104   4.125
37520W        W 7401  23.711   9.229   4.213
37521W        W 7402  31.087  32.398   1.328
37522W        W 7403  31.973   9.275   4.795
37523W        W 7404  14.279   6.190   3.769
37524W        W 7405  12.802   4.711   4.156
37525W        W 7406  10.743  27.605  12.870
37526W        W 7407  11.262   5.762   3.843
37527W        W 7408  27.457   4.420  11.409
37528W        W 7409  22.103  33.915  13.878
37529W        W 7410   5.336  29.440  13.991
37530W        W 7411  15.196  10.242   1.696
37531W        W 7412   6.827  34.044  13.840
37532W        W 7413   8.669  24.190   0.321
37533W        W 7414  23.020  15.741   3.223
37534W        W 7415  24.991  28.637  11.498
37535W        W 7416  29.147   6.837   4.776
37536W        W 7417  39.380  34.562   1.919
37537W        W 7418  41.506  36.890   1.836
37538W        W 7419  10.213  31.064   4.714
37539W        W 7420  13.791   5.738   0.864
37540W        W 7421  13.775  13.165   2.694
37541W        W 7422   8.697  32.953  11.466
37542W        W 7423  12.654   8.163  11.591
37543W        W 7424  33.474  18.111   0.267
37544W        W 7425  18.723  30.106  10.113
37545W        W 7426  26.105  26.546  13.392
37546W        W 7427  14.613  35.370   2.361
37547W        W 7428   0.781   1.251   0.403
37548W        W 7429  17.138  24.160   3.198
37549W        W 7430  16.705  13.121  14.011
37550W        W 7431  26.184   6.719  13.385
37551W        W 7432  24.512   7.354   1.285
37552W        W 7433  24.586  44.804   0.927
37553W        W 7434  40.444  22.250   3.149
37554W        W 7435  31.144  37.005  13.972
37555W        W 7436  24.022   8.170  13.870
37556W        W 7437   7.901  26.612   1.411
37557W        W 7438  41.826  12.844  13.892
37558W        W 7439  33.478  39.513   0.796
37559W        W 7440  40.034   4.396   1.831
37560W        W 7441  15.706  12.822  13.441
37561W        W 7442   3.217  36.578  13.931
37562W        W 7443  38.868  35.434   0.795
37563W        W 7444  16.622  35.596   3.659
37564W        W 7445  41.309  23.042  10.481
37565W        W 7446  34.054   1.386   3.269
37566W        W 7447  19.278  20.045  10.617
37567W        W 7448  32.136  38.426  11.964
37568W        W 7449  30.451  29.531  12.386
37569W        W 7450  42.288  14.774  14.944
37570W        W 7451  31.950   4.796   3.672
37571W        W 7452   7.359  22.698  13.526
37572W        W 7453  20.523  29.469   9.993
37573W        W 7454  30.151  24.558  12.374
37574W        W 7455  25.023   2.769   2.687
37575W        W 7456  20.185  24.660   2.820
37576W        W 7457  34.942  28.603  12.073
37577W        W 7458   9.194  43.014  13.404
37578W        W 7459   5.812  18.557   3.655
37579W        W 7460  35.920  23.558   0.387
37580W        W 7461  30.501  38.916   1.858
37581W        W 7462  37.412  25.632   3.662
37582W        W 7463  32.980  31.937  13.420
37583W        W 7464  19.634  37.082  11.000
37584W        W 7465  33.535  27.567   0.305
37585W        W 7466  19.625  35.880  11.502
37586W        W 7467  36.436  22.218   1.248
37587W        W 7468  29.432  17.700  12.570
37588W        W 7469   6.363  31.559  10.572
37589W        W 7470   3.246  40.868  13.052
37590W        W 7471  26.012  26.029   1.836
37591W        W 7472   5.725   2.721   2.887
37592W        W 7473  12.833  16.760  10.464
37593W        W 7474   2.907  41.951   0.384
37594W        W 7475  26.476  34.564  14.362
37595W        W 7476   5.403   3.363  14.455
37596W        W 7477   3.729  10.780  12.919
37597W        W 7478  28.121  15.310   4.272
37598W        W 7479   3.398   5.773   4.206
37599W        W 7480  40.994  37.502   2.183
37600W        W 7481   1.258   0.352   0.299
37601W        W 7482  11.839  43.375  10.617
37602W        W 7483  13.711  11.720   1.783
37603W        W 7484  31.935  36.350   3.218
37604W        W 7485  20.156  42.495   0.284
37605W        W 7486  18.669  33.105   3.670
37606W        W 7487  31.999  30.561   0.375
37607W        W 7488  35.459  10.314   4.146
37608W        W 7489  20.186   8.398   0.907
37609W        W 7490  20.072  16.809   3.741
37610W        W 7491   1.832   0.409   4.614
37611W        W 7492  14.818  31.931  13.935
37612W        W 7493  20.576  41.993   1.825
37613W        W 7494  12.854  41.341  12.990
37614W        W 7495  20.144   5.754   3.676
37615W        W 7496  39.387  17.216  13.791
37616W        W 7497  20.596  43.505  13.874
37617W        W 7498  21.248  39.933  12.541
37618W        W 7499   9.713  42.026   0.387
37619W        W 7500  43.864  20.535  10.450
37620W        W 7501  20.085  24.529  12.826
37621W        W 7502  16.792  20.255  11.930
37622W        W 7503  28.623   9.710   0.788
37623W        W 7504  39.484   1.806   1.273
37624W        W 7505  35.910   0.864   9.443
37625W        W 7506  20.154  11.648   1.868
37626W        W 7507  15.784  24.609  11.380
37627W        W 7508   0.833   5.879   3.687
37628W        W 7509  34.603  37.447  13.002
37629W        W 7510  21.643  38.375  14.340
37630W        W 7511  28.960   9.316   2.215
37631W        W 7512   5.419  23.634  14.369
37632W        W 7513   5.381  42.842  11.910
37633W        W 7514  38.365  41.832   3.205
37634W        W 7515  34.483  44.839  10.900
37635W        W 7516  22.170  31.521   4.811
37636W        W 7517  43.478  27.139  12.500
37637W        W 7518   0.850  17.073  11.878
37638W        W 7519  31.941  23.100   2.878
37639W        W 7520  21.037  12.855   1.901
37640W        W 7521   0.340  27.637  13.841
37641W        W 7522   7.770   8.399  14.449
37642W        W 7523  10.654  21.020   0.353
37643W        W 7524  12.798  25.634   0.381
37644W        W 7525  11.201  29.116   5.321
37645W        W 7526  41.997  43.385   4.243
37646W        W 7527   5.383   2.848  11.942
37647W        W 7528   5.386   5.214   1.256
37648W        W 7529   2.910  41.970   1.846
37649W        W 7530  43.778  37.994   2.827
37650W        W 7531  21.041  21.603  13.508
37651W        W 7532  32.135   1.841  12.399
37652W        W 7533  14.797   2.728   0.342
37653W        W 7534  40.388  28.434  13.464
37654W        W 7535  22.086  31.601  10.443
37655W        W 7536   7.395  20.065   4.708
37656W        W 7537  21.539  24.087  13.330
37657W        W 7538  29.531  28.568  13.041
37658W        W 7539  14.203  35.601   1.383
37659W        W 7540   7.249  26.526   2.673
37660W        W 7541  42.477  28.948   1.272
37661W        W 7542   6.770  44.349  13.430
37662W        W 7543  38.067  43.300   2.191
37663W        W 7544  20.077  16.101   3.353
37664W        W 7545  21.602   8.749  10.013
37665W        W 7546  25.495  41.524   1.848
37666W        W 7547  28.125  17.717   4.204
37667W        W 7548  34.553  12.612   4.344
37668W        W 7549   1.965  17.685   4.351
37669W        W 7550  22.167  14.787  14.761
37670W        W 7551  27.980   3.425   2.305
37671W        W 7552  13.803   2.308   0.872
37672W        W 7553  42.480  22.175  12.080
37673W        W 7554  27.507  20.110   2.810
37674W        W 7555  24.212  42.931  11.450
37675W        W 7556   5.373   7.808   3.148
37676W        W 7557  23.687  44.834   2.786
37677W        W 7558   3.379   6.886  10.551
37678W        W 7559  35.028  21.085   3.386
37679W        W 7560  37.995   1.306  12.007
37680W        W 7561  44.489  39.900  10.519
37681W        W 7562  17.737  38.862   2.856
37682W        W 7563   6.213  36.084   3.765
37683W        W 7564   8.355  39.872  12.570
37684W        W 7565  24.694   1.977   4.234
37685W        W 7566  17.282  25.631   3.253
37686W        W 7567  15.584  38.882  11.484
37687W        W 7568  30.471  12.250   3.646
37688W        W 7569   1.338  14.239   1.847
37689W        W 7570  18.068  35.381   2.398
37690W        W 7571  19.153  39.923  11.982
37691W        W 7572  40.324  11.698  11.421
37692W        W 7573  30.576  10.156  11.496
37693W        W 7574  40.320  15.233  14.848
37694W        W 7575  11.633  11.192   1.773
37695W        W 7576   7.685  35.938   1.807
37696W        W 7577  27.546  31.411   3.347
37697W        W 7578  43.376  43.444   0.379
37698W        W 7579  34.914  28.553  14.921
37699W        W 7580  40.427  28.036   5.157
37700W        W 7581   6.730  28.938  11.102
37701W        W 7582  19.272  10.200  14.369
37702W        W 7583  40.452  34.450   2.243
37703W        W 7584  15.797  16.213  10.485
37704W        W 7585  36.567  28.044   2.703
37705W        W 7586   3.780  10.788   0.830
37706W        W 7587  11.147  26.568  14.361
37707W        W 7588  24.663  21.120  14.483
37708W        W 7589  32.131  19.538   0.343
37709W        W 7590  36.919  21.585   2.841
37710W        W 7591   0.758  27.196   3.780
37711W        W 7592   2.227  31.029   4.167
37712W        W 7593  39.319  30.031  12.370
37713W        W 7594  22.024  22.094   3.269
37714W        W 7595  41.864  36.877  13.418
37715W        W 7596  26.099   4.208  13.508
37716W        W 7597  20.073   0.800   4.197
37717W        W 7598   6.290  29.639  11.500
37718W        W 7599  32.422   1.383   2.213
37719W        W 7600  34.460  38.944  11.417
37720W        W 7601  36.092  14.324  14.864
37721W        W 7602  16.191  12.766   2.338
37722W        W 7603  36.375  12.318  14.026
37723W        W 7604  24.188  30.424  11.953
37724W        W 7605   3.299  16.750   2.246
37725W        W 7606  31.516  17.768   5.299
37726W        W 7607  12.664   4.391   0.261
37727W        W 7608   1.357  32.888   4.295
37728W        W 7609   7.668   4.442   1.724
37729W        W 7610  41.819  24.002   3.836
37730W        W 7611   1.806   8.701  13.892
37731W        W 7612  19.643  37.383   3.723
37732W        W 7613   1.805  31.035   1.263
37733W        W 7614  11.831   3.785  14.500
37734W        W 7615   5.820  25.049  10.642
37735W        W 7616  38.056  35.023   3.378
37736W        W 7617   4.324  13.617   3.289
37737W        W 7618   6.695   9.268  10.472
37738W        W 7619   1.894  39.978  12.900
37739W        W 7620   5.714  18.069   3.290
37740W        W 7621  13.640  39.360   4.654
37741W        W 7622   4.327   1.426   1.694
37742W        W 7623  40.305  29.160   3.673
37743W        W 7624  22.740  15.692  14.465
37744W        W 7625  16.249  20.256  11.879
37745W        W 7626  44.376  24.598  14.277
37746W        W 7627   0.257  25.562   3.867
37747W        W 7628  11.350  24.607  13.340
37748W        W 7629  32.052  14.113  12.093
37749W        W 7630  16.096   6.759  14.349
37750W        W 7631  37.493  42.910  13.512
37751W        W 7632   9.838  23.995  12.454
37752W        W 7633  28.590  34.013   1.285
37753W        W 7634  17.268  22.035   1.217
37754W        W 7635  30.963  42.019  13.958
37755W        W 7636  25.659   4.379   1.767
37756W        W 7637  18.630   7.393  14.337
37757W        W 7638  24.497  32.958  14.438
37758W        W 7639  11.202  40.472   1.695
37759W        W 7640   2.383   5.260   2.224
37760W        W 7641  20.072  42.294   1.868
37761W        W 7642  29.170   9.668  13.401
37762W        W 7643  30.011  35.513   2.344
37763W        W 7644  12.677   9.725  13.411
37764W        W 7645  14.260  24.083   3.826
37765W        W 7646  17.779   8.341  13.886
37766W        W 7647   3.822   2.956   3.788
37767W        W 7648  19.220  43.957   5.619
37768W        W 7649  32.992  28.642   3.750
37769W        W 7650   1.355   7.206   0.291
37770W        W 7651  22.022  40.501  12.372
37771W        W 7652  41.800  37.480  12.936
37772W        W 7653   1.243  33.387  13.005
37773W        W 7654  38.875  35.459  14.802
37774W        W 7655  32.463  14.600  12.420
37775W        W 7656   8.702  14.271  13.539
37776W        W 7657  28.566  37.084  14.951
37777W        W 7658  38.391  12.148  10.623
37778W        W 7659  35.369  19.187   3.303
37779W        W 7660  10.159  34.942  13.869
37780W        W 7661  44.448   6.315   5.230
37781W        W 7662  17.255   3.853   2.274
37782W        W 7663  18.790   8.253  14.484
37783W        W 7664  38.024   8.316  13.917
37784W        W 7665  23.161   9.819  10.596
37785W        W 7666  37.003  36.528  13.355
37786W        W 7667   0.755  15.705   9.947
37787W        W 7668  18.739   9.253   4.131
37788W        W 7669   2.906  44.505   4.693
37789W        W 7670   1.240  10.652  10.503
37790W        W 7671   8.757  13.792   0.382
37791W        W 7672  25.023  25.214   0.319
37792W        W 7673  34.520   3.453  13.318
37793W        W 7674  23.581  40.986   3.706
37794W        W 7675  34.615   2.444   2.243
37795W        W 7676  27.012  35.886  10.618
37796W        W 7677  28.163  12.732  12.502
37797W        W 7678  44.294  18.731  14.938
37798W        W 7679  25.093  43.462   0.856
37799W        W 7680  10.255  13.829   3.697
37800W        W 7681   3.443  42.869  11.466
37801W        W 7682  43.848  17.712   0.846
37802W        W 7683  43.015  39.368   1.896
37803W        W 7684  38.444  11.366   3.763
37804W        W 7685  12.329   6.719   3.310
37805W        W 7686  13.311  30.583   4.630
37806W        W 7687  19.561  40.498  11.554
37807W        W 7688  13.708  19.638   4.813
37808W        W 7689  17.750  24.166   4.765
37809W        W 7690  23.238  22.125  13.505
37810W        W 7691  35.003  44.404  10.604
37811W        W 7692  36.541  10.671   2.255
37812W        W 7693   3.311  20.705  10.981
37813W        W 7694  33.111   1.433  14.914
37814W        W 7695   4.289  25.590  11.414
37815W        W 7696  19.562  32.418  10.599
37816W        W 7697  24.577   4.798  12.339
37817W        W 7698   2.791   9.821  10.547
37818W        W 7699  42.782  41.027  10.589
37819W        W 7700  42.987  31.465  11.037
37820W        W 7701  11.239   1.372  14.814
37821W        W 7702   0.842   9.885  13.996
37822W        W 7703   7.837  36.917   1.244
37823W        W 7704  25.124   1.247   2.879
37824W        W 7705  26.499  35.965   1.935
37825W        W 7706   5.879  12.116  11.985
37826W        W 7707   5.306  29.091  12.349
37827W        W 7708   3.947  28.525   3.767
37828W        W 7709  31.476  24.029   0.821
37829W        W 7710  31.897  30.081  13.890
37830W        W 7711  25.066  38.060  14.802
37831W        W 7712  23.670  29.013   2.759
37832W        W 7713  39.494  11.680  12.873
37833W        W 7714  34.440  41.033   4.647
37834W        W 7715  24.988  43.982   4.316
37835W        W 7716  11.229  22.184   4.314
37836W        W 7717   6.213  19.162  13.900
37837W        W 7718   3.882  21.199  12.352
37838W        W 7719  33.904   9.883   1.695
37839W        W 7720   0.830  21.681  10.539
37840W        W 7721  36.592   5.300  10.903
37841W        W 7722  10.331  17.220   4.744
37842W        W 7723  35.031  42.406   0.272
37843W        W 7724  28.088  32.096   0.963
37844W        W 7725  36.854  24.138   2.676
37845W        W 7726  43.392  42.861   1.817
37846W        W 7727  44.460  34.895   3.265
37847W        W 7728  33.024  37.361  14.904
37848W        W 7729   8.210   1.470  11.940
37849W        W 7730  10.850   2.403  13.049
37850W        W 7731   2.841  27.466  13.461
37851W        W 7732  27.040  32.447  13.873
37852W        W 7733  11.271  32.491   3.346
37853W        W 7734   0.311   9.717   0.854
37854W        W 7735   2.898  44.871  12.350
37855W        W 7736  32.409  38.367  13.398
37856W        W 7737  37.865   7.302   3.645
37857W        W 7738  34.388   7.217   2.272
37858W        W 7739  12.777   4.912   1.349
37859W        W 7740   4.354  33.978   4.835
37860W        W 7741  16.572  18.271  13.950
37861W        W 7742  22.726  26.668  11.497
37862W        W 7743  37.403  16.631   2.887
37863W        W 7744  13.813  23.195   4.631
37864W        W 7745  22.674   4.255   4.709
37865W        W 7746   9.252  39.460   2.251
37866W        W 7747   6.845  17.301  13.351
37867W        W 7748   3.292   9.769   3.699
37868W        W 7749  35.429   2.302   1.399
37869W        W 7750  23.610  42.026   4.670
37870W        W 7751   6.268  18.130   2.280
37871W        W 7752   6.746  36.951  11.374
37872W        W 7753  43.362  31.545   2.668
37873W        W 7754  42.432  16.675  13.944
37874W        W 7755  30.530  14.277  13.985
37875W        W 7756   0.872  11.847   3.338
37876W        W 7757   0.856  16.214   1.435
37877W        W 7758   7.336  14.660   4.759
37878W        W 7759  35.587  33.425  10.421
37879W        W 7760   6.795  44.365   4.625
37880W        W 7761  22.596  21.695  11.508
37881W        W 7762  35.948  23.235  13.999
37882W        W 7763   2.846  20.167   1.420
37883W        W 7764  14.201  28.615   3.669
37884W        W 7765  12.733  22.512  12.069
37885W        W 7766  30.116  42.505  11.012
37886W        W 7767  16.632   4.227  13.487
37887W        W 7768  17.198  30.574   2.684
37888W        W 7769  21.152  43.879  10.950
37889W        W 7770  25.628  32.126   1.900
37890W        W 7771  38.339  14.754  10.976
37891W        W 7772  10.840  13.610   1.765
37892W        W 7773   4.439  39.978   3.319
37893W        W 7774  25.073  38.886  10.540
37894W        W 7775  42.305  28.470   4.796
37895W        W 7776  19.160  13.251   3.858
37896W        W 7777   2.748   3.766  10.473
37897W        W 7778  14.743  17.795  12.403
37898W        W 7779  18.764  26.482   3.299
37899W        W 7780  42.412  44.859  10.936
37900W        W 7781   6.778  19.062   3.783
37901W        W 7782  21.591  33.549   0.313
37902W        W 7783  14.201  44.299   0.902
37903W        W 7784  32.456  36.409   4.296
37904W        W 7785   3.931  13.349   2.252
37905W        W 7786  37.465  42.001   1.414
37906W        W 7787  28.046  25.051   1.790
37907W        W 7788   1.802   9.169   4.640
37908W        W 7789  17.292  13.731   4.156
37909W        W 7790  13.131  12.769  11.062
37910W        W 7791   1.243  11.171   3.725
37911W        W 7792  41.500  24.696  13.794
37912W        W 7793  16.184  16.090  15.000
37913W        W 7794  39.855  29.626   0.849
37914W        W 7795  12.779  14.168  10.961
37915W        W 7796   2.790  32.615  12.837
37916W        W 7797  42.810  17.190   0.752
37917W        W 7798  19.739  32.962   1.743
37918W        W 7799  29.551  30.160   4.240
37919W        W 7800   5.337  42.897   3.667
37920W        W 7801   1.887  17.592  12.090
37921W        W 7802  25.993  39.059  14.288
37922W        W 7803  42.489   5.415  11.545
37923W        W 7804  24.529   4.443   1.777
37924W        W 7805  42.989   8.400  14.864
37925W        W 7806  24.698  41.040  12.465
37926W        W 7807  41.461  28.091   3.821
37927W        W 7808   4.899  17.170   2.285
37928W        W 7809   7.858  17.734   2.722
37929W        W 7810  43.512  31.551  13.994
37930W        W 7811  25.683   8.233  11.431
37931W        W 7812  11.244  39.365  12.472
37932W        W 7813  38.498   9.380  13.057
37933W        W 7814  27.588  44.381   1.764
37934W        W 7815  44.997  38.382   2.274
37935W        W 7816   5.423   1.924   2.728
37936W        W 7817  39.457  30.059   2.277
37937W        W 7818   9.239  27.048  14.760
37938W        W 7819  38.360  24.032   1.222
37939W        W 7820   1.865  10.285   2.418
37940W        W 7821  38.379  39.978  14.307
37941W        W 7822  12.816  35.022   3.256
37942W        W 7823  12.250  36.479   1.271
37943W        W 7824  15.779  43.380  12.837
37944W        W 7825  12.793   9.375   1.924
37945W        W 7826   4.839  33.978  10.451
37946W        W 7827  43.956   1.847  14.031
37947W        W 7828  37.953   1.943  14.360
37948W        W 7829   5.378  34.423  14.397
37949W        W 7830  30.981  20.184   0.938
37950W        W 7831  12.760  44.789   1.695
37951W        W 7832   9.172  36.458   1.286
37952W        W 7833  29.041   8.827  12.875
37953W        W 7834  39.422  38.913  11.014
37954W        W 7835  15.683  28.044   3.341
37955W        W 7836  14.177   1.788   3.236
37956W        W 7837  11.757  32.480   4.283
37957W        W 7838  20.134  25.680   0.323
37958W        W 7839  14.264  20.723   4.701
37959W        W 7840  13.259   3.885   1.254
37960W        W 7841  19.624  17.764   0.821
37961W        W 7842  12.336   0.315  14.817
37962W        W 7843  14.275  22.607  13.503
37963W        W 7844  19.707  33.607   2.668
37964W        W 7845  29.005  14.324   5.127
37965W        W 7846  35.537  35.010   4.805
37966W        W 7847  14.098  27.685   3.761
37967W        W 7848  37.440  28.468  11.968
37968W        W 7849  25.675  26.626  11.033
37969W        W 7850  26.048  11.764   0.282
37970W        W 7851  22.702  37.930   1.298
37971W        W 7852  25.014  38.380   2.347
37972W        W 7853  26.701   9.179   2.367
37973W        W 7854  28.447  12.709   0.929
37974W        W 7855  43.787  22.135  14.921
37975W        W 7856  28.983  22.569  13.959
37976W        W 7857  33.523  14.194  10.986
37977W        W 7858   2.778  11.151   3.719
37978W        W 7859  29.537  18.080   4.186
37979W        W 7860   3.319  31.910  12.468
37980W        W 7861  11.247  10.154  11.541
37981W        W 7862  25.038  31.517   4.348
37982W        W 7863  41.366  13.335  14.029
37983W        W 7864  21.568  26.053  11.883
37984W        W 7865  44.806  14.768   1.720
37985W        W 7866  31.494  29.440   3.227
37986W        W 7867  22.013  12.126  10.610
37987W        W 7868   1.465  30.978   4.305
37988W        W 7869   4.397  38.852  11.527
37989W        W 7870  33.067   8.314   2.224
37990W        W 7871  24.480  34.922   4.839
37991W        W 7872  43.309  30.556   0.893
37992W        W 7873  12.235  16.149  13.330
37993W        W 7874  21.531  24.659  12.011
37994W        W 7875  21.717  23.236   0.337
37995W        W 7876  44.319  40.363   0.901
37996W        W 7877  21.552  42.399  10.561
37997W        W 7878  21.758   2.805   3.647
37998W        W 7879  41.308  12.311   1.318
37999W        W 7880  10.753   8.660   2.309
38000W        W 7881  12.228   6.916  11.098
38001W        W 7882  19.599  27.047  10.612
38002W        W 7883  43.773  25.574   2.387
38003W        W 7884   5.821  32.543   1.374
38004W        W 7885  18.575  14.821   3.688
38005W        W 7886  11.197  39.877   0.736
38006W        W 7887  36.352  12.637  11.375
38007W        W 7888   3.318  27.600  13.944
38008W        W 7889  15.142  36.450   2.186
38009W        W 7890   8.172  37.434   2.335
38010W        W 7891  42.798   1.874   4.741
38011W        W 7892  11.199   7.783  11.918
38012W        W 7893  43.398  42.457  14.356
38013W        W 7894  42.451  41.805  10.942
38014W        W 7895  36.410  22.704   4.307
38015W        W 7896  33.534   7.822  11.897
38016W        W 7897  20.597  14.213  12.005
38017W        W 7898  15.260  34.577  14.804
38018W        W 7899  44.357   2.374   3.365
38019W        W 7900  44.760  17.615   0.750
38020W        W 7901  14.227  10.317   2.330
38021W        W 7902  38.455   9.329  10.914
38022W        W 7903  18.690  29.595   3.778
38023W        W 7904  36.558  10.839   1.401
38024W        W 7905  42.849  22.618   1.217
38025W        W 7906  36.880  38.489  14.028
38026W        W 7907  24.716  31.121   2.264
38027W        W 7908  14.634   5.888   0.805
38028W        W 7909  44.273   9.313  13.005
38029W        W 7910  34.089  22.099  14.855
38030W        W 7911  10.291   4.279  11.074
38031W        W 7912   4.873  41.337   0.918
38032W        W 7913  42.460  20.641  14.467
38033W        W 7914  29.441  12.335  14.869
38034W        W 7915   9.792  43.317  12.084
38035W        W 7916  14.209  20.667   0.739
38036W        W 7917  23.706   5.304  12.572
38037W        W 7918  27.105  23.706  12.073
38038W        W 7919  21.259  29.546   2.683
38039W        W 7920   0.808  24.713  10.521
38040W        W 7921  43.300  30.103  14.789
38041W        W 7922  16.231  10.281   3.632
38042W        W 7923  16.192   3.945   1.399
38043W        W 7924  34.418   6.327  13.918
38044W        W 7925  38.069  35.461  10.467
38045W        W 7926  44.978  26.536   4.598
38046W        W 7927   2.778  22.195  11.890
38047W        W 7928  23.634  24.714   2.211
38048W        W 7929  29.630  34.487   3.269
38049W        W 7930  32.405  42.846  12.487
38050W        W 7931  32.515  33.120  13.437
38051W        W 7932  27.457  30.148  14.364
38052W        W 7933  19.284   3.822  13.460
38053W        W 7934  21.107  31.465  12.550
38054W        W 7935  25.188  12.195   3.222
38055W        W 7936  23.008  20.640  11.594
38056W        W 7937  11.644   1.886  14.774
38057W        W 7938   3.379  24.208   5.245
38058W        W 7939  29.073  15.733  14.980
38059W        W 7940  36.490  16.747  11.079
38060W        W 7941  40.810  24.026   0.764
38061W        W 7942  17.174  41.390   3.148
38062W        W 7943  44.893   3.421   4.829
38063W        W 7944   0.777  36.914   3.358
38064W        W 7945  35.446  10.663  13.977
38065W        W 7946  15.096   2.236   2.394
38066W        W 7947  32.495  41.414   2.758
38067W        W 7948  25.076  40.532   2.789
38068W        W 7949  41.460  27.110  11.101
38069W        W 7950  20.570  21.609   4.769
38070W        W 7951  11.230  34.489  13.854
38071W        W 7952  23.556  43.312   3.175
38072W        W 7953  22.251  17.263  11.091
38073W        W 7954   2.741  10.724   2.697
38074W        W 7955  21.172  26.573  14.767
38075W        W 7956  40.514  29.984   1.889
38076W        W 7957  10.225   4.743   4.606
38077W        W 7958  41.958   7.231  13.973
38078W        W 7959   6.857  28.035   4.681
38079W        W 7960  26.573  29.103  10.605
38080W        W 7961  26.156   5.913   1.743
38081W        W 7962  20.688   9.214   1.353
38082W        W 7963  30.451  32.483  10.638
38083W        W 7964  16.639  44.456  13.990
38084W        W 7965  37.558  23.637  10.448
38085W        W 7966  17.733  21.511  13.361
38086W        W 7967  15.297   7.217   4.598
38087W        W 7968  25.479  31.469  13.431
38088W        W 7969   7.770  36.010   2.805
38089W        W 7970  14.314   5.913  11.128
38090W        W 7971  31.987   3.743   0.949
38091W        W 7972  26.111  37.399   2.277
38092W        W 7973   9.884   1.471  14.348
38093W        W 7974  13.823   3.781   0.825
38094W        W 7975  10.327  40.487   2.725
38095W        W 7976  39.818   7.791  14.760
38096W        W 7977  17.687   5.331  14.878
38097W        W 7978  22.505  28.491  14.298
38098W        W 7979  14.248   6.255   2.885
38099W        W 7980   9.243  41.316  14.429
38100W        W 7981  18.264   3.435   3.326
38101W        W 7982   4.808  10.639   1.719
38102W        W 7983  21.232  24.596   1.269
38103W        W 7984  29.929  27.983  14.295
38104W        W 7985  21.723  17.243  12.342
38105W        W 7986  43.279  13.798   1.830
38106W        W 7987  29.622  24.175   1.777
38107W        W 7988  12.850  37.082   0.409
38108W        W 7989  41.038  15.606   0.854
38109W        W 7990  25.643  20.173  11.572
38110W        W 7991   7.804   1.963   1.820
38111W        W 7992  32.890  17.686   5.099
38112W        W 7993  29.094  24.085   1.384
38113W        W 7994  17.211   0.274  12.343
38114W        W 7995   3.418   0.746  13.984
38115W        W 7996  17.635  36.089  13.935
38116W        W 7997  12.833  16.138  10.431
38117W        W 7998  16.761  12.817  10.466
38118W        W 7999  27.131  13.133   2.758
38119W        W 8000  40.932  29.504  12.876
38120W        W 8001  28.072  40.043   2.257
38121W        W 8002   7.740   6.779   1.355
38122W        W 8003  19.126  10.733  10.467
38123W        W 8004  10.298  36.008  12.007
38124W        W 8005  19.678  39.463  11.974
38125W        W 8006  28.532  42.405   3.804
38126W        W 8007   2.310  10.215  10.638
38127W        W 8008  43.409   4.248  12.862
38128W        W 8009   3.269  21.105  13.478
38129W        W 8010  14.835   5.708  14.364
38130W        W 8011  26.619  25.594  12.057
38131W        W 8012  38.548  16.703  11.585
38132W        W 8013   7.841  31.971   2.331
38133W        W 8014  26.674  38.887  13.930
38134W        W 8015  30.015   2.366   2.320
38135W        W 8016   3.230  34.525  14.349
38136W        W 8017  13.263  33.083  11.530
38137W        W 8018  16.689  44.455   2.347
38138W        W 8019  27.100  41.905   3.813
38139W        W 8020  43.775  43.434  11.410
38140W        W 8021  15.713  37.055   1.805
38141W        W 8022  18.733  36.880   2.788
38142W        W 8023  38.000  27.493  12.424
38143W        W 8024   9.289  32.987   2.395
38144W        W 8025  32.523  30.087  13.479
38145W        W 8026  30.450  38.403   1.219
38146W        W 8027   2.942  25.040  10.926
38147W        W 8028  20.625   3.719   2.720
38148W        W 8029  17.731   5.835  14.990
38149W        W 8030  35.520  37.483  10.965
38150W        W 8031  17.103   4.403   3.156
38151W        W 8032   3.286  11.743  11.458
38152W        W 8033   1.919  15.786   2.243
38153W        W 8034   4.392  40.455   4.167
38154W        W 8035  36.485  10.825   2.760
38155W        W 8036  20.698  19.209   0.260
38156W        W 8037  43.382  33.031   4.733
38157W        W 8038  21.194   5.797   1.347
38158W        W 8039  41.863  18.245   0.943
38159W        W 8040  37.893  10.873   0.909
38160W        W 8041  27.171  26.206   0.294
38161W        W 8042   9.712  18.050   0.869
38162W        W 8043  25.567  44.933   3.646
38163W        W 8044  22.105  41.355  12.846
38164W        W 8045  29.959  17.066   9.973
38165W        W 8046  21.147  11.783  10.422
38166W        W 8047  42.453  14.606   1.881
38167W        W 8048  30.036  43.858   0.752
38168W        W 8049  19.123  22.124   4.779
38169W        W 8050  38.859  28.563  11.432
38170W        W 8051  34.609  12.197   3.228
38171W        W 8052  11.168   5.786  13.017
38172W        W 8053  10.766  11.796   0.947
38173W        W 8054   2.927  25.483   4.791
38174W        W 8055  25.121  21.595  12.544
38175W        W 8056  33.023  33.978   4.728
38176W        W 8057  40.848  43.865   1.302
38177W        W 8058  38.491  35.582   4.348
38178W        W 8059  26.192   7.751   1.880
38179W        W 8060  37.477   1.769  12.358
38180W        W 8061   8.787  39.862   1.434
38181W        W 8062   8.893  33.937   0.254
38182W        W 8063   9.859  30.457   3.786
38183W        W 8064   6.713  38.961  13.316
38184W        W 8065  11.681   8.396  13.321
38185W        W 8066  40.541   6.828  13.896
38186W        W 8067   2.919  34.081  10.489
38187W        W 8068  21.637  44.442   4.184
38188W        W 8069   5.812  33.898  11.933
38189W        W 8070  10.221  26.563  13.367
38190W        W 8071  39.818  38.836  12.886
38191W        W 8072   5.919  42.813  11.558
38192W        W 8073  34.405  44.451   3.372
38193W        W 8074  27.634  41.864   4.812
38194W        W 8075  29.982  35.093   1.776
38195W        W 8076   8.682  22.554  14.019
38196W        W 8077   7.877  10.300   4.759
38197W        W 8078  35.045   5.858   2.373
38198W        W 8079  37.059   6.695   2.777
38199W        W 8080  41.804  36.515   4.814
38200W        W 8081  30.007   4.818   1.841
38201W        W 8082  10.729  38.454  11.084
38202W        W 8083  21.585  34.107  11.569
38203W        W 8084  20.664   1.886  10.097
38204W        W 8085  27.030  15.158  12.390
38205W        W 8086  36.078   7.398  14.315
38206W        W 8087  11.860  17.602  10.906
38207W        W 8088   3.291  23.203  11.546
38208W        W 8089  36.365  23.690  11.543
38209W        W 8090  14.109  41.026   1.889
38210W        W 8091  20.254  16.096  12.068
38211W        W 8092  27.604  29.997   4.598
38212W        W 8093  26.095  31.581   1.863
38213W        W 8094  38.868   8.828   9.962
38214W        W 8095  29.608  28.576   2.807
38215W        W 8096  36.964  24.683  12.078
38216W        W 8097   3.715   2.781  13.542
38217W        W 8098  29.948  42.026  13.503
38218W        W 8099  27.666  23.584  12.528
38219W        W 8100  36.528  27.655   1.882
38220W        W 8101  16.148  26.135   4.672
38221W        W 8102  28.592   1.922  13.476
38222W        W 8103  17.749  42.904  11.413
38223W        W 8104  16.767  43.923   4.181
38224W        W 8105  18.758  21.229  10.637
38225W        W 8106  22.744  16.601   9.639
38226W        W 8107   0.268  19.176   1.760
38227W        W 8108  16.190  34.985  12.922
38228W        W 8109   9.333  28.114  12.857
38229W        W 8110  27.006   1.303   0.414
38230W        W 8111   8.253  17.789  11.965
38231W        W 8112  14.196  25.699   4.152
38232W        W 8113   6.799   0.963  14.323
38233W        W 8114  13.239  15.663  13.019
38234W        W 8115  25.652  32.575  14.986
38235W        W 8116  34.391   9.836  11.612
38236W        W 8117   9.304  15.618   4.224
38237W        W 8118  11.637   0.373   4.723
38238W        W 8119  28.528   6.319   1.331
38239W        W 8120  39.843  44.261   1.834
38240W        W 8121  21.102  17.207  11.039
38241W        W 8122   9.346  33.480  14.892
38242W        W 8123  11.281  34.522  13.033
38243W        W 8124  17.795  44.879  11.901
38244W        W 8125  37.337  29.423  12.089
38245W        W 8126   3.908  35.378   0.473
38246W        W 8127  33.535  36.866   0.743
38247W        W 8128   3.730   5.377  12.005
38248W        W 8129  22.184  36.440  10.631
38249W        W 8130  17.117  37.515  11.932
38250W        W 8131  37.048  34.510   1.384
38251W        W 8132  34.570   3.421   3.840
38252W        W 8133  44.885  15.264   0.277
38253W        W 8134  10.660  26.527   2.717
38254W        W 8135   7.390   2.456   1.755
38255W        W 8136  13.131  25.143  10.003
38256W        W 8137  10.749  18.767  14.440
38257W        W 8138  15.153  37.880  13.473
38258W        W 8139  32.483  18.208   1.387
38259W        W 8140  29.970  28.495  12.551
38260W        W 8141  34.888   8.341  11.020
38261W        W 8142  18.564  21.524   3.352
38262W        W 8143   2.837  30.148  11.513
38263W        W 8144  30.939  33.467  10.988
38264W        W 8145  38.999  41.979   2.284
38265W        W 8146  27.588  43.000   0.867
38266W        W 8147  18.198  14.185  13.889
38267W        W 8148  29.149   6.783  12.494
38268W        W 8149  34.010  21.252   2.363
38269W        W 8150  39.445  28.023  11.388
38270W        W 8151   0.879  23.219  13.523
38271W        W 8152  22.099  44.776  10.453
38272W        W 8153  12.223   1.868  14.997
38273W        W 8154  26.667  38.501  11.960
38274W        W 8155  37.981  44.934  13.379
38275W        W 8156   5.439  34.601  12.573
38276W        W 8157  30.554  16.237  14.834
38277W        W 8158  43.418   2.860   3.743
38278W        W 8159  24.098  15.669   1.384
38279W        W 8160  10.270  43.429   3.854
38280W        W 8161   6.196  21.055   4.219
38281W        W 8162  25.677  28.535   4.235
38282W        W 8163  17.709  18.285  12.881
38283W        W 8164   5.706  41.319   4.647
38284W        W 8165  23.068  33.577  11.555
38285W        W 8166  18.217   7.685   3.739
38286W        W 8167  27.057   2.438   1.801
38287W        W 8168   1.373  24.008  14.794
38288W        W 8169  27.540   0.364   4.258
38289W        W 8170  39.398  25.149  13.996
38290W        W 8171   2.437  14.128   0.269
38291W        W 8172  13.682  16.270  11.036
38292W        W 8173  18.257  44.007  12.997
38293W        W 8174  44.454  15.148  14.873
38294W        W 8175  11.863  42.967  10.500
38295W        W 8176   8.208  18.120  13.429
38296W        W 8177  19.085  21.074  11.571
38297W        W 8178   0.802   5.268   1.375
38298W        W 8179  21.149  31.485   1.834
38299W        W 8180  14.662   2.402   3.728
38300W        W 8181   1.354  32.391   1.905
38301W        W 8182  27.466  17.282  14.980
38302W        W 8183   0.975  34.592   0.887
38303W        W 8184  43.906  38.991  11.430
38304W        W 8185  40.390  21.187   0.477
38305W        W 8186  23.673  33.087   3.804
38306W        W 8187  28.988  16.801  13.464
38307W        W 8188  24.610  31.927  10.629
38308W        W 8189  16.718  31.988   0.269
38309W        W 8190  32.593  31.089  12.391
38310W        W 8191   5.925  41.307   0.355
38311W        W 8192  16.239   7.768   4.321
38312W        W 8193  36.850  34.982  14.775
38313W        W 8194   2.421  14.688   2.679
38314W        W 8195  27.619  13.823  10.470
38315W        W 8196   3.719   0.937  10.534
38316W        W 8197  41.936  42.360   0.256
38317W        W 8198  31.147  36.933   0.901
38318W        W 8199   3.768  23.546   3.647
38319W        W 8200  33.611  21.083   4.285
38320W        W 8201   6.418  14.302   0.345
38321W        W 8202  28.939  33.611  10.554
38322W        W 8203  35.081  18.068  11.876
38323W        W 8204  28.093  37.917  10.569
38324W        W 8205  23.149   8.765   0.823
38325W        W 8206  20.190   1.942  11.562
38326W        W 8207  32.595  33.593  10.087
38327W        W 8208  33.501  30.119  13.443
38328W        W 8209   5.721   3.307  12.348
38329W        W 8210   3.737   1.290  14.807
38330W        W 8211  40.314   1.337   0.347
38331W        W 8212  31.095  28.004  13.001
38332W        W 8213  25.625  37.912  10.594
38333W        W 8214  23.009  27.594  11.014
38334W        W 8215  13.129   4.362  11.548
38335W        W 8216  11.254  33.464  12.924
38336W        W 8217  41.372  26.149   0.445
38337W        W 8218   8.293  41.403   2.776
38338W        W 8219   8.171  37.402   0.960
38339W        W 8220  19.575  23.520  11.098
38340W        W 8221  43.905  24.083  13.335
38341W        W 8222   0.983  36.980   0.361
38342W        W 8223  37.460  18.204  10.504
38343W        W 8224  28.035  33.102   3.857
38344W        W 8225  15.230  38.405  10.442
38345W        W 8226  22.517  11.182   4.192
38346W        W 8227  29.464  35.404   2.811
38347W        W 8228  20.195   4.726  11.909
38348W        W 8229  16.240   6.413   4.814
38349W        W 8230  38.481  15.173   4.149
38350W        W 8231   8.338   5.760   2.244
38351W        W 8232  35.492  25.201   0.867
38352W        W 8233  19.569  13.153   3.164
38353W        W 8234  10.232  37.934  10.451
38354W        W 8235   4.220  28.154  12.483
38355W        W 8236   8.327  26.074   2.866
38356W        W 8237  36.586  35.571   1.253
38357W        W 8238   4.353  42.903   1.406
38358W        W 8239  16.244   5.698  12.431
38359W        W 8240  41.472   5.344  11.577
38360W        W 8241   0.359  17.241  12.023
38361W        W 8242  12.124  35.387   4.189
38362W        W 8243  15.087   7.702  12.064
38363W        W 8244  37.856  16.692  12.957
38364W        W 8245  34.877  33.440   4.277
38365W        W 8246  32.942   9.702   4.161
38366W        W 8247   8.400  24.599  10.930
38367W        W 8248  11.647  33.108   2.304
38368W        W 8249  35.529  16.272  13.523
38369W        W 8250  21.609  15.815   3.703
38370W        W 8251  12.288  37.964  11.856
38371W        W 8252  23.072  44.341  10.639
38372W        W 8253  18.596   3.902   1.745
38373W        W 8254   8.755  32.473  13.038
38374W        W 8255  28.580  11.129  13.858
38375W        W 8256  44.908  26.612   3.257
38376W        W 8257   9.647  10.323   3.234
38377W        W 8258  35.865   7.808  10.950
38378W        W 8259  30.464  21.657   0.479
38379W        W 8260   4.834  43.825   4.682
38380W        W 8261  12.260  20.672   2.735
38381W        W 8262  21.594  31.053   2.673
38382W        W 8263  42.338  16.638  14.505
38383W        W 8264  14.785  18.173   3.866
38384W        W 8265  41.385   0.791   2.359
38385W        W 8266  17.076   4.323  13.487
38386W        W 8267  14.665  32.996   3.299
38387W        W 8268  33.623  17.729  13.330
38388W        W 8269  29.005  23.732   1.758
38389W        W 8270  10.377  30.473   3.782
38390W        W 8271   1.390   5.737   3.768
38391W        W 8272  37.537   4.440   4.771
38392W        W 8273  19.221  21.116   4.617
38393W        W 8274  16.314  19.693   4.826
38394W        W 8275  41.499  25.092   3.349
38395W        W 8276   0.421  10.323   1.260
38396W        W 8277  25.142  13.670   4.151
38397W        W 8278  21.097   8.267   3.155
38398W        W 8279  15.604  31.566  10.457
38399W        W 8280   0.754  18.108   1.307
38400W        W 8281  25.207  43.942   3.678
38401W        W 8282   4.318   2.748   0.836
38402W        W 8283  20.580  33.384   3.660
38403W        W 8284   3.421  28.994  12.532
38404W        W 8285  16.074  21.066  10.515
38405W        W 8286  23.518   2.942  14.960
38406W        W 8287  18.665  32.431  14.328
38407W        W 8288  30.487  35.459   1.219
38408W        W 8289  20.597  23.059  10.562
38409W        W 8290  11.846  21.641   2.344
38410W        W 8291   1.930  29.443  11.987
38411W        W 8292  26.970  10.815   1.437
38412W        W 8293  18.663  36.041  11.466
38413W        W 8294  27.609  27.016   4.122
38414W        W 8295  11.688  31.465   4.271
38415W        W 8296  13.670  18.281   1.300
38416W        W 8297  32.575  38.399   3.716
38417W        W 8298  11.190   2.825  14.836
38418W        W 8299  21.028  23.529  13.370
38419W        W 8300   8.745   5.305   1.765
38420W        W 8301  33.607  16.098   3.384
38421W        W 8302   9.341  20.268  11.569
38422W        W 8303  33.545   1.805  14.960
38423W        W 8304  29.474   4.757  11.089
38424W        W 8305  16.292   8.229  14.369
38425W        W 8306   8.301   3.394  11.024
38426W        W 8307  44.994  35.930   3.177
38427W        W 8308   3.769  34.978  14.446
38428W        W 8309  31.981  32.106  12.367
38429W        W 8310  44.310  35.576   4.208
38430W        W 8311   2.355  42.480  12.938
38431W        W 8312   8.287  16.768   0.785
38432W        W 8313  35.049  32.068  10.001
38433W        W 8314  33.998  41.416  12.901
38434W        W 8315  27.569  16.078  13.489
38435W        W 8316   1.362  22.702   3.264
38436W        W 8317  40.931   2.271   2.230
38437W        W 8318  24.168  33.569  14.390
38438W        W 8319  24.196  35.456  14.948
38439W        W 8320  33.573  36.877   2.887
38440W        W 8321  41.025   4.301  10.458
38441W        W 8322  36.508  13.838   0.954
38442W        W 8323  14.330  35.037  13.850
38443W        W 8324   9.748  26.016   0.477
38444W        W 8325  14.753  35.028  10.934
38445W        W 8326  32.974  16.706  14.827
38446W        W 8327   6.683  34.048  12.429
38447W        W 8328   9.150  25.690  12.387
38448W        W 8329   4.852  19.255  14.510
38449W        W 8330  35.381   2.358   4.800
38450W        W 8331  17.158  39.944   3.857
38451W        W 8332   4.401  25.030   2.667
38452W        W 8333  33.938  17.067  14.345
38453W        W 8334  29.432  43.499  10.952
38454W        W 8335  30.568  41.376   1.221
38455W        W 8336  19.688  12.747  12.836
38456W        W 8337  35.940  25.100  14.291
38457W        W 8338  21.094  19.535  11.582
38458W        W 8339  37.358   2.883   4.278
38459W        W 8340   8.262  41.935   2.193
38460W        W 8341   7.686  34.386   1.308
38461W        W 8342  37.959  38.833  10.617
38462W        W 8343   7.855  21.239  12.367
38463W        W 8344  44.917  28.573   3.788
38464W        W 8345  31.124   9.246   1.821
38465W        W 8346  29.978  41.018   0.387
38466W        W 8347  14.265  17.105  12.388
38467W        W 8348   9.664  19.192   3.744
38468W        W 8349  31.466  36.038   4.822
38469W        W 8350  20.256   7.812   2.186
38470W        W 8351  43.457  41.517   3.383
38471W        W 8352  28.456  25.565  13.930
38472W        W 8353  12.788  11.638   2.324
38473W        W 8354  35.459  31.056  11.117
38474W        W 8355  42.468  33.400   4.342
38475W        W 8356  34.087   4.316   4.123
38476W        W 8357  16.623   9.161   2.251
38477W        W 8358  15.275  34.413  11.108
38478W        W 8359  15.095  24.538   2.725
38479W        W 8360  23.239   6.695  11.516
38480W        W 8361  37.988  23.985   1.273
38481W        W 8362   7.232  13.234   0.388
38482W        W 8363  35.550  13.623   0.433
38483W        W 8364  40.313  30.076   4.649
38484W        W 8365  17.764   3.929   2.191
38485W        W 8366  10.337   8.212  12.079
38486W        W 8367   7.887  42.023  11.460
38487W        W 8368  22.071  15.117   1.782
38488W        W 8369  39.873   5.699   0.735
38489W        W 8370  20.110   0.842   3.278
38490W        W 8371  39.978  42.968   1.819
38491W        W 8372  30.966   9.793  14.828
38492W        W 8373  14.287  23.703  12.824
38493W        W 8374   6.846   6.203  12.438
38494W        W 8375  34.484  15.158   2.413
38495W        W 8376  18.575  17.620   2.744
38496W        W 8377   2.731  32.129   2.341
38497W        W 8378  44.001  28.552   4.325
38498W        W 8379   7.387   7.406  11.499
38499W        W 8380  40.878  18.251   1.404
38500W        W 8381  23.139  27.990   2.795
38501W        W 8382  43.022  15.781  14.983
38502W        W 8383  21.057  33.874   0.752
38503W        W 8384  31.055  35.462   1.408
38504W        W 8385   3.941   0.306  11.585
38505W        W 8386  28.448  10.729   1.907
38506W        W 8387  34.018  31.599  13.029
38507W        W 8388  16.743  42.514   4.706
38508W        W 8389  19.581  29.107   1.236
38509W        W 8390  33.469  32.952   0.346
38510W        W 8391  21.082  41.535   4.245
38511W        W 8392  40.050  38.071  12.524
38512W        W 8393  24.545  25.633  14.982
38513W        W 8394  32.532  13.710  14.908
38514W        W 8395  38.529  13.288   2.730
38515W        W 8396  27.174   3.829   4.817
38516W        W 8397  42.903   8.281   3.692
38517W        W 8398  23.018   1.336   1.381
38518W        W 8399  26.156  17.243  12.393
38519W        W 8400  40.324  41.411   4.220
38520W        W 8401  32.028  24.129   1.217
38521W        W 8402  41.829  41.022   0.356
38522W        W 8403  28.469  21.636  11.010
38523W        W 8404  34.910  44.339  12.474
38524W        W 8405  14.634  32.028   3.755
38525W        W 8406  36.935  37.387   2.885
38526W        W 8407  18.668  42.002   2.721
38527W        W 8408  26.598  24.065   2.258
38528W        W 8409  14.300  24.084   0.405
38529W        W 8410  30.476  39.974   1.307
38530W        W 8411   9.853  28.016  10.468
38531W        W 8412  28.939  32.527  11.550
38532W        W 8413   7.730  11.311  10.888
38533W        W 8414  22.158   1.291  12.360
38534W        W 8415  32.525  19.085   3.382
38535W        W 8416  37.406  36.482  11.923
38536W        W 8417   0.776  26.686   3.848
38537W        W 8418  42.408  34.544   2.674
38538W        W 8419   3.871   1.895   2.226
38539W        W 8420  42.322  33.065   4.650
38540W        W 8421  16.648   4.204   2.816
38541W        W 8422  20.694  30.046   0.257
38542W        W 8423  34.556  36.076  12.391
38543W        W 8424  33.550  18.262   3.213
38544W        W 8425  40.417  14.649   0.351
38545W        W 8426  25.082  19.715  14.411
38546W        W 8427  25.606   2.414  13.929
38547W        W 8428   1.909  43.831   2.337
38548W        W 8429   4.332  25.195   4.207
38549W        W 8430  11.151  38.509  13.038
38550W        W 8431  12.340  21.144  11.420
38551W        W 8432  19.265   0.422   0.372
38552W        W 8433  27.495  39.932   3.864
38553W        W 8434  38.541   7.887   0.250
38554W        W 8435   3.342  42.873  14.828
38555W        W 8436  19.208  38.338   4.237
38556W        W 8437   8.750   5.808   1.890
38557W        W 8438  28.061  21.571  11.531
38558W        W 8439   8.257  42.844  14.769
38559W        W 8440  37.363   5.892  10.528
38560W        W 8441  24.495  25.135   0.879
38561W        W 8442  39.836  10.197   1.805
38562W        W 8443  12.788  44.891  11.913
38563W        W 8444   7.883  15.734   2.203
38564W        W 8445  23.682  38.366  14.289
38565W        W 8446  32.943  33.989   1.809
38566W        W 8447  27.646  42.406   2.383
38567W        W 8448  33.910  39.842  13.884
38568W        W 8449  27.143  28.647  14.030
38569W        W 8450  44.348  25.651   0.244
38570W        W 8451  32.526  21.684   1.930
38571W        W 8452   4.306  24.993  14.833
38572W        W 8453   2.738   3.301  11.411
38573W        W 8454  27.192  37.434  13.433
38574W        W 8455  33.030  43.775   3.199
38575W        W 8456  26.957   0.952   2.863
38576W        W 8457   6.785   4.700   4.255
38577W        W 8458  31.588  20.140   3.256
38578W        W 8459  12.660  28.171  11.386
38579W        W 8460  28.929  41.419  13.934
38580W        W 8461  40.869  19.047   3.865
38581W        W 8462   5.279  44.454   4.163
38582W        W 8463  41.014  36.004   3.785
38583W        W 8464  28.477  42.457  11.889
38584W        W 8465  19.115   5.292  12.002
38585W        W 8466  28.011  32.083   5.239
38586W        W 8467  27.995  33.513  13.887
38587W        W 8468   2.362  25.630  13.908
38588W        W 8469  15.296  39.923   4.215
38589W        W 8470  15.244  39.046  11.569
38590W        W 8471  34.376  12.801  10.556
38591W        W 8472  24.649  18.605   2.750
38592W        W 8473  31.644   4.352   2.255
38593W        W 8474  32.499  16.705   2.839
38594W        W 8475   6.812  35.097   0.867
38595W        W 8476  21.702  11.756  10.535
38596W        W 8477  42.387  12.704  11.093
38597W        W 8478   5.341  17.764  12.542
38598W        W 8479  17.795  43.454   1.273
38599W        W 8480  30.432  28.096  12.373
38600W        W 8481  39.984  37.415  14.783
38601W        W 8482  27.127   7.671   0.437
38602W        W 8483  29.666  37.531   2.238
38603W        W 8484  23.523  13.209   4.235
38604W        W 8485  14.242  44.430  11.486
38605W        W 8486  32.415   9.161  14.424
38606W        W 8487  30.498  31.453  10.904
38607W        W 8488  41.909  14.626  14.459
38608W        W 8489   1.355  34.890   1.233
38609W        W 8490  15.159  11.797  13.984
38610W        W 8491  37.471  28.964  12.545
38611W        W 8492  42.467   2.471   1.724
38612W        W 8493  26.522  17.656  11.074
38613W        W 8494  23.146  26.962  14.426
38614W        W 8495  30.117   4.796  13.316
38615W        W 8496  44.426  15.632  11.444
38616W        W 8497  26.691  27.126  11.939
38617W        W 8498  26.121  25.169  10.506
38618W        W 8499   3.940  14.214   3.159
38619W        W 8500  21.211  12.773  10.569
38620W        W 8501  44.322  41.893   0.840
38621W        W 8502  44.968  11.808   0.823
38622W        W 8503  16.134  30.654   5.245
38623W        W 8504  30.055  14.691   3.715
38624W        W 8505  26.576   1.855  12.984
38625W        W 8506  18.068  17.561   0.744
38626W        W 8507  25.630  39.433  12.446
38627W        W 8508   1.258  29.501   0.825
38628W        W 8509  24.121  25.095   1.310
38629W        W 8510  41.858  18.788   3.675
38630W        W 8511  19.285  31.119  14.813
38631W        W 8512  13.604  44.490   2.409
38632W        W 8513  33.905  12.828   2.181
38633W        W 8514  31.024  40.848   2.825
38634W        W 8515  40.353   2.386  12.469
38635W        W 8516   4.807  32.489   1.336
38636W        W 8517  31.482  25.513   2.360
38637W        W 8518  29.948  23.709  13.948
38638W        W 8519  32.591   4.434   1.359
38639W        W 8520   8.735  37.905   4.675
38640W        W 8521  20.201  43.284  10.901
38641W        W 8522   4.883   1.317   5.088
38642W        W 8523   3.309   5.926  12.551
38643W        W 8524   9.752  40.317   0.352
38644W        W 8525  21.750  17.176   3.824
38645W        W 8526  40.531  31.918  13.414
38646W        W 8527  11.668  30.635  13.869
38647W        W 8528  15.622   5.816  12.429
38648W        W 8529  13.718  25.580  11.860
38649W        W 8530   8.160  43.384  11.417
38650W        W 8531   1.797  36.560  14.972
38651W        W 8532  33.397   8.870   0.297
38652W        W 8533  21.515   7.412   1.281
38653W        W 8534  24.687  40.348  12.934
38654W        W 8535  16.092  36.094  14.311
38655W        W 8536  22.503   5.931   0.780
38656W        W 8537  23.106  19.658  12.865
38657W        W 8538  10.330  31.503  12.033
38658W        W 8539   9.722  10.761   0.414
38659W        W 8540  34.433  29.459   4.234
38660W        W 8541  15.305  34.094   1.793
38661W        W 8542  23.600   7.833   0.816
38662W        W 8543  19.678   5.426  11.515
38663W        W 8544  24.039  38.981   2.790
38664W        W 8545  34.481  35.411  14.389
38665W        W 8546  15.668  15.764  10.462
38666W        W 8547  14.699   4.280  13.466
38667W        W 8548  22.112  16.603   9.559
38668W        W 8549  26.641  31.417  13.913
38669W        W 8550  31.905  19.266  14.853
38670W        W 8551   4.799  44.406   3.238
38671W        W 8552  38.340  43.804   0.479
38672W        W 8553  43.489  28.606  12.890
38673W        W 8554   7.188  17.219  11.948
38674W        W 8555  35.569  28.492   3.159
38675W        W 8556   4.270  23.010   3.287
38676W        W 8557   2.274  40.482   4.692
38677W        W 8558  42.868  35.015   0.780
38678W        W 8559   3.434  19.735  12.476
38679W        W 8560  14.182  23.005   3.305
38680W        W 8561   2.412  36.464   2.859
38681W        W 8562  17.677  29.004   3.663
38682W        W 8563  33.597  14.181  12.988
38683W        W 8564   8.672  16.205   3.736
38684W        W 8565  41.420  10.682   4.829
38685W        W 8566   0.863   9.744  11.116
38686W        W 8567   4.260  43.931  13.387
38687W        W 8568   6.358   0.915  13.472
38688W        W 8569  24.084   4.885   5.228
38689W        W 8570  39.945  14.642  14.910
38690W        W 8571   5.198  30.567  11.597
38691W        W 8572  41.872  22.036   2.689
38692W        W 8573  22.512  32.471   3.708
38693W        W 8574  25.662   9.268  11.014
38694W        W 8575  28.131  31.139  13.855
38695W        W 8576  40.900  18.084  14.460
38696W        W 8577   8.690  41.477   0.424
38697W        W 8578  15.230   1.240   1.364
38698W        W 8579   0.923  24.161  14.474
38699W        W 8580   1.910  26.041   0.357
38700W        W 8581  44.836   1.275   3.191
38701W        W 8582  30.478  23.122   3.666
38702W        W 8583   6.315  40.531   3.785
38703W        W 8584  24.615  41.921  11.383
38704W        W 8585   6.875   1.830  14.884
38705W        W 8586  21.232  35.074  13.893
38706W        W 8587  38.021  35.935  14.414
38707W        W 8588  20.066   3.865  14.454
38708W        W 8589  34.081  20.098  13.322
38709W        W 8590   1.437  30.050   0.411
38710W        W 8591  32.056   7.860  14.324
38711W        W 8592  15.589  18.629   5.238
38712W        W 8593  35.555   1.937  14.990
38713W        W 8594  30.594   3.735   2.834
38714W        W 8595  29.572  22.622   4.656
38715W        W 8596  21.731  11.277   0.433
38716W        W 8597  41.509  21.631   4.725
38717W        W 8598  36.518  24.494   2.385
38718W        W 8599   4.367  28.109   0.394
38719W        W 8600  34.955  12.618  13.420
38720W        W 8601  42.373  25.170   3.234
38721W        W 8602  40.055  44.376  14.999
38722W        W 8603  22.225   7.402   2.308
38723W        W 8604  20.060  21.067  11.600
38724W        W 8605   2.722  39.363   1.713
38725W        W 8606  44.459   2.389  14.364
38726W        W 8607  14.603   2.333   0.815
38727W        W 8608  34.058  13.138   4.743
38728W        W 8609  43.290   0.885  14.775
38729W        W 8610   3.453  44.369   3.677
38730W        W 8611   9.886  26.121   3.674
38731W        W 8612  23.599  10.830   4.669
38732W        W 8613  20.685  36.993   4.721
38733W        W 8614   0.782   2.373   4.153
38734W        W 8615  31.468  29.944   4.667
38735W        W 8616  41.848   2.354  11.890
38736W        W 8617  30.635   7.753  14.496
38737W        W 8618  25.023  42.027  13.807
38738W        W 8619  20.125  12.666  12.345
38739W        W 8620  18.642   1.835   4.728
38740W        W 8621  21.030  35.446   4.254
38741W        W 8622  44.766  20.266  13.498
38742W        W 8623   0.476  22.223  11.603
38743W        W 8624  44.498  34.883  10.954
38744W        W 8625  26.611  21.256   4.140
38745W        W 8626  18.096  34.018  10.894
38746W        W 8627   1.460   3.761   1.887
38747W        W 8628   9.328   7.273   1.378
38748W        W 8629  20.113  17.169   4.300
38749W        W 8630  21.078  21.093  11.933
38750W        W 8631  14.626  30.111   0.753
38751W        W 8632  22.666  19.207  10.047
38752W        W 8633   9.808  12.332   2.226
38753W        W 8634   7.302  37.991  11.059
38754W        W 8635  20.057   3.404  12.410
38755W        W 8636  21.650  43.450   2.348
38756W        W 8637  39.062  11.814   3.200
38757W        W 8638  42.928  44.803   1.890
38758W        W 8639   5.401   0.476   4.164
38759W        W 8640   0.812  29.077   0.307
38760W        W 8641  13.709  26.678  14.467
38761W        W 8642   7.705  26.650  12.563
38762W        W 8643   7.408  11.783  10.982
38763W        W 8644   7.394   1.833  12.897
38764W        W 8645  12.713   6.829  13.394
38765W        W 8646  21.104  14.756   4.634
38766W        W 8647  21.262   8.839   2.851
38767W        W 8648  27.571  15.190   1.796
38768W        W 8649  25.674  42.969  12.375
38769W        W 8650   0.892   2.765   0.906
38770W        W 8651  13.130  26.517  13.997
38771W        W 8652   7.899  34.037   2.854
38772W        W 8653   9.346  37.443   3.368
38773W        W 8654  37.071   6.230  13.329
38774W        W 8655  16.241  28.172   2.797
38775W        W 8656  21.202  22.540  13.815
38776W        W 8657  10.158  25.549   2.403
38777W        W 8658  31.140  38.949  11.974
38778W        W 8659   3.862  20.166   0.445
38779W        W 8660  17.214   7.397  14.382
38780W        W 8661  38.504  19.161  13.312
38781W        W 8662  10.705  13.701   0.871
38782W        W 8663  24.007  18.745  12.083
38783W        W 8664  31.057   7.218   2.895
38784W        W 8665  15.281  19.536  10.899
38785W        W 8666  29.645  27.583  10.528
38786W        W 8667   0.395   4.741   1.257
38787W        W 8668  11.224   4.277  14.480
38788W        W 8669  12.671  35.929  11.978
38789W        W 8670  28.099  26.955   3.812
38790W        W 8671   6.755   7.874   0.418
38791W        W 8672  33.404  42.413   1.813
38792W        W 8673   1.857  38.992   3.848
38793W        W 8674  22.098  40.045  11.045
38794W        W 8675  28.097   6.244  14.849
38795W        W 8676  12.662  43.366   3.249
38796W        W 8677  42.829  34.949  11.864
38797W        W 8678  44.271  41.529   2.384
38798W        W 8679  42.814  20.599  10.638
38799W        W 8680   6.226  42.880   3.852
38800W        W 8681  34.007  10.775  14.019
38801W        W 8682  32.605   4.803  12.454
38802W        W 8683   6.236  44.760  13.062
38803W        W 8684  17.788  30.077  13.856
38804W        W 8685  30.492   3.395   2.850
38805W        W 8686   0.788  17.129   0.962
38806W        W 8687  36.954  23.999  13.830
38807W        W 8688  30.644  32.977   2.257
38808W        W 8689  15.108  30.555  10.406
38809W        W 8690   2.401  37.951   4.692
38810W        W 8691  25.480  23.087  14.482
38811W        W 8692  40.455  26.114  14.492
38812W        W 8693  43.345  41.863   4.270
38813W        W 8694  25.995   0.253   4.249
38814W        W 8695  21.553  41.438   0.443
38815W        W 8696  14.312  36.964  13.548
38816W        W 8697   8.369  14.096   1.241
38817W        W 8698  18.233  14.816   0.867
38818W        W 8699  11.239  15.683  11.930
38819W        W 8700   1.306  42.956   0.262
38820W        W 8701  13.255  30.593   3.230
38821W        W 8702   3.229  29.964   0.781
38822W        W 8703  41.473  39.936  12.902
38823W        W 8704  44.963   0.375  13.331
38824W        W 8705  18.729  21.753   0.374
38825W        W 8706  33.536  42.922  10.078
38826W        W 8707  40.370  12.357  10.615
38827W        W 8708  24.103  44.500   3.179
38828W        W 8709  12.783  12.775   0.892
38829W        W 8710  22.207  42.947  10.460
38830W        W 8711  31.503  20.527   3.851
38831W        W 8712   3.792  42.297   1.432
38832W        W 8713  41.867  38.041   4.114
38833W        W 8714  27.015  21.571  10.471
38834W        W 8715  14.825  26.129   4.156
38835W        W 8716   9.220  23.075   4.681
38836W        W 8717  19.626  11.741  11.079
38837W        W 8718  12.136  42.873   2.366
38838W        W 8719  32.586  25.552  12.829
38839W        W 8720  35.415  18.688   3.845
38840W        W 8721  37.461  38.846  13.497
38841W        W 8722   1.468  10.338   2.820
38842W        W 8723  33.961  14.794  13.406
38843W        W 8724  42.331  18.245   1.870
38844W        W 8725  19.148   7.904  11.594
38845W        W 8726  43.410  11.255  12.934
38846W        W 8727  34.954  21.238  13.342
38847W        W 8728   3.419   3.258  10.976
38848W        W 8729  38.348  28.996  12.074
38849W        W 8730  15.237   8.369  14.450
38850W        W 8731  30.029   9.157   9.437
38851W        W 8732   0.932  11.149  13.034
38852W        W 8733  44.323  16.628  10.154
38853W        W 8734  42.307   8.807   1.327
38854W        W 8735   3.385   4.820   2.727
38855W        W 8736  12.332  16.623   3.818
38856W        W 8737  33.076  44.312   0.257
38857W        W 8738  34.869  42.369   1.394
38858W        W 8739  22.066  33.046   1.776
38859W        W 8740  11.170  36.094   3.317
38860W        W 8741  38.969  27.104  13.373
38861W        W 8742  33.112  43.923   1.372
38862W        W 8743   8.276  19.759  14.998
38863W        W 8744  12.154   9.844  11.990
38864W        W 8745  22.036  39.524  10.591
38865W        W 8746  43.022   8.853  10.074
38866W        W 8747  41.845  11.364  14.968
38867W        W 8748  35.010   3.935   3.738
38868W        W 8749  32.545   2.229  14.348
38869W        W 8750  33.563  11.159   0.287
38870W        W 8751  33.118  34.559   2.389
38871W        W 8752  18.093  15.314   1.742
38872W        W 8753  26.165  24.545   3.189
38873W        W 8754  34.609  44.334   9.941
38874W        W 8755  36.464  20.205  12.534
38875W        W 8756  33.933  24.160   1.696
38876W        W 8757   1.867  18.546  12.909
38877W        W 8758  12.802  18.050   4.747
38878W        W 8759  25.997  23.181  14.887
38879W        W 8760   0.954  31.117  11.531
38880W        W 8761  18.756  12.738   2.398
38881W        W 8762  20.651  12.304   0.276
38882W        W 8763  41.298   2.440  14.503
38883W        W 8764  18.134  17.097  12.392
38884W        W 8765  32.088   8.790  10.434
38885W        W 8766  14.834  39.030   3.365
38886W        W 8767   6.810   4.296   3.282
38887W        W 8768   7.867  17.689  14.325
38888W        W 8769  33.918  19.667  10.644
38889W        W 8770  37.024  33.892   1.794
38890W        W 8771  22.538   9.755   4.155
38891W        W 8772  23.175  17.656   0.913
38892W        W 8773   0.442  23.732   2.329
38893W        W 8774  37.445  15.636  14.840
38894W        W 8775  43.872  22.612  10.629
38895W        W 8776   6.886  40.364  14.811
38896W        W 8777  14.282  44.327  13.835
38897W        W 8778   8.770  38.046  13.004
38898W        W 8779  19.702  23.676   2.819
38899W        W 8780  38.980  12.634   0.436
38900W        W 8781  12.823  11.693  13.978
38901W        W 8782   9.795  32.615   1.408
38902W        W 8783  31.032  40.432   3.718
38903W        W 8784  34.505  38.515  14.288
38904W        W 8785  15.661   8.310  10.556
38905W        W 8786  19.102   1.427   1.749
38906W        W 8787  10.713  16.290  14.464
38907W        W 8788  15.177  18.729  14.346
38908W        W 8789  22.096   6.792   2.335
38909W        W 8790  38.993  26.597  13.009
38910W        W 8791  17.652  37.423  11.479
38911W        W 8792   0.296   6.735  13.416
38912W        W 8793  11.255   5.874   0.930
38913W        W 8794  39.949  33.602   2.794
38914W        W 8795   4.425  18.070   2.307
38915W        W 8796  39.974   0.818   3.385
38916W        W 8797  23.137   6.859   2.676
38917W        W 8798  22.589   5.859  10.024
38918W        W 8799  19.594  24.642  11.540
38919W        W 8800   5.238  39.863   2.388
38920W        W 8801  32.142  10.365   2.365
38921W        W 8802  42.299   0.494  12.013
38922W        W 8803   0.446  21.203   2.269
38923W        W 8804  27.449  21.154   4.720
38924W        W 8805  33.406   1.394   1.706
38925W        W 8806  30.984  35.559   4.299
38926W        W 8807  35.600  37.881   0.318
38927W        W 8808  20.176  14.286   1.342
38928W        W 8809  25.544  43.828  13.490
38929W        W 8810  28.965  21.661  14.373
38930W        W 8811  33.507  33.127   2.875
38931W        W 8812   9.831  37.050  14.435
38932W        W 8813  36.495  10.341   1.716
38933W        W 8814  21.028   4.880  11.486
38934W        W 8815  24.492   6.200  13.478
38935W        W 8816  25.531   0.326  12.515
38936W        W 8817   4.718  35.431   4.138
38937W        W 8818   1.454   1.462  14.790
38938W        W 8819  30.952  17.129  10.639
38939W        W 8820  10.723  11.831   4.141
38940W        W 8821  30.969  14.202   0.862
38941W        W 8822  14.612  14.668  13.918
38942W        W 8823  19.267   7.809  13.482
38943W        W 8824   5.273  18.075  14.412
38944W        W 8825   1.802  35.985   4.178
38945W        W 8826   7.673   2.367  12.017
38946W        W 8827  27.628  36.380   3.234
38947W        W 8828  14.771  26.116   1.836
38948W        W 8829  25.988   8.805  12.898
38949W        W 8830  17.649  24.680  11.966
38950W        W 8831  42.791  20.715   0.884
38951W        W 8832  44.893  35.604   0.789
38952W        W 8833   5.754  20.641  11.075
38953W        W 8834  14.184  13.690   3.780
38954W        W 8835  27.615  12.286  13.829
38955W        W 8836  10.374   6.282   3.851
38956W        W 8837  14.698   7.306   0.282
38957W        W 8838  39.380  17.655   0.914
38958W        W 8839  33.500  28.515   2.759
38959W        W 8840  29.980  13.720   3.725
38960W        W 8841  41.372   6.689  10.999
38961W        W 8842  32.398  26.966  10.540
38962W        W 8843  28.029  35.003   5.235
38963W        W 8844  28.038  37.433   0.844
38964W        W 8845  23.687  25.982  10.905
38965W        W 8846  28.963  41.428   3.353
38966W        W 8847  37.465   6.357  10.471
38967W        W 8848   0.417  33.118   1.917
38968W        W 8849   9.346  23.692  11.934
38969W        W 8850  37.881  22.138   4.139
38970W        W 8851   4.238  17.635   0.377
38971W        W 8852   4.921  24.502   2.303
38972W        W 8853  33.463  12.242  10.960
38973W        W 8854  40.955  36.404   3.684
38974W        W 8855   2.949  25.679  14.860
38975W        W 8856  14.250  35.008   3.343
38976W        W 8857  10.220  34.511  11.463
38977W        W 8858   2.333  24.714  11.476
38978W        W 8859  18.213   6.378  14.890
38979W        W 8860  26.962   3.249  13.375
38980W        W 8861  38.426  38.421  11.390
38981W        W 8862  10.726  36.971   1.752
38982W        W 8863  35.500  35.397   4.785
38983W        W 8864  17.675  14.130   2.847
38984W        W 8865   4.245  20.177   4.165
38985W        W 8866  22.666  44.896   3.861
38986W        W 8867  28.972  21.247  14.397
38987W        W 8868  34.001  12.656  12.876
38988W        W 8869  31.105   1.387   0.481
38989W        W 8870   6.766   0.937   1.726
38990W        W 8871  30.957  35.361   3.313
38991W        W 8872  20.049  21.096   4.282
38992W        W 8873  29.608  24.520  11.107
38993W        W 8874   2.285  28.593   1.395
38994W        W 8875  24.206   2.447  13.873
38995W        W 8876  23.640  14.294   0.341
38996W        W 8877  11.322   2.312  12.075
38997W        W 8878  26.555  23.506   1.408
38998W        W 8879   9.215  30.562   0.844
38999W        W 8880   6.332   8.402   1.451
39000W        W 8881  33.006  29.154   0.774
39001W        W 8882  13.782  35.871   1.317
39002W        W 8883  38.404  26.651   5.175
39003W        W 8884   0.319  28.473   1.933
39004W        W 8885   4.355  40.964  13.368
39005W        W 8886  20.587  42.874  13.491
39006W        W 8887  37.380   4.754   4.820
39007W        W 8888  26.702  27.038   1.307
39008W        W 8889   2.423  16.113   0.833
39009W        W 8890  21.566  24.592   1.260
39010W        W 8891  34.909   8.189  14.447
39011W        W 8892  26.127  15.197  12.509
39012W        W 8893  17.275  20.237  10.634
39013W        W 8894  42.958  42.481   4.819
39014W        W 8895  26.512  36.894  13.965
39015W        W 8896  25.534  21.017   3.232
39016W        W 8897  17.664  13.719  10.959
39017W        W 8898   0.458  34.525   4.162
39018W        W 8899  18.670  16.172   2.403
39019W        W 8900  23.672  22.040  12.861
39020W        W 8901  27.682  43.346  11.551
39021W        W 8902  40.496  16.656   2.847
39022W        W 8903  36.519  28.933   3.318
39023W        W 8904   6.897  33.430   1.216
39024W        W 8905  24.121   9.663  12.373
39025W        W 8906  13.323  41.296   1.708
39026W        W 8907  44.842   1.907  10.546
39027W        W 8908  19.186  39.471  14.449
39028W        W 8909  44.409   8.692  10.927
39029W        W 8910  18.786  31.499  10.645
39030W        W 8911  16.603  16.133  12.068
39031W        W 8912  40.939  19.048  14.449
39032W        W 8913  39.055  36.017   3.747
39033W        W 8914   5.735  20.631   4.740
39034W        W 8915  32.935  27.992  14.331
39035W        W 8916  19.712   0.480  14.896
39036W        W 8917  32.498  11.693   4.286
39037W        W 8918   7.725  37.409   2.803
39038W        W 8919   1.931  30.954   4.723
39039W        W 8920  20.052  26.545   0.864
39040W        W 8921  32.122  14.321   3.327
39041W        W 8922  38.564   1.275   3.362
39042W        W 8923  27.685  42.009   4.206
39043W        W 8924  12.824  20.178  13.805
39044W        W 8925  28.544  24.043   0.282
39045W        W 8926  23.574  10.366  11.996
39046W        W 8927  13.277  34.953  14.890
39047W        W 8928  37.479   2.283  13.403
39048W        W 8929  11.852   3.278   2.356
39049W        W 8930  21.672   4.941  13.350
39050W        W 8931  41.899  43.976  14.420
39051W        W 8932  17.090  33.520   3.212
39052W        W 8933  32.908   6.735   2.270
39053W        W 8934  25.164  27.058  11.531
39054W        W 8935  12.345  28.139   1.932
39055W        W 8936  14.339   4.373  14.398
39056W        W 8937  11.764  18.567  12.045
39057W        W 8938  37.529  40.384   5.295
39058W        W 8939  39.820   8.328  13.961
39059W        W 8940  33.085   4.229  11.586
39060W        W 8941  38.373  13.654  10.617
39061W        W 8942   2.297   9.658  13.486
39062W        W 8943  12.169  13.183  10.412
39063W        W 8944  20.083  36.441   4.114
39064W        W 8945  23.598  22.593  13.317
39065W        W 8946  38.066  23.123   1.795
39066W        W 8947  31.414   6.425  10.438
39067W        W 8948  35.400   5.350  14.502
39068W        W 8949  22.251   6.694  13.467
39069W        W 8950  12.677  11.846  12.048
39070W        W 8951  34.432  23.641  12.933
39071W        W 8952   0.363  17.177   0.290
39072W        W 8953  27.480  27.094   4.746
39073W        W 8954  30.030   6.797  11.109
39074W        W 8955  36.860  26.020   3.278
39075W        W 8956  14.702  11.815   2.840
39076W        W 8957  33.967   9.343   4.331
39077W        W 8958  38.066  27.631  14.838
39078W        W 8959  37.563  25.682  13.327
39079W        W 8960  13.619  36.929   4.762
39080W        W 8961  35.972  38.001  13.464
39081W        W 8962  21.138  30.059  11.101
39082W        W 8963   5.239  39.319   0.472
39083W        W 8964  37.455   8.762  11.476
39084W        W 8965  12.280  42.790  11.025
39085W        W 8966  34.397  12.146  13.974
39086W        W 8967  25.045  26.152   1.217
39087W        W 8968  26.489   7.183   1.902
39088W        W 8969   2.784  30.992  13.447
39089W        W 8970  42.395  34.498   3.173
39090W        W 8971  43.285  27.526   2.200
39091W        W 8972  39.354   8.280  11.556
39092W        W 8973  27.612  10.310   0.321
39093W        W 8974  35.545  40.418   3.861
39094W        W 8975  18.569  15.101  14.403
39095W        W 8976  26.534  26.686   1.824
39096W        W 8977  26.999   7.748  13.476
39097W        W 8978  32.953   3.743  14.365
39098W        W 8979  13.710  29.002  11.920
39099W        W 8980  44.354   7.322  14.474
39100W        W 8981   5.852  14.776  12.875
39101W        W 8982  40.838  43.318   3.672
39102W        W 8983  22.200  29.158  11.389
39103W        W 8984  25.534  24.564   1.329
39104W        W 8985  30.420   3.421   0.780
39105W        W 8986   0.391  42.488   4.755
39106W        W 8987  13.107   8.883   0.280
39107W        W 8988  29.498  23.577   4.160
39108W        W 8989  43.489   4.252   3.640
39109W        W 8990   8.364  44.863   3.223
39110W        W 8991  28.456  11.715   3.847
39111W        W 8992  44.791  21.165  14.028
39112W        W 8993  43.966  30.052   1.762
39113W        W 8994  15.770  13.765   4.616
39114W        W 8995  36.067  10.728  11.858
39115W        W 8996  29.927  40.864  12.846
39116W        W 8997  35.026  29.600   1.259
39117W        W 8998   9.190  38.951  13.839
39118W        W 8999  28.172  44.853   4.810
39119W        W 9000  23.602  32.528   3.784
39120W        W 9001  19.125  13.311  11.480
39121W        W 9002  26.632   6.287  14.375
39122W        W 9003  14.263  39.928  10.450
39123W        W 9004  43.894  19.235  13.870
39124W        W 9005  43.944  10.786  11.081
39125W        W 9006  32.063   2.783   2.226
39126W        W 9007   6.885  31.083   2.663
39127W        W 9008  13.233   9.680  14.388
39128W        W 9009  12.658  26.664   3.211
39129W        W 9010  36.912  42.349   1.418
39130W        W 9011  28.058  37.944  11.038
39131W        W 9012  23.992  22.587   2.849
39132W        W 9013  36.447  15.593   1.301
39133W        W 9014   7.714  22.198  13.501
39134W        W 9015  41.413   6.720   3.736
39135W        W 9016  27.993  14.305   2.307
39136W        W 9017  23.637  35.425   0.248
39137W        W 9018  43.988  39.911  14.785
39138W        W 9019   2.812  14.823   3.177
39139W        W 9020  42.428  28.673   2.284
39140W        W 9021  17.141   8.223   2.229
39141W        W 9022  24.057  24.149  10.583
39142W        W 9023  19.572  19.660  11.922
39143W        W 9024  43.442  24.712   0.819
39144W        W 9025   8.194  42.915   4.322
39145W        W 9026   3.891  29.428   3.714
39146W        W 9027  29.584  27.981   5.151
39147W        W 9028  34.059  15.262  12.541
39148W        W 9029  39.809  35.956  10.904
39149W        W 9030  18.201  42.782   2.862
39150W        W 9031  20.676   8.876  11.040
39151W        W 9032  30.613  36.349  13.799
39152W        W 9033   0.977  16.630  14.972
39153W        W 9034  34.945   5.799   4.691
39154W        W 9035  11.368  18.179  10.091
39155W        W 9036  23.151  41.472   0.346
39156W        W 9037  18.651  22.217  12.444
39157W        W 9038  34.914   1.472   3.642
39158W        W 9039   3.244  26.044   4.354
39159W        W 9040  10.382   5.929  14.477
39160W        W 9041  11.743   2.408   0.281
39161W        W 9042  13.701  37.058   4.207
39162W        W 9043  22.150   5.430  14.310
39163W        W 9044   3.305  42.791   3.853
39164W        W 9045  35.026  27.061   0.405
39165W        W 9046   2.456   2.352  10.506
39166W        W 9047  35.012   8.801   2.361
39167W        W 9048  25.622  33.088  14.981
39168W        W 9049   1.924  20.124   3.332
39169W        W 9050  13.829  38.908  10.070
39170W        W 9051  40.414  13.796   2.869
39171W        W 9052  36.390  37.422   1.882
39172W        W 9053  37.352  22.231   4.780
39173W        W 9054  15.228  15.264  14.988
39174W        W 9055   8.679  34.003   2.800
39175W        W 9056  25.566   4.862   9.947
39176W        W 9057  38.849   2.447  14.810
39177W        W 9058  11.750  21.663  11.492
39178W        W 9059  19.672  13.834   4.738
39179W        W 9060   9.653  25.206  12.556
39180W        W 9061  35.957  14.621   4.305
39181W        W 9062  29.479  14.188   5.264
39182W        W 9063   9.367  35.892  11.002
39183W        W 9064   2.950  34.407  13.473
39184W        W 9065  34.437   2.912  12.971
39185W        W 9066  12.769  30.105  10.999
39186W        W 9067  19.699   8.339  14.465
39187W        W 9068   5.277  28.554  14.297
39188W        W 9069  12.190  17.792  11.855
39189W        W 9070  44.403  31.980   1.395
39190W        W 9071  11.738  43.875   2.202
39191W        W 9072  19.719  38.852  11.020
39192W        W 9073  10.202  24.081  14.998
39193W        W 9074  16.596  32.949   1.705
39194W        W 9075  39.433  36.866  10.531
39195W        W 9076  37.928  37.850   4.729
39196W        W 9077  26.099  40.839   0.894
39197W        W 9078  19.124  30.654   3.770
39198W        W 9079  37.524  21.600   4.127
39199W        W 9080   9.815  28.547   3.315
39200W        W 9081  24.683  21.603   0.281
39201W        W 9082  34.457  18.640  14.350
39202W        W 9083  16.182  11.287   4.797
39203W        W 9084   1.874  23.701   4.217
39204W        W 9085  10.686  13.149   1.726
39205W        W 9086   3.296   1.940   3.702
39206W        W 9087  20.668  17.291  12.532
39207W        W 9088   1.927   7.255   2.344
39208W        W 9089  13.769  17.683   1.425
39209W        W 9090   3.410  31.551  12.414
39210W        W 9091  19.248  31.449   2.407
39211W        W 9092  32.926  19.706   0.882
39212W        W 9093   9.827  24.033   0.823
39213W        W 9094  11.207   1.418  14.350
39214W        W 9095   5.841  16.191   2.393
39215W        W 9096   3.261  22.058   1.909
39216W        W 9097  23.235   1.358   2.706
39217W        W 9098  11.666  19.562   0.352
39218W        W 9099   2.817  31.571  11.420
39219W        W 9100  28.114  23.524  14.356
39220W        W 9101  24.028  23.730  11.110
39221W        W 9102   1.964  43.478  11.063
39222W        W 9103   9.163  32.099  14.901
39223W        W 9104   4.911  30.976   4.617
39224W        W 9105  32.998  23.699   2.327
39225W        W 9106  12.334   4.304   2.376
39226W        W 9107  39.904  25.553  11.016
39227W        W 9108  33.050  26.565  14.387
39228W        W 9109  36.961  44.917   0.482
39229W        W 9110  42.496  16.787  11.480
39230W        W 9111  40.898  39.968  11.888
39231W        W 9112   6.342   8.266   3.306
39232W        W 9113   2.844  41.405   4.151
39233W        W 9114   3.824  34.436  14.916
39234W        W 9115  19.565  41.969   4.188
39235W        W 9116  15.655  19.082   1.799
39236W        W 9117  22.557  15.594   1.800
39237W        W 9118  23.069  39.894  14.767
39238W        W 9119  12.834  19.145   3.380
39239W        W 9120  20.140  25.495   2.745
39240W        W 9121   5.789  38.942   2.750
39241W        W 9122  28.546  21.238  12.433
39242W        W 9123  21.039  25.017   1.894
39243W        W 9124  34.485  11.647  14.778
39244W        W 9125   7.398   4.868  14.344
39245W        W 9126  19.613   0.257  12.078
39246W        W 9127  16.798  14.675   3.368
39247W        W 9128  18.177  18.737  12.413
39248W        W 9129   4.326  14.256   5.200
39249W        W 9130  28.939  18.114  14.371
39250W        W 9131  27.628   8.755   4.679
39251W        W 9132  24.118  25.205  12.516
39252W        W 9133  32.086  12.638  11.427
39253W        W 9134  35.558   9.266  12.966
39254W        W 9135   3.848  19.766   1.261
39255W        W 9136  34.066   8.834  13.430
39256W        W 9137  24.503  31.528   0.382
39257W        W 9138  16.678  15.317   4.290
39258W        W 9139  19.588   2.279  11.571
39259W        W 9140  17.290  20.095   1.261
39260W        W 9141  41.865   9.814  13.059
39261W        W 9142  32.063  20.169  14.945
39262W        W 9143  32.588  20.241  13.817
39263W        W 9144  44.807  27.505  14.000
39264W        W 9145  23.097   4.845  13.309
39265W        W 9146  42.896  24.557   2.303
39266W        W 9147  26.594  35.971   3.186
39267W        W 9148  31.451  21.047  13.917
39268W        W 9149  17.067  34.949  13.426
39269W        W 9150  33.904  32.560   0.327
39270W        W 9151  25.663  13.819  12.060
39271W        W 9152  29.074  36.950   2.762
39272W        W 9153  40.404   4.879  11.539
39273W        W 9154  27.043  14.278  13.367
39274W        W 9155  32.390  36.395   0.811
39275W        W 9156   7.742  20.080   3.640
39276W        W 9157   6.286  42.473   0.353
39277W        W 9158   0.444  12.747  14.907
39278W        W 9159   2.363   2.882   4.187
39279W        W 9160  35.916  43.423   2.308
39280W        W 9161  31.565   7.269  12.364
39281W        W 9162  22.176  25.048   1.748
39282W        W 9163  37.930  33.886   4.237
39283W        W 9164  31.918  39.389  13.382
39284W        W 9165  37.384   9.701  14.933
39285W        W 9166   2.907   3.733  11.094
39286W        W 9167  34.469  25.973   0.912
39287W        W 9168  30.592  17.738  13.946
39288W        W 9169  28.970  27.989  14.930
39289W        W 9170  18.725  36.907  14.344
39290W        W 9171  22.635  32.944  11.869
39291W        W 9172  41.804   7.877  10.572
39292W        W 9173  31.568  17.153   4.120
39293W        W 9174  39.420  24.124   3.268
39294W        W 9175  34.939  28.997   0.279
39295W        W 9176  29.610  23.997   0.823
39296W        W 9177  40.951  13.136   1.763
39297W        W 9178  20.573   7.901  11.878
39298W        W 9179  26.153  28.446  12.084
39299W        W 9180  33.876  27.557   4.605
39300W        W 9181  37.574  27.074  12.452
39301W        W 9182  21.253  42.971   0.278
39302W        W 9183  21.523  27.468  14.930
39303W        W 9184  44.495   8.885  10.632
39304W        W 9185  18.239  37.339  11.580
39305W        W 9186  42.824   0.428  14.881
39306W        W 9187  14.653  41.522  14.984
39307W        W 9188  31.118  15.794   1.214
39308W        W 9189   5.845  26.530  12.502
39309W        W 9190  21.192  14.619  14.765
39310W        W 9191   0.426   8.242  14.434
39311W        W 9192  38.511  19.754  14.809
39312W        W 9193  12.361   3.919  11.947
39313W        W 9194  13.283  26.113   2.885
39314W        W 9195  10.672  32.434  14.888
39315W        W 9196  19.622  33.491  14.784
39316W        W 9197  43.351   3.955   2.354
39317W        W 9198  34.905   2.386   1.769
39318W        W 9199  18.111   2.768   1.407
39319W        W 9200  44.488  26.531  10.606
39320W        W 9201  24.523  33.498  10.617
39321W        W 9202  38.415  41.372  11.889
39322W        W 9203  16.157  20.229  10.524
39323W        W 9204  26.010  42.983   3.243
39324W        W 9205   1.248  38.340   0.414
39325W        W 9206  34.911  14.782  12.448
39326W        W 9207  39.427   2.337  10.559
39327W        W 9208  11.850  44.442  12.038
39328W        W 9209   0.373  34.569  12.050
39329W        W 9210  14.791  42.399  14.363
39330W        W 9211  41.989  36.072   3.852
39331W        W 9212   7.904  35.109  12.551
39332W        W 9213  35.585  38.461   3.258
39333W        W 9214  14.769   8.738  11.534
39334W        W 9215  25.057  28.052  12.547
39335W        W 9216  11.755  38.898   0.385
39336W        W 9217  42.875  33.976   4.139
39337W        W 9218  32.037  20.689   2.703
39338W        W 9219  22.719  21.084   3.355
39339W        W 9220  40.338  32.947   2.366
39340W        W 9221  40.361   2.723   2.691
39341W        W 9222  27.453   8.246  10.625
39342W        W 9223  24.190  39.479   1.408
39343W        W 9224  44.260  24.110  13.365
39344W        W 9225  35.969  26.957   2.859
39345W        W 9226  39.420  30.930   2.713
39346W        W 9227  31.566  39.992   3.630
39347W        W 9228   6.332  14.803  14.884
39348W        W 9229   3.427  42.309   3.303
39349W        W 9230  18.137   4.931  13.490
39350W        W 9231  13.215  28.629  10.151
39351W        W 9232  13.187   3.770  12.957
39352W        W 9233  17.710  23.230  11.023
39353W        W 9234  30.945  29.008  12.053
39354W        W 9235  42.915   0.812   1.405
39355W        W 9236  32.045  41.410  13.064
39356W        W 9237  20.235  18.587  13.032
39357W        W 9238  38.444   3.348  13.916
39358W        W 9239  10.184  22.233  13.316
39359W        W 9240  30.545  13.268   3.834
39360W        W 9241  38.561  28.030   0.451
39361W        W 9242   1.362  24.624  10.500
39362W        W 9243  32.993  14.615   3.215
39363W        W 9244  23.602   1.455   4.837
39364W        W 9245  40.402  27.499   4.139
39365W        W 9246  32.511  17.616   2.259
39366W        W 9247  37.382   1.805   4.775
39367W        W 9248  17.731  18.582   3.219
39368W        W 9249   3.910   5.261   3.381
39369W        W 9250  34.020  20.572   2.207
39370W        W 9251   1.360  27.103   1.750
39371W        W 9252  30.918   7.761   5.761
39372W        W 9253  10.302  27.583  12.885
39373W        W 9254  30.523   5.816  11.536
39374W        W 9255   7.182  40.011   1.798
39375W        W 9256  23.119   1.974   0.959
39376W        W 9257  16.593  34.984   2.367
39377W        W 9258  27.594  14.786   1.425
39378W        W 9259   4.290   5.253   2.242
39379W        W 9260  41.903   5.293   0.814
39380W        W 9261   8.665  25.538  12.490
39381W        W 9262   8.785  40.823  10.457
39382W        W 9263  26.182  32.895   3.755
39383W        W 9264  25.482  11.769  10.960
39384W        W 9265  30.544  14.219  11.492
39385W        W 9266   9.176  30.995   4.733
39386W        W 9267  40.393  28.469  11.079
39387W        W 9268  17.243  13.278   4.354
39388W        W 9269  28.556  28.008   0.899
39389W        W 9270  32.621  10.758   0.271
39390W        W 9271   4.871   1.367   2.712
39391W        W 9272  19.596  38.024   0.726
39392W        W 9273  28.452  10.344   4.157
39393W        W 9274   4.410   2.286  13.920
39394W        W 9275  14.709  14.714  11.900
39395W        W 9276  40.390  25.209  14.018
39396W        W 9277  18.078  43.818   3.168
39397W        W 9278  33.877  42.845  11.967
39398W        W 9279  30.430  18.550   4.657
39399W        W 9280  10.703  14.782   2.353
39400W        W 9281  19.252  17.667   4.329
39401W        W 9282  31.030  30.929  12.019
39402W        W 9283  13.653  34.980  11.413
39403W        W 9284  37.878  27.173  12.841
39404W        W 9285  36.925  41.877  12.831
39405W        W 9286  12.788   1.843  14.894
39406W        W 9287  38.386  26.595   0.450
39407W        W 9288   0.416  38.474   0.431
39408W        W 9289  38.413  44.787   2.338
39409W        W 9290  13.820  43.891   4.139
39410W        W 9291  15.811  12.260  10.493
39411W        W 9292  40.907  31.540  11.612
39412W        W 9293  36.856  10.327  14.437
39413W        W 9294  43.004  18.665  12.434
39414W        W 9295  38.868   6.399   2.828
39415W        W 9296  17.061   5.218   1.297
39416W        W 9297  30.619  12.786   3.681
39417W        W 9298   6.843  17.733  14.838
39418W        W 9299  38.923   7.804   1.838
39419W        W 9300  30.002  37.066   3.206
39420W        W 9301  32.056  42.839  14.337
39421W        W 9302  13.660  20.114  12.002
39422W        W 9303  37.916  23.237   3.145
39423W        W 9304   6.267  35.398  11.427
39424W        W 9305  39.338  15.606   5.112
39425W        W 9306   0.878  38.945  12.070
39426W        W 9307  35.532   0.340  14.782
39427W        W 9308  13.187   9.833   3.806
39428W        W 9309  34.545  20.079   4.791
39429W        W 9310  14.835  17.651   0.266
39430W        W 9311  26.642  36.385  10.551
39431W        W 9312   9.824  36.505   1.357
39432W        W 9313  22.708  25.096   4.797
39433W        W 9314  14.252  32.097  10.629
39434W        W 9315  28.524  24.994  10.547
39435W        W 9316   6.915  34.994  10.596
39436W        W 9317   7.829  39.535  12.461
39437W        W 9318  40.371  25.659  10.452
39438W        W 9319  17.094  24.100  11.422
39439W        W 9320   6.820  21.621  13.376
39440W        W 9321  39.546  27.463   4.321
39441W        W 9322  37.357  25.038  11.911
39442W        W 9323  33.966  25.983  13.865
39443W        W 9324  10.717   0.375   2.855
39444W        W 9325   0.267  11.176  11.559
39445W        W 9326  37.474  24.076  14.915
39446W        W 9327  29.030  19.094  11.612
39447W        W 9328  16.098  16.684   4.326
39448W        W 9329  26.554   1.388  13.986
39449W        W 9330  38.050  37.983   2.795
39450W        W 9331  35.572  34.580  11.932
39451W        W 9332  15.216   6.378  13.942
39452W        W 9333   4.738   0.289  12.562
39453W        W 9334  35.427  18.743  10.541
39454W        W 9335  13.132  42.816   5.308
39455W        W 9336  21.581  28.029   4.198
39456W        W 9337   8.352  23.730   0.870
39457W        W 9338  37.481  30.570  13.852
39458W        W 9339  24.082   2.362   1.286
39459W        W 9340  30.155  28.983  13.344
39460W        W 9341   1.907   7.259  14.940
39461W        W 9342  25.065  33.539   0.283
39462W        W 9343   4.212  21.097  13.393
39463W        W 9344  20.696  24.042   3.712
39464W        W 9345  31.602  24.700  13.376
39465W        W 9346   2.961  15.609  11.017
39466W        W 9347  34.015  11.656  13.844
39467W        W 9348   6.221  41.805  13.453
39468W        W 9349   0.406  29.483   4.156
39469W        W 9350   2.463   3.351  10.446
39470W        W 9351  24.626  18.085  10.511
39471W        W 9352  20.250   8.877  12.839
39472W        W 9353   8.823   4.770   0.950
39473W        W 9354  38.045  36.372  13.439
39474W        W 9355   9.281  24.673  13.393
39475W        W 9356   0.908  10.754  12.852
39476W        W 9357   7.219  43.273  11.092
39477W        W 9358  13.264  23.729   3.807
39478W        W 9359  10.290  34.393   5.151
39479W        W 9360  17.589   3.274   3.215
39480W        W 9361   1.892  11.337   3.686
39481W        W 9362  27.186  44.415  14.839
39482W        W 9363  14.721   1.417  11.384
39483W        W 9364  18.779  18.053   4.660
39484W        W 9365  23.185  16.270  11.453
39485W        W 9366  11.331   6.756   0.268
39486W        W 9367  15.323  36.464  13.929
39487W        W 9368  12.308  25.704  11.445
39488W        W 9369  38.396  16.242   2.269
39489W        W 9370  25.603  34.500   5.207
39490W        W 9371  12.146  10.139   4.600
39491W        W 9372  43.420  43.512   4.171
39492W        W 9373  30.035  44.440   0.935
39493W        W 9374  20.646   7.836  13.341
39494W        W 9375  25.601  27.511  10.924
39495W        W 9376  30.610  34.015  13.417
39496W        W 9377  19.074  30.111   9.611
39497W        W 9378  18.623  29.441   5.157
39498W        W 9379   9.727  23.196   0.428
39499W        W 9380   1.914   9.820   0.407
39500W        W 9381  22.573  23.106  10.455
39501W        W 9382   1.877  18.162  11.534
39502W        W 9383  41.015   6.852  14.278
39503W        W 9384  30.476  35.484  13.317
39504W        W 9385  37.420  27.636  10.404
39505W        W 9386  31.629  35.852  10.502
39506W        W 9387  44.420  36.390  13.975
39507W        W 9388  35.498  27.150   4.662
39508W        W 9389   9.710  33.999   2.400
39509W        W 9390  37.031  43.434  10.480
39510W        W 9391  12.658   5.408   1.863
39511W        W 9392   8.303  34.917  12.863
39512W        W 9393  43.803  26.628  13.058
39513W        W 9394  14.681  33.391  14.510
39514W        W 9395  40.541   6.185   2.775
39515W        W 9396  26.616  32.039  12.942
39516W        W 9397  42.484  30.989  14.998
39517W        W 9398  13.841  35.413   4.756
39518W        W 9399   2.382  19.723  12.390
39519W        W 9400  35.413  12.189  10.569
39520W        W 9401  12.299  13.766   1.422
39521W        W 9402  12.223  39.825  14.436
39522W        W 9403   4.882   8.682  11.049
39523W        W 9404  44.442   6.870   0.924
39524W        W 9405  11.711   2.821  14.911
39525W        W 9406  31.905  34.077  10.442
39526W        W 9407   4.821  18.587   2.748
39527W        W 9408  31.076   8.882  10.525
39528W        W 9409  35.360   7.665   3.177
39529W        W 9410  30.418  22.207  11.496
39530W        W 9411  11.294  12.187  13.374
39531W        W 9412   8.233   5.372   1.824
39532W        W 9413  29.096  22.595   1.786
39533W        W 9414  25.497  23.098  12.577
39534W        W 9415  33.902   0.347  12.490
39535W        W 9416  20.034  16.733   1.698
39536W        W 9417  38.448  13.780  11.510
39537W        W 9418   9.682  42.788  13.837
39538W        W 9419  17.627  31.544  12.852
39539W        W 9420  29.525  30.485   0.352
39540W        W 9421  20.229  13.633   1.445
39541W        W 9422   5.776   8.390   3.680
39542W        W 9423  28.511  21.240   2.186
39543W        W 9424  33.438   8.751  13.503
39544W        W 9425  34.514  17.214   4.792
39545W        W 9426  16.717   8.287   1.924
39546W        W 9427   6.842   4.907  10.552
39547W        W 9428  13.629  31.079   1.432
39548W        W 9429  18.268  24.696  12.506
39549W        W 9430  19.116  36.474   0.938
39550W        W 9431   8.309  10.713   2.753
39551W        W 9432   8.732   4.343   4.632
39552W        W 9433   8.199  13.267   4.797
39553W        W 9434  24.537  34.608   3.685
39554W        W 9435  35.524  24.061  11.954
39555W        W 9436  19.732   8.727   1.299
39556W        W 9437  14.594  34.370  13.868
39557W        W 9438  39.324  40.013   1.370
39558W        W 9439  34.987   9.303  10.958
39559W        W 9440  32.494  33.381  13.977
39560W        W 9441  36.864  19.097  10.484
39561W        W 9442  23.180  37.370  14.394
39562W        W 9443  18.139  22.012  14.901
39563W        W 9444  11.796  17.221  12.845
39564W        W 9445  27.472  38.855  14.419
39565W        W 9446   7.738  36.001  12.905
39566W        W 9447  33.981   0.286  10.905
39567W        W 9448  15.288  34.895   3.272
39568W        W 9449  29.575  25.495   0.889
39569W        W 9450   3.461  39.396   4.719
39570W        W 9451  36.901  44.796   3.313
39571W        W 9452  19.598  30.595   1.401
39572W        W 9453  28.640  21.072  14.435
39573W        W 9454   9.281   5.333  13.883
39574W        W 9455  24.657  35.000   2.242
39575W        W 9456  23.516  14.691  12.071
39576W        W 9457   1.397  43.315  10.500
39577W        W 9458  34.488  34.913   4.727
39578W        W 9459  43.401  30.489   3.697
39579W        W 9460   2.954   0.886  10.897
39580W        W 9461  19.192  44.010   1.387
39581W        W 9462  10.320  25.079   3.808
39582W        W 9463  10.654  42.324   3.697
39583W        W 9464   1.261  34.983   3.715
39584W        W 9465  24.983  15.270   0.726
39585W        W 9466  11.274  41.883   3.642
39586W        W 9467  12.297  37.347   0.940
39587W        W 9468   3.806  37.833   3.187
39588W        W 9469  31.490   2.321   1.246
39589W        W 9470   4.719  35.381   5.254
39590W        W 9471  39.923  32.122   0.267
39591W        W 9472   1.408  25.012  11.023
39592W        W 9473  14.254  22.195  11.089
39593W        W 9474  29.428   5.819   2.747
39594W        W 9475  14.284  22.222  12.863
39595W        W 9476  33.485  18.652   2.695
39596W        W 9477  36.418   0.777   2.206
39597W        W 9478  15.621  12.181   4.251
39598W        W 9479  24.100  12.790   0.322
39599W        W 9480  20.189  37.439   3.195
39600W        W 9481  11.356  35.385  11.512
39601W        W 9482  44.966  43.895   0.776
39602W        W 9483  26.174  44.834  10.586
39603W        W 9484   3.340  42.321   4.695
39604W        W 9485  32.919  33.443  11.913
39605W        W 9486  27.685  34.475   2.870
39606W        W 9487  28.619  24.627  11.611
39607W        W 9488  31.979  23.230  11.861
39608W        W 9489   4.247   9.772   1.852
39609W        W 9490  38.948   5.346  11.865
39610W        W 9491  38.562  24.117  13.938
39611W        W 9492  42.461  41.320  11.527
39612W        W 9493  20.545  34.371   1.725
39613W        W 9494   6.378  26.582   0.816
39614W        W 9495  19.187  19.703   0.390
39615W        W 9496  33.998  21.750   1.752
39616W        W 9497  30.443  29.049   4.301
39617W        W 9498   1.462   8.347  13.865
39618W        W 9499  20.654  26.137  11.056
39619W        W 9500   8.241  23.519   4.203
39620W        W 9501  19.679  42.524  10.590
39621W        W 9502  26.469   9.779   3.352
39622W        W 9503   5.819  32.523  13.429
39623W        W 9504  17.612  26.192  12.878
39624W        W 9505  33.952  22.667  13.506
39625W        W 9506  12.686  20.126   0.433
39626W        W 9507  38.448  11.796   1.719
39627W        W 9508  33.101  10.779   1.310
39628W        W 9509  16.647  43.920  10.895
39629W        W 9510   9.804  23.049   0.920
39630W        W 9511  39.913  18.174   1.862
39631W        W 9512  11.137  38.359  14.319
39632W        W 9513  12.272  14.309  11.537
39633W        W 9514  42.800  12.238  12.419
39634W        W 9515  43.857  43.468   2.268
39635W        W 9516  24.617  19.604   3.675
39636W        W 9517  20.719   0.760   3.669
39637W        W 9518   9.687  44.822   0.428
39638W        W 9519  31.629   3.909  12.373
39639W        W 9520  40.403  23.648   4.697
39640W        W 9521  26.129  31.629  13.909
39641W        W 9522  28.014  17.662   1.385
39642W        W 9523   5.893  35.017  14.330
39643W        W 9524  19.594  44.869  13.884
39644W        W 9525  27.597  23.595  12.877
39645W        W 9526  43.358  16.197   4.704
39646W        W 9527  18.635  29.435  13.487
39647W        W 9528  19.682  20.611  11.113
39648W        W 9529  24.128  30.576  13.355
39649W        W 9530   9.659   5.198  14.374
39650W        W 9531  25.604   7.260   2.328
39651W        W 9532   1.940   7.832   0.907
39652W        W 9533  32.540  28.554   3.324
39653W        W 9534  25.666   8.731   3.227
39654W        W 9535  20.738  12.709   0.282
39655W        W 9536  20.744  29.977   1.403
39656W        W 9537  29.085  17.562  14.317
39657W        W 9538  13.260  13.731   2.764
39658W        W 9539  36.033  37.057   0.388
39659W        W 9540  34.495  15.680   2.750
39660W        W 9541  15.255  27.520   3.710
39661W        W 9542   8.169  43.455   0.351
39662W        W 9543  15.206  11.813  10.992
39663W        W 9544  33.988   2.233  11.514
39664W        W 9545  13.754   8.801  10.477
39665W        W 9546  26.577  20.102  12.879
39666W        W 9547  41.964   3.919  12.872
39667W        W 9548  27.562   6.200  13.512
39668W        W 9549  14.745  42.354  12.059
39669W        W 9550   0.453   8.832  11.116
39670W        W 9551  18.626  12.825  10.556
39671W        W 9552   5.224  40.962   1.906
39672W        W 9553  29.628  30.133  12.903
39673W        W 9554  35.856  28.022  11.440
39674W        W 9555  11.686   7.844   0.257
39675W        W 9556  13.125   9.687  12.501
39676W        W 9557   4.340  43.859  14.833
39677W        W 9558  29.669  25.566  12.944
39678W        W 9559   4.879  26.014   1.351
39679W        W 9560  29.469  14.132   0.248
39680W        W 9561  19.588  32.493   3.356
39681W        W 9562  31.473  23.669  10.566
39682W        W 9563  30.418  26.162  11.991
39683W        W 9564   3.274   2.762   4.752
39684W        W 9565  31.145  36.399   3.276
39685W        W 9566  22.642   0.358  13.343
39686W        W 9567  20.215  37.435  11.999
39687W        W 9568  16.734   9.319  11.540
39688W        W 9569  27.982  26.527   4.635
39689W        W 9570  29.535  24.581  14.780
39690W        W 9571  26.573   4.352  13.966
39691W        W 9572  29.143  22.184  13.028
39692W        W 9573  33.874  12.156   0.303
39693W        W 9574  33.992  42.838  11.065
39694W        W 9575  15.763   9.688  10.631
39695W        W 9576  41.948  28.460  14.409
39696W        W 9577   4.308   2.885  12.454
39697W        W 9578   6.367  27.033   1.792
39698W        W 9579  32.598   3.896  11.100
39699W        W 9580  44.850  31.417   4.314
39700W        W 9581   6.823  16.660   0.929
39701W        W 9582   4.711  28.653   4.259
39702W        W 9583  32.009  33.528   0.727
39703W        W 9584   2.252  34.560  13.345
39704W        W 9585  22.085  20.731  12.007
39705W        W 9586  23.206   0.484  14.951
39706W        W 9587  24.124   8.283  11.924
39707W        W 9588  36.090   5.799  11.993
39708W        W 9589  21.741   9.711  13.841
39709W        W 9590  19.171   0.428  13.888
39710W        W 9591  12.288   4.806  12.420
39711W        W 9592  21.236  21.621   4.168
39712W        W 9593  34.610  43.841  13.906
39713W        W 9594  26.032  43.797   1.402
39714W        W 9595   6.405  30.515  11.087
39715W        W 9596  11.183  24.149   1.407
39716W        W 9597  35.603   0.273  10.041
39717W        W 9598  36.354  42.507  11.000
39718W        W 9599  11.260  19.109  13.959
39719W        W 9600   0.928   9.786   0.276
39720W        W 9601  27.606  29.977   2.265
39721W        W 9602  37.387  29.081   4.293
39722W        W 9603  24.173  10.316  13.412
39723W        W 9604  41.921   5.362  10.979
39724W        W 9605  28.070  27.071   2.269
39725W        W 9606  14.750  29.133  12.412
39726W        W 9607  39.314  28.136  11.105
39727W        W 9608  19.219  19.572  12.077
39728W        W 9609  15.105  35.956  12.072
39729W        W 9610  37.390   7.763  11.513
39730W        W 9611  20.615  25.633   3.857
39731W        W 9612  40.841   1.819   0.330
39732W        W 9613  23.705  15.093   4.825
39733W        W 9614   8.719  20.167   2.845
39734W        W 9615  12.130   4.705   2.873
39735W        W 9616  39.940  38.499  10.972
39736W        W 9617   9.189  41.880   4.142
39737W        W 9618  35.479  21.160   2.278
39738W        W 9619  43.899   1.360   0.820
39739W        W 9620   9.656  20.711   1.933
39740W        W 9621   6.284  30.461   1.438
39741W        W 9622  12.138  13.260   3.293
39742W        W 9623   7.238  39.037  11.004
39743W        W 9624  31.414  32.005   2.212
39744W        W 9625  29.584  21.194  13.417
39745W        W 9626  21.563  24.127  12.020
39746W        W 9627   1.443  34.400   2.370
39747W        W 9628  26.106  38.471  11.919
39748W        W 9629  26.553  37.485   2.299
39749W        W 9630  26.957   9.826  10.613
39750W        W 9631  10.155   6.914  14.408
39751W        W 9632  36.350  16.665  11.482
39752W        W 9633   2.764  30.031   2.705
39753W        W 9634  33.521  37.056  13.999
39754W        W 9635  16.170  15.749   9.924
39755W        W 9636  21.736  41.475  14.990
39756W        W 9637   4.911  29.031  12.042
39757W        W 9638   4.238  22.705   0.936
39758W        W 9639  13.780  32.571  14.879
39759W        W 9640  21.066   1.838   4.636
39760W        W 9641  30.109  16.269  11.398
39761W        W 9642   6.914   0.892   4.620
39762W        W 9643  29.098  35.043  12.061
39763W        W 9644  31.144   0.772  13.440
39764W        W 9645  34.544  23.014   3.845
39765W        W 9646  18.161  37.527   3.255
39766W        W 9647  14.640   8.805  12.027
39767W        W 9648   8.792  33.060   3.170
39768W        W 9649  36.867  30.942  11.129
39769W        W 9650  30.436  28.578   2.720
39770W        W 9651  25.503  28.156   1.752
39771W        W 9652  14.105  28.527  11.962
39772W        W 9653  26.613  24.165   5.253
39773W        W 9654  25.185  17.772  13.324
39774W        W 9655   4.906   4.405  11.477
39775W        W 9656  25.023  35.527  12.527
39776W        W 9657  21.641   6.866  11.581
39777W        W 9658  19.573  12.179  10.539
39778W        W 9659  36.021  36.518   0.786
39779W        W 9660  37.936   2.413   4.611
39780W        W 9661  14.621   9.772   1.385
39781W        W 9662  43.995  14.713   2.309
39782W        W 9663  14.721   8.860  12.467
39783W        W 9664  25.063   6.192   1.911
39784W        W 9665   4.735  11.647   3.312
39785W        W 9666  12.774  30.910  10.479
39786W        W 9667  21.740  28.441  11.439
39787W        W 9668  34.517  26.026  12.028
39788W        W 9669  20.763  30.526   4.309
39789W        W 9670  16.678  21.137  11.545
39790W        W 9671  27.952  21.075   1.854
39791W        W 9672   3.841  14.274   3.860
39792W        W 9673  21.104  31.941  14.382
39793W        W 9674  42.517  18.247   2.288
39794W        W 9675  42.915  13.700  14.396
39795W        W 9676  22.169  35.578  12.948
39796W        W 9677  42.459  30.940   4.730
39797W        W 9678  24.602  34.058   2.329
39798W        W 9679  31.514  14.247   1.848
39799W        W 9680  31.106  16.072   4.742
39800W        W 9681  35.473  36.478   3.857
39801W        W 9682  11.634  39.845   0.246
39802W        W 9683  38.923   7.397  12.353
39803W        W 9684  37.937  15.195   4.141
39804W        W 9685   5.334   9.825   0.387
39805W        W 9686  30.554  27.651  13.446
39806W        W 9687   6.241  11.706  13.934
39807W        W 9688  21.151  39.460  13.830
39808W        W 9689  15.577   0.900  13.370
39809W        W 9690  32.636  33.066   0.348
39810W        W 9691  18.655  16.589  14.382
39811W        W 9692  33.430   9.882   4.720
39812W        W 9693  38.859  17.560  12.065
39813W        W 9694  13.293  23.514   0.898
39814W        W 9695  15.626  36.484   3.829
39815W        W 9696  41.806  18.149  13.935
39816W        W 9697   5.744   3.739  13.485
39817W        W 9698  12.204   1.956   3.865
39818W        W 9699  28.016  44.469   2.884
39819W        W 9700  42.492  42.455   0.370
39820W        W 9701   2.790   0.748   1.740
39821W        W 9702   5.688  28.007  13.915
39822W        W 9703   0.404  21.198   2.823
39823W        W 9704  24.146   0.335   1.303
39824W        W 9705  34.562  22.524  14.979
39825W        W 9706  36.007  25.216   3.857
39826W        W 9707  11.743   4.777   2.830
39827W        W 9708   1.967   5.898  11.016
39828W        W 9709   7.683  10.258   0.465
39829W        W 9710  32.948  13.789   4.687
39830W        W 9711  21.245  15.609  13.406
39831W        W 9712  37.976  36.347   0.895
39832W        W 9713  14.210  37.353   0.270
39833W        W 9714   8.186  17.557  13.886
39834W        W 9715  38.914  30.582  14.498
39835W        W 9716   4.257   8.832  12.946
39836W        W 9717  15.114   3.892   3.656
39837W        W 9718  39.034  22.727  12.397
39838W        W 9719  31.620   2.884   1.429
39839W        W 9720   3.250  35.108   3.217
39840W        W 9721  11.203  43.860  11.576
39841W        W 9722   2.881   5.328   3.821
39842W        W 9723  19.624   0.773   0.339
39843W        W 9724  41.837  21.231   0.846
39844W        W 9725  16.698  43.904   1.268
39845W        W 9726  14.636   5.227   0.728
39846W        W 9727   1.471  39.462  13.416
39847W        W 9728  33.033  14.295   4.815
39848W        W 9729  34.601  25.591  13.983
39849W        W 9730  24.615  20.754   0.276
39850W        W 9731  34.015  16.668  10.610
39851W        W 9732   6.886  40.866  14.477
39852W        W 9733  24.563  15.753   2.224
39853W        W 9734  36.044  21.757   4.342
39854W        W 9735  10.797  17.092  11.487
39855W        W 9736  33.120   2.906   3.150
39856W        W 9737  40.915   3.234  13.990
39857W        W 9738  15.219  12.193   1.844
39858W        W 9739  43.794  37.355   4.750
39859W        W 9740  13.136  14.235  13.525
39860W        W 9741  29.158   5.888  11.096
39861W        W 9742  22.604  39.514   3.781
39862W        W 9743  27.011   7.334   1.707
39863W        W 9744  40.002  35.466  13.063
39864W        W 9745   1.358   8.710   0.440
39865W        W 9746  18.182   6.421  12.537
39866W        W 9747  20.185   4.415  11.415
39867W        W 9748  39.013  12.819   2.229
39868W        W 9749  41.998  25.568   3.746
39869W        W 9750  32.025  43.848  13.836
39870W        W 9751  17.165  41.433   2.757
39871W        W 9752  32.598  19.171  12.002
39872W        W 9753  29.459  32.455   2.312
39873W        W 9754  39.559  44.930  13.989
39874W        W 9755   6.408  15.228  11.879
39875W        W 9756  29.007  36.398   3.182
39876W        W 9757  15.190  40.922  11.584
39877W        W 9758  43.953  30.090  11.882
39878W        W 9759  38.340  35.047  14.797
39879W        W 9760   1.242   3.352  12.378
39880W        W 9761  10.251  30.924  11.125
39881W        W 9762   6.908  26.598  14.833
39882W        W 9763  32.553   9.670  14.960
39883W        W 9764  30.030  15.784   2.284
39884W        W 9765  33.117  28.556  11.110
39885W        W 9766  40.809  31.546  14.384
39886W        W 9767   7.686  44.961   2.279
39887W        W 9768  13.676  35.586   3.667
39888W        W 9769  10.272   1.762  13.921
39889W        W 9770  26.598  26.703  12.538
39890W        W 9771  12.741  35.385  12.918
39891W        W 9772   2.395  29.651  14.012
39892W        W 9773  21.141  10.760   3.756
39893W        W 9774  32.113   0.844   0.740
39894W        W 9775  27.947   9.317  12.428
39895W        W 9776  35.529  12.782  13.898
39896W        W 9777  17.717  38.360  12.896
39897W        W 9778  35.391  25.974   3.653
39898W        W 9779  41.829  19.099  14.454
39899W        W 9780  38.484  37.939  11.515
39900W        W 9781  23.039  36.520   0.859
39901W        W 9782   8.402   4.816   0.922
39902W        W 9783  38.856  16.801  11.107
39903W        W 9784  37.536  31.550  11.598
39904W        W 9785  22.741  18.144  14.377
39905W        W 9786  12.280  13.259   1.256
39906W        W 9787  26.496  23.191  13.850
39907W        W 9788  17.688  36.003   2.267
39908W        W 9789  17.786   8.406   1.211
39909W        W 9790  21.210   6.233  13.356
39910W        W 9791  33.618  34.028   3.283
39911W        W 9792   9.253  28.489  13.309
39912W        W 9793  24.210  18.595   0.939
39913W        W 9794  33.878   2.423   1.268
39914W        W 9795   7.291  34.437  12.395
39915W        W 9796  21.582   4.936   9.950
39916W        W 9797   0.253  27.131  12.912
39917W        W 9798  31.981   1.295  14.032
39918W        W 9799  40.499  22.555  14.516
39919W        W 9800  25.493  22.689   5.299
39920W        W 9801  36.053  10.264   3.690
39921W        W 9802  26.576  27.052   3.155
39922W        W 9803  28.560  12.168  14.408
39923W        W 9804  38.491  21.744  12.371
39924W        W 9805  43.888  22.118   3.865
39925W        W 9806  29.517  21.228  11.116
39926W        W 9807  13.659  28.089  11.533
39927W        W 9808   2.942  18.126   0.271
39928W        W 9809  23.032   7.416  11.889
39929W        W 9810  40.489  41.951   0.431
39930W        W 9811   8.197  23.036  10.633
39931W        W 9812   0.877  43.378  14.011
39932W        W 9813  40.922  40.393   1.733
39933W        W 9814   8.253  34.453  14.849
39934W        W 9815  26.550  20.102   4.277
39935W        W 9816  20.124  21.656  14.311
39936W        W 9817   3.867   6.320   3.165
39937W        W 9818  34.552  28.540  13.364
39938W        W 9819  22.517  43.784   4.731
39939W        W 9820  27.669  13.294   3.732
39940W        W 9821   9.235  37.071   2.184
39941W        W 9822   4.828  41.410  10.931
39942W        W 9823  41.821  33.606   4.633
39943W        W 9824  25.592   4.367   2.336
39944W        W 9825  41.814  35.967  12.061
39945W        W 9826  12.343  19.589   1.920
39946W        W 9827  15.179  23.100   0.920
39947W        W 9828  29.607   2.263  14.506
39948W        W 9829  20.104  31.010   3.164
39949W        W 9830  29.006  22.185  12.568
39950W        W 9831   1.874   1.240  12.491
39951W        W 9832  20.154  34.986  14.380
39952W        W 9833  29.056  17.280  10.940
39953W        W 9834  27.469  36.539  11.499
39954W        W 9835  33.518  43.013  11.871
39955W        W 9836  15.713  28.034   0.967
39956W        W 9837  37.966  13.775   1.398
39957W        W 9838  18.058  24.100   3.191
39958W        W 9839  30.137   5.408  10.019
39959W        W 9840   6.192  22.667  11.912
39960W        W 9841  35.473  26.593  10.630
39961W        W 9842  21.734  43.933   0.945
39962W        W 9843   5.912  23.063   0.823
39963W        W 9844   1.878  32.947  13.850
39964W        W 9845  24.678  18.232   4.284
39965W        W 9846  13.259  16.648  12.886
39966W        W 9847  27.619   6.215  11.016
39967W        W 9848   8.376  10.634  14.356
39968W        W 9849  14.103  23.210  12.374
39969W        W 9850  10.356  11.788  12.073
39970W        W 9851  31.114  17.262  13.995
39971W        W 9852  17.196  27.155  13.480
39972W        W 9853  20.543  42.985   4.633
39973W        W 9854  33.097  41.826  14.285
39974W        W 9855  38.841  25.164  12.368
39975W        W 9856  34.891  43.473  12.398
39976W        W 9857  39.415   8.310  10.611
39977W        W 9858  29.131  25.211   1.898
39978W        W 9859  32.066   0.760   2.866
39979W        W 9860   9.673  34.383   3.647
39980W        W 9861  43.882  39.018   1.313
39981W        W 9862   2.743  20.650  12.454
39982W        W 9863  22.685  21.082  14.809
39983W        W 9864   8.678   0.259   0.838
39984W        W 9865   2.339  19.063  11.538
39985W        W 9866   6.417  15.732  10.012
39986W        W 9867  10.738  11.166  10.633
39987W        W 9868   7.345  44.848  12.361
39988W        W 9869  29.649  13.177   3.181
39989W        W 9870  44.880   1.310   4.705
39990W        W 9871  19.628  12.259  11.869
39991W        W 9872  33.520   3.375  13.418
39992W        W 9873   8.859  35.890  14.816
39993W        W 9874  37.067  22.726   3.733
39994W        W 9875  15.714  13.350   1.375
39995W        W 9876  43.444  20.171   0.254
39996W        W 9877  26.501  30.433   3.297
39997W        W 9878  40.010  40.390   4.632
39998W        W 9879  10.789   9.750   4.682
39999W        W 9880  41.433  16.220  11.952
40000W        W 9881  12.832  11.788   0.855
40001W        W 9882  29.633  37.516  14.479
40002W        W 9883  23.551  32.430  13.521
40003W        W 9884  29.992   3.287  11.555
40004W        W 9885  38.394  15.823   2.348
40005W        W 9886  42.363   0.485  13.985
40006W        W 9887  43.896  37.474   3.167
40007W        W 9888  12.730  35.098   1.925
40008W        W 9889  32.611  19.247   2.194
40009W        W 9890  27.673  35.936   4.650
40010W        W 9891  14.287  29.994   0.297
40011W        W 9892  33.465  34.004   4.646
40012W        W 9893  23.539  28.171  12.549
40013W        W 9894  39.536  18.054  10.453
40014W        W 9895  13.281  32.941   2.902
40015W        W 9896  21.140  32.602   5.171
40016W        W 9897   6.410  33.584   1.740
40017W        W 9898  11.155  21.224  10.966
40018W        W 9899  41.927   2.945   1.356
40019W        W 9900  33.557  39.418  14.892
40020W        W 9901  14.305  32.074  11.116
40021W        W 9902  26.612   9.291   1.211
40022W        W 9903  29.104  35.018   3.266
40023W        W 9904  37.518  12.242   0.246
40024W        W 9905  39.024  43.923   0.272
40025W        W 9906  43.964  43.314   0.776
40026W        W 9907  32.469  15.579   3.307
40027W        W 9908  38.970  24.979   1.310
40028W        W 9909  43.980  18.683   1.855
40029W        W 9910  20.708  28.662   0.325
40030W        W 9911  15.717  20.158  12.855
40031W        W 9912  40.018   5.921   2.309
40032W        W 9913  41.924  39.914  10.037
40033W        W 9914  34.526  33.017   2.235
40034W        W 9915  32.046  35.481  11.384
40035W        W 9916  17.205  32.576   1.694
40036W        W 9917  22.642  42.453   2.736
40037W        W 9918  40.445   5.258  10.483
40038W        W 9919   7.722  30.504  12.351
40039W        W 9920   6.691  40.924  14.924
40040W        W 9921  24.713   5.398  12.915
40041W        W 9922  13.802  29.451  12.496
40042W        W 9923  22.044  39.977   1.341
40043W        W 9924   9.752  38.926   1.847
40044W        W 9925  41.992  26.110   2.845
40045W        W 9926  14.631  21.692  11.997
40046W        W 9927  18.188  14.606  11.017
40047W        W 9928   4.890  16.710   2.180
40048W        W 9929  19.181   5.831  14.914
40049W        W 9930  38.366  16.124  14.909
40050W        W 9931  14.239  21.653   1.880
40051W        W 9932  28.158   2.362   1.916
40052W        W 9933  44.859  29.161   4.632
40053W        W 9934  13.817  30.530  12.078
40054W        W 9935   9.322  12.332   3.683
40055W        W 9936  28.504  11.128  13.394
40056W        W 9937  12.679   4.340  12.460
40057W        W 9938   5.314  38.383   1.391
40058W        W 9939  36.010   3.954  14.905
40059W        W 9940  17.187  27.590  13.803
40060W        W 9941  33.050   1.947  10.512
40061W        W 9942  37.998   9.167  11.415
40062W        W 9943  31.497  33.552  12.058
40063W        W 9944   0.271  12.247   2.742
40064W        W 9945  13.198  10.243  14.883
40065W        W 9946  30.544  35.065  14.922
40066W        W 9947   8.387  43.270   1.765
40067W        W 9948  19.603  29.541  14.421
40068W        W 9949  14.809  34.886  11.893
40069W        W 9950   8.277  44.425   4.170
40070W        W 9951  20.073  25.136  12.575
40071W        W 9952  44.832  23.611   1.249
40072W        W 9953  35.409   7.377  11.929
40073W        W 9954  33.127   5.393   3.710
40074W        W 9955  28.613  22.175  13.895
40075W        W 9956   2.283   8.796  11.504
40076W        W 9957  42.405   1.780  12.979
40077W        W 9958   5.800  29.628  10.519
40078W        W 9959  12.842  11.362   3.322
40079W        W 9960   5.280  12.676  14.813
40080W        W 9961  20.562  28.156  10.540
40081W        W 9962   0.853  44.823  11.517
40082W        W 9963  41.488   2.824  11.088
40083W        W 9964  18.584  29.918   0.861
40084W        W 9965  36.424  15.643  14.972
40085W        W 9966  20.107  30.993   0.264
40086W        W 9967  33.943  40.400  11.456
40087W        W 9968  26.055   8.750   1.236
40088W        W 9969  23.664  14.231   1.902
40089W        W 9970  20.152   0.871  13.028
40090W        W 9971  15.315  43.981   3.757
40091W        W 9972   4.826   2.792  12.468
40092W        W 9973  21.627  44.381   0.339
40093W        W 9974   5.778  23.105   4.165
40094W        W 9975  12.640  26.565  10.542
40095W        W 9976  34.512  36.569   0.377
40096W        W 9977  18.280  15.097   4.171
40097W        W 9978  22.671   9.250   1.233
40098W        W 9979  44.967  17.289  11.559
40099W        W 9980  40.907  41.389  11.987
40100W        W 9981  34.893  42.411   2.752
40101W        W 9982  42.485  19.766  14.399
40102W        W 9983   7.845  11.712  10.542
40103W        W 9984  15.760  41.474  13.344
40104W        W 9985   6.783  13.292  10.978
40105W        W 9986  10.802  24.725  14.283
40106W        W 9987   8.864  22.234  12.000
40107W        W 9988  41.897  34.592  12.530
40108W        W 9989  31.584  31.593   1.923
40109W        W 9990  32.598  18.692  13.464
40110W        W 9991  17.253  33.950   3.306
40111W        W 9992   3.907  18.755   0.273
40112W        W 9993   9.364  19.104   3.306
40113W        W 9994  41.338  31.999   2.383
40114W        W 9995   1.400  38.935  10.921
40115W        W 9996   2.430   2.470   3.655
40116W        W 9997  10.208  15.770  14.799
40117W        W 9998  36.983  35.099   3.181
40118W        W 9999  40.543   0.434   0.275
40119W        W10000  24.077  32.974  12.843
40120W        W10001  20.610  35.552  14.025
40121W        W10002  38.840  19.719   0.369
40122W        W10003  31.025   1.826   0.287
40123W        W10004  13.820  29.128   3.187
40124W        W10005  16.317  40.458   4.290
40125W        W10006  42.467  32.927  11.570
40126W        W10007  13.275  20.765   0.457
40127W        W10008  41.295  42.965   3.860
40128W        W10009  34.963  17.185   0.399
40129W        W10010  16.098  20.159   4.241
40130W        W10011  11.331  16.307   5.248
40131W        W10012   3.341  12.340   4.788
40132W        W10013  39.445   4.887   4.743
40133W        W10014  16.646  35.492   2.188
40134W        W10015  32.887  31.056  14.389
40135W        W10016  27.659   7.288  13.897
40136W        W10017  14.165  14.229  13.494
40137W        W10018  41.351  43.280  11.958
40138W        W10019  13.252  13.287   1.760
40139W        W10020   9.758   3.290   4.752
40140W        W10021  35.029  44.291   4.214
40141W        W10022  29.598  16.287   0.322
40142W        W10023  26.536   9.294  14.923
40143W        W10024  17.684   4.434   4.341
40144W        W10025  22.032  38.363  10.512
40145W        W10026  11.318  18.740  13.849
40146W        W10027   5.279  11.329  12.910
40147W        W10028   8.726  44.937   3.271
40148W        W10029  30.603  28.604   2.410
40149W        W10030  22.218   2.746   2.838
40150W        W10031  38.007  11.681   2.289
40151W        W10032  11.704   3.874   4.696
40152W        W10033   9.733  39.039   1.243
40153W        W10034   9.284  41.315   4.342
40154W        W10035   0.770   2.762  12.016
40155W        W10036  15.252  38.878   1.284
40156W        W10037  33.389  27.165  12.449
40157W        W10038  26.615  43.932  12.377
40158W        W10039  41.465  37.832  13.438
40159W        W10040   5.773  20.152  11.977
40160W        W10041   0.276   7.892  11.507
40161W        W10042  28.599   0.790  14.956
40162W        W10043  13.721   0.914  11.420
40163W        W10044   5.335  12.356   1.789
40164W        W10045  13.114  43.514   0.940
40165W        W10046  36.848  23.628  14.816
40166W        W10047  40.366  26.140  10.916
40167W        W10048  27.487  28.952  14.283
40168W        W10049  36.941  42.493   4.763
40169W        W10050  35.101   7.249  12.060
40170W        W10051   5.287  12.294   0.839
40171W        W10052   0.394  41.038  14.468
40172W        W10053  42.351  42.372   1.780
40173W        W10054   5.864  42.996   2.829
40174W        W10055  14.171   4.236   4.222
40175W        W10056  39.410   5.242  11.533
40176W        W10057  21.590  39.052  10.030
40177W        W10058  23.987  37.360  10.949
40178W        W10059  43.379   3.441   0.472
40179W        W10060  32.095  12.620  10.458
40180W        W10061  25.532  11.641  13.460
40181W        W10062  32.464  24.011   4.267
40182W        W10063  12.118  15.672   4.635
40183W        W10064  12.776  16.141  13.513
40184W        W10065  25.998  22.736   2.708
40185W        W10066   8.224  37.555   3.678
40186W        W10067   9.388   1.387  11.522
40187W        W10068  42.863  23.630   9.996
40188W        W10069  34.001  30.477  13.975
40189W        W10070  28.133  11.191   1.250
40190W        W10071  13.766  15.655   2.367
40191W        W10072   6.746  23.230  13.799
40192W        W10073  13.230   8.735   4.199
40193W        W10074  10.715  19.181  11.603
40194W        W10075   7.797   4.361  13.356
40195W        W10076  28.121  41.004   3.210
40196W        W10077  36.893   6.228  14.807
40197W        W10078  27.137   4.427   2.210
40198W        W10079  44.399  37.925  12.837
40199W        W10080  37.367  23.000  11.043
40200W        W10081  38.883  15.313   1.363
40201W        W10082   9.702  30.582  11.456
40202W        W10083  10.208  22.122  11.505
40203W        W10084  44.396  34.523   1.767
40204W        W10085  27.476  24.021  14.499
40205W        W10086  23.187  29.561  12.533
40206W        W10087   9.856  24.606  11.991
40207W        W10088   4.787  12.213  10.515
40208W        W10089  24.980  42.931  14.950
40209W        W10090  11.143  31.570   4.292
40210W        W10091  32.005  18.066  14.334
40211W        W10092  31.103  14.787  13.318
40212W        W10093  34.608  39.400   4.220
40213W        W10094  25.993  44.002   2.180
40214W        W10095  17.715   3.738   4.243
40215W        W10096  41.044  26.204  13.427
40216W        W10097  42.490  37.948  13.365
40217W        W10098  13.618  28.463   5.103
40218W        W10099  25.155  26.951   0.386
40219W        W10100  21.200  32.526   2.404
40220W        W10101  20.614  23.665  11.127
40221W        W10102  30.605  32.619   3.337
40222W        W10103  29.539   2.742   3.174
40223W        W10104  42.989  27.981  12.904
40224W        W10105  19.670  44.819   0.830
40225W        W10106   6.849   4.835  12.431
40226W        W10107  39.025   7.310  14.316
40227W        W10108   9.737  39.544   3.850
40228W        W10109  24.987   5.822   3.712
40229W        W10110   0.413  19.769  13.391
40230W        W10111  16.086   9.256   1.790
40231W        W10112  31.592  37.001  10.988
40232W        W10113   1.370  42.821  14.489
40233W        W10114   1.796  12.317  14.408
40234W        W10115  31.079  15.681   0.422
40235W        W10116  38.897   3.256  11.981
40236W        W10117   1.822  31.623   1.307
40237W        W10118  41.875  24.231  11.583
40238W        W10119   2.821   2.849  13.432
40239W        W10120   6.739  38.438  10.940
40240W        W10121  12.660  26.064  13.433
40241W        W10122  24.071   7.347  11.995
40242W        W10123   0.781  11.227   4.711
40243W        W10124   1.952  22.091   3.761
40244W        W10125  44.000   3.948  11.975
40245W        W10126  37.833  10.368   3.176
40246W        W10127   3.415  23.206  10.563
40247W        W10128  11.716  24.981  10.903
40248W        W10129   7.229  34.509  11.493
40249W        W10130  11.854  28.164   0.935
40250W        W10131   6.911   8.864   2.726
40251W        W10132  20.045  27.125  13.031
40252W        W10133  32.611  13.721  14.434
40253W        W10134  32.553  30.599  13.054
40254W        W10135  12.315  24.576  11.531
40255W        W10136  38.489   8.300   1.776
40256W        W10137   4.792  22.561  11.027
40257W        W10138  12.714  36.407  11.106
40258W        W10139   5.252   5.333  14.450
40259W        W10140  30.436   6.264  12.972
40260W        W10141  15.172   4.407  11.606
40261W        W10142  38.949  16.290  11.962
40262W        W10143  28.670   8.277  10.964
40263W        W10144  11.656  41.022  10.994
40264W        W10145  27.526  27.137  10.494
40265W        W10146  29.096  32.057   2.200
40266W        W10147   8.293  40.481   0.926
40267W        W10148  18.651  29.113  14.459
40268W        W10149   2.897  41.459  13.009
40269W        W10150  38.501   2.906  13.316
40270W        W10151  10.265  17.750  14.337
40271W        W10152  23.158   5.211   4.156
40272W        W10153   1.254  10.201   4.821
40273W        W10154   2.843  42.840  13.443
40274W        W10155   2.861   1.255   4.782
40275W        W10156  14.175   3.251  13.351
40276W        W10157   4.789  10.652  12.556
40277W        W10158  40.947  41.932  12.832
40278W        W10159  33.968  29.632   1.278
40279W        W10160  30.942  40.915   4.237
40280W        W10161  28.633  17.715  12.514
40281W        W10162  18.688  27.164  14.351
40282W        W10163  28.542  25.970   4.604
40283W        W10164   7.249  38.481  13.873
40284W        W10165  10.802  21.740  13.523
40285W        W10166  23.648  23.020  11.100
40286W        W10167  33.615  24.035  11.950
40287W        W10168  19.758  33.899   0.957
40288W        W10169  29.090   9.797   4.633
40289W        W10170  18.610  28.672  12.925
40290W        W10171   4.798  43.804   0.824
40291W        W10172  20.735  26.954   2.888
40292W        W10173  20.721   2.297   5.121
40293W        W10174  28.615  20.760   4.202
40294W        W10175   2.333  42.437  13.395
40295W        W10176  18.600  17.268   0.846
40296W        W10177  21.035   0.831   2.413
40297W        W10178  26.581   8.835  11.100
40298W        W10179   8.239  40.359  11.607
40299W        W10180  25.120  23.735   3.676
40300W        W10181  38.363  31.450  10.905
40301W        W10182  38.462  33.912   0.751
40302W        W10183  12.225  25.182   4.783
40303W        W10184  43.817   6.359  13.853
40304W        W10185   6.765  27.653  13.993
40305W        W10186  16.258  30.951  14.299
40306W        W10187  10.268  29.630  12.835
40307W        W10188  24.702  32.547  10.502
40308W        W10189  28.501  37.462  13.929
40309W        W10190   8.828   3.431   0.829
40310W        W10191  29.939  23.044   3.678
40311W        W10192  31.022  19.231   4.717
40312W        W10193  40.988  22.670   0.409
40313W        W10194  14.264  43.956  14.824
40314W        W10195  34.937  14.303  12.503
40315W        W10196  11.232  27.173   0.325
40316W        W10197   2.234  19.196  13.416
40317W        W10198  38.491  19.703   1.403
40318W        W10199  31.634   3.743   0.824
40319W        W10200  23.179  43.995  14.500
40320W        W10201  37.396   8.889   0.404
40321W        W10202  39.829  32.589   4.210
40322W        W10203  38.930  34.022  12.575
40323W        W10204  36.550  26.998   4.609
40324W        W10205  29.042  40.931  12.482
40325W        W10206  26.609  24.037   1.832
40326W        W10207  26.533  25.708  11.526
40327W        W10208  13.319  35.566  14.808
40328W        W10209  29.530  14.665  11.556
40329W        W10210  31.606  21.210   1.337
40330W        W10211  13.668  27.143  11.449
40331W        W10212  18.267  21.575  13.012
40332W        W10213  40.463   1.262  13.403
40333W        W10214  21.666  31.953  14.776
40334W        W10215   2.265   7.175   0.275
40335W        W10216  19.609  16.597  12.946
40336W        W10217  16.210  24.481  14.024
40337W        W10218  19.152  25.489   1.695
40338W        W10219  22.671   5.328  11.977
40339W        W10220  10.244  25.574  12.576
40340W        W10221   9.718  28.478   2.289
40341W        W10222  36.070   7.802  13.416
40342W        W10223  32.894   8.302  11.526
40343W        W10224  39.528  13.627  12.404
40344W        W10225  25.571  26.665  10.523
40345W        W10226  17.072  15.150   4.743
40346W        W10227  27.580  26.000  10.039
40347W        W10228  44.993  28.495  11.127
40348W        W10229  16.297  12.841   3.337
40349W        W10230  28.046   4.721   4.136
40350W        W10231  43.347  39.933  10.919
40351W        W10232  42.004  14.191  12.359
40352W        W10233  20.117   0.927   0.833
40353W        W10234  42.813  21.552  10.488
40354W        W10235  42.521   3.917   3.731
40355W        W10236  23.158  38.403   2.391
40356W        W10237   2.463  37.458   3.813
40357W        W10238  23.641   4.304   4.818
40358W        W10239   4.370  14.152  14.799
40359W        W10240  33.536  19.592  14.909
40360W        W10241  25.675   8.845   3.780
40361W        W10242  42.810  17.774  11.855
40362W        W10243  43.002  18.676   5.111
40363W        W10244  38.508   7.814   2.792
40364W        W10245  17.071  18.584   1.878
40365W        W10246   1.332  44.428   4.129
40366W        W10247  22.620  41.466  13.998
40367W        W10248  42.302  24.198   1.430
40368W        W10249  12.203  29.950  11.916
40369W        W10250  39.984  16.588  13.480
40370W        W10251  17.226  24.203   1.822
40371W        W10252  20.598  27.160  13.546
40372W        W10253  38.370   1.933  13.796
40373W        W10254   6.712  28.547  14.793
40374W        W10255  41.359  32.623   3.172
40375W        W10256  35.053  26.165  11.492
40376W        W10257  37.955   9.850   1.869
40377W        W10258  25.493  39.013   3.684
40378W        W10259   2.368  24.490   4.734
40379W        W10260  35.370  27.546  11.482
40380W        W10261  11.751  36.368  13.510
40381W        W10262  13.717  35.933   9.998
40382W        W10263  18.244  32.395  13.348
40383W        W10264   0.796   4.935   1.359
40384W        W10265  17.621   7.788  14.297
40385W        W10266   1.369  22.684   4.194
40386W        W10267   1.298  26.042   2.311
40387W        W10268  23.166  43.820   3.724
40388W        W10269   9.243  40.432   3.774
40389W        W10270  38.932  21.755  13.857
40390W        W10271  17.147  33.387   4.722
40391W        W10272  31.436  39.052  14.285
40392W        W10273  41.942   9.728  10.985
40393W        W10274   5.813   8.399   3.330
40394W        W10275  32.536  12.272  11.978
40395W        W10276  40.483  17.280  12.912
40396W        W10277  14.588   6.874   1.243
40397W        W10278  33.437  29.070  14.923
40398W        W10279  33.472  36.001  14.958
40399W        W10280  18.614  35.575   2.666
40400W        W10281  28.636  39.481   3.789
40401W        W10282  30.528   3.400  13.357
40402W        W10283  20.219  26.677  10.423
40403W        W10284  32.937  36.529  14.469
40404W        W10285   6.339  22.547   2.396
40405W        W10286   9.259   3.948  12.417
40406W        W10287  22.022   5.319   0.292
40407W        W10288  33.894  12.700  13.839
40408W        W10289  22.012  15.716   2.406
40409W        W10290  20.762   4.707   1.772
40410W        W10291   1.251  33.019   0.924
40411W        W10292  21.675  29.920   1.878
40412W        W10293   9.795   2.891  10.405
40413W        W10294   9.345  43.457   4.776
40414W        W10295  40.531  19.255   4.763
40415W        W10296  29.927  16.676  14.849
40416W        W10297  26.511  44.290  14.832
40417W        W10298  43.017  13.249   1.914
40418W        W10299   6.744   9.256   3.631
40419W        W10300   6.382  42.884   2.226
40420W        W10301   5.354  24.683   1.878
40421W        W10302  13.308  32.032   3.689
40422W        W10303  33.519  10.791   2.206
40423W        W10304  22.169  23.167  13.864
40424W        W10305  34.024  34.465   3.835
40425W        W10306  41.366  11.264  12.857
40426W        W10307  19.737   3.383   3.694
40427W        W10308  40.302  42.364  14.441
40428W        W10309  21.227  31.949  13.987
40429W        W10310  31.538  36.438   3.793
40430W        W10311   7.342  36.412  11.436
40431W        W10312  28.558  30.454   2.220
40432W        W10313  41.020  26.635  14.917
40433W        W10314   1.348  35.040   2.182
40434W        W10315   5.222   3.327   4.729
40435W        W10316  24.169  27.474   2.288
40436W        W10317  23.588  43.820   2.802
40437W        W10318   4.295  37.867  13.442
40438W        W10319  14.608  39.494  14.885
40439W        W10320  43.846  23.021  11.950
40440W        W10321  33.398  11.228   4.631
40441W        W10322  10.707  24.035  10.005
40442W        W10323   0.747  29.618   9.955
40443W        W10324  15.194  12.832  13.399
40444W        W10325   3.235  28.592   2.230
40445W        W10326   1.861  28.088  14.762
40446W        W10327  29.490  17.727   4.754
40447W        W10328  28.484  25.080  11.070
40448W        W10329   3.747   0.954   2.861
40449W        W10330  24.705   6.781  12.871
40450W        W10331  35.533  41.961  13.378
40451W        W10332  43.892  44.453  10.100
40452W        W10333  27.673   0.927   2.757
40453W        W10334  42.787   3.330   3.207
40454W        W10335  14.246  36.500  15.000
40455W        W10336  42.939  37.433   2.688
40456W        W10337   5.710   4.849  13.834
40457W        W10338  20.089  13.173  11.486
40458W        W10339  37.511  24.220  11.423
40459W        W10340  26.593   5.929  12.431
40460W        W10341  30.647  27.507  14.274
40461W        W10342  23.192  42.909   1.797
40462W        W10343  30.450  34.567  14.875
40463W        W10344  30.079  27.019   2.338
40464W        W10345   7.409  30.996   3.183
40465W        W10346   4.393  39.431   0.474
40466W        W10347  35.045  35.020   3.293
40467W        W10348   7.324  37.352   1.303
40468W        W10349   4.835  11.841   3.863
40469W        W10350   9.167   1.424  11.987
40470W        W10351  13.214  38.980  11.937
40471W        W10352  28.504  10.695  14.943
40472W        W10353   8.236  41.813  14.499
40473W        W10354  11.319   7.349  14.925
40474W        W10355  34.096   7.276   1.859
40475W        W10356  21.694  17.704   2.731
40476W        W10357  11.658  35.860   4.726
40477W        W10358  20.272  38.860   4.681
40478W        W10359  25.148  38.821   4.834
40479W        W10360  31.908  13.177  13.879
40480W        W10361   4.704   5.356  13.795
40481W        W10362  34.057   7.820  11.951
40482W        W10363  23.117  13.626  12.513
40483W        W10364   4.221  20.201   1.797
40484W        W10365  21.541   7.713  11.929
40485W        W10366  40.825  12.836   4.175
40486W        W10367  33.431  44.361   0.247
40487W        W10368   0.827  19.174   4.778
40488W        W10369  27.011  18.638  14.515
40489W        W10370   3.389  17.198  12.527
40490W        W10371   4.883  33.390   1.846
40491W        W10372  28.094  40.912   0.280
40492W        W10373  19.559  29.604   3.294
40493W        W10374  35.874  29.014  13.823
40494W        W10375  19.230  14.815  14.358
40495W        W10376  17.711  18.651   2.772
40496W        W10377  27.540   6.768  14.791
40497W        W10378  44.761  31.554  11.009
40498W        W10379  17.154  10.206   0.362
40499W        W10380  15.779   9.652  11.489
40500W        W10381  19.742  43.350  14.826
40501W        W10382  19.077  35.528   0.757
40502W        W10383  25.113  31.532  14.798
40503W        W10384  37.366  37.503   0.751
40504W        W10385  34.557   9.783   2.715
40505W        W10386  34.606  35.959   1.723
40506W        W10387  17.215  37.475   3.858
40507W        W10388   9.302  26.500   9.997
40508W        W10389  32.465  26.004  10.464
40509W        W10390  10.781  10.879   0.845
40510W        W10391   1.274   5.910  14.841
40511W        W10392  17.134  14.274   2.274
40512W        W10393  18.267  24.166  12.906
40513W        W10394  16.600   1.849   3.722
40514W        W10395   8.719  22.189  11.123
40515W        W10396  39.889  18.684  10.458
40516W        W10397  39.025  30.529   2.316
40517W        W10398  15.670  13.610  11.090
40518W        W10399  40.343  38.500   3.195
40519W        W10400  25.511   2.929   4.809
40520W        W10401   6.239  35.016  10.566
40521W        W10402  41.369  13.291   4.823
40522W        W10403  42.370   7.774  14.496
40523W        W10404  35.855  24.193  12.507
40524W        W10405  38.908   5.814  10.974
40525W        W10406  41.303   1.861  14.818
40526W        W10407  18.129  18.225  11.966
40527W        W10408   3.290  10.359  12.984
40528W        W10409  26.041  36.936  11.124
40529W        W10410  24.087  18.675   2.265
40530W        W10411   4.767   8.679   1.323
40531W        W10412  15.140  28.649   1.935
40532W        W10413  26.693  22.575   1.254
40533W        W10414  16.280   9.851   4.659
40534W        W10415   5.699  37.466   1.290
40535W        W10416   1.870  28.062   1.742
40536W        W10417  20.663  27.582  13.796
40537W        W10418  20.751  38.453   3.709
40538W        W10419  35.891  44.859   1.451
40539W        W10420  42.981  10.209   4.656
40540W        W10421  22.076   8.368  14.001
40541W        W10422  44.823  38.419   1.794
40542W        W10423   2.292   2.764   1.314
40543W        W10424  42.879  24.208  11.576
40544W        W10425   8.388  18.628  13.061
40545W        W10426   6.782   0.950   0.275
40546W        W10427   8.668  40.844  12.580
40547W        W10428  20.257  22.588   0.330
40548W        W10429  16.665  33.615  10.482
40549W        W10430  19.690  26.079   2.215
40550W        W10431   6.345  25.156   3.631
40551W        W10432  22.140  38.531  12.497
40552W        W10433  11.199  31.413   4.679
40553W        W10434   2.892  34.386   1.447
40554W        W10435   7.888  13.216  14.990
40555W        W10436  12.786  34.985   3.761
40556W        W10437  28.591  30.920  12.437
40557W        W10438   6.197  42.440   4.660
40558W        W10439  44.914  42.911   1.425
40559W        W10440  34.939  29.616  11.961
40560W        W10441   5.848  37.568  14.450
40561W        W10442  22.083  27.463  13.054
40562W        W10443  27.673   0.797   0.957
40563W        W10444   4.386   5.921  14.470
40564W        W10445  41.906  26.482   1.841
40565W        W10446  33.938   7.753  10.633
40566W        W10447   8.811  33.881  12.986
40567W        W10448  15.686  26.984  12.932
40568W        W10449   6.207  36.425  13.422
40569W        W10450  41.338  12.781   3.651
40570W        W10451   4.799   2.824   4.735
40571W        W10452  40.315  30.428   2.354
40572W        W10453  29.467  27.494   0.806
40573W        W10454  31.919   8.728  13.535
40574W        W10455   1.883  16.574   0.758
40575W        W10456  41.804  33.095   2.272
40576W        W10457  12.677  18.775   1.339
40577W        W10458  42.777  41.938   4.622
40578W        W10459  11.726  17.092   5.121
40579W        W10460  10.151  44.307   3.230
40580W        W10461  19.572   8.855   4.176
40581W        W10462  28.987  23.220  14.871
40582W        W10463  34.886  21.748   1.228
40583W        W10464   2.242  25.488   4.201
40584W        W10465   8.312  11.177  13.848
40585W        W10466  19.641  44.990   0.403
40586W        W10467   3.276  11.269   1.416
40587W        W10468  29.558   3.281   0.391
40588W        W10469  28.488  37.921   3.844
40589W        W10470   4.419  42.333   4.222
40590W        W10471  17.122   9.860   2.388
40591W        W10472  22.117   1.297   3.753
40592W        W10473   8.379   0.294   2.295
40593W        W10474  14.153  36.979  14.897
40594W        W10475  10.370  15.280  12.008
40595W        W10476  28.106  17.749   4.779
40596W        W10477  15.102  13.249  10.444
40597W        W10478  24.690  39.463  10.410
40598W        W10479   4.343  32.111  12.468
40599W        W10480   0.489  27.023   4.127
40600W        W10481   2.359  29.539   4.170
40601W        W10482  31.991   0.843  12.040
40602W        W10483  16.653   4.769  13.032
40603W        W10484  22.107  18.659  14.933
40604W        W10485  25.220  31.145  12.534
40605W        W10486   1.851   1.274  14.895
40606W        W10487  23.726  33.896   3.153
40607W        W10488  33.981  10.303  12.521
40608W        W10489  42.384   4.313  14.394
40609W        W10490  44.006  43.490   4.615
40610W        W10491  32.593   5.387  14.845
40611W        W10492  13.710  42.817  12.061
40612W        W10493   8.167  44.786  12.374
40613W        W10494  14.330  13.158  14.338
40614W        W10495  17.109   2.386   4.133
40615W        W10496  12.292  25.562   3.780
40616W        W10497  11.861  34.962  11.093
40617W        W10498  44.356  44.339   1.694
40618W        W10499   3.799   6.416  12.407
40619W        W10500  23.722  42.968   4.613
40620W        W10501  29.018  35.461   1.813
40621W        W10502  29.015  37.012  12.376
40622W        W10503  36.843  40.367   0.245
40623W        W10504  14.761  14.727   2.412
40624W        W10505  26.129  42.511  13.834
40625W        W10506  15.629  19.269  14.007
40626W        W10507   2.266  23.577   2.877
40627W        W10508  29.943  24.129   1.434
40628W        W10509   1.407  14.285   0.268
40629W        W10510  27.662  13.602  11.406
40630W        W10511  23.722   1.909   3.180
40631W        W10512  40.896   7.803   4.210
40632W        W10513  17.623  32.898   3.731
40633W        W10514  25.714  34.577   1.824
40634W        W10515   1.366   1.796   0.247
40635W        W10516  24.170  37.854  11.903
40636W        W10517  13.232  30.538  11.068
40637W        W10518  43.805  28.540  13.941
40638W        W10519   7.375   2.238   5.094
40639W        W10520  23.561  41.481  12.432
40640W        W10521  18.569  28.567   3.202
40641W        W10522   9.853  20.728  10.457
40642W        W10523  43.924  35.444   4.190
40643W        W10524  32.608  10.151  14.453
40644W        W10525  19.213  26.496  12.965
40645W        W10526  16.114  25.561   2.387
40646W        W10527   7.760   4.933  10.484
40647W        W10528  44.493   8.722  14.475
40648W        W10529  19.043  21.110  10.969
40649W        W10530   8.780  28.623  11.008
40650W        W10531  18.078  21.155  13.891
40651W        W10532  22.597   6.385  10.550
40652W        W10533  28.597  14.226   2.361
40653W        W10534  40.328  35.443   4.277
40654W        W10535  44.915  40.824   2.180
40655W        W10536   9.672  28.949   1.740
40656W        W10537  36.422  17.157   4.692
40657W        W10538  40.875  26.030  12.891
40658W        W10539  22.667  39.552   2.325
40659W        W10540  27.136  15.588  11.586
40660W        W10541  28.615  22.684   1.729
40661W        W10542  30.455  12.275   3.290
40662W        W10543  20.596   2.951   0.878
40663W        W10544   4.203  16.297   2.883
40664W        W10545   8.362  22.225   0.844
40665W        W10546  43.798  35.934  14.914
40666W        W10547  25.125   8.321  11.464
40667W        W10548  28.670   5.753  12.483
40668W        W10549  10.733  29.065   9.956
40669W        W10550  29.006   6.221  11.946
40670W        W10551  42.886   1.282  12.533
40671W        W10552  13.233  34.046  13.495
40672W        W10553   2.349  32.115  12.403
40673W        W10554  32.532  13.300   2.733
40674W        W10555  24.057  18.789   5.682
40675W        W10556   8.847  41.946   4.239
40676W        W10557  38.036  14.719   0.773
40677W        W10558  24.103   8.289   2.844
40678W        W10559  25.008  17.609   3.799
40679W        W10560  41.490  30.630   3.648
40680W        W10561   9.389  39.989  13.875
40681W        W10562  15.815  15.294  10.456
40682W        W10563  21.230  28.101  12.523
40683W        W10564  23.641  42.895   1.420
40684W        W10565  43.810  25.150  14.903
40685W        W10566  28.066  17.277  11.100
40686W        W10567  30.640   6.880   1.376
40687W        W10568  24.022  35.382   4.820
40688W        W10569  34.874  10.808   1.702
40689W        W10570   5.203  41.385  13.852
40690W        W10571  13.825   9.866   2.365
40691W        W10572  13.180  10.772  13.981
40692W        W10573  25.613  15.187  12.971
40693W        W10574  39.482  28.662   2.810
40694W        W10575  21.262  19.081  11.559
40695W        W10576  22.244  11.196  10.916
40696W        W10577   4.330  11.626   1.296
40697W        W10578  35.566   0.296  13.445
40698W        W10579  35.971  19.049  14.017
40699W        W10580  43.343  18.624   3.659
40700W        W10581  34.911  11.294  13.001
40701W        W10582   4.355  10.347   2.825
40702W        W10583  37.888  16.291   3.332
40703W        W10584  29.519  32.094  14.358
40704W        W10585  12.780  14.119   3.294
40705W        W10586  14.785   8.803   2.404
40706W        W10587  36.966  18.626  12.475
40707W        W10588  33.878  20.678  14.800
40708W        W10589  26.193  17.066   3.363
40709W        W10590  16.270  31.013  12.409
40710W        W10591  23.586  22.007   2.304
40711W        W10592   5.923  43.360   1.244
40712W        W10593  13.198   5.752   3.247
40713W        W10594  35.962  31.975  12.974
40714W        W10595  22.154   3.932  12.016
40715W        W10596  19.229  33.575  11.503
40716W        W10597   5.366  25.148   3.156
40717W        W10598  33.014   7.823  12.394
40718W        W10599  44.854  38.340  13.848
40719W        W10600  36.908  35.049   2.374
40720W        W10601  39.891   8.382  12.506
40721W        W10602  14.662  10.760  14.961
40722W        W10603  16.727  23.663   3.830
40723W        W10604  11.657  33.051   4.790
40724W        W10605  23.137  43.885   1.819
40725W        W10606  20.744  41.911  14.297
40726W        W10607  25.054  28.974  12.429
40727W        W10608  15.291  41.881  10.556
40728W        W10609  22.041   4.278  10.515
40729W        W10610  13.621  16.114  14.335
40730W        W10611  11.340   9.239   0.958
40731W        W10612  18.287   7.754  12.542
40732W        W10613  34.103  32.503  13.934
40733W        W10614  12.710  10.369   1.246
40734W        W10615  36.029  28.010   4.288
40735W        W10616   8.776  32.073  13.925
40736W        W10617  25.569   0.251   2.345
40737W        W10618  38.947  39.846   2.383
40738W        W10619  22.043  23.105   1.865
40739W        W10620  22.680  17.686   4.687
40740W        W10621   0.356  14.303   2.276
40741W        W10622  11.177   1.883  11.015
40742W        W10623  20.175  34.970  12.558
40743W        W10624   4.858  33.903   4.621
40744W        W10625  32.564  12.835   0.294
40745W        W10626   1.476  13.603  12.829
40746W        W10627   5.235  22.541  14.423
40747W        W10628  21.567  10.257  11.495
40748W        W10629   3.803  25.072   0.930
40749W        W10630  38.870  39.876   0.801
40750W        W10631  23.585  16.305  13.940
40751W        W10632  30.637  43.004  13.991
40752W        W10633  28.056  40.441  14.422
40753W        W10634  19.044  41.902  10.537
40754W        W10635  18.289  21.514   0.347
40755W        W10636  23.016   2.379   4.654
40756W        W10637   5.328   4.785   3.157
40757W        W10638  25.178  13.194   2.668
40758W        W10639  10.702   1.450   1.796
40759W        W10640  13.680  26.043  13.994
40760W        W10641  29.963   3.880  13.022
40761W        W10642  10.320  43.995   2.316
40762W        W10643  14.823  39.873  10.484
40763W        W10644  28.508  27.013   4.613
40764W        W10645  11.748  44.779   0.456
40765W        W10646  26.987  20.549  13.469
40766W        W10647  42.823  29.648   5.116
40767W        W10648  13.228   6.714  14.382
40768W        W10649  11.712   5.212  13.328
40769W        W10650   9.660  38.358  14.337
40770W        W10651  40.541   2.427  10.408
40771W        W10652   3.454  22.997   3.790
40772W        W10653  37.921  42.483   1.324
40773W        W10654  32.541  36.980  14.903
40774W        W10655   9.182   1.817   5.140
40775W        W10656  35.011   0.286  11.606
40776W        W10657   6.349  25.474   2.739
40777W        W10658   4.781  16.716  14.916
40778W        W10659  31.546  16.760   1.887
40779W        W10660   2.804   4.712  11.440
40780W        W10661   7.885  38.478  12.059
40781W        W10662  36.055  18.094  14.445
40782W        W10663  25.011  29.114  11.502
40783W        W10664   6.195  16.102  12.410
40784W        W10665  15.708  18.107   0.840
40785W        W10666  21.544  12.696   2.844
40786W        W10667   0.485  24.030  13.840
40787W        W10668   8.406  28.975  14.820
40788W        W10669  16.666  42.910   3.339
40789W        W10670  32.033  30.124  14.459
40790W        W10671  33.441  12.678   1.279
40791W        W10672   3.954  18.108   4.628
40792W        W10673  16.226  22.744  12.929
40793W        W10674  43.791  38.899   4.127
40794W        W10675  37.394  33.043   1.324
40795W        W10676  32.569  14.764  14.512
40796W        W10677  12.831  21.631  11.591
40797W        W10678  15.794   5.315   0.823
40798W        W10679  28.043  35.480   3.731
40799W        W10680  21.603  26.123  13.431
40800W        W10681   6.677  43.293  11.108
40801W        W10682  22.246  15.318  12.556
40802W        W10683  30.139  43.011  10.981
40803W        W10684  43.874  18.637  13.883
40804W        W10685  18.268  14.113   1.383
40805W        W10686  31.070   6.228   2.294
40806W        W10687  19.159  32.939  13.873
40807W        W10688  12.218  26.063  14.403
40808W        W10689  39.409  43.904  10.558
40809W        W10690  41.499   7.361  11.128
40810W        W10691  34.574  31.008   0.300
40811W        W10692  43.965   3.882   3.639
40812W        W10693  20.721  14.233   1.446
40813W        W10694   6.845   8.222  11.508
40814W        W10695   2.434  20.130  14.404
40815W        W10696   7.177  26.171   4.728
40816W        W10697   9.160  28.020   0.835
40817W        W10698   6.862  35.086  11.923
40818W        W10699  21.601  20.066  10.920
40819W        W10700   8.885  21.519   2.819
40820W        W10701  34.027  35.592  12.339
40821W        W10702   1.366  21.711  13.547
40822W        W10703  12.848  35.458  14.316
40823W        W10704  26.567  11.737   5.292
40824W        W10705  26.662   2.376   2.868
40825W        W10706   1.885  27.581  14.496
40826W        W10707   1.345  19.737   4.113
40827W        W10708   9.379  24.038  14.459
40828W        W10709   4.852  18.722   2.209
40829W        W10710   3.854  10.215   4.143
40830W        W10711  15.275  10.343  10.575
40831W        W10712  31.578  21.662  14.869
40832W        W10713  21.251  12.776  14.309
40833W        W10714   7.806  40.016   1.771
40834W        W10715  42.974  12.700  12.874
40835W        W10716  21.180  13.280   0.862
40836W        W10717  11.862  19.671   0.862
40837W        W10718  14.650  22.695   4.286
40838W        W10719   7.855  42.347   0.292
40839W        W10720  30.604  14.249   2.746
40840W        W10721  29.971   8.869  10.504
40841W        W10722  33.943  41.517  12.033
40842W        W10723   7.755  24.159  12.483
40843W        W10724   7.231  11.632   2.696
40844W        W10725  22.224  25.478  12.928
40845W        W10726  11.157  33.001  11.509
40846W        W10727  31.604  29.656  14.281
40847W        W10728  28.005  17.654  10.488
40848W        W10729   5.309  26.951   0.871
40849W        W10730  33.883  26.513   1.779
40850W        W10731  33.923   7.355   0.806
40851W        W10732  15.739  30.999  10.910
40852W        W10733  15.721  41.941   2.796
40853W        W10734  44.796  21.714  13.419
40854W        W10735  16.150  26.595   2.379
40855W        W10736  34.576  18.684  11.028
40856W        W10737  34.910  39.971  12.902
40857W        W10738  12.177  32.427  11.018
40858W        W10739   1.861  44.964  10.600
40859W        W10740  36.382  34.592  11.417
40860W        W10741  30.088  43.493   1.443
40861W        W10742  40.384  27.469  13.929
40862W        W10743  44.360  19.567  13.840
40863W        W10744  25.482  35.525  10.641
40864W        W10745  37.546  39.927  11.072
40865W        W10746  30.938   1.377  11.023
40866W        W10747  43.423  23.147   3.868
40867W        W10748  36.885  36.401   3.804
40868W        W10749  16.732  20.205   3.181
40869W        W10750  42.003   7.778   4.651
40870W        W10751  41.343  36.430   0.785
40871W        W10752  33.474   1.912  11.538
40872W        W10753  36.005  26.481  12.553
40873W        W10754  40.035  10.269   1.314
40874W        W10755  44.766   6.347   4.757
40875W        W10756   5.262  13.302  14.360
40876W        W10757   5.422  34.082  14.449
40877W        W10758  38.830   8.374  13.999
40878W        W10759  28.031  13.752  11.996
40879W        W10760  29.560  22.113   1.418
40880W        W10761  16.694  35.933   1.766
40881W        W10762  11.279  26.538   3.669
40882W        W10763  42.026  11.344   1.402
40883W        W10764  11.789  11.678  10.612
40884W        W10765  20.126  29.615   3.341
40885W        W10766   8.373  24.492  12.881
40886W        W10767  35.574   4.702   1.286
40887W        W10768  23.729   0.893  11.602
40888W        W10769  25.648  34.462  11.032
40889W        W10770  13.822  31.522  10.633
40890W        W10771  38.982  19.135   4.827
40891W        W10772  12.321   0.956   0.730
40892W        W10773   6.821  33.489  13.829
40893W        W10774   1.448  20.124  13.008
40894W        W10775   7.184   3.941  14.918
40895W        W10776  11.279  28.443   0.438
40896W        W10777  20.047  11.245   4.663
40897W        W10778  34.413  41.446   3.357
40898W        W10779  43.019  20.663  14.028
40899W        W10780   0.299  43.899   2.711
40900W        W10781   5.257   0.815   4.330
40901W        W10782  42.966  17.175   2.181
40902W        W10783  40.333   9.390   2.668
40903W        W10784  36.878  40.874  11.610
40904W        W10785   5.725  12.357  13.998
40905W        W10786  36.098   1.737   2.365
40906W        W10787  13.106  24.630   2.901
40907W        W10788  20.089  27.172  14.378
40908W        W10789  11.278  42.928  14.917
40909W        W10790   4.325  17.292  14.784
40910W        W10791  42.944   9.843   4.286
40911W        W10792   2.417  18.784  14.403
40912W        W10793  32.994  44.268  12.890
40913W        W10794   4.312  18.667   4.300
40914W        W10795   8.299  31.597  11.039
40915W        W10796   4.417  23.663  11.556
40916W        W10797  11.626  33.902  11.578
40917W        W10798   0.444  31.996   1.919
40918W        W10799  37.581   7.286   2.748
40919W        W10800  34.980  18.089  12.343
40920W        W10801  19.754  28.966   3.769
40921W        W10802   2.800  31.467   3.742
40922W        W10803  22.154   1.974  13.848
40923W        W10804  21.657  31.989   2.302
40924W        W10805   0.315  16.746   3.232
40925W        W10806  27.136  32.488   4.773
40926W        W10807  14.176  33.921  13.491
40927W        W10808  35.042  28.940  12.959
40928W        W10809  43.800  31.549  10.914
40929W        W10810  16.097  40.901   2.350
40930W        W10811  39.451  42.776   4.829
40931W        W10812   0.979  13.612  13.961
40932W        W10813   5.715  28.652   4.644
40933W        W10814  29.013  21.187  10.599
40934W        W10815  39.953   9.704  14.365
40935W        W10816  36.092  20.139   3.290
40936W        W10817  42.001  31.109   0.286
40937W        W10818  17.193  20.034   2.305
40938W        W10819   2.833  21.110  12.554
40939W        W10820  24.110   0.294   2.857
40940W        W10821  26.499  14.116   0.886
40941W        W10822  33.556  10.273  12.008
40942W        W10823  16.242  12.731  13.325
40943W        W10824  13.653   2.227  11.079
40944W        W10825  10.188  10.816   3.822
40945W        W10826  25.048  36.449  11.103
40946W        W10827  41.844  42.812   4.793
40947W        W10828  31.590   6.302   1.214
40948W        W10829  14.601   5.910  11.027
40949W        W10830  43.769  33.450  14.483
40950W        W10831  40.532  11.654  10.522
40951W        W10832  11.196   2.902   3.857
40952W        W10833  40.431  22.068   4.830
40953W        W10834  14.145   2.864  12.933
40954W        W10835  41.853  15.726  12.827
40955W        W10836  19.709  38.902   2.234
40956W        W10837  33.554  43.855   3.333
40957W        W10838  26.004  35.568  12.497
40958W        W10839  33.877  30.129   3.189
40959W        W10840  43.007  17.699   2.329
40960W        W10841  36.476  21.252   4.336
40961W        W10842  12.714  20.682  11.858
40962W        W10843  31.037  31.075  13.015
40963W        W10844  11.757  33.031   0.961
40964W        W10845  11.784  29.049  11.953
40965W        W10846  27.623   3.406   3.719
40966W        W10847   3.750  24.140  13.028
40967W        W10848  24.485  20.675   4.705
40968W        W10849   0.907  39.346   2.210
40969W        W10850  31.097  10.223   2.667
40970W        W10851  37.499  42.377   2.837
40971W        W10852  10.248  37.554   3.234
40972W        W10853   2.299  37.979  10.472
40973W        W10854   4.807  24.159   0.789
40974W        W10855  17.215  17.253  10.553
40975W        W10856   6.209   6.859  14.782
40976W        W10857  12.223  10.857   2.818
40977W        W10858  22.142  21.524   3.630
40978W        W10859  11.720   5.846   4.728
40979W        W10860   2.880   3.324   4.184
40980W        W10861   6.367  17.227   4.828
40981W        W10862  35.021  30.633  14.491
40982W        W10863   1.762  42.916  10.160
40983W        W10864   6.425   5.307  14.867
40984W        W10865  23.204  39.400   4.623
40985W        W10866   6.293  31.983   4.349
40986W        W10867   5.221  25.162   1.263
40987W        W10868   7.764  13.166  12.964
40988W        W10869  31.021  13.248  14.508
40989W        W10870  35.989  42.982   3.831
40990W        W10871   9.383  33.977   1.297
40991W        W10872   2.820   8.326   0.930
40992W        W10873  28.062  14.740  14.377
40993W        W10874  27.615  33.589  12.391
40994W        W10875  40.503   1.384  14.000
40995W        W10876  14.668  30.051  13.921
40996W        W10877   2.344  31.632  10.626
40997W        W10878   5.378  43.326   1.888
40998W        W10879   4.804  12.207  10.967
40999W        W10880  28.180  15.671   0.848
41000W        W10881  18.688  31.530  14.388
41001W        W10882  17.757  31.451  11.108
41002W        W10883  30.524  12.840   1.252
41003W        W10884  44.299  42.317  10.498
41004W        W10885  30.110   4.791  12.860
41005W        W10886  44.982  17.084  14.381
41006W        W10887  12.773   3.899   0.434
41007W        W10888  15.129  40.940  12.022
41008W        W10889  11.764   5.914   2.683
41009W        W10890  19.246  30.152   2.285
41010W        W10891  24.713  13.624  10.500
41011W        W10892   5.699  37.032   0.308
41012W        W10893  35.986  21.162  13.349
41013W        W10894  13.653   6.789  13.997
41014W        W10895   7.280  38.040  12.951
41015W        W10896  12.295  23.640  13.998
41016W        W10897  38.957   2.942   1.786
41017W        W10898  15.784  24.676  13.951
41018W        W10899  14.673   3.714  14.892
41019W        W10900  41.297  32.415  12.917
41020W        W10901   0.350  36.390  14.449
41021W        W10902  36.947   4.732   4.292
41022W        W10903  18.622  11.175  10.433
41023W        W10904  42.488  13.661  13.480
41024W        W10905   6.748  12.186   0.917
41025W        W10906  34.517  37.844  11.989
41026W        W10907  30.531  27.574  13.008
41027W        W10908  28.112   9.838   1.919
41028W        W10909  44.404  34.416   2.296
41029W        W10910  42.985  30.639   1.697
41030W        W10911  23.208  30.931   4.831
41031W        W10912  18.547  44.359  10.126
41032W        W10913  23.499  10.187   2.727
41033W        W10914  21.597   1.239  10.897
41034W        W10915  44.362  11.659  14.960
41035W        W10916  15.266  26.511   4.131
41036W        W10917   4.825  26.100  14.311
41037W        W10918   0.854  25.043  11.057
41038W        W10919  10.181  44.404  12.539
41039W        W10920  11.759  33.533   3.726
41040W        W10921  32.051  29.121  10.509
41041W        W10922  12.329   3.409   0.768
41042W        W10923  17.576  18.112   2.289
41043W        W10924  15.775   9.801  12.550
41044W        W10925  22.061   8.311   4.831
41045W        W10926  27.534   1.479   3.315
41046W        W10927  16.617  36.463   4.193
41047W        W10928   5.429  35.902  10.521
41048W        W10929   3.391  15.637   4.805
41049W        W10930  11.852  38.423  11.081
41050W        W10931  15.608  10.360  14.364
41051W        W10932  38.447  15.109  10.573
41052W        W10933  29.667  25.713  10.039
41053W        W10934   2.934   8.851  10.573
41054W        W10935  35.562  21.565   0.829
41055W        W10936  36.934   3.762  11.081
41056W        W10937   6.786  25.641   3.670
41057W        W10938   6.706   2.286   2.874
41058W        W10939  41.894  17.089   2.817
41059W        W10940  31.019   7.271   2.340
41060W        W10941  22.088   2.941  11.097
41061W        W10942  44.810  16.183   4.234
41062W        W10943   1.841  26.133   1.310
41063W        W10944  14.106  38.966   3.191
41064W        W10945  17.129   6.405   2.706
41065W        W10946  34.970  30.097   0.838
41066W        W10947  30.103  15.757  13.524
41067W        W10948  37.343  23.547  14.887
41068W        W10949  28.150  34.081   0.823
41069W        W10950  38.029  30.945   3.258
41070W        W10951  11.798  25.567   2.812
41071W        W10952  28.639  24.553   4.350
41072W        W10953  31.054   4.284   0.447
41073W        W10954   5.427  23.043  13.993
41074W        W10955  33.401  31.078  13.533
41075W        W10956  40.965  29.134   1.349
41076W        W10957  40.884  33.606   3.169
41077W        W10958  11.291  21.558   0.953
41078W        W10959  24.617  34.414  11.456
41079W        W10960  42.843  33.422  13.430
41080W        W10961  30.022  20.528  11.008
41081W        W10962   3.228  18.072  14.354
41082W        W10963  20.226   5.416  14.010
41083W        W10964   9.281   0.859   3.302
41084W        W10965   8.333  44.888  11.123
41085W        W10966  37.459  16.659   4.646
41086W        W10967  26.108  39.340   4.835
41087W        W10968  31.139  19.274  10.909
41088W        W10969  20.575  35.467   3.723
41089W        W10970   7.185  31.073  13.978
41090W        W10971  13.832  33.560  11.079
41091W        W10972  26.059   3.888  10.589
41092W        W10973  15.669  11.633   3.785
41093W        W10974  10.286  19.041  10.916
41094W        W10975  11.358  40.993   4.353
41095W        W10976   0.770  25.631   1.363
41096W        W10977  17.105  41.490  14.442
41097W        W10978  38.893  37.881   1.719
41098W        W10979  24.135  42.002   1.799
41099W        W10980   2.444   8.292  12.569
41100W        W10981  42.968  42.327   3.320
41101W        W10982  32.549  25.151   2.801
41102W        W10983   4.382  19.744  13.896
41103W        W10984   1.763  38.019   1.273
41104W        W10985   7.383  35.977   1.219
41105W        W10986  23.665  36.408  11.071
41106W        W10987  33.450  17.124  13.006
41107W        W10988  17.146  24.182  14.023
41108W        W10989   1.921  26.551   0.313
41109W        W10990  12.187  21.046  13.473
41110W        W10991  16.099  36.860  10.925
41111W        W10992  19.747  14.711   4.344
41112W        W10993  32.448  31.941   4.336
41113W        W10994  18.241   9.829   3.230
41114W        W10995  18.279  29.458  14.920
41115W        W10996   9.331  30.970  14.838
41116W        W10997  41.437   0.961  12.439
41117W        W10998   6.889  41.817  13.457
41118W        W10999  27.976  30.485   0.762
41119W        W11000  38.855  20.676  12.949
41120W        W11001   7.908  30.557   2.299
41121W        W11002  21.741  10.340  14.968
41122W        W11003  21.567  19.274  12.357
41123W        W11004  11.658  29.426  14.342
41124W        W11005  17.137  34.459  13.028
41125W        W11006   3.801   5.709   3.832
41126W        W11007   3.247  25.528   2.827
41127W        W11008  17.614  12.675   3.161
41128W        W11009  17.191   7.817  11.998
41129W        W11010  32.986  18.058   3.192
41130W        W11011  38.936   7.679  14.487
41131W        W11012  17.680  29.979   3.218
41132W        W11013  34.061   4.418  13.477
41133W        W11014  19.253  24.129   3.152
41134W        W11015   1.479  16.745  14.511
41135W        W11016   1.798  13.637  14.984
41136W        W11017  30.529  21.069  11.909
41137W        W11018  13.303  12.312   2.231
41138W        W11019  13.697  41.994  14.986
41139W        W11020   3.915  12.296   2.306
41140W        W11021   2.388  18.133  14.503
41141W        W11022  31.611   9.242  11.469
41142W        W11023  17.270  14.660  11.925
41143W        W11024  34.444  39.498   3.763
41144W        W11025  43.507  29.587   3.241
41145W        W11026  32.137  29.483   2.752
41146W        W11027  39.889  25.035  14.805
41147W        W11028   5.749  10.258  12.373
41148W        W11029  13.177   8.366   4.169
41149W        W11030  42.897  30.114   1.750
41150W        W11031  28.442  26.148   5.196
41151W        W11032   2.874   5.887   4.271
41152W        W11033  11.664  15.233   3.697
41153W        W11034   5.756  31.536   3.252
41154W        W11035   9.340  14.223  13.360
41155W        W11036  40.369  13.202  14.904
41156W        W11037   4.784  12.218   1.385
41157W        W11038   4.432  17.174   3.769
41158W        W11039   5.891  15.191   2.206
41159W        W11040  42.345  38.340  11.068
41160W        W11041   2.941   8.341   4.163
41161W        W11042   2.345  37.916   4.299
41162W        W11043  42.283  21.247  12.493
41163W        W11044   9.827  23.190   1.900
41164W        W11045  10.724  28.152  11.025
41165W        W11046  44.344  16.570  12.860
41166W        W11047  37.520  24.505   0.276
41167W        W11048  29.523  33.538   1.803
41168W        W11049  38.892  13.728   2.743
41169W        W11050  26.973  43.845   2.708
41170W        W11051  19.730  28.947  10.160
41171W        W11052   3.344   0.939  12.462
41172W        W11053  26.205   6.385   1.731
41173W        W11054   6.232  21.670   3.362
41174W        W11055   7.412  12.849  14.020
41175W        W11056   9.681  35.379  12.012
41176W        W11057   6.748   3.914  12.379
41177W        W11058  42.465  19.766   4.730
41178W        W11059   4.239  21.229  10.635
41179W        W11060  19.098  23.602  12.441
41180W        W11061   5.808  32.537  10.948
41181W        W11062  23.661   5.910   3.220
41182W        W11063  20.245  12.278   3.686
41183W        W11064   0.385   6.417   0.841
41184W        W11065   1.312  27.010  14.452
41185W        W11066  23.219   5.845  10.569
41186W        W11067  43.326  12.683  10.924
41187W        W11068  29.513  22.202   2.231
41188W        W11069   1.419  12.288   3.224
41189W        W11070  25.632  31.481  10.969
41190W        W11071  42.026  28.149   4.278
41191W        W11072  36.449  21.690  12.865
41192W        W11073   1.783   4.267   0.472
41193W        W11074  10.754  15.247   1.725
41194W        W11075  44.868  17.658   3.290
41195W        W11076   9.815   9.296   3.264
41196W        W11077  40.414  23.545   4.143
41197W        W11078  10.764  38.824  13.941
41198W        W11079  28.081  43.340  11.455
41199W        W11080  14.689  37.405  12.402
41200W        W11081  20.204  29.920   5.172
41201W        W11082  15.779  33.453   1.388
41202W        W11083   9.317  18.093   3.834
41203W        W11084  13.241   1.374   3.644
41204W        W11085  36.848  17.662  12.863
41205W        W11086   2.464  42.311  10.921
41206W        W11087  23.082   2.247   0.262
41207W        W11088  19.209  11.739   0.921
41208W        W11089  28.969  10.865   4.284
41209W        W11090  35.932  31.562  10.965
41210W        W11091  30.908   2.468  12.958
41211W        W11092  25.515   8.764  10.913
41212W        W11093  19.051  27.159   4.634
41213W        W11094  44.984  14.161  14.399
41214W        W11095  43.940  29.460  14.983
41215W        W11096  23.635  15.741  12.527
41216W        W11097   7.730  43.816   1.428
41217W        W11098  23.577  34.043  13.005
41218W        W11099  19.578   6.427  11.866
41219W        W11100  19.188   3.344  11.880
41220W        W11101   0.813  35.570   4.346
41221W        W11102  28.530  39.502  14.513
41222W        W11103  38.476  42.962  10.411
41223W        W11104  13.784  41.026  11.905
41224W        W11105  18.250  23.670   2.280
41225W        W11106  38.426   7.303  14.424
41226W        W11107  13.178  38.498   3.734
41227W        W11108  44.796  36.451  12.015
41228W        W11109   1.297   9.680   2.901
41229W        W11110  30.160  28.969  13.853
41230W        W11111  38.404  21.692   3.284
41231W        W11112   7.402  17.094  10.567
41232W        W11113  35.594  28.986   2.687
41233W        W11114   4.234  42.462  11.578
41234W        W11115  34.547   5.262  10.566
41235W        W11116   7.675  24.507   2.826
41236W        W11117  23.710  29.995  13.505
41237W        W11118  13.801  44.968   4.612
41238W        W11119   9.207  14.206   5.244
41239W        W11120  13.699   7.746   3.358
41240W        W11121  35.396   6.255   4.265
41241W        W11122  38.992  24.137   2.359
41242W        W11123   7.836  18.750   4.254
41243W        W11124   2.253  27.125  10.480
41244W        W11125  17.589   6.250  10.467
41245W        W11126  43.926  25.559  13.392
41246W        W11127  21.038  27.672   2.410
41247W        W11128  38.343   0.868   1.449
41248W        W11129  37.017  11.739  12.460
41249W        W11130  43.973  22.014   2.797
41250W        W11131  42.362  11.288   4.664
41251W        W11132  42.312  36.357   1.417
41252W        W11133  30.509  43.806   3.757
41253W        W11134  14.632   9.176   3.323
41254W        W11135   2.366  25.669  10.416
41255W        W11136  23.605   1.816  12.341
41256W        W11137  14.252  36.357   4.670
41257W        W11138  26.082  21.660  12.979
41258W        W11139  24.206  33.385  14.839
41259W        W11140  15.113  11.325   4.614
41260W        W11141  38.901  22.553   4.157
41261W        W11142  18.284  18.644  10.529
41262W        W11143  13.152  44.942  12.426
41263W        W11144  27.481  43.308   4.598
41264W        W11145  19.744  40.315   2.823
41265W        W11146  10.671  39.027  14.402
41266W        W11147   8.188  11.222   0.728
41267W        W11148  28.667  21.709   3.853
41268W        W11149   3.902  38.996   2.344
41269W        W11150  14.765  41.297  14.383
41270W        W11151  29.667  27.592  11.504
41271W        W11152  39.971  42.447  14.302
41272W        W11153  35.926  11.137  13.486
41273W        W11154   5.889  38.903  14.970
41274W        W11155  14.730  19.161   1.932
41275W        W11156  29.988  12.118   2.233
41276W        W11157   3.315   1.926   2.276
41277W        W11158   4.795  32.565   1.701
41278W        W11159   9.694  11.131  13.545
41279W        W11160  43.804   1.325   2.300
41280W        W11161  35.566  19.545   2.695
41281W        W11162  43.392  22.659  14.298
41282W        W11163  24.610  41.951   0.259
41283W        W11164  24.101  37.556  14.491
41284W        W11165   7.849  37.474   9.969
41285W        W11166   7.844  19.574  10.522
41286W        W11167   0.766  40.988   1.929
41287W        W11168  39.836   3.711  12.071
41288W        W11169  23.616   7.713  14.952
41289W        W11170  16.791   9.274  13.042
41290W        W11171   7.699  33.910   0.347
41291W        W11172  14.804  37.425   4.676
41292W        W11173  40.960   1.814   0.800
41293W        W11174  18.774  16.130   3.338
41294W        W11175  23.226  12.789   0.769
41295W        W11176  39.393  41.030  11.078
41296W        W11177  25.090  22.612   1.915
41297W        W11178   9.172  34.595  10.488
41298W        W11179  18.206  13.114  14.500
41299W        W11180  44.352  19.269   3.790
41300W        W11181   1.274  14.658   3.328
41301W        W11182   8.335  42.337   2.364
41302W        W11183   6.337  22.662  11.427
41303W        W11184   7.684  18.209  11.988
41304W        W11185  30.572  17.229  13.002
41305W        W11186  13.625  12.686   2.417
41306W        W11187   1.746   0.422   0.785
41307W        W11188   4.928  13.141   3.862
41308W        W11189   7.323  43.969  11.974
41309W        W11190   1.410  31.087   3.824
41310W        W11191  27.003   0.379   3.847
41311W        W11192  40.914  29.532   0.400
41312W        W11193  41.434   1.769   0.249
41313W        W11194  20.566  30.578   4.618
41314W        W11195  29.665  19.262   0.735
41315W        W11196  11.813  27.672  12.868
41316W        W11197  19.091  13.716   4.684
41317W        W11198  24.490  31.953  14.413
41318W        W11199   9.363  44.415  11.860
41319W        W11200   5.391  16.760   3.667
41320W        W11201  41.317  18.623   3.386
41321W        W11202   9.167  31.956  11.461
41322W        W11203  19.684  22.074   4.717
41323W        W11204  25.097  38.946   1.434
41324W        W11205  19.213   2.966  12.961
41325W        W11206  16.317  35.478   4.350
41326W        W11207  34.092  10.645  14.794
41327W        W11208   0.403  12.717   3.809
41328W        W11209  21.512  33.405   0.776
41329W        W11210  24.720  29.043   4.339
41330W        W11211  35.935  30.946  11.927
41331W        W11212  27.153  12.249   0.900
41332W        W11213  11.324   8.686  12.376
41333W        W11214  32.095  12.824   1.747
41334W        W11215  32.466  24.643   0.340
41335W        W11216  36.458  25.073  11.510
41336W        W11217  44.896  18.767   1.761
41337W        W11218  29.664  19.660  10.974
41338W        W11219  20.527   8.239   0.887
41339W        W11220  31.607  41.440  13.849
41340W        W11221  21.111  38.465   1.352
41341W        W11222   2.819  34.412  11.402
41342W        W11223   7.349   8.191   1.210
41343W        W11224  29.105  11.808   4.654
41344W        W11225  24.676  16.672   5.645
41345W        W11226   7.886  17.781  14.001
41346W        W11227   3.371  33.544   1.385
41347W        W11228  18.559  10.710   4.703
41348W        W11229  40.008   7.893  11.963
41349W        W11230  24.576  16.753  14.284
41350W        W11231  11.855  17.576   4.748
41351W        W11232  21.696  32.054  10.627
41352W        W11233  21.583  17.728   5.125
41353W        W11234  35.929   9.291  12.065
41354W        W11235   3.880  28.132  11.093
41355W        W11236  30.632  11.277  13.532
41356W        W11237   1.812  28.598   2.248
41357W        W11238   6.800  38.830  12.988
41358W        W11239   0.835   9.391   3.385
41359W        W11240  22.168  24.580  10.914
41360W        W11241  24.998  20.192   1.400
41361W        W11242   5.886  29.161   3.811
41362W        W11243  22.725  22.611  12.830
41363W        W11244  20.760  17.685   0.413
41364W        W11245  25.163  41.533   1.923
41365W        W11246   5.437  19.193  11.907
41366W        W11247  29.611  30.523   4.634
41367W        W11248  16.720  30.121   2.703
41368W        W11249  18.575  44.424   2.412
41369W        W11250  41.797  44.866   2.900
41370W        W11251   9.678   3.340  11.008
41371W        W11252  43.430  34.962  12.837
41372W        W11253  19.607  31.509  10.966
41373W        W11254  23.171  10.185  12.372
41374W        W11255  16.608  40.834   4.796
41375W        W11256  22.036  42.899   1.306
41376W        W11257   6.280  33.556  12.477
41377W        W11258  22.549  38.974   0.302
41378W        W11259   8.890  18.619   1.387
41379W        W11260  27.186  30.964  14.829
41380W        W11261   7.357   4.830   2.868
41381W        W11262  22.568  12.286  14.413
41382W        W11263  43.437   6.855  12.577
41383W        W11264  38.020  35.037  10.471
41384W        W11265  12.203   9.678   4.331
41385W        W11266  37.912  18.272  10.521
41386W        W11267  18.246  10.672  10.471
41387W        W11268  33.626  11.652  11.388
41388W        W11269   5.270  18.739   1.414
41389W        W11270  29.931   5.807   2.868
41390W        W11271  37.028  28.670  10.889
41391W        W11272  38.912   1.806  11.482
41392W        W11273   7.347  39.468  12.404
41393W        W11274  16.726  33.610   4.204
41394W        W11275  21.139  10.803  13.375
41395W        W11276  18.065  16.115  13.515
41396W        W11277  33.016  19.538  14.401
41397W        W11278  14.193   0.904  13.312
41398W        W11279  17.685  24.110  12.429
41399W        W11280   4.353  27.019  12.453
41400W        W11281  11.668  34.032  13.362
41401W        W11282  22.622  33.403   3.350
41402W        W11283   5.218  26.078  14.817
41403W        W11284  33.615  12.217   1.759
41404W        W11285   7.863  25.099  10.001
41405W        W11286  38.351   9.280  11.874
41406W        W11287  31.429  37.877   2.732
41407W        W11288  23.550  14.165   4.152
41408W        W11289   6.297  43.009   5.107
41409W        W11290   5.696   9.696  14.396
41410W        W11291  28.996  37.933   3.714
41411W        W11292  13.843  17.752  14.393
41412W        W11293  17.800  36.374  13.368
41413W        W11294  30.138  33.423   2.199
41414W        W11295  11.209  30.612  14.466
41415W        W11296  42.343  44.929  13.383
41416W        W11297  33.990   5.286   3.860
41417W        W11298  14.165  13.699   1.309
41418W        W11299  34.014   8.229   0.869
41419W        W11300   1.355  19.282   3.707
41420W        W11301  31.552  31.978   4.128
41421W        W11302  22.053  17.085  10.052
41422W        W11303  34.049   5.422   3.195
41423W        W11304  28.649  10.871  11.866
41424W        W11305   3.375   2.771  13.343
41425W        W11306  30.076  39.859   3.716
41426W        W11307   8.360   5.863   4.697
41427W        W11308  41.925  15.098   3.347
41428W        W11309  34.539  15.585  10.108
41429W        W11310  15.781   0.381   0.281
41430W        W11311  15.324  15.172  11.491
41431W        W11312  10.339  37.572   2.395
41432W        W11313  23.157  19.108   5.752
41433W        W11314  25.087  24.204   3.853
41434W        W11315  11.859  43.844  10.512
41435W        W11316  24.140  13.619  12.055
41436W        W11317  40.927  40.328  11.043
41437W        W11318  11.746  39.503  11.016
41438W        W11319  29.482   4.875  12.066
41439W        W11320  16.584  40.959  14.324
41440W        W11321  19.237   5.789   0.900
41441W        W11322   4.214   4.765  11.417
41442W        W11323  41.310  24.156  11.997
41443W        W11324   1.329  16.724   4.331
41444W        W11325   9.757  40.902  10.471
41445W        W11326  44.867  31.095   3.828
41446W        W11327  40.547  44.997  14.332
41447W        W11328  28.524  25.684  13.363
41448W        W11329  10.738  14.120   1.278
41449W        W11330  20.650   1.929  10.946
41450W        W11331   9.395  32.602   1.412
41451W        W11332  30.054  12.223   1.788
41452W        W11333  43.428  12.217   0.242
41453W        W11334  43.978  27.958  13.450
41454W        W11335   5.414  44.908  12.888
41455W        W11336  22.534  19.562   3.694
41456W        W11337   0.800  36.517  12.918
41457W        W11338  15.119  18.161  11.555
41458W        W11339   1.446  43.787  14.413
41459W        W11340  24.225   6.427  14.443
41460W        W11341  23.179  37.357   1.365
41461W        W11342  16.810  26.634   3.349
41462W        W11343  11.732   0.295  12.083
41463W        W11344  21.616  16.253  13.971
41464W        W11345  11.369  33.035   0.799
41465W        W11346  19.230  14.225   4.347
41466W        W11347  22.653  44.370   2.833
41467W        W11348  31.586  10.677   0.413
41468W        W11349  38.892  33.522   4.768
41469W        W11350   2.915  28.593  12.510
41470W        W11351  34.582  10.723   4.139
41471W        W11352  39.369  27.081  12.412
41472W        W11353  35.448   2.229   2.199
41473W        W11354  10.248  30.441  11.598
41474W        W11355   7.783  18.730  12.544
41475W        W11356   5.825  16.306  11.542
41476W        W11357  11.690  44.314  12.432
41477W        W11358  18.155   0.960   3.285
41478W        W11359  27.175  34.473   0.443
41479W        W11360  40.909  20.182  11.980
41480W        W11361  27.052  37.358   2.854
41481W        W11362  11.224  39.314  12.001
41482W        W11363  31.568  33.493  10.974
41483W        W11364   5.378  14.221   3.333
41484W        W11365  10.843  39.987   3.787
41485W        W11366  37.425  19.623   0.280
41486W        W11367  34.922  13.185  14.284
41487W        W11368  34.588  25.077  11.037
41488W        W11369  40.983  14.784  12.071
41489W        W11370  22.239  43.910   1.345
41490W        W11371  25.095  22.730   0.740
41491W        W11372  38.067   7.238   1.712
41492W        W11373  40.494  33.539  11.086
41493W        W11374  25.057  39.928  12.455
41494W        W11375  25.176  28.527   0.731
41495W        W11376   2.463  41.470  10.005
41496W        W11377  44.974  28.044  11.372
41497W        W11378  10.757   8.313   0.747
41498W        W11379  22.143  38.448  11.375
41499W        W11380  34.411  20.121  14.997
41500W        W11381  26.500  31.059   2.716
41501W        W11382   6.789  11.845   0.469
41502W        W11383  10.309  23.643   0.366
41503W        W11384  32.127  40.852   0.308
41504W        W11385  30.423  12.287  12.439
41505W        W11386  37.521  22.044  12.516
41506W        W11387  20.678  19.247   0.755
41507W        W11388  29.016  10.678  13.378
41508W        W11389   0.743  32.411  10.126
41509W        W11390  40.407  18.571   1.929
41510W        W11391  23.219  33.547   1.805
41511W        W11392  30.048   8.244  12.086
41512W        W11393  29.155  10.138   4.328
41513W        W11394  17.635   2.902   1.277
41514W        W11395  31.563  10.711  11.391
41515W        W11396   8.866  44.363  12.517
41516W        W11397  13.134   0.854   2.263
41517W        W11398  39.964  44.007  12.897
41518W        W11399   4.840  40.391   1.703
41519W        W11400  39.470  18.116  12.908
41520W        W11401  35.087  27.507  12.533
41521W        W11402  25.975  26.009  13.496
41522W        W11403  26.516  29.163   1.910
41523W        W11404  30.982  40.005  13.822
41524W        W11405  43.432   1.791  11.382
41525W        W11406  25.594  10.695   1.847
41526W        W11407  37.073  20.190   4.829
41527W        W11408  34.866  32.060   0.434
41528W        W11409  10.294  38.357  12.056
41529W        W11410   0.861  39.040   1.300
41530W        W11411  30.434  38.892   2.677
41531W        W11412  21.032  27.551  10.422
41532W        W11413  14.780   3.939   1.293
41533W        W11414  37.524  27.533  13.425
41534W        W11415  13.724  23.691  12.444
41535W        W11416  25.042  34.541   2.713
41536W        W11417  26.535  41.363  13.865
41537W        W11418  24.132  14.190  13.421
41538W        W11419   1.242  13.113   0.764
41539W        W11420   2.840  16.598  10.454
41540W        W11421  25.543   4.384  10.555
41541W        W11422  40.827  37.864   0.349
41542W        W11423  10.781  33.447  14.318
41543W        W11424  34.380  13.653   0.953
41544W        W11425   5.930  41.312  13.882
41545W        W11426  32.589   8.303   4.336
41546W        W11427  22.524  29.111  12.564
41547W        W11428  30.969  23.519  14.821
41548W        W11429  43.273  35.110  11.595
41549W        W11430  21.518  18.202  13.441
41550W        W11431  25.488   7.883   2.841
41551W        W11432  40.439   3.428   4.805
41552W        W11433  11.221  15.773   3.299
41553W        W11434  43.845  18.726  11.070
41554W        W11435  37.390  20.687   0.254
41555W        W11436   4.862   1.423  14.811
41556W        W11437  20.619  30.639  12.948
41557W        W11438  23.586  12.274   1.293
41558W        W11439  18.215  31.968  13.367
41559W        W11440  26.162  36.487  11.894
41560W        W11441  11.346  30.078  11.954
41561W        W11442  18.619  27.621  13.475
41562W        W11443  20.204   2.878  11.056
41563W        W11444  33.618   4.409   1.758
41564W        W11445  16.205  31.439  10.468
41565W        W11446  14.653  10.157   4.655
41566W        W11447  36.985  39.362   0.824
41567W        W11448   9.756  13.824  13.012
41568W        W11449  23.653  12.729   4.669
41569W        W11450  33.500   2.864   3.653
41570W        W11451  16.182  27.511  12.512
41571W        W11452  40.023   4.315  13.529
41572W        W11453  22.593  16.220  10.566
41573W        W11454  10.771  30.590   4.605
41574W        W11455   5.320  42.790   5.207
41575W        W11456   4.382  22.654  11.516
41576W        W11457  35.912  40.495   4.796
41577W        W11458   1.937  20.671   2.720
41578W        W11459  41.323   1.745   1.891
41579W        W11460   6.296  17.564   2.716
41580W        W11461  11.867  40.966  11.533
41581W        W11462  26.987   0.370  13.307
41582W        W11463  18.202  10.328  10.512
41583W        W11464  44.797  27.614   2.241
41584W        W11465  44.298  24.122   4.262
41585W        W11466  36.429  34.564  14.282
41586W        W11467  19.590  21.209  12.541
41587W        W11468  39.867  24.184   0.889
41588W        W11469  20.717  42.527  11.935
41589W        W11470  32.061  11.668  11.596
41590W        W11471   4.226  25.672  11.881
41591W        W11472   6.282   2.273   0.939
41592W        W11473  42.430   9.867   4.337
41593W        W11474  40.473  29.441  10.978
41594W        W11475  22.599  13.198   3.183
41595W        W11476   1.387  16.143  11.105
41596W        W11477   8.743  27.094   1.261
41597W        W11478  35.439   8.380  14.963
41598W        W11479   4.842  27.608  14.862
41599W        W11480  41.443  16.757  13.853
41600W        W11481   1.361  28.572   2.187
41601W        W11482  42.487   1.289  12.037
41602W        W11483  42.961  15.679  10.477
41603W        W11484  32.534  11.792   0.393
41604W        W11485  17.679  25.564  11.937
41605W        W11486  39.955  42.441   3.280
41606W        W11487   0.317  40.984  13.360
41607W        W11488  22.166  12.307   4.807
41608W        W11489   8.221  20.592   1.837
41609W        W11490  30.156  23.228   2.792
41610W        W11491  38.836  15.263   5.086
41611W        W11492  12.181   2.753   1.711
41612W        W11493  11.865  19.113   1.910
41613W        W11494  14.132  44.350  12.065
41614W        W11495  37.066  21.096  13.537
41615W        W11496  37.988  39.976  12.858
41616W        W11497   6.696  33.115  13.509
41617W        W11498  28.085  39.026   2.409
41618W        W11499   8.711  16.650   3.832
41619W        W11500   0.881   8.324   1.257
41620W        W11501   3.777   1.967  12.011
41621W        W11502  33.460  39.925   2.204
41622W        W11503   4.310   2.962  11.577
41623W        W11504  22.658   3.858  11.993
41624W        W11505  18.579   0.932  10.562
41625W        W11506  30.441  16.116   0.961
41626W        W11507  13.108  39.017  13.960
41627W        W11508  23.139   1.342  13.958
41628W        W11509  14.124  19.720   2.241
41629W        W11510  23.074  27.003  11.420
41630W        W11511  14.175   6.339  14.385
41631W        W11512   6.690  24.010   2.187
41632W        W11513   1.964  33.466  11.937
41633W        W11514   5.380   3.817  14.946
41634W        W11515  18.189  34.494  13.422
41635W        W11516  32.621  11.766   3.634
41636W        W11517  25.626  40.376  11.406
41637W        W11518   8.883  31.482   2.298
41638W        W11519  10.155  10.343  13.406
41639W        W11520   1.272  26.113  10.614
41640W        W11521   8.701  33.931  10.518
41641W        W11522  21.131   9.666   4.812
41642W        W11523   2.409  43.473   4.621
41643W        W11524  10.698  20.654  12.071
41644W        W11525   8.186  17.679  10.899
41645W        W11526  24.226  18.277   3.674
41646W        W11527   2.392  27.526   0.356
41647W        W11528  35.426  28.007   1.412
41648W        W11529  34.421  33.579  13.037
41649W        W11530  19.586  12.309  13.340
41650W        W11531  28.067  27.683   0.316
41651W        W11532  21.125  40.913  14.856
41652W        W11533   5.197   6.915  11.577
41653W        W11534   3.799  36.468  14.813
41654W        W11535  35.945  35.905   3.720
41655W        W11536  44.260  22.734  13.029
41656W        W11537  28.653   6.281  10.930
41657W        W11538  15.793  33.497   4.615
41658W        W11539  26.620  37.384  10.067
41659W        W11540  27.956  35.987   4.302
41660W        W11541   2.439   6.205   3.300
41661W        W11542   1.853   3.416   3.338
41662W        W11543  40.493  43.994  10.609
41663W        W11544  42.987  30.505   3.797
41664W        W11545  34.866  27.015   2.370
41665W        W11546  22.674  27.603   1.244
41666W        W11547  35.901   3.861  12.885
41667W        W11548  19.656   2.909   1.374
41668W        W11549  41.508   2.407  14.836
41669W        W11550  21.142   5.366   0.832
41670W        W11551  12.856  22.167   4.165
41671W        W11552   8.297  27.566   1.725
41672W        W11553  42.416  29.459   3.272
41673W        W11554  12.752  13.224   3.806
41674W        W11555  23.999  24.560   2.202
41675W        W11556  42.951   1.414  11.449
41676W        W11557  35.907  25.489  12.891
41677W        W11558  16.782  30.413   1.402
41678W        W11559   1.813  19.682  11.555
41679W        W11560   4.760  42.309  10.900
41680W        W11561  19.648  17.569   2.766
41681W        W11562  17.687  24.021  14.935
41682W        W11563  23.615  32.408  12.024
41683W        W11564   5.299  12.765   2.398
41684W        W11565   5.908  41.854  14.948
41685W        W11566  44.972   6.756   3.837
41686W        W11567  29.592  43.857  12.950
41687W        W11568  28.603  44.961  14.348
41688W        W11569  26.499  10.765   3.147
41689W        W11570  28.106  43.345  13.451
41690W        W11571  11.648  15.753   9.969
41691W        W11572  22.011   3.788   0.352
41692W        W11573  38.454   2.926   2.296
41693W        W11574  10.646  36.977  11.128
41694W        W11575  32.019   7.291  10.477
41695W        W11576  23.132   0.267  10.959
41696W        W11577   9.310  18.151  11.890
41697W        W11578  22.044   0.491  11.561
41698W        W11579   3.357  17.285   4.739
41699W        W11580  33.892  12.295   1.417
41700W        W11581  31.625   7.315   4.196
41701W        W11582  30.038   5.904   3.342
41702W        W11583  26.542  22.048   3.194
41703W        W11584  35.876  27.024   1.749
41704W        W11585   3.898  40.392  11.083
41705W        W11586  18.225  25.584   0.293
41706W        W11587  34.916   9.201   0.349
41707W        W11588  23.602  27.602   0.729
41708W        W11589  40.350   3.738  11.482
41709W        W11590  43.803  34.067   4.138
41710W        W11591  19.217  41.350   3.700
41711W        W11592   7.411  23.568   4.686
41712W        W11593  31.985  42.305  11.999
41713W        W11594  41.860  26.167   0.330
41714W        W11595  20.034   9.214   0.352
41715W        W11596  39.323  13.264   4.336
41716W        W11597  28.456  12.226  13.006
41717W        W11598  33.607  16.088   2.329
41718W        W11599  32.963  43.269   2.664
41719W        W11600   9.164  25.566   1.716
41720W        W11601  20.229  40.852   3.795
41721W        W11602   4.744  38.486  13.323
41722W        W11603  18.081  29.170   0.779
41723W        W11604  34.433  18.662   3.772
41724W        W11605  10.727  12.329  10.929
41725W        W11606  36.484  22.745   3.262
41726W        W11607  12.664  17.636   1.414
41727W        W11608  10.671   8.713   0.854
41728W        W11609  41.380  43.285  10.572
41729W        W11610  17.601  17.716   3.742
41730W        W11611  17.229  19.095   4.634
41731W        W11612   3.270  24.703  13.836
41732W        W11613  11.701  10.777  10.430
41733W        W11614   6.199  31.010   1.312
41734W        W11615  23.090  28.646  12.445
41735W        W11616   2.958   0.837  14.496
41736W        W11617  20.185  32.943  11.952
41737W        W11618  27.681  23.671   5.695
41738W        W11619   8.663  26.531   1.805
41739W        W11620  32.415  35.361   1.368
41740W        W11621  29.633  34.401  10.486
41741W        W11622  22.215  18.622  12.457
41742W        W11623  12.828  17.794  10.084
41743W        W11624  18.625   5.888   9.930
41744W        W11625  44.780  17.197   9.952
41745W        W11626  11.728  23.234   2.775
41746W        W11627  22.196  41.994   0.281
41747W        W11628  40.997  21.531  11.380
41748W        W11629  30.614  35.987   4.223
41749W        W11630  33.515  43.331  13.522
41750W        W11631  32.097  29.613  13.339
41751W        W11632  30.578  34.508  12.509
41752W        W11633  12.312  41.483  11.092
41753W        W11634  40.030   7.759  13.064
41754W        W11635  30.097  17.618   2.719
41755W        W11636  37.915  35.445  12.892
41756W        W11637  33.452  21.655   2.773
41757W        W11638   6.799  37.532   1.214
41758W        W11639  30.951   0.357   5.105
41759W        W11640  41.020  35.424  11.570
41760W        W11641  43.913  41.310  14.483
41761W        W11642  22.702   3.946  13.373
41762W        W11643  34.907   0.395  11.950
41763W        W11644   9.835  40.797  14.333
41764W        W11645  19.282   2.228  14.764
41765W        W11646  39.957  27.511   3.672
41766W        W11647  37.019  17.147  13.475
41767W        W11648  43.373   5.355   2.771
41768W        W11649   0.491  17.672  11.126
41769W        W11650  24.590  22.537   2.356
41770W        W11651  11.732  38.442  12.439
41771W        W11652  36.021   1.908  12.552
41772W        W11653  36.930  10.752  13.826
41773W        W11654  10.231  28.611  10.975
41774W        W11655  44.259  11.758  11.025
41775W        W11656   8.761  29.011   3.668
41776W        W11657   3.866   9.870   3.227
41777W        W11658  14.774  22.126   1.926
41778W        W11659  21.754  27.664   0.344
41779W        W11660  29.020  41.316   3.660
41780W        W11661  15.608   0.757  12.017
41781W        W11662  10.350   1.259   3.771
41782W        W11663   2.294  27.114   4.597
41783W        W11664  10.334  19.710   3.165
41784W        W11665  33.078  42.978   0.888
41785W        W11666  32.967  24.975   0.737
41786W        W11667  12.160  30.439  13.036
41787W        W11668   1.399  15.271   1.813
41788W        W11669  10.835   3.456   0.844
41789W        W11670  22.163  19.687  13.448
41790W        W11671  38.999  27.583   0.931
41791W        W11672   1.976  17.083  14.888
41792W        W11673  44.259  22.205   0.733
41793W        W11674   0.391  23.204  11.070
41794W        W11675  23.623  27.677  13.496
41795W        W11676  22.047  29.005  13.339
41796W        W11677  29.171  24.210   2.285
41797W        W11678  29.921  19.562   2.887
41798W        W11679  28.990   1.734  11.999
41799W        W11680  34.062  16.804   2.389
41800W        W11681  18.708  26.028  12.465
41801W        W11682  33.582   1.440   3.750
41802W        W11683   2.737   1.269   3.691
41803W        W11684   2.441  16.622  14.377
41804W        W11685  23.567  28.678   2.273
41805W        W11686  26.462  18.582   1.378
41806W        W11687  36.444  44.429   1.261
41807W        W11688  44.999  33.999   2.356
41808W        W11689  42.868   2.839  13.823
41809W        W11690  16.158   1.788  11.516
41810W        W11691  17.627   7.416   0.457
41811W        W11692   3.360  23.698   1.810
41812W        W11693  22.047   8.676  12.984
41813W        W11694  16.114  23.192   3.739
41814W        W11695  11.303  42.327   3.272
41815W        W11696  38.892  15.205  14.399
41816W        W11697  34.868  32.136  11.543
41817W        W11698  42.431  15.294   3.747
41818W        W11699   7.201  11.748   0.322
41819W        W11700  21.054   8.882   0.277
41820W        W11701  19.062  44.798   3.657
41821W        W11702  41.473  40.524   0.767
41822W        W11703  28.965   7.696  13.873
41823W        W11704   2.366  10.690   0.423
41824W        W11705  32.903  17.745  11.607
41825W        W11706   6.202  41.397   3.731
41826W        W11707  37.393   1.904   3.835
41827W        W11708  12.243  20.646   4.709
41828W        W11709  37.439   9.873  12.922
41829W        W11710  32.598  40.525  13.977
41830W        W11711  27.624  24.097   4.619
41831W        W11712  18.606  40.997  12.835
41832W        W11713  35.501  25.969   2.323
41833W        W11714   3.287   0.875   4.259
41834W        W11715  21.066  44.799   1.440
41835W        W11716  31.140  13.767   4.293
41836W        W11717  16.615  20.082   1.441
41837W        W11718  16.571  18.611  14.820
41838W        W11719  16.150  35.863   1.317
41839W        W11720  19.254  20.206   2.412
41840W        W11721   7.681  34.892  13.493
41841W        W11722  22.608   3.232   2.700
41842W        W11723  42.474  18.614   2.676
41843W        W11724   3.270  29.999   2.291
41844W        W11725   5.930  36.855   2.230
41845W        W11726  12.776  12.213   4.124
41846W        W11727  36.890  15.265   3.315
41847W        W11728  10.670  17.271   5.154
41848W        W11729   7.314  39.934  10.919
41849W        W11730  10.809  29.016  10.613
41850W        W11731  39.548   5.797   4.728
41851W        W11732  42.517  21.573  12.342
41852W        W11733   5.805  28.540   2.671
41853W        W11734  40.983  43.888   2.298
41854W        W11735  12.351  11.692  14.280
41855W        W11736   3.408  19.739  14.899
41856W        W11737  34.976  34.423   1.777
41857W        W11738   3.342  29.468   5.175
41858W        W11739  23.238   5.310   4.686
41859W        W11740  30.991  18.654  14.293
41860W        W11741  32.889  33.427   4.201
41861W        W11742  18.224  21.255  14.465
41862W        W11743  26.138  25.609  11.956
41863W        W11744  20.090  16.570  11.914
41864W        W11745  38.506  41.471   1.860
41865W        W11746  21.057  18.663   3.667
41866W        W11747  20.748  35.933  14.475
41867W        W11748  28.030  28.089   1.319
41868W        W11749  21.128   0.381   4.696
41869W        W11750  28.622   9.251  14.976
41870W        W11751  35.592  20.680  13.030
41871W        W11752  21.555  13.733  11.590
41872W        W11753   0.317  35.066  12.450
41873W        W11754  37.416  27.665  12.946
41874W        W11755   0.772  41.513   2.276
41875W        W11756  34.462  19.254   2.793
41876W        W11757   4.398  40.379  12.394
41877W        W11758   7.808  17.179  12.844
41878W        W11759  27.990  42.858   5.119
41879W        W11760  23.641  26.640  10.954
41880W        W11761  42.375  23.622  10.530
41881W        W11762  37.026  22.628  14.898
41882W        W11763  36.891   5.833  14.477
41883W        W11764  16.101  21.727  13.896
41884W        W11765   5.927  37.349  11.092
41885W        W11766   1.788  24.193  10.981
41886W        W11767  16.165  19.217  10.985
41887W        W11768  40.462   0.903   0.763
41888W        W11769  19.242  31.984   2.344
41889W        W11770  18.253  22.616   4.254
41890W        W11771  32.133   8.198   2.731
41891W        W11772  36.486  40.481  11.397
41892W        W11773  39.843   7.889   0.943
41893W        W11774  29.625  29.067   3.150
41894W        W11775  30.634   3.903   4.785
41895W        W11776  15.644  23.222   4.826
41896W        W11777  31.413  10.853  13.506
41897W        W11778  28.085  15.243  14.359
41898W        W11779   7.278  34.446   2.885
41899W        W11780  44.924  40.944  13.808
41900W        W11781   8.832   9.850  11.088
41901W        W11782  40.030  23.208   3.792
41902W        W11783   7.873  35.102  11.459
41903W        W11784  29.075  14.760   1.790
41904W        W11785  19.109   0.799  13.343
41905W        W11786  13.648  18.100  10.453
41906W        W11787  37.050  12.833  10.438
41907W        W11788  32.944  21.700   1.834
41908W        W11789  40.374  15.720   1.419
41909W        W11790  28.055  23.110   5.119
41910W        W11791  13.105   5.286  14.466
41911W        W11792  13.637   7.688  12.979
41912W        W11793  19.557   4.358  10.956
41913W        W11794  36.413  41.425  13.528
41914W        W11795  10.714   2.460   4.113
41915W        W11796  28.451  37.440   4.659
41916W        W11797  42.918   5.691  11.568
41917W        W11798  16.571  13.170  14.983
41918W        W11799   8.809  40.489  12.864
41919W        W11800  38.334  32.445  12.470
41920W        W11801   5.922  29.025  14.329
41921W        W11802  30.928  17.291   4.305
41922W        W11803  11.193  20.130   0.930
41923W        W11804  13.735  43.270   3.773
41924W        W11805  18.190  40.519   0.276
41925W        W11806  21.527  24.595   0.284
41926W        W11807  33.432  44.389   5.195
41927W        W11808  34.390   5.924   2.662
41928W        W11809  26.151   5.413  14.936
41929W        W11810  32.478  14.158  12.363
41930W        W11811  29.069  32.895   4.218
41931W        W11812  17.298   5.841   3.704
41932W        W11813  15.204  23.225  12.837
41933W        W11814  36.562  32.413  11.882
41934W        W11815  19.189   9.392  10.965
41935W        W11816  23.520  11.765  14.468
41936W        W11817  24.080  44.867  12.430
41937W        W11818   5.926  12.654  12.425
41938W        W11819  24.102  15.167  10.566
41939W        W11820   2.295  13.824   0.413
41940W        W11821   4.737  42.284  14.988
41941W        W11822   7.846  40.049  12.344
41942W        W11823  42.988   9.816   1.694
41943W        W11824  32.472  37.501  10.920
41944W        W11825   2.805  11.654  12.012
41945W        W11826  41.466  32.902   2.800
41946W        W11827   3.453  16.281  13.856
41947W        W11828  23.207  17.148  14.965
41948W        W11829  40.046  44.472   4.617
41949W        W11830   2.761   3.756   4.187
41950W        W11831   6.878  15.745   3.207
41951W        W11832  40.356   4.441  12.004
41952W        W11833  17.759  40.929   1.711
41953W        W11834   5.731   8.405  13.514
41954W        W11835  15.679  37.449  10.607
41955W        W11836  44.824  19.099  10.909
41956W        W11837   6.804  23.042  14.471
41957W        W11838  32.069  11.283   4.607
41958W        W11839  12.226  30.019  11.508
41959W        W11840  12.844   3.239  14.503
41960W        W11841   6.844  26.682  10.528
41961W        W11842  29.538  38.466  11.602
41962W        W11843  22.135  20.549   2.416
41963W        W11844   3.888  44.885   0.472
41964W        W11845  10.300   3.899   2.391
41965W        W11846  20.251  27.194  10.996
41966W        W11847  33.459  14.331  11.907
41967W        W11848  28.641  14.727  12.830
41968W        W11849   3.277  33.081  12.880
41969W        W11850  44.416   1.270   0.289
41970W        W11851  32.118  29.128   2.884
41971W        W11852  17.633  33.899   2.775
41972W        W11853  16.639  29.424   2.186
41973W        W11854  11.256   8.888  13.862
41974W        W11855   3.271  33.126  14.289
41975W        W11856   1.321  37.490  11.905
41976W        W11857  28.076  28.639  10.596
41977W        W11858   1.346  27.021  12.558
41978W        W11859  26.567  36.929   1.362
41979W        W11860  16.594  36.977   1.215
41980W        W11861  32.939  13.825  13.529
41981W        W11862  32.139  31.422  10.529
41982W        W11863  33.881  36.523  10.626
41983W        W11864  33.399  30.153  12.094
41984W        W11865  25.472  41.515  11.027
41985W        W11866   0.838  30.018   4.624
41986W        W11867  10.375  32.438   0.743
41987W        W11868  40.472  36.880  11.591
41988W        W11869   2.853  32.924   4.773
41989W        W11870  32.633  35.885   3.223
41990W        W11871   0.853  32.458  12.033
41991W        W11872  31.945  37.946   1.762
41992W        W11873   9.159   8.263  11.479
41993W        W11874  11.228  12.218   4.190
41994W        W11875  29.174  30.531   4.806
41995W        W11876   1.750  11.193   4.734
41996W        W11877  30.131   4.752  11.506
41997W        W11878  35.506  14.280   2.817
41998W        W11879  35.555  29.145  14.856
41999W        W11880  37.437   4.371   2.707
42000W        W11881  42.826  38.940   3.772
42001W        W11882   2.301  22.727   2.776
42002W        W11883   8.404   9.844  13.337
42003W        W11884   8.223  29.938  11.989
42004W        W11885   9.687  22.199   0.948
42005W        W11886   9.680  15.744  14.437
42006W        W11887  41.931  21.032  10.578
42007W        W11888   0.447  38.954   1.371
42008W        W11889   0.432   4.863   0.310
42009W        W11890   7.188  16.617  11.558
42010W        W11891  44.834   4.242   1.769
42011W        W11892  21.581   4.724  11.986
42012W        W11893   0.385  26.503  10.549
42013W        W11894  39.985  17.661  13.996
42014W        W11895  42.421   0.753  14.469
42015W        W11896  18.553  43.329  11.978
42016W        W11897  34.908  37.031   3.682
42017W        W11898  17.700  21.741   1.784
42018W        W11899  17.633  27.601  11.879
42019W        W11900  23.697  19.062   5.175
42020W        W11901  36.441   3.864  13.020
42021W        W11902  14.712  40.310   3.151
42022W        W11903  26.637  13.246  14.436
42023W        W11904  44.357  36.937  11.584
42024W        W11905  42.503  32.579   1.335
42025W        W11906   8.337  44.502   1.892
42026W        W11907  32.101  21.565  13.940
42027W        W11908  25.626  44.906   1.433
42028W        W11909  23.995  34.568  13.352
42029W        W11910  22.140  35.428   0.944
42030W        W11911  34.988  27.179  14.383
42031W        W11912  24.054  28.114   3.790
42032W        W11913  12.671   2.950   3.659
42033W        W11914   8.793  29.964  13.007
42034W        W11915  31.597  19.161  13.479
42035W        W11916  21.147  43.016   2.793
42036W        W11917   7.716  44.925   4.785
42037W        W11918  34.577  38.903   3.329
42038W        W11919  12.852  19.539  13.008
42039W        W11920  23.016   7.876  11.486
42040W        W11921  17.703  42.377   4.311
42041W        W11922  41.335   9.886  13.051
42042W        W11923  20.580   8.708   5.213
42043W        W11924  29.619  24.221  14.286
42044W        W11925  25.164  14.237   0.389
42045W        W11926  24.137  42.494  10.423
42046W        W11927  24.137  19.176   2.771
42047W        W11928   4.222  11.190   3.209
42048W        W11929  24.070  18.676   4.801
42049W        W11930  11.828  42.988   4.243
42050W        W11931  20.255   6.752   2.864
42051W        W11932  18.718   3.274  10.544
42052W        W11933  10.172  35.522  11.056
42053W        W11934  16.200   3.730  11.561
42054W        W11935  26.588  32.505   0.833
42055W        W11936  17.627   3.338   0.329
42056W        W11937  27.680  26.537   4.243
42057W        W11938   9.301  11.807   1.807
42058W        W11939  36.377  44.968  12.415
42059W        W11940  36.000   6.217  12.967
42060W        W11941  30.080  10.799  12.871
42061W        W11942  44.321  18.150   2.369
42062W        W11943  16.679  29.020   2.863
42063W        W11944  17.131  16.715   3.256
42064W        W11945  29.521  34.390   4.336
42065W        W11946  24.073  20.174  12.536
42066W        W11947  14.771  17.100  12.555
42067W        W11948  15.313  30.076   0.359
42068W        W11949  10.719  20.239   2.224
42069W        W11950  38.049  18.616   4.660
42070W        W11951  34.086  13.122   2.419
42071W        W11952  32.554  40.962   0.454
42072W        W11953  33.473  41.982  12.578
42073W        W11954  37.466  42.474  10.566
42074W        W11955  33.403  43.884   0.829
42075W        W11956  11.645   7.305  11.077
42076W        W11957  41.523  40.927   4.140
42077W        W11958  14.740   1.786   0.840
42078W        W11959  42.436  18.661   2.180
42079W        W11960  14.762   3.320   3.161
42080W        W11961  21.230  28.040   0.857
42081W        W11962  14.802   8.313  10.456
42082W        W11963  36.058  35.925   0.409
42083W        W11964   8.697  13.243   4.636
42084W        W11965  23.513  35.000   1.433
42085W        W11966  16.249  41.292   1.284
42086W        W11967  20.168  44.859  12.375
42087W        W11968   7.359  20.683   1.423
42088W        W11969  28.950  16.665   4.618
42089W        W11970  34.929   7.704  12.367
42090W        W11971  20.697   3.308  14.368
42091W        W11972  38.032  32.423  11.488
42092W        W11973  20.049   7.889  14.887
42093W        W11974  28.055  15.609  13.448
42094W        W11975  15.660  26.105  13.881
42095W        W11976  23.222  30.536  13.411
42096W        W11977  30.527   4.373  13.362
42097W        W11978  20.648  13.223  12.854
42098W        W11979  37.446   7.312   4.207
42099W        W11980  42.964  15.812   0.867
42100W        W11981  34.116   4.725   3.786
42101W        W11982  30.596  17.679   4.687
42102W        W11983  22.578   1.416  12.517
42103W        W11984  10.369  31.061   0.328
42104W        W11985  21.026  15.710   3.216
42105W        W11986  40.328  17.137   3.247
42106W        W11987   9.257  12.247  12.839
42107W        W11988  39.392  11.135  11.855
42108W        W11989  33.403   4.446  11.096
42109W        W11990  20.540   2.436  10.056
42110W        W11991   1.450  13.643   2.860
42111W        W11992  17.704  24.656   0.863
42112W        W11993  12.142   6.326  11.496
42113W        W11994   8.280   5.216   1.270
42114W        W11995   7.790  23.630  11.397
42115W        W11996  22.658  11.783  10.002
42116W        W11997  31.534  36.073   1.281
42117W        W11998  29.553  39.903  11.900
42118W        W11999  44.800  16.200  12.930
42119W        W12000  17.198  12.720  12.916
42120W        W12001  25.112  14.812   2.735
42121W        W12002   9.686  24.151  13.948
42122W        W12003  42.422  39.471  12.567
42123W        W12004   6.355  21.540  10.911
42124W        W12005  30.565   9.822   4.157
42125W        W12006   7.284  20.190  10.917
42126W        W12007  28.995  31.492   1.313
42127W        W12008  39.047  41.870   4.330
42128W        W12009  20.523  22.664   3.843
42129W        W12010   0.813   9.382   4.662
42130W        W12011  14.747  11.678   2.316
42131W        W12012  27.604  30.604  11.076
42132W        W12013   5.244  19.115  14.761
42133W        W12014  32.509  14.337   1.867
42134W        W12015  41.384  23.221  14.422
42135W        W12016   4.406  41.812  12.841
42136W        W12017  21.540  38.971   4.131
42137W        W12018   4.905   8.168  13.357
42138W        W12019  39.992  24.115  13.332
42139W        W12020  28.988   8.872   1.239
42140W        W12021   2.849   0.324  13.991
42141W        W12022  35.572  22.053  13.381
42142W        W12023  11.190  19.686   3.825
42143W        W12024   4.883   2.761   0.898
42144W        W12025  39.413   0.973  11.936
42145W        W12026  14.707  17.613  10.471
42146W        W12027  39.927  19.221  11.077
42147W        W12028  31.922   4.788  14.775
42148W        W12029  25.594   5.315   1.841
42149W        W12030  31.996  28.442  11.476
42150W        W12031  40.504  44.947  11.580
42151W        W12032  42.827  23.029   2.248
42152W        W12033  15.705  29.589  11.118
42153W        W12034  19.090  43.927   2.743
42154W        W12035  34.019  28.097   1.882
42155W        W12036   1.843   0.917   0.849
42156W        W12037  14.207  44.290  10.001
42157W        W12038  39.376   8.238  13.980
42158W        W12039  41.030  10.313  12.567
42159W        W12040   0.402  39.344  13.384
42160W        W12041   4.214  17.626  14.395
42161W        W12042  23.031  30.933   1.294
42162W        W12043   9.307   2.835   2.670
42163W        W12044   4.318  27.458   2.769
42164W        W12045   0.301   1.388   3.745
42165W        W12046  43.883   9.275  10.624
42166W        W12047  42.877  25.498   2.329
42167W        W12048   4.240  23.168   3.672
42168W        W12049  20.602  27.643  10.608
42169W        W12050  42.998  11.755  12.886
42170W        W12051  18.127  34.571  14.275
42171W        W12052  33.992  28.621  14.490
42172W        W12053   7.771   9.877   4.235
42173W        W12054   9.821  11.625   1.399
42174W        W12055  23.550  11.223  12.495
42175W        W12056  22.588  20.756  12.952
42176W        W12057   2.759  20.247  13.412
42177W        W12058  44.780  15.812  12.509
42178W        W12059  19.647  29.973  10.612
42179W        W12060  18.118   9.384  10.957
42180W        W12061  16.097  40.020  14.777
42181W        W12062   5.741  37.847   0.315
42182W        W12063  33.390  44.932   4.611
42183W        W12064  35.932   5.725  13.825
42184W        W12065  33.494   4.244  13.941
42185W        W12066  29.642  13.211  11.102
42186W        W12067  42.850  35.401   2.296
42187W        W12068  39.503  44.839  12.029
42188W        W12069  12.197  13.831  13.529
42189W        W12070  38.069   8.655   0.932
42190W        W12071  40.904  20.590  11.012
42191W        W12072  31.116  16.294   1.337
42192W        W12073  26.458   6.313   0.339
42193W        W12074  41.450   9.654  11.521
42194W        W12075  15.803  44.339  12.918
42195W        W12076  37.495  15.703   0.259
42196W        W12077  15.300  23.063   2.188
42197W        W12078  25.703  16.140   2.773
42198W        W12079  39.445  36.468  13.497
42199W        W12080  44.414   2.916   3.789
42200W        W12081  11.200  25.964  14.008
42201W        W12082  29.055  18.723   0.275
42202W        W12083  41.990  31.066   4.759
42203W        W12084  10.264  29.991  10.604
42204W        W12085  18.583  41.797   0.874
42205W        W12086  44.498  36.390   1.700
42206W        W12087  10.282  33.961   4.325
42207W        W12088  17.729  37.574   4.701
42208W        W12089  20.209   3.889   1.855
42209W        W12090  32.458  21.673   3.204
42210W        W12091  10.702  19.589  12.061
42211W        W12092  22.597   1.766   2.179
42212W        W12093  17.637   4.450   2.327
42213W        W12094   2.366  20.103   2.416
42214W        W12095   4.874  33.900  13.063
42215W        W12096  16.302  34.605  14.372
42216W        W12097  38.864  43.798  11.467
42217W        W12098   4.716  34.422   2.285
42218W        W12099  27.646  16.302   4.195
42219W        W12100  31.911  34.465  13.406
42220W        W12101  24.571  28.530  11.547
42221W        W12102  29.429  43.367   1.801
42222W        W12103   2.412  33.112  14.380
42223W        W12104  28.972  16.114  11.910
42224W        W12105  23.525  20.563   4.273
42225W        W12106  30.085  37.543  12.451
42226W        W12107  39.433  40.858   2.832
42227W        W12108  40.416  24.142  11.974
42228W        W12109  41.980  37.920  13.032
42229W        W12110   9.766   5.886  11.962
42230W        W12111  22.021  17.277  11.567
42231W        W12112   6.815  11.763   2.405
42232W        W12113  24.661  24.085   0.276
42233W        W12114  20.075  28.679  10.542
42234W        W12115   8.874  16.144  12.930
42235W        W12116   9.835  28.612   3.744
42236W        W12117  38.346  41.797  10.446
42237W        W12118  36.533  25.124   2.285
42238W        W12119  40.811  42.791   3.327
42239W        W12120  37.909  16.644   3.766
42240W        W12121   5.906   6.844  10.916
42241W        W12122  25.567  17.681   3.248
42242W        W12123   2.770  31.101   4.171
42243W        W12124  12.797  13.247  14.814
42244W        W12125  14.105  35.857  13.314
42245W        W12126  32.461   6.891   4.604
42246W        W12127  20.036  13.637  11.529
42247W        W12128  34.468  17.251   3.806
42248W        W12129  25.014  12.750  13.029
42249W        W12130  18.210   6.321   2.713
42250W        W12131  10.663   4.735  12.528
42251W        W12132  32.514  15.684  13.348
42252W        W12133  42.498   2.913  12.442
42253W        W12134  20.245  19.648  11.596
42254W        W12135  27.563  22.590   3.862
42255W        W12136   9.795  35.100   4.125
42256W        W12137  43.483  22.622  12.345
42257W        W12138  17.559  37.465   1.393
42258W        W12139   3.244  16.256   4.747
42259W        W12140  10.269  30.467   1.313
42260W        W12141  43.359   5.382  10.412
42261W        W12142   8.860   1.804  14.827
42262W        W12143  11.261   7.695   3.181
42263W        W12144  19.232   6.264  12.022
42264W        W12145  39.816   9.816  14.758
42265W        W12146  34.550  39.054   2.872
42266W        W12147  42.524  34.917  14.819
42267W        W12148  10.709  22.205  11.466
42268W        W12149  27.095   2.334  10.898
42269W        W12150  36.920  41.435   3.317
42270W        W12151  36.464  13.795  13.511
42271W        W12152  24.598  30.430   2.294
42272W        W12153   4.860  38.456   2.668
42273W        W12154  27.076  39.537  13.506
42274W        W12155  22.095  25.503   1.348
42275W        W12156   0.268  27.666  10.414
42276W        W12157  21.082  19.728  13.990
42277W        W12158  42.879   2.463  12.077
42278W        W12159   4.267  21.727   1.751
42279W        W12160  28.540  41.403   3.632
42280W        W12161   6.740  28.486  13.997
42281W        W12162  31.422  27.610   4.755
42282W        W12163  33.049  11.137  12.500
42283W        W12164  18.693  44.328  14.976
42284W        W12165  22.537  40.315   3.163
42285W        W12166  23.606  16.570   3.376
42286W        W12167  34.030  22.640   3.733
42287W        W12168  30.125  26.585  14.335
42288W        W12169   0.820   8.331   4.612
42289W        W12170  40.026  41.488   0.791
42290W        W12171  22.525  29.497  14.493
42291W        W12172  41.461  14.609   1.404
42292W        W12173  23.685  28.449   2.678
42293W        W12174   3.886  13.616   1.304
42294W        W12175  12.152  19.121  10.586
42295W        W12176  15.818  18.660  14.450
42296W        W12177  11.665  10.813   4.671
42297W        W12178   3.231   5.931   2.743
42298W        W12179  25.635  27.552   1.900
42299W        W12180  41.301  16.093   0.459
42300W        W12181  37.381  29.988  13.900
42301W        W12182  37.952  38.570  14.859
42302W        W12183  16.695  21.582  13.901
42303W        W12184  43.361  20.218  14.374
42304W        W12185  27.025  33.035  13.476
42305W        W12186  36.984  17.113  14.011
42306W        W12187   2.801  21.751  12.059
42307W        W12188   2.355  12.326  14.475
42308W        W12189   3.830   4.261  12.033
42309W        W12190  33.061  20.250   0.298
42310W        W12191   0.812   9.781  14.374
42311W        W12192  33.583  16.678   4.835
42312W        W12193  44.780  20.581  13.931
42313W        W12194  35.953  14.099   2.878
42314W        W12195  40.947  44.431  11.014
42315W        W12196  28.568  44.438  10.971
42316W        W12197  41.327  42.870  11.054
42317W        W12198  13.628  16.574   2.300
42318W        W12199  14.684  33.902   4.246
42319W        W12200   9.834  36.563   4.118
42320W        W12201  35.901  25.047   3.349
42321W        W12202  15.714  12.788   0.363
42322W        W12203  30.118  35.460   2.873
42323W        W12204  36.486   8.697   3.169
42324W        W12205  13.682   5.886   4.722
42325W        W12206   8.761  16.605   2.748
42326W        W12207  12.852  17.253  12.442
42327W        W12208  19.125  43.367   4.770
42328W        W12209  29.976  31.083   2.769
42329W        W12210  15.298  26.616  14.998
42330W        W12211  13.843  37.033  12.830
42331W        W12212  21.240  16.673   0.769
42332W        W12213   3.886  31.593   0.275
42333W        W12214  11.177   7.352   3.198
42334W        W12215  34.472   5.873   4.134
42335W        W12216  13.604  13.745  11.433
42336W        W12217  23.531  21.524  12.054
42337W        W12218  29.927   7.855  14.381
42338W        W12219   5.396  38.501  14.925
42339W        W12220  25.029  38.854  13.457
42340W        W12221   4.367  17.121  14.008
42341W        W12222  11.258  19.729  11.442
42342W        W12223  18.170  38.865  13.872
42343W        W12224  34.432  23.653   1.225
42344W        W12225   8.833  28.483   4.189
42345W        W12226   5.241   4.824  14.436
42346W        W12227  37.368  21.216  11.066
42347W        W12228  30.071  26.612   3.192
42348W        W12229  25.665  27.593  13.530
42349W        W12230  39.409   3.409  14.866
42350W        W12231  37.566  34.472  12.831
42351W        W12232  20.695  18.251   3.825
42352W        W12233  26.170  41.894  10.523
42353W        W12234   4.769   7.684  12.935
42354W        W12235  39.356  42.516   1.415
42355W        W12236  37.337   4.943   1.426
42356W        W12237   6.362  36.528  14.361
42357W        W12238  25.151   6.359  11.940
42358W        W12239  16.777  16.265   2.350
42359W        W12240   4.293  34.602  13.421
42360W        W12241   6.870  44.488  11.038
42361W        W12242   7.804  40.920   0.790
42362W        W12243  13.207  25.622  13.385
42363W        W12244   6.794  11.206  13.927
42364W        W12245  37.054  27.179   4.757
42365W        W12246   3.298  43.881   1.710
42366W        W12247   5.841  16.728   3.184
42367W        W12248  39.846  44.884   3.173
42368W        W12249   5.301  16.773   3.201
42369W        W12250  14.761   0.454   2.266
42370W        W12251  34.898  18.559   4.777
42371W        W12252  14.274   8.257   1.401
42372W        W12253  33.121  30.655  14.776
42373W        W12254  24.667  22.704  14.941
42374W        W12255  24.024  25.649   1.315
42375W        W12256  25.596  33.083  12.898
42376W        W12257  26.026  44.979   0.831
42377W        W12258  31.462  21.212  11.032
42378W        W12259  12.214  25.216  12.576
42379W        W12260  44.996  41.961   3.319
42380W        W12261  14.610   3.823  12.511
42381W        W12262  24.523   7.286  13.538
42382W        W12263  40.342  35.109  12.399
42383W        W12264   5.372  43.415   3.810
42384W        W12265   4.933  44.344  10.025
42385W        W12266  20.604  18.693   3.645
42386W        W12267  40.914  13.115   0.395
42387W        W12268  28.144   0.759   9.980
42388W        W12269  20.161  19.249   1.877
42389W        W12270  18.122  22.624  12.986
42390W        W12271  26.056  44.260  12.078
42391W        W12272  21.663   4.206  12.371
42392W        W12273  43.495  11.171  10.426
42393W        W12274  42.289  30.605  10.481
42394W        W12275  25.699   5.392   4.197
42395W        W12276  38.974  10.740  13.853
42396W        W12277  40.419  18.081   4.770
42397W        W12278  40.429  44.876   3.671
42398W        W12279  10.715  38.400  12.923
42399W        W12280  44.785  36.978  14.440
42400W        W12281  35.904  38.466   2.712
42401W        W12282  31.144  18.601  12.438
42402W        W12283  28.508   8.870  10.634
42403W        W12284  20.034  14.191  13.390
42404W        W12285  31.499  10.318   1.926
42405W        W12286  32.424  16.790  11.536
42406W        W12287  32.920  40.928  14.913
42407W        W12288  17.760   4.302   0.904
42408W        W12289  23.713   0.786  14.028
42409W        W12290  28.493  22.148  14.415
42410W        W12291  14.777   4.254   3.837
42411W        W12292  35.910  18.261   1.217
42412W        W12293   7.727  11.305  14.453
42413W        W12294  44.928  44.967   4.813
42414W        W12295  42.520  22.066  14.335
42415W        W12296   1.905  42.414   4.744
42416W        W12297  27.982   5.805  14.786
42417W        W12298  28.471   3.771  12.514
42418W        W12299  30.983   6.764   0.798
42419W        W12300  16.650  11.246   2.792
42420W        W12301  31.974  24.150  13.060
42421W        W12302  31.051  38.988  11.055
42422W        W12303  17.306   0.804  14.021
42423W        W12304   6.320  15.279  14.475
42424W        W12305   6.267  33.459  13.879
42425W        W12306   5.924  17.719   0.789
42426W        W12307  11.841  13.115  14.012
42427W        W12308   3.723  42.480   1.893
42428W        W12309   8.718  42.009   1.259
42429W        W12310  38.827  16.709   2.367
42430W        W12311  31.028  13.603  14.864
42431W        W12312  44.756  17.199   0.430
42432W        W12313   2.349  19.260  14.019
42433W        W12314   9.241   1.960  12.873
42434W        W12315  12.777   1.826   2.324
42435W        W12316   9.377  33.603   3.663
42436W        W12317  17.247  35.053   4.322
42437W        W12318  41.928  22.664   0.342
42438W        W12319  28.144  37.539   3.305
42439W        W12320   9.822  38.856  11.867
42440W        W12321  15.726  39.934  11.497
42441W        W12322  14.697   6.299   0.444
42442W        W12323  12.771  26.530   4.128
42443W        W12324  36.083   0.873  10.074
42444W        W12325  35.108   0.372   4.321
42445W        W12326  20.166  18.073   3.199
42446W        W12327  16.104  21.144  13.810
42447W        W12328  29.094  39.454  12.930
42448W        W12329  16.177  25.609  10.453
42449W        W12330  44.381  33.122   0.467
42450W        W12331  43.510  34.563   0.811
42451W        W12332   7.888  24.992  10.536
42452W        W12333  37.493  24.198   2.294
42453W        W12334  44.323  25.550  11.060
42454W        W12335  13.283   6.876   3.344
42455W        W12336  35.924  31.901   3.735
42456W        W12337  13.298  15.661   1.448
42457W        W12338  22.586   6.417   5.165
42458W        W12339  13.290  40.438  14.508
42459W        W12340  40.858  19.692   2.242
42460W        W12341  39.847  22.645   1.829
42461W        W12342  16.651  10.291   0.293
42462W        W12343  36.051   2.298   4.146
42463W        W12344  19.116  33.595  13.354
42464W        W12345  44.446   9.285  10.415
42465W        W12346   1.812  34.512   3.211
42466W        W12347  22.619   9.344  12.498
42467W        W12348   6.904  39.451  11.407
42468W        W12349  13.828  10.243   0.248
42469W        W12350  22.670  27.136   1.213
42470W        W12351  15.267  38.354   9.476
42471W        W12352   1.241  27.591   0.442
42472W        W12353   9.277  27.455  12.921
42473W        W12354  12.287  17.296   0.342
42474W        W12355   3.925  39.836   1.392
42475W        W12356  27.458  18.092   0.406
42476W        W12357  10.343   9.741  14.278
42477W        W12358   8.770  16.170   4.283
42478W        W12359   4.760  44.875   9.936
42479W        W12360  25.147  25.504  14.797
42480W        W12361  10.243   7.415   4.802
42481W        W12362   5.713  17.755  12.073
42482W        W12363  17.583  28.024   3.369
42483W        W12364  39.537   4.804   3.773
42484W        W12365  42.942  40.881  11.977
42485W        W12366  36.899  39.453  13.493
42486W        W12367  17.298  28.468  14.485
42487W        W12368  44.463  31.135  14.938
42488W        W12369  29.945  11.729  12.906
42489W        W12370  40.955  42.353  12.510
42490W        W12371  12.827   1.482   1.211
42491W        W12372   9.717  38.970   0.961
42492W        W12373  43.395  37.849  13.923
42493W        W12374  17.586  24.522   3.214
42494W        W12375  19.705  21.150  13.407
42495W        W12376   4.772  25.475  10.981
42496W        W12377  32.528  12.779   3.807
42497W        W12378  26.012  26.551  12.893
42498W        W12379   3.856  14.204   4.237
42499W        W12380   6.917  17.152   0.323
42500W        W12381  19.137  29.583   0.907
42501W        W12382  31.461  35.402   4.245
42502W        W12383  22.051   4.926  11.433
42503W        W12384   6.919  14.835  11.401
42504W        W12385  31.944   4.840  12.022
42505W        W12386  11.712  14.273   0.872
42506W        W12387  14.314  39.354   3.218
42507W        W12388  27.628   6.743  12.899
42508W        W12389   7.269  32.915  12.537
42509W        W12390  18.561  28.482   2.885
42510W        W12391  23.661  34.053  14.895
42511W        W12392  33.017  26.088   1.371
42512W        W12393  15.195  41.979   1.811
42513W        W12394  26.483   5.237   0.924
42514W        W12395   1.364  43.843  10.945
42515W        W12396   8.378  35.008  13.985
42516W        W12397  11.222  10.713   1.714
42517W        W12398  38.520  29.152   4.757
42518W        W12399   2.942  17.280   1.785
42519W        W12400  29.476  29.433  10.028
42520W        W12401  35.910  30.655   3.757
42521W        W12402  13.770  41.482   1.272
42522W        W12403   3.348  44.310  11.598
42523W        W12404  31.943  33.554   3.857
42524W        W12405  15.164  39.964   0.418
42525W        W12406  40.015  10.317   2.836
42526W        W12407  32.490  35.082   4.241
42527W        W12408  37.512  39.973   2.325
42528W        W12409  19.567   9.227  13.467
42529W        W12410  15.794   1.778   3.224
42530W        W12411  11.180  36.844  11.070
42531W        W12412   0.303   4.864  14.797
42532W        W12413  30.492  30.066   2.765
42533W        W12414  29.566  35.040   4.114
42534W        W12415  20.542  19.725   3.190
42535W        W12416  29.444  42.947   4.763
42536W        W12417  43.403  42.795   3.766
42537W        W12418   0.764  41.527  11.553
42538W        W12419  32.990  10.645  13.439
42539W        W12420   0.944   9.656   1.726
42540W        W12421  17.710  33.896  12.826
42541W        W12422  11.792  43.773   2.865
42542W        W12423  43.340  30.113   0.362
42543W        W12424  39.441  16.203  11.399
42544W        W12425  15.276  18.712   1.830
42545W        W12426  44.380   3.832   0.390
42546W        W12427  41.872  36.500   0.966
42547W        W12428  25.648  13.627  14.778
42548W        W12429  32.990  36.053  12.081
42549W        W12430  41.952   6.690  11.522
42550W        W12431  13.182  14.306  11.407
42551W        W12432  30.063   9.333   9.949
42552W        W12433   1.381  22.093  10.594
42553W        W12434  36.969  35.020   1.800
42554W        W12435  37.964  26.629   4.808
42555W        W12436   1.445  29.537   4.722
42556W        W12437  11.624  13.121  12.539
42557W        W12438   5.403   5.839  14.374
42558W        W12439  34.895  20.106   3.373
42559W        W12440   9.303  38.943   2.723
42560W        W12441  13.311  33.454  14.904
42561W        W12442  15.234   2.350  13.985
42562W        W12443  27.079  41.960  12.994
42563W        W12444  40.984  29.533   3.686
42564W        W12445  33.045  21.681   4.289
42565W        W12446  23.610   9.395   0.934
42566W        W12447  12.821  34.530   1.344
42567W        W12448   4.444   7.715  10.582
42568W        W12449  34.909  34.095  14.987
42569W        W12450   8.696  34.448  12.844
42570W        W12451   0.980  15.240  10.520
42571W        W12452  31.468  15.268   4.255
42572W        W12453  17.124  29.054  13.432
42573W        W12454   0.872  12.683  14.934
42574W        W12455   4.230   9.842  14.407
42575W        W12456  41.445  29.473   1.230
42576W        W12457  25.514   6.824   3.728
42577W        W12458  31.123   8.171   1.234
42578W        W12459  18.211   8.664   4.615
42579W        W12460  18.681  23.669  14.843
42580W        W12461  24.507  18.052   5.618
42581W        W12462  38.008   1.382   1.694
42582W        W12463   0.453  36.403  13.401
42583W        W12464  38.031  43.960   0.935
42584W        W12465  26.672  31.623  10.564
42585W        W12466  38.974  21.719  12.891
42586W        W12467  31.492   1.449   3.870
42587W        W12468  14.644  33.500   1.782
42588W        W12469  23.202  44.822   1.255
42589W        W12470  39.542  44.756  11.112
42590W        W12471  29.473  23.229  13.547
42591W        W12472   5.231  24.614  13.827
42592W        W12473  13.782  34.103  10.952
42593W        W12474  13.672  17.253  11.587
42594W        W12475  42.923  38.551  13.052
42595W        W12476  14.268  32.454   4.743
42596W        W12477  17.599  15.319  10.637
42597W        W12478  12.125  42.500  10.529
42598W        W12479  39.844  35.873   2.764
42599W        W12480   8.846  31.456  11.964
42600W        W12481  14.215  39.887  12.342
42601W        W12482   1.377   7.364  14.809
42602W        W12483   3.403  16.779   1.359
42603W        W12484  20.617  14.653  11.078
42604W        W12485  39.842  23.081  12.559
42605W        W12486  11.633  39.428   0.940
42606W        W12487  44.488  42.806   4.803
42607W        W12488   5.404  15.172  10.959
42608W        W12489  31.440  41.345   1.901
42609W        W12490   4.321  17.647   1.219
42610W        W12491  23.601   6.423   1.768
42611W        W12492  16.701  42.370  10.456
42612W        W12493  35.475  22.072  12.823
42613W        W12494  11.314  37.491  11.906
42614W        W12495  21.646  34.465  11.384
42615W        W12496  11.800  16.139  13.966
42616W        W12497  39.472   5.836   2.203
42617W        W12498  34.899  36.474   4.205
42618W        W12499   3.733  32.582   3.665
42619W        W12500   8.704  26.655  12.478
42620W        W12501   5.355  21.025   2.819
42621W        W12502  15.798   9.212  11.986
42622W        W12503  43.839  36.458  10.509
42623W        W12504  35.871   7.391   2.318
42624W        W12505   2.381   5.384  11.068
42625W        W12506  11.852  20.084   3.747
42626W        W12507  15.786  32.980  11.979
42627W        W12508  12.240  40.006   4.606
42628W        W12509  11.239   8.782  13.008
42629W        W12510  10.168  34.891   0.407
42630W        W12511  18.269   8.801   1.383
42631W        W12512  12.800  35.049   1.402
42632W        W12513   5.267  28.041  11.940
42633W        W12514  25.032  13.642   3.826
42634W        W12515  34.109  42.457   0.891
42635W        W12516  13.619  21.598  10.608
42636W        W12517  19.714  42.971  14.464
42637W        W12518  25.598  23.728  14.313
42638W        W12519  11.250  40.047   0.295
42639W        W12520  26.564  28.454  10.904
42640W        W12521  19.249  44.901  12.485
42641W        W12522   9.304   4.320   1.694
42642W        W12523  36.020  22.531   3.240
42643W        W12524  40.044  36.552   0.769
42644W        W12525  35.374  20.077  11.873
42645W        W12526  13.222  24.689   0.341
42646W        W12527  34.067  42.508  14.941
42647W        W12528  13.835  31.078   4.631
42648W        W12529  27.630  10.194  14.853
42649W        W12530  15.321  20.594  14.436
42650W        W12531  27.576  35.955   2.705
42651W        W12532  29.033   2.885  11.876
42652W        W12533  24.630  17.751  10.109
42653W        W12534  18.609  24.983  10.636
42654W        W12535   9.840  31.412  11.097
42655W        W12536  37.002   9.354  10.410
42656W        W12537  13.118  10.748  14.775
42657W        W12538  18.712  39.342  12.046
42658W        W12539  15.614  15.234   4.644
42659W        W12540  12.830  33.106  11.947
42660W        W12541   4.207  17.686   2.741
42661W        W12542   3.416   3.325   2.834
42662W        W12543  18.158  25.629  12.984
42663W        W12544   9.358  16.806   1.306
42664W        W12545   4.865  36.507  10.489
42665W        W12546  38.950  29.609  14.959
42666W        W12547  34.431  42.008  11.380
42667W        W12548  25.482  39.507  14.387
42668W        W12549  12.657  31.626  14.958
42669W        W12550  42.989  24.087   0.441
42670W        W12551  17.276   1.318   4.256
42671W        W12552  39.477  32.913  10.640
42672W        W12553  29.043  10.140   1.413
42673W        W12554  22.580   7.254  11.428
42674W        W12555  35.017   1.418  11.918
42675W        W12556  22.666   9.324   2.286
42676W        W12557  12.691  33.437   1.716
42677W        W12558   9.705  15.212  13.815
42678W        W12559  24.108  39.945   0.869
42679W        W12560  13.766  39.043   2.854
42680W        W12561  27.618  13.176  12.008
42681W        W12562  20.057  14.723  10.559
42682W        W12563  43.920  21.690   3.700
42683W        W12564  26.095  34.991   1.845
42684W        W12565  10.277  44.336   0.355
42685W        W12566   1.449  23.006  14.423
42686W        W12567  29.011  41.002   1.445
42687W        W12568  19.763   8.274  12.054
42688W        W12569  39.978   8.295  10.636
42689W        W12570   1.374  44.780  12.944
42690W        W12571  35.431  29.014   4.225
42691W        W12572  19.108  17.262  11.523
42692W        W12573  15.796  44.407   4.129
42693W        W12574  37.493  24.230  13.407
42694W        W12575   3.912   4.288   0.829
42695W        W12576  33.546   3.269   3.766
42696W        W12577  33.413  37.387   4.202
42697W        W12578  18.614  13.189  10.450
42698W        W12579   9.256  18.653   0.935
42699W        W12580  18.648  26.995   4.222
42700W        W12581  36.579  15.709   2.354
42701W        W12582  11.371  29.573  12.409
42702W        W12583  29.615   6.710   3.718
42703W        W12584  27.575  17.232   3.339
42704W        W12585   4.930  36.002   0.419
42705W        W12586  23.015  37.880   4.619
42706W        W12587  32.558  35.581  12.971
42707W        W12588  20.547  35.109   0.378
42708W        W12589  17.257  21.082   1.367
42709W        W12590  44.822  35.957   3.761
42710W        W12591  29.088  42.005   1.410
42711W        W12592   4.730  25.654   1.446
42712W        W12593  21.678  21.114   0.765
42713W        W12594  35.947   1.244  13.884
42714W        W12595   8.720  39.835  12.959
42715W        W12596   6.895  30.051  14.019
42716W        W12597   2.889   1.448  13.803
42717W        W12598   8.281  38.508   0.939
42718W        W12599  35.913  22.203   1.356
42719W        W12600  43.399  11.284   0.754
42720W        W12601   8.837  20.080  14.398
42721W        W12602  26.510  23.581  13.925
42722W        W12603   9.392  44.378   1.793
42723W        W12604  19.235  43.357   2.269
42724W        W12605  31.011  25.168  14.494
42725W        W12606  37.892  23.110  14.405
42726W        W12607   7.675   1.914  13.464
42727W        W12608  40.013  30.657   1.419
42728W        W12609  39.442  35.040   2.848
42729W        W12610   8.756  25.974  12.511
42730W        W12611   2.469  14.106  12.345
42731W        W12612  13.722  31.059  12.074
42732W        W12613   8.896  34.975   1.706
42733W        W12614   0.750  13.227  10.962
42734W        W12615  20.114  37.995   4.145
42735W        W12616   4.699  33.001   9.990
42736W        W12617  15.091   8.208  10.585
42737W        W12618   7.411  12.621   0.762
42738W        W12619   6.388  30.003  11.415
42739W        W12620   2.450  26.968   3.788
42740W        W12621  32.592  23.053   1.346
42741W        W12622  37.848  30.515  12.041
42742W        W12623  16.200  13.689   0.247
42743W        W12624  12.321  32.025  12.426
42744W        W12625  17.089  20.255   1.793
42745W        W12626  29.948   4.408  10.539
42746W        W12627  34.898  29.140  11.902
42747W        W12628  30.943   6.235   0.765
42748W        W12629  19.072  12.176   4.706
42749W        W12630  34.510  22.200   2.713
42750W        W12631   4.892  33.625  11.976
42751W        W12632  16.621  10.873  13.515
42752W        W12633   4.837  41.426  12.884
42753W        W12634  26.481  27.008  12.867
42754W        W12635  27.051  42.836   3.147
42755W        W12636  32.571  15.085   1.385
42756W        W12637  21.040  43.860   1.887
42757W        W12638  37.547  37.075   3.787
42758W        W12639  17.682  29.463  11.096
42759W        W12640  17.072  24.152   4.241
42760W        W12641  23.016   9.356   2.859
42761W        W12642  22.225  33.437  14.780
42762W        W12643  26.118  14.235   1.294
42763W        W12644  38.035  31.447  12.969
42764W        W12645  32.142  42.948   2.316
42765W        W12646   1.846  43.939  12.357
42766W        W12647  32.632  44.848  13.436
42767W        W12648  14.239  15.603   2.721
42768W        W12649  15.704  11.724  12.889
42769W        W12650  14.192  25.664  11.035
42770W        W12651   8.170  12.213   1.835
42771W        W12652   9.742   8.246   2.356
42772W        W12653  26.499   3.941  14.318
42773W        W12654  12.210  17.572  14.844
42774W        W12655  25.507  42.363  10.539
42775W        W12656   7.706  37.348   0.416
42776W        W12657   8.801  22.555   4.290
42777W        W12658  10.831  13.601   2.671
42778W        W12659  40.840  21.517  11.028
42779W        W12660  33.946  20.241  12.505
42780W        W12661   8.295   9.852   0.814
42781W        W12662  28.090   5.819   3.741
42782W        W12663  13.175  38.927  11.100
42783W        W12664  12.640  10.168  10.520
42784W        W12665   9.838  42.470  11.558
42785W        W12666   7.794  31.966   0.784
42786W        W12667   0.362   8.678  12.024
42787W        W12668  35.938  24.559   0.273
42788W        W12669  19.200  24.070  10.449
42789W        W12670  26.698  23.120   2.696
42790W        W12671  18.606  11.218  12.869
42791W        W12672  34.986  25.146  10.142
42792W        W12673  13.292  37.975   3.779
42793W        W12674  10.355  28.981   1.717
42794W        W12675  14.266   4.893   0.297
42795W        W12676  21.041  13.118  12.867
42796W        W12677  37.930  29.512  11.003
42797W        W12678  41.978  26.507  11.429
42798W        W12679  28.153  30.591  13.312
42799W        W12680  36.844  21.019  10.443
42800W        W12681   6.809  32.427   4.238
42801W        W12682  15.230  27.188   1.928
42802W        W12683  27.027  37.341  12.922
42803W        W12684  24.974  10.206  12.928
42804W        W12685  26.182  19.166   2.840
42805W        W12686  11.219  13.330   2.266
42806W        W12687   5.883  42.983  10.427
42807W        W12688   6.879  17.760   2.236
42808W        W12689  35.907  26.681   0.298
42809W        W12690  38.066  34.909  14.887
42810W        W12691  10.782   8.838   1.820
42811W        W12692  25.999  43.426   4.684
42812W        W12693   0.262  14.764   1.349
42813W        W12694  31.074   9.840   0.311
42814W        W12695   4.913   1.732   2.258
42815W        W12696  27.074  39.362   0.431
42816W        W12697  22.606  19.719  13.370
42817W        W12698  20.169  36.085   1.779
42818W        W12699  42.870  24.122   4.623
42819W        W12700  14.161  22.099   2.842
42820W        W12701  15.655  12.628  12.454
42821W        W12702  13.129   3.418   2.809
42822W        W12703  38.034  27.500  12.042
42823W        W12704   8.681  28.014  11.613
42824W        W12705  30.079  34.119   1.266
42825W        W12706  35.977  14.620  11.908
42826W        W12707  26.021  33.107  12.356
42827W        W12708  12.779   6.206   3.368
42828W        W12709  14.748  25.049  13.852
42829W        W12710  10.826  42.029  14.429
42830W        W12711  23.091  40.532   3.152
42831W        W12712  34.452   4.261  13.804
42832W        W12713  13.795   0.862   4.706
42833W        W12714  14.771  27.531  14.919
42834W        W12715  21.161  30.580  11.091
42835W        W12716  21.519  32.910  14.274
42836W        W12717  40.956   8.240  11.012
42837W        W12718  37.504  36.496  13.965
42838W        W12719  15.724  29.039  11.878
42839W        W12720  17.252  30.979   1.330
42840W        W12721   2.935  27.186   3.372
42841W        W12722  29.936   0.862  11.088
42842W        W12723   2.466   9.253  10.511
42843W        W12724  43.834  12.839   0.265
42844W        W12725  20.649  11.699  14.825
42845W        W12726  44.883  42.912   0.257
42846W        W12727   6.892  26.956  10.404
42847W        W12728  38.941   7.881   4.223
42848W        W12729  34.079  13.653   3.188
42849W        W12730   3.894  37.860  12.973
42850W        W12731  30.976  16.259   9.981
42851W        W12732  11.672  28.677   2.861
42852W        W12733  34.386  15.282  10.995
42853W        W12734  41.404  18.065   0.329
42854W        W12735  36.551   8.335   1.245
42855W        W12736  15.615   9.324  12.973
42856W        W12737  25.208   5.895  13.411
42857W        W12738  12.216  18.576   2.769
42858W        W12739  14.715  34.479  13.353
42859W        W12740   1.273   0.330   0.944
42860W        W12741  41.984   2.933   3.803
42861W        W12742  30.529  13.605  14.449
42862W        W12743  16.673  29.087   4.314
42863W        W12744  16.098  31.533   0.371
42864W        W12745  12.337  10.779  13.945
42865W        W12746   8.723   9.345   3.280
42866W        W12747  16.111  28.145  13.865
42867W        W12748  19.153  36.931   3.237
42868W        W12749   6.755  34.533   3.306
42869W        W12750  44.287   0.856   2.294
42870W        W12751  45.000  24.173  14.865
42871W        W12752   0.782  18.618   2.201
42872W        W12753  22.032  25.001   4.735
42873W        W12754  27.138  19.734  12.864
42874W        W12755  27.613  23.098  14.790
42875W        W12756  11.837  37.469  13.346
42876W        W12757   2.237  18.715   2.827
42877W        W12758   3.735  35.557  14.976
42878W        W12759  20.076  29.136   0.246
42879W        W12760   1.970  36.097   2.361
42880W        W12761   7.276   7.285   2.824
42881W        W12762  44.759  14.172   3.809
42882W        W12763   5.362  25.682  13.037
42883W        W12764   7.871  22.051   0.942
42884W        W12765  18.233  37.398  13.398
42885W        W12766   0.457  26.549  12.945
42886W        W12767  40.446  31.048  12.447
42887W        W12768  20.722  29.037   1.269
42888W        W12769   5.266  36.009  14.455
42889W        W12770  25.084  39.398  10.900
42890W        W12771   5.821  11.724   3.192
42891W        W12772  44.899  36.007  12.472
42892W        W12773   4.890   1.875   1.752
42893W        W12774  40.920  38.901   1.801
42894W        W12775  39.315  25.681   0.960
42895W        W12776  18.590  24.687   3.342
42896W        W12777  27.667  33.434   2.257
42897W        W12778  41.491   0.407   4.632
42898W        W12779  15.159  31.915   1.263
42899W        W12780   3.936  30.645   4.154
42900W        W12781  43.927  23.621   1.262
42901W        W12782  18.619  21.574   1.845
42902W        W12783  31.076  28.504  10.493
42903W        W12784  25.103  28.045  11.888
42904W        W12785  17.136   4.890   4.115
42905W        W12786  11.863  38.075   3.173
42906W        W12787  19.635  40.320   2.225
42907W        W12788  39.872  38.455  11.884
42908W        W12789   0.491  33.047   2.791
42909W        W12790  41.372  19.278  12.878
42910W        W12791   9.761  22.520   3.831
42911W        W12792  30.991   3.331  10.916
42912W        W12793  37.927  39.469  13.544
42913W        W12794  39.050  24.699  14.000
42914W        W12795   7.774   9.213   2.240
42915W        W12796  43.837  34.885  13.455
42916W        W12797   4.910  32.960   0.475
42917W        W12798   6.699  11.253  14.439
42918W        W12799  17.174  24.215  10.961
42919W        W12800  10.638  26.646   3.825
42920W        W12801  36.898  41.857   2.403
42921W        W12802  33.506   4.261   2.741
42922W        W12803  27.104  33.620  11.079
42923W        W12804  23.646  18.141  11.447
42924W        W12805  37.384  25.711  13.957
42925W        W12806  27.607  43.921  11.455
42926W        W12807   9.203   2.874   0.331
42927W        W12808  11.671  35.098   1.740
42928W        W12809  28.929  14.341   1.354
42929W        W12810  21.638  12.168  14.448
42930W        W12811  19.121  37.945   4.690
42931W        W12812  26.004  10.383  12.481
42932W        W12813   7.817  23.232  13.924
42933W        W12814   9.822  15.666  12.994
42934W        W12815  11.266  41.966  14.989
42935W        W12816  34.937  34.903  10.416
42936W        W12817  11.773  32.127  11.936
42937W        W12818  41.484   0.969  14.432
42938W        W12819  16.685  28.559   4.233
42939W        W12820  13.719  38.012   4.648
42940W        W12821   6.310  16.745  14.778
42941W        W12822  15.259  31.447  14.415
42942W        W12823   4.321  14.808   3.869
42943W        W12824  21.063  21.205   4.675
42944W        W12825  26.598  39.936   9.959
42945W        W12826  25.646  31.465  11.378
42946W        W12827  14.095  44.837  13.412
42947W        W12828  19.699  18.619  10.626
42948W        W12829  35.416  42.933   1.343
42949W        W12830  21.186  32.572   3.747
42950W        W12831   8.264  27.136   0.758
42951W        W12832  20.687  32.547   4.257
42952W        W12833  38.877  44.930  13.414
42953W        W12834   9.201  15.269  11.936
42954W        W12835  29.937  15.710  10.540
42955W        W12836  21.017  23.058  11.872
42956W        W12837  17.694  13.660  12.902
42957W        W12838  21.722  35.450  11.043
42958W        W12839  30.146  14.699  10.443
42959W        W12840  20.573  31.964  12.886
42960W        W12841   6.784   6.398  13.378
42961W        W12842   9.738  30.566  13.441
42962W        W12843   9.284  14.110   2.306
42963W        W12844  27.150  38.340  11.043
42964W        W12845  40.036   9.645  13.464
42965W        W12846  24.110  33.989   2.195
42966W        W12847  14.328  14.798   0.472
42967W        W12848  19.053  42.407   2.786
42968W        W12849  24.627  11.242  11.064
42969W        W12850  26.061  43.902  12.962
42970W        W12851  42.283   5.280   4.214
42971W        W12852  35.993  40.973  14.912
42972W        W12853  12.818  35.960  13.381
42973W        W12854  14.756  25.637  12.030
42974W        W12855  42.469  18.127   0.304
42975W        W12856   2.767  39.027  13.370
42976W        W12857  44.860  21.713  13.890
42977W        W12858   7.327  26.555  12.858
42978W        W12859  43.906  24.567   2.799
42979W        W12860  13.181  41.791   2.388
42980W        W12861  37.953  36.936   0.949
42981W        W12862  12.654   4.206   2.713
42982W        W12863  42.964  27.529   3.321
42983W        W12864   3.722  32.003  10.404
42984W        W12865  24.203  28.086   1.405
42985W        W12866  37.838  11.151   2.368
42986W        W12867  42.946  24.622   0.755
42987W        W12868  25.054   1.936  11.128
42988W        W12869  42.816   0.868  11.434
42989W        W12870  16.085  25.185   2.223
42990W        W12871  32.438   9.151  13.375
42991W        W12872  16.621   1.278  13.939
42992W        W12873  37.016  37.384   0.830
42993W        W12874  26.116  34.000  14.015
42994W        W12875  34.948   4.439   1.297
42995W        W12876  37.002  10.847   1.705
42996W        W12877  33.072  32.538   0.860
42997W        W12878  38.076  18.241   0.290
42998W        W12879   4.303   8.384   2.804
42999W        W12880  14.237  41.372   1.368
43000W        W12881  44.928  28.604  14.884
43001W        W12882   7.372  16.696   1.873
43002W        W12883  20.601  13.815   0.899
43003W        W12884  23.669  32.102  13.831
43004W        W12885  22.565  39.848   1.314
43005W        W12886  11.306   4.298   2.204
43006W        W12887   9.209   0.847   4.676
43007W        W12888   9.709   3.735  14.484
43008W        W12889  25.556   4.420  14.515
43009W        W12890   1.284  16.670   1.757
43010W        W12891  22.209  32.123  13.934
43011W        W12892  24.624  14.161  13.905
43012W        W12893  35.066   8.333  12.007
43013W        W12894  31.140  22.018  11.971
43014W        W12895   8.194  41.326  10.455
43015W        W12896  29.440  22.711  10.009
43016W        W12897  29.634  12.164  11.997
43017W        W12898  27.567   2.378  10.437
43018W        W12899   1.465  22.616   2.303
43019W        W12900   4.209  24.058   2.849
43020W        W12901  41.831  34.595   4.803
43021W        W12902  36.588  30.001  13.005
43022W        W12903  19.258  23.698   0.243
43023W        W12904  31.590   4.237   0.782
43024W        W12905  26.038  16.659   2.684
43025W        W12906   2.941  25.614   1.435
43026W        W12907  39.957  35.994  11.526
43027W        W12908  22.575  44.983   4.639
43028W        W12909  41.978  36.062   3.204
43029W        W12910   0.801  34.012  14.927
43030W        W12911   1.744  17.714   2.366
43031W        W12912  36.086   8.707  11.601
43032W        W12913  22.582   3.414  14.509
43033W        W12914  43.009  26.546   0.432
43034W        W12915  11.815   9.713  10.592
43035W        W12916  28.076  39.317  14.968
43036W        W12917  31.632  44.783  11.472
43037W        W12918  35.410  13.131   3.157
43038W        W12919  36.389   7.194   2.317
43039W        W12920  32.523  12.667  13.986
43040W        W12921  16.272  21.693  12.012
43041W        W12922  16.670   4.361   0.476
43042W        W12923  41.312  15.192   1.236
43043W        W12924  30.474  18.727   0.766
43044W        W12925   6.737  38.021  12.051
43045W        W12926   2.804  42.374   2.677
43046W        W12927  18.635   5.717  13.474
43047W        W12928   4.941  32.970  14.436
43048W        W12929  26.469  11.320   4.810
43049W        W12930  16.179   6.689  13.061
43050W        W12931  34.106  24.205  13.856
43051W        W12932  29.451  12.718   4.688
43052W        W12933  30.080   3.779  13.472
43053W        W12934  18.606   2.810  10.490
43054W        W12935   5.355  10.250   0.806
43055W        W12936   4.827   4.811  13.380
43056W        W12937  34.599  25.473  10.527
43057W        W12938  41.351   4.431  13.908
43058W        W12939   0.749   6.307  13.966
43059W        W12940  38.982  25.532   2.761
43060W        W12941  37.855  26.144  12.386
43061W        W12942   9.680  30.448   3.336
43062W        W12943  13.178  37.890   4.714
43063W        W12944  30.507  37.434   2.899
43064W        W12945   9.883  44.456  13.484
43065W        W12946   1.794  39.536   2.263
43066W        W12947  12.290  42.463  12.955
43067W        W12948  18.235  15.652  13.356
43068W        W12949  37.418   5.838  11.519
43069W        W12950  37.967  44.341   1.787
43070W        W12951   3.388  36.949  14.824
43071W        W12952  21.601   1.896  11.103
43072W        W12953   0.972  21.226  12.001
43073W        W12954   1.249   6.425   3.754
43074W        W12955   5.416  28.953  12.891
43075W        W12956  12.316  40.901  12.397
43076W        W12957  11.684   3.453  14.975
43077W        W12958  29.663   8.244  13.387
43078W        W12959   3.840  19.132  13.952
43079W        W12960  16.700   2.839   4.222
43080W        W12961  37.046  25.054   4.612
43081W        W12962  19.098   7.273   1.931
43082W        W12963  20.586  38.035  10.451
43083W        W12964  44.009  26.587   2.842
43084W        W12965  11.628  21.160  14.355
43085W        W12966  38.551   0.942   9.591
43086W        W12967  42.805  21.703  11.409
43087W        W12968  16.306  38.377  12.416
43088W        W12969  32.435   1.919   2.255
43089W        W12970  28.953  19.089  12.066
43090W        W12971  34.078  21.538  10.445
43091W        W12972  41.312   4.904   0.731
43092W        W12973  25.022  27.586  10.010
43093W        W12974  27.553   1.438  12.401
43094W        W12975   1.450  18.587   3.713
43095W        W12976  25.154  28.666   4.354
43096W        W12977  35.860   7.376   3.711
43097W        W12978  11.235   7.291  13.329
43098W        W12979  25.190  24.169  12.980
43099W        W12980   9.319  37.365   3.833
43100W        W12981  16.126  12.237  14.466
43101W        W12982  41.040  35.362   0.281
43102W        W12983   6.362   4.238  10.633
43103W        W12984  29.022  22.616   3.269
43104W        W12985  27.048  43.419   0.274
43105W        W12986  13.327  18.625  14.781
43106W        W12987  23.034   1.941   2.277
43107W        W12988   6.348  36.367  11.515
43108W        W12989  34.608  40.021  13.477
43109W        W12990  33.600   8.349  11.610
43110W        W12991   2.939  32.422   3.675
43111W        W12992   2.472   2.322   4.308
43112W        W12993   7.795   0.827   4.718
43113W        W12994   1.847  10.724   1.891
43114W        W12995  14.103  23.589   2.846
43115W        W12996  16.238  22.574  11.955
43116W        W12997  36.855   1.806  13.486
43117W        W12998   5.267  30.551   0.448
43118W        W12999  18.753  20.584   4.627
43119W        W13000  33.588  16.146   2.895
43120W        W13001  38.890  38.416   1.926
43121W        W13002  40.548  12.816   5.161
43122W        W13003  13.176   7.667   3.371
43123W        W13004   0.781  10.784  12.536
43124W        W13005   9.302  26.036  14.780
43125W        W13006  26.690  14.309   3.163
43126W        W13007  41.005   2.916  14.813
43127W        W13008   7.215  29.552  12.860
43128W        W13009  32.001  16.308  13.358
43129W        W13010  44.297  13.634  10.520
43130W        W13011  18.195  29.959   1.779
43131W        W13012  31.450  10.754  14.449
43132W        W13013  25.709  11.722  12.369
43133W        W13014  33.549  18.054  14.361
43134W        W13015  40.011  35.378   3.741
43135W        W13016  11.359  22.011  12.947
43136W        W13017  19.112  26.983  11.015
43137W        W13018  38.858  25.042   2.255
43138W        W13019   2.343  34.597   0.808
43139W        W13020  27.619  21.051  11.412
43140W        W13021  20.235   5.290  13.440
43141W        W13022  27.529  22.650   2.895
43142W        W13023  27.506  19.258   3.380
43143W        W13024  29.059   6.229  10.072
43144W        W13025  42.838  42.425  12.999
43145W        W13026  30.514  12.211  12.937
43146W        W13027  28.066   0.386  10.416
43147W        W13028  19.276  11.237  10.531
43148W        W13029   6.299   4.903   4.213
43149W        W13030  44.830  34.888  14.975
43150W        W13031  41.935  16.796  14.476
43151W        W13032  11.669  16.293   4.756
43152W        W13033  44.799  19.744   0.319
43153W        W13034  41.364  35.413  12.367
43154W        W13035  11.768  12.256   3.212
43155W        W13036  25.700  36.514   4.833
43156W        W13037  38.331  15.125   0.354
43157W        W13038  34.108  33.100  14.911
43158W        W13039   1.353   8.706   1.741
43159W        W13040  31.086  27.016   1.894
43160W        W13041  37.509  11.726  14.457
43161W        W13042  12.319   6.232   4.799
43162W        W13043   5.218   7.364  11.108
43163W        W13044   2.350  42.469   1.311
43164W        W13045  16.165  25.080  13.379
43165W        W13046  29.130  22.508   0.455
43166W        W13047  19.213   3.321   1.856
43167W        W13048  44.471  19.052  14.780
43168W        W13049  29.041   5.427   4.624
43169W        W13050  11.143   4.762  14.435
43170W        W13051  22.010  32.623   3.742
43171W        W13052  44.292  32.891   2.186
43172W        W13053  11.634   6.719   3.858
43173W        W13054  33.381  28.965  11.564
43174W        W13055  42.863  21.661  14.336
43175W        W13056  42.428  27.079  14.981
43176W        W13057  44.464  16.091   3.340
43177W        W13058   6.854   1.400   0.954
43178W        W13059  27.608  37.447  14.361
43179W        W13060  24.614  37.993   4.607
43180W        W13061  42.361  19.623   4.308
43181W        W13062  34.954   7.304   2.760
43182W        W13063   0.923  34.050   1.829
43183W        W13064  17.641  37.500  10.959
43184W        W13065  40.887  22.169   2.178
43185W        W13066   2.237  12.774   4.164
43186W        W13067  28.617  20.640   0.267
43187W        W13068  15.800   8.870  10.409
43188W        W13069  12.327  28.965  12.019
43189W        W13070  30.647   3.872  11.087
43190W        W13071  39.463  10.677   4.706
43191W        W13072  42.520  44.449   0.321
43192W        W13073  40.397  34.897  12.012
43193W        W13074   2.949  33.507  10.621
43194W        W13075   8.303  25.507  13.818
43195W        W13076  23.075   0.828   2.873
43196W        W13077  30.642  41.370  13.409
43197W        W13078   8.258  43.020   4.749
43198W        W13079  39.346  25.188   4.711
43199W        W13080   5.769   4.799   0.942
43200W        W13081  37.912  33.955  11.933
43201W        W13082  12.814  41.936  10.940
43202W        W13083  36.882  24.491  11.065
43203W        W13084   8.387  34.918   4.287
43204W        W13085  40.045  38.347   1.370
43205W        W13086  37.070  14.811   3.825
43206W        W13087  29.581  39.996   4.328
43207W        W13088  33.902  25.029  13.993
43208W        W13089  35.019  25.093   2.194
43209W        W13090   5.292  43.820  14.276
43210W        W13091  23.514   1.917  13.371
43211W        W13092  20.677   8.371   4.298
43212W        W13093   6.405  26.547  14.346
43213W        W13094  21.132   7.775  13.453
43214W        W13095  24.129  25.019   4.812
43215W        W13096  12.734  27.661   4.716
43216W        W13097  32.510  43.021  13.881
43217W        W13098  28.074  21.513   4.787
43218W        W13099   0.306  38.497  10.643
43219W        W13100  22.734   8.253  11.590
43220W        W13101  35.896  36.046   2.844
43221W        W13102  32.011  15.102   2.339
43222W        W13103  18.258  26.542   4.673
43223W        W13104  34.431   6.374   0.904
43224W        W13105  23.181  24.200   0.864
43225W        W13106  38.012  43.793  11.917
43226W        W13107  21.230  11.327  13.416
43227W        W13108  34.477  35.488   0.831
43228W        W13109   8.753   0.745  10.976
43229W        W13110  38.894  29.518   4.168
43230W        W13111   5.287  38.339  11.425
43231W        W13112  42.415  12.339   2.312
43232W        W13113  12.630  33.897   0.420
43233W        W13114  12.793  16.666   0.785
43234W        W13115  40.049  26.076  14.901
43235W        W13116   5.276  26.037   4.676
43236W        W13117  32.933  15.809   2.265
43237W        W13118  33.607  36.423  14.466
43238W        W13119  33.876  30.413  14.417
43239W        W13120  44.936   1.881   1.212
43240W        W13121  15.704  22.090   3.676
43241W        W13122  39.043  32.996   2.365
43242W        W13123  35.576   5.396   0.908
43243W        W13124  28.186   8.713   4.719
43244W        W13125  42.439  16.638   0.808
43245W        W13126  40.883   6.867  12.993
43246W        W13127  23.094  35.585   0.355
43247W        W13128   7.246  28.675  13.945
43248W        W13129  29.612  20.161  12.497
43249W        W13130  10.236   9.308  10.480
43250W        W13131  13.260  16.110  11.966
43251W        W13132   0.781  31.923   1.378
43252W        W13133  43.327  21.184  14.004
43253W        W13134  19.170  21.227   2.400
43254W        W13135  18.215  43.950  11.457
43255W        W13136  23.649  38.951   4.788
43256W        W13137  40.915  30.476  14.948
43257W        W13138  38.034  11.656   2.811
43258W        W13139  20.696   1.966  14.313
43259W        W13140  40.047   1.366   1.350
43260W        W13141  26.612  38.361   0.885
43261W        W13142   2.820  18.155   4.224
43262W        W13143  23.606  13.130   4.762
43263W        W13144  32.500  27.147   4.654
43264W        W13145  39.881  35.584  11.977
43265W        W13146  21.188   4.369   2.347
43266W        W13147  34.459  30.908  12.531
43267W        W13148   6.255  10.765  12.908
43268W        W13149  44.979  37.509  14.358
43269W        W13150  11.832  29.102  13.463
43270W        W13151  12.665  37.474   5.095
43271W        W13152  19.731  37.056  12.093
43272W        W13153  15.801  18.672  11.066
43273W        W13154  22.042  18.633   0.423
43274W        W13155   5.852  33.578   2.881
43275W        W13156  41.296  40.030   3.168
43276W        W13157  34.946  16.666  14.886
43277W        W13158  34.508  20.072   1.793
43278W        W13159  17.220  17.281  14.387
43279W        W13160  27.455  31.037  11.422
43280W        W13161  42.453   8.712  11.420
43281W        W13162  16.651  19.122   2.262
43282W        W13163  43.826  40.887  13.968
43283W        W13164  28.670  39.817  13.542
43284W        W13165  39.432  43.779   1.778
43285W        W13166   1.274   8.201   1.902
43286W        W13167  25.636  18.156   4.306
43287W        W13168  11.235   9.248   1.780
43288W        W13169  23.116   0.863   4.307
43289W        W13170  42.347  21.182   3.357
43290W        W13171   7.256  23.154   1.877
43291W        W13172  18.564  44.897  12.362
43292W        W13173  33.074  13.343  10.941
43293W        W13174  33.590  36.370   0.471
43294W        W13175  10.694  17.759   0.794
43295W        W13176  36.444   2.438  11.971
43296W        W13177  16.795   4.389  11.918
43297W        W13178  40.379  44.416  14.797
43298W        W13179  20.667  25.047   0.472
43299W        W13180  18.087  22.198   2.761
43300W        W13181  14.665  22.524   2.225
43301W        W13182  26.579  15.661   4.280
43302W        W13183   3.240  10.362  10.447
43303W        W13184  40.005  19.178   4.664
43304W        W13185  44.489   9.778  10.904
43305W        W13186  24.191  16.261   2.227
43306W        W13187  43.393   9.309   4.297
43307W        W13188  39.826  11.719  12.432
43308W        W13189  41.467  23.621  14.878
43309W        W13190  28.458  18.121   2.258
43310W        W13191  12.751  39.061  14.952
43311W        W13192  41.963  12.314  13.331
43312W        W13193  21.248  29.568   4.786
43313W        W13194  24.113  42.418   4.234
43314W        W13195  24.603   6.305  14.003
43315W        W13196  25.488   0.765   0.786
43316W        W13197   3.346  29.606   1.302
43317W        W13198  37.853   9.268  10.549
43318W        W13199  25.503  42.913  13.854
43319W        W13200  44.791  10.282   4.169
43320W        W13201  34.380   7.708   1.278
43321W        W13202  10.748   2.900   1.439
43322W        W13203   1.458   0.963  12.341
43323W        W13204  32.899  30.506  11.077
43324W        W13205   9.784  24.636   2.224
43325W        W13206  11.293  29.631   2.210
43326W        W13207   8.761  17.780  14.383
43327W        W13208  42.931  17.617  14.299
43328W        W13209  38.959  42.415   1.761
43329W        W13210  44.778  30.591   3.852
43330W        W13211  20.599  42.898   9.932
43331W        W13212  33.117  15.219   0.754
43332W        W13213   9.249  22.101  11.535
43333W        W13214  31.633  23.226  10.601
43334W        W13215  31.986  39.867  14.977
43335W        W13216  33.129  26.138   3.668
43336W        W13217  33.524  35.986   1.342
43337W        W13218  29.162   6.201   2.368
43338W        W13219  21.065  39.061   3.341
43339W        W13220   3.845  35.544   4.327
43340W        W13221  36.451  43.440  11.029
43341W        W13222  15.617  39.995   1.368
43342W        W13223  22.532  10.785  13.420
43343W        W13224  40.820  10.740  14.929
43344W        W13225  38.328   1.421  14.423
43345W        W13226  20.632   3.419   3.839
43346W        W13227  43.900   6.252  12.393
43347W        W13228  41.416  16.692   4.212
43348W        W13229  21.533  19.666   2.312
43349W        W13230  32.610  33.085   1.815
43350W        W13231  28.157  30.466  12.381
43351W        W13232  32.920  22.049  13.809
43352W        W13233  25.695  15.698   4.692
43353W        W13234   6.300  29.040  14.907
43354W        W13235  42.801  28.495   1.244
43355W        W13236  18.737  10.657   2.243
43356W        W13237   0.273   3.749   2.275
43357W        W13238  25.016  10.232  13.429
43358W        W13239  37.441   9.757  10.480
43359W        W13240  11.715  24.156   3.719
43360W        W13241   5.692  10.191   4.157
43361W        W13242   4.208  42.482  11.858
43362W        W13243  24.028  25.664   3.654
43363W        W13244  42.809  28.454  10.612
43364W        W13245  19.751  16.226   4.723
43365W        W13246  11.331  19.734   4.351
43366W        W13247  14.705  23.681  12.465
43367W        W13248  30.162  35.566  11.930
43368W        W13249  34.932  14.823   4.214
43369W        W13250  14.147  41.846   2.892
43370W        W13251  14.776  41.519  10.597
43371W        W13252  36.508  38.035  12.539
43372W        W13253  20.185  13.275   0.410
43373W        W13254  42.940  22.071  12.945
43374W        W13255  11.680  14.687  12.381
43375W        W13256  21.731  40.943   1.399
43376W        W13257  29.607  26.623   1.747
43377W        W13258   9.786  13.790   3.656
43378W        W13259  26.091  37.921   3.353
43379W        W13260  19.136  43.333  13.362
43380W        W13261   3.399  43.927   2.378
43381W        W13262   0.354  29.533  13.546
43382W        W13263  21.219  11.165   0.773
43383W        W13264  34.538  26.973  12.946
43384W        W13265  33.004  18.736   1.333
43385W        W13266  10.798  40.395  12.862
43386W        W13267  11.164  38.835   0.310
43387W        W13268  35.431  39.029  13.380
43388W        W13269   1.890  13.165   2.877
43389W        W13270  37.003   9.700   1.813
43390W        W13271  15.167  30.557  14.878
43391W        W13272   2.249   2.744   3.727
43392W        W13273  33.923  29.028   0.771
43393W        W13274  26.018   8.330   0.380
43394W        W13275   1.300  26.463  14.945
43395W        W13276  14.268  14.334  14.301
43396W        W13277  18.575   4.844  12.568
43397W        W13278  18.214   4.906   2.263
43398W        W13279  44.419  33.020  11.953
43399W        W13280   5.838  33.482   3.205
43400W        W13281  40.500  44.786  10.559
43401W        W13282  10.226  24.559   4.818
43402W        W13283  20.055   8.847  11.013
43403W        W13284  26.654  16.292   4.114
43404W        W13285  15.194  44.777  10.906
43405W        W13286  18.570   5.784   1.822
43406W        W13287  42.896   5.807  10.582
43407W        W13288  24.073  38.426   1.804
43408W        W13289   2.355  28.567   4.714
43409W        W13290  31.922  28.007  11.597
43410W        W13291  30.611  18.274  10.913
43411W        W13292  13.617  15.215  11.073
43412W        W13293   2.901  38.914   2.203
43413W        W13294   5.348   9.250  14.510
43414W        W13295  25.557   2.433   1.819
43415W        W13296  37.966   3.219   0.870
43416W        W13297  23.645   5.691  10.900
43417W        W13298  10.141  25.531  13.518
43418W        W13299  33.939   5.865  11.090
43419W        W13300  20.101  25.131  12.828
43420W        W13301  10.771  12.759  13.993
43421W        W13302  16.195  17.637   4.784
43422W        W13303  26.611  18.248  11.981
43423W        W13304   3.776  24.649   4.803
43424W        W13305  29.923  20.551  13.804
43425W        W13306  28.567  18.591  10.437
43426W        W13307  39.366  21.670   4.148
43427W        W13308  17.774  16.663   1.782
43428W        W13309  26.149  10.798  12.052
43429W        W13310  35.533   9.723  14.301
43430W        W13311  16.805  15.243   1.318
43431W        W13312  44.776  43.013  14.881
43432W        W13313  11.650  19.612  10.084
43433W        W13314  42.826   0.823   4.764
43434W        W13315  21.032  12.127   2.901
43435W        W13316  38.044  20.730   0.277
43436W        W13317  28.075  39.358  12.469
43437W        W13318  15.184  20.028  11.399
43438W        W13319  44.353  35.049   0.438
43439W        W13320   2.393  25.182   1.297
43440W        W13321  34.907  28.055   0.732
43441W        W13322   9.376  41.010  10.887
43442W        W13323  19.701   5.213   1.397
43443W        W13324   8.884  10.825  11.593
43444W        W13325   4.891  36.031  10.123
43445W        W13326  12.720  33.992   4.251
43446W        W13327  24.549  39.944  14.928
43447W        W13328  39.846  15.664   3.169
43448W        W13329  41.824  40.870   3.166
43449W        W13330   0.888  32.632  11.070
43450W        W13331  21.644  30.479  14.889
43451W        W13332  18.208  15.605   4.245
43452W        W13333  29.146  19.562   0.358
43453W        W13334  32.902  34.599   0.457
43454W        W13335  24.092  21.614  12.388
43455W        W13336  42.503   1.814   0.251
43456W        W13337  31.548  36.432   2.416
43457W        W13338  24.222  16.574  11.442
43458W        W13339  41.044  16.104   3.313
43459W        W13340   4.340  43.326  13.355
43460W        W13341  42.903  18.651  11.868
43461W        W13342  10.254  40.500   0.308
43462W        W13343  25.191   0.862  14.489
43463W        W13344  41.874  33.059  14.489
43464W        W13345   0.267  38.960  14.424
43465W        W13346   5.805  34.397   3.732
43466W        W13347  17.171   4.252   0.397
43467W        W13348  28.185  11.239   3.838
43468W        W13349  21.028  39.411   2.195
43469W        W13350  16.185  17.127   4.777
43470W        W13351  31.076   9.149   0.478
43471W        W13352   3.738   0.924  11.115
43472W        W13353  30.038  31.016   3.785
43473W        W13354  38.455  24.176   3.630
43474W        W13355  40.833  37.469   3.641
43475W        W13356  14.640   3.246   0.403
43476W        W13357  44.386   6.373   2.849
43477W        W13358  11.747  15.271  14.466
43478W        W13359  24.542   5.759  13.044
43479W        W13360  42.945  12.191  11.522
43480W        W13361  23.694  16.084   4.250
43481W        W13362  17.074  29.128  14.891
43482W        W13363  30.058  27.080   3.868
43483W        W13364  42.788  25.035  14.457
43484W        W13365  33.466  11.363   1.760
43485W        W13366  23.112  17.287   5.126
43486W        W13367  20.216  40.328  10.079
43487W        W13368  13.758  44.935   3.679
43488W        W13369  13.267  37.553  13.054
43489W        W13370  27.192   9.831   2.214
43490W        W13371  26.630  35.537  13.364
43491W        W13372  21.571  41.883   2.788
43492W        W13373  27.459  11.291   3.157
43493W        W13374  17.246  10.341  10.563
43494W        W13375  25.477  21.602   0.960
43495W        W13376  43.338  40.447  10.500
43496W        W13377  10.634  17.725  14.873
43497W        W13378  25.073  20.209   1.733
43498W        W13379   3.809   3.274  14.414
43499W        W13380  42.860   5.217   3.830
43500W        W13381  42.291  13.665  12.506
43501W        W13382  23.040  18.159   4.291
43502W        W13383  16.731  32.100   1.921
43503W        W13384  31.472   1.334   1.869
43504W        W13385   9.832   2.843  11.445
43505W        W13386   0.903  43.809   2.410
43506W        W13387  11.284  39.811   1.868
43507W        W13388  29.102   9.341  14.998
43508W        W13389   9.744  13.212   3.663
43509W        W13390  18.220  20.096  11.468
43510W        W13391   6.681  16.755   4.250
43511W        W13392  19.204  43.921   1.815
43512W        W13393  44.442  35.604  11.556
43513W        W13394  44.986  18.650   4.601
43514W        W13395  33.553  10.328   5.141
43515W        W13396  30.072  31.610   3.772
43516W        W13397   4.901  35.887   0.772
43517W        W13398  16.634  40.979   0.294
43518W        W13399  22.028  28.633   4.637
43519W        W13400  23.146   7.406   3.219
43520W        W13401  29.085  24.579  13.315
43521W        W13402  32.888  33.881  11.959
43522W        W13403  12.297  13.194   4.738
43523W        W13404  28.047   6.902   0.380
43524W        W13405   4.749  24.519  13.523
43525W        W13406   6.716  14.305   3.803
43526W        W13407   1.931  24.556   0.878
43527W        W13408  21.668  30.940   3.680
43528W        W13409   8.788  42.021  10.434
43529W        W13410   8.699  28.487   1.219
43530W        W13411  23.718  11.193  11.123
43531W        W13412  26.683  27.062   0.273
43532W        W13413   4.433  39.840  11.528
43533W        W13414  36.084  13.846   3.679
43534W        W13415  28.996  31.930   1.782
43535W        W13416   7.721  31.443   4.631
43536W        W13417  39.360   5.756   0.838
43537W        W13418  39.999  37.401   2.260
43538W        W13419  35.548  21.584   1.290
43539W        W13420   2.449   9.232  12.924
43540W        W13421  25.991   2.254   1.269
43541W        W13422   1.330  30.500   2.710
43542W        W13423  19.203  10.175   0.290
43543W        W13424  21.562  44.002   4.136
43544W        W13425  21.717   7.742  13.871
43545W        W13426  12.615  11.638  11.501
43546W        W13427  27.688  23.242  12.844
43547W        W13428  19.588  14.746  14.505
43548W        W13429  31.077  26.094   3.153
43549W        W13430   3.715  17.127   2.827
43550W        W13431  28.132  24.675   0.844
43551W        W13432  27.612   9.205   4.715
43552W        W13433  11.368  17.556   4.353
43553W        W13434   4.918  34.911  14.348
43554W        W13435  21.085   9.724  13.830
43555W        W13436  41.909   1.260  12.348
43556W        W13437   4.231  38.973  10.563
43557W        W13438   3.286  27.466   3.699
43558W        W13439  19.040  38.427  11.390
43559W        W13440  26.517  21.263   4.664
43560W        W13441  33.931   8.267   4.670
43561W        W13442  35.478  26.973  12.417
43562W        W13443  18.103   9.697  12.047
43563W        W13444  20.081   5.239   1.449
43564W        W13445  35.015  40.303   5.245
43565W        W13446  22.655   0.471   5.219
43566W        W13447  42.026  39.436  11.953
43567W        W13448  19.069   0.400   1.416
43568W        W13449   8.339  20.540  12.869
43569W        W13450   1.309   8.292   4.815
43570W        W13451  22.547  35.417  10.439
43571W        W13452  44.394  13.833  13.794
43572W        W13453  17.172  28.611  12.000
43573W        W13454  28.573  26.566   2.730
43574W        W13455  33.920  18.158   4.209
43575W        W13456  40.401  16.251  14.860
43576W        W13457  42.402   6.839   3.306
43577W        W13458   7.266  38.825  12.342
43578W        W13459  39.843  27.644  14.804
43579W        W13460  16.184   9.340  10.619
43580W        W13461  14.681  42.002  10.439
43581W        W13462   8.737  33.107   1.263
43582W        W13463  32.620  23.708   1.813
43583W        W13464  22.035  42.411   4.810
43584W        W13465  41.535  42.939   0.399
43585W        W13466  42.777  28.166  12.406
43586W        W13467  33.527  15.680   4.785
43587W        W13468  38.524   2.375   3.778
43588W        W13469  42.970  20.748  12.460
43589W        W13470  26.162  39.391   1.774
43590W        W13471   1.397  16.745  11.472
43591W        W13472  21.695  16.761  10.034
43592W        W13473  24.484  40.367  13.957
43593W        W13474   5.369  34.450  14.015
43594W        W13475  40.956  12.321  11.873
43595W        W13476   0.424  33.461  11.423
43596W        W13477   6.864   2.825  14.383
43597W        W13478   6.239   8.892   1.236
43598W        W13479  26.090  32.036   4.228
43599W        W13480  13.794  13.621   4.799
43600W        W13481  17.278  24.193  12.068
43601W        W13482  15.642  18.159  10.941
43602W        W13483  34.446  38.560   0.926
43603W        W13484  23.097  17.757  10.937
43604W        W13485  29.998  21.031  11.507
43605W        W13486  16.618   5.337   1.257
43606W        W13487   7.839  29.631  14.765
43607W        W13488  38.424  28.969   3.791
43608W        W13489  24.542  39.042   2.245
43609W        W13490  25.081  24.100  11.554
43610W        W13491  20.727  23.571   4.773
43611W        W13492  31.406   1.863   0.372
43612W        W13493  11.242   6.918  13.812
43613W        W13494  24.181  13.661  11.122
43614W        W13495   5.931  38.559  14.317
43615W        W13496  13.162   3.386  13.921
43616W        W13497  30.988  23.220  10.954
43617W        W13498   1.258  28.537   1.266
43618W        W13499   1.881  22.572   2.375
43619W        W13500  18.202  16.290  11.084
43620W        W13501  36.432  28.534   0.822
43621W        W13502  19.572  13.235   3.662
43622W        W13503   2.892  24.085  10.547
43623W        W13504   5.205  15.092   4.228
43624W        W13505   0.451  25.661  14.024
43625W        W13506  21.526  30.081   1.277
43626W        W13507  21.162   0.775   0.858
43627W        W13508   8.659  34.507  12.464
43628W        W13509  18.639  10.846  14.283
43629W        W13510  38.937   1.483   5.221
43630W        W13511  14.282  41.307  14.910
43631W        W13512  42.878  17.178  10.576
43632W        W13513  10.249   2.229  12.948
43633W        W13514  39.442   9.822   0.337
43634W        W13515  32.536   7.825  11.027
43635W        W13516  42.356  25.636   3.342
43636W        W13517  14.233  26.619  12.542
43637W        W13518  36.585  26.618   5.301
43638W        W13519  19.694  36.081   0.746
43639W        W13520  10.336  11.280  14.403
43640W        W13521  39.922   3.777   2.829
43641W        W13522  15.093   2.801   2.296
43642W        W13523  36.946  24.119  11.024
43643W        W13524  33.887  10.861   1.857
43644W        W13525  34.918  23.140   4.160
43645W        W13526  35.992  15.583   1.222
43646W        W13527  23.196  10.283   9.991
43647W        W13528  15.651  34.465  11.532
43648W        W13529  16.146   0.414   4.694
43649W        W13530  22.730   9.179  13.344
43650W        W13531  38.948  23.692   1.428
43651W        W13532  39.327   7.313   1.877
43652W        W13533   6.848  27.079   1.813
43653W        W13534  35.981  16.612  14.880
43654W        W13535  10.266  28.944   0.788
43655W        W13536  43.776  34.011  12.498
43656W        W13537  14.621  37.856  11.537
43657W        W13538  14.137  12.737  11.413
43658W        W13539  18.676  35.384  13.346
43659W        W13540  16.305  37.425   1.303
43660W        W13541  39.442  41.376  14.323
43661W        W13542  10.369  16.795  12.522
43662W        W13543   0.263   6.303   1.818
43663W        W13544  13.273  22.574  14.950
43664W        W13545  42.455  27.540   1.703
43665W        W13546  26.492  33.124   4.714
43666W        W13547  10.677  24.663   0.811
43667W        W13548  18.192   4.331   0.402
43668W        W13549   1.821   0.271  12.878
43669W        W13550  40.480  34.467   4.354
43670W        W13551   1.482  38.452  14.964
43671W        W13552  33.617  43.388   1.707
43672W        W13553   9.691   9.271  14.857
43673W        W13554  29.964  17.163  10.426
43674W        W13555  43.451  28.658  14.461
43675W        W13556  12.830   7.703   2.680
43676W        W13557  43.946  20.690  12.571
43677W        W13558   9.749  41.813   3.163
43678W        W13559   2.931   5.911   2.746
43679W        W13560  39.023  35.928  10.024
43680W        W13561   3.888  40.020   2.839
43681W        W13562  27.622   8.829  13.367
43682W        W13563  37.478  37.912  13.916
43683W        W13564  39.557  18.552  14.950
43684W        W13565  34.935   9.866  14.426
43685W        W13566   0.380  38.356   3.366
43686W        W13567  25.035  23.667  11.377
43687W        W13568  22.037  11.718   1.816
43688W        W13569  24.682   9.841   4.750
43689W        W13570  22.731  31.447   3.771
43690W        W13571  35.459  34.940   3.686
43691W        W13572  30.988  15.186  12.391
43692W        W13573  25.552  34.016  14.835
43693W        W13574  13.633  27.605  12.866
43694W        W13575   1.362   3.368   0.458
43695W        W13576  31.530  43.407   1.864
43696W        W13577  31.912  40.402   0.786
43697W        W13578  23.048  19.777  11.470
43698W        W13579   2.859  40.020  14.307
43699W        W13580  36.005  21.212  14.491
43700W        W13581  12.845   8.772   2.902
43701W        W13582  12.165   1.302  14.411
43702W        W13583  28.656  24.481  14.819
43703W        W13584   7.183  42.810  14.776
43704W        W13585  40.921  27.646  11.383
43705W        W13586   4.786  16.654  11.007
43706W        W13587  24.140  15.326  11.057
43707W        W13588  22.129   3.230  12.459
43708W        W13589  28.088  40.490  12.575
43709W        W13590  15.172  14.731  11.920
43710W        W13591  13.308   4.228  13.050
43711W        W13592  31.061  19.157   3.181
43712W        W13593  26.004  30.125  12.412
43713W        W13594   4.864   1.324  12.864
43714W        W13595   5.867   7.239  11.885
43715W        W13596  38.485  17.676   4.216
43716W        W13597   1.334   8.403   4.147
43717W        W13598  30.087  42.369  13.882
43718W        W13599  28.047   4.321  13.335
43719W        W13600   0.366  16.283   4.602
43720W        W13601  10.877  13.723  12.579
43721W        W13602  27.986  33.396   0.786
43722W        W13603  38.365   8.161   4.134
43723W        W13604   1.939   0.909   2.338
43724W        W13605  14.200  28.456  10.916
43725W        W13606  39.830  34.040  12.978
43726W        W13607  41.336  10.843  12.029
43727W        W13608  43.902  38.506  12.526
43728W        W13609  34.918   8.350  14.827
43729W        W13610  24.054  35.492   4.299
43730W        W13611  36.389   1.762   4.628
43731W        W13612  39.999  30.564  12.065
43732W        W13613   5.192   3.323  11.525
43733W        W13614   8.760  14.188  11.107
43734W        W13615  34.564  22.698   3.247
43735W        W13616  42.990   9.260  11.507
43736W        W13617  30.020  17.123  12.345
43737W        W13618  28.465  43.899   4.747
43738W        W13619   9.840  32.048   2.195
43739W        W13620  34.076  25.499   1.839
43740W        W13621  29.139   9.284  13.509
43741W        W13622   6.782   8.204   2.394
43742W        W13623  42.922  32.408   2.182
43743W        W13624  35.955   8.236  13.333
43744W        W13625  18.140  11.323   4.797
43745W        W13626   7.783  13.630   0.250
43746W        W13627  35.063   9.233   4.185
43747W        W13628  42.484   3.828  13.874
43748W        W13629   9.299  33.043   4.645
43749W        W13630  35.075  13.833  12.008
43750W        W13631  12.831  17.749  13.038
43751W        W13632  43.001  26.570   2.777
43752W        W13633  14.646   7.795   2.805
43753W        W13634  44.853  21.684   0.295
43754W        W13635   4.723   1.754  14.306
43755W        W13636  24.006  24.082  12.884
43756W        W13637   7.672  32.504  13.934
43757W        W13638  20.172  10.181  10.642
43758W        W13639  40.494  39.465   1.412
43759W        W13640   1.929  36.961  11.531
43760W        W13641  16.752  11.255   0.868
43761W        W13642   5.361  22.686  13.820
43762W        W13643  35.528  16.080   2.781
43763W        W13644  35.944  22.226   1.886
43764W        W13645   3.219   3.951  14.918
43765W        W13646  14.281  26.058   2.400
43766W        W13647  33.429  43.307   0.920
43767W        W13648  26.615   2.448  13.533
43768W        W13649  42.354  26.459  12.542
43769W        W13650  22.226   2.775   0.793
43770W        W13651   3.766  23.052   1.880
43771W        W13652   8.238  19.604  11.022
43772W        W13653  38.490   3.951   4.256
43773W        W13654  17.750  37.871   2.667
43774W        W13655  34.583  29.642  14.465
43775W        W13656  40.485  22.532   3.630
43776W        W13657  15.611  35.853   4.681
43777W        W13658  16.145  39.372  14.860
43778W        W13659   4.231   2.860  14.283
43779W        W13660   2.240  13.142  10.644
43780W        W13661  11.289  12.754   2.864
43781W        W13662  43.968  19.545  12.370
43782W        W13663  11.776  21.223  10.908
43783W        W13664  11.129  41.386  12.016
43784W        W13665  21.524   1.321  10.056
43785W        W13666   1.786   0.979   3.661
43786W        W13667  14.739  17.770  11.944
43787W        W13668  25.026  25.631   1.289
43788W        W13669  31.536  36.984   4.608
43789W        W13670  11.162  23.494  14.468
43790W        W13671  41.854   1.927   5.177
43791W        W13672  17.178  20.635  11.983
43792W        W13673  18.265  25.100  10.611
43793W        W13674  14.145  32.623  13.906
43794W        W13675  38.937  41.822  12.987
43795W        W13676   0.851  31.558  11.985
43796W        W13677  11.230  18.232   5.116
43797W        W13678  12.760  12.682   0.387
43798W        W13679   3.951  33.064   3.803
43799W        W13680  14.774  21.736  11.453
43800W        W13681   2.378  19.558   4.267
43801W        W13682   1.390  19.636  13.512
43802W        W13683   3.428   8.368   2.730
43803W        W13684  37.042  44.501   3.385
43804W        W13685  20.076  29.093  13.886
43805W        W13686  44.965  23.663   4.760
43806W        W13687  10.757  35.105   0.255
43807W        W13688  32.942  31.578   4.640
43808W        W13689   6.193   4.932  10.527
43809W        W13690  35.603   4.425   0.331
43810W        W13691  42.841  19.743  12.499
43811W        W13692  12.324  21.658  14.834
43812W        W13693   3.346  44.962   2.397
43813W        W13694   0.454  38.884  13.870
43814W        W13695  16.711  19.762   4.262
43815W        W13696  28.632  41.836   4.234
43816W        W13697   1.350  16.721   2.280
43817W        W13698  35.484  16.263   4.756
43818W        W13699  43.851  28.164   3.246
43819W        W13700  18.067  13.664  10.938
43820W        W13701  41.507  21.231   0.815
43821W        W13702   0.828  18.670   4.626
43822W        W13703  31.421  42.523   1.895
43823W        W13704  30.120  25.590   1.351
43824W        W13705  20.182  19.185  12.839
43825W        W13706  17.101  17.560   0.752
43826W        W13707  24.162  16.316  12.354
43827W        W13708  25.479   6.862   4.146
43828W        W13709   0.332  21.628   2.358
43829W        W13710  24.558  10.237  14.413
43830W        W13711  32.054  37.084   2.724
43831W        W13712  19.260  28.539  12.861
43832W        W13713   7.239  21.745  13.500
43833W        W13714  40.351   7.669  13.908
43834W        W13715  23.701  32.036  13.539
43835W        W13716   6.214   7.408  14.025
43836W        W13717  17.102  44.836  13.796
43837W        W13718  18.698  28.179   4.348
43838W        W13719  43.939  33.087   3.195
43839W        W13720  13.318   1.869   3.274
43840W        W13721  32.615  13.733   3.158
43841W        W13722  15.817  25.174  12.922
43842W        W13723  44.284   6.904   9.947
43843W        W13724  19.730  30.656   9.480
43844W        W13725  41.526  19.544   4.120
43845W        W13726  20.107   5.342  11.575
43846W        W13727  20.564  39.023   0.804
43847W        W13728  38.958  44.897  13.843
43848W        W13729  19.153  31.510  11.880
43849W        W13730  14.313  13.335  13.035
43850W        W13731  25.994  19.171   1.275
43851W        W13732   0.383   1.418   2.697
43852W        W13733  28.004  30.540   3.766
43853W        W13734   5.388  24.109   4.692
43854W        W13735  36.056  42.409  14.387
43855W        W13736  44.986  29.108   1.759
43856W        W13737  19.205  29.566  11.434
43857W        W13738   3.383  35.438   1.313
43858W        W13739  34.955   3.320  11.051
43859W        W13740  19.145  27.978   5.177
43860W        W13741  36.376  25.069  12.912
43861W        W13742  44.817  38.014  11.016
43862W        W13743  25.031  28.590  14.843
43863W        W13744   4.273  21.049   4.167
43864W        W13745  15.182  39.857   1.807
43865W        W13746  31.994   9.239  14.985
43866W        W13747  43.458  18.747   4.599
43867W        W13748  33.555  34.557  11.935
43868W        W13749  10.657  19.724   2.790
43869W        W13750  15.761  14.662  13.870
43870W        W13751  38.327  40.889  11.540
43871W        W13752  41.017  41.427  11.420
43872W        W13753  13.673   7.689   1.922
43873W        W13754   6.785  29.466   4.350
43874W        W13755  33.057  24.172   3.288
43875W        W13756  43.330  13.152   4.186
43876W        W13757  43.484  24.987   5.226
43877W        W13758   2.255  23.990  14.825
43878W        W13759  24.481  44.455   0.800
43879W        W13760  44.872   7.734  14.997
43880W        W13761  39.378   4.749  13.793
43881W        W13762  41.826  29.659  10.472
43882W        W13763  41.911  31.627  10.424
43883W        W13764   9.842  37.921  13.938
43884W        W13765  31.506  22.166  14.770
43885W        W13766   0.769  12.754   2.394
43886W        W13767  16.284   1.795   4.188
43887W        W13768  29.476  23.608  11.989
43888W        W13769  20.122   0.257  14.763
43889W        W13770  33.011  41.365  14.316
43890W        W13771  14.211  24.120   5.113
43891W        W13772   4.440   7.329   3.678
43892W        W13773  31.925  29.430  10.894
43893W        W13774  39.062  39.981   0.280
43894W        W13775   6.834  37.581  10.632
43895W        W13776  30.934   9.644  12.447
43896W        W13777  25.469  10.240   0.743
43897W        W13778   3.822  35.513   1.353
43898W        W13779   7.283  35.511   4.348
43899W        W13780  11.771  30.521  11.022
43900W        W13781  43.921  24.550   1.254
43901W        W13782  24.516   0.485   0.757
43902W        W13783  33.050   5.740   2.722
43903W        W13784  18.274  13.269   3.762
43904W        W13785  17.181   8.878  11.459
43905W        W13786  23.118  41.360   3.237
43906W        W13787  17.211  21.724   2.254
43907W        W13788  26.560  17.255   0.256
43908W        W13789   3.711   7.322  13.917
43909W        W13790  28.162  21.180  13.460
43910W        W13791  28.558  35.915   2.346
43911W        W13792  25.068  43.312   1.808
43912W        W13793  22.537  42.377   4.251
43913W        W13794  21.710  10.222  10.586
43914W        W13795  34.564   4.809   2.289
43915W        W13796  27.091  21.714   4.178
43916W        W13797   8.178  16.776  11.900
43917W        W13798  29.058  33.436   3.850
43918W        W13799   9.702   3.238   1.817
43919W        W13800  42.413  20.731  13.868
43920W        W13801  31.582  44.449  13.862
43921W        W13802  35.490   8.785   4.239
43922W        W13803  41.322  22.506   2.375
43923W        W13804  19.203  30.132  12.096
43924W        W13805  43.505  11.165  11.565
43925W        W13806  28.571   4.710  13.331
43926W        W13807  44.760  39.316  11.965
43927W        W13808  30.022  38.063  10.950
43928W        W13809   5.828  37.080  11.886
43929W        W13810  36.501   6.897  13.442
43930W        W13811  44.403  29.539   4.673
43931W        W13812  19.222  41.393   4.271
43932W        W13813  17.164  20.059  13.918
43933W        W13814  29.588  12.713  14.381
43934W        W13815  17.605  16.725  10.893
43935W        W13816  33.964   6.366   4.786
43936W        W13817  32.113  41.883  12.910
43937W        W13818  34.973  13.765   1.709
43938W        W13819  16.150  39.006   0.261
43939W        W13820   9.737  35.578  10.496
43940W        W13821  18.578  16.089   2.798
43941W        W13822  42.852  18.259   0.752
43942W        W13823  37.992  26.077   3.260
43943W        W13824  43.017  28.025   2.231
43944W        W13825   3.228  10.797  14.947
43945W        W13826  42.002  10.164   4.295
43946W        W13827  39.866  30.590  14.811
43947W        W13828  10.636  18.648   4.613
43948W        W13829  10.329  44.431  11.929
43949W        W13830   6.724  39.947  11.065
43950W        W13831  40.425  26.087   1.240
43951W        W13832   5.375   8.209   3.635
43952W        W13833  12.834  17.708   3.823
43953W        W13834  31.564   8.270  14.276
43954W        W13835  36.976  44.001   4.645
43955W        W13836  10.236  43.876  14.853
43956W        W13837  20.138  33.514   3.679
43957W        W13838  32.623  10.276  14.941
43958W        W13839   2.849  34.035  11.500
43959W        W13840  21.611   6.922   3.300
43960W        W13841  39.366  23.723   4.762
43961W        W13842  37.418  38.924   0.860
43962W        W13843  18.113  36.936   4.205
43963W        W13844  35.511  20.201  10.603
43964W        W13845  39.993  39.937  14.998
43965W        W13846   0.356  20.215   2.777
43966W        W13847   6.309  17.152  13.326
43967W        W13848   8.248   6.767   4.269
43968W        W13849  11.796  43.468   1.325
43969W        W13850  31.583  26.641  12.096
43970W        W13851  27.989  24.216  11.438
43971W        W13852   4.727  19.620   4.205
43972W        W13853  36.497  33.008  12.566
43973W        W13854  11.679   8.776  13.328
43974W        W13855  11.262   5.776  13.387
43975W        W13856  40.480  11.721   3.157
43976W        W13857  12.319  39.461   3.286
43977W        W13858  11.259  44.802  12.958
43978W        W13859  18.133  12.170  14.798
43979W        W13860  28.639  35.970  13.436
43980W        W13861   9.749  35.581   4.167
43981W        W13862  16.767  39.388  13.995
43982W        W13863  18.619  32.591   0.858
43983W        W13864   6.201  12.825   1.862
43984W        W13865  30.493  38.378   3.225
43985W        W13866   5.772  39.014   2.294
43986W        W13867   0.816   3.924   4.716
43987W        W13868  21.672  31.107  14.888
43988W        W13869   6.729  42.794  10.053
43989W        W13870  11.177  36.565  13.052
43990W        W13871   9.838  38.555  11.390
43991W        W13872   5.824  35.538   3.343
43992W        W13873  30.513  18.560   3.376
43993W        W13874   2.827   8.769  12.999
43994W        W13875  32.555  36.965  14.386
43995W        W13876  19.058  32.962   3.868
43996W        W13877  14.643   1.757  13.406
43997W        W13878  29.587  28.986  11.104
43998W        W13879  17.658  13.701   2.320
43999W        W13880  44.344  39.546   3.829
44000W        W13881   1.826  34.401  11.958
44001W        W13882  42.909  23.720  12.842
44002W        W13883  44.996   0.973  12.526
44003W        W13884   4.764  38.836  10.507
44004W        W13885   6.384  33.887   0.879
44005W        W13886  21.156  40.941   2.795
44006W        W13887   7.836  34.449  14.901
44007W        W13888  33.991  11.817   4.188
44008W        W13889  14.261   0.493  11.415
44009W        W13890  42.788  37.540   0.327
44010W        W13891  18.119  25.170  10.942
44011W        W13892  32.950  10.336  13.338
44012W        W13893  42.341  21.732  13.481
44013W        W13894  21.190  16.717  13.872
44014W        W13895  24.978  16.657   2.266
44015W        W13896  11.161  17.106  13.428
44016W        W13897   8.258  26.114   4.687
44017W        W13898  29.005  13.307  14.390
44018W        W13899  10.824   5.798   0.282
44019W        W13900  33.084  12.742   4.703
44020W        W13901  23.202  25.593  10.644
44021W        W13902  23.577  32.626   1.778
44022W        W13903  17.269  17.750   2.780
44023W        W13904  23.727  33.471   1.787
44024W        W13905   4.836   5.854  10.614
44025W        W13906  34.896  15.786  10.451
44026W        W13907  27.987  32.891  13.348
44027W        W13908  10.148  24.986   1.746
44028W        W13909  36.909  11.654   4.113
44029W        W13910  19.209  14.132   5.297
44030W        W13911  10.171  28.544   0.867
44031W        W13912  35.564  40.920  12.824
44032W        W13913  14.180  22.187   3.738
44033W        W13914   4.372  14.739  10.513
44034W        W13915  27.606   5.317   0.478
44035W        W13916  26.550   0.461  11.597
44036W        W13917  41.030  44.421   2.379
44037W        W13918  30.478  23.688   1.348
44038W        W13919   3.331   2.250   2.682
44039W        W13920  22.555   5.784   3.670
44040W        W13921  16.271   7.678  12.864
44041W        W13922  44.288  21.151   3.749
44042W        W13923  15.752  15.125   0.826
44043W        W13924   2.387  44.386   2.326
44044W        W13925   5.918  34.512  11.015
44045W        W13926  41.879   1.900  13.976
44046W        W13927   1.783  23.088  12.349
44047W        W13928  37.543   0.917   4.601
44048W        W13929  28.594  12.676  10.421
44049W        W13930  25.522  21.672   4.834
44050W        W13931  20.250  32.575  13.433
44051W        W13932  19.124  12.760   2.683
44052W        W13933  41.981  31.560  12.555
44053W        W13934   2.944  24.058  14.381
44054W        W13935   8.218  19.119   1.802
44055W        W13936   3.255   3.791   4.646
44056W        W13937   3.869  41.302  12.563
44057W        W13938  42.355   0.382  13.362
44058W        W13939  23.035  27.565  13.409
44059W        W13940   3.236   7.738   5.193
44060W        W13941  28.516   0.841   0.415
44061W        W13942   7.346   0.267   1.756
44062W        W13943  38.524  31.965   4.134
44063W        W13944  41.434   5.867  13.473
44064W        W13945  13.637  41.820  14.286
44065W        W13946  15.133  36.057   2.209
44066W        W13947   0.949  15.130  12.948
44067W        W13948  16.142  11.243   3.303
44068W        W13949  28.615  29.064   2.802
44069W        W13950  31.078   8.835  12.448
44070W        W13951  27.038  29.595   1.285
44071W        W13952  10.664  12.330   1.790
44072W        W13953  40.354   8.795   1.346
44073W        W13954  32.025  42.369  10.553
44074W        W13955  44.410  34.951  13.420
44075W        W13956   8.658  28.180   3.360
44076W        W13957   3.711   5.894   1.299
44077W        W13958  24.209  36.974   3.167
44078W        W13959  27.520  41.791  13.453
44079W        W13960   2.339  15.652   3.716
44080W        W13961  13.685  21.123  14.876
44081W        W13962  34.448  40.798  12.913
44082W        W13963  27.486  20.726  13.367
44083W        W13964  23.017  40.373  14.003
44084W        W13965  21.559  18.643   2.860
44085W        W13966  40.894  31.640  13.342
44086W        W13967   8.871  39.000   3.833
44087W        W13968  10.235  33.014  14.833
44088W        W13969  30.920   7.339  13.347
44089W        W13970  31.991   7.778   2.759
44090W        W13971  13.319  41.786   3.730
44091W        W13972   1.345   8.688   3.725
44092W        W13973   7.793  16.204  10.434
44093W        W13974  17.756  14.152  10.602
44094W        W13975  36.843   7.216  13.440
44095W        W13976   1.822  33.015  10.465
44096W        W13977  23.179  20.238   2.675
44097W        W13978   9.692  28.991   1.315
44098W        W13979  30.627   5.346  13.450
44099W        W13980  33.410   7.809  13.969
44100W        W13981  20.708  44.462  10.560
44101W        W13982  28.518  37.865   2.883
44102W        W13983  43.342  23.221  13.989
44103W        W13984  19.079   5.311  11.420
44104W        W13985  31.035   9.390  13.057
44105W        W13986  12.652   4.434  14.384
44106W        W13987  23.667   4.298   3.687
44107W        W13988  37.921  37.078  11.052
44108W        W13989  19.254  17.288   4.691
44109W        W13990  24.060  11.322  13.989
44110W        W13991  22.056  43.381  10.535
44111W        W13992   1.952   4.360   2.733
44112W        W13993   9.873   6.305  10.607
44113W        W13994  37.907   5.799   0.461
44114W        W13995  14.253   0.408   3.712
44115W        W13996  23.040  22.715   0.441
44116W        W13997  27.690  15.782   2.766
44117W        W13998   7.819  20.692   4.624
44118W        W13999  29.589  11.313   2.347
44119W        W14000  18.217  28.031  13.421
44120W        W14001  33.879   3.930   1.410
44121W        W14002   9.244  26.689   4.155
44122W        W14003  33.469  16.147  12.489
44123W        W14004  17.066   9.675   1.231
44124W        W14005  17.585  23.202   1.821
44125W        W14006  26.635  23.704  12.855
44126W        W14007  12.242  25.608  13.805
44127W        W14008  38.878  37.497   0.456
44128W        W14009   6.307  43.016   0.872
44129W        W14010  31.049  31.983   0.375
44130W        W14011  44.478  39.417  12.381
44131W        W14012  25.120  22.631   2.354
44132W        W14013  19.553   8.192   0.359
44133W        W14014   1.448  39.379  14.758
44134W        W14015  26.465  21.554  14.861
44135W        W14016  36.046   4.449   0.945
44136W        W14017  16.075  38.459  13.410
44137W        W14018  22.226  25.160  14.350
44138W        W14019  16.772   7.259   2.872
44139W        W14020  24.615  15.327  10.474
44140W        W14021  22.195   1.931   0.402
44141W        W14022  44.781  22.592   3.189
44142W        W14023   8.292  42.526   1.317
44143W        W14024   7.290  40.304  12.033
44144W        W14025  28.151  41.479   4.768
44145W        W14026  13.276  34.605  11.480
44146W        W14027  42.342  13.265   3.168
44147W        W14028  18.758  29.008  11.935
44148W        W14029   7.402  10.686   2.706
44149W        W14030  13.807   4.715   3.165
44150W        W14031  24.973   3.239   2.691
44151W        W14032  25.663   9.212  13.849
44152W        W14033  31.570   7.820  11.583
44153W        W14034  15.211   9.846   1.316
44154W        W14035  31.918  37.023   3.700
44155W        W14036  36.522  18.693   4.220
44156W        W14037  41.443  36.455   2.883
44157W        W14038  15.691  38.976   2.770
44158W        W14039  31.600   0.829   3.853
44159W        W14040   5.246  31.011  12.943
44160W        W14041   3.377  20.162  11.425
44161W        W14042  20.208  44.899  14.384
44162W        W14043  43.843  41.383  13.924
44163W        W14044   0.373   0.886  11.044
44164W        W14045  34.062  35.062  14.319
44165W        W14046  11.171  29.573  12.893
44166W        W14047   7.740  21.056  12.882
44167W        W14048  25.068  22.083   0.307
44168W        W14049  14.831  38.820   1.888
44169W        W14050  12.128  23.015   2.349
44170W        W14051  35.919  14.816   0.932
44171W        W14052  33.612  41.826   4.832
44172W        W14053   9.332  38.954  14.474
44173W        W14054  32.584  23.648  13.510
44174W        W14055  19.772   2.396   3.283
44175W        W14056  33.016  30.591  14.497
44176W        W14057  26.611  23.500   2.250
44177W        W14058  32.473   2.779  10.432
44178W        W14059  44.327  27.999  13.504
44179W        W14060  40.410   8.673  14.413
44180W        W14061   6.846  14.192  14.350
44181W        W14062  13.618  25.090   3.273
44182W        W14063  21.110  33.899  12.965
44183W        W14064   1.359   8.772   2.835
44184W        W14065   6.345  35.990  12.493
44185W        W14066  24.182  13.609   3.172
44186W        W14067   6.206   7.902  14.390
44187W        W14068  10.356  35.952  12.398
44188W        W14069  21.618  39.520   2.260
44189W        W14070   8.810  28.606  14.466
44190W        W14071  44.323  17.236  14.431
44191W        W14072  20.656  42.416  14.319
44192W        W14073  38.961  12.775  14.761
44193W        W14074  21.109  28.057  14.449
44194W        W14075   3.937  41.462  12.873
44195W        W14076   0.863  14.139  11.857
44196W        W14077  37.901  23.121   4.807
44197W        W14078  34.596  10.312   1.435
44198W        W14079  22.571  15.102   3.821
44199W        W14080  35.066  22.654  14.982
44200W        W14081  32.580  36.581  11.958
44201W        W14082  42.342  16.704   1.324
44202W        W14083  26.607  34.867   4.720
44203W        W14084  30.161  43.945  12.454
44204W        W14085  17.726  25.543   2.884
44205W        W14086  37.085  13.313   0.870
44206W        W14087   5.834  14.211   1.832
44207W        W14088  38.990  29.155   2.187
44208W        W14089  34.533  38.569  12.941
44209W        W14090  32.528   7.231   0.415
44210W        W14091  19.764  15.639   3.862
44211W        W14092  38.038  23.696   2.831
44212W        W14093  25.634  20.706  13.954
44213W        W14094   5.908   0.403   0.384
44214W        W14095   8.878   2.294  12.561
44215W        W14096  16.253  36.464  13.503
44216W        W14097  32.896  43.484  11.913
44217W        W14098  20.053  32.956   3.635
44218W        W14099  12.665  38.527  10.070
44219W        W14100  25.534  32.959   1.786
44220W        W14101  28.068  40.892  12.559
44221W        W14102  32.523  16.225   0.898
44222W        W14103  11.372  26.991   1.838
44223W        W14104  32.083  20.574  12.009
44224W        W14105  38.497  43.934   3.351
44225W        W14106   4.916  30.609   1.847
44226W        W14107  13.786  20.694   2.269
44227W        W14108  31.644  23.595   3.692
44228W        W14109  38.561   6.279   1.696
44229W        W14110  43.001   5.832  11.867
44230W        W14111   0.406  32.530   0.838
44231W        W14112   7.195  30.116   3.270
44232W        W14113   3.916  13.796   2.827
44233W        W14114  29.626  23.616   3.717
44234W        W14115  12.692  43.793   3.213
44235W        W14116  39.435   6.239  11.052
44236W        W14117  32.967  38.878  11.454
44237W        W14118   1.461  27.106   0.930
44238W        W14119  16.762  28.084  14.500
44239W        W14120  31.415  37.373  13.339
44240W        W14121   3.293   5.242   0.813
44241W        W14122  23.090  40.400  13.521
44242W        W14123   3.879  37.451  14.280
44243W        W14124  31.084  27.596   3.756
44244W        W14125  27.555  28.031   2.697
44245W        W14126  14.820  24.191  11.447
44246W        W14127  31.992  39.871   2.410
44247W        W14128  17.271  13.182  12.005
44248W        W14129   7.780   8.376   3.340
44249W        W14130   1.944   4.879   4.302
44250W        W14131  14.194   5.702  12.076
44251W        W14132  43.956  36.917   1.270
44252W        W14133  27.103  29.663  10.974
44253W        W14134  43.347  25.066   4.607
44254W        W14135  20.538  35.515  12.088
44255W        W14136  18.689   1.275  14.284
44256W        W14137  37.830  17.070  10.543
44257W        W14138  44.989  27.473   4.679
44258W        W14139   0.454  33.932  14.340
44259W        W14140  21.598   7.860   2.740
44260W        W14141   8.736  11.836  12.047
44261W        W14142  28.586  26.175  13.439
44262W        W14143   1.799  22.569  11.022
44263W        W14144   9.164   2.365  11.603
44264W        W14145  39.533   2.730   0.882
44265W        W14146  29.997  32.888   2.787
44266W        W14147   6.913  39.989   1.238
44267W        W14148   9.293  40.457   4.184
44268W        W14149   8.173  27.507   2.308
44269W        W14150  43.398  21.755  14.344
44270W        W14151   6.734  37.426   4.705
44271W        W14152  25.998  28.509  13.478
44272W        W14153  18.187  23.108   4.121
44273W        W14154  36.091  43.453   0.934
44274W        W14155  28.126   9.238   4.822
44275W        W14156   2.357  15.577   9.938
44276W        W14157  10.149  21.514   3.213
44277W        W14158  26.546   9.785  13.328
44278W        W14159  14.716  13.692   3.253
44279W        W14160  32.415  10.263  10.419
44280W        W14161  13.173  37.927  11.433
44281W        W14162  39.943  11.689   0.947
44282W        W14163  20.730  10.378   1.431
44283W        W14164  15.150  22.079   4.324
44284W        W14165  22.236  43.866   2.317
44285W        W14166  25.971   2.453  11.069
44286W        W14167  20.638  25.573  11.039
44287W        W14168   0.348  12.301   3.700
44288W        W14169  23.006  39.040  12.556
44289W        W14170  36.426  23.504   4.328
44290W        W14171  17.277   7.826  10.504
44291W        W14172  15.193   8.386   4.264
44292W        W14173  37.548  16.638   0.449
44293W        W14174  19.620  39.396  10.894
44294W        W14175  24.497  21.569  14.474
44295W        W14176  35.458  30.543  13.801
44296W        W14177  36.853  14.135  10.477
44297W        W14178  24.194  20.685   0.773
44298W        W14179  27.571  22.736   1.228
44299W        W14180  44.414  17.607   3.154
44300W        W14181   2.454  25.141   1.869
44301W        W14182  38.501  32.937   4.315
44302W        W14183   6.271   7.715   4.807
44303W        W14184  17.661   7.821   4.753
44304W        W14185  15.261  35.910  14.299
44305W        W14186  41.495  24.178   4.311
44306W        W14187   5.318  11.788  13.931
44307W        W14188  19.226  29.583   1.845
44308W        W14189  34.059   8.334   0.355
44309W        W14190  26.527  24.144  12.399
44310W        W14191  36.956  24.665   3.641
44311W        W14192  14.332  36.430  12.516
44312W        W14193  34.563  15.209   0.944
44313W        W14194  14.095   8.245   4.229
44314W        W14195  21.724  37.952  14.497
44315W        W14196   1.450  34.383   2.840
44316W        W14197  15.260  44.355  10.586
44317W        W14198  15.090  43.401  11.040
44318W        W14199  23.212  27.477  12.846
44319W        W14200  37.905  19.095   4.137
44320W        W14201  25.583  24.057   3.304
44321W        W14202  36.009  16.114   0.460
44322W        W14203  12.794  27.451   1.929
44323W        W14204  23.679  16.769  12.045
44324W        W14205  33.883  35.570   4.321
44325W        W14206   9.762  15.771  10.044
44326W        W14207  25.689  13.757   1.773
44327W        W14208  36.571  14.595  14.851
44328W        W14209  35.407  17.609   2.309
44329W        W14210   5.857  27.060   2.388
44330W        W14211   1.805  38.843  13.921
44331W        W14212  29.623   2.312  12.033
44332W        W14213  32.391  19.726   1.748
44333W        W14214  43.493  19.656  12.369
44334W        W14215   0.750   5.877   3.215
44335W        W14216   0.926   3.764   4.258
44336W        W14217  14.291   0.896   1.880
44337W        W14218  31.629   7.310  14.855
44338W        W14219  37.548   6.701  14.464
44339W        W14220   4.349   4.281   4.267
44340W        W14221  12.708  10.141  12.422
44341W        W14222   1.326  28.596   3.263
44342W        W14223  34.884   6.288  10.907
44343W        W14224  34.107  13.691   0.421
44344W        W14225  11.242  39.407   1.924
44345W        W14226  33.519  12.226   4.754
44346W        W14227  39.376   4.361   1.445
44347W        W14228  26.678  19.575   0.909
44348W        W14229  38.846  22.235  11.901
44349W        W14230  25.090   9.877  12.059
44350W        W14231  20.152   8.260   1.934
44351W        W14232  14.332  25.001   0.889
44352W        W14233  11.680  37.407  13.948
44353W        W14234  22.556  42.413   0.930
44354W        W14235  25.498  39.877   1.305
44355W        W14236  38.859   3.820   4.661
44356W        W14237  32.906  12.612  10.584
44357W        W14238  38.032  18.562  11.988
44358W        W14239  31.052  41.490   3.806
44359W        W14240   4.850  25.652  14.359
44360W        W14241  26.495  30.545  10.160
44361W        W14242  12.638  15.596  12.564
44362W        W14243  23.536  31.426   0.353
44363W        W14244   6.398   2.927   3.732
44364W        W14245  41.514  42.814  13.062
44365W        W14246  35.545  43.779  13.500
44366W        W14247   5.852   9.661   3.164
44367W        W14248  28.628  14.182  14.412
44368W        W14249  10.216  27.669   4.723
44369W        W14250  44.428   7.735  11.076
44370W        W14251  29.163  19.769   1.236
44371W        W14252   2.744  37.000  13.865
44372W        W14253   8.389   6.239  14.431
44373W        W14254  31.930  29.988   4.742
44374W        W14255  32.437   5.369  11.004
44375W        W14256  30.015  44.844   3.862
44376W        W14257  16.739  42.780  12.824
44377W        W14258   0.407  38.928  13.541
44378W        W14259  26.590  21.594   1.722
44379W        W14260  27.133   6.193  13.528
44380W        W14261   5.335  17.147   4.666
44381W        W14262   0.763   6.786   4.290
44382W        W14263  33.063  32.122   0.413
44383W        W14264  26.630  33.008   3.689
44384W        W14265  39.977   4.805  13.918
44385W        W14266  30.630  18.288   4.625
44386W        W14267  26.065   9.378   0.373
44387W        W14268  33.528  26.584  14.835
44388W        W14269   9.700  41.438  12.428
44389W        W14270  36.075  33.894  14.434
44390W        W14271   7.352   5.718   2.253
44391W        W14272  30.589  35.421   1.817
44392W        W14273  30.068   0.962   3.345
44393W        W14274  16.272   7.384  12.557
44394W        W14275  35.880  26.508  10.562
44395W        W14276  11.252   9.733   3.700
44396W        W14277  36.870   6.758   0.766
44397W        W14278  31.469  32.633   3.817
44398W        W14279  33.012  41.810  11.023
44399W        W14280  16.075   7.818  14.289
44400W        W14281   4.761  16.292  14.458
44401W        W14282   2.314  17.650  13.024
44402W        W14283  21.618  42.508  12.341
44403W        W14284  31.013  37.480   1.382
44404W        W14285  35.077   4.705  11.960
44405W        W14286   4.907   0.352   3.660
44406W        W14287  41.506  22.100  13.053
44407W        W14288  25.035  19.270   4.161
44408W        W14289   6.829  20.051  11.565
44409W        W14290  41.361  26.027  11.011
44410W        W14291  13.271  31.963   1.718
44411W        W14292  31.446  30.983   3.323
44412W        W14293  42.888  13.184  14.944
44413W        W14294  12.299   4.444  10.981
44414W        W14295  26.700  25.111  13.824
44415W        W14296  40.362  29.175   5.098
44416W        W14297   1.751  42.792  11.074
44417W        W14298   7.857  22.071  11.122
44418W        W14299  11.624  42.380  11.048
44419W        W14300   8.386  23.013  11.453
44420W        W14301   0.327  34.455   0.819
44421W        W14302  28.039  20.637  11.437
44422W        W14303  11.205  36.542   3.277
44423W        W14304   3.845  44.863  13.833
44424W        W14305   9.179  27.018   0.472
44425W        W14306  14.251  22.638   4.802
44426W        W14307  37.337   8.854  10.413
44427W        W14308   8.708  21.133   5.154
44428W        W14309   1.343   4.296   3.319
44429W        W14310   0.399   0.394   1.426
44430W        W14311  17.284  31.910   5.281
44431W        W14312  18.223  25.011  13.455
44432W        W14313  26.190  25.991   0.482
44433W        W14314   9.732  18.699  10.643
44434W        W14315  19.766  44.290  14.862
44435W        W14316  27.074  44.324   9.925
44436W        W14317  17.770   3.955  14.414
44437W        W14318  43.385   3.918  11.004
44438W        W14319  31.462  39.943  14.884
44439W        W14320   9.289  17.287  10.928
44440W        W14321   2.324   2.856  14.366
44441W        W14322  31.590  11.299   2.299
44442W        W14323  15.269  12.806   3.306
44443W        W14324  13.719  44.899   1.273
44444W        W14325  15.300  18.069  11.957
44445W        W14326  15.198  31.634   4.307
44446W        W14327  40.401   4.307  14.835
44447W        W14328  40.522  44.003   3.313
44448W        W14329  16.237   1.253  11.440
44449W        W14330  12.657  30.512  12.515
44450W        W14331  34.602  34.019   3.733
44451W        W14332  10.817   7.828   1.765
44452W        W14333  12.232  24.560  12.967
44453W        W14334  44.484  11.311  12.073
44454W        W14335  11.865  21.576  11.881
44455W        W14336   5.755   8.871   1.857
44456W        W14337  14.669  26.050   0.450
44457W        W14338  25.620  42.973   3.240
44458W        W14339   7.414  38.539  11.856
44459W        W14340  22.081  40.863   2.902
44460W        W14341  22.223  43.336  14.489
44461W        W14342  44.866  23.674  12.445
44462W        W14343  37.066  41.334  13.476
44463W        W14344  40.536  37.438   0.266
44464W        W14345  37.835  34.508  11.938
44465W        W14346  11.274  10.768  11.897
44466W        W14347  44.816   8.380   3.356
44467W        W14348   6.785  27.096  13.994
44468W        W14349  34.100  24.576   3.175
44469W        W14350  15.725  42.861   0.912
44470W        W14351  18.056   5.857   2.775
44471W        W14352   3.827   5.872  14.000
44472W        W14353  21.696  18.785  14.435
44473W        W14354   4.300  25.530   3.329
44474W        W14355  16.593   0.759  14.302
44475W        W14356   0.349  37.493   2.871
44476W        W14357  42.979  18.708  14.511
44477W        W14358  21.187   5.323  12.032
44478W        W14359  36.489  26.060   4.702
44479W        W14360  25.512  22.576  14.424
44480W        W14361  37.937  39.958  12.573
44481W        W14362  11.677  14.248  11.557
44482W        W14363   0.402  26.569  13.315
44483W        W14364  41.802  44.851  12.506
44484W        W14365   5.410  36.470   0.450
44485W        W14366  39.391  34.471  10.452
44486W        W14367  15.669  18.662   0.345
44487W        W14368  30.521  28.460  13.905
44488W        W14369  44.385  44.396  12.969
44489W        W14370  43.923  38.862   4.777
44490W        W14371  25.537  24.080   0.733
44491W        W14372  30.082  40.983   2.398
44492W        W14373  26.503   9.663  14.508
44493W        W14374   5.269  37.374  12.963
44494W        W14375  25.529  12.775   1.369
44495W        W14376  44.954  20.248   4.325
44496W        W14377  18.199  31.099   0.428
44497W        W14378  18.736   3.395   4.214
44498W        W14379  24.652   5.909  12.509
44499W        W14380  41.395   9.262  11.109
44500W        W14381  29.175  40.914  13.456
44501W        W14382  31.099   0.360   1.413
44502W        W14383  12.129   6.403   2.878
44503W        W14384  37.047  20.755  12.504
44504W        W14385  23.508  24.153   3.300
44505W        W14386   0.963  43.885   4.720
44506W        W14387  40.386   6.878   2.307
44507W        W14388  35.002  35.505   4.329
44508W        W14389  40.460  40.979  10.955
44509W        W14390  33.942  18.553  12.573
44510W        W14391  19.721  29.539  12.513
44511W        W14392  37.980  10.338   4.813
44512W        W14393  18.066  21.227  11.490
44513W        W14394  19.684  33.104   3.640
44514W        W14395  15.151  37.425   1.442
44515W        W14396  18.574   7.730   0.392
44516W        W14397  23.634   3.354  13.457
44517W        W14398  17.248  25.202   4.351
44518W        W14399  22.066  14.137  14.851
44519W        W14400  23.665   6.307  13.974
44520W        W14401  13.105  21.134  13.442
44521W        W14402   0.285  25.985   0.418
44522W        W14403   2.436  16.566   1.750
44523W        W14404  29.542   6.277   4.755
44524W        W14405  41.327  21.632   3.799
44525W        W14406  33.052   7.218   1.748
44526W        W14407   0.378  24.154  12.383
44527W        W14408   5.699  23.053  11.454
44528W        W14409  12.353  43.841  10.587
44529W        W14410  28.495   0.822   2.720
44530W        W14411  25.539   5.743  13.812
44531W        W14412  34.586  15.232  11.507
44532W        W14413  27.049  15.651  14.488
44533W        W14414  19.613  20.167   4.173
44534W        W14415  11.189  43.955  14.775
44535W        W14416  10.262  11.638   1.834
44536W        W14417   2.789   9.225  13.839
44537W        W14418   3.882   5.886   1.856
44538W        W14419  10.353  25.547  11.038
44539W        W14420  41.877  44.432  14.340
44540W        W14421   0.894  14.143   5.321
44541W        W14422   5.422  34.607   3.713
44542W        W14423  10.153  21.554   2.315
44543W        W14424  35.008   0.921   2.802
44544W        W14425   7.214  13.839   0.865
44545W        W14426   1.343  42.775   1.861
44546W        W14427  31.430  12.688  10.450
44547W        W14428   7.784  12.721   4.300
44548W        W14429  17.648  22.070   2.223
44549W        W14430   4.796  23.709  10.076
44550W        W14431  18.744  43.487  10.412
44551W        W14432  37.043  28.600  11.927
44552W        W14433  13.825  15.101  11.975
44553W        W14434  13.351   0.459   4.829
44554W        W14435   9.874  30.650   4.707
44555W        W14436   5.251  29.512   3.281
44556W        W14437  30.919   1.957  10.571
44557W        W14438  38.961  16.623   1.417
44558W        W14439  28.592  31.421  13.520
44559W        W14440  24.190  44.003  14.446
44560W        W14441  41.849  18.143  14.813
44561W        W14442   1.266   4.760   4.810
44562W        W14443  35.029  42.994  11.974
44563W        W14444  17.181  29.051   4.305
44564W        W14445  34.991  30.603  11.400
44565W        W14446  31.513  25.134   4.153
44566W        W14447  14.825  31.494   3.870
44567W        W14448  17.224  17.202   0.956
44568W        W14449  40.905  20.148   4.687
44569W        W14450  42.301  31.407   0.828
44570W        W14451   6.752  36.583  12.520
44571W        W14452  39.811   6.273  12.883
44572W        W14453  36.530  42.408   3.658
44573W        W14454   5.300   4.319  14.918
44574W        W14455  22.584   7.679   2.207
44575W        W14456  37.513  43.919   1.287
44576W        W14457  43.428  14.644  12.404
44577W        W14458  23.112  36.916   1.796
44578W        W14459  12.140  35.471  12.992
44579W        W14460  33.128  40.862  12.910
44580W        W14461  13.273   3.782  14.355
44581W        W14462  43.400  40.960  12.962
44582W        W14463   5.426  17.183  13.895
44583W        W14464  15.133  12.167   1.234
44584W        W14465  20.093  42.965  14.909
44585W        W14466  30.479  24.996   0.940
44586W        W14467  41.838  34.543   2.312
44587W        W14468  38.961  42.934   4.777
44588W        W14469  10.818  37.373  13.935
44589W        W14470  29.487  32.023   0.808
44590W        W14471  24.044  43.371   3.366
44591W        W14472  18.116   6.837  11.939
44592W        W14473   2.296  44.902  13.937
44593W        W14474  18.699  25.110   1.776
44594W        W14475  28.446  20.604   1.715
44595W        W14476  15.705   0.399   1.305
44596W        W14477  43.391  22.071   0.319
44597W        W14478   1.389   1.928   3.635
44598W        W14479  12.346  27.095   3.757
44599W        W14480   0.481   9.310   3.804
44600W        W14481  25.063   0.281  13.318
44601W        W14482  15.742  36.050   2.737
44602W        W14483  27.454   7.705  14.965
44603W        W14484  29.101  44.922  11.999
44604W        W14485  16.073  28.616   4.827
44605W        W14486  42.776  20.549   1.775
44606W        W14487  40.462  28.442  10.495
44607W        W14488  12.747  41.825   2.294
44608W        W14489  39.353  38.442   3.316
44609W        W14490  27.636  15.597   2.265
44610W        W14491  44.493  23.082   1.832
44611W        W14492  37.553   1.316   4.648
44612W        W14493  43.817  20.623   3.732
44613W        W14494  29.996   4.862   3.207
44614W        W14495  13.111  22.146   3.788
44615W        W14496  12.164   0.383   4.132
44616W        W14497  41.481  11.648   3.210
44617W        W14498  32.918  19.250   2.775
44618W        W14499  43.457  42.029  14.928
44619W        W14500  37.925  13.688  11.512
44620W        W14501  31.941  32.411  14.503
44621W        W14502   8.822  21.635  14.000
44622W        W14503   2.284  37.930  11.426
44623W        W14504  26.529  33.923   2.315
44624W        W14505  30.909  28.121  14.012
44625W        W14506   0.840  16.585  12.849
44626W        W14507   5.760   1.929   0.861
44627W        W14508  20.668  12.619   3.795
44628W        W14509  23.604  23.650  13.842
44629W        W14510  23.127  12.679   1.438
44630W        W14511  23.078  12.292   1.729
44631W        W14512  10.633  23.167   3.790
44632W        W14513  23.143  22.680  13.920
44633W        W14514  23.080  16.644  12.378
44634W        W14515  27.569   6.339  10.426
44635W        W14516  20.715  31.508   2.844
44636W        W14517   8.383  44.819  14.283
44637W        W14518  25.670  17.700   1.280
44638W        W14519  19.703   4.833  12.533
44639W        W14520  41.906   6.371   1.862
44640W        W14521  17.080   2.757  14.836
44641W        W14522   2.434  11.249  13.825
44642W        W14523   9.781  24.060  14.420
44643W        W14524  20.222  33.874   3.265
44644W        W14525  39.866  44.290  11.076
44645W        W14526  17.692  22.133  12.412
44646W        W14527   3.314  25.062  12.862
44647W        W14528  37.883  41.040   4.615
44648W        W14529  25.137   4.301   3.651
44649W        W14530  24.107  41.934   4.208
44650W        W14531   6.294  32.095  13.802
44651W        W14532  11.772  25.538  13.369
44652W        W14533  44.365   1.959  13.466
44653W        W14534  19.549   8.695  13.528
44654W        W14535  29.031  17.109   0.761
44655W        W14536  42.783   2.292  12.931
44656W        W14537   1.467   2.963   1.864
44657W        W14538  32.529  23.033  12.409
44658W        W14539  12.725  25.486  12.390
44659W        W14540   4.726   4.930  11.541
44660W        W14541   0.863   3.715  10.996
44661W        W14542  22.163  10.315  13.932
44662W        W14543  43.823  15.300   3.301
44663W        W14544  15.801  22.030  14.429
44664W        W14545  14.674  33.440  12.852
44665W        W14546  40.321  39.474  14.277
44666W        W14547   0.377  32.508   0.476
44667W        W14548  34.987  12.331   3.661
44668W        W14549  25.076  34.372  13.343
44669W        W14550  39.048  42.017   0.273
44670W        W14551  41.513  15.309  10.984
44671W        W14552   1.288  43.302   4.611
44672W        W14553  23.612  36.867   2.830
44673W        W14554  24.174  34.603   4.277
44674W        W14555  43.787  21.754  12.091
44675W        W14556   8.258  10.206   0.265
44676W        W14557  12.344  35.932  11.529
44677W        W14558  23.730  10.778   4.130
44678W        W14559  13.630  29.980   5.089
44679W        W14560  16.081  33.912   2.349
44680W        W14561  14.268  38.537   3.813
44681W        W14562   8.205  27.058  12.888
44682W        W14563  17.667  30.149   1.846
44683W        W14564   4.866  27.642  13.395
44684W        W14565  43.902  41.015  13.335
44685W        W14566  17.649  10.725   3.767
44686W        W14567   5.754  40.421   3.339
44687W        W14568  37.371  11.154   4.118
44688W        W14569  14.622  12.801  10.410
44689W        W14570  37.991  26.581  14.821
44690W        W14571   8.303  14.316  12.911
44691W        W14572   6.860  27.000  14.457
44692W        W14573  25.045  26.008  10.453
44693W        W14574  23.994  37.409   2.718
44694W        W14575  26.132  20.736   1.774
44695W        W14576  21.639   3.836   4.605
44696W        W14577  35.920  44.396  14.795
44697W        W14578  40.973  33.892  12.042
44698W        W14579  17.177   8.305  11.373
44699W        W14580  26.995   1.466  10.975
44700W        W14581  40.317  42.840  12.061
44701W        W14582  30.650  29.168   2.711
44702W        W14583   4.405   9.677  13.520
44703W        W14584  15.617  13.636  13.941
44704W        W14585  27.475  17.135  11.523
44705W        W14586  10.793  19.607  14.387
44706W        W14587  23.989  41.912  12.573
44707W        W14588  42.289  44.916  11.432
44708W        W14589  31.118  36.547   4.664
44709W        W14590   4.745  25.196  11.422
44710W        W14591   3.229  28.074  13.951
44711W        W14592  43.479  20.690  13.480
44712W        W14593   2.740  22.053   4.760
44713W        W14594   3.917  12.807  10.505
44714W        W14595  30.612  14.199   4.693
44715W        W14596   8.833  21.210   1.236
44716W        W14597  43.501  42.445  12.927
44717W        W14598  33.428  22.641   0.336
44718W        W14599   5.694  43.018  13.847
44719W        W14600  33.507  39.316  10.559
44720W        W14601  32.496   0.439   2.804
44721W        W14602   5.883   4.283  10.543
44722W        W14603   0.851  22.084  13.438
44723W        W14604  29.951  33.970  12.541
44724W        W14605  29.955  26.058   2.186
44725W        W14606  39.496  15.637   0.873
44726W        W14607  30.482  23.237  14.962
44727W        W14608  42.942  34.456   3.851
44728W        W14609  15.129   8.840  12.451
44729W        W14610  43.290  22.180   2.410
44730W        W14611  37.505  39.821  13.336
44731W        W14612  41.497  10.287   3.217
44732W        W14613  38.955  30.607   1.907
44733W        W14614  43.343  34.008   0.272
44734W        W14615  11.702  22.599   2.306
44735W        W14616   3.347  38.045  10.565
44736W        W14617  24.698  21.641  10.552
44737W        W14618  15.291  24.056   0.459
44738W        W14619  15.644   2.743  12.450
44739W        W14620   2.850  42.471   1.791
44740W        W14621  10.699  33.929   1.787
44741W        W14622   8.662   8.259   4.691
44742W        W14623  19.550  25.680   1.440
44743W        W14624  10.314  14.302  10.566
44744W        W14625  17.601   6.923  12.006
44745W        W14626   8.870   6.373   0.463
44746W        W14627  21.695  38.355  11.008
44747W        W14628  22.526  26.066  11.442
44748W        W14629  42.953  16.589  14.855
44749W        W14630   0.326   5.216   1.261
44750W        W14631  43.934  26.536   4.672
44751W        W14632  32.398  37.462   4.340
44752W        W14633  39.870  37.905  11.488
44753W        W14634  27.049  17.201  10.914
44754W        W14635  10.648  34.557   1.274
44755W        W14636  30.046  36.523   1.299
44756W        W14637  12.615  41.485  12.410
44757W        W14638  18.574   9.293  14.953
44758W        W14639  10.662   9.758   0.344
44759W        W14640   9.354  24.071   3.175
44760W        W14641  42.492  13.214  12.834
44761W        W14642  18.229   2.827  10.592
44762W        W14643  32.005  18.088   5.102
44763W        W14644  16.722  24.226   0.295
44764W        W14645  42.323  15.775   1.352
44765W        W14646  31.128  30.476  12.446
44766W        W14647   0.298  40.819  12.471
44767W        W14648  30.484  36.455   3.190
44768W        W14649  15.297  11.795  13.545
44769W        W14650   0.959  40.544   4.327
44770W        W14651  31.118  11.152   1.860
44771W        W14652  19.193  19.557   1.766
44772W        W14653   0.895   7.172   1.218
44773W        W14654  39.979  11.268   3.638
44774W        W14655  19.696  20.060  14.992
44775W        W14656  33.598  27.449   4.825
44776W        W14657  16.138  36.936   0.832
44777W        W14658  17.153   9.201  10.440
44778W        W14659   0.472  30.566   3.216
44779W        W14660  16.581  20.219   2.296
44780W        W14661  10.216  22.515   3.281
44781W        W14662  24.601  37.843   1.388
44782W        W14663  26.065  12.792   1.785
44783W        W14664  37.054  23.027  13.817
44784W        W14665  30.934  44.425  13.372
44785W        W14666  12.210  40.398   1.306
44786W        W14667   7.372  36.923  12.430
44787W        W14668  32.556  23.712   2.192
44788W        W14669   5.749  35.561   0.458
44789W        W14670   3.297  15.196   1.355
44790W        W14671  35.557  27.450   1.432
44791W        W14672  13.134  31.090   3.226
44792W        W14673  31.609   8.219  14.991
44793W        W14674  36.559  32.620   3.865
44794W        W14675  24.140  43.007  12.952
44795W        W14676  18.277   5.300   2.184
44796W        W14677  14.719  36.985  11.422
44797W        W14678  28.508  13.781  10.469
44798W        W14679  36.402  20.732   3.712
44799W        W14680  44.849  40.448   4.734
44800W        W14681  44.786  32.112  11.375
44801W        W14682  39.360  44.431   0.953
44802W        W14683   1.471  35.071  12.874
44803W        W14684  16.587  17.262  11.990
44804W        W14685  24.590  21.740   2.226
44805W        W14686  42.900  10.758  11.116
44806W        W14687  30.625  22.660  11.099
44807W        W14688   9.775  39.058   3.693
44808W        W14689  13.603  14.113   1.343
44809W        W14690  24.503  28.034   4.237
44810W        W14691  38.536  36.996  10.556
44811W        W14692   1.800  14.731   2.759
44812W        W14693  44.369  22.074   4.130
44813W        W14694   6.190  43.989  11.435
44814W        W14695  41.433  36.406  14.348
44815W        W14696   1.763  10.292  11.565
44816W        W14697  43.397  44.755   2.241
44817W        W14698  39.557  17.631  13.522
44818W        W14699   5.779  44.998  13.874
44819W        W14700   4.929  31.462  10.931
44820W        W14701   4.734  37.023   3.749
44821W        W14702  18.710  39.008  13.507
44822W        W14703  23.609  28.129   4.669
44823W        W14704  16.613  42.310   1.340
44824W        W14705  30.475  44.808  12.538
44825W        W14706   6.268  37.947  13.451
44826W        W14707  17.766  23.135  14.963
44827W        W14708   0.432  17.274   0.792
44828W        W14709   5.920  13.684   3.794
44829W        W14710  19.545  44.415  14.485
44830W        W14711  16.748  34.047  12.053
44831W        W14712  32.978  16.676   4.339
44832W        W14713  11.710  35.090   0.327
44833W        W14714  37.837  26.592   3.267
44834W        W14715   3.761  10.813  11.955
44835W        W14716  33.625  20.523   2.354
44836W        W14717  33.883  24.645   3.782
44837W        W14718  12.837  33.125   1.383
44838W        W14719  23.652  20.110   1.902
44839W        W14720  43.286  26.070   1.910
44840W        W14721  13.668  44.806  11.884
44841W        W14722  41.375  26.489  11.391
44842W        W14723  16.741   7.250  12.420
44843W        W14724  16.142   2.862  12.419
44844W        W14725  19.555  25.538  12.970
44845W        W14726   0.287  32.056  11.428
44846W        W14727  39.938  39.376  12.389
44847W        W14728  22.152   2.322  12.058
44848W        W14729  23.127  25.695  14.019
44849W        W14730  41.918   5.391  13.914
44850W        W14731  17.065  13.316   0.798
44851W        W14732   5.370  29.452   1.813
44852W        W14733  37.380   9.381   4.711
44853W        W14734  35.380  26.967  13.004
44854W        W14735  19.718  39.017   3.224
44855W        W14736   8.852  27.012   4.187
44856W        W14737   7.688   4.927   3.362
44857W        W14738  43.306  15.579  14.926
44858W        W14739  28.006  26.200   1.424
44859W        W14740  18.592   6.745   4.251
44860W        W14741  37.060   2.947  12.934
44861W        W14742   9.849  26.699  14.001
44862W        W14743  35.408  28.007   0.912
44863W        W14744  28.123  44.839  14.362
44864W        W14745  19.567  24.058  13.399
44865W        W14746   6.742  23.029   1.850
44866W        W14747  39.853  27.455  12.946
44867W        W14748  21.532   4.718   4.707
44868W        W14749   7.220  12.284   3.224
44869W        W14750  28.594  36.970  12.032
44870W        W14751  40.387   1.476  11.102
44871W        W14752   9.659  13.709  13.423
44872W        W14753  25.533  28.599   3.800
44873W        W14754  12.833   9.389   1.377
44874W        W14755   2.307  18.289   1.240
44875W        W14756  38.408  21.602   2.330
44876W        W14757  18.589  36.054  13.529
44877W        W14758  40.317  12.355   4.155
44878W        W14759  24.105  35.882   9.980
44879W        W14760   9.876  24.217   3.195
44880W        W14761   8.765  30.130   3.703
44881W        W14762  19.186  40.897   1.706
44882W        W14763  30.649  39.023  14.383
44883W        W14764  18.146  34.004  11.476
44884W        W14765  10.140  40.818  13.496
44885W        W14766  32.095  35.603  11.923
44886W        W14767  40.947   0.958   4.623
44887W        W14768   0.750  26.457  14.438
44888W        W14769  12.818  29.565  11.097
44889W        W14770   4.246  20.739   1.758
44890W        W14771  33.558  40.457  14.401
44891W        W14772  38.544  40.013  11.097
44892W        W14773  28.142  36.044  14.890
44893W        W14774  24.631  40.377  12.360
44894W        W14775   8.183  43.969   4.275
44895W        W14776  28.092  42.779   4.196
44896W        W14777  30.577  22.164   3.827
44897W        W14778   7.765  18.651  14.013
44898W        W14779  33.924  26.689  12.069
44899W        W14780  38.557  44.398   1.287
44900W        W14781  36.414   8.835  14.293
44901W        W14782  38.060  21.061   0.369
44902W        W14783  36.857  29.046   3.259
44903W        W14784  25.985  10.284  13.900
44904W        W14785  17.098  40.877   0.380
44905W        W14786  31.151  24.176  14.491
44906W        W14787  37.992  42.508  13.380
44907W        W14788   6.345  33.398  14.805
44908W        W14789  37.342  25.137   2.328
44909W        W14790  41.462   2.769   4.768
44910W        W14791  19.673  30.026   2.892
44911W        W14792  15.238  24.188  10.616
44912W        W14793  41.815   8.695   0.782
44913W        W14794  29.661   8.378  12.443
44914W        W14795  41.366  18.172  11.983
44915W        W14796  19.621  24.569   1.305
44916W        W14797   7.751   2.744  13.907
44917W        W14798   9.361  26.971  11.469
44918W        W14799   5.300  16.751  13.399
44919W        W14800  22.714  33.964   2.900
44920W        W14801   6.892  11.350  11.455
44921W        W14802  11.638  11.254   4.347
44922W        W14803  34.084  42.340   2.761
44923W        W14804  23.582   4.930   4.334
44924W        W14805  28.081   4.778   4.599
44925W        W14806  36.428  13.279   0.733
44926W        W14807  26.170  42.454  10.530
44927W        W14808   7.291  21.748   0.907
44928W        W14809  20.079   5.799   3.369
44929W        W14810  36.408  11.749   0.258
44930W        W14811  17.214  10.327   0.921
44931W        W14812  35.099   8.684   3.838
44932W        W14813  12.754  40.403  13.815
44933W        W14814  13.116  33.567  13.959
44934W        W14815  34.934  16.121   4.771
44935W        W14816  44.260  35.520  10.927
44936W        W14817   4.311  27.611   0.840
44937W        W14818  11.840   8.238  10.929
44938W        W14819  37.431  33.002   2.870
44939W        W14820   6.819  18.704   4.354
44940W        W14821  18.730  18.223  14.445
44941W        W14822  38.878  43.914  12.824
44942W        W14823  10.176  25.594   0.243
44943W        W14824  18.073  27.166  10.919
44944W        W14825   4.435  33.614   2.379
44945W        W14826  23.217  39.357   2.903
44946W        W14827  28.934   0.938   2.366
44947W        W14828   3.772  11.307   2.393
44948W        W14829  40.823  44.314   0.248
44949W        W14830   6.263  10.774  10.509
44950W        W14831  25.991  18.092   4.154
44951W        W14832  14.661  39.490  13.970
44952W        W14833  10.329  24.036   1.303
44953W        W14834  25.703  39.862  11.029
44954W        W14835  39.947  24.622   0.833
44955W        W14836  19.754  25.539   2.285
44956W        W14837  24.075  41.799  11.048
44957W        W14838  40.048  29.118  10.981
44958W        W14839   0.264  39.910   4.714
44959W        W14840  33.523  29.020   3.686
44960W        W14841   8.680  28.166  12.918
44961W        W14842   1.802  19.113   0.913
44962W        W14843  12.288  20.242  11.997
44963W        W14844  36.381  13.801  13.886
44964W        W14845  28.175  38.044  13.964
44965W        W14846  13.638  16.170  13.012
44966W        W14847  20.645  28.125  13.824
44967W        W14848  26.467  41.860  11.899
44968W        W14849  44.364  11.284   3.308
44969W        W14850  39.990  28.024  13.815
44970W        W14851  40.483  21.718   4.676
44971W        W14852  38.997   5.267  13.826
44972W        W14853  43.914   2.429   2.372
44973W        W14854   9.340  42.462   2.248
44974W        W14855  14.740  34.010  12.547
44975W        W14856   5.775   2.940  13.877
44976W        W14857  32.621  10.797  11.947
44977W        W14858  17.132  37.530   3.292
44978W        W14859  23.586  19.737   3.712
44979W        W14860  26.162  13.340   4.786
44980W        W14861  44.307   4.218  11.914
44981W        W14862  12.689  15.807   2.336
44982W        W14863  21.131  34.606   3.782
44983W        W14864  22.220  39.548   1.758
44984W        W14865  22.999  23.722   0.748
44985W        W14866   2.720  34.115  14.950
44986W        W14867  38.541  36.014   2.763
44987W        W14868  44.824   3.885   4.613
44988W        W14869  32.021   6.721   1.917
44989W        W14870  24.695  43.989   3.225
44990W        W14871  24.210   4.851  13.307
44991W        W14872  31.137   4.833  14.485
44992W        W14873  41.821  34.942  13.507
44993W        W14874  43.480   4.388  13.368
44994W        W14875  26.601  24.515   2.275
44995W        W14876   5.855  19.066  14.827
44996W        W14877   2.864  41.878  13.038
44997W        W14878  28.511  33.458   4.118
44998W        W14879  44.499  39.316  10.501
44999W        W14880  13.606  44.873  11.015
45000W        W14881  23.234  36.464  13.899
45001W        W14882  12.174  36.484   2.759
45002W        W14883  43.922   8.371  11.509
45003W        W14884  29.648  20.118   0.816
45004W        W14885  34.442  17.174   0.269
45005W        W14886  41.459  17.239  12.068
45006W        W14887  34.983  33.061  12.514
45007W        W14888   5.343  11.356   4.129
45008W        W14889   2.307  22.657  12.828
45009W        W14890   6.792  37.563   0.280
45010W        W14891  26.056  38.332   4.115
45011W        W14892  28.093  14.158   9.981
45012W        W14893  36.903  10.678   0.776
45013W        W14894   2.263  17.102  12.994
45014W        W14895  36.887  32.407   2.833
45015W        W14896   6.753  19.051  11.936
45016W        W14897  43.858   3.784   1.758
45017W        W14898  31.018  41.373  13.461
45018W        W14899   2.871  32.445   0.442
45019W        W14900  43.506   9.200   3.313
45020W        W14901   5.294   2.913   4.192
45021W        W14902   5.745   3.841   3.684
45022W        W14903  26.599  20.212   4.702
45023W        W14904  12.758  18.261  12.519
45024W        W14905  13.208  26.072  13.513
45025W        W14906  29.460  31.614  13.002
45026W        W14907   9.870  12.672   1.766
45027W        W14908  33.921  15.329  10.572
45028W        W14909  27.164  11.662   3.658
45029W        W14910  15.595  16.148   3.224
45030W        W14911  10.851  34.871   2.723
45031W        W14912  34.554   3.276   1.707
45032W        W14913   6.896  24.056   0.248
45033W        W14914  15.771  14.252  14.473
45034W        W14915  18.272  25.481   3.646
45035W        W14916   6.743  32.409   2.373
45036W        W14917  33.411  11.836  13.039
45037W        W14918  32.605   8.335   4.649
45038W        W14919  29.061  15.658  12.025
45039W        W14920  22.507  18.144   4.247
45040W        W14921  43.020  29.061  12.925
45041W        W14922  36.385  28.165   1.739
45042W        W14923  21.144  41.986  11.451
45043W        W14924  41.880   9.744   2.832
45044W        W14925  14.332  34.582  13.861
45045W        W14926  28.632   1.949  11.067
45046W        W14927   8.222   9.219  12.433
45047W        W14928  43.852   2.419  12.526
45048W        W14929  43.445  33.093  10.624
45049W        W14930  36.924  23.518   4.235
45050W        W14931   6.256   8.692  10.572
45051W        W14932  20.724  43.829   4.257
45052W        W14933  36.358  30.570  12.856
45053W        W14934  14.688  27.612   3.387
45054W        W14935   5.783  12.852  10.897
45055W        W14936  14.314  11.752  10.629
45056W        W14937  27.130   1.892   3.329
45057W        W14938  24.696  19.598  14.859
45058W        W14939  40.410  20.071  13.329
45059W        W14940   2.300   7.720  12.511
45060W        W14941   6.246   3.827  10.499
45061W        W14942  32.636  20.752   1.764
45062W        W14943  39.053   8.274   1.395
45063W        W14944  39.479  34.078   1.906
45064W        W14945  16.786  37.417  14.900
45065W        W14946  11.236  34.047   1.827
45066W        W14947  18.214  34.886  12.063
45067W        W14948  18.677  22.692   1.738
45068W        W14949   6.254  28.016  12.943
45069W        W14950   5.357  19.161   4.135
45070W        W14951   0.300  42.427   1.309
45071W        W14952   1.732  36.952  13.352
45072W        W14953  19.586  29.466   0.764
45073W        W14954  30.523  12.769  10.937
45074W        W14955   3.855  15.799  13.005
45075W        W14956  36.875  16.748  13.505
45076W        W14957  15.084  40.929  12.946
45077W        W14958  33.108  22.170  14.998
45078W        W14959   0.812  43.393   2.411
45079W        W14960  15.809  14.647   0.749
45080W        W14961  23.184  14.686   3.761
45081W        W14962  31.152  36.549  10.945
45082W        W14963  30.553  21.219   3.700
45083W        W14964  32.416  39.521   4.229
45084W        W14965  38.879   6.261  13.422
45085W        W14966  18.248   3.837  13.029
45086W        W14967  16.099   9.712  12.348
45087W        W14968  30.105  27.157  13.437
45088W        W14969   1.355   1.818  11.989
45089W        W14970  38.368  26.006  12.911
45090W        W14971   9.164  16.173   0.815
45091W        W14972  26.499  38.434   4.347
45092W        W14973   6.251   0.297  14.790
45093W        W14974  42.929  43.770   4.141
45094W        W14975  41.413  30.599  10.991
45095W        W14976  15.670  41.519   3.861
45096W        W14977  19.065  22.519  13.894
45097W        W14978  10.178  27.498   3.324
45098W        W14979   4.315   4.745   4.663
45099W        W14980  32.958  40.349  14.349
45100W        W14981  40.336  26.555   2.793
45101W        W14982   4.250  40.978  11.979
45102W        W14983   0.365  44.489  13.373
45103W        W14984  43.799  31.602   3.649
45104W        W14985  21.246  44.858   3.720
45105W        W14986  30.586  35.466  14.418
45106W        W14987   0.447  37.879   2.681
45107W        W14988   4.444  33.095   4.342
45108W        W14989  31.582  31.433   0.810
45109W        W14990  38.498  41.315  10.518
45110W        W14991  20.738  26.162  13.804
45111W        W14992  41.385   3.888  14.891
45112W        W14993  33.573   4.835  11.992
45113W        W14994   2.440  29.446   0.314
45114W        W14995  41.890  17.196   1.357
45115W        W14996   5.340  20.650  13.329
45116W        W14997  11.847  35.384   1.740
45117W        W14998   9.844  17.093  13.058
45118W        W14999  16.624  37.888   0.347
45119W        W15000  13.819  35.948   4.156
45120W        W15001   2.333  11.267  14.985
45121W        W15002   0.394   9.303  10.622
45122W        W15003  24.069  26.683  13.854
45123W        W15004  14.781  16.217  12.541
45124W        W15005  22.576  20.095  12.020
45125W        W15006   2.765   5.300   1.722
45126W        W15007  10.700   5.732   4.170
45127W        W15008  27.484   6.185  12.415
45128W        W15009  34.916  20.605  13.855
45129W        W15010  33.922  28.462   3.280
45130W        W15011  11.658  21.030   1.842
45131W        W15012  19.568  10.153   0.790
45132W        W15013  32.475  25.144  13.463
45133W        W15014   5.899  33.443  14.856
45134W        W15015   4.769   6.222  11.018
45135W        W15016  13.627  26.700  12.997
45136W        W15017   9.769  29.595   0.472
45137W        W15018  21.750  28.159   0.854
45138W        W15019   7.347  36.992   0.836
45139W        W15020  25.708  25.701   1.286
45140W        W15021  23.214  25.605  11.927
45141W        W15022  22.182  13.268  11.976
45142W        W15023   6.405  15.720  14.905
45143W        W15024  22.204  37.354  13.487
45144W        W15025  39.956  26.573  13.897
45145W        W15026   7.857  36.041   4.293
45146W        W15027  38.862   2.729   4.160
45147W        W15028  39.061   0.798   2.876
45148W        W15029  36.892  15.198   0.916
45149W        W15030  20.161  36.898   2.184
45150W        W15031  27.531  37.936   1.775
45151W        W15032  32.549   2.227   2.237
45152W        W15033  32.492   3.228   2.321
45153W        W15034   4.345  13.813  13.344
45154W        W15035   6.768  16.254   0.377
45155W        W15036  22.746  39.962  13.469
45156W        W15037  24.201  12.229   3.149
45157W        W15038  11.269   6.250  13.489
45158W        W15039  23.537  44.958   1.830
45159W        W15040   0.391  28.030   4.678
45160W        W15041  37.886   4.865   1.306
45161W        W15042  35.371  28.020  12.521
45162W        W15043  28.481   2.245   2.782
45163W        W15044   4.408  14.776  13.998
45164W        W15045  11.259  10.759  10.913
45165W        W15046  37.539  21.517   4.838
45166W        W15047  36.027  31.527  10.410
45167W        W15048  36.535  37.558   0.331
45168W        W15049  40.363   6.352   0.422
45169W        W15050   0.302  23.058  12.949
45170W        W15051  33.890  13.638   4.265
45171W        W15052  42.422   1.411  11.416
45172W        W15053  35.893  43.508   4.342
45173W        W15054  26.574   7.911   0.882
45174W        W15055   5.403  32.062  14.469
45175W        W15056  38.983  43.332   1.255
45176W        W15057  40.540  12.235  11.004
45177W        W15058   2.455   3.356  14.275
45178W        W15059  17.569  11.265  13.525
45179W        W15060   8.814  31.497  14.388
45180W        W15061  42.840  21.102   3.238
45181W        W15062  26.507  38.879   1.321
45182W        W15063  32.512  29.954  12.391
45183W        W15064  44.994  23.665  11.382
45184W        W15065   2.892  43.965   1.363
45185W        W15066  36.973  10.685  14.359
45186W        W15067  43.943  43.389  13.437
45187W        W15068  15.312  14.132   0.877
45188W        W15069  31.978  42.934  10.074
45189W        W15070   0.865  36.371  12.557
45190W        W15071  31.043  23.072  12.090
45191W        W15072  28.548  35.867   0.873
45192W        W15073   8.805  24.135  14.300
45193W        W15074  40.332  39.478   4.306
45194W        W15075  30.497  11.282   0.300
45195W        W15076  14.099  12.826   1.313
45196W        W15077  30.966   3.943   3.267
45197W        W15078  15.322  20.249   2.841
45198W        W15079  19.063  39.848   4.813
45199W        W15080  27.569   4.721   4.711
45200W        W15081  29.556  28.481  14.436
45201W        W15082  33.031   6.277   1.263
45202W        W15083  42.364  40.537   0.247
45203W        W15084  44.987  35.041   1.448
45204W        W15085  11.832  37.577   2.222
45205W        W15086   3.309   5.284  11.128
45206W        W15087  43.837  35.856   2.815
45207W        W15088  10.278  30.016  11.099
45208W        W15089  29.148  38.411  10.608
45209W        W15090  22.121  11.796  13.400
45210W        W15091  12.342  16.702  10.047
45211W        W15092  30.007  27.103  10.639
45212W        W15093  44.933  11.666  12.843
45213W        W15094  10.642  35.023   4.792
45214W        W15095  44.010  21.533  11.384
45215W        W15096   4.288   1.752   3.359
45216W        W15097   1.897  37.856  10.502
45217W        W15098  13.105  44.821  10.440
45218W        W15099   1.923  33.580  13.916
45219W        W15100   7.266   4.849  10.565
45220W        W15101  37.416  41.301   1.315
45221W        W15102  13.323  21.580  12.907
45222W        W15103  30.071  31.106   1.284
45223W        W15104  16.277  21.247   1.360
45224W        W15105  20.185  15.132  11.860
45225W        W15106  12.296  12.744  14.008
45226W        W15107  26.970  22.682   0.777
45227W        W15108  40.808   0.830  11.056
45228W        W15109  41.794   3.430   4.612
45229W        W15110  12.183  39.540   0.454
45230W        W15111  43.492  35.427  12.508
45231W        W15112  24.582  44.833   3.198
45232W        W15113   2.928  39.831  10.514
45233W        W15114  34.373   4.275   2.231
45234W        W15115  42.899  23.043   1.292
45235W        W15116   6.273  16.225  14.421
45236W        W15117  38.567  26.983  13.490
45237W        W15118  31.132  18.764  14.907
45238W        W15119  27.136  30.907   4.633
45239W        W15120   3.414   4.394   0.808
45240W        W15121   9.270  31.926   2.704
45241W        W15122  12.315  18.593  11.372
45242W        W15123  31.481  23.025  13.540
45243W        W15124  18.102  38.474  11.552
45244W        W15125  26.038   9.799   1.416
45245W        W15126  42.450  27.544  14.978
45246W        W15127  43.372   8.858  14.862
45247W        W15128   2.911  27.610  13.983
45248W        W15129  39.398  33.058  14.894
45249W        W15130   1.336  11.686   3.211
45250W        W15131  36.518  44.864   2.789
45251W        W15132  44.474  10.802   5.157
45252W        W15133  38.881  27.057   0.419
45253W        W15134   1.402  20.611   3.386
45254W        W15135  13.214  11.228   2.360
45255W        W15136   8.268   1.432  11.477
45256W        W15137   7.222  30.938   1.850
45257W        W15138  33.512  13.317  10.441
45258W        W15139  24.065  16.592   4.294
45259W        W15140   6.206   1.357   4.243
45260W        W15141  16.277  28.028   4.714
45261W        W15142  32.046  36.869  13.342
45262W        W15143  16.742  32.947   3.165
45263W        W15144  34.065   0.890   2.716
45264W        W15145  29.934  38.342  10.902
45265W        W15146   0.281  15.234   0.371
45266W        W15147  29.628   2.468  14.032
45267W        W15148  33.568   4.756   1.405
45268W        W15149  21.138  13.771   3.207
45269W        W15150  11.863  40.382  10.634
45270W        W15151  39.809  16.810   1.756
45271W        W15152  26.115  11.138  12.916
45272W        W15153  17.189  14.759  14.280
45273W        W15154  44.418  38.462   5.192
45274W        W15155  20.752  43.872  11.580
45275W        W15156  19.080  36.965  13.966
45276W        W15157  25.982  27.559  14.840
45277W        W15158  24.181  13.105  14.851
45278W        W15159  13.122  34.571   2.688
45279W        W15160  38.367  10.330   2.393
45280W        W15161  26.629  41.956   5.113
45281W        W15162  43.467  32.602  13.441
45282W        W15163  16.163   7.211  12.869
45283W        W15164  28.954  43.335   0.761
45284W        W15165  39.838  16.609  13.039
45285W        W15166  16.143  34.487   2.340
45286W        W15167   9.882  25.117   4.239
45287W        W15168  22.666   8.223   0.909
45288W        W15169  43.483  12.348  14.344
45289W        W15170  25.200  16.568  13.800
45290W        W15171  36.912  25.473   1.885
45291W        W15172  43.414   9.194   2.877
45292W        W15173  27.068   7.286  10.524
45293W        W15174  20.262  11.866  12.995
45294W        W15175  11.671   7.186  14.435
45295W        W15176  12.248   9.269   4.295
45296W        W15177   7.843  35.417  14.922
45297W        W15178  18.726  19.633  13.888
45298W        W15179  24.585  27.032   4.649
45299W        W15180  25.071  25.651  12.371
45300W        W15181  25.594  10.153   0.360
45301W        W15182  41.291   4.297  12.075
45302W        W15183  31.522  37.860  13.813
45303W        W15184  37.395  22.996  12.052
45304W        W15185   3.322  13.291   0.323
45305W        W15186  16.687  43.782  10.484
45306W        W15187   0.788  19.161  14.452
45307W        W15188   7.332  18.611   2.246
45308W        W15189   0.794  22.551   3.223
45309W        W15190   0.946  38.969   1.929
45310W        W15191  17.701  43.765  14.420
45311W        W15192  23.587  32.016  12.426
45312W        W15193   4.870  37.993   4.336
45313W        W15194  12.836   6.270  10.904
45314W        W15195  44.390   6.681  12.026
45315W        W15196   3.800   8.345   3.694
45316W        W15197  28.608   6.740  10.074
45317W        W15198  42.828  10.199  12.006
45318W        W15199   2.761  15.144  10.930
45319W        W15200  12.800  44.378  14.789
45320W        W15201  14.698  27.045   2.846
45321W        W15202  29.172  13.348  11.868
45322W        W15203  17.653   9.272   3.242
45323W        W15204  26.960  16.147   4.831
45324W        W15205  30.469  44.808  12.064
45325W        W15206  42.464  22.112  14.032
45326W        W15207  19.565   1.380   4.328
45327W        W15208  31.023  12.347  12.408
45328W        W15209  42.027  13.341   2.806
45329W        W15210  32.414  10.658   3.154
45330W        W15211  26.076  34.467  13.943
45331W        W15212  31.033  21.615  12.358
45332W        W15213  21.260   1.431  10.085
45333W        W15214  43.994  22.529  11.601
45334W        W15215  12.278  22.092  11.597
45335W        W15216  12.320  41.495   4.623
45336W        W15217  26.186  16.094   4.746
45337W        W15218  19.262   3.812   4.190
45338W        W15219  43.862   2.316   4.680
45339W        W15220  26.645  41.916  10.941
45340W        W15221   7.675  22.728  12.573
45341W        W15222  29.485  39.506   4.775
45342W        W15223  29.607  25.039  13.336
45343W        W15224  25.480  11.158  13.418
45344W        W15225  15.790  43.274  13.926
45345W        W15226   8.837  22.138  10.614
45346W        W15227  21.202   9.379  12.463
45347W        W15228  15.781  10.666  12.431
45348W        W15229  35.991  39.402   2.227
45349W        W15230  29.979  11.267   0.452
45350W        W15231  20.136  43.851   3.147
45351W        W15232  32.431  17.210  13.980
45352W        W15233  42.417  35.899   2.378
45353W        W15234  28.946  12.724   3.172
45354W        W15235  22.050   1.755  11.951
45355W        W15236  41.443   6.270   2.206
45356W        W15237  41.026  28.116  14.293
45357W        W15238   0.904   1.862  11.102
45358W        W15239  20.686  34.512  13.936
45359W        W15240  18.153  36.496  14.489
45360W        W15241  20.196  39.475   0.742
45361W        W15242  19.718  24.641   2.274
45362W        W15243  36.063  10.196  13.901
45363W        W15244  20.586  32.028   1.904
45364W        W15245  13.249   9.726  12.976
45365W        W15246   8.195  10.361   3.363
45366W        W15247   6.813   1.737  13.471
45367W        W15248  27.627  36.894  13.927
45368W        W15249   4.389   9.218  12.558
45369W        W15250   1.255  36.849   4.324
45370W        W15251  16.704  14.259   4.807
45371W        W15252  25.219  30.526  14.360
45372W        W15253  44.374  32.918   3.165
45373W        W15254   7.775  28.030  13.870
45374W        W15255  39.814   2.311  13.790
45375W        W15256  36.562  12.670   3.633
45376W        W15257  23.992  14.209  14.430
45377W        W15258  21.221  42.820   4.176
45378W        W15259  35.398  44.482   3.215
45379W        W15260   2.237  24.617  13.888
45380W        W15261  19.686  36.994  12.955
45381W        W15262  28.063  22.607   2.846
45382W        W15263  32.017  14.111   0.258
45383W        W15264  42.439  36.936   3.306
45384W        W15265  35.023  26.146   3.245
45385W        W15266   6.689  20.104  13.894
45386W        W15267  18.074   4.743   4.349
45387W        W15268  23.610  38.485  10.908
45388W        W15269   8.718  32.990  14.024
45389W        W15270  23.626  17.712   4.711
45390W        W15271  29.038  45.000   1.347
45391W        W15272  27.665   9.682   3.372
45392W        W15273   3.446   0.341  11.891
45393W        W15274  15.638  42.446   0.428
45394W        W15275  44.344  11.823   3.269
45395W        W15276   2.408  37.086   3.146
45396W        W15277  21.646  37.557   0.950
45397W        W15278  35.852  44.898   3.737
45398W        W15279  33.439  27.611   4.335
45399W        W15280  19.155  28.952   0.434
45400W        W15281  23.730   0.790  12.573
45401W        W15282   9.368  43.824   0.960
45402W        W15283   1.433  32.587   4.241
45403W        W15284  19.093  16.228  13.058
45404W        W15285   7.208  18.196   1.781
45405W        W15286  38.502  27.972  11.576
45406W        W15287  33.022   1.834   1.409
45407W        W15288  40.967   6.212   1.358
45408W        W15289  20.711  25.529  13.831
45409W        W15290  41.981  11.752   0.770
45410W        W15291  25.030  27.041   4.635
45411W        W15292  23.677  32.974  12.958
45412W        W15293  22.246   9.840   3.260
45413W        W15294  32.601  16.175  10.414
45414W        W15295  15.150  37.372   2.862
45415W        W15296  17.292  17.639  11.923
45416W        W15297  11.360  44.974  11.595
45417W        W15298  36.964  39.873   0.913
45418W        W15299  16.586  36.880   4.192
45419W        W15300  11.185  32.889   3.320
45420W        W15301  28.984   8.243   1.298
45421W        W15302  43.806  36.909  13.982
45422W        W15303  11.249  22.662   0.807
45423W        W15304   4.877  18.139   4.830
45424W        W15305   3.228  22.051   0.404
45425W        W15306  38.894   7.338   2.787
45426W        W15307  42.391   1.883   4.243
45427W        W15308  38.504  44.284  10.544
45428W        W15309  23.518  17.683  12.353
45429W        W15310  21.558  10.304  13.367
45430W        W15311   6.267  19.064  10.643
45431W        W15312  15.309  43.386  13.952
45432W        W15313  31.574  27.195  13.434
45433W        W15314  26.611  32.130  10.495
45434W        W15315  34.904   5.719  10.616
45435W        W15316  25.637  18.124   1.248
45436W        W15317  16.098  13.649  13.340
45437W        W15318  18.697  26.481  12.567
45438W        W15319  23.700  25.607   4.775
45439W        W15320  25.213  16.147  14.975
45440W        W15321  22.732  24.588  14.299
45441W        W15322  29.143  32.953  11.944
45442W        W15323  32.132  21.035  11.862
45443W        W15324  21.753  21.037  11.949
45444W        W15325  25.978  16.248   3.758
45445W        W15326  26.064  38.502   2.389
45446W        W15327  29.032   4.794  12.856
45447W        W15328  10.844  39.965  12.957
45448W        W15329  36.859  27.097  10.999
45449W        W15330  30.091  13.171   3.766
45450W        W15331  36.349   5.228  12.531
45451W        W15332   0.864   7.812  14.388
45452W        W15333   4.412  20.673  12.430
45453W        W15334   9.321  20.121  13.446
45454W        W15335  23.012   5.432   3.639
45455W        W15336   0.290  16.599  12.082
45456W        W15337  22.124  24.534  12.440
45457W        W15338  31.047   7.900  14.905
45458W        W15339  40.464   2.275   1.400
45459W        W15340  22.587   5.212   2.867
45460W        W15341  37.964  16.572  13.382
45461W        W15342   6.754  34.977   2.187
45462W        W15343  33.125  27.102  13.934
45463W        W15344   0.437  10.696   1.910
45464W        W15345  30.602  21.138   4.648
45465W        W15346  12.275  30.125  14.835
45466W        W15347  42.885  21.734   1.429
45467W        W15348  13.735   5.697  13.506
45468W        W15349  41.383  26.677  13.470
45469W        W15350  22.735  41.987   4.776
45470W        W15351  13.166  20.117  14.305
45471W        W15352  30.034  10.301  10.480
45472W        W15353  15.183  30.097  13.356
45473W        W15354  13.218  21.186  10.539
45474W        W15355   1.447  32.945   3.284
45475W        W15356  38.943   8.386  13.378
45476W        W15357  26.181   1.900  11.035
45477W        W15358  44.351  20.617   2.888
45478W        W15359  31.595  32.936   0.324
45479W        W15360  21.243  31.635   3.289
45480W        W15361  29.081  24.080  11.944
45481W        W15362  34.509   0.372  11.867
45482W        W15363  20.564  43.892  10.970
45483W        W15364  39.524  35.430  11.470
45484W        W15365  18.665  32.490  14.943
45485W        W15366  15.297   9.764  14.979
45486W        W15367  35.920  13.309  13.949
45487W        W15368  24.639  21.262   0.883
45488W        W15369   3.873   5.336  10.910
45489W        W15370  10.275  30.055   1.378
45490W        W15371   9.819  34.071   4.296
45491W        W15372  30.122  37.913  12.543
45492W        W15373  25.495  24.094  13.547
45493W        W15374  12.301   5.703   0.728
45494W        W15375  27.165  41.921  12.461
45495W        W15376  39.451  24.223   4.693
45496W        W15377  18.291  24.693   0.352
45497W        W15378  19.658   2.468   2.796
45498W        W15379   6.236   3.857  11.571
45499W        W15380   7.814  33.477   4.729
45500W        W15381  27.454  33.896  11.508
45501W        W15382  40.412   2.872  11.021
45502W        W15383   4.294  42.481   4.713
45503W        W15384  37.053  15.592   3.711
45504W        W15385   9.372   5.848   1.804
45505W        W15386  10.371   7.808  11.897
45506W        W15387  18.218   5.866   4.155
45507W        W15388  13.259  30.100  10.890
45508W        W15389  15.306   2.735   4.664
45509W        W15390  15.695  14.733  13.061
45510W        W15391  17.594  26.090   1.341
45511W        W15392   4.351  36.013   0.760
45512W        W15393  16.685  30.570  14.324
45513W        W15394  30.103  14.621  11.579
45514W        W15395   2.458  35.576  13.959
45515W        W15396  13.307  17.236   0.452
45516W        W15397  24.187  18.135   0.941
45517W        W15398  42.032   6.339  13.970
45518W        W15399  40.351  13.606  10.412
45519W        W15400   2.339  23.669   4.288
45520W        W15401  28.962  21.249   4.698
45521W        W15402  24.540  14.203  11.921
45522W        W15403  12.348  11.674   0.463
45523W        W15404  18.658   6.399  14.296
45524W        W15405  14.604   8.730  13.804
45525W        W15406  43.453  13.251  13.407
45526W        W15407  42.833  15.085  13.488
45527W        W15408  28.109  26.620   3.176
45528W        W15409  32.986  19.760  13.486
45529W        W15410  30.552  39.002   0.735
45530W        W15411  32.103  38.485  12.346
45531W        W15412  17.295   0.426  14.316
45532W        W15413  43.796  25.203   4.823
45533W        W15414  22.168   9.885  12.514
45534W        W15415  10.845  24.659  13.912
45535W        W15416  15.762   5.228  11.037
45536W        W15417   4.878  19.765   0.385
45537W        W15418  10.148  24.049   2.721
45538W        W15419  36.497  12.201   4.621
45539W        W15420   9.363  11.184   3.647
45540W        W15421  38.894   8.709   0.345
45541W        W15422  18.591  21.522  14.363
45542W        W15423  20.193  39.384   4.628
45543W        W15424  41.010   0.322   1.412
45544W        W15425  25.008  14.733   1.710
45545W        W15426  22.577  11.644   1.433
45546W        W15427  23.029   9.748  10.987
45547W        W15428  19.067  23.658   2.415
45548W        W15429  28.540  19.176   1.806
45549W        W15430   2.451  31.114  13.966
45550W        W15431  30.978   3.905  10.467
45551W        W15432  22.998  14.648  13.458
45552W        W15433  11.798  12.675   2.844
45553W        W15434  29.957  36.371  11.959
45554W        W15435   3.226  43.447   0.946
45555W        W15436  25.481  29.637   3.760
45556W        W15437  40.367  36.451   2.780
45557W        W15438  16.286  42.827  11.857
45558W        W15439  22.685  36.073  11.890
45559W        W15440  34.092  19.153  11.016
45560W        W15441  34.941  37.581   0.412
45561W        W15442   0.259   2.395  13.461
45562W        W15443  21.682  10.189   4.339
45563W        W15444  40.919  39.540   1.841
45564W        W15445   5.829  18.101   2.834
45565W        W15446  10.263   0.484  12.569
45566W        W15447  27.987  41.529  10.159
45567W        W15448  21.152  39.967  12.024
45568W        W15449   7.674  14.719  13.998
45569W        W15450  42.367  44.867   1.920
45570W        W15451  30.964  19.207  11.942
45571W        W15452  27.159  14.117  11.072
45572W        W15453  21.752  29.454   4.602
45573W        W15454  15.610  30.535   1.694
45574W        W15455  34.074  26.037  11.489
45575W        W15456   6.765  44.468  12.956
45576W        W15457   7.805  18.141  10.074
45577W        W15458  28.994  23.593  14.324
45578W        W15459   4.296   2.725   3.718
45579W        W15460  16.248  29.014  10.949
45580W        W15461  31.114   4.932   4.816
45581W        W15462  24.483   4.780   2.296
45582W        W15463   8.843  13.267   1.924
45583W        W15464   2.793  27.138  12.859
45584W        W15465  33.126  15.263   1.388
45585W        W15466  23.608  22.522  14.972
45586W        W15467   9.224  31.906   4.701
45587W        W15468  31.110  32.891  12.961
45588W        W15469   4.899  32.105   3.336
45589W        W15470  41.377  12.196   2.253
45590W        W15471  32.045  41.467   2.195
45591W        W15472  30.657   1.407  14.994
45592W        W15473  27.036  38.445   3.750
45593W        W15474  10.771   3.875  11.912
45594W        W15475  36.593   0.862  10.029
45595W        W15476   9.173  31.137   2.178
45596W        W15477  13.262  39.885  13.867
45597W        W15478  37.893  12.210   4.262
45598W        W15479   3.455  32.526   0.863
45599W        W15480   6.753  38.006   0.357
45600W        W15481  15.159  19.099  14.387
45601W        W15482  25.682  24.060   4.257
45602W        W15483  42.454  34.452  12.052
45603W        W15484  25.037   9.342   4.702
45604W        W15485  23.537  37.408   3.647
45605W        W15486   6.403  22.103   2.676
45606W        W15487  33.623  13.792   4.180
45607W        W15488   9.733  39.429  14.891
45608W        W15489  36.877  39.963   4.660
45609W        W15490  30.105   0.829  13.791
45610W        W15491  11.203  37.932  12.913
45611W        W15492  18.641   0.988  12.457
45612W        W15493  29.097  30.470   4.256
45613W        W15494  18.230  29.667   3.841
45614W        W15495  30.002  22.744  14.867
45615W        W15496  37.065  29.943  12.943
45616W        W15497   7.840   3.381  13.522
45617W        W15498   7.901  40.468   0.295
45618W        W15499   7.727  41.909   0.271
45619W        W15500  33.908  16.687  13.858
45620W        W15501  37.480  31.918   1.775
45621W        W15502  31.615  34.868   2.817
45622W        W15503  21.045  12.271  12.533
45623W        W15504  17.073   8.686  11.091
45624W        W15505  38.968   6.295   3.364
45625W        W15506  17.664  42.887   3.225
45626W        W15507   9.744   0.950   4.702
45627W        W15508  31.598  20.224   1.387
45628W        W15509  15.590  34.460  13.027
45629W        W15510   8.671   0.945  11.958
45630W        W15511  26.965  33.902  11.938
45631W        W15512  41.924  13.177  14.781
45632W        W15513  25.620  19.608  11.959
45633W        W15514   4.421  43.445   3.633
45634W        W15515   2.850   7.391   1.794
45635W        W15516   3.832  21.678  11.546
45636W        W15517  35.041  12.266  12.064
45637W        W15518  37.040  26.982   3.202
45638W        W15519  17.765  15.719   4.795
45639W        W15520   1.238  11.718  14.376
45640W        W15521  16.308   2.866  12.038
45641W        W15522  43.348  37.996  14.285
45642W        W15523  27.036  38.836   2.770
45643W        W15524  34.893   2.394  11.980
45644W        W15525  32.899  21.511   2.295
45645W        W15526  27.001  38.007   3.734
45646W        W15527   0.760  21.526  12.984
45647W        W15528  17.153  44.281  10.407
45648W        W15529  22.693  19.043   0.275
45649W        W15530   2.364  37.062  12.398
45650W        W15531  12.321   3.272  14.275
45651W        W15532  12.757  24.583  13.827
45652W        W15533   4.410  37.035  14.496
45653W        W15534  22.089  19.236  11.068
45654W        W15535  31.143   1.386   3.747
45655W        W15536  15.285   9.209  14.465
45656W        W15537  22.233  44.810   1.856
45657W        W15538  37.490  40.317   3.200
45658W        W15539  31.434  30.936   0.439
45659W        W15540  18.273  37.451   1.235
45660W        W15541   9.733  16.094   5.265
45661W        W15542  44.490   8.272   2.207
45662W        W15543   0.444  16.733  14.016
45663W        W15544  11.130  11.738   0.769
45664W        W15545  14.699  38.399   2.311
45665W        W15546  26.666   4.788  10.464
45666W        W15547  33.962  28.672   1.761
45667W        W15548   6.713  23.991  10.420
45668W        W15549  16.166  35.524  13.327
45669W        W15550  30.940   0.752  13.851
45670W        W15551   9.238  20.546  14.895
45671W        W15552  14.311  20.606  14.318
45672W        W15553   6.798  11.684   3.168
45673W        W15554  30.488   8.878  13.033
45674W        W15555   9.841  14.743   2.717
45675W        W15556  40.830  24.478   3.680
45676W        W15557  21.117  38.418  10.594
45677W        W15558  11.361   0.480  11.499
45678W        W15559  22.514   7.867   1.847
45679W        W15560   8.783   1.919   3.631
45680W        W15561  23.233  31.045  10.984
45681W        W15562  17.240  22.227  13.416
45682W        W15563  43.944  14.095   0.418
45683W        W15564  28.134  35.410   1.704
45684W        W15565  13.325  32.582   4.228
45685W        W15566   1.451   6.184  11.118
45686W        W15567  23.152  30.501   1.849
45687W        W15568  41.003  27.161  10.920
45688W        W15569  39.378  24.206   2.312
45689W        W15570  35.001  18.598  12.974
45690W        W15571  29.043  25.611   4.637
45691W        W15572   3.896  25.567  12.857
45692W        W15573  16.085  15.685   4.268
45693W        W15574  22.206   3.762   4.718
45694W        W15575  31.985  38.978  13.026
45695W        W15576  23.689   6.821  11.952
45696W        W15577  37.071  23.227   1.759
45697W        W15578   9.272  28.982   3.191
45698W        W15579  21.632  25.983   2.231
45699W        W15580  13.651  37.498   1.432
45700W        W15581  12.156  29.622  10.612
45701W        W15582  12.210  28.946   4.257
45702W        W15583  23.177  16.772   5.624
45703W        W15584   6.745   0.321  14.985
45704W        W15585   2.431  16.714  14.804
45705W        W15586  36.480  11.726   1.330
45706W        W15587  42.416  25.978  13.815
45707W        W15588  13.691   8.270  14.841
45708W        W15589  35.581  12.617   0.874
45709W        W15590  15.822   1.270   2.363
45710W        W15591   6.811   2.240  12.938
45711W        W15592  28.539  33.453   3.370
45712W        W15593  11.846  14.113  13.814
45713W        W15594  43.411  10.150   0.381
45714W        W15595  34.539  12.670  11.428
45715W        W15596  18.100  22.593   0.967
45716W        W15597  44.957  37.442   2.881
45717W        W15598  23.005   9.826  11.572
45718W        W15599   7.244   2.871  14.286
45719W        W15600  18.243  42.975   0.814
45720W        W15601  30.047  41.354   4.766
45721W        W15602  36.910  12.351  11.556
45722W        W15603  29.078   8.832   0.446
45723W        W15604  27.654  19.713   0.942
45724W        W15605  18.211  28.520  14.280
45725W        W15606  38.470  24.015   0.386
45726W        W15607  18.129  13.164  12.438
45727W        W15608  28.182   9.205   0.919
45728W        W15609   6.370  20.671  13.353
45729W        W15610  29.141  37.561   1.426
45730W        W15611  10.287   2.860  13.486
45731W        W15612  31.416  34.031   1.811
45732W        W15613  19.237  31.638  12.376
45733W        W15614   4.875  23.992   3.709
45734W        W15615  22.081  42.317   2.387
45735W        W15616  37.864  31.000   4.271
45736W        W15617  13.304  19.582   9.987
45737W        W15618  19.629  13.814   1.347
45738W        W15619  41.329  19.705  10.517
45739W        W15620  19.149   4.319   3.662
45740W        W15621  19.694  40.937  12.000
45741W        W15622  10.256  13.247  13.991
45742W        W15623  27.598  21.063  14.428
45743W        W15624  24.099   7.872   5.276
45744W        W15625  38.847  14.149   4.650
45745W        W15626  38.839  43.932   2.711
45746W        W15627  35.002   9.734  10.462
45747W        W15628  26.051  10.633  14.768
45748W        W15629  20.649  24.657  12.359
45749W        W15630  10.349  31.494  10.917
45750W        W15631   2.889   3.241  14.386
45751W        W15632  42.461  22.625  11.884
45752W        W15633  27.964  33.116   0.927
45753W        W15634   4.278  18.289   0.333
45754W        W15635   0.942  42.827  12.512
45755W        W15636  33.460  37.501   2.300
45756W        W15637   3.735  31.980   3.865
45757W        W15638  23.101   9.204  14.341
45758W        W15639  21.571  37.947  12.887
45759W        W15640  25.213  42.018   0.741
45760W        W15641  16.681  14.702  12.341
45761W        W15642  21.566  25.174   4.701
45762W        W15643  36.467  20.603   0.956
45763W        W15644   6.792  33.983   3.811
45764W        W15645  35.068  30.555   3.765
45765W        W15646  14.633  20.102  11.562
45766W        W15647  18.165  26.482  14.417
45767W        W15648  14.756  12.178  11.423
45768W        W15649  40.448   4.719  14.305
45769W        W15650   5.860   0.344  11.961
45770W        W15651  28.575  24.707  10.128
45771W        W15652  29.069  40.332   4.326
45772W        W15653   7.729  12.629  13.004
45773W        W15654  27.602  14.218  13.517
45774W        W15655  25.581   3.883  10.619
45775W        W15656  43.901   4.760   4.599
45776W        W15657  10.651  17.278   0.812
45777W        W15658   2.277   7.692   3.678
45778W        W15659   0.788  32.057   2.283
45779W        W15660  31.925  18.080   3.210
45780W        W15661  33.976  42.347  11.570
45781W        W15662  14.246  34.096   2.784
45782W        W15663  21.160  20.528   2.852
45783W        W15664   5.834  39.367  14.400
45784W        W15665  12.263  24.131   1.843
45785W        W15666   1.736   5.264  10.487
45786W        W15667  32.501  27.099   3.871
45787W        W15668  33.042  44.986   0.452
45788W        W15669  23.512  20.574   3.283
45789W        W15670   7.350  18.662  14.278
45790W        W15671   8.798  25.169  14.331
45791W        W15672  13.807   6.190  10.942
45792W        W15673  12.667  33.043   4.156
45793W        W15674  21.702  42.929   2.194
45794W        W15675  26.489  27.692  14.786
45795W        W15676  42.303   9.154  14.811
45796W        W15677  12.183  29.029   2.746
45797W        W15678   0.399  40.987   0.383
45798W        W15679   2.245  35.065   0.247
45799W        W15680  19.686  43.938  13.933
45800W        W15681  15.699  42.898  11.383
45801W        W15682  34.027  29.469   0.289
45802W        W15683  20.122  24.712   1.387
45803W        W15684  19.744   2.296   2.299
45804W        W15685   2.238  37.983   3.374
45805W        W15686  33.436  26.691   2.727
45806W        W15687  36.841   1.274  11.945
45807W        W15688  12.318   4.782   4.135
45808W        W15689   5.857  29.167  10.636
45809W        W15690   7.405   0.796  12.044
45810W        W15691  21.081  24.530  13.855
45811W        W15692   5.377  26.057  12.574
45812W        W15693  40.800  10.330  12.923
45813W        W15694  34.476  38.558  11.580
45814W        W15695  12.221  15.757  11.441
45815W        W15696  30.529  32.917  10.551
45816W        W15697   9.376   3.880   4.790
45817W        W15698  41.989  13.273  11.584
45818W        W15699  19.268  29.445  10.551
45819W        W15700  24.600  14.284   1.367
45820W        W15701  11.842  11.307  11.128
45821W        W15702  39.064  39.390   1.760
45822W        W15703  21.572  19.763   1.252
45823W        W15704  15.101  40.003   4.675
45824W        W15705  22.191  43.276  14.927
45825W        W15706  11.679  21.748   3.757
45826W        W15707  42.948  34.992   5.086
45827W        W15708  27.465  37.874  13.325
45828W        W15709   2.231  28.520  10.616
45829W        W15710  34.096  20.083   3.763
45830W        W15711  25.513  21.032   5.289
45831W        W15712   8.790  31.141  13.428
45832W        W15713  43.493  29.123  14.014
45833W        W15714   2.408  39.551   4.272
45834W        W15715  20.266  24.686   0.883
45835W        W15716  32.438  20.611   3.663
45836W        W15717  10.373   6.846   2.319
45837W        W15718  31.498  39.423  12.978
45838W        W15719  33.934  31.554   0.327
45839W        W15720  28.160  24.614   4.276
45840W        W15721   1.265   4.270  12.484
45841W        W15722   3.919  43.850  14.471
45842W        W15723  32.527   0.432   4.152
45843W        W15724  40.967  31.427   1.803
45844W        W15725  41.925  22.727  12.484
45845W        W15726  30.927  12.643  13.978
45846W        W15727  38.921   0.752  10.502
45847W        W15728  10.318  28.629  14.891
45848W        W15729  40.462  41.815   2.785
45849W        W15730  36.414   0.270  14.980
45850W        W15731  27.507  20.058  12.344
45851W        W15732   0.270  17.717  12.861
45852W        W15733  19.078   2.342  11.460
45853W        W15734  30.440  25.162  12.020
45854W        W15735  43.854  10.227  12.974
45855W        W15736  20.080  12.611  10.613
45856W        W15737  12.716  24.587  10.955
45857W        W15738   9.866  42.966   1.721
45858W        W15739  42.009   5.303   2.250
45859W        W15740   3.741   8.656  13.469
45860W        W15741   3.891  26.477  11.466
45861W        W15742   1.325  22.676  13.412
45862W        W15743  34.454  32.604   2.297
45863W        W15744  37.055  42.937   4.130
45864W        W15745  37.968   5.744  12.402
45865W        W15746   1.325  42.816  11.575
45866W        W15747  31.144  17.582   2.676
45867W        W15748   9.777  31.524  11.966
45868W        W15749   4.891  35.459  14.387
45869W        W15750  15.604  24.497   3.668
45870W        W15751   6.358   2.396  11.927
45871W        W15752  14.332  15.221   4.615
45872W        W15753  25.057  21.539  10.912
45873W        W15754  16.756  25.129   1.412
45874W        W15755  11.236  32.634  13.878
45875W        W15756  29.018  30.481  11.937
45876W        W15757  30.643  27.502  12.479
45877W        W15758  39.414  14.762   4.753
45878W        W15759  39.352   3.309   0.421
45879W        W15760  18.576  35.002   0.913
45880W        W15761  10.757   5.857  12.497
45881W        W15762   0.788  26.148   4.236
45882W        W15763  32.433  23.511   4.833
45883W        W15764   5.831   2.741   3.753
45884W        W15765  38.377  28.496  11.060
45885W        W15766  42.819   7.207   2.246
45886W        W15767  12.355  36.510   0.460
45887W        W15768  42.814  18.072  12.437
45888W        W15769  22.622  31.054   2.325
45889W        W15770   5.810  15.093  14.352
45890W        W15771  34.570   7.305   2.791
45891W        W15772  42.911   2.840   2.892
45892W        W15773  32.978  35.056  12.089
45893W        W15774  23.227  24.185  11.915
45894W        W15775   1.932  28.537   1.744
45895W        W15776  43.812  32.895   1.787
45896W        W15777  37.413  41.453  10.494
45897W        W15778   4.724  23.178   4.779
45898W        W15779   3.872  14.816   4.347
45899W        W15780  18.292  16.306  12.042
45900W        W15781  25.570  22.148  11.869
45901W        W15782  26.204  36.383  14.998
45902W        W15783  41.965  11.695  10.417
45903W        W15784  34.528   9.153  11.587
45904W        W15785   6.283  21.211   2.385
45905W        W15786  41.791  37.462   4.640
45906W        W15787  24.089  28.125  11.993
45907W        W15788   3.218  44.481   2.343
45908W        W15789  34.903  12.762   4.717
45909W        W15790  16.572  10.369   1.924
45910W        W15791  43.404   4.926  12.968
45911W        W15792   4.220  19.238  10.950
45912W        W15793  25.214   7.308  14.421
45913W        W15794  35.099  41.928  14.764
45914W        W15795  25.090  30.034  14.506
45915W        W15796   3.348  34.001   3.266
45916W        W15797  40.029  18.255  12.000
45917W        W15798  13.728  17.586   0.888
45918W        W15799   1.895   2.903   4.116
45919W        W15800  10.373  32.030   3.792
45920W        W15801  22.578  37.406   4.195
45921W        W15802  40.031   5.219   0.952
45922W        W15803  40.481  30.647  12.339
45923W        W15804   8.895  23.055  11.978
45924W        W15805  38.506  22.546  12.857
45925W        W15806  20.060  13.246   3.273
45926W        W15807  21.153  18.653  14.446
45927W        W15808  19.051   4.312   3.298
45928W        W15809  23.661  14.681  12.393
45929W        W15810   1.900  27.114  13.048
45930W        W15811  15.589  36.895   2.350
45931W        W15812  20.614  42.956  11.019
45932W        W15813  28.612   6.896   0.748
45933W        W15814   3.418   1.442  11.938
45934W        W15815  34.462  42.390  12.354
45935W        W15816  40.442   4.220   4.140
45936W        W15817   7.678  22.215   3.279
45937W        W15818   5.819   8.869   3.654
45938W        W15819  44.301  19.263  13.942
45939W        W15820  33.086  32.602   1.796
45940W        W15821   0.925  40.896  14.005
45941W        W15822   9.336  35.524  10.511
45942W        W15823  17.668  40.961   4.607
45943W        W15824   1.306  44.818   0.277
45944W        W15825  17.584  17.757   0.254
45945W        W15826   3.362  16.170   0.291
45946W        W15827  13.777   1.378   0.311
45947W        W15828  23.987  42.893   2.863
45948W        W15829  17.660  44.273  12.054
45949W        W15830  41.535  16.645  12.883
45950W        W15831  42.330  34.904  11.516
45951W        W15832  12.763  38.007   5.127
45952W        W15833  32.032  32.086   9.980
45953W        W15834  34.556   1.742  13.411
45954W        W15835  20.214  32.514   0.944
45955W        W15836   4.921  13.753  13.888
45956W        W15837  24.079   1.892  14.875
45957W        W15838  25.040  28.477   0.326
45958W        W15839  32.029  19.265   0.284
45959W        W15840   6.740   7.799  12.082
45960W        W15841  20.127  37.048  11.603
45961W        W15842   3.248   7.187  11.533
45962W        W15843  12.241  18.551  14.473
45963W        W15844  27.170  34.976   2.408
45964W        W15845   4.339  43.900   1.339
45965W        W15846  33.603  20.105  13.527
45966W        W15847  35.381  22.078   3.728
45967W        W15848  27.032  17.156  12.958
45968W        W15849  16.772   4.751  14.904
45969W        W15850  26.502  44.283   5.205
45970W        W15851   6.852  14.293   0.246
45971W        W15852  13.707  23.999   3.161
45972W        W15853  39.873   7.758   1.806
45973W        W15854   1.788  32.004   3.370
45974W        W15855   4.850   0.249   3.306
45975W        W15856  12.727  14.601  11.973
45976W        W15857  19.040   4.445  11.962
45977W        W15858  16.187  15.702   2.415
45978W        W15859   0.768  20.154   3.864
45979W        W15860  26.203  39.525   2.203
45980W        W15861  43.899  15.173   1.349
45981W        W15862   5.699  16.789  13.030
45982W        W15863   2.236  15.210   4.632
45983W        W15864   2.419  35.100  14.437
45984W        W15865   8.275  25.072   4.162
45985W        W15866  26.457  37.994   0.305
45986W        W15867  43.355  39.536   1.699
45987W        W15868  39.405  18.258   2.279
45988W        W15869   4.330  31.969   4.602
45989W        W15870  11.637  22.144  10.575
45990W        W15871  22.192  26.490  14.905
45991W        W15872  20.696  44.479  14.980
45992W        W15873  28.662  43.990   3.673
45993W        W15874  13.317  37.917  14.826
45994W        W15875   1.838  25.985   3.826
45995W        W15876  12.252  23.552  10.436
45996W        W15877  26.133  17.670   0.460
45997W        W15878   6.385  32.116  13.059
45998W        W15879  36.938   8.735  14.833
45999W        W15880   0.743   1.789  10.612
46000W        W15881  26.676  15.184  13.926
46001W        W15882   2.790  12.844   1.696
46002W        W15883  24.709  33.564  11.382
46003W        W15884  36.560  17.785   2.867
46004W        W15885  27.496  31.417  14.832
46005W        W15886  32.130   6.258  11.936
46006W        W15887  18.611  22.252   4.114
46007W        W15888  32.466  24.110   0.301
46008W        W15889  44.875  16.073   3.228
46009W        W15890  23.547   3.347   3.642
46010W        W15891  19.565   4.721   1.362
46011W        W15892   1.261  11.682   2.340
46012W        W15893   0.977  14.781   3.178
46013W        W15894  16.165  44.851   0.260
46014W        W15895  22.545  27.172   2.857
46015W        W15896  28.670  18.078  13.907
46016W        W15897  26.053   4.445   3.818
46017W        W15898  10.785  25.509   1.279
46018W        W15899  43.935  23.158   3.298
46019W        W15900  44.962  28.478   0.407
46020W        W15901   3.891  25.114   2.180
46021W        W15902  35.565  17.740  14.996
46022W        W15903  30.436  42.502   0.323
46023W        W15904  30.982  11.627  13.353
46024W        W15905  20.177  33.930  10.619
46025W        W15906   4.781   7.900   3.236
46026W        W15907  13.717   2.450  11.592
46027W        W15908   2.339  17.107   2.405
46028W        W15909  12.732  16.292   2.196
46029W        W15910   3.448  24.084  14.859
46030W        W15911  24.706   0.786   0.914
46031W        W15912  16.612  27.555  11.457
46032W        W15913  14.814  38.856   3.796
46033W        W15914   3.768  29.956   2.827
46034W        W15915  27.451  18.721   1.875
46035W        W15916   0.298  14.684   2.851
46036W        W15917   5.325   7.230  14.901
46037W        W15918  19.265  18.281   0.811
46038W        W15919  20.031   9.195  14.923
46039W        W15920   1.888  19.094   0.285
46040W        W15921  27.645  28.509  13.981
46041W        W15922  35.035   8.776   5.271
46042W        W15923  33.448  37.444  12.360
46043W        W15924  13.681   7.899  13.863
46044W        W15925  40.378  33.606  14.490
46045W        W15926   4.440  10.343   0.469
46046W        W15927  41.826   4.869   1.880
46047W        W15928   4.886  19.626  14.418
46048W        W15929  35.904   5.438  14.306
46049W        W15930   6.204   6.802   1.425
46050W        W15931  14.193   1.381   3.210
46051W        W15932  39.059  23.133   1.259
46052W        W15933   3.354  21.262   5.107
46053W        W15934  16.252  33.916  13.977
46054W        W15935  12.342   5.910   4.647
46055W        W15936  37.385  34.372  10.426
46056W        W15937   4.809  17.240  11.396
46057W        W15938  41.026  36.927   4.235
46058W        W15939  36.048  39.976  12.990
46059W        W15940  29.462  31.935  12.540
46060W        W15941  33.913  23.650   3.651
46061W        W15942   3.883  20.554  13.017
46062W        W15943  11.354   4.768   3.801
46063W        W15944  37.056  39.456   3.828
46064W        W15945  10.745  21.097   2.244
46065W        W15946   6.819  12.143  10.430
46066W        W15947  44.956   3.328   1.309
46067W        W15948  23.189   4.437   2.709
46068W        W15949  28.632  40.466  13.001
46069W        W15950   8.332  10.336  13.521
46070W        W15951   8.817  13.212   2.839
46071W        W15952  38.904  15.123   2.259
46072W        W15953  23.985  42.981  11.072
46073W        W15954   6.230   1.834   2.827
46074W        W15955  24.008  14.140   1.819
46075W        W15956  15.247   9.369   0.884
46076W        W15957  36.576  16.092  13.913
46077W        W15958  41.840   7.708  11.423
46078W        W15959   2.298  24.112   4.708
46079W        W15960  29.131  34.972  14.493
46080W        W15961  18.789  42.927  12.869
46081W        W15962  11.311  27.136   2.834
46082W        W15963  27.135  23.596  10.120
46083W        W15964  14.655  16.810  11.966
46084W        W15965  30.558  38.522   4.774
46085W        W15966  18.622  27.106  12.350
46086W        W15967  44.366  42.028   3.769
46087W        W15968  18.763  41.533  14.939
46088W        W15969   8.234   0.870  11.536
46089W        W15970   9.228  15.793  10.470
46090W        W15971  36.509  25.589   0.740
46091W        W15972  13.128   9.253  13.324
46092W        W15973  28.556  31.051   2.667
46093W        W15974  19.618  18.159  10.407
46094W        W15975   4.846  18.115   5.171
46095W        W15976  16.214  24.598   0.250
46096W        W15977   8.255  44.313   2.283
46097W        W15978  16.669  16.129  11.450
46098W        W15979  32.629  16.221  14.488
46099W        W15980  17.612   2.826  13.471
46100W        W15981  33.905  42.848   2.394
46101W        W15982  39.503  17.227  12.941
46102W        W15983   8.764   3.455  11.435
46103W        W15984  36.513  24.515   4.764
46104W        W15985  24.181  37.083   1.228
46105W        W15986  11.169   2.923   4.336
46106W        W15987  25.983   8.883  12.528
46107W        W15988  12.848  12.151   4.750
46108W        W15989  20.163  21.076  14.443
46109W        W15990  19.155  23.149  12.992
46110W        W15991  16.661  30.949   0.751
46111W        W15992  28.090  37.508  12.415
46112W        W15993  39.049  31.432  13.004
46113W        W15994  31.917  37.373   0.282
46114W        W15995  24.611  36.878   0.807
46115W        W15996   0.819  40.042  11.082
46116W        W15997  10.684  10.301  11.942
46117W        W15998  16.626  21.553   4.324
46118W        W15999  24.508  25.171  11.030
46119W        W16000   0.798  42.975  11.041
46120W        W16001  37.546  36.912  12.366
46121W        W16002  11.359  11.190   2.295
46122W        W16003  11.149  42.001  12.090
46123W        W16004  30.147  41.993  14.970
46124W        W16005  44.899  24.645  11.082
46125W        W16006  37.363  28.061  12.381
46126W        W16007   1.283  43.281  12.028
46127W        W16008   5.423  20.554   0.320
46128W        W16009   8.718  27.194   3.699
46129W        W16010  28.980  13.124   2.242
46130W        W16011  12.266  39.349   4.350
46131W        W16012  39.862   0.809  11.079
46132W        W16013  29.435  42.417  12.860
46133W        W16014   7.216  22.150   0.880
46134W        W16015  12.146  36.583  12.430
46135W        W16016  29.127   5.882   5.178
46136W        W16017  15.099  40.549  10.444
46137W        W16018   1.240  23.623  12.945
46138W        W16019  35.920  15.211  13.045
46139W        W16020  32.947   0.908  11.945
46140W        W16021  25.021  13.289   5.272
46141W        W16022  41.292  17.698  11.572
46142W        W16023  10.175  41.998  14.423
46143W        W16024  24.536   5.729  14.963
46144W        W16025  24.039  43.300  13.830
46145W        W16026  25.627   9.176  13.025
46146W        W16027  39.939  25.199   4.626
46147W        W16028  35.395  31.917  14.408
46148W        W16029  11.694  22.658  10.422
46149W        W16030   3.845  27.948  12.524
46150W        W16031   0.773  19.638  11.551
46151W        W16032  25.024  31.483   1.411
46152W        W16033  44.919  36.469  11.500
46153W        W16034  24.509  31.435   0.835
46154W        W16035   8.898  31.909   2.778
46155W        W16036  21.676  10.165   1.708
46156W        W16037   9.735   5.278  10.625
46157W        W16038  21.706  34.607  13.849
46158W        W16039  21.710   7.177  14.896
46159W        W16040  19.607  10.271   1.808
46160W        W16041   7.742  35.013  14.012
46161W        W16042   1.338  36.351   1.739
46162W        W16043  40.843  20.549   2.882
46163W        W16044   7.713   0.323   2.819
46164W        W16045  38.338  44.398   3.736
46165W        W16046  20.220  25.967   3.382
46166W        W16047  12.767  16.673  11.372
46167W        W16048  39.373  19.078  12.880
46168W        W16049  20.757   4.829  12.398
46169W        W16050  22.006  40.983  12.428
46170W        W16051   3.766   8.189   0.417
46171W        W16052  18.272  20.619  14.289
46172W        W16053   9.382  44.828   3.332
46173W        W16054  17.219  33.888  12.387
46174W        W16055  23.131  30.494  13.971
46175W        W16056   9.188   0.311   3.232
46176W        W16057   9.391   6.273  10.550
46177W        W16058   8.762   5.917  13.819
46178W        W16059  16.772   3.757   0.307
46179W        W16060   8.749  25.583  14.461
46180W        W16061   3.386  24.580   1.241
46181W        W16062  27.625  36.980  11.441
46182W        W16063  40.827  24.624  14.822
46183W        W16064  15.638  13.832   1.701
46184W        W16065  42.326  43.781   4.342
46185W        W16066  29.496  14.190  13.326
46186W        W16067   2.352  31.641  12.391
46187W        W16068  10.806  39.915   1.378
46188W        W16069  41.468   3.794   2.346
46189W        W16070   9.721  18.563  14.974
46190W        W16071  39.557  39.036   1.228
46191W        W16072  36.854  31.595  11.565
46192W        W16073   1.755  22.596   3.258
46193W        W16074  21.237  43.974   3.655
46194W        W16075  16.117  23.035  11.388
46195W        W16076  16.172   6.748  11.040
46196W        W16077  34.445  43.281  12.559
46197W        W16078  17.297  19.594  13.319
46198W        W16079   7.771   7.258   0.454
46199W        W16080  26.993  42.886   0.279
46200W        W16081  17.201  32.486   3.722
46201W        W16082  38.412  23.185   4.243
46202W        W16083  17.121  33.607  13.036
46203W        W16084   0.389   0.868   0.294
46204W        W16085  31.949  40.484  11.861
46205W        W16086  21.514  38.468   1.294
46206W        W16087  25.679  19.071   3.265
46207W        W16088  12.619  14.708   1.822
46208W        W16089  11.657   8.250   3.648
46209W        W16090   3.847  12.737  12.021
46210W        W16091   1.415  14.810  13.487
46211W        W16092  10.755   2.402   3.714
46212W        W16093   4.822  25.103  10.029
46213W        W16094   7.736  32.402   2.740
46214W        W16095   8.685  13.840  14.361
46215W        W16096  31.050  40.457   1.915
46216W        W16097  32.507  15.608  14.875
46217W        W16098  21.623  31.953  14.004
46218W        W16099  40.942   1.791  14.973
46219W        W16100  37.992  18.652   2.327
46220W        W16101  14.123  42.939  12.920
46221W        W16102  14.618  15.597   3.829
46222W        W16103  44.289   5.352  10.956
46223W        W16104  25.131  40.332  12.864
46224W        W16105  27.517  34.970   2.669
46225W        W16106  14.147  10.298   1.218
46226W        W16107   9.821  12.614   2.799
46227W        W16108  14.293  29.476   3.155
46228W        W16109   3.948  17.608   1.884
46229W        W16110   4.379   5.250   3.331
46230W        W16111  35.879   3.253  10.061
46231W        W16112  39.826  19.172  12.522
46232W        W16113  26.204  27.612   4.693
46233W        W16114  42.325  23.228  14.917
46234W        W16115   7.413   0.397  14.297
46235W        W16116  32.998   6.891   2.811
46236W        W16117  22.119  33.107   1.385
46237W        W16118  35.896   4.420   3.321
46238W        W16119  35.042  39.005  12.524
46239W        W16120  15.810  14.102   0.955
46240W        W16121  35.576  21.189  13.345
46241W        W16122  20.735  30.071  11.080
46242W        W16123  22.618   7.313   1.710
46243W        W16124  16.642  27.530   1.809
46244W        W16125  20.718  42.452   4.181
46245W        W16126  36.848  10.342   0.413
46246W        W16127   8.721  22.741   3.719
46247W        W16128  33.546  34.992  13.446
46248W        W16129   6.425  19.534   4.229
46249W        W16130  13.326  18.174  11.113
46250W        W16131   4.214  42.792   1.746
46251W        W16132  34.098  16.126   2.900
46252W        W16133  22.124  42.871   3.159
46253W        W16134  15.225  39.876  12.002
46254W        W16135  41.809  10.707   1.440
46255W        W16136  11.283  37.080  11.401
46256W        W16137   8.754   4.407  10.484
46257W        W16138  41.293  37.052  12.056
46258W        W16139  21.718  36.499   2.728
46259W        W16140  21.550  37.039   2.670
46260W        W16141  18.735  26.603   1.286
46261W        W16142  31.578  43.774  10.512
46262W        W16143  21.178  30.067  11.394
46263W        W16144   7.268  30.453   0.933
46264W        W16145  43.943  12.347  11.553
46265W        W16146  25.547   9.829  12.892
46266W        W16147  26.495  18.057  13.314
46267W        W16148  36.992  10.151  12.917
46268W        W16149  33.392   0.393   1.810
46269W        W16150   0.381  30.063  12.544
46270W        W16151  23.034  37.559   0.355
46271W        W16152   9.225  17.182   0.360
46272W        W16153  24.580  33.548  14.022
46273W        W16154   7.406  10.172   0.258
46274W        W16155   8.232  43.437  12.849
46275W        W16156   9.881   9.273   3.722
46276W        W16157  38.521  35.046   0.457
46277W        W16158  10.700  16.231  10.015
46278W        W16159  38.363  30.115  14.898
46279W        W16160  28.027  30.581   4.741
46280W        W16161  10.139  33.022   2.877
46281W        W16162  32.893  21.079   2.382
46282W        W16163  21.229  17.798   2.818
46283W        W16164   2.825  29.164   0.341
46284W        W16165  34.936   0.811  13.428
46285W        W16166  31.477   5.274   2.828
46286W        W16167  14.128   5.725   3.870
46287W        W16168  35.000   0.888  11.858
46288W        W16169  37.010  41.499   4.317
46289W        W16170   2.957   5.694  13.841
46290W        W16171  23.065  26.570  12.073
46291W        W16172  41.919  29.475   1.782
46292W        W16173  20.568   5.253  13.327
46293W        W16174  11.772  35.975   5.279
46294W        W16175  10.754  43.953  13.479
46295W        W16176  39.860  31.628   4.154
46296W        W16177  42.479  32.888   2.685
46297W        W16178  19.637   2.319   3.869
46298W        W16179  42.832   6.775   4.332
46299W        W16180  13.787  40.463  10.980
46300W        W16181  27.453  16.073   3.317
46301W        W16182   7.776  33.965  10.493
46302W        W16183  25.532  32.065  10.580
46303W        W16184  29.036  10.694  13.959
46304W        W16185   4.371  26.056  14.972
46305W        W16186  24.555  26.503   3.222
46306W        W16187  16.712  20.720  14.376
46307W        W16188  18.161   6.766   2.373
46308W        W16189  11.744  17.072  12.346
46309W        W16190  27.571   9.389  13.453
46310W        W16191   0.807  31.092  14.896
46311W        W16192   3.310  13.335   3.196
46312W        W16193   6.355   3.365   0.820
46313W        W16194  30.518  44.348  10.580
46314W        W16195   0.446  18.069   4.148
46315W        W16196  28.006  21.207   4.715
46316W        W16197  35.977  33.584   4.649
46317W        W16198  18.273  29.553  11.899
46318W        W16199  18.253  24.073   1.794
46319W        W16200  16.252  30.026  11.463
46320W        W16201  42.422  26.470   0.784
46321W        W16202  32.442  18.244  10.012
46322W        W16203  22.533  37.003  14.497
46323W        W16204  11.178  16.232   3.744
46324W        W16205  27.131   4.747   2.293
46325W        W16206  23.217  42.829  11.411
46326W        W16207  19.111  16.145   3.730
46327W        W16208   3.329   5.903  14.759
46328W        W16209   7.356  44.385  13.926
46329W        W16210  41.440  37.447  13.030
46330W        W16211   9.341  27.558   3.383
46331W        W16212  23.665   2.448   4.618
46332W        W16213  40.036   9.167  12.372
46333W        W16214  34.391  39.535   0.844
46334W        W16215  10.734   0.479  14.299
46335W        W16216   4.722  30.952   3.713
46336W        W16217  41.486  18.103  10.492
46337W        W16218  30.594  35.869   1.373
46338W        W16219  37.347  39.537  14.789
46339W        W16220  14.155  21.048  12.392
46340W        W16221  18.689  31.931   1.781
46341W        W16222   1.966   0.928   1.427
46342W        W16223  36.442  31.031   0.475
46343W        W16224  11.301   0.841   2.198
46344W        W16225  40.375  37.041   3.384
46345W        W16226  37.017  26.069   4.758
46346W        W16227   5.844   6.769   3.326
46347W        W16228  17.590  32.019   0.319
46348W        W16229  31.450  44.439   1.851
46349W        W16230  36.462  14.753  12.543
46350W        W16231  28.086  16.122  11.052
46351W        W16232  27.622  12.650   1.694
46352W        W16233  37.533  27.556  11.508
46353W        W16234  40.969  18.187  13.477
46354W        W16235   7.412  18.111   1.225
46355W        W16236  24.654  13.130  13.943
46356W        W16237  43.453  20.678  12.870
46357W        W16238  37.047   6.317   2.225
46358W        W16239  13.333   7.231   2.870
46359W        W16240  26.033  28.943   3.237
46360W        W16241  33.617  44.352  13.016
46361W        W16242  17.157   2.358   4.663
46362W        W16243   5.887   5.348   3.379
46363W        W16244  34.004  39.490   4.342
46364W        W16245  36.448  42.515  14.967
46365W        W16246  21.579   1.922  11.929
46366W        W16247  43.297   5.425   1.872
46367W        W16248  19.049   3.374  14.822
46368W        W16249  40.045   7.237  11.417
46369W        W16250  11.640  20.706   2.821
46370W        W16251  14.235  12.258  11.855
46371W        W16252   7.744  31.476   0.838
46372W        W16253  14.198  35.576  11.537
46373W        W16254  12.716   7.241  10.632
46374W        W16255  20.115  40.009   4.154
46375W        W16256  18.714  16.194   1.764
46376W        W16257  33.090  25.565  14.015
46377W        W16258  44.979  27.148   1.416
46378W        W16259   7.851  22.650   0.416
46379W        W16260  10.841  12.761   2.264
46380W        W16261  21.179  42.847  11.928
46381W        W16262  32.015  10.205  11.534
46382W        W16263  24.030  24.013   3.190
46383W        W16264  13.286   4.797   4.128
46384W        W16265  33.506  23.705  12.540
46385W        W16266  18.263  28.020   2.774
46386W        W16267  38.491  35.958   0.847
46387W        W16268   7.294  15.685   5.165
46388W        W16269  22.567  29.520   4.276
46389W        W16270  31.055  30.148   4.768
46390W        W16271  28.469  20.717  13.954
46391W        W16272   3.770  30.015  13.879
46392W        W16273   1.928  37.010  13.858
46393W        W16274  34.990  40.332   3.783
46394W        W16275  41.490  34.484  14.020
46395W        W16276  43.306   0.934  12.877
46396W        W16277   5.409  17.727  12.856
46397W        W16278  32.906  43.994   4.686
46398W        W16279  38.969   9.778  10.411
46399W        W16280  12.617  30.088   3.788
46400W        W16281   7.887  16.130   3.217
46401W        W16282  38.390  28.079  10.485
46402W        W16283  23.657  40.523   4.298
46403W        W16284  15.582   4.273   0.845
46404W        W16285  23.152  32.913  11.069
46405W        W16286  15.742  28.979  14.466
46406W        W16287  12.675  20.236   0.726
46407W        W16288  39.867  28.153  12.828
46408W        W16289   8.735  15.258   4.324
46409W        W16290  37.838  30.467  12.941
46410W        W16291  26.125  12.803  12.010
46411W        W16292   4.374  30.988  11.451
46412W        W16293   9.358  36.023  12.037
46413W        W16294   6.257  22.656  10.997
46414W        W16295  11.684  21.651  14.759
46415W        W16296   3.266  23.672  11.406
46416W        W16297   1.962  28.464  14.324
46417W        W16298  13.668  36.070   3.332
46418W        W16299  13.159  27.478   0.795
46419W        W16300  43.776  39.899   2.274
46420W        W16301  10.653   4.906  10.912
46421W        W16302  43.280  39.489  13.039
46422W        W16303  22.666   9.737   0.804
46423W        W16304   8.823  18.633   2.730
46424W        W16305  42.384  21.519   0.924
46425W        W16306  25.980  40.348   3.218
46426W        W16307  34.608  38.366  12.092
46427W        W16308  38.421   8.671  12.481
46428W        W16309  15.137   9.654  12.869
46429W        W16310  32.549   0.894  11.083
46430W        W16311  28.990  35.958   3.840
46431W        W16312   8.864  42.026   2.850
46432W        W16313  33.403  24.109   4.607
46433W        W16314  22.612  40.038  14.829
46434W        W16315  30.413   3.878   1.314
46435W        W16316  38.841  44.398   4.142
46436W        W16317  23.621  12.187  11.591
46437W        W16318  18.157  19.109   2.786
46438W        W16319  39.841  15.595  10.538
46439W        W16320  28.668  44.316   2.794
46440W        W16321   1.847  43.845  12.964
46441W        W16322   3.394  20.604   4.294
46442W        W16323  20.543  14.739  11.447
46443W        W16324  43.858  38.033  11.407
46444W        W16325  11.215   7.911  13.806
46445W        W16326  31.645  14.199   2.829
46446W        W16327  18.717  12.303   3.775
46447W        W16328  21.119  25.633   2.289
46448W        W16329  39.057   7.772  12.502
46449W        W16330  41.366  14.318  13.977
46450W        W16331  13.329  25.120  14.451
46451W        W16332   5.248  25.047   1.745
46452W        W16333  44.921  32.923  14.851
46453W        W16334   6.758  10.266  12.422
46454W        W16335  11.710  25.124   3.789
46455W        W16336  20.154   8.880   0.804
46456W        W16337  14.285  21.244   0.479
46457W        W16338   4.323  14.628  14.338
46458W        W16339  10.774  41.862   2.219
46459W        W16340  22.608  40.307   4.770
46460W        W16341  28.579  35.022   0.337
46461W        W16342  40.304  30.027  11.556
46462W        W16343  12.185  35.487   1.372
46463W        W16344  22.028  30.164  14.399
46464W        W16345  35.492  37.527   4.838
46465W        W16346  41.913  44.429  10.554
46466W        W16347  28.081  22.996  13.951
46467W        W16348  33.128  42.487   2.254
46468W        W16349  18.630   6.415   5.292
46469W        W16350  34.064  24.041   4.631
46470W        W16351  33.469  13.241  11.520
46471W        W16352  30.965  26.554   1.920
46472W        W16353   1.961  11.275   3.310
46473W        W16354  15.648  10.178  13.375
46474W        W16355  22.648  16.774  11.994
46475W        W16356  34.104  12.125   2.689
46476W        W16357  42.788  11.727   2.717
46477W        W16358  17.235  44.826   2.782
46478W        W16359  34.566  14.657   1.848
46479W        W16360  17.669  43.969  11.523
46480W        W16361  19.592  44.381  11.961
46481W        W16362  11.221  14.301  11.861
46482W        W16363  38.398  24.659  10.419
46483W        W16364  39.945  24.054  12.082
46484W        W16365  25.033  12.211   1.737
46485W        W16366   6.231  14.684  11.442
46486W        W16367  44.854  18.602  12.012
46487W        W16368  18.718  23.573  13.496
46488W        W16369  41.905  15.162  10.552
46489W        W16370  31.635  15.596  14.294
46490W        W16371  16.316  36.427  14.988
46491W        W16372  32.137  10.730   4.114
46492W        W16373   0.977  31.125   2.687
46493W        W16374   6.261  23.596  12.851
46494W        W16375  32.540  43.919  12.461
46495W        W16376  17.606  11.299  12.844
46496W        W16377  37.561  42.516  11.965
46497W        W16378  22.115  30.539  12.906
46498W        W16379  11.253  43.508  11.578
46499W        W16380  20.111  17.084   9.971
46500W        W16381  34.485  25.112  13.880
46501W        W16382  12.803   3.415  11.989
46502W        W16383  34.429  34.497  13.492
46503W        W16384   3.716  36.968   2.841
46504W        W16385   4.442  41.317  12.540
46505W        W16386  19.063  41.959  11.412
46506W        W16387  16.295  21.076   3.387
46507W        W16388  25.194  35.381  14.325
46508W        W16389  30.465  25.048  10.946
46509W        W16390  10.282  17.219   2.864
46510W        W16391   4.255  27.195   2.341
46511W        W16392  21.191  29.077  10.942
46512W        W16393  16.619  43.980   0.413
46513W        W16394  21.166  38.988   1.376
46514W        W16395  16.759  20.570  14.949
46515W        W16396  37.901   7.379  11.554
46516W        W16397  42.423  43.911   0.481
46517W        W16398  14.590  26.125  13.928
46518W        W16399  22.719  17.080   3.247
46519W        W16400  28.438  32.120  13.437
46520W        W16401  19.604  31.100   2.184
46521W        W16402   6.391   4.433   4.336
46522W        W16403  21.107  39.908   1.816
46523W        W16404  32.943  35.902   4.712
46524W        W16405   3.825  43.888  13.408
46525W        W16406   1.976  26.096  13.515
46526W        W16407   4.812  34.021  14.505
46527W        W16408  12.672  25.119  14.884
46528W        W16409  36.357  42.291   2.244
46529W        W16410  26.047   7.848  14.368
46530W        W16411  31.424  26.155   3.692
46531W        W16412  17.255  28.999   2.292
46532W        W16413  17.212  42.873  14.993
46533W        W16414  22.726  37.022  11.096
46534W        W16415  31.441  29.439  10.636
46535W        W16416  38.036   6.345   0.284
46536W        W16417  22.160  18.612   4.724
46537W        W16418  13.292   1.468   3.166
46538W        W16419  25.712  12.766  11.122
46539W        W16420  19.641  35.569   1.933
46540W        W16421   8.308  41.337   4.252
46541W        W16422   1.402  42.460  13.796
46542W        W16423  42.882   0.965  10.944
46543W        W16424   8.812  35.970  12.002
46544W        W16425  11.272   8.351  11.538
46545W        W16426  35.866  23.231  13.401
46546W        W16427  19.075   7.789   0.794
46547W        W16428  10.364  44.308  14.286
46548W        W16429  10.365   1.477   2.889
46549W        W16430  10.241  24.217   1.802
46550W        W16431   1.309  32.120  12.035
46551W        W16432  38.554  31.916   4.789
46552W        W16433  10.782   3.292   1.743
46553W        W16434  36.051  29.989   2.863
46554W        W16435   5.919  15.088  13.465
46555W        W16436   8.165  19.153   4.700
46556W        W16437  26.490   1.907  13.533
46557W        W16438   1.447  15.697  10.002
46558W        W16439   3.790  14.226   4.750
46559W        W16440  23.565  28.479   3.206
46560W        W16441   8.378  29.920   4.291
46561W        W16442   0.248  44.823  13.985
46562W        W16443  34.457  42.859   3.724
46563W        W16444   8.850  28.517  12.933
46564W        W16445  21.598  35.934  13.819
46565W        W16446  12.360   7.284  13.492
46566W        W16447  38.502  14.707   0.806
46567W        W16448  26.552   9.647  10.895
46568W        W16449  29.530   3.318   0.735
46569W        W16450   8.866  12.128   3.240
46570W        W16451  33.619   1.734  10.517
46571W        W16452  44.926  27.143   4.628
46572W        W16453   1.375  31.969  13.847
46573W        W16454  21.709  40.508  10.446
46574W        W16455  36.007  35.982  14.389
46575W        W16456  38.915  41.912  14.394
46576W        W16457  44.295  20.624   3.330
46577W        W16458  42.465  17.694   0.332
46578W        W16459  28.443   5.761  13.330
46579W        W16460  20.554  24.678   4.768
46580W        W16461  29.142  12.750   3.701
46581W        W16462  28.671   3.902   4.681
46582W        W16463  23.226  23.088  12.016
46583W        W16464   0.474  24.718   2.791
46584W        W16465  14.160   7.808  12.532
46585W        W16466  29.023  11.354   3.159
46586W        W16467  25.550  21.639  10.643
46587W        W16468  28.590  38.531  12.900
46588W        W16469   0.300  33.616   3.220
46589W        W16470   9.742  19.544   0.727
46590W        W16471   9.181  31.645   0.398
46591W        W16472  19.639   2.342  12.373
46592W        W16473  24.187  41.025  10.412
46593W        W16474  28.458  10.284  14.973
46594W        W16475  30.491  24.543  13.396
46595W        W16476  37.497   3.319  13.980
46596W        W16477  15.167  30.076   0.887
46597W        W16478  34.961  27.543   3.666
46598W        W16479   7.775  27.559   0.349
46599W        W16480  20.051  39.332  14.806
46600W        W16481  29.632  21.142   4.799
46601W        W16482  30.445   6.370   1.935
46602W        W16483  25.620   3.319  10.600
46603W        W16484   7.729   4.755   4.725
46604W        W16485  27.139  44.364   3.806
46605W        W16486  28.997  27.197   0.396
46606W        W16487   2.328  18.207  10.142
46607W        W16488  13.845  21.253   1.934
46608W        W16489   9.661  22.165  13.994
46609W        W16490   1.932  13.662  12.029
46610W        W16491   5.915   0.892  14.400
46611W        W16492   6.273  15.756  12.550
46612W        W16493  11.749   9.187  11.506
46613W        W16494  15.177  23.060   1.817
46614W        W16495  13.611  35.472   0.779
46615W        W16496  26.134  28.635   2.378
46616W        W16497  21.681  11.360  11.559
46617W        W16498  43.389  34.449  13.388
46618W        W16499   1.238   1.899   2.230
46619W        W16500  40.881  17.631  14.286
46620W        W16501  31.407  44.785   2.843
46621W        W16502   0.317  36.436   1.793
46622W        W16503   9.218  34.453  11.398
46623W        W16504  10.327  39.964   5.212
46624W        W16505   1.336  37.502   4.158
46625W        W16506  19.093  38.851  14.868
46626W        W16507  42.359  12.148   4.115
46627W        W16508  33.110  11.744   4.804
46628W        W16509  31.429   0.758   1.708
46629W        W16510   4.310   4.712  12.909
46630W        W16511   3.775  15.798  11.586
46631W        W16512  42.977   7.294   1.854
46632W        W16513  42.851  26.504   5.245
46633W        W16514   4.394  17.691  12.364
46634W        W16515  17.119  37.424   1.378
46635W        W16516  17.099  30.991   0.850
46636W        W16517   3.396  21.737   3.692
46637W        W16518   3.232  28.581   0.816
46638W        W16519  10.684  12.266   0.924
46639W        W16520   9.851  33.952   1.721
46640W        W16521   9.852  19.170   1.926
46641W        W16522  26.579   5.206   1.267
46642W        W16523  35.419   4.883   2.232
46643W        W16524  12.803  22.091   3.148
46644W        W16525  27.981  42.004   1.219
46645W        W16526   5.848  11.173  13.046
46646W        W16527   0.906  41.440  10.994
46647W        W16528  37.891  23.601   1.846
46648W        W16529   1.817   6.290   0.950
46649W        W16530   7.333   7.352   2.286
46650W        W16531  22.547  27.019   4.307
46651W        W16532  37.063  21.030   0.432
46652W        W16533   4.327   7.771  13.380
46653W        W16534   8.729  43.863  14.309
46654W        W16535   0.374  17.648   0.398
46655W        W16536  29.534  10.370  12.934
46656W        W16537  44.902   5.700   3.384
46657W        W16538  24.498  32.898  14.015
46658W        W16539  25.469  27.125   3.653
46659W        W16540   3.953   8.790   1.282
46660W        W16541  39.889  13.781  12.341
46661W        W16542  31.109  21.682  14.981
46662W        W16543  12.797  37.995   0.887
46663W        W16544  41.370  36.528  13.852
46664W        W16545  14.176  15.674  12.461
46665W        W16546  22.179  26.483  10.959
46666W        W16547  22.522  18.199  11.899
46667W        W16548  18.140   5.729   1.348
46668W        W16549   2.752  21.553   3.826
46669W        W16550   0.926  31.404   4.772
46670W        W16551  11.820   1.322   4.123
46671W        W16552  13.206  23.720   3.344
46672W        W16553  29.475  28.655   0.326
46673W        W16554  30.531  22.017  12.558
46674W        W16555  42.992  40.452   2.300
46675W        W16556  39.009  27.656   5.241
46676W        W16557  35.955  25.215  10.440
46677W        W16558   6.328   4.924   4.817
46678W        W16559  26.575  15.587   0.257
46679W        W16560  37.019  12.235  14.403
46680W        W16561   2.234  22.151  11.376
46681W        W16562   3.757  28.111   9.994
46682W        W16563  32.550   5.231   2.200
46683W        W16564  41.394  31.979  12.872
46684W        W16565  20.050  30.514   3.356
46685W        W16566  16.645  15.635   0.474
46686W        W16567  21.072  16.602  10.939
46687W        W16568  15.710   1.479  10.463
46688W        W16569  41.511   8.239   3.777
46689W        W16570  35.954  34.453   0.732
46690W        W16571  26.204  22.074   4.250
46691W        W16572  32.045  16.615  14.785
46692W        W16573  23.062  16.277  10.951
46693W        W16574   7.342   8.255   3.282
46694W        W16575  21.595  33.109   2.187
46695W        W16576  39.411  20.098   1.337
46696W        W16577  12.197  20.670   1.436
46697W        W16578  18.735  22.229   1.728
46698W        W16579   8.385  13.340   3.382
46699W        W16580  37.383  27.008   4.667
46700W        W16581  29.522  27.565   4.348
46701W        W16582  32.972   9.158  12.970
46702W        W16583  34.962  17.076   2.200
46703W        W16584  41.338  28.056  12.855
46704W        W16585  12.690  44.384   1.390
46705W        W16586  16.809   5.913  13.898
46706W        W16587  33.528  30.997  10.508
46707W        W16588  11.814  20.638   0.436
46708W        W16589   7.412   1.262  13.999
46709W        W16590  36.866   4.355  14.471
46710W        W16591  36.476  21.131  10.159
46711W        W16592  37.069  39.402   4.286
46712W        W16593  44.265   1.420   1.783
46713W        W16594  11.844   2.402  11.012
46714W        W16595  17.160  15.603   5.117
46715W        W16596  21.574  42.974   3.820
46716W        W16597  13.286  36.863   2.661
46717W        W16598  36.867  11.792   0.446
46718W        W16599  23.659  25.053   0.875
46719W        W16600  22.138  26.543  14.471
46720W        W16601  17.653  10.324   0.860
46721W        W16602  17.120  23.233   1.784
46722W        W16603  31.116  35.375   0.872
46723W        W16604  36.560   2.963  11.533
46724W        W16605   6.841  10.764   3.824
46725W        W16606  13.790  14.095   0.478
46726W        W16607  23.604  35.485   4.165
46727W        W16608  38.061   9.362  10.889
46728W        W16609  23.139  15.608  10.045
46729W        W16610  17.146   5.214   3.659
46730W        W16611  21.136  13.837  14.427
46731W        W16612  25.667   9.814   0.460
46732W        W16613  41.430   9.766  10.480
46733W        W16614   5.849  32.045   0.427
46734W        W16615  28.041  19.751  11.986
46735W        W16616  11.193   1.447   1.287
46736W        W16617  23.226  23.030   4.276
46737W        W16618  34.502  32.546  12.926
46738W        W16619  39.008  34.964  12.828
46739W        W16620  44.868  10.782   0.759
46740W        W16621   1.781  23.672  11.120
46741W        W16622   2.386  29.159  12.844
46742W        W16623  37.060  25.046  10.516
46743W        W16624  21.248   6.916   1.714
46744W        W16625  35.422   4.376  12.096
46745W        W16626   2.430   2.245   1.365
46746W        W16627  39.505  14.790  12.040
46747W        W16628  41.331   9.279   0.410
46748W        W16629   7.885  29.440  13.955
46749W        W16630  18.059  42.291  10.436
46750W        W16631  29.535   4.274   0.779
46751W        W16632  28.029  18.214  13.954
46752W        W16633  27.169  41.860   1.328
46753W        W16634   8.242  41.459  13.029
46754W        W16635   7.906   9.784   4.693
46755W        W16636  30.542  27.018   0.357
46756W        W16637  21.608  24.074  14.370
46757W        W16638  34.961  38.951   0.876
46758W        W16639  38.384   6.703  10.966
46759W        W16640  29.551  10.781   1.313
46760W        W16641  35.923  15.097  13.790
46761W        W16642  21.561  28.936  13.811
46762W        W16643  12.693  17.063  13.034
46763W        W16644  31.415  23.532   0.246
46764W        W16645  36.505   6.402   0.389
46765W        W16646  12.698  19.234   1.384
46766W        W16647  32.571  17.655   4.353
46767W        W16648  14.681  12.847   4.247
46768W        W16649  21.715  35.959   1.747
46769W        W16650  15.712  42.843   4.779
46770W        W16651  33.015  17.227   1.757
46771W        W16652  15.146  36.919   5.224
46772W        W16653  39.955  26.960  13.809
46773W        W16654  21.211  23.141   3.371
46774W        W16655   1.442  12.203   4.654
46775W        W16656  43.428  44.853   4.246
46776W        W16657  17.771  17.140  14.906
46777W        W16658   9.371  32.627   3.185
46778W        W16659  41.913  22.519   5.212
46779W        W16660  12.191  38.012  14.000
46780W        W16661  36.925  12.343  12.357
46781W        W16662  35.868  19.713   4.307
46782W        W16663  16.250  22.251  12.958
46783W        W16664   6.857  40.884  13.427
46784W        W16665  30.461  21.238  10.965
46785W        W16666  30.470  20.176  11.898
46786W        W16667  11.819  31.075   4.171
46787W        W16668  27.100  26.988   3.712
46788W        W16669  40.354  40.987   4.263
46789W        W16670  13.324  26.030  13.854
46790W        W16671  21.712  44.346   4.752
46791W        W16672  27.086  27.472   0.271
46792W        W16673  24.598   4.256  12.851
46793W        W16674   9.830  11.178  10.517
46794W        W16675  16.781   7.802  12.936
46795W        W16676  21.686   6.388  10.515
46796W        W16677   0.766  22.514   5.203
46797W        W16678  41.985  21.246  13.977
46798W        W16679  12.713  21.044  11.023
46799W        W16680  10.315   2.238  10.949
46800W        W16681  31.070   0.288  14.467
46801W        W16682  38.849   7.297   1.831
46802W        W16683  11.716  20.696  14.500
46803W        W16684  20.718   8.298  14.856
46804W        W16685  39.380  42.511  11.402
46805W        W16686  31.984  41.511   4.224
46806W        W16687  28.046  39.825  13.943
46807W        W16688  30.458  13.281  13.406
46808W        W16689   6.844  12.287  14.854
46809W        W16690  37.945  15.753   3.687
46810W        W16691  13.659  35.392   4.185
46811W        W16692  27.468  28.485  14.447
46812W        W16693  10.321  37.375  13.020
46813W        W16694  23.210   3.908   3.761
46814W        W16695  24.506  14.698   4.654
46815W        W16696  22.107  23.661  13.797
46816W        W16697  42.946  17.223  13.892
46817W        W16698  41.898  34.378  11.960
46818W        W16699  36.514   2.928   0.865
46819W        W16700  17.616  17.150   0.324
46820W        W16701  10.183  22.700   1.853
46821W        W16702  22.725  37.360  14.396
46822W        W16703  36.030  24.518  12.843
46823W        W16704  22.676  25.151  12.394
46824W        W16705  37.036  22.095   3.296
46825W        W16706  44.372  11.324   2.217
46826W        W16707   1.799   3.919   1.449
46827W        W16708  28.179   0.360   2.714
46828W        W16709  37.004   6.682  14.409
46829W        W16710  25.484  12.232  10.936
46830W        W16711  14.302  28.495   4.629
46831W        W16712  35.437   9.676   3.258
46832W        W16713   6.893  33.508  12.069
46833W        W16714   1.765  43.792  13.504
46834W        W16715  30.540   9.782   2.225
46835W        W16716  21.094  13.176  14.516
46836W        W16717  24.665  42.032  13.989
46837W        W16718  24.080   8.363  12.438
46838W        W16719  10.754  27.608  11.427
46839W        W16720  35.397  25.210  11.982
46840W        W16721   5.253   2.266  10.983
46841W        W16722  25.567   0.856   2.377
46842W        W16723  22.656   1.897   1.792
46843W        W16724   7.900   4.751  10.926
46844W        W16725   6.302  36.098   2.294
46845W        W16726   8.183  16.696  13.476
46846W        W16727  11.348  16.656  13.323
46847W        W16728  29.574   2.311   2.212
46848W        W16729   8.835  30.416  10.488
46849W        W16730  29.612  32.543  10.638
46850W        W16731  18.640  39.045   4.248
46851W        W16732  36.469  30.543   4.813
46852W        W16733   0.352  20.553  14.408
46853W        W16734  37.942  10.207   2.418
46854W        W16735  14.175   4.809   1.744
46855W        W16736  21.201  31.414  11.059
46856W        W16737  10.700  21.165   3.753
46857W        W16738   5.339  10.229   3.366
46858W        W16739  10.769  31.967   1.401
46859W        W16740  34.601  40.813   2.184
46860W        W16741  36.563  20.637   3.166
46861W        W16742   9.373  36.041   0.276
46862W        W16743  15.801   2.271  10.634
46863W        W16744  35.512  40.965  12.091
46864W        W16745  44.773   0.256   3.785
46865W        W16746   7.212   9.831  14.410
46866W        W16747  29.099  29.954   3.183
46867W        W16748  34.481  33.120  10.417
46868W        W16749  22.246   2.271  13.369
46869W        W16750  15.593  17.245  10.943
46870W        W16751  22.664  25.972   0.325
46871W        W16752  21.668  23.497  11.005
46872W        W16753  19.742  44.456   0.940
46873W        W16754  11.289  24.066  11.087
46874W        W16755   0.822  37.870  10.587
46875W        W16756  36.859   5.780   2.693
46876W        W16757  24.622   4.805   3.737
46877W        W16758  32.007   4.347  10.085
46878W        W16759  15.171  26.562   0.743
46879W        W16760  12.660  31.469   4.798
46880W        W16761  43.273  11.861   2.251
46881W        W16762  11.813  35.954  10.019
46882W        W16763  40.340  21.556   3.373
46883W        W16764  18.642  23.173   2.361
46884W        W16765   7.351  21.241  12.526
46885W        W16766  33.492  42.314   2.402
46886W        W16767   5.408  38.878  14.840
46887W        W16768  36.538  27.073   0.863
46888W        W16769  43.495  11.729  11.539
46889W        W16770  27.036  39.382   1.442
46890W        W16771  27.183   6.895   4.136
46891W        W16772   6.326   5.832  12.988
46892W        W16773  37.934  33.118  11.398
46893W        W16774  19.774  22.706   4.653
46894W        W16775  42.519   6.900  14.393
46895W        W16776  16.167  41.356   0.247
46896W        W16777  36.365   3.249  10.514
46897W        W16778  16.672  20.667  14.026
46898W        W16779  41.331  15.666  12.532
46899W        W16780  35.540   3.260  11.981
46900W        W16781   0.873  38.426  10.570
46901W        W16782  32.552  44.973   2.192
46902W        W16783  32.433  25.070  13.996
46903W        W16784  10.857   7.274  10.950
46904W        W16785  26.509  13.235  14.943
46905W        W16786  37.423  24.723  13.804
46906W        W16787  33.394  44.832  11.376
46907W        W16788  34.386  34.117  13.474
46908W        W16789  37.022  16.220   2.845
46909W        W16790  10.644  32.986  14.509
46910W        W16791   7.782  30.650  12.960
46911W        W16792   5.410   6.913   1.340
46912W        W16793  38.861  42.320  11.402
46913W        W16794  24.042  10.287  12.964
46914W        W16795  44.993  18.193   2.753
46915W        W16796  27.159  27.518  10.617
46916W        W16797  31.147  43.468  12.344
46917W        W16798  22.577  41.968  12.049
46918W        W16799  41.454  37.382   0.796
46919W        W16800   4.849  23.515  13.061
46920W        W16801   6.348   6.889   3.231
46921W        W16802  26.059  12.795  14.365
46922W        W16803   2.777  18.573   2.315
46923W        W16804  16.072   4.829   1.428
46924W        W16805  41.794  15.706  13.996
46925W        W16806  13.151  12.798   1.835
46926W        W16807  34.936   7.219  12.418
46927W        W16808  21.577  31.585  13.430
46928W        W16809  32.583  21.196   0.400
46929W        W16810  28.179  39.506  12.894
46930W        W16811  18.764  30.442  10.979
46931W        W16812  10.276  15.325   4.764
46932W        W16813   5.749  26.141   4.695
46933W        W16814   2.723  26.991   4.324
46934W        W16815  27.005  19.051  10.575
46935W        W16816  43.933  37.072   4.280
46936W        W16817  34.015   4.709  12.844
46937W        W16818   3.724  35.035   2.302
46938W        W16819  26.702  11.342  14.463
46939W        W16820   4.447  12.319  11.378
46940W        W16821   9.199   7.326  14.841
46941W        W16822  44.905  41.486  12.485
46942W        W16823  27.484  11.285  13.364
46943W        W16824   0.797   5.901  10.526
46944W        W16825  12.634  16.596  12.415
46945W        W16826  26.493   7.351  14.423
46946W        W16827   1.342   2.821  13.323
46947W        W16828  32.102  11.667  11.978
46948W        W16829  17.662   8.803   0.804
46949W        W16830  22.230  14.254   5.246
46950W        W16831   7.874  23.694   3.362
46951W        W16832  24.615   0.750  11.994
46952W        W16833  33.406  23.667  13.532
46953W        W16834  35.060  11.831   3.715
46954W        W16835  37.567  39.425  12.855
46955W        W16836   8.288  19.259   2.701
46956W        W16837  36.544  11.767  11.584
46957W        W16838  13.302  28.158  12.535
46958W        W16839  27.674  32.134  14.026
46959W        W16840  11.157   0.276   3.633
46960W        W16841  13.199  16.231  11.568
46961W        W16842  11.363   2.773   4.790
46962W        W16843  30.028  23.671  12.035
46963W        W16844  20.760  28.962   3.256
46964W        W16845  34.436  27.043   1.789
46965W        W16846   9.737  29.627   2.800
46966W        W16847  21.145   3.808   4.325
46967W        W16848  22.239  33.899   2.690
46968W        W16849  38.016   4.856  13.856
46969W        W16850  35.421  22.085   4.603
46970W        W16851  35.874   2.883   1.401
46971W        W16852   4.797   2.328  11.043
46972W        W16853   3.252  18.127  12.485
46973W        W16854  23.200   2.888  13.920
46974W        W16855  29.101  32.012   4.352
46975W        W16856   6.898  38.392   1.700
46976W        W16857  14.622  16.283   0.365
46977W        W16858  36.876  26.514  12.482
46978W        W16859  32.526  37.383   2.867
46979W        W16860  40.851  22.056   3.170
46980W        W16861  33.403  40.441  12.995
46981W        W16862  41.025   2.466   1.366
46982W        W16863  24.108  39.324  10.558
46983W        W16864  24.677  20.196   4.695
46984W        W16865  29.112   2.471   1.710
46985W        W16866  42.483   0.841  14.883
46986W        W16867  18.712  17.644  12.466
46987W        W16868  44.414  24.500   0.907
46988W        W16869  24.604   0.959  13.034
46989W        W16870   6.186  33.884  10.557
46990W        W16871  30.607  14.098   3.826
46991W        W16872  17.646  16.658   2.256
46992W        W16873  36.358  22.633  11.390
46993W        W16874  38.497  15.118   0.830
46994W        W16875  17.163  39.937   4.189
46995W        W16876  33.090  37.966  14.392
46996W        W16877  34.515  39.895  10.455
46997W        W16878  15.097   8.710   0.478
46998W        W16879   3.403  36.892   2.182
46999W        W16880   2.785  35.472   3.684
47000W        W16881  30.460   3.218  10.639
47001W        W16882  18.117  10.184  12.361
47002W        W16883  40.323  19.284  10.494
47003W        W16884  24.226  19.198   2.203
47004W        W16885   6.808   5.214  11.129
47005W        W16886  31.908  27.057  11.491
47006W        W16887  16.098  10.145   0.826
47007W        W16888  11.331  27.500  13.831
47008W        W16889   7.230  25.679  11.506
47009W        W16890  10.369  26.683  11.518
47010W        W16891   5.811  30.091  13.814
47011W        W16892  18.054  11.624  11.883
47012W        W16893  33.487  22.062   0.809
47013W        W16894  44.289  28.438   2.243
47014W        W16895   8.662   9.253   3.762
47015W        W16896  31.022   6.758  11.527
47016W        W16897  34.959  32.106  12.068
47017W        W16898   3.410  12.297  10.453
47018W        W16899  28.001  39.864   1.708
47019W        W16900  36.477  31.974   0.406
47020W        W16901  21.522  16.647   3.779
47021W        W16902   5.833  14.281  13.326
47022W        W16903  10.685  27.469  10.436
47023W        W16904  34.106   0.419   1.270
47024W        W16905  27.173   7.870   2.840
47025W        W16906  22.018  24.182  11.934
47026W        W16907  33.006  18.674  12.361
47027W        W16908   1.879   2.897  10.503
47028W        W16909   8.301   4.265  10.544
47029W        W16910   4.723  25.998  14.909
47030W        W16911  22.664  27.131   1.874
47031W        W16912  35.091  42.967   5.097
47032W        W16913  38.892  39.029   5.196
47033W        W16914  15.766   3.929  11.977
47034W        W16915  28.980  35.597  14.877
47035W        W16916  32.592  19.742  10.530
47036W        W16917  11.356  14.223   0.320
47037W        W16918  26.557   8.308   3.364
47038W        W16919  39.964  44.958   0.437
47039W        W16920  25.680   5.369   4.669
47040W        W16921  28.507  24.058  10.618
47041W        W16922  11.849  23.984  14.416
47042W        W16923   3.901  32.619   2.329
47043W        W16924  18.724  28.982   1.843
47044W        W16925  35.010   1.743   4.135
47045W        W16926  17.153   7.893   3.351
47046W        W16927  43.300  32.090  13.052
47047W        W16928  26.054  25.166  11.478
47048W        W16929  35.966  36.459   4.127
47049W        W16930  42.331  24.678  12.867
47050W        W16931  21.665  21.596   1.249
47051W        W16932  38.912   4.324  11.595
47052W        W16933  15.323  17.241  13.341
47053W        W16934  15.329  31.955  10.931
47054W        W16935   8.226  16.592   0.357
47055W        W16936  26.583   6.257  13.964
47056W        W16937   4.917  23.712  13.440
47057W        W16938  36.551  11.156  12.996
47058W        W16939  29.141   2.837   0.873
47059W        W16940  25.487  17.659   2.399
47060W        W16941   2.839  31.633   1.880
47061W        W16942  15.312  32.498  10.605
47062W        W16943  41.971  41.864   2.881
47063W        W16944  42.022  32.558  10.613
47064W        W16945  30.477   5.794   5.569
47065W        W16946  17.612  34.948  13.418
47066W        W16947  11.729  28.096   2.795
47067W        W16948  15.186  43.923   4.663
47068W        W16949  43.010  37.423   1.310
47069W        W16950  34.055  17.759   1.311
47070W        W16951  10.727  36.028   4.345
47071W        W16952  37.526  11.724   3.362
47072W        W16953   5.805  21.605  11.462
47073W        W16954  17.120  38.977  12.987
47074W        W16955   5.747   5.874   0.931
47075W        W16956  36.963   2.294   3.705
47076W        W16957   4.905  13.784   2.338
47077W        W16958  29.664  18.693  14.430
47078W        W16959  29.161  13.793   4.140
47079W        W16960   9.754  27.028   1.407
47080W        W16961   1.748  12.794   4.151
47081W        W16962  14.307  27.038  11.463
47082W        W16963  29.512   3.461  13.975
47083W        W16964   8.306  16.174  13.535
47084W        W16965  10.347  28.551  10.586
47085W        W16966  26.568  14.184  10.569
47086W        W16967  31.632  17.644  13.985
47087W        W16968   0.823   1.882  14.944
47088W        W16969   7.749   2.734  12.344
47089W        W16970  13.247  13.109   0.430
47090W        W16971  23.011   3.275  13.320
47091W        W16972   2.373  10.292   3.302
47092W        W16973  44.820  35.475  11.542
47093W        W16974   7.682  39.992   3.371
47094W        W16975  15.823  20.160  11.967
47095W        W16976   0.797  41.918   4.355
47096W        W16977  43.417  35.369   0.829
47097W        W16978  36.531  30.161   2.795
47098W        W16979   9.260  37.066   1.790
47099W        W16980  43.958  13.106  14.902
47100W        W16981  43.970  25.075  10.494
47101W        W16982  39.542  10.288  12.553
47102W        W16983   5.352   8.282  12.351
47103W        W16984   6.352  44.940   0.734
47104W        W16985  19.101   6.745  14.758
47105W        W16986   0.918  35.036  13.809
47106W        W16987  23.156  10.812   1.815
47107W        W16988  32.970  41.832  10.545
47108W        W16989  19.193   0.807   4.713
47109W        W16990  19.571  41.815   0.930
47110W        W16991  16.230  41.967  11.500
47111W        W16992  41.351  23.711   4.260
47112W        W16993  44.937  41.521  11.873
47113W        W16994  34.472   1.838  11.476
47114W        W16995  29.648  13.179   2.723
47115W        W16996  11.685   8.778   2.418
47116W        W16997   4.220  32.977   1.756
47117W        W16998  18.237  39.951  11.027
47118W        W16999  32.924  31.917  12.453
47119W        W17000  33.922  41.025   4.791
47120W        W17001  30.656  18.570  11.078
47121W        W17002   5.840  16.298   1.219
47122W        W17003  27.598  24.562   5.149
47123W        W17004  11.639  11.768   2.876
47124W        W17005  21.728  12.251  14.879
47125W        W17006  37.503  42.362   0.434
47126W        W17007  25.693  38.395   4.788
47127W        W17008   2.392  24.054  14.342
47128W        W17009  31.142  32.935   0.478
47129W        W17010  41.798   0.880   2.194
47130W        W17011  26.531  41.430  10.633
47131W        W17012  18.719  18.641   0.266
47132W        W17013  24.062  24.706  11.866
47133W        W17014  11.188  21.200   3.644
47134W        W17015   7.280  35.392  14.783
47135W        W17016  28.435  27.452  14.457
47136W        W17017  19.066   6.353   2.190
47137W        W17018   4.384  33.505   0.751
47138W        W17019  37.409  23.510  13.916
47139W        W17020  22.087  43.311   1.815
47140W        W17021  28.997   9.843  10.930
47141W        W17022  18.291   3.773   3.375
47142W        W17023   4.839   9.720   3.777
47143W        W17024   5.288  22.708   4.248
47144W        W17025  43.440  12.229  14.838
47145W        W17026  32.598  35.871  13.028
47146W        W17027  43.936  11.766   4.615
47147W        W17028  42.498   2.776   2.752
47148W        W17029  28.586  14.644   3.287
47149W        W17030  29.441  24.517  14.291
47150W        W17031   4.277  38.406   1.836
47151W        W17032   5.751  23.593  14.889
47152W        W17033  27.955  43.902   1.763
47153W        W17034  31.403  19.713  12.941
47154W        W17035  40.514   9.726  12.502
47155W        W17036  39.348  12.213  11.513
47156W        W17037  28.608   5.826  11.589
47157W        W17038  17.230   3.736   1.245
47158W        W17039  12.702  35.913  10.538
47159W        W17040   6.856  38.997  10.481
47160W        W17041  18.785  39.995  14.945
47161W        W17042  26.505  37.989   0.958
47162W        W17043  27.083  12.846  14.363
47163W        W17044  37.954  27.560   3.717
47164W        W17045  34.904   5.806   1.262
47165W        W17046   2.348  41.942  11.447
47166W        W17047  26.118  10.236   9.968
47167W        W17048   1.807  22.189   4.246
47168W        W17049  19.584  35.382   4.266
47169W        W17050  38.059  43.899  13.001
47170W        W17051  13.786  16.295   3.833
47171W        W17052  13.222   9.744  10.500
47172W        W17053   8.324  11.743  13.353
47173W        W17054  43.794  18.262   0.289
47174W        W17055  42.013  20.704  13.525
47175W        W17056   4.715   4.431   2.814
47176W        W17057  18.135  19.206  11.921
47177W        W17058  44.901   9.159  13.376
47178W        W17059  27.547   9.836   4.324
47179W        W17060  29.129  15.601   2.419
47180W        W17061  15.691   8.696   4.307
47181W        W17062  14.222  32.994  11.062
47182W        W17063  26.053  43.422  12.345
47183W        W17064  32.084  21.253   1.850
47184W        W17065  40.931  36.016   0.895
47185W        W17066  17.727  10.749  12.977
47186W        W17067  22.234  19.135  14.794
47187W        W17068  14.762  40.322  10.524
47188W        W17069  29.947  43.468  10.418
47189W        W17070  34.557   6.825  14.394
47190W        W17071  33.383  19.646   1.713
47191W        W17072  19.219  32.433  12.834
47192W        W17073   4.392  24.004   4.150
47193W        W17074  10.310  35.062   4.175
47194W        W17075  29.981  29.950  13.815
47195W        W17076  39.822  28.460  12.902
47196W        W17077   4.838   8.335  13.997
47197W        W17078   4.799   9.366   0.255
47198W        W17079  38.033  44.499   2.821
47199W        W17080   5.756  12.688   0.347
47200W        W17081   7.770   7.339   4.686
47201W        W17082  36.391  23.511   1.309
47202W        W17083  15.693  12.164   1.346
47203W        W17084  40.497  26.011  14.030
47204W        W17085  31.956  36.545   3.855
47205W        W17086  43.854  16.216  11.567
47206W        W17087  17.580   5.830   3.700
47207W        W17088  17.601   8.672  10.496
47208W        W17089  35.998   8.355   0.754
47209W        W17090  34.921   9.327   2.224
47210W        W17091  19.607   5.887   4.651
47211W        W17092  34.379   0.971   1.322
47212W        W17093  19.138   5.315   0.458
47213W        W17094   6.353  42.429  10.016
47214W        W17095  15.695  21.043  10.557
47215W        W17096  21.235   8.758   3.674
47216W        W17097  23.200  21.205   3.236
47217W        W17098  44.877  40.445   3.319
47218W        W17099   7.764  35.564   1.259
47219W        W17100  43.886  11.312  12.921
47220W        W17101  30.923  15.207  11.603
47221W        W17102  16.645  34.540  13.924
47222W        W17103  12.311  24.583  10.599
47223W        W17104  26.116  20.080  10.560
47224W        W17105  34.514  44.920   3.321
47225W        W17106   2.837  29.444   3.849
47226W        W17107   1.946  28.169   5.254
47227W        W17108   5.894  12.832   2.318
47228W        W17109  39.939  41.513   3.211
47229W        W17110  23.991  26.679  10.615
47230W        W17111  26.961  32.090  13.836
47231W        W17112  16.258  18.211  14.918
47232W        W17113  43.437  34.606   2.204
47233W        W17114  13.299  13.222   2.289
47234W        W17115  33.519   4.800  14.296
47235W        W17116  18.656  17.307   4.270
47236W        W17117   7.678  26.976  11.509
47237W        W17118   3.292  34.536   4.838
47238W        W17119  41.955  43.383  14.303
47239W        W17120  41.956  25.997  14.388
47240W        W17121  24.033  31.511   1.782
47241W        W17122  35.090  14.169   0.903
47242W        W17123  32.459  13.687   2.398
47243W        W17124  44.504   2.366   2.852
47244W        W17125  35.554  19.671   4.673
47245W        W17126  18.716   1.307  12.418
47246W        W17127   6.811  40.498   3.846
47247W        W17128  43.990  42.873  12.920
47248W        W17129  12.197  18.586  12.930
47249W        W17130  35.946  42.791  14.974
47250W        W17131  11.263  35.436   1.270
47251W        W17132   3.421   7.895  10.584
47252W        W17133   0.271  27.592  14.885
47253W        W17134  15.739  15.280   4.122
47254W        W17135  38.431  23.647  11.950
47255W        W17136  44.922   3.713  13.545
47256W        W17137   8.208  14.690   4.806
47257W        W17138   6.198  22.176   4.622
47258W        W17139  38.910  35.096   0.290
47259W        W17140  23.616  40.819   0.956
47260W        W17141  18.195  35.454   4.148
47261W        W17142  27.178  25.071   3.803
47262W        W17143  20.568  23.987   0.480
47263W        W17144  23.514  39.026  10.930
47264W        W17145  38.395   2.813   0.266
47265W        W17146  25.057  36.475  13.311
47266W        W17147  28.001  20.263   1.327
47267W        W17148  15.689  40.516  10.440
47268W        W17149   4.940  22.069   2.891
47269W        W17150   9.327  24.574  13.849
47270W        W17151   4.407  15.766   0.864
47271W        W17152  10.664  25.038   3.822
47272W        W17153  28.680  26.511   1.714
47273W        W17154   6.272  24.015  14.322
47274W        W17155  16.799  14.274  14.363
47275W        W17156  34.546   5.263  14.874
47276W        W17157  25.676  19.700   1.830
47277W        W17158  41.490  44.459   3.224
47278W        W17159  29.030  34.113  10.973
47279W        W17160  19.651  17.279   0.810
47280W        W17161  38.409   0.871   0.379
47281W        W17162  38.418  42.016   2.812
47282W        W17163   9.233  17.219   2.752
47283W        W17164  26.084   8.310  14.381
47284W        W17165   1.287  24.083  14.326
47285W        W17166  33.438   1.476  11.863
47286W        W17167  28.982  30.649  10.630
47287W        W17168   9.731  29.047   2.754
47288W        W17169  44.838  37.985  12.982
47289W        W17170  19.779   7.868   2.376
47290W        W17171   1.337  22.200   1.400
47291W        W17172  42.795  21.646   4.115
47292W        W17173  10.647   0.421   1.426
47293W        W17174  35.880  17.751  11.604
47294W        W17175   9.355  22.554   3.831
47295W        W17176  18.774   1.970  10.900
47296W        W17177  43.493   4.297   0.248
47297W        W17178  21.704  34.445   0.477
47298W        W17179   1.297   7.376  13.496
47299W        W17180   8.348  38.498   1.920
47300W        W17181  23.720  42.523  13.481
47301W        W17182  20.172  16.574  14.781
47302W        W17183   0.296  39.517   4.718
47303W        W17184  23.121   9.854  13.955
47304W        W17185  31.115  11.736  12.915
47305W        W17186   3.286   5.812  14.274
47306W        W17187  37.402  11.630  14.951
47307W        W17188  35.936  18.219  12.940
47308W        W17189   4.859  25.470   4.777
47309W        W17190  15.180   8.278   0.838
47310W        W17191  17.656  15.625  11.898
47311W        W17192  34.873   4.205  14.930
47312W        W17193  12.341  32.980   2.260
47313W        W17194  28.022  10.772   4.183
47314W        W17195  21.758   2.768  10.423
47315W        W17196  17.681  20.578  10.412
47316W        W17197   0.815  25.001   4.689
47317W        W17198  17.214  38.332  11.947
47318W        W17199  24.555   1.436   2.390
47319W        W17200  15.180  22.176  11.500
47320W        W17201  31.522  40.514   3.340
47321W        W17202  34.522  22.178   4.164
47322W        W17203   2.411  41.945   2.793
47323W        W17204  18.243  22.163   4.336
47324W        W17205  13.222  29.106  12.878
47325W        W17206   8.762   5.363  14.846
47326W        W17207  12.719  30.035  12.509
47327W        W17208  26.624  21.549  11.526
47328W        W17209  22.618  28.953   2.251
47329W        W17210  41.928  25.198   1.712
47330W        W17211  13.189  34.422  10.888
47331W        W17212  13.180  26.527  14.482
47332W        W17213  29.001   5.346  14.321
47333W        W17214  29.480  17.244   5.252
47334W        W17215  30.995  34.030  14.407
47335W        W17216  13.294   1.273   4.747
47336W        W17217   4.442  10.308   3.762
47337W        W17218  37.472  42.452  14.336
47338W        W17219   2.782  13.104   3.174
47339W        W17220  33.063  43.426   4.237
47340W        W17221  29.969  30.052  14.766
47341W        W17222   7.294  29.575   4.255
47342W        W17223  19.158  32.114   4.718
47343W        W17224   8.855   6.684   2.699
47344W        W17225   2.407   2.845  13.430
47345W        W17226  22.620  26.596   4.121
47346W        W17227  28.487   8.215   2.327
47347W        W17228  42.789   6.884  11.121
47348W        W17229  32.455   9.795   2.301
47349W        W17230  38.937  42.826  10.618
47350W        W17231  30.153  22.651   4.785
47351W        W17232  31.138  42.937  11.959
47352W        W17233  18.711   6.271   3.801
47353W        W17234  21.136  22.239  10.960
47354W        W17235   2.791  42.979   3.362
47355W        W17236  20.671  20.056  12.905
47356W        W17237   8.743   8.258   2.693
47357W        W17238  29.650   3.902   3.708
47358W        W17239  35.988  16.667  11.908
47359W        W17240  26.639   9.348   4.715
47360W        W17241  39.993  21.639   3.321
47361W        W17242  25.701  36.988   1.855
47362W        W17243  43.290  35.865  11.094
47363W        W17244  36.428  33.902   1.848
47364W        W17245  21.590  36.087   4.646
47365W        W17246   4.228  42.941   2.398
47366W        W17247  30.959  12.232  14.892
47367W        W17248  40.373   4.399  10.984
47368W        W17249   6.711   4.209   1.370
47369W        W17250   4.936   6.679   1.351
47370W        W17251  11.733   8.806  12.531
47371W        W17252  31.023  33.952  12.007
47372W        W17253   9.889   3.740  13.312
47373W        W17254  10.838  27.546   3.262
47374W        W17255  41.406  42.878  10.551
47375W        W17256  17.676  12.264  12.855
47376W        W17257  39.908   0.308  10.425
47377W        W17258  43.985  25.166  11.404
47378W        W17259  31.613  23.573   3.369
47379W        W17260   0.386  25.978   2.402
47380W        W17261   8.853   8.686  13.377
47381W        W17262  35.446  15.710   1.278
47382W        W17263  21.213  44.260  14.799
47383W        W17264  20.738  27.127  12.578
47384W        W17265  20.204   7.229  10.588
47385W        W17266  15.230  29.424   0.765
47386W        W17267  44.903   6.198   1.815
47387W        W17268  34.965   5.815  12.376
47388W        W17269  39.544  13.721  11.401
47389W        W17270  24.131   1.964   4.618
47390W        W17271  31.153  23.087  13.990
47391W        W17272  19.269  11.204   0.296
47392W        W17273  30.512   8.311   0.420
47393W        W17274  26.171  14.830  10.504
47394W        W17275  26.528  12.684   9.952
47395W        W17276   4.750  39.475   1.713
47396W        W17277  43.499  15.707   1.792
47397W        W17278  30.605   8.257   4.262
47398W        W17279  36.894  36.875   2.414
47399W        W17280  41.790  34.557  12.990
47400W        W17281  15.726  28.933   4.273
47401W        W17282  25.184  11.342   1.913
47402W        W17283  12.253  43.296   1.337
47403W        W17284  25.038  20.640   4.314
47404W        W17285  28.612  28.064   4.212
47405W        W17286  25.542  42.855  11.989
47406W        W17287  27.946  34.085  14.323
47407W        W17288  18.229  10.701  12.459
47408W        W17289  23.052  12.217  10.898
47409W        W17290  39.550  12.665  13.827
47410W        W17291  17.174   1.816   5.181
47411W        W17292  36.469   5.837  11.401
47412W        W17293  24.125  36.881   2.349
47413W        W17294  24.973  39.848  14.415
47414W        W17295  33.955  41.384  13.964
47415W        W17296  12.800  17.133  11.929
47416W        W17297   3.926  11.229   3.187
47417W        W17298  23.115  19.584   0.362
47418W        W17299  28.029  38.886  11.490
47419W        W17300   8.847   5.704   3.162
47420W        W17301  12.749   5.846   1.231
47421W        W17302  43.376  12.201  11.560
47422W        W17303  30.130   6.858   3.305
47423W        W17304   6.252  13.664  12.354
47424W        W17305  21.532   8.178   1.218
47425W        W17306  33.897  27.072  14.514
47426W        W17307  38.571  36.979  12.511
47427W        W17308  18.242  25.209  11.563
47428W        W17309  41.798  25.490   0.802
47429W        W17310   4.270  22.103  10.530
47430W        W17311  26.951  14.301   2.400
47431W        W17312  30.475  30.010   0.906
47432W        W17313  29.667   6.809  11.123
47433W        W17314   3.238  38.551   0.795
47434W        W17315  11.293  33.614   4.212
47435W        W17316  31.430  27.510   4.128
47436W        W17317   6.914  20.061   3.148
47437W        W17318  20.590  21.535   2.787
47438W        W17319  32.519  41.357   0.261
47439W        W17320   4.903  31.016  12.370
47440W        W17321  39.937  11.253   2.213
47441W        W17322   7.183  42.445   3.759
47442W        W17323  16.148  34.080   3.733
47443W        W17324  21.600   9.203  11.862
47444W        W17325   8.782  23.993  11.557
47445W        W17326  33.030  12.637   3.355
47446W        W17327  40.499  19.186   1.408
47447W        W17328  26.967  36.885   3.366
47448W        W17329  38.965  15.584   1.371
47449W        W17330  26.104  31.067  13.323
47450W        W17331   6.802  44.377   4.209
47451W        W17332  33.931  18.733   0.853
47452W        W17333  31.525  31.557  10.479
47453W        W17334  16.230  30.602   2.283
47454W        W17335   5.409  43.399  11.578
47455W        W17336  18.605  35.953  14.310
47456W        W17337   6.334  33.064   2.390
47457W        W17338   0.336   9.311  13.416
47458W        W17339  30.455  22.077  10.466
47459W        W17340  24.075  19.715  11.127
47460W        W17341  31.899   1.807  10.517
47461W        W17342   7.837  14.722   1.748
47462W        W17343  21.707  37.381   1.768
47463W        W17344   9.292  36.855  10.955
47464W        W17345  12.669   0.859   3.655
47465W        W17346  30.492  43.830  14.487
47466W        W17347   0.430   8.751  11.605
47467W        W17348  43.276  18.616  12.478
47468W        W17349  18.670  28.501  13.351
47469W        W17350  40.985  30.055  12.043
47470W        W17351  34.524  38.562  10.423
47471W        W17352  38.921   8.662  11.125
47472W        W17353  13.331  30.493   1.789
47473W        W17354  10.829  16.254   3.833
47474W        W17355  22.014   0.372   4.314
47475W        W17356  27.460  26.619   0.953
47476W        W17357  42.303   0.248  11.388
47477W        W17358   7.835  26.031   3.308
47478W        W17359   3.945   6.229  11.002
47479W        W17360  41.328  41.485  12.916
47480W        W17361  18.612  43.981  12.432
47481W        W17362  29.167  23.195   2.299
47482W        W17363  11.641  13.692   3.750
47483W        W17364  31.081  18.569   4.709
47484W        W17365   6.225  40.031  11.899
47485W        W17366  17.206  38.960  13.942
47486W        W17367   9.758  37.431   3.859
47487W        W17368   3.792  21.580   4.751
47488W        W17369  23.080  14.260  14.492
47489W        W17370   0.276   2.226  15.000
47490W        W17371  31.949   6.258   2.198
47491W        W17372  17.077  24.183  12.841
47492W        W17373  36.567  15.697   0.778
47493W        W17374  34.104   9.210  12.547
47494W        W17375   0.277   7.775  10.447
47495W        W17376  37.864  41.037   2.669
47496W        W17377  12.646   8.184  14.477
47497W        W17378  37.528  22.708   4.711
47498W        W17379   5.878  18.267   0.743
47499W        W17380  41.799  16.102   0.428
47500W        W17381  21.065  32.616   3.361
47501W        W17382   7.270  30.152  14.964
47502W        W17383  30.529  18.159  13.040
47503W        W17384  26.639  21.655   2.708
47504W        W17385   4.726  33.045  14.848
47505W        W17386   2.470  26.689  13.847
47506W        W17387  30.951   0.828  12.086
47507W        W17388   5.194  32.546   4.323
47508W        W17389  23.138   8.873  13.976
47509W        W17390  11.219  18.633  12.947
47510W        W17391   2.902  38.352  12.979
47511W        W17392  28.083  43.499   4.776
47512W        W17393  28.605   9.815  13.810
47513W        W17394  21.172  14.245  13.944
47514W        W17395  39.880   3.781  13.006
47515W        W17396  38.429   0.748  14.319
47516W        W17397   3.363  18.557   5.097
47517W        W17398  38.838  22.139   3.378
47518W        W17399  10.357  23.018   4.742
47519W        W17400  36.495  16.634   2.253
47520W        W17401   6.724  30.958   3.805
47521W        W17402   0.323  23.680  10.411
47522W        W17403  40.004  15.624  13.455
47523W        W17404  26.187  32.394   1.919
47524W        W17405  32.090  31.410  11.083
47525W        W17406  43.482  44.486  14.022
47526W        W17407  42.932   1.975   3.729
47527W        W17408  39.980  36.546  14.332
47528W        W17409  14.151  30.441  13.929
47529W        W17410  31.035  24.119  12.850
47530W        W17411  12.177  36.413   2.389
47531W        W17412  16.232   4.919  10.150
47532W        W17413  24.612  12.196   4.321
47533W        W17414   9.662  25.573   3.786
47534W        W17415  19.226  24.653   0.883
47535W        W17416   3.839  27.029   3.174
47536W        W17417  26.066  13.203   2.671
47537W        W17418  27.569  14.670  14.029
47538W        W17419  11.245  18.723   5.083
47539W        W17420  27.022  35.895  13.362
47540W        W17421  19.131  32.934   2.875
47541W        W17422  40.489   9.866   4.338
47542W        W17423  38.827  39.905  14.346
47543W        W17424  12.191  33.922  10.934
47544W        W17425  13.188  33.988   4.649
47545W        W17426  21.572  35.931  12.066
47546W        W17427  39.815  40.543  11.930
47547W        W17428  20.170  31.408   1.251
47548W        W17429  21.512  18.704   5.727
47549W        W17430  27.118  43.946   0.328
47550W        W17431  14.112  34.087  10.918
47551W        W17432   8.869  21.555  11.066
47552W        W17433  33.124   5.843   3.847
47553W        W17434   4.943  31.967   2.671
47554W        W17435  14.713   2.896   1.307
47555W        W17436  25.167  39.379  13.384
47556W        W17437   1.460  35.392   1.421
47557W        W17438  12.840  16.750  14.900
47558W        W17439   4.824  14.106   4.168
47559W        W17440  29.940  30.448   4.244
47560W        W17441   6.402  18.098  12.343
47561W        W17442  19.642  44.828  10.466
47562W        W17443  20.676  23.559  12.073
47563W        W17444  24.205   6.326  10.608
47564W        W17445  38.935  12.823   0.834
47565W        W17446  15.596  10.229  12.852
47566W        W17447  24.668  22.652   4.615
47567W        W17448   8.200  41.886  14.904
47568W        W17449  17.197  21.254  13.999
47569W        W17450  11.663  34.020   0.430
47570W        W17451   4.759  21.626   4.261
47571W        W17452  42.442  34.958   4.718
47572W        W17453  42.012  37.871  13.837
47573W        W17454  30.935   1.314  12.893
47574W        W17455  34.921  12.352   4.240
47575W        W17456  20.273  33.439   1.793
47576W        W17457   5.273  16.085  11.053
47577W        W17458   0.280   3.406   3.649
47578W        W17459  38.852  14.800   3.201
47579W        W17460   4.823  36.406  12.850
47580W        W17461   2.746  24.528  13.436
47581W        W17462   3.376  16.147   0.895
47582W        W17463   3.305  36.948  13.827
47583W        W17464   2.335  40.930  12.568
47584W        W17465  23.199  32.137  14.306
47585W        W17466  16.218  19.240  12.576
47586W        W17467   0.475  37.893  12.511
47587W        W17468   9.303  42.426  13.449
47588W        W17469  14.095  20.530  13.533
47589W        W17470  38.928  34.368   1.275
47590W        W17471  42.330  39.422   3.770
47591W        W17472  30.999   2.945   1.271
47592W        W17473  14.647  41.894   0.435
47593W        W17474  26.986  22.144   3.770
47594W        W17475  36.442  36.465  11.044
47595W        W17476  17.710  38.057   1.855
47596W        W17477  41.331   2.788   3.819
47597W        W17478  17.107   0.975  11.417
47598W        W17479   7.757  25.579   4.352
47599W        W17480  23.541   4.374  13.517
47600W        W17481   0.894  25.639   3.744
47601W        W17482   4.205  20.562   4.278
47602W        W17483  20.721   4.706  14.977
47603W        W17484   1.406  31.526   0.286
47604W        W17485  24.682  34.925   4.167
47605W        W17486  15.743   7.256   3.818
47606W        W17487   9.831  42.520   4.345
47607W        W17488  34.508  41.500   0.764
47608W        W17489  32.972  14.161  14.988
47609W        W17490  16.258  33.551   3.809
47610W        W17491  36.488   5.872   4.228
47611W        W17492   5.199   3.364  12.036
47612W        W17493  40.930  33.580   3.867
47613W        W17494  16.658  35.545   3.185
47614W        W17495  38.864  22.218   0.968
47615W        W17496  37.564  25.968   2.366
47616W        W17497  37.833  42.846   3.174
47617W        W17498  21.153   6.756  13.875
47618W        W17499  10.855  32.511  11.611
47619W        W17500  32.892  21.722  12.840
47620W        W17501  36.910  13.749   0.345
47621W        W17502   4.867   2.831   3.374
47622W        W17503  32.050  35.038   2.321
47623W        W17504  41.887  39.512  12.492
47624W        W17505  10.329   5.193  12.451
47625W        W17506   2.412  41.295   0.480
47626W        W17507   0.475  30.127  14.910
47627W        W17508   3.402  29.458   1.782
47628W        W17509  38.533  27.487  13.800
47629W        W17510  20.756  16.073   4.194
47630W        W17511  27.186  30.039  14.428
47631W        W17512  16.105   2.285   3.748
47632W        W17513  35.372  39.836  13.307
47633W        W17514   6.403  29.638   2.704
47634W        W17515  39.914  19.581   4.161
47635W        W17516   5.741  12.189   1.338
47636W        W17517  35.364  23.559   4.823
47637W        W17518  42.347  27.029  11.955
47638W        W17519  39.977  43.970   0.469
47639W        W17520  22.243  11.159  14.471
47640W        W17521  44.321  41.412   4.283
47641W        W17522  19.634  21.181   2.322
47642W        W17523  43.367  11.230  13.847
47643W        W17524   0.883  35.018   3.700
47644W        W17525  35.510  27.158   3.385
47645W        W17526   1.296  31.996  11.375
47646W        W17527  36.970   6.254   0.380
47647W        W17528  30.596  44.832  14.842
47648W        W17529  21.156   2.374   0.273
47649W        W17530  20.687  41.818  11.041
47650W        W17531  36.489  13.227  11.434
47651W        W17532   6.877  16.074  14.877
47652W        W17533  33.436   4.924   2.875
47653W        W17534  20.610   3.712   4.212
47654W        W17535  13.666  33.556   2.854
47655W        W17536  38.495  16.600  10.422
47656W        W17537   5.343   7.303   3.739
47657W        W17538  40.888  39.919   3.163
47658W        W17539   2.464  27.083   0.916
47659W        W17540  17.597  33.516  11.953
47660W        W17541  25.489  19.169  14.305
47661W        W17542  34.389   8.863  13.040
47662W        W17543  27.686  16.156  10.559
47663W        W17544  30.535  18.282   4.156
47664W        W17545  36.960  12.692   0.462
47665W        W17546  14.673  28.082  12.563
47666W        W17547  38.827  15.812   0.880
47667W        W17548  16.668   3.331   0.846
47668W        W17549   8.342  19.686  11.592
47669W        W17550  32.913  38.043   0.390
47670W        W17551  43.828  15.665   2.242
47671W        W17552  17.164  36.031  11.939
47672W        W17553  18.121   8.172  12.475
47673W        W17554  23.522  42.877  11.891
47674W        W17555  20.759  34.033  12.424
47675W        W17556  37.513  19.554   1.414
47676W        W17557  32.566  25.971   1.913
47677W        W17558   8.769  11.777   4.168
47678W        W17559  32.130   7.327   2.804
47679W        W17560  23.237  21.180   0.769
47680W        W17561  25.112   9.371  11.927
47681W        W17562   2.290   8.858  12.053
47682W        W17563   2.281  39.050  10.425
47683W        W17564  14.274   0.910   2.280
47684W        W17565  35.010   1.865   0.949
47685W        W17566  23.633  11.194  12.842
47686W        W17567  34.911  40.860   4.729
47687W        W17568  41.520  27.076   2.750
47688W        W17569   5.693   6.304   2.418
47689W        W17570  32.418  26.152   2.231
47690W        W17571  26.486  23.241   4.795
47691W        W17572  34.403  33.964   0.277
47692W        W17573  26.062  41.893  11.401
47693W        W17574  25.610   5.357  12.832
47694W        W17575   7.725  13.615   4.691
47695W        W17576   2.883  44.437   3.650
47696W        W17577   1.320   5.270   0.865
47697W        W17578  37.917   1.410   3.801
47698W        W17579   4.722  29.642  10.470
47699W        W17580  23.527  43.343  10.484
47700W        W17581  18.211  23.151  14.984
47701W        W17582  37.516  23.127   1.848
47702W        W17583  24.487  41.402  11.904
47703W        W17584  34.391  20.551   0.378
47704W        W17585  43.977  27.115  12.054
47705W        W17586   8.305  26.462   2.231
47706W        W17587  34.937  18.550  10.490
47707W        W17588  13.301  10.143   3.341
47708W        W17589  24.518  43.819  12.457
47709W        W17590  20.139   6.253   3.234
47710W        W17591   4.440  40.499  13.037
47711W        W17592  19.073  30.633   4.206
47712W        W17593   9.272  12.348   4.255
47713W        W17594  26.654  39.014   2.223
47714W        W17595  33.980   2.967  10.894
47715W        W17596  23.649  34.040  13.456
47716W        W17597  15.789  25.629  11.606
47717W        W17598   2.744  44.933   2.754
47718W        W17599  31.496  27.580  14.918
47719W        W17600  44.964   3.845  14.904
47720W        W17601  28.122  16.789   3.372
47721W        W17602   8.397  23.029   4.121
47722W        W17603  20.078  44.857   4.782
47723W        W17604   5.813   0.802   1.799
47724W        W17605  23.110  39.397  13.483
47725W        W17606  21.577  26.000   2.680
47726W        W17607   0.769  21.186   4.247
47727W        W17608  21.658   3.433   2.836
47728W        W17609  24.080  10.719  11.530
47729W        W17610  33.938  37.382   3.265
47730W        W17611  38.556   8.741  12.038
47731W        W17612  12.245  13.618  11.390
47732W        W17613  13.693  22.201  13.940
47733W        W17614   1.418   2.379  13.028
47734W        W17615  20.585  34.873  12.426
47735W        W17616   2.440  20.157  13.833
47736W        W17617  44.377  36.400   3.778
47737W        W17618  12.848  24.198   1.295
47738W        W17619  31.557  42.386  13.956
47739W        W17620  35.603  42.908  12.896
47740W        W17621  42.412   9.223  11.864
47741W        W17622   5.281   5.371   0.247
47742W        W17623   0.931  14.132   4.785
47743W        W17624  33.914  42.356  14.378
47744W        W17625  31.138  38.467  14.864
47745W        W17626  28.967  18.091   3.353
47746W        W17627  29.988  16.249   9.613
47747W        W17628   4.714  24.548  12.924
47748W        W17629   8.665   6.822   3.300
47749W        W17630  27.051  22.517   3.649
47750W        W17631  22.017  12.145  11.122
47751W        W17632  33.985  43.943  12.531
47752W        W17633  42.021  27.096   2.847
47753W        W17634  36.411  33.936  13.522
47754W        W17635  32.628  19.141   1.237
47755W        W17636  35.473  29.138   3.354
47756W        W17637   4.287  44.291  11.395
47757W        W17638  16.594  28.071   2.729
47758W        W17639  20.264  31.506   0.775
47759W        W17640  22.658  25.114  13.016
47760W        W17641   3.766  32.105   2.893
47761W        W17642  17.653  25.034   1.359
47762W        W17643  37.575   7.342  12.843
47763W        W17644  40.340   3.291   2.348
47764W        W17645  41.457  44.857  12.382
47765W        W17646  43.864  21.233   1.318
47766W        W17647   8.402  26.644  10.915
47767W        W17648  43.361  36.417  10.918
47768W        W17649  36.056   0.248  14.014
47769W        W17650  23.994  25.617   2.820
47770W        W17651  14.291  28.973   4.814
47771W        W17652  35.005  15.159   3.150
47772W        W17653  35.039  37.861   1.783
47773W        W17654  13.608  16.638  11.511
47774W        W17655  24.176   8.884   4.655
47775W        W17656  35.529   6.823  12.876
47776W        W17657  22.560  21.264   0.777
47777W        W17658  41.890  25.671  14.921
47778W        W17659   1.388   2.729   3.169
47779W        W17660  28.560  16.746  11.104
47780W        W17661  35.882  29.039  14.885
47781W        W17662  31.134  25.703   0.744
47782W        W17663  38.372  36.549  13.024
47783W        W17664   7.877  23.120  13.502
47784W        W17665  22.728  35.883   1.762
47785W        W17666  35.527  44.865   3.183
47786W        W17667  16.168  22.705  12.451
47787W        W17668  19.099  26.647  14.431
47788W        W17669  42.836   6.288   1.933
47789W        W17670  38.382  24.137  11.968
47790W        W17671   7.241  10.259  10.464
47791W        W17672  26.045  29.080   0.772
47792W        W17673  37.437  16.637   3.271
47793W        W17674  40.406  34.411  14.799
47794W        W17675   7.850  19.259  12.860
47795W        W17676  12.361  41.360  13.986
47796W        W17677   4.401  11.133   4.245
47797W        W17678  38.477  18.296  14.785
47798W        W17679  15.136   8.207  13.389
47799W        W17680  24.557  39.824  11.527
47800W        W17681  15.704  42.368  13.515
47801W        W17682  32.093  31.548   4.308
47802W        W17683   4.377   9.200   0.908
47803W        W17684  14.803  44.933   4.813
47804W        W17685  30.599   2.324   1.747
47805W        W17686  27.154   7.850   1.923
47806W        W17687  36.458  34.398  12.474
47807W        W17688  33.507  17.257   3.157
47808W        W17689  10.721  36.925  12.347
47809W        W17690  38.935  21.525  14.999
47810W        W17691  42.455  29.667   1.872
47811W        W17692  36.391  15.224   3.840
47812W        W17693  27.666  23.223   1.336
47813W        W17694  24.210   6.241   3.693
47814W        W17695   2.381  22.541   5.202
47815W        W17696  16.089   3.942  14.380
47816W        W17697  20.163   9.812  13.858
47817W        W17698  10.802   9.794   0.775
47818W        W17699  11.664  32.080  10.505
47819W        W17700  18.772  21.626  14.826
47820W        W17701   6.688  42.419   3.771
47821W        W17702   1.285   6.320  13.364
47822W        W17703  43.442  28.183  14.938
47823W        W17704  18.718  31.457   1.855
47824W        W17705   3.761   8.670   1.898
47825W        W17706  31.405   4.769   0.406
47826W        W17707  38.064  29.642   4.317
47827W        W17708  30.443   8.682   0.828
47828W        W17709  43.953  31.906  11.419
47829W        W17710  20.610  37.416   1.826
47830W        W17711   1.284   5.692   0.350
47831W        W17712  43.783  26.050   3.363
47832W        W17713  38.857  26.006  11.008
47833W        W17714   8.337  26.985  14.987
47834W        W17715   5.227   3.329  13.808
47835W        W17716   8.184  25.993  14.296
47836W        W17717  25.174  33.622  12.848
47837W        W17718  41.894  12.352  12.363
47838W        W17719  19.570  40.371  10.979
47839W        W17720  18.078  21.738   2.414
47840W        W17721  40.432  21.066  12.467
47841W        W17722   1.817  42.386   2.187
47842W        W17723  14.634   3.329   2.855
47843W        W17724  32.598   6.811  12.020
47844W        W17725  24.213  41.351  14.002
47845W        W17726  41.440  33.566  12.459
47846W        W17727   0.318  26.975  12.539
47847W        W17728  41.973  11.828  14.293
47848W        W17729  28.637   0.957  12.375
47849W        W17730  26.486   1.389  13.480
47850W        W17731  36.976   3.292  12.477
47851W        W17732  10.775  40.447   2.179
47852W        W17733  27.104  21.573  13.453
47853W        W17734  21.552  27.471   2.897
47854W        W17735  39.969   1.266   4.322
47855W        W17736  10.154  32.483  13.940
47856W        W17737  34.105  14.691   4.261
47857W        W17738   0.776  37.543  11.421
47858W        W17739  21.042   0.291  12.393
47859W        W17740  43.854   1.841  14.839
47860W        W17741  21.229  17.104   1.916
47861W        W17742  20.175  33.104  10.927
47862W        W17743  17.272  36.581  12.923
47863W        W17744  18.102  28.612  13.903
47864W        W17745  40.910  44.273   0.947
47865W        W17746  19.581  14.257  11.434
47866W        W17747  43.788  36.960   0.267
47867W        W17748  15.205  39.989   3.800
47868W        W17749  25.549  25.668  15.000
47869W        W17750  28.664  21.589  12.917
47870W        W17751  13.669  34.995   3.796
47871W        W17752  28.477   4.387   3.737
47872W        W17753   2.326  36.525  14.466
47873W        W17754  40.539  41.833  14.402
47874W        W17755  20.569  43.848   5.603
47875W        W17756   3.425  13.734   4.797
47876W        W17757  39.005  19.058  10.433
47877W        W17758   2.804   3.743  12.027
47878W        W17759   4.810  38.833   3.372
47879W        W17760  23.665  23.235  14.389
47880W        W17761  44.395  34.459  10.510
47881W        W17762  22.096   3.903  12.391
47882W        W17763  33.473  40.007   3.830
47883W        W17764  11.821  36.909   1.814
47884W        W17765   6.906  37.490   5.140
47885W        W17766   3.854  38.517   2.663
47886W        W17767  38.049  36.403  13.893
47887W        W17768  32.886  13.332   4.311
47888W        W17769  35.479   9.800  11.910
47889W        W17770   3.303  25.703   0.464
47890W        W17771  29.435  44.420   4.668
47891W        W17772  23.221  16.215  10.478
47892W        W17773   0.934   8.668   0.264
47893W        W17774   7.261  42.404   1.926
47894W        W17775  39.920  35.360   2.764
47895W        W17776   2.441  33.537   5.198
47896W        W17777  12.123   6.403   3.633
47897W        W17778  22.046  30.125   1.337
47898W        W17779  43.856   1.379  10.423
47899W        W17780  33.390  22.741   4.606
47900W        W17781   8.292   4.932  13.990
47901W        W17782  36.398  25.030   0.377
47902W        W17783  13.228  22.009  10.620
47903W        W17784  28.079   6.223  13.513
47904W        W17785  23.188  27.542   4.142
47905W        W17786  27.952  22.514   3.181
47906W        W17787  12.667   7.844   1.350
47907W        W17788  12.673  17.661   1.848
47908W        W17789  37.041  30.562  13.394
47909W        W17790  15.600   6.894  11.899
47910W        W17791  35.100  12.771   1.874
47911W        W17792  20.670  10.679  10.911
47912W        W17793  38.361  34.556  12.964
47913W        W17794   4.830  31.615   4.604
47914W        W17795  17.670  23.611   1.394
47915W        W17796   4.359  24.168   2.194
47916W        W17797  24.570  38.444   0.416
47917W        W17798  28.076  16.274   1.800
47918W        W17799  24.124  42.804   1.732
47919W        W17800   9.365  36.373   2.281
47920W        W17801  19.700  11.309  14.497
47921W        W17802  27.558   4.729  13.346
47922W        W17803  11.732  24.511  10.102
47923W        W17804  34.938   6.256   1.764
47924W        W17805  18.582  43.981  10.975
47925W        W17806   6.290  19.594   4.740
47926W        W17807  36.509   9.850  12.069
47927W        W17808  20.681  11.263  11.967
47928W        W17809  41.947  42.391  13.859
47929W        W17810  25.643  33.110   4.311
47930W        W17811  35.853   3.917  13.436
47931W        W17812  29.119  31.551   3.827
47932W        W17813  41.821  36.429  14.389
47933W        W17814  27.176  18.648   3.748
47934W        W17815  40.010  38.515  12.907
47935W        W17816  31.990  40.526   3.785
47936W        W17817  36.511  19.186  12.502
47937W        W17818  29.499  13.637   3.738
47938W        W17819   7.323  21.679  14.797
47939W        W17820  36.850   0.902   2.308
47940W        W17821   0.904   1.360  10.133
47941W        W17822  13.183  44.455  13.999
47942W        W17823   5.439  26.049   2.779
47943W        W17824  32.464   6.789   2.419
47944W        W17825   0.401  19.656   1.916
47945W        W17826  41.997  33.477  10.643
47946W        W17827  41.464  16.175  14.410
47947W        W17828  10.242  20.104   2.884
47948W        W17829  11.693  17.728   0.251
47949W        W17830   3.330   5.720   0.466
47950W        W17831  24.197  32.889  11.910
47951W        W17832   5.361  44.489   0.881
47952W        W17833  38.025  18.754   0.798
47953W        W17834  34.877  12.180   0.842
47954W        W17835  44.316  13.132   2.302
47955W        W17836  14.797  32.580  10.587
47956W        W17837  28.051  16.734  12.864
47957W        W17838   4.211  29.430   4.663
47958W        W17839  11.180  29.125   4.321
47959W        W17840  42.866  39.443   0.909
47960W        W17841  43.501  33.607  13.835
47961W        W17842  15.719  39.556   3.636
47962W        W17843  26.553   3.837   2.349
47963W        W17844  32.072  13.114  14.341
47964W        W17845  38.835  41.018   1.751
47965W        W17846  14.134  23.078  13.542
47966W        W17847  31.943  31.903   0.370
47967W        W17848  27.519  44.843   1.243
47968W        W17849  18.622  44.759   4.634
47969W        W17850  36.065   5.408   0.373
47970W        W17851  44.843  19.275  10.564
47971W        W17852   7.283  44.462   3.649
47972W        W17853  44.961   4.939   0.304
47973W        W17854   5.249  42.512   3.165
47974W        W17855   1.463  44.943   1.243
47975W        W17856  28.173  12.640  14.424
47976W        W17857   1.478  32.972   4.796
47977W        W17858  16.576   8.364   0.404
47978W        W17859  19.065  31.044   0.417
47979W        W17860  31.916  19.544   1.234
47980W        W17861   5.705  35.534  14.880
47981W        W17862  29.429   4.383   2.373
47982W        W17863  12.711  21.106  12.830
47983W        W17864   4.706   8.896   2.250
47984W        W17865  34.386  14.153   3.737
47985W        W17866  12.735  12.624  14.495
47986W        W17867  38.397  17.106   2.259
47987W        W17868  36.877  34.038   4.695
47988W        W17869  28.943  27.957  10.973
47989W        W17870  34.423  23.562   2.220
47990W        W17871  27.012  24.075  10.430
47991W        W17872  22.995  23.606  12.399
47992W        W17873   1.902  15.646  11.117
47993W        W17874  25.569  16.192  13.792
47994W        W17875   6.786   4.716  14.295
47995W        W17876  39.413  18.170  14.481
47996W        W17877  20.710   4.911  10.086
47997W        W17878  41.479  39.982   0.940
47998W        W17879  30.115  42.918  11.909
47999W        W17880   2.801  22.689  13.419
48000W        W17881  18.239  15.715   2.792
48001W        W17882  32.129  22.619   2.316
48002W        W17883  40.504  24.076  12.531
48003W        W17884   2.904  42.460  13.381
48004W        W17885   2.904   4.225  11.105
48005W        W17886  28.070  41.790  11.048
48006W        W17887   9.705   4.856   1.864
48007W        W17888  32.944  24.144  11.023
48008W        W17889  32.496  17.706  13.390
48009W        W17890  12.177  37.052   0.466
48010W        W17891   9.282  40.938  14.412
48011W        W17892  31.555   2.907  14.304
48012W        W17893  15.166  26.056   0.392
48013W        W17894  27.149   2.809   2.803
48014W        W17895  20.538  12.317  14.300
48015W        W17896  11.682  33.447  11.525
48016W        W17897  23.576  37.421  12.527
48017W        W17898  17.601  38.004   0.441
48018W        W17899  37.995   4.805  10.944
48019W        W17900   2.937  22.542   2.727
48020W        W17901  37.029  34.600   0.298
48021W        W17902  17.671   1.292  12.925
48022W        W17903  42.810  18.781  13.923
48023W        W17904  21.052   0.946   4.657
48024W        W17905   9.377  17.066   0.882
48025W        W17906   7.855  20.242  12.513
48026W        W17907   3.811  33.422  10.152
48027W        W17908  26.119  27.169   4.281
48028W        W17909  28.627  24.150  12.417
48029W        W17910  26.167  30.503  13.990
48030W        W17911  37.932  23.720  10.551
48031W        W17912  41.484  26.110  13.324
48032W        W17913  31.973  37.345  14.800
48033W        W17914  21.528  35.039  10.501
48034W        W17915  11.254   3.265  12.882
48035W        W17916  18.066  25.583   4.137
48036W        W17917  18.621  35.064  12.385
48037W        W17918  37.497  16.254   0.963
48038W        W17919   8.217  21.625   3.729
48039W        W17920  21.542  17.788   3.855
48040W        W17921  10.682   8.173   2.872
48041W        W17922  15.263  24.035   0.798
48042W        W17923  23.145  42.291  10.562
48043W        W17924  35.988  30.611   1.439
48044W        W17925  12.241  21.609   0.954
48045W        W17926  21.051  17.642  12.019
48046W        W17927  44.339  24.985   1.930
48047W        W17928  34.530  15.602   1.265
48048W        W17929  39.488  11.179   4.323
48049W        W17930  14.606  34.384   4.262
48050W        W17931   9.732   3.390   3.748
48051W        W17932   6.860  13.119   2.867
48052W        W17933  22.175  10.217   1.393
48053W        W17934  38.336  11.758   0.882
48054W        W17935  41.397   8.207   0.776
48055W        W17936  22.695  42.808   2.303
48056W        W17937  27.065  34.531  12.933
48057W        W17938  26.146  34.036  12.411
48058W        W17939  22.511  44.823   0.287
48059W        W17940   1.451  32.992  12.070
48060W        W17941  14.740  26.474   3.688
48061W        W17942   7.746  32.942  13.547
48062W        W17943  22.088  25.655   4.249
48063W        W17944  40.432  44.815  12.449
48064W        W17945  17.637  22.138   1.364
48065W        W17946  29.082  29.604  12.027
48066W        W17947  39.958  26.084   3.832
48067W        W17948  11.792   6.757   0.851
48068W        W17949  30.155  31.590   2.730
48069W        W17950  38.057  30.460  14.008
48070W        W17951  14.103  17.200   0.321
48071W        W17952  38.400  20.756  11.928
48072W        W17953  27.568  35.893  12.846
48073W        W17954  14.257   2.353  10.549
48074W        W17955  14.221   9.358   2.318
48075W        W17956   8.729  43.471  13.037
48076W        W17957  26.496   3.266  10.558
48077W        W17958  28.644  42.857  11.116
48078W        W17959  16.231   8.787  14.403
48079W        W17960   1.419  34.101   1.811
48080W        W17961  35.040  11.339  12.529
48081W        W17962  32.106  43.945   4.718
48082W        W17963  35.854  18.654  13.336
48083W        W17964  13.128  18.296   3.753
48084W        W17965  19.607  17.220  13.829
48085W        W17966   2.895  19.778   2.271
48086W        W17967  19.745  23.009  10.610
48087W        W17968  32.067  10.819  12.077
48088W        W17969  44.982  43.366   2.879
48089W        W17970  23.643  25.059  11.486
48090W        W17971  13.638  23.014  10.948
48091W        W17972  16.153   5.835  13.824
48092W        W17973  37.013  10.676  10.950
48093W        W17974  24.646   7.756  10.604
48094W        W17975  22.539   2.442  12.855
48095W        W17976   3.905  35.518   1.772
48096W        W17977   0.935  41.472  12.827
48097W        W17978  12.768  20.722   1.781
48098W        W17979   2.337  18.660   3.218
48099W        W17980  38.522  30.060  13.311
48100W        W17981  13.172  22.636  10.894
48101W        W17982  28.514   2.913  10.921
48102W        W17983  22.222  29.516   1.412
48103W        W17984  30.440   9.670   3.814
48104W        W17985  10.241  11.686  14.289
48105W        W17986  24.597  39.025  10.999
48106W        W17987  34.984   0.885   3.243
48107W        W17988  33.009   2.339   1.350
48108W        W17989   1.911  41.009   2.753
48109W        W17990  25.197  40.325   3.188
48110W        W17991  23.515   6.843   2.208
48111W        W17992  33.447   4.310   1.276
48112W        W17993  41.981   4.911  11.404
48113W        W17994  38.957  26.015   0.284
48114W        W17995   3.260  39.055   2.726
48115W        W17996  26.641  34.513   2.393
48116W        W17997  44.496  12.266   1.408
48117W        W17998  20.193  20.244  14.456
48118W        W17999  17.168  37.363  14.430
48119W        W18000  44.444  25.026   4.740
48120W        W18001  25.655   8.193  14.897
48121W        W18002  39.524  11.752  14.813
48122W        W18003   2.311  15.155   2.703
48123W        W18004  42.835  32.905  14.772
48124W        W18005   5.889  30.120  12.349
48125W        W18006   6.753  17.579   2.760
48126W        W18007  39.456   5.745   4.346
48127W        W18008   2.410  26.682   9.923
48128W        W18009   7.787  14.114   3.255
48129W        W18010  14.156  36.898   1.334
48130W        W18011  21.089   3.840   1.314
48131W        W18012  32.050  24.492  11.580
48132W        W18013  44.261  36.028   2.181
48133W        W18014   8.863  19.563   0.401
48134W        W18015  12.243  34.379  14.853
48135W        W18016   9.224   5.326   2.230
48136W        W18017  24.673   7.330   2.696
48137W        W18018  36.031   5.386  13.955
48138W        W18019  34.001   9.678  11.569
48139W        W18020  14.118  42.341  14.502
48140W        W18021   1.451   3.727   3.749
48141W        W18022  38.340  39.989   4.699
48142W        W18023  39.883  27.606  13.868
48143W        W18024  12.201  13.672  10.462
48144W        W18025  26.603  32.559  11.893
48145W        W18026   7.900  26.465  11.110
48146W        W18027  32.058   0.288  14.907
48147W        W18028   4.780   6.723  14.377
48148W        W18029  21.040  26.097  10.590
48149W        W18030  38.354  16.218  13.035
48150W        W18031  12.316  13.191   2.333
48151W        W18032   0.767   1.895  11.858
48152W        W18033  39.035  20.224  13.825
48153W        W18034   7.686   5.838  14.960
48154W        W18035  38.951  27.049   4.741
48155W        W18036  23.661  35.522   1.893
48156W        W18037  27.168   8.219  11.063
48157W        W18038   2.722  43.969  13.334
48158W        W18039  15.654  33.515   4.327
48159W        W18040  19.577   4.927   3.855
48160W        W18041  44.296  27.161  13.834
48161W        W18042  28.960  39.842   0.316
48162W        W18043   3.743  16.712  11.945
48163W        W18044  37.431   0.373  11.372
48164W        W18045  34.588   3.790   3.167
48165W        W18046  44.456   7.213  13.504
48166W        W18047   1.247  34.073   4.152
48167W        W18048   5.308  19.533  14.929
48168W        W18049   3.459  22.177  11.582
48169W        W18050  20.264   9.698   2.842
48170W        W18051  41.358  12.308  13.934
48171W        W18052  41.944  12.332  11.081
48172W        W18053  41.307  10.221   2.225
48173W        W18054   8.239  14.612  13.866
48174W        W18055  42.000  18.616  11.955
48175W        W18056   1.253  27.962   4.698
48176W        W18057  32.474  36.016  14.856
48177W        W18058  31.035  16.226   1.917
48178W        W18059  36.018  21.047   3.247
48179W        W18060  17.077  37.357   0.425
48180W        W18061   5.254  40.870  11.075
48181W        W18062  27.675  27.047  13.467
48182W        W18063  20.623  26.063   1.280
48183W        W18064  36.457  25.582   2.219
48184W        W18065   2.308  38.940   1.384
48185W        W18066  28.494  15.610  13.367
48186W        W18067  32.411   7.334   3.376
48187W        W18068  18.771  16.677   2.301
48188W        W18069  15.708  16.249  13.508
48189W        W18070  14.726  11.143   1.837
48190W        W18071  38.049  22.231   3.208
48191W        W18072  15.778  44.843   2.668
48192W        W18073  40.823  19.741  10.464
48193W        W18074  14.330  43.896   4.290
48194W        W18075  37.427   5.788   1.723
48195W        W18076  38.459   1.328   0.831
48196W        W18077   3.341  28.945   3.326
48197W        W18078  23.227  16.220  14.854
48198W        W18079  44.880  17.088   3.154
48199W        W18080  26.040  23.650   2.265
48200W        W18081  14.798  18.120   3.375
48201W        W18082  11.286  34.079  12.369
48202W        W18083  11.364  36.040   4.232
48203W        W18084  13.311   0.884   4.699
48204W        W18085  18.663  14.196   1.728
48205W        W18086   0.757  38.561  12.928
48206W        W18087  33.428   9.819   0.966
48207W        W18088  30.127  18.556   1.718
48208W        W18089  24.722  33.517   3.257
48209W        W18090  10.206  25.085   1.441
48210W        W18091  32.137  24.550   1.824
48211W        W18092  18.592  24.013   1.216
48212W        W18093  43.990  11.777   1.289
48213W        W18094  31.974  10.762   4.722
48214W        W18095  17.194  25.099  14.941
48215W        W18096  24.038  22.076  11.112
48216W        W18097  27.142  38.468  11.471
48217W        W18098   8.224  13.774  10.629
48218W        W18099   7.350  28.986  14.837
48219W        W18100  28.035   2.243   2.742
48220W        W18101  14.290  16.205   2.285
48221W        W18102  37.842  43.918  11.593
48222W        W18103  35.440   2.296  10.457
48223W        W18104  17.772  32.922  14.965
48224W        W18105  19.076  43.418  13.817
48225W        W18106   1.924   3.379  10.410
48226W        W18107  37.931  33.120  11.876
48227W        W18108  19.541   8.817   3.806
48228W        W18109  20.138  18.189  13.839
48229W        W18110  10.786  29.440   3.275
48230W        W18111  43.313  17.299   2.873
48231W        W18112  12.720  24.020   3.163
48232W        W18113  35.866  39.440   4.783
48233W        W18114  40.363  22.636  14.911
48234W        W18115   1.318  30.546   1.220
48235W        W18116   0.463   9.269  12.399
48236W        W18117  19.537  33.963   4.332
48237W        W18118  15.160  29.518   3.766
48238W        W18119   8.783   5.722  10.531
48239W        W18120  29.521  11.658  11.440
48240W        W18121  28.507  25.214   4.168
48241W        W18122   1.748  35.381  12.536
48242W        W18123  42.440   1.851  12.418
48243W        W18124  43.323  38.028  11.051
48244W        W18125   2.949  18.655  12.400
48245W        W18126  18.741  39.040  10.011
48246W        W18127  26.593   7.676  11.878
48247W        W18128  11.668  38.890  10.153
48248W        W18129  41.317  26.118   1.902
48249W        W18130  26.041  38.899   4.125
48250W        W18131  43.913   1.439   3.849
48251W        W18132  14.276  37.436  12.904
48252W        W18133   7.338  35.540  14.001
48253W        W18134   3.916  33.961  11.127
48254W        W18135  21.597  11.210   0.883
48255W        W18136  15.139  28.447   0.837
48256W        W18137  32.990  19.652   2.300
48257W        W18138  31.024   9.823  11.994
48258W        W18139  10.257  17.643   5.084
48259W        W18140  39.324  36.014  11.903
48260W        W18141  43.358  31.072  12.979
48261W        W18142  22.070  16.687   1.281
48262W        W18143  13.672  32.021  11.407
48263W        W18144   1.260  39.028   1.383
48264W        W18145   7.176   2.271   2.698
48265W        W18146  44.868  31.593  15.000
48266W        W18147  36.522   5.906  12.340
48267W        W18148   4.427  39.854   1.385
48268W        W18149   6.316  15.702  11.529
48269W        W18150  20.531   4.720  14.438
48270W        W18151  22.248  42.284   4.254
48271W        W18152  29.525  35.925  13.816
48272W        W18153  30.514  29.504   3.328
48273W        W18154  41.883  12.757   2.674
48274W        W18155  19.545   1.850   1.826
48275W        W18156  12.284  15.697  10.973
48276W        W18157  43.949  28.059  14.288
48277W        W18158   6.920   6.806   2.382
48278W        W18159  16.732  42.012  10.450
48279W        W18160  23.636  32.018  10.945
48280W        W18161   2.952  43.927  11.056
48281W        W18162   1.806   2.285  11.002
48282W        W18163  37.467  23.060  12.422
48283W        W18164  19.568   1.901  12.452
48284W        W18165  20.656   3.391   0.795
48285W        W18166   1.876  11.772   1.769
48286W        W18167  30.050  21.743   2.315
48287W        W18168  33.054  32.106   0.876
48288W        W18169  29.503  14.254  10.974
48289W        W18170  44.326  15.166  14.512
48290W        W18171  35.920  12.227  11.962
48291W        W18172  25.167  19.620  12.385
48292W        W18173  38.930  30.912   5.153
48293W        W18174  24.665   3.945   3.373
48294W        W18175  14.119  25.027   1.296
48295W        W18176  38.445  43.280  13.887
48296W        W18177  40.873  12.332   0.351
48297W        W18178  40.490  14.178  11.875
48298W        W18179  14.136   9.745   2.847
48299W        W18180  41.481  40.887  12.892
48300W        W18181  32.443   3.266  13.835
48301W        W18182  36.844   5.827  12.351
48302W        W18183  11.219  24.575  11.408
48303W        W18184  16.130  16.808  13.973
48304W        W18185  35.083  14.208  13.409
48305W        W18186  21.039   2.761   4.188
48306W        W18187  39.017   0.370  11.004
48307W        W18188  43.020  16.634  13.523
48308W        W18189  44.491  40.439   1.897
48309W        W18190  28.643  24.498  10.602
48310W        W18191  29.112  19.063   2.186
48311W        W18192   5.890  39.970   2.847
48312W        W18193  28.583  27.149   1.329
48313W        W18194  20.545  38.419  11.537
48314W        W18195   7.352   3.219  11.018
48315W        W18196  21.217  11.758   2.797
48316W        W18197  16.759  35.525  13.911
48317W        W18198  40.034  29.009  12.947
48318W        W18199   0.849  30.544  14.872
48319W        W18200   6.277  34.926   1.234
48320W        W18201  16.229   7.811  11.599
48321W        W18202  24.178  21.538   3.149
48322W        W18203  12.270  14.603  11.082
48323W        W18204  30.961  44.000  13.361
48324W        W18205  30.537  34.025   1.798
48325W        W18206   0.829  19.605  10.618
48326W        W18207  27.138  29.114   3.156
48327W        W18208  26.990  13.152  14.762
48328W        W18209  34.371  34.017  13.027
48329W        W18210   7.793  35.083   1.753
48330W        W18211  17.751  26.500   3.853
48331W        W18212   9.666   4.701   2.263
48332W        W18213   8.213  28.003   3.677
48333W        W18214  29.026  19.668   2.391
48334W        W18215  14.707  42.834   2.197
48335W        W18216   4.888  28.079  11.400
48336W        W18217  40.980  42.903   1.728
48337W        W18218   4.296  12.828   4.186
48338W        W18219  38.822  35.104  12.392
48339W        W18220  20.141  15.676  11.610
48340W        W18221  14.214  26.594   2.326
48341W        W18222  20.163  43.883   2.310
48342W        W18223  34.558  16.170   1.823
48343W        W18224  19.157   2.933  14.031
48344W        W18225  20.154   4.774  11.072
48345W        W18226   6.762  16.665   0.350
48346W        W18227   4.851  33.071  10.504
48347W        W18228   8.816  14.604   4.164
48348W        W18229  15.720   6.367   2.722
48349W        W18230   0.255   1.793   3.735
48350W        W18231  11.149  39.404  10.413
48351W        W18232   4.388  30.509  12.874
48352W        W18233  43.389   0.837   2.699
48353W        W18234   2.859  15.268   2.735
48354W        W18235   9.835   4.821   1.320
48355W        W18236  21.758  44.448  10.963
48356W        W18237  12.219   3.836  14.282
48357W        W18238   5.879  43.439   0.330
48358W        W18239  42.856  15.631   3.358
48359W        W18240  31.034  19.611  11.916
48360W        W18241  13.735  41.371   2.901
48361W        W18242  35.537  37.912  14.389
48362W        W18243  31.617   8.343   1.793
48363W        W18244   3.445   9.377   1.893
48364W        W18245  38.387  23.225  11.487
48365W        W18246  27.152  13.145   4.149
48366W        W18247  22.693   2.886  11.906
48367W        W18248  29.445  25.982   0.413
48368W        W18249  35.511  32.932  14.329
48369W        W18250  10.861  23.518  12.862
48370W        W18251   4.919   6.228   3.769
48371W        W18252   7.695  14.780   0.779
48372W        W18253   5.796  33.612   4.763
48373W        W18254  14.120  37.529   2.790
48374W        W18255  12.744   5.259  12.945
48375W        W18256  41.011  18.062  12.823
48376W        W18257  13.835   2.456  11.950
48377W        W18258  12.692  21.248  12.395
48378W        W18259  11.818  42.996   2.200
48379W        W18260   3.343  43.867   0.447
48380W        W18261  24.068   3.881  11.935
48381W        W18262  13.700  40.009   2.376
48382W        W18263  27.982  20.763   0.440
48383W        W18264  26.144   1.846   1.778
48384W        W18265  31.492  11.217  11.518
48385W        W18266   1.403   4.718   1.314
48386W        W18267  16.577  18.230  14.966
48387W        W18268  15.616   0.464  13.923
48388W        W18269  41.294  31.031  10.543
48389W        W18270  32.954   5.391   0.448
48390W        W18271  33.522  35.077  14.332
48391W        W18272  40.895  37.042  12.547
48392W        W18273  43.876   5.328  14.954
48393W        W18274  21.547  28.957   0.353
48394W        W18275  37.353  15.598   3.701
48395W        W18276  23.668   2.930   0.773
48396W        W18277   7.201  38.055   0.414
48397W        W18278  44.455  40.832  13.372
48398W        W18279  41.294  40.968   3.763
48399W        W18280  37.417  29.030   2.854
48400W        W18281  36.434   5.844  13.478
48401W        W18282  30.589   1.383   4.168
48402W        W18283  43.834  19.089   1.700
48403W        W18284  28.677  39.815  12.483
48404W        W18285  27.063  29.081   1.322
48405W        W18286   8.659  27.518  12.348
48406W        W18287  28.122   2.436   4.625
48407W        W18288   1.273   3.912  14.500
48408W        W18289  26.594  15.177  12.826
48409W        W18290   7.704  11.348   3.281
48410W        W18291   6.395  33.502   4.243
48411W        W18292   1.452  24.215   4.675
48412W        W18293  29.637  12.314   4.798
48413W        W18294  44.809   8.660   3.192
48414W        W18295  37.845  39.944   0.444
48415W        W18296  21.246  43.460   0.287
48416W        W18297  24.074  16.616  12.009
48417W        W18298  31.537  34.956  10.636
48418W        W18299  34.000  25.173   0.757
48419W        W18300  29.629  24.990   3.770
48420W        W18301  25.477  34.603   2.803
48421W        W18302  15.611  33.067  10.888
48422W        W18303  29.957  12.261  11.068
48423W        W18304  40.390   6.718   3.654
48424W        W18305   5.899   7.870   4.141
48425W        W18306  32.097  37.574  10.613
48426W        W18307  19.201  34.015  10.952
48427W        W18308  32.401  20.054   3.715
48428W        W18309  12.812  19.710   4.813
48429W        W18310  43.918  10.236   3.718
48430W        W18311  20.040   1.299  10.152
48431W        W18312  42.482   7.297   3.864
48432W        W18313  12.617  21.642   0.435
48433W        W18314  25.976   7.693  11.036
48434W        W18315   1.317  37.910  10.989
48435W        W18316  39.003  24.159  11.030
48436W        W18317  12.141  30.970   1.211
48437W        W18318   7.377  12.265  13.969
48438W        W18319  19.176  26.635  13.340
48439W        W18320  13.300  25.614  10.483
48440W        W18321  29.497  15.812   1.788
48441W        W18322   4.280   4.870   2.829
48442W        W18323  17.146  33.404   9.995
48443W        W18324  28.141  42.495   0.288
48444W        W18325   8.778  26.628  14.970
48445W        W18326  39.825   3.404   3.368
48446W        W18327   4.807  27.625   1.290
48447W        W18328  37.995  35.389   3.643
48448W        W18329   8.301  17.062   2.277
48449W        W18330   8.398  22.089   0.333
48450W        W18331  30.553   2.917  13.516
48451W        W18332   7.833  10.802   4.238
48452W        W18333  40.936  21.614   3.318
48453W        W18334   5.896   5.849  12.897
48454W        W18335  14.620  24.550  12.512
48455W        W18336  12.824   8.882  14.302
48456W        W18337  36.001  23.613  14.505
48457W        W18338  30.590   5.719  10.553
48458W        W18339  22.156  28.481   3.771
48459W        W18340  44.427  36.465   2.324
48460W        W18341  23.033  18.548  11.009
48461W        W18342  30.617  25.489  13.431
48462W        W18343  15.120  13.349  14.438
48463W        W18344  12.648  35.958   1.288
48464W        W18345  39.476  30.967   4.837
48465W        W18346  15.632  22.523   5.187
48466W        W18347  13.612  14.249  11.980
48467W        W18348  39.041  44.444   5.181
48468W        W18349  15.263   7.396  13.501
48469W        W18350  38.365  32.101   3.187
48470W        W18351  19.196  42.331  14.875
48471W        W18352  22.219   1.328  11.572
48472W        W18353   9.386  19.627  11.523
48473W        W18354  32.434   7.235   5.227
48474W        W18355  11.765  41.840   3.198
48475W        W18356  36.057  38.934   0.467
48476W        W18357  18.251  43.461   4.132
48477W        W18358  12.734  12.724   1.250
48478W        W18359  38.994   4.391  11.085
48479W        W18360   0.349  17.257   1.890
48480W        W18361  24.685  32.967   4.779
48481W        W18362  44.941  14.821   0.961
48482W        W18363   4.845  32.042   1.283
48483W        W18364   5.269   9.289   3.217
48484W        W18365  11.821   5.414   2.839
48485W        W18366  24.564   9.648  11.088
48486W        W18367  27.483  31.403  12.388
48487W        W18368  19.763  25.514   1.701
48488W        W18369   5.400  15.326   0.726
48489W        W18370  41.384   9.369  10.621
48490W        W18371   1.749  17.278  13.308
48491W        W18372  20.105  28.984  10.154
48492W        W18373  43.908  27.457  13.337
48493W        W18374  41.524  27.109   3.365
48494W        W18375  17.175  32.012  10.103
48495W        W18376   0.380   9.699  14.829
48496W        W18377  16.774  19.111  13.940
48497W        W18378  42.829   2.471  12.468
48498W        W18379  17.740  13.136   4.312
48499W        W18380   4.798   7.195   3.829
48500W        W18381  11.701  29.608   2.339
48501W        W18382  35.549  42.381  14.315
48502W        W18383  20.632  20.111   0.345
48503W        W18384  33.980  21.607  13.447
48504W        W18385  43.902   2.934  10.478
48505W        W18386  29.461   9.660  14.860
48506W        W18387  15.730   2.771   1.763
48507W        W18388  17.783  25.132   3.240
48508W        W18389  29.160  43.313   4.652
48509W        W18390  16.650  25.131   3.820
48510W        W18391   5.862  39.331  11.922
48511W        W18392   5.746  12.768  14.943
48512W        W18393   8.854  42.935   1.823
48513W        W18394  38.056  22.196   4.615
48514W        W18395  39.477   6.903  13.989
48515W        W18396   2.883   2.467   1.914
48516W        W18397  17.566  30.051  12.382
48517W        W18398  29.618  25.058   1.712
48518W        W18399  22.508  21.192  14.015
48519W        W18400  12.726   5.885  12.381
48520W        W18401   3.873  42.489   4.139
48521W        W18402  39.880  40.964  13.309
48522W        W18403  25.556  41.972   3.860
48523W        W18404  34.999  11.333  10.509
48524W        W18405  34.501   6.787  10.415
48525W        W18406  34.990   2.272  11.086
48526W        W18407  39.900  15.589  11.383
48527W        W18408  32.609   2.267   0.749
48528W        W18409  44.272  26.095   3.146
48529W        W18410  14.226  36.431  12.947
48530W        W18411   2.919  39.395   0.405
48531W        W18412   1.350  34.881   4.170
48532W        W18413   9.855  39.338  11.087
48533W        W18414  21.590  21.613  11.611
48534W        W18415  34.441  16.315   0.794
48535W        W18416  10.642  39.045  14.814
48536W        W18417  36.069  37.007  12.497
48537W        W18418  41.345   6.196   4.336
48538W        W18419  33.057  20.110  14.809
48539W        W18420  13.237   4.866   4.757
48540W        W18421  11.327  35.025   2.889
48541W        W18422  38.849  12.285   2.808
48542W        W18423  28.161  35.546  13.501
48543W        W18424  24.124  20.123  11.463
48544W        W18425  43.378  11.692   1.374
48545W        W18426   6.308  27.556  10.525
48546W        W18427  31.011  24.577  11.011
48547W        W18428   9.328  11.359  12.914
48548W        W18429  14.817  29.048   4.692
48549W        W18430  36.994  24.620  13.370
48550W        W18431   4.319   6.279   4.261
48551W        W18432  29.961   8.218   3.147
48552W        W18433  20.761  33.929  12.904
48553W        W18434  40.914  18.673  14.994
48554W        W18435  38.076  32.498   3.176
48555W        W18436  12.177  25.506   0.776
48556W        W18437  23.130   6.698   4.599
48557W        W18438  16.179  37.073  11.553
48558W        W18439  28.002  34.955  14.772
48559W        W18440   5.230  38.054  13.535
48560W        W18441  43.273   0.874   4.190
48561W        W18442   9.846  26.003   3.181
48562W        W18443   9.742  10.248   4.730
48563W        W18444  34.568   5.266  11.407
48564W        W18445  28.937  43.899   2.318
48565W        W18446  35.451  30.455  11.556
48566W        W18447  12.119  24.520  14.383
48567W        W18448  34.966  34.907  12.980
48568W        W18449  18.180  24.228   4.161
48569W        W18450  36.857  11.315  11.901
48570W        W18451  18.293  35.011   4.644
48571W        W18452   4.402   3.235   2.320
48572W        W18453  24.687  38.835   3.674
48573W        W18454  36.015  19.174  11.480
48574W        W18455  11.772  21.130  13.024
48575W        W18456  16.185  38.338  12.015
48576W        W18457  41.442  43.806   2.387
48577W        W18458  14.714   0.339  14.897
48578W        W18459  20.106  23.633  12.406
48579W        W18460   7.270  26.595   1.360
48580W        W18461   4.715  31.943  12.397
48581W        W18462  24.124  15.199   1.822
48582W        W18463   8.321  37.958  13.494
48583W        W18464   5.697  36.860   3.211
48584W        W18465  34.405  41.470  10.898
48585W        W18466   8.315   4.409   2.843
48586W        W18467  35.922  19.064  11.001
48587W        W18468  41.337   6.711   0.748
48588W        W18469   7.349  24.211  13.441
48589W        W18470  20.575  43.505   4.260
48590W        W18471   3.449  25.034  14.863
48591W        W18472  28.991  44.388   2.840
48592W        W18473  33.118   6.827  11.025
48593W        W18474  24.193   2.821   4.784
48594W        W18475  23.198  14.816   0.367
48595W        W18476  29.573  30.518   0.946
48596W        W18477  35.561  12.852   4.802
48597W        W18478  25.478  20.263   0.480
48598W        W18479  10.248   5.746   2.397
48599W        W18480  28.533  38.398   1.897
48600W        W18481  36.069  17.604   0.846
48601W        W18482  30.449  37.960  11.908
48602W        W18483  13.827  10.772   1.370
48603W        W18484  19.046  14.195  12.563
48604W        W18485  38.026  25.153  10.053
48605W        W18486  41.972  25.097   3.632
48606W        W18487   7.317  22.511   3.334
48607W        W18488  24.007   3.947   4.720
48608W        W18489  27.665  27.002  11.436
48609W        W18490  38.341   1.752  14.932
48610W        W18491   9.722  22.568   1.804
48611W        W18492  24.515  28.579   3.348
48612W        W18493   1.312  29.571  12.070
48613W        W18494  34.863   5.848  10.124
48614W        W18495   7.707  36.371   3.150
48615W        W18496  30.978  11.766   0.929
48616W        W18497   5.859   7.291   3.295
48617W        W18498   8.664  20.620   0.749
48618W        W18499  22.127  19.675  12.093
48619W        W18500  28.991  11.635   1.296
48620W        W18501  39.365  23.575  11.544
48621W        W18502  12.208   4.706  11.475
48622W        W18503  35.365   9.217  14.905
48623W        W18504  28.442  34.005  13.982
48624W        W18505   1.438  10.753   4.757
48625W        W18506  13.676  28.174   3.220
48626W        W18507  20.692  17.647  14.984
48627W        W18508  12.132  30.051  10.472
48628W        W18509  17.222  30.949   2.330
48629W        W18510  42.358   1.818  11.380
48630W        W18511  39.973   7.351  12.518
48631W        W18512   5.765   4.747  11.438
48632W        W18513  40.836  38.440  14.441
48633W        W18514  19.066   7.894  14.943
48634W        W18515  36.534  24.991  12.445
48635W        W18516  20.703  43.842   9.664
48636W        W18517  31.952  14.709  14.308
48637W        W18518  18.220  23.129  11.872
48638W        W18519  22.609  43.499   1.823
48639W        W18520  24.223  15.731   2.687
48640W        W18521  21.568  33.444  13.013
48641W        W18522  12.752  29.605  12.361
48642W        W18523  17.265  43.454  10.002
48643W        W18524  37.986  15.264  10.913
48644W        W18525  32.926  17.261  14.909
48645W        W18526  16.734  27.632  12.404
48646W        W18527  38.984  11.229   1.386
48647W        W18528   1.750  11.232  13.410
48648W        W18529  31.920   5.222  13.905
48649W        W18530  36.904  41.398   0.416
48650W        W18531  28.448  31.072   4.717
48651W        W18532   1.842   8.263   4.649
48652W        W18533  10.842  35.455   3.717
48653W        W18534   8.696  25.161   4.239
48654W        W18535  14.665  21.176   4.339
48655W        W18536  34.532   1.381  13.369
48656W        W18537   6.681   4.736   4.822
48657W        W18538  20.067  13.615  13.410
48658W        W18539  15.117  24.530  14.315
48659W        W18540   2.845  35.866  14.448
48660W        W18541  25.174  35.437  10.458
48661W        W18542   0.788   6.781  12.499
48662W        W18543  39.900  20.242   2.882
48663W        W18544  18.567   3.399   0.886
48664W        W18545  36.357  11.806  13.450
48665W        W18546   7.712  36.529  14.405
48666W        W18547  20.162  37.922  12.840
48667W        W18548  42.304   3.371  13.515
48668W        W18549  41.815  21.191   2.377
48669W        W18550  20.548  37.477   2.415
48670W        W18551   8.233   9.235   2.389
48671W        W18552  29.159   6.688  11.517
48672W        W18553  22.636  32.914  12.528
48673W        W18554  25.559  37.970  13.981
48674W        W18555   3.945   5.307   4.353
48675W        W18556  23.690  29.027   4.192
48676W        W18557  36.932  11.306  13.427
48677W        W18558  29.996  43.326  13.041
48678W        W18559  39.008   9.733   3.832
48679W        W18560   6.790  39.342   0.787
48680W        W18561  24.701  27.187  11.549
48681W        W18562  25.574  27.148   2.780
48682W        W18563  17.616   3.403  10.074
48683W        W18564  31.425  16.713  10.135
48684W        W18565   7.722   7.354  14.805
48685W        W18566  36.988  28.593   0.261
48686W        W18567   8.758  27.572  13.402
48687W        W18568  36.349  25.494  11.858
48688W        W18569  31.109  39.424   0.388
48689W        W18570  28.938  40.987   4.305
48690W        W18571  15.582   8.887  10.921
48691W        W18572  36.996  32.969  13.044
48692W        W18573  21.643   5.786  14.828
48693W        W18574  36.519  37.414  11.984
48694W        W18575  35.933  14.266  11.937
48695W        W18576  36.078   8.387   1.722
48696W        W18577  32.068  11.286   3.156
48697W        W18578  27.966  43.408  13.871
48698W        W18579  17.653   7.389   2.902
48699W        W18580  22.699  20.166   2.892
48700W        W18581  17.148  24.683  13.917
48701W        W18582  23.646  13.726   0.726
48702W        W18583  28.014  32.632   1.722
48703W        W18584   1.777  36.490   3.224
48704W        W18585  15.105   7.373  12.976
48705W        W18586  20.258   0.744  10.138
48706W        W18587  24.162  34.970   3.367
48707W        W18588  40.891   1.761   4.134
48708W        W18589   5.883  24.215   1.858
48709W        W18590  43.865  38.981   0.870
48710W        W18591   8.186  40.936  10.525
48711W        W18592  43.960  12.656   0.742
48712W        W18593  36.096   8.710   2.211
48713W        W18594  42.392  18.063  14.983
48714W        W18595  39.411  28.983  13.424
48715W        W18596   4.935  12.718   1.733
48716W        W18597  42.857  37.953  13.010
48717W        W18598  18.646  28.005   9.950
48718W        W18599  19.078  25.185   2.859
48719W        W18600   9.384   2.869   1.362
48720W        W18601  38.033  30.094  14.937
48721W        W18602  12.714  43.277   0.398
48722W        W18603  42.502  37.880  14.774
48723W        W18604  23.100  28.001   0.312
48724W        W18605  11.287  23.174  12.365
48725W        W18606   3.393  37.049   1.893
48726W        W18607  22.741  27.486  13.013
48727W        W18608  12.244  43.317   2.258
48728W        W18609  26.096  32.064   4.800
48729W        W18610  24.052  29.144   9.946
48730W        W18611   3.825  37.002   4.775
48731W        W18612  22.669  25.051   0.869
48732W        W18613  34.410   8.319   3.699
48733W        W18614   5.898  14.806   1.325
48734W        W18615  20.720  16.244  12.854
48735W        W18616  29.013  13.327  13.486
48736W        W18617  41.986  25.016   0.434
48737W        W18618  17.621  27.506  14.886
48738W        W18619   4.793  21.655   2.746
48739W        W18620  26.008   4.887  12.375
48740W        W18621  41.998  36.885   3.282
48741W        W18622   3.868  29.426  12.565
48742W        W18623  27.040   8.208   3.691
48743W        W18624  44.349  12.821  13.848
48744W        W18625  10.697  36.890   2.752
48745W        W18626  26.080  13.617  12.904
48746W        W18627  39.876  42.829   3.371
48747W        W18628  26.116  44.260  12.345
48748W        W18629  43.270   7.181   1.253
48749W        W18630   7.852  27.677  13.919
48750W        W18631   3.263  42.812   0.886
48751W        W18632  15.791  10.734   0.250
48752W        W18633  17.709  22.073   0.392
48753W        W18634   4.382  11.700  13.965
48754W        W18635  23.179   9.324  10.507
48755W        W18636  40.526  16.200   2.811
48756W        W18637  34.554  40.445  11.580
48757W        W18638  19.736  38.435  14.857
48758W        W18639   3.437  26.575  13.040
48759W        W18640  18.787  16.192  10.934
48760W        W18641  16.661  38.504   0.348
48761W        W18642  16.813  16.652   3.240
48762W        W18643  12.164  13.712   3.223
48763W        W18644   6.342  13.302  14.901
48764W        W18645  23.233  34.509   4.771
48765W        W18646  25.135  16.239   4.210
48766W        W18647   7.829  20.571  13.850
48767W        W18648  25.179  20.152   2.237
48768W        W18649  12.214  37.906  12.360
48769W        W18650  26.062   6.763  13.021
48770W        W18651  26.174  34.427   2.663
48771W        W18652  15.691  41.311  12.932
48772W        W18653  36.925  29.613   2.332
48773W        W18654  26.170   4.840  13.062
48774W        W18655   2.265   7.231  14.886
48775W        W18656  35.933  11.249  11.378
48776W        W18657  37.055  14.589   0.436
48777W        W18658  42.364  10.853   2.742
48778W        W18659  10.682  41.388  12.472
48779W        W18660   7.672  24.530   1.931
48780W        W18661  38.063   0.776  10.112
48781W        W18662  17.141  20.703  12.409
48782W        W18663  23.237  10.850   4.321
48783W        W18664  27.983   1.734   1.217
48784W        W18665  18.122  14.194  12.514
48785W        W18666   6.842  19.267   1.240
48786W        W18667  24.039  17.577  10.530
48787W        W18668  30.934  35.993  13.935
48788W        W18669  23.054  24.096  10.617
48789W        W18670  39.525  26.985   1.834
48790W        W18671   5.806   0.949  12.953
48791W        W18672  42.818   9.224   1.849
48792W        W18673  38.364  36.954   3.386
48793W        W18674  13.716  11.628  14.433
48794W        W18675  23.625  29.609   4.820
48795W        W18676  14.213   6.337   5.091
48796W        W18677  34.570  23.127  10.586
48797W        W18678  27.452  28.618   0.753
48798W        W18679  31.596   0.947  11.049
48799W        W18680  37.436  28.112  13.062
48800W        W18681  13.811   0.895   1.212
48801W        W18682  17.733   6.874   0.886
48802W        W18683  35.604  14.806  12.029
48803W        W18684   3.396  15.599   5.236
48804W        W18685   7.719   4.231   4.626
48805W        W18686  12.116  21.107   1.811
48806W        W18687  26.480  43.427   5.096
48807W        W18688  28.013  18.614   2.816
48808W        W18689  13.177  33.907  10.615
48809W        W18690   0.986  31.622  11.442
48810W        W18691  37.441  24.020   0.768
48811W        W18692  15.758   7.779   3.747
48812W        W18693  12.277  40.438  13.362
48813W        W18694  37.983  11.753  11.925
48814W        W18695  14.632  43.296  13.490
48815W        W18696  37.560  19.659  10.556
48816W        W18697  35.424   7.293  13.544
48817W        W18698  35.362  16.739  14.493
48818W        W18699   9.218  38.515  11.385
48819W        W18700  31.614   2.437   1.720
48820W        W18701   7.191  38.851   3.661
48821W        W18702  23.536   8.220  12.019
48822W        W18703  17.175  35.902   3.362
48823W        W18704  36.869  24.072   4.606
48824W        W18705  29.001  30.452   0.382
48825W        W18706  28.662  16.590   4.750
48826W        W18707  27.471  24.654   2.668
48827W        W18708  27.128  43.835  11.080
48828W        W18709  43.394  40.347  12.035
48829W        W18710  21.663  36.955   0.427
48830W        W18711  28.443  42.815   2.784
48831W        W18712  10.634   8.826  14.302
48832W        W18713   1.300  44.777  14.805
48833W        W18714  32.977  37.051   3.778
48834W        W18715   1.350   2.883   0.386
48835W        W18716  24.161  21.019  11.056
48836W        W18717   7.746  28.158  10.036
48837W        W18718  23.152   2.394   3.347
48838W        W18719   3.454  16.276  12.350
48839W        W18720  18.773   5.800   3.709
48840W        W18721  23.010  37.898   1.857
48841W        W18722  36.478  24.155  14.504
48842W        W18723  16.237  35.595  11.105
48843W        W18724  30.002  31.404   1.210
48844W        W18725   2.846  12.338  13.010
48845W        W18726   6.340  33.384   2.229
48846W        W18727  32.419  38.031   2.270
48847W        W18728  18.212  19.139   4.351
48848W        W18729  39.514  21.085  13.036
48849W        W18730  13.641  42.368  11.996
48850W        W18731  40.414  20.757  13.521
48851W        W18732  10.341  21.242  10.135
48852W        W18733  24.507  42.013  14.323
48853W        W18734   2.838   6.898  11.109
48854W        W18735  29.956  39.921  13.527
48855W        W18736  23.493  11.808  13.851
48856W        W18737  44.891  10.144   3.318
48857W        W18738   3.853  35.563   3.769
48858W        W18739  38.338  32.097  11.442
48859W        W18740  17.566  31.611  11.427
48860W        W18741   6.917  26.015  12.915
48861W        W18742  37.888  21.231   2.229
48862W        W18743   1.398  29.531   1.880
48863W        W18744  42.830   0.450   3.713
48864W        W18745  12.329  41.877   4.332
48865W        W18746  26.976  33.936   0.424
48866W        W18747  26.605  14.191   2.883
48867W        W18748  17.266  32.140   4.244
48868W        W18749  36.487  32.073   5.225
48869W        W18750  13.114  34.879   0.469
48870W        W18751  25.625  20.601  14.317
48871W        W18752  15.326  24.083  14.410
48872W        W18753   7.323  36.938   4.229
48873W        W18754   1.736  26.117  13.008
48874W        W18755  36.906  43.428  12.917
48875W        W18756  35.504  36.996  11.998
48876W        W18757   1.376  36.042   3.661
48877W        W18758  32.980  43.381   1.927
48878W        W18759   8.858  36.375   2.347
48879W        W18760   1.907   0.288   1.824
48880W        W18761  18.691  27.638   1.830
48881W        W18762   0.406  24.025  14.473
48882W        W18763   9.875  26.126  14.854
48883W        W18764  18.057  33.392  12.832
48884W        W18765  10.183  21.617   1.290
48885W        W18766  11.812  21.609  13.521
48886W        W18767  11.273  43.831   0.775
48887W        W18768  36.974   0.377  13.315
48888W        W18769   7.225  35.039  13.400
48889W        W18770  19.705  29.097   3.320
48890W        W18771  34.535   2.919  12.407
48891W        W18772  24.977  37.845   4.138
48892W        W18773   4.271  41.478  13.918
48893W        W18774  37.456  39.002   2.806
48894W        W18775  27.127  40.982   1.772
48895W        W18776   0.951  28.073   3.301
48896W        W18777   7.406  17.238  14.343
48897W        W18778  29.610  13.242  13.521
48898W        W18779   1.863  34.116   1.737
48899W        W18780  41.983   6.841  13.457
48900W        W18781  38.443  29.125   2.875
48901W        W18782  22.544  40.001   9.936
48902W        W18783  38.968  36.571   4.313
48903W        W18784  11.200  37.025   4.275
48904W        W18785  16.115  34.094   2.874
48905W        W18786  30.046  10.669  10.526
48906W        W18787   4.868   3.253   5.221
48907W        W18788   4.431  27.555   0.288
48908W        W18789  39.865   3.217  14.291
48909W        W18790  11.201  14.280   2.349
48910W        W18791  36.908  12.651   2.228
48911W        W18792  40.965   1.816   3.211
48912W        W18793  12.131  34.424   0.887
48913W        W18794  25.104   3.722  14.293
48914W        W18795  35.588  35.014  10.530
48915W        W18796   5.717  44.458   2.178
48916W        W18797  14.600   0.270   1.732
48917W        W18798   9.825  30.955  11.013
48918W        W18799  21.174   6.258   4.177
48919W        W18800  44.373  30.494   1.344
48920W        W18801  38.893   2.269   0.245
48921W        W18802  28.562  37.495   0.422
48922W        W18803   4.756  28.173   4.254
48923W        W18804  30.931  14.601  10.546
48924W        W18805  20.076  31.453  11.945
48925W        W18806  36.570  23.622  12.030
48926W        W18807   3.884  39.957  11.987
48927W        W18808  28.074   7.264   0.755
48928W        W18809  20.092   3.736   0.792
48929W        W18810  24.975  12.745  14.456
48930W        W18811   9.238  11.685   4.773
48931W        W18812  43.342  15.671   0.243
48932W        W18813   9.334  31.145   0.958
48933W        W18814  35.109  23.030  13.932
48934W        W18815  18.754  19.620  10.577
48935W        W18816  25.111  29.526  12.414
48936W        W18817  17.720  38.853   0.884
48937W        W18818   7.405  40.315   4.290
48938W        W18819  21.167  37.435   2.265
48939W        W18820  43.020  36.528  13.322
48940W        W18821  37.061  43.955  11.920
48941W        W18822   7.246   6.206  13.441
48942W        W18823  28.129   2.470   3.271
48943W        W18824  23.533  15.752  11.027
48944W        W18825  16.660  13.205  13.004
48945W        W18826  32.596  22.110  12.055
48946W        W18827  30.119  35.410  10.641
48947W        W18828  35.920  28.967   1.287
48948W        W18829  44.363  21.156  11.930
48949W        W18830  12.285  41.461  13.443
48950W        W18831   2.353  22.685  14.772
48951W        W18832  41.951  25.633   4.224
48952W        W18833  43.827   0.329  12.540
48953W        W18834   0.400   9.877  12.408
48954W        W18835  31.516   2.433   2.279
48955W        W18836  15.649  33.943  13.794
48956W        W18837  21.258  14.262   4.758
48957W        W18838  36.441  21.642   2.184
48958W        W18839  10.794   9.291   4.183
48959W        W18840  22.068  37.014  13.809
48960W        W18841  19.255   2.829  12.353
48961W        W18842  11.864  12.852   0.308
48962W        W18843  23.207  32.532   1.725
48963W        W18844  19.620  31.076  12.414
48964W        W18845   9.275   8.335   1.224
48965W        W18846   7.739  25.983   4.677
48966W        W18847  19.766  20.246  11.379
48967W        W18848  38.964  22.166   1.932
48968W        W18849   7.297  27.101   4.142
48969W        W18850  16.625  11.131  14.758
48970W        W18851  43.945  33.070  14.983
48971W        W18852  37.365  17.294  13.338
48972W        W18853   2.322   0.774   2.756
48973W        W18854  25.010  38.025   2.852
48974W        W18855  22.170   1.422   1.833
48975W        W18856  22.115  35.896  12.044
48976W        W18857  28.141   7.851   1.742
48977W        W18858  25.473   4.938  14.002
48978W        W18859  15.604  19.099  11.578
48979W        W18860  40.896  16.766   4.675
48980W        W18861  37.518  23.240  14.818
48981W        W18862  27.150  39.316   4.209
48982W        W18863  13.670  27.134   4.736
48983W        W18864  26.187  40.001   3.646
48984W        W18865  43.453  29.428   1.425
48985W        W18866  40.822  35.596  10.525
48986W        W18867   0.382   7.381   0.444
48987W        W18868  37.479   1.452  14.786
48988W        W18869   7.737   6.351  13.864
48989W        W18870  14.256   0.319  14.920
48990W        W18871  13.260  35.517   1.737
48991W        W18872  41.022   4.346  12.531
48992W        W18873  30.554  13.609  12.860
48993W        W18874  30.604  14.235  13.520
48994W        W18875  37.404   8.235  10.514
48995W        W18876  44.817  42.469   2.183
48996W        W18877  12.339  18.590  10.079
48997W        W18878  33.550  16.212   9.958
48998W        W18879  19.610  16.781  11.881
48999W        W18880  23.991  40.366   0.902
49000W        W18881   9.682  12.711   4.802
49001W        W18882  18.559  38.072  12.435
49002W        W18883  38.326  28.082   4.202
49003W        W18884  32.514  33.012  14.312
49004W        W18885  11.183   4.434  12.556
49005W        W18886  29.938   8.167   5.168
49006W        W18887  20.587   9.753   1.829
49007W        W18888  15.602   2.722   2.241
49008W        W18889  42.288   5.891  10.627
49009W        W18890  27.612   9.233  12.536
49010W        W18891  44.791  36.465  12.411
49011W        W18892  39.539  17.278   3.215
49012W        W18893  36.387   1.284   3.803
49013W        W18894   3.823  18.636   4.805
49014W        W18895  44.313  35.856   3.283
49015W        W18896  18.153  19.049   2.398
49016W        W18897   3.875   1.866  11.016
49017W        W18898  40.055  29.130   0.741
49018W        W18899  42.999  40.499  14.857
49019W        W18900  15.317  44.930   2.747
49020W        W18901  27.610  20.166  14.418
49021W        W18902  33.411   0.977   0.750
49022W        W18903   4.895   6.313  12.940
49023W        W18904  43.462  10.263  14.996
49024W        W18905  22.538  27.106   0.854
49025W        W18906   7.252  39.862  13.869
49026W        W18907   8.162  19.618  13.970
49027W        W18908  10.852  11.621  14.430
49028W        W18909  31.952  36.559  12.410
49029W        W18910  17.294  23.161  10.443
49030W        W18911  34.555  25.679  13.009
49031W        W18912   4.714  18.770   1.275
49032W        W18913   1.914  19.075   3.736
49033W        W18914  36.000  30.044   1.260
49034W        W18915   8.760  21.190  12.365
49035W        W18916  40.870  39.328   0.920
49036W        W18917  37.417  25.649  12.006
49037W        W18918  12.209  19.087   1.369
49038W        W18919  16.167  19.228   1.346
49039W        W18920  10.370  26.963   4.717
49040W        W18921  19.536  42.473   3.779
49041W        W18922  41.496  13.781  12.908
49042W        W18923  18.144  14.318   2.355
49043W        W18924  13.737  36.862   9.642
49044W        W18925  27.036  10.662   4.652
49045W        W18926  31.627  18.289   5.117
49046W        W18927  20.044  40.835  10.928
49047W        W18928   5.298  13.257   2.244
49048W        W18929  20.631  44.984   3.701
49049W        W18930  33.448  15.597  14.468
49050W        W18931  17.629  28.036  12.854
49051W        W18932  11.266  14.263   1.694
49052W        W18933  23.105   9.881   1.340
49053W        W18934  30.023   2.247   0.923
49054W        W18935   7.798  25.624  13.876
49055W        W18936   2.294  43.464  11.455
49056W        W18937   0.407  23.163   4.182
49057W        W18938  43.271  16.609  14.437
49058W        W18939  21.705  11.649  11.991
49059W        W18940  12.167  20.565  12.474
49060W        W18941  25.091  10.718   0.302
49061W        W18942  30.556  27.465  10.995
49062W        W18943  19.068  32.592   0.847
49063W        W18944  20.693  16.719  14.896
49064W        W18945  42.440   8.752  10.546
49065W        W18946  42.286  41.391  13.813
49066W        W18947  21.097  18.111  10.998
49067W        W18948  22.077  10.755  14.000
49068W        W18949  40.047  38.826  11.904
49069W        W18950  17.713  26.993  14.949
49070W        W18951  17.606  20.258   2.825
49071W        W18952   3.934  22.532  11.031
49072W        W18953  42.398  17.777  12.486
49073W        W18954  43.956  31.450   3.371
49074W        W18955  38.426  19.087  14.002
49075W        W18956  39.375  17.123   1.330
49076W        W18957  16.210  16.811   2.866
49077W        W18958  20.587  41.924   0.760
49078W        W18959   8.838  16.084   0.834
49079W        W18960   8.889  38.437  10.949
49080W        W18961  42.928  22.725   2.758
49081W        W18962  34.982  38.490   0.730
49082W        W18963  33.951   3.712  11.432
49083W        W18964   8.807   1.856   1.905
49084W        W18965   7.890  24.593  11.992
49085W        W18966  16.118   7.770   4.716
49086W        W18967   2.806  16.730   1.295
49087W        W18968  27.080  30.141   1.296
49088W        W18969  21.064   4.369   0.797
49089W        W18970   5.813  41.860  12.895
49090W        W18971  22.113  36.919  12.532
49091W        W18972  24.043  11.705  11.415
49092W        W18973  33.982   3.877  13.360
49093W        W18974   5.771  11.666   4.243
49094W        W18975  18.568  21.584  12.464
49095W        W18976  15.246  42.469   3.191
49096W        W18977  42.329  26.591  11.037
49097W        W18978  28.618   0.894  11.380
49098W        W18979  10.245  14.239  14.919
49099W        W18980   0.426  12.778   4.339
49100W        W18981   1.799  15.714   0.930
49101W        W18982  37.053  34.374  10.566
49102W        W18983  38.334  31.029   2.230
49103W        W18984  12.174  32.084   2.301
49104W        W18985  35.370   5.738   2.332
49105W        W18986  26.990   1.816  12.572
49106W        W18987  32.593  21.669  12.823
49107W        W18988  15.117   8.681  11.908
49108W        W18989  26.055  29.090   1.428
49109W        W18990  40.436  42.811  10.615
49110W        W18991  36.541  41.409  11.046
49111W        W18992  39.416  34.885   1.730
49112W        W18993  21.251   5.891  12.512
49113W        W18994  11.318   1.884   1.902
49114W        W18995  12.843   9.761  14.405
49115W        W18996  30.523  41.477  13.986
49116W        W18997  29.496   2.758  14.485
49117W        W18998   0.414   8.396   4.258
49118W        W18999  40.448  25.174   4.721
49119W        W19000  17.288  19.608  11.400
49120W        W19001  13.249  25.026  11.996
49121W        W19002  14.760  30.916   1.354
49122W        W19003  30.137  30.117  12.015
49123W        W19004   8.783  30.122   2.262
49124W        W19005  37.897  27.643   0.823
49125W        W19006  13.772  30.461   0.841
49126W        W19007   2.736  13.644  13.026
49127W        W19008  13.792   9.152   4.801
49128W        W19009  42.937  14.294   5.233
49129W        W19010  21.632  15.324   4.690
49130W        W19011  23.561   2.309  11.952
49131W        W19012  36.460   1.822  12.054
49132W        W19013   7.782  38.329   4.303
49133W        W19014  18.146   1.823   1.425
49134W        W19015  42.900   7.242   4.267
49135W        W19016  22.562  13.830   3.368
49136W        W19017  28.958  22.536  10.479
49137W        W19018  16.192  13.344   1.212
49138W        W19019  16.685  38.380  11.579
49139W        W19020  38.943  38.471  11.096
49140W        W19021   6.230  37.856  12.386
49141W        W19022  33.471  27.506  14.839
49142W        W19023  35.544  44.837  14.413
49143W        W19024  12.189   9.786   2.396
49144W        W19025  27.649  11.171   3.792
49145W        W19026  31.470  13.348   3.314
49146W        W19027  34.567  38.409  11.028
49147W        W19028  21.077   4.852  12.086
49148W        W19029  20.762  36.494  11.001
49149W        W19030  29.651  10.266  11.447
49150W        W19031  42.288  11.198  12.506
49151W        W19032   6.708  24.123  13.969
49152W        W19033  34.454  16.259   3.767
49153W        W19034  23.670  25.023  12.009
49154W        W19035  14.764  20.713  11.419
49155W        W19036  17.272  17.142   3.332
49156W        W19037  26.003   0.937   1.816
49157W        W19038  26.080  17.774   3.163
49158W        W19039  43.291   2.808  12.876
49159W        W19040   2.759  40.505  11.523
49160W        W19041   0.942  10.669  13.837
49161W        W19042  18.791  21.613  12.875
49162W        W19043  36.564  35.971  12.484
49163W        W19044  20.565  33.122  14.958
49164W        W19045  39.902  15.758   9.961
49165W        W19046  23.656   8.376  13.842
49166W        W19047  40.424  44.912   4.257
49167W        W19048  41.415  35.480   2.787
49168W        W19049  23.558  31.986  12.064
49169W        W19050  20.718  33.077   0.249
49170W        W19051  10.328  28.094   4.820
49171W        W19052   8.181   5.323  10.926
49172W        W19053   9.858  15.130   4.292
49173W        W19054   5.283  37.490  14.799
49174W        W19055  38.038  14.118  12.853
49175W        W19056  31.924  30.519  12.383
49176W        W19057  23.550   6.414  11.612
49177W        W19058  24.561  15.237  11.973
49178W        W19059   8.228  40.458   2.251
49179W        W19060  27.525   3.267   4.766
49180W        W19061  18.154  38.024  12.488
49181W        W19062  33.437  37.988  12.522
49182W        W19063  17.082  39.342  12.837
49183W        W19064  44.830  34.999  13.850
49184W        W19065  13.326  38.956  14.845
49185W        W19066  36.862   7.757  10.445
49186W        W19067  19.122  16.692  12.987
49187W        W19068  42.784  29.594  11.863
49188W        W19069   1.246   1.253   4.740
49189W        W19070  33.474  21.137  13.344
49190W        W19071   6.363   8.871   2.349
49191W        W19072  10.633  19.047  14.989
49192W        W19073  42.943  35.955  11.889
49193W        W19074  40.043  36.387   2.315
49194W        W19075  43.992  17.266  11.030
49195W        W19076  14.595   1.811  11.870
49196W        W19077  14.188  24.000   1.441
49197W        W19078  44.300  34.488   4.234
49198W        W19079  42.968  25.077   2.345
49199W        W19080  34.537  10.210  11.388
49200W        W19081  22.049  34.459   4.316
49201W        W19082  14.605  43.867   0.910
49202W        W19083   3.410  25.126   3.677
49203W        W19084  24.575  42.995  14.944
49204W        W19085  41.010  28.623  11.441
49205W        W19086  29.934   4.329   1.803
49206W        W19087   6.358  20.543  14.445
49207W        W19088  34.901  16.098  13.363
49208W        W19089  15.658   0.326  10.035
49209W        W19090  20.080  33.623  13.994
49210W        W19091  30.529   8.179  14.413
49211W        W19092  44.482  44.491   0.253
49212W        W19093  15.262  34.943   0.881
49213W        W19094  21.026   6.862  14.324
49214W        W19095  21.221  36.868   2.816
49215W        W19096  26.683  30.651  13.869
49216W        W19097  15.099   7.701   0.395
49217W        W19098  40.940   6.880   3.838
49218W        W19099  22.116  22.068  12.548
49219W        W19100   5.301   3.764   0.751
49220W        W19101  32.988  10.151   2.786
49221W        W19102  16.097   1.244   1.799
49222W        W19103  17.584  31.150   4.684
49223W        W19104  12.269  26.177   2.750
49224W        W19105   3.755  20.755  12.375
49225W        W19106  32.451  36.395   2.692
49226W        W19107  21.605  38.409  11.401
49227W        W19108  12.158   5.820   2.301
49228W        W19109  27.538   0.896  11.604
49229W        W19110  15.296   0.446   1.368
49230W        W19111  36.931  27.536   1.858
49231W        W19112  21.532  22.619  13.353
49232W        W19113  44.447  11.330   1.842
49233W        W19114  15.270   2.813  11.516
49234W        W19115  11.749   1.325  12.851
49235W        W19116  25.179  13.292   0.941
49236W        W19117  16.690  33.388   1.387
49237W        W19118  42.931  12.345   2.213
49238W        W19119  24.052  17.584   0.728
49239W        W19120  37.926   9.187   3.696
49240W        W19121   1.445  27.009  13.394
49241W        W19122  43.815  35.442   3.250
49242W        W19123  14.257  39.930   2.728
49243W        W19124  14.668  38.495   1.846
49244W        W19125  39.979   2.423   0.323
49245W        W19126  32.441  13.786   0.941
49246W        W19127  41.354  28.011   1.812
49247W        W19128  13.184  21.684   1.934
49248W        W19129   4.246  19.584  12.424
49249W        W19130  36.079  42.286   2.300
49250W        W19131  40.044  38.003  10.611
49251W        W19132  35.008  41.926  13.432
49252W        W19133  23.225  22.211  13.797
49253W        W19134  18.235  10.663   3.796
49254W        W19135  44.370  17.771  12.349
49255W        W19136  19.074  21.099   3.314
49256W        W19137  25.105  41.989  14.297
49257W        W19138   8.392   4.337   0.390
49258W        W19139  24.018   4.812  14.277
49259W        W19140  26.998  20.181   2.266
49260W        W19141  12.235  21.657   2.371
49261W        W19142  23.227  30.621   3.167
49262W        W19143  18.065  16.610   2.180
49263W        W19144  39.441  24.106   3.753
49264W        W19145  13.291   4.869   2.686
49265W        W19146  42.011  37.481  11.422
49266W        W19147  26.472  17.201   3.714
49267W        W19148   0.958   3.446   1.853
49268W        W19149  13.677   5.320  11.089
49269W        W19150  12.798  32.079   4.187
49270W        W19151  17.591  35.393  11.520
49271W        W19152  41.527  19.535  14.021
49272W        W19153  18.278  25.977  10.926
49273W        W19154   4.264  28.536  12.347
49274W        W19155  34.098   1.969   3.290
49275W        W19156   2.749  10.231  11.946
49276W        W19157  17.177  43.922   3.786
49277W        W19158  22.621  25.091   3.300
49278W        W19159  14.619   0.892  12.417
49279W        W19160   9.716  36.460   4.628
49280W        W19161  18.731  21.050   4.661
49281W        W19162  33.003  43.502   3.833
49282W        W19163  30.458  23.037   0.252
49283W        W19164  21.221   1.927   1.913
49284W        W19165  28.072  15.188   1.344
49285W        W19166  33.495  42.975  10.444
49286W        W19167  24.033  28.186   0.760
49287W        W19168   8.240  37.446  14.765
49288W        W19169  29.151  32.086  12.361
49289W        W19170  10.749  38.954   9.996
49290W        W19171  13.226  29.103   0.455
49291W        W19172  40.533  40.866  11.897
49292W        W19173  16.631  39.443   2.685
49293W        W19174  13.137  24.482  12.036
49294W        W19175  31.588  39.034  10.637
49295W        W19176   0.459  42.419   4.181
49296W        W19177  44.490  44.330  10.513
49297W        W19178  24.528  13.787   2.303
49298W        W19179  26.466  38.461   1.727
49299W        W19180  35.049   0.390  13.493
49300W        W19181   8.315  34.397   1.747
49301W        W19182   0.983  13.626   4.600
49302W        W19183   9.323  19.745   2.669
49303W        W19184  25.071  19.737   3.696
49304W        W19185  26.076  30.615   3.791
49305W        W19186  14.102  10.172  12.436
49306W        W19187  15.252  37.348  10.593
49307W        W19188  20.098   4.219  13.901
49308W        W19189  21.254  29.619   5.185
49309W        W19190  12.347   8.326   3.669
49310W        W19191  16.194  35.426   3.811
49311W        W19192   3.727   1.465  10.418
49312W        W19193  24.618  26.138   0.476
49313W        W19194  33.547  20.171   0.856
49314W        W19195  44.799  35.373   1.749
49315W        W19196   2.763  23.099   3.335
49316W        W19197  14.744   0.431   0.867
49317W        W19198  17.216  21.751   3.209
49318W        W19199   8.398  23.085  12.997
49319W        W19200   8.751   3.385  13.459
49320W        W19201   8.267   7.762  14.351
49321W        W19202  21.153  24.710  13.491
49322W        W19203  11.298  44.482  14.996
49323W        W19204   1.888   2.318   4.699
49324W        W19205   9.821  31.482   1.910
49325W        W19206  36.094  44.381  12.344
49326W        W19207  17.126  24.104   2.777
49327W        W19208  14.601  21.580   4.799
49328W        W19209  43.772  43.407  14.292
49329W        W19210  27.948  25.012   0.931
49330W        W19211  28.657   9.167  11.922
49331W        W19212  16.182  31.117   2.673
49332W        W19213  40.325  30.912  10.461
49333W        W19214  10.771  36.507   0.260
49334W        W19215  29.572   3.780  13.814
49335W        W19216  37.007  15.580   0.424
49336W        W19217  42.426  28.120   1.809
49337W        W19218  38.507  16.570   4.629
49338W        W19219  20.111  24.015  13.992
49339W        W19220  42.427  39.546   2.417
49340W        W19221  33.100   0.308   2.791
49341W        W19222  40.981  19.618   1.379
49342W        W19223  28.943  42.902   2.673
49343W        W19224   3.745   5.335   3.750
49344W        W19225  12.282  37.570  10.448
49345W        W19226  43.304  29.063  12.826
49346W        W19227  43.788  11.271   2.320
49347W        W19228  41.964  38.562   4.699
49348W        W19229  31.619  36.417  12.554
49349W        W19230  18.726  12.705   0.873
49350W        W19231  40.429  37.957   2.871
49351W        W19232  19.230   1.976   3.214
49352W        W19233   0.913   5.871   4.228
49353W        W19234   5.307  20.701   2.231
49354W        W19235  27.634   8.734   0.415
49355W        W19236  34.070  43.366   4.828
49356W        W19237  44.263   2.764   1.805
49357W        W19238  25.166   8.398   1.900
49358W        W19239  19.748  17.226  10.589
49359W        W19240   9.781  15.275   2.833
49360W        W19241  22.589  25.147   1.310
49361W        W19242  29.014  33.468  14.885
49362W        W19243   4.411   6.816  13.324
49363W        W19244  39.484   9.333   2.182
49364W        W19245  27.189   1.262   4.796
49365W        W19246  44.812  23.226   4.636
49366W        W19247  23.613  19.161   4.309
49367W        W19248  11.353   9.726  14.444
49368W        W19249  15.654  19.108   2.253
49369W        W19250  31.442  14.148  13.391
49370W        W19251  28.179  25.969   2.668
49371W        W19252  24.991   9.391   2.209
49372W        W19253  14.111  16.686  12.389
49373W        W19254  11.263  28.467  11.083
49374W        W19255  16.308  27.183   2.270
49375W        W19256   9.314  16.127  11.401
49376W        W19257   5.891  15.210   4.121
49377W        W19258  43.917  26.979   2.413
49378W        W19259  22.028  30.565  10.609
49379W        W19260   6.326  20.729   3.708
49380W        W19261  20.589  19.729  14.796
49381W        W19262  30.164  14.288  13.948
49382W        W19263  24.578  16.073   1.901
49383W        W19264   8.313  33.533  12.075
49384W        W19265  28.662   4.299   2.798
49385W        W19266  25.648  31.116  11.002
49386W        W19267   2.934  38.401   2.224
49387W        W19268  15.132   3.922   1.905
49388W        W19269  22.249  38.335  12.959
49389W        W19270  18.269  41.908   4.820
49390W        W19271   2.266  26.605   0.268
49391W        W19272  25.203   7.182  10.587
49392W        W19273  37.017  22.222   4.748
49393W        W19274  12.118  11.192   0.347
49394W        W19275  42.465  12.762  12.350
49395W        W19276   5.287  30.096  13.817
49396W        W19277   3.392   3.821  12.067
49397W        W19278  40.857  14.335  11.578
49398W        W19279   8.737   5.199  12.019
49399W        W19280  30.925  31.986  12.834
49400W        W19281  22.157  25.636  11.446
49401W        W19282  15.303  15.200  12.885
49402W        W19283  24.157  30.057  12.552
49403W        W19284  18.173  35.466  14.298
49404W        W19285   8.401  16.746   4.115
49405W        W19286   1.404  25.645   2.187
49406W        W19287  28.513  13.660   4.672
49407W        W19288   8.698  28.590  13.312
49408W        W19289  44.792  17.775  14.789
49409W        W19290  31.152  12.761   4.627
49410W        W19291  11.838  23.993   2.850
49411W        W19292  17.572  22.641  14.384
49412W        W19293  29.082  42.387  14.870
49413W        W19294  42.912  25.061  12.349
49414W        W19295  38.945  22.160  13.838
49415W        W19296  15.216  32.006   2.790
49416W        W19297  21.049   5.797  11.400
49417W        W19298  29.074  22.036   2.385
49418W        W19299  23.725   5.424  14.445
49419W        W19300  15.314  40.499   3.325
49420W        W19301  38.018   7.237  11.952
49421W        W19302  12.351  14.755  13.445
49422W        W19303  17.226   9.777  13.933
49423W        W19304  41.905  23.156   1.253
49424W        W19305   6.820  40.848   4.636
49425W        W19306  14.130   3.878   0.432
49426W        W19307  33.396   2.868  13.406
49427W        W19308  16.125   0.824   1.742
49428W        W19309  39.392  28.025  13.499
49429W        W19310  15.217  20.750  12.034
49430W        W19311  35.055  21.197  12.388
49431W        W19312  38.996   9.359  12.514
49432W        W19313  39.954  29.465   0.460
49433W        W19314   5.335  34.392  11.491
49434W        W19315  42.926   2.291  10.887
49435W        W19316  13.328  21.738   0.776
49436W        W19317  29.016  43.016  13.040
49437W        W19318  39.888  12.693  13.906
49438W        W19319   8.253  12.242  14.798
49439W        W19320  26.606  34.957   2.335
49440W        W19321  27.614   0.875   3.768
49441W        W19322  37.980   0.802  13.419
49442W        W19323  34.059  12.652  10.463
49443W        W19324  16.738  43.314  13.540
49444W        W19325  36.418   7.877   0.383
49445W        W19326   1.974  22.120  14.435
49446W        W19327   1.472  43.785  14.910
49447W        W19328   5.837  25.212  11.925
49448W        W19329   4.216   6.788  10.638
49449W        W19330  30.530  11.310   1.718
49450W        W19331   3.886   6.320  13.810
49451W        W19332  13.818  24.116   2.226
49452W        W19333   2.402  26.626   1.713
49453W        W19334  15.642  42.033  12.981
49454W        W19335   7.872  24.194   3.851
49455W        W19336   3.776  44.774   2.792
49456W        W19337  34.564  22.504  14.504
49457W        W19338  16.108  10.358   4.755
49458W        W19339  25.591  19.571   3.366
49459W        W19340   1.427  11.718  10.600
49460W        W19341   1.471  42.832   3.778
49461W        W19342  42.495   6.384  12.397
49462W        W19343  16.173   7.792   3.755
49463W        W19344   8.198  14.174   0.916
49464W        W19345  35.455  26.976  13.373
49465W        W19346  41.870  24.535  14.514
49466W        W19347  24.706  32.105  11.110
49467W        W19348  33.522  35.031  12.376
49468W        W19349  23.209  20.712  12.357
49469W        W19350   7.330  25.604   0.835
49470W        W19351   3.458  10.266   3.656
49471W        W19352  37.990  16.806   4.278
49472W        W19353  37.528  44.825   4.724
49473W        W19354  21.186  17.229  10.562
49474W        W19355   1.907   2.262   2.254
49475W        W19356  27.126  12.354  11.380
49476W        W19357  34.519  22.544  12.911
49477W        W19358   4.363  29.928  13.443
49478W        W19359  31.107   6.230   3.679
49479W        W19360  32.042   8.381  11.445
49480W        W19361  43.276  14.686   1.242
49481W        W19362  37.923  22.091  14.789
49482W        W19363   8.376  29.068  12.846
49483W        W19364  26.621  15.640  10.471
49484W        W19365  18.141   1.902  13.818
49485W        W19366  30.075  26.955  14.815
49486W        W19367  39.883  31.049  13.797
49487W        W19368  14.834   7.740   0.880
49488W        W19369  23.093  41.799   3.376
49489W        W19370   3.727  23.044  12.577
49490W        W19371  13.223  26.654   0.952
49491W        W19372   8.205  32.944  13.309
49492W        W19373  17.608  24.009   3.825
49493W        W19374  32.931  33.997  14.379
49494W        W19375   3.756  37.577   3.722
49495W        W19376   5.709  33.559   3.692
49496W        W19377  20.668  44.847  11.128
49497W        W19378  33.542   9.745  12.083
49498W        W19379   0.362  40.018   1.769
49499W        W19380   7.325  16.315   3.168
49500W        W19381   7.366   2.350   4.780
49501W        W19382  11.225  19.268   2.366
49502W        W19383  24.049  28.647  12.560
49503W        W19384   9.790  23.711  10.541
49504W        W19385   9.175  10.837   2.796
49505W        W19386  18.648  16.737  13.843
49506W        W19387   4.394  31.132  12.039
49507W        W19388  27.681   4.858  13.028
49508W        W19389  27.653  33.428   3.692
49509W        W19390  25.503  43.934  14.840
49510W        W19391  10.270   3.216   3.206
49511W        W19392  42.900  26.650  11.981
49512W        W19393  22.221  10.240  11.128
49513W        W19394  31.055  27.126   3.193
49514W        W19395  25.174   0.985  12.382
49515W        W19396  38.027  25.665   4.620
49516W        W19397  19.589   0.877  14.790
49517W        W19398  23.228  31.151  13.937
49518W        W19399  41.500   0.824   0.880
49519W        W19400  30.608  10.157   5.191
49520W        W19401   6.685  10.329   1.253
49521W        W19402  18.564  39.496  10.508
49522W        W19403  41.301  37.453   4.656
49523W        W19404  15.280  11.302  12.868
49524W        W19405  41.819  14.684   4.751
49525W        W19406  12.668  18.060   0.912
49526W        W19407   0.840  40.357  14.832
49527W        W19408  11.749  27.030   2.221
49528W        W19409  25.635  39.984   4.753
49529W        W19410  40.305   2.889  13.327
49530W        W19411   9.289  16.616  14.430
49531W        W19412  26.083   0.402   4.659
49532W        W19413  40.459   4.387  13.922
49533W        W19414  34.898  29.437  13.902
49534W        W19415  28.520  28.559   2.291
49535W        W19416  12.337  25.700   2.415
49536W        W19417  37.856  33.404  12.559
49537W        W19418  42.358  44.483  11.467
49538W        W19419  11.746  37.951  14.349
49539W        W19420  31.065  27.977   0.282
49540W        W19421  44.777  37.960   2.246
49541W        W19422  36.490  40.005   9.943
49542W        W19423   4.722  44.842   1.911
49543W        W19424   9.873  18.629   0.456
49544W        W19425  36.027  38.973  12.833
49545W        W19426   6.781  16.093   3.785
49546W        W19427   1.365   9.755  12.526
49547W        W19428  38.468  35.870  12.913
49548W        W19429  14.322   0.975  13.871
49549W        W19430   1.361  39.985  12.567
49550W        W19431  35.961  40.398   3.346
49551W        W19432   9.669  38.859  14.314
49552W        W19433  44.947  37.381  12.497
49553W        W19434  33.599  35.976   0.265
49554W        W19435  42.287  24.718  11.538
49555W        W19436  32.892  40.541  13.477
49556W        W19437  26.113  24.112   0.737
49557W        W19438  22.575  19.631  11.413
49558W        W19439  10.246  30.527   4.783
49559W        W19440  16.082  23.618  12.501
49560W        W19441  35.526  28.579   2.848
49561W        W19442  17.298  22.716  12.856
49562W        W19443   0.926  21.584  13.879
49563W        W19444   3.761  16.275  10.503
49564W        W19445  12.149  26.553   0.246
49565W        W19446   1.315   1.245   1.347
49566W        W19447  25.512   9.776  12.549
49567W        W19448  42.388  31.007  10.616
49568W        W19449   2.879  34.985  13.375
49569W        W19450  26.673  22.596   4.189
49570W        W19451   9.230  41.845  13.999
49571W        W19452  22.016  41.978   4.177
49572W        W19453  43.999  26.698  10.969
49573W        W19454   0.277  30.628   0.256
49574W        W19455  13.164  18.182  10.019
49575W        W19456   5.924  27.454  12.076
49576W        W19457  40.935  28.661  14.906
49577W        W19458   0.878  27.568  10.947
49578W        W19459   4.883  11.756  11.023
49579W        W19460   4.705  32.634   3.699
49580W        W19461  30.503  36.065   3.310
49581W        W19462  34.490   1.342   1.414
49582W        W19463  44.367  19.707   1.302
49583W        W19464   6.254  19.280  13.499
49584W        W19465   3.350   2.905   0.732
49585W        W19466  28.649  41.443  10.902
49586W        W19467  32.396   8.728  11.863
49587W        W19468  35.949  21.636   0.439
49588W        W19469  39.525  32.063   3.759
49589W        W19470   5.871   7.182   1.922
49590W        W19471  39.362  43.400   4.816
49591W        W19472   8.708  30.578   4.793
49592W        W19473  44.416  14.626  14.880
49593W        W19474  26.094  36.522  13.863
49594W        W19475  18.271  32.130   3.182
49595W        W19476  31.617   4.790  14.489
49596W        W19477   9.776  29.169  14.825
49597W        W19478  37.472   6.727   3.712
49598W        W19479  36.395  44.387   4.134
49599W        W19480  29.141  36.936   4.738
49600W        W19481   1.404  15.227  13.825
49601W        W19482  20.555  14.812  13.316
49602W        W19483  31.961  30.989   0.944
49603W        W19484  24.096  23.164  12.040
49604W        W19485  10.180  32.014  12.864
49605W        W19486  27.476  12.191  14.813
49606W        W19487  37.078   2.882   3.737
49607W        W19488  37.532  30.451  14.335
49608W        W19489  42.874   8.354   2.775
49609W        W19490  40.009  15.232   4.660
49610W        W19491   8.783   5.324   4.748
49611W        W19492  27.077  10.279  14.954
49612W        W19493  15.636  39.991   0.875
49613W        W19494  29.150  15.793   1.789
49614W        W19495  32.451  18.548  14.459
49615W        W19496  40.374  16.200   0.946
49616W        W19497  13.837  25.638   0.873
49617W        W19498  32.574  44.265   3.152
49618W        W19499  10.379  26.504   1.760
49619W        W19500  31.448   6.735  10.501
49620W        W19501  26.678  30.008   0.822
49621W        W19502   6.854  25.162   3.237
49622W        W19503  28.513  23.727   1.842
49623W        W19504  35.976  17.282   4.197
49624W        W19505   4.757  21.216  10.556
49625W        W19506  43.343  24.061   1.416
49626W        W19507  33.470   9.760   3.773
49627W        W19508  20.706   0.292  10.077
49628W        W19509  29.512  42.401  10.898
49629W        W19510   6.193   8.660  14.013
49630W        W19511  29.493  13.654   2.893
49631W        W19512  39.507   5.349   3.689
49632W        W19513  34.518  31.122  11.026
49633W        W19514  30.536   2.384   2.229
49634W        W19515  13.605  23.563  13.322
49635W        W19516  16.620   8.366   4.781
49636W        W19517  41.313  12.833   1.411
49637W        W19518  41.891  39.025   1.925
49638W        W19519   7.368  24.696  12.015
49639W        W19520  11.784  33.922  12.451
49640W        W19521  44.383   5.727  10.049
49641W        W19522   2.737  15.161   0.463
49642W        W19523  38.507   4.373  14.362
49643W        W19524  38.425  27.641   1.251
49644W        W19525  30.103   1.793  13.039
49645W        W19526  31.547  14.136  10.476
49646W        W19527   5.805  27.633  11.487
49647W        W19528  31.959  15.159   3.336
49648W        W19529  35.081   1.974   0.407
49649W        W19530  33.426  41.490   2.793
49650W        W19531  31.063   5.896  14.419
49651W        W19532  40.529   6.277   4.633
49652W        W19533  28.938  31.551  10.974
49653W        W19534   2.912  30.644  11.453
49654W        W19535   3.899  19.162  10.600
49655W        W19536   4.308  43.294  11.385
49656W        W19537  43.335   7.207  10.963
49657W        W19538  26.540  25.698  13.807
49658W        W19539  18.619   8.171  14.793
49659W        W19540  17.300  12.263   4.801
49660W        W19541  20.070   7.797  10.973
49661W        W19542  36.956  35.404  14.908
49662W        W19543  16.597  39.871  12.984
49663W        W19544  21.063  13.199   4.350
49664W        W19545  36.011   4.912  13.320
49665W        W19546  19.657  11.255  13.975
49666W        W19547  28.029  30.425   2.695
49667W        W19548  32.994   2.813   1.238
49668W        W19549  43.405  43.462  10.947
49669W        W19550  24.624  23.705   0.465
49670W        W19551   7.726  21.558  14.923
49671W        W19552   4.222  38.018   3.164
49672W        W19553  33.549  44.274   4.620
49673W        W19554  27.677  22.615  12.915
49674W        W19555   3.440  30.040  13.837
49675W        W19556   2.953   0.383  12.030
49676W        W19557  40.978  34.497   0.767
49677W        W19558  37.905  17.273   0.331
49678W        W19559  32.135   6.307   3.252
49679W        W19560  36.058  17.217  10.408
49680W        W19561   0.957  15.804   1.289
49681W        W19562  33.027  30.949   0.737
49682W        W19563   5.792  37.515   4.762
49683W        W19564  14.779   3.275   1.388
49684W        W19565   1.901  12.688   3.250
49685W        W19566  14.274  44.321  13.307
49686W        W19567   5.750   1.258   4.249
49687W        W19568  37.411  44.269   3.737
49688W        W19569   4.394  16.580   2.821
49689W        W19570  20.087  23.634  10.616
49690W        W19571   7.208  26.979  11.538
49691W        W19572  11.367  44.323  12.838
49692W        W19573  20.630   1.897   1.789
49693W        W19574  22.160  18.784   4.314
49694W        W19575  24.630  42.416   4.243
49695W        W19576   5.907   4.342  12.563
49696W        W19577  40.305  31.120  11.453
49697W        W19578  13.779  13.338  10.901
49698W        W19579  37.434  22.577   0.841
49699W        W19580  10.662  15.649   3.858
49700W        W19581   3.907   1.811   3.293
49701W        W19582  21.707   3.286   0.321
49702W        W19583   7.352  29.024  14.368
49703W        W19584   6.411  37.342  11.487
49704W        W19585  32.497  30.961  11.443
49705W        W19586   9.833  30.951  14.032
49706W        W19587   6.811   8.732  14.880
49707W        W19588  24.045  38.829   0.426
49708W        W19589  27.496  34.449  10.570
49709W        W19590  37.079  12.137  13.866
49710W        W19591  43.818  23.206   4.645
49711W        W19592   6.337  42.414   0.839
49712W        W19593  19.200  26.490   3.323
49713W        W19594   9.373  27.121  13.060
49714W        W19595  44.260  18.549   2.740
49715W        W19596  21.629   7.680   1.319
49716W        W19597   9.389   4.828  10.146
49717W        W19598  21.200  23.675   0.819
49718W        W19599  25.601  29.956  13.948
49719W        W19600  43.406   1.303   3.309
49720W        W19601  28.991  23.193  11.441
49721W        W19602  25.009  14.741   4.325
49722W        W19603  16.169  32.472   0.268
49723W        W19604   2.868  36.028   0.410
49724W        W19605  35.997   3.952   2.833
49725W        W19606  41.942  41.479  14.515
49726W        W19607  12.356   1.837   4.280
49727W        W19608  23.064  30.579  14.407
49728W        W19609  25.525   7.821   1.451
49729W        W19610  43.999  23.579   2.338
49730W        W19611  25.670  41.377   4.227
49731W        W19612  20.126   4.270  12.961
49732W        W19613  13.756  19.195   1.241
49733W        W19614  25.655  41.795  14.773
49734W        W19615  25.081   7.813  11.424
49735W        W19616   9.865  24.992   4.618
49736W        W19617  27.643  41.982  12.995
49737W        W19618   9.273  40.385  10.999
49738W        W19619  26.056   7.792  13.006
49739W        W19620   8.194   2.354   2.412
49740W        W19621  15.238  17.270   2.804
49741W        W19622   2.312   3.340  11.507
49742W        W19623  13.127  23.610   5.219
49743W        W19624  19.165  18.706   0.311
49744W        W19625  24.989  38.564  12.974
49745W        W19626  26.157  26.698  14.414
49746W        W19627   5.848  12.277   0.947
49747W        W19628  28.021   5.360   3.848
49748W        W19629  24.490  18.241   1.796
49749W        W19630  32.040  11.219   3.726
49750W        W19631  20.539  37.389   4.240
49751W        W19632   3.786  14.762   2.362
49752W        W19633  43.961  13.710   3.812
49753W        W19634  37.461  18.273  14.276
49754W        W19635   7.814  41.808  12.391
49755W        W19636  40.420  10.330   2.796
49756W        W19637  14.706   0.255   3.774
49757W        W19638   8.723   6.358   1.886
49758W        W19639  26.494  15.824   1.440
49759W        W19640  40.528   3.794   3.768
49760W        W19641  20.184  20.653   2.859
49761W        W19642   7.838   1.353  13.514
49762W        W19643  26.957  24.052  13.963
49763W        W19644  24.611  31.121  13.881
49764W        W19645   3.329  13.215   2.677
49765W        W19646  21.589  27.147  10.915
49766W        W19647  24.208   5.328  11.056
49767W        W19648  43.443   7.381  11.536
49768W        W19649  25.007  11.220  13.003
49769W        W19650  37.947  28.025  10.405
49770W        W19651  42.429  12.708   2.220
49771W        W19652   0.277  16.239  14.494
49772W        W19653  44.781  25.208   1.787
49773W        W19654  30.943  31.403  13.336
49774W        W19655  26.042  25.085   4.317
49775W        W19656   2.231  42.284   2.326
49776W        W19657   0.364  29.122  10.949
49777W        W19658  38.029  36.015   4.261
49778W        W19659  42.326  43.361   4.323
49779W        W19660  23.056  22.132   4.130
49780W        W19661   3.220   2.949  11.868
49781W        W19662  26.519   3.900   4.810
49782W        W19663  42.927   9.879  13.813
49783W        W19664  15.745   9.336  13.866
49784W        W19665  25.184  26.538   4.250
49785W        W19666  44.383  17.232  11.870
49786W        W19667  22.239  29.132   3.777
49787W        W19668  12.643  34.565   2.717
49788W        W19669  24.611  22.033  12.393
49789W        W19670  41.395   4.205   4.266
49790W        W19671  11.338  43.965  13.018
49791W        W19672  13.649  11.738  11.022
49792W        W19673  15.727  41.294   0.245
49793W        W19674  21.621  10.298  10.944
49794W        W19675  21.565  36.451   0.936
49795W        W19676   2.765  17.593   1.744
49796W        W19677   4.829   3.768   2.842
49797W        W19678  32.994  15.632  12.003
49798W        W19679  27.582  14.155   3.637
49799W        W19680  21.179  18.258   5.092
49800W        W19681  36.432  28.089   0.798
49801W        W19682  32.558  12.203   2.883
49802W        W19683  37.917  12.308  11.982
49803W        W19684  33.624   0.855  12.471
49804W        W19685  25.484  44.286  14.901
49805W        W19686  27.023  13.169   0.408
49806W        W19687   1.972  13.774   3.691
49807W        W19688  20.638   9.257   4.728
49808W        W19689  39.548  41.371  10.981
49809W        W19690  17.797  41.004   2.402
49810W        W19691  11.262  16.717  14.933
49811W        W19692  36.929  38.834  12.058
49812W        W19693  36.946  24.544  14.800
49813W        W19694  28.516  17.092   1.223
49814W        W19695   3.450  20.707   1.391
49815W        W19696   1.386  42.897  13.837
49816W        W19697   8.662  22.033   0.920
49817W        W19698   2.360  18.132  13.398
49818W        W19699  35.485   5.343  11.582
49819W        W19700   1.909   4.352  12.485
49820W        W19701  21.024  28.959   3.781
49821W        W19702  25.144   4.910  12.445
49822W        W19703  41.522  33.119   1.931
49823W        W19704  21.726  34.060   0.953
49824W        W19705  44.997  11.779  14.961
49825W        W19706  31.139   8.384   1.742
49826W        W19707  24.196  11.701   4.250
49827W        W19708  26.043  42.872   4.781
49828W        W19709  15.601  31.902   0.279
49829W        W19710  20.078  37.393   4.726
49830W        W19711   2.303   0.986  11.969
49831W        W19712  29.531   0.830  14.804
49832W        W19713   1.738   7.848  11.506
49833W        W19714   1.741  17.721   3.753
49834W        W19715   5.921  43.917   1.748
49835W        W19716  38.922   0.744   1.915
49836W        W19717  39.496  30.552  10.636
49837W        W19718  11.780  34.523   4.133
49838W        W19719  27.160  32.560  11.030
49839W        W19720  19.589   1.814   4.809
49840W        W19721   2.770  11.844   1.400
49841W        W19722   4.865  16.293   0.734
49842W        W19723  32.431  18.181  12.554
49843W        W19724   8.860   9.645  10.450
49844W        W19725  39.948  24.724   0.469
49845W        W19726  38.484   7.822  13.317
49846W        W19727   7.191   6.266  12.471
49847W        W19728  22.598  44.359  13.998
49848W        W19729  26.586  23.509  14.348
49849W        W19730   4.317   4.748  12.017
49850W        W19731  37.002  18.761   0.907
49851W        W19732  42.398  14.690   3.767
49852W        W19733  22.747  11.179   4.751
49853W        W19734   5.905  14.831   3.240
49854W        W19735   5.396  36.908  14.905
49855W        W19736  20.108  38.426   0.354
49856W        W19737   6.875  23.145   4.244
49857W        W19738  41.849  19.053  12.946
49858W        W19739   9.889  28.651  14.778
49859W        W19740  28.671  29.019  14.389
49860W        W19741  25.169  27.967   2.400
49861W        W19742  11.312  24.107   4.339
49862W        W19743  39.473  22.517  11.881
49863W        W19744  43.782   8.860  12.395
49864W        W19745  31.646   1.335   1.398
49865W        W19746  12.847  23.160  13.403
49866W        W19747  33.986  32.072   1.392
49867W        W19748  32.439   4.937   1.776
49868W        W19749  11.776   9.206   1.334
49869W        W19750  15.587  25.637   4.134
49870W        W19751   7.904  28.002   0.830
49871W        W19752   2.845  31.095   2.269
49872W        W19753   5.786  28.123  11.591
49873W        W19754  34.025   5.347   2.732
49874W        W19755   2.459  31.547  14.278
49875W        W19756  31.153  25.578   4.702
49876W        W19757   7.362  19.131  11.408
49877W        W19758  39.867  31.477   1.873
49878W        W19759  39.401  31.590  12.936
49879W        W19760  23.210  43.850   4.259
49880W        W19761  30.591  42.782   4.785
49881W        W19762  35.045   9.362   3.731
49882W        W19763  39.343  25.559  12.088
49883W        W19764   1.242   2.746  13.876
49884W        W19765  42.300  32.522   2.309
49885W        W19766  11.316  14.280  12.475
49886W        W19767   3.789  40.821  13.522
49887W        W19768  13.134  38.073   4.151
49888W        W19769  36.009  10.342  13.355
49889W        W19770  19.152  36.414   3.660
49890W        W19771   0.343   2.883   3.229
49891W        W19772  32.593  34.016   1.792
49892W        W19773  36.982   3.793  12.033
49893W        W19774   6.408  16.283  14.803
49894W        W19775   7.833  25.699   1.867
49895W        W19776  28.435  19.644  14.954
49896W        W19777  25.586  14.673  12.429
49897W        W19778  25.979  38.466   3.837
49898W        W19779   0.380  29.976   0.887
49899W        W19780  26.142   0.362  12.495
49900W        W19781  17.304   9.735  12.523
49901W        W19782  29.657   9.763   3.749
49902W        W19783  16.579  27.166   0.362
49903W        W19784   3.875   5.901  10.951
49904W        W19785  19.052  17.589   4.816
49905W        W19786  31.030   3.897   3.748
49906W        W19787  38.377   5.848  11.396
49907W        W19788   3.225   6.210   4.705
49908W        W19789  24.522  27.101   1.325
49909W        W19790   9.215  27.572  12.456
49910W        W19791   8.199  13.238  12.480
49911W        W19792  30.502  17.738  12.502
49912W        W19793  23.211   0.460   3.705
49913W        W19794  28.969  28.556  14.353
49914W        W19795  24.981  20.675   2.812
49915W        W19796   5.717   6.241   2.702
49916W        W19797  20.203  10.347   1.727
49917W        W19798  27.053  35.955  11.043
49918W        W19799   3.826  22.551   2.353
49919W        W19800   5.913  28.027  12.013
49920W        W19801  38.834   6.814  14.341
49921W        W19802  31.947   3.413  12.870
49922W        W19803  32.111  28.143  13.992
49923W        W19804   9.717   8.753  13.496
49924W        W19805   6.398  19.725  10.427
49925W        W19806  22.052  21.247   2.861
49926W        W19807  43.390  28.086   3.781
49927W        W19808  18.668  25.574  13.947
49928W        W19809   3.740  40.521   3.160
49929W        W19810  30.643  20.050   1.751
49930W        W19811   2.834  31.955  13.434
49931W        W19812  40.343  15.643   0.432
49932W        W19813  44.809   6.680   4.197
49933W        W19814   5.217  15.680   4.666
49934W        W19815  35.392  13.630   2.899
49935W        W19816  38.044  37.544  12.367
49936W        W19817  44.785  40.426   2.207
49937W        W19818   2.829  15.083  14.511
49938W        W19819  21.582  39.415  13.000
49939W        W19820  19.233  36.924   3.711
49940W        W19821  22.699  42.445  12.847
49941W        W19822  35.549  39.895  14.380
49942W        W19823   7.352  32.059  10.942
49943W        W19824  20.184  37.518  14.864
49944W        W19825   2.888   7.281  14.951
49945W        W19826  40.418   7.371  11.423
49946W        W19827  39.985  25.207  13.475
49947W        W19828  19.707  15.123  13.430
49948W        W19829   0.820  11.203  11.957
49949W        W19830  39.889  41.439  14.295
49950W        W19831  42.373  28.992  10.411
49951W        W19832  15.636  25.175   1.766
49952W        W19833  30.106  25.966  14.348
49953W        W19834  12.687  10.762   0.284
49954W        W19835  35.597   2.350   2.717
49955W        W19836  43.499  23.716   4.637
49956W        W19837  40.884  27.045   4.318
49957W        W19838  20.599  12.330  12.451
49958W        W19839   7.808   3.779  13.408
49959W        W19840  22.998  31.591   4.665
49960W        W19841  27.570  21.170   3.711
49961W        W19842  30.512  20.075  12.942
49962W        W19843   9.262  11.232  14.905
49963W        W19844  18.662   5.385  11.887
49964W        W19845  27.446  29.535  10.501
49965W        W19846   8.854  10.154  10.899
49966W        W19847  14.334   4.733  12.470
49967W        W19848  36.498  43.503  14.494
49968W        W19849  41.344  19.125   2.822
49969W        W19850  40.935  35.587   0.900
49970W        W19851   8.847  17.173  10.503
49971W        W19852  18.052   8.890  14.823
49972W        W19853  30.915  12.634  14.445
49973W        W19854  40.044  10.634   2.716
49974W        W19855  35.528  26.634   2.681
49975W        W19856  10.797  42.527   4.703
49976W        W19857  19.256  38.904   0.834
49977W        W19858  43.831   8.733   0.322
49978W        W19859  24.621  19.154  13.032
49979W        W19860  16.233  11.181  13.341
49980W        W19861  43.372  44.892   0.423
49981W        W19862  38.077  39.420  14.438
49982W        W19863  11.666  37.448  13.000
49983W        W19864  29.565  13.718   4.126
49984W        W19865   6.295  35.072   5.081
49985W        W19866  23.536  32.028   2.794
49986W        W19867  40.031  10.835   0.275
49987W        W19868  10.337  17.568   1.757
49988W        W19869  27.106  30.419  12.866
49989W        W19870  41.966  34.463  14.975
49990W        W19871  12.297  16.128   3.257
49991W        W19872   7.743  10.704  14.914
49992W        W19873   0.329  18.188  10.999
49993W        W19874  15.322  17.649   0.913
49994W        W19875  33.015  31.983  11.607
49995W        W19876  41.513  19.097  13.910
49996W        W19877  38.865  27.042  11.105
49997W        W19878  29.061  27.172   2.887
49998W        W19879  17.753  43.795   4.754
49999W        W19880  35.443  23.682  13.904
50000W        W19881  10.663  31.937  11.582
50001W        W19882   5.710  20.666   1.256
50002W        W19883  23.098   0.454   0.375
50003W        W19884  15.817  19.061  12.838
50004W        W19885  10.360  41.298   2.818
50005W        W19886   4.907   0.473   0.341
50006W        W19887  43.478  27.134   2.880
50007W        W19888  31.582  36.504  13.015
50008W        W19889  14.831  36.895   1.291
50009W        W19890  30.570  38.065   0.416
50010W        W19891  29.435   4.403  12.945
50011W        W19892  42.825  38.495  14.325
50012W        W19893   2.897  33.967  12.463
50013W        W19894  33.952  25.049  12.466
50014W        W19895  26.595  35.411   4.741
50015W        W19896  35.032  18.604   5.089
50016W        W19897  12.283  18.606  12.346
50017W        W19898  39.537  21.058  14.026
50018W        W19899  23.601  20.043  14.400
50019W        W19900  16.136   9.229  14.504
50020W        W19901  20.669  18.154   1.701
50021W        W19902   4.445  42.879   3.166
50022W        W19903  37.087  16.640  10.987
50023W        W19904  33.036  14.335   3.215
50024W        W19905  26.469  22.547  12.952
50025W        W19906  12.689  35.889  13.818
50026W        W19907  19.272  18.252   3.173
50027W        W19908  40.505  25.483  11.883
50028W        W19909  15.221  21.136   2.344
50029W        W19910   4.236  33.127   4.671
50030W        W19911   8.234   9.294   0.256
50031W        W19912  15.804   6.707   2.867
50032W        W19913  19.758  16.784   1.908
50033W        W19914  44.831  44.985  13.405
50034W        W19915   8.395  24.157  12.888
50035W        W19916   3.927  34.002   4.138
50036W        W19917  33.110  32.576   2.413
50037W        W19918  12.836  35.995  11.478
50038W        W19919  28.014  13.171   5.305
50039W        W19920  40.936  36.403  13.415
50040W        W19921  12.825  14.220   1.213
50041W        W19922  19.773  28.933  14.417
50042W        W19923  38.514  14.097  13.930
50043W        W19924  18.738  27.504  10.584
50044W        W19925  22.734  25.601   3.714
50045W        W19926  31.556  31.123   4.714
50046W        W19927  32.424  30.421   0.769
50047W        W19928  15.810  35.463  12.504
50048W        W19929  38.561  27.471  10.977
50049W        W19930  12.337  37.536   2.383
50050W        W19931  18.061   3.824   3.652
50051W        W19932  23.068   5.817   1.298
50052W        W19933  22.661  13.726  12.542
50053W        W19934  40.421  32.602   1.754
50054W        W19935  20.116  12.845   2.821
50055W        W19936  43.861  19.252  11.575
50056W        W19937  26.488  34.565  10.618
50057W        W19938  37.962  27.195   2.890
50058W        W19939  39.320   5.905  12.354
50059W        W19940   4.300  22.626   3.783
50060W        W19941  32.418   1.820   2.730
50061W        W19942   2.770  15.227  12.830
50062W        W19943  29.154   3.911  10.621
50063W        W19944  23.068  21.256  10.429
50064W        W19945  10.157  28.102   3.269
50065W        W19946  43.937  22.651  13.911
50066W        W19947   6.761   7.328   2.870
50067W        W19948  20.596  44.794   2.295
50068W        W19949  30.070   8.859  13.340
50069W        W19950  20.524  22.074  11.047
50070W        W19951  40.305  26.680  10.893
50071W        W19952  31.137  21.078  10.064
50072W        W19953  10.142  31.996   2.320
50073W        W19954  13.247  44.973   0.930
50074W        W19955  21.103  14.810  11.498
50075W        W19956   6.362  29.502  13.866
50076W        W19957   9.160  35.996  10.515
50077W        W19958   1.886   8.720   4.610
50078W        W19959  18.165  37.527  12.378
50079W        W19960   5.825  19.249  12.444
50080W        W19961  15.813  13.647  12.942
50081W        W19962  38.555   3.364   3.349
50082W        W19963   1.268  31.631  12.412
50083W        W19964  31.982  19.200  12.911
50084W        W19965  32.136  20.593   0.368
50085W        W19966   1.925  38.946  10.897
50086W        W19967  19.654  35.527   2.827
50087W        W19968  28.144  37.006  14.340
50088W        W19969  33.460  40.451   5.273
50089W        W19970  43.369  28.641   3.663
50090W        W19971  21.250  26.586   9.946
50091W        W19972  35.363  21.654   4.784
50092W        W19973  27.021   1.934   4.120
50093W        W19974  24.485  44.429  13.935
50094W        W19975  26.521  38.389   1.426
50095W        W19976   2.846  38.435  14.977
50096W        W19977  21.245  11.790  14.964
50097W        W19978  21.253  37.491   0.767
50098W        W19979   8.673  24.489   4.304
50099W        W19980  36.582   5.361  14.480
50100W        W19981  27.048  16.292   1.418
50101W        W19982  22.231  40.916  12.868
50102W        W19983  40.369   7.351  14.393
50103W        W19984  33.091  43.770  13.855
50104W        W19985  30.163  28.963  11.500
50105W        W19986  20.640  27.610   4.665
50106W        W19987  26.696  33.406   0.309
50107W        W19988  27.559  42.029   3.686
50108W        W19989  32.535  44.502  12.490
50109W        W19990  29.923  37.024   1.286
50110W        W19991   9.343  39.340  12.875
50111W        W19992   0.432  32.503  13.339
50112W        W19993  17.301  24.713  11.076
50113W        W19994   9.748  34.965  11.479
50114W        W19995  10.254   1.477  11.068
50115W        W19996  21.740  22.551  13.951
50116W        W19997  35.470  34.047  12.420
50117W        W19998   8.255  19.660   0.309
50118W        W19999   9.374  35.522   2.761
50119W        W20000   1.903  17.610  10.412
50120W        W20001  17.751  13.302  12.402
50121W        W20002  38.937  34.610  13.507
50122W        W20003  13.326  43.779  13.802
50123W        W20004  35.364  38.073   2.322
50124W        W20005  38.558  25.634   4.262
50125W        W20006  32.031  33.043  10.449
50126W        W20007  24.219  34.537   1.223
50127W        W20008  43.867  29.029   1.233
50128W        W20009  19.085  20.214   3.370
50129W        W20010  11.233  24.132   1.716
50130W        W20011  42.921  24.551   1.301
50131W        W20012  25.114  15.813  10.609
50132W        W20013  40.035  38.555  14.450
50133W        W20014   3.916  14.097   2.782
50134W        W20015   0.411  11.700  10.921
50135W        W20016  33.925  40.847   4.230
50136W        W20017  29.960  40.915   3.225
50137W        W20018  12.143  33.471  12.469
50138W        W20019  10.357  23.068  12.343
50139W        W20020  15.263  17.220   0.325
50140W        W20021  23.063  13.158   2.872
50141W        W20022  37.369  11.195  14.356
50142W        W20023  14.236  43.817  11.921
50143W        W20024  43.272  14.724  10.576
50144W        W20025  32.999   6.697   1.903
50145W        W20026  33.524  29.106  13.886
50146W        W20027   9.366  41.974   4.705
50147W        W20028  25.189  16.304   4.634
50148W        W20029  30.583  42.920   2.762
50149W        W20030  19.101   6.276   1.885
50150W        W20031  17.217  38.943   3.312
50151W        W20032  43.321  29.076  14.362
50152W        W20033   8.834   2.830  14.759
50153W        W20034   7.274  15.310   0.922
50154W        W20035   3.752  28.675   1.784
50155W        W20036   5.248  25.126  13.922
50156W        W20037  34.885   7.877  13.331
50157W        W20038  29.533  20.656   1.241
50158W        W20039   8.819  14.834   1.854
50159W        W20040  34.513  30.053   1.881
50160W        W20041  11.253   8.288  12.001
50161W        W20042   0.344  31.556   0.790
50162W        W20043  10.327   1.904   4.834
50163W        W20044  29.549  41.434   1.386
50164W        W20045  42.013   3.732   2.375
50165W        W20046  25.690  22.745  13.523
50166W        W20047  18.624   4.259  11.047
50167W        W20048  15.162  24.998   4.667
50168W        W20049  29.087  29.015   0.410
50169W        W20050  17.616  34.895  11.020
50170W        W20051   0.414  39.025  12.553
50171W        W20052   2.451  34.915   4.721
50172W        W20053  41.436  15.142  13.885
50173W        W20054  18.774  38.453  14.847
50174W        W20055  22.019  37.389   1.288
50175W        W20056  13.175  16.125   4.838
50176W        W20057   7.355  27.956  13.366
50177W        W20058  42.394  18.182   0.826
50178W        W20059  15.811  25.180  11.577
50179W        W20060  24.625  25.177  14.293
50180W        W20061  17.668   6.710  10.428
50181W        W20062   8.396  32.143   4.160
50182W        W20063  20.579  41.397  14.983
50183W        W20064   5.823  22.151   1.307
50184W        W20065  16.644  27.638  11.910
50185W        W20066   0.753  12.633   1.275
50186W        W20067  28.531  27.492   1.259
50187W        W20068  15.584  35.365  10.536
50188W        W20069  32.418  23.613   0.358
50189W        W20070  24.030  43.512  13.307
50190W        W20071  17.665  44.866   4.146
50191W        W20072  22.681  39.009   4.215
50192W        W20073  23.137  29.666  10.587
50193W        W20074  19.172  11.293   3.200
50194W        W20075   1.810  38.360   0.336
50195W        W20076  36.945  31.933  13.463
50196W        W20077   9.384   5.294  14.934
50197W        W20078  24.539  36.516   0.309
50198W        W20079   5.741  24.537  12.371
50199W        W20080  19.048   3.735  12.440
50200W        W20081  24.029   5.890   2.709
50201W        W20082  16.317  37.058   3.312
50202W        W20083  41.396  34.548   4.335
50203W        W20084  39.959   3.326   4.722
50204W        W20085  31.951  44.306   3.799
50205W        W20086  10.876  22.032  13.040
50206W        W20087   3.911   4.415   4.126
50207W        W20088  33.482  30.131  13.864
50208W        W20089  18.241   2.351  11.499
50209W        W20090  28.092  16.608  13.839
50210W        W20091  40.356  29.491   3.757
50211W        W20092  12.313   9.333   2.726
50212W        W20093  31.133  27.539  14.805
50213W        W20094  39.481  38.523   0.856
50214W        W20095  25.136  20.130   0.779
50215W        W20096  25.214  15.733   5.293
50216W        W20097  28.152   9.662   5.242
50217W        W20098  26.552  41.924   2.325
50218W        W20099  21.144  16.289   2.371
50219W        W20100  34.456   3.841  14.997
50220W        W20101   7.878  33.060   4.150
50221W        W20102   3.433  40.858  12.371
50222W        W20103  32.031  28.673  10.952
50223W        W20104  23.690  15.770  11.867
50224W        W20105  40.541  40.355   4.828
50225W        W20106  14.120  13.722   3.171
50226W        W20107  23.647  17.255   1.382
50227W        W20108   0.781   5.812  12.518
50228W        W20109   0.455  19.573  12.076
50229W        W20110  24.070  26.661  14.461
50230W        W20111  12.193  42.789  12.061
50231W        W20112   9.293   6.301  14.850
50232W        W20113   4.326  34.960  12.345
50233W        W20114  17.298  34.045  12.932
50234W        W20115  14.645  14.604  14.792
50235W        W20116  34.009  32.116   4.704
50236W        W20117  17.188   6.825  12.469
50237W        W20118  28.523  12.260   1.230
50238W        W20119   3.427  41.918   3.158
50239W        W20120  23.605  25.602  12.085
50240W        W20121  26.578  31.558  14.299
50241W        W20122  40.333  28.521  12.862
50242W        W20123  13.654  25.549  14.288
50243W        W20124  20.224  23.089  12.999
50244W        W20125   3.804  24.111  10.900
50245W        W20126   7.311  24.701   1.797
50246W        W20127  15.105  33.395   0.815
50247W        W20128   1.760  17.275   1.777
50248W        W20129   5.849  33.996  14.318
50249W        W20130  22.711  42.887  11.053
50250W        W20131  24.487   0.327   2.840
50251W        W20132  10.278  29.494   0.383
50252W        W20133   9.171  42.883  12.859
50253W        W20134  24.998  14.229  13.909
50254W        W20135  33.605  15.200  11.094
50255W        W20136  23.228  26.634  12.510
50256W        W20137  10.772   3.789   2.238
50257W        W20138   9.286  39.011  13.433
50258W        W20139   7.857  19.206   2.794
50259W        W20140  44.763   5.340  12.988
50260W        W20141   7.692  42.358  14.836
50261W        W20142  41.835  41.832  13.999
50262W        W20143  19.728  21.120  12.043
50263W        W20144   4.426   5.226  12.006
50264W        W20145  27.523   2.738   0.906
50265W        W20146  25.176  35.882  12.388
50266W        W20147  21.755   5.783   2.246
50267W        W20148  34.544   3.331  12.523
50268W        W20149  40.813   2.801  11.914
50269W        W20150  36.396  11.777   1.812
50270W        W20151  27.168  17.724  14.974
50271W        W20152  38.491  10.187   0.317
50272W        W20153  41.884  13.788   0.810
50273W        W20154  15.772  44.488  12.404
50274W        W20155  32.615  36.372   1.729
50275W        W20156  30.598  15.116  10.477
50276W        W20157  30.427  18.130   2.363
50277W        W20158   2.749   0.368  12.427
50278W        W20159  20.123  27.973  14.760
50279W        W20160  36.946  37.522  11.006
50280W        W20161  13.729  17.769  11.021
50281W        W20162  33.931  21.088   4.730
50282W        W20163  14.824  32.517  13.043
50283W        W20164  26.192  24.202   3.670
50284W        W20165  31.414  23.989  11.447
50285W        W20166  17.235  35.883  14.790
50286W        W20167  17.201  27.997  14.978
50287W        W20168  40.350  17.603   0.945
50288W        W20169  13.204  44.481   9.962
50289W        W20170  40.446   8.277   4.229
50290W        W20171  36.029  37.439  13.488
50291W        W20172  42.835  16.107   0.286
50292W        W20173  20.255   7.880   2.698
50293W        W20174  28.619  25.495  12.911
50294W        W20175  29.475  28.177  12.953
50295W        W20176   7.267  11.208  13.906
50296W        W20177   7.383  25.997  12.939
50297W        W20178   4.275  41.880   2.254
50298W        W20179   0.984  10.360   0.840
50299W        W20180  34.086  11.229   0.899
50300W        W20181  31.571  40.012  13.042
50301W        W20182  17.267   0.767  10.432
50302W        W20183   6.677  13.116  14.400
50303W        W20184  25.471  40.046  14.021
50304W        W20185  29.454  12.287  11.072
50305W        W20186  25.560  23.142   4.254
50306W        W20187   7.888  44.433   4.181
50307W        W20188  28.076   9.753  10.528
50308W        W20189   8.348  43.386  11.937
50309W        W20190  37.957   8.808  11.919
50310W        W20191  17.286   7.780  13.828
50311W        W20192  40.008  31.985   5.216
50312W        W20193  27.956   2.776  14.341
50313W        W20194   6.378  40.933   3.294
50314W        W20195   5.707  44.316  11.398
50315W        W20196  26.680  30.956  13.509
50316W        W20197  36.963  30.990  12.986
50317W        W20198  39.849  14.217  11.467
50318W        W20199  33.534  15.607  13.995
50319W        W20200  31.024   0.831   0.946
50320W        W20201  37.887  41.944  13.529
50321W        W20202  41.003   6.876  11.468
50322W        W20203  36.902  16.721  13.019
50323W        W20204  35.519  27.602  14.982
50324W        W20205  27.055   1.887  12.077
50325W        W20206   4.717   0.401  10.490
50326W        W20207  39.039  23.679   1.856
50327W        W20208   6.333  18.103  11.543
50328W        W20209  25.117  10.363   0.249
50329W        W20210  24.086   3.317  11.576
50330W        W20211   1.483  32.451  12.068
50331W        W20212  35.911  25.580  10.544
50332W        W20213  35.980  32.938   2.223
50333W        W20214  43.777  23.641   2.788
50334W        W20215  25.618   0.884  14.813
50335W        W20216   3.280   1.266   0.749
50336W        W20217   7.416  35.455   0.344
50337W        W20218  25.200  28.454   2.192
50338W        W20219  29.963  28.633  13.960
50339W        W20220  29.627  13.789   0.775
50340W        W20221  41.018  36.008   1.818
50341W        W20222  17.744  29.022   4.691
50342W        W20223   0.983  15.803   4.795
50343W        W20224  12.769  28.461   4.217
50344W        W20225  22.185  11.213  10.584
50345W        W20226  11.192  37.930   0.873
50346W        W20227   1.441  31.043  12.525
50347W        W20228  26.658  33.423  14.362
50348W        W20229   2.259  23.544  13.919
50349W        W20230  28.167  18.775   4.740
50350W        W20231  13.239  23.518  10.089
50351W        W20232   0.861  38.929  13.344
50352W        W20233  31.474  20.746   3.282
50353W        W20234  41.806  35.063  14.794
50354W        W20235   1.814  11.331  13.916
50355W        W20236  29.094  35.058  14.895
50356W        W20237  36.957  32.088  14.294
50357W        W20238   5.702  21.656  14.784
50358W        W20239   1.381  21.144  13.517
50359W        W20240  37.563  22.655  12.977
50360W        W20241  17.629  32.484   4.691
50361W        W20242  22.709   9.774   3.299
50362W        W20243  34.094  22.074  13.409
50363W        W20244  29.135  15.239   1.270
50364W        W20245  39.019  23.490  10.120
50365W        W20246  24.125  28.960   2.417
50366W        W20247  18.711  43.841   0.765
50367W        W20248  44.992  40.990  13.037
50368W        W20249   5.858  40.913   0.345
50369W        W20250   2.822  31.627  12.456
50370W        W20251   4.891  26.160  12.512
50371W        W20252  21.736   6.796  13.957
50372W        W20253  12.203  28.133  12.527
50373W        W20254   4.779  37.454   4.810
50374W        W20255  43.310   7.384  14.306
50375W        W20256  16.604  21.696  12.339
50376W        W20257  31.514  31.966   0.848
50377W        W20258  16.196   0.819  13.527
50378W        W20259  31.010  33.547   0.436
50379W        W20260  42.523  25.110  13.378
50380W        W20261  22.504  19.208   5.806
50381W        W20262  38.001  17.665   1.903
50382W        W20263  12.362  12.735  14.941
50383W        W20264   0.314  38.555   3.667
50384W        W20265   3.725  13.631   0.877
50385W        W20266  36.422   8.214   2.803
50386W        W20267  28.679  44.871   1.709
50387W        W20268   0.347  22.625  11.111
50388W        W20269  30.131  27.567   4.698
50389W        W20270  17.688  22.244   1.887
50390W        W20271  42.874  15.102   1.228
50391W        W20272  19.199  13.244  14.843
50392W        W20273  36.578   8.773   4.763
50393W        W20274   4.866  39.063   0.732
50394W        W20275  13.179   6.804  14.990
50395W        W20276  42.374  36.479   3.338
50396W        W20277  35.418  26.682   4.318
50397W        W20278   1.924  26.955  13.886
50398W        W20279  11.754  30.425  10.511
50399W        W20280  36.476   7.242  13.017
50400W        W20281  39.858  34.023  14.369
50401W        W20282  22.560  25.498  13.022
50402W        W20283  31.963   8.362   3.632
50403W        W20284  42.515  12.348  13.855
50404W        W20285  39.520   1.837  12.867
50405W        W20286  23.517  26.565  13.795
50406W        W20287  16.781  31.646   1.259
50407W        W20288  39.992  11.743  14.884
50408W        W20289  36.062  25.964   4.628
50409W        W20290  24.193  43.013   0.740
50410W        W20291   7.385  27.060   1.773
50411W        W20292  18.662   8.212   1.229
50412W        W20293  23.151  22.544   4.126
50413W        W20294  16.283  39.948  14.323
50414W        W20295   4.409  35.409   2.387
50415W        W20296  29.622  32.891  13.037
50416W        W20297  38.437  30.504  14.015
50417W        W20298  16.226   2.389   0.733
50418W        W20299  20.058  26.132   2.831
50419W        W20300  32.959  21.153   3.286
50420W        W20301  14.340  43.854  13.460
50421W        W20302  21.228  18.733  13.842
50422W        W20303  21.614  13.229   4.270
50423W        W20304  34.986  16.615  10.981
50424W        W20305  38.886  41.899  13.908
50425W        W20306  16.194  40.994  10.627
50426W        W20307  36.907  28.114   0.395
50427W        W20308   3.262   6.923   3.356
50428W        W20309  13.235  35.419   2.204
50429W        W20310   9.178  32.096  13.030
50430W        W20311  43.401  44.452  11.544
50431W        W20312  27.192  41.444  10.470
50432W        W20313  15.218  40.420  14.315
50433W        W20314  32.041   0.893   2.363
50434W        W20315   6.716  43.371   0.752
50435W        W20316   9.309  10.845  13.899
50436W        W20317  34.412  19.266  11.453
50437W        W20318  33.552  22.649  10.419
50438W        W20319  35.586  37.577   4.139
50439W        W20320  24.999  15.626   0.394
50440W        W20321  40.307   6.853  13.322
50441W        W20322  23.643  29.162   0.759
50442W        W20323   4.773  42.939  12.499
50443W        W20324   9.847  33.585   4.724
50444W        W20325  35.074  41.424   4.750
50445W        W20326   1.762  32.482   0.383
50446W        W20327  19.679  17.683  12.902
50447W        W20328   4.330  44.265   3.796
50448W        W20329  16.592  26.470  13.019
50449W        W20330  10.376  28.154  12.061
50450W        W20331  18.078  21.059   4.779
50451W        W20332   7.861  14.321   4.666
50452W        W20333  22.692   5.196  13.040
50453W        W20334  35.527  43.479  10.414
50454W        W20335   2.864  28.084   2.685
50455W        W20336   1.279  15.171   2.876
50456W        W20337  12.766  22.644  13.996
50457W        W20338  25.204  11.146   2.682
50458W        W20339   0.920   6.790  13.805
50459W        W20340  10.798   4.730   2.240
50460W        W20341  19.760  39.382   1.890
50461W        W20342  12.846  26.203   0.388
50462W        W20343  15.245  23.031  14.832
50463W        W20344  30.916  21.058  12.430
50464W        W20345  11.622  41.960  11.407
50465W        W20346  25.116  22.238  13.465
50466W        W20347  25.483  43.483  14.434
50467W        W20348  15.228  10.287   2.698
50468W        W20349  18.776  10.712  13.489
50469W        W20350  43.976  37.014   1.926
50470W        W20351  34.922  38.569   2.185
50471W        W20352  19.273  34.422  14.375
50472W        W20353  43.836  21.707  14.971
50473W        W20354   8.322   4.758   2.232
50474W        W20355  13.173  21.254  11.114
50475W        W20356  43.400  25.558  10.433
50476W        W20357  34.096  26.020  13.040
50477W        W20358   0.758  27.106  10.536
50478W        W20359  10.645  40.859   4.645
50479W        W20360  23.642  28.955   3.727
50480W        W20361  43.008  27.110   2.807
50481W        W20362  11.780  19.615  11.418
50482W        W20363  34.058   1.396   1.267
50483W        W20364  44.294  17.247   0.773
50484W        W20365  22.585  27.059  11.917
50485W        W20366   6.909  11.266  13.389
50486W        W20367  26.518   1.377   1.347
50487W        W20368  43.799   9.826  13.030
50488W        W20369   3.439  24.226  11.870
50489W        W20370   9.730   2.447  14.926
50490W        W20371  34.578   6.838  12.435
50491W        W20372  32.515  10.301   2.774
50492W        W20373  25.975  14.209  12.867
50493W        W20374  38.022  30.975   0.957
50494W        W20375  24.703  22.038   3.845
50495W        W20376  43.936   8.685  11.017
50496W        W20377  14.621   0.826   3.791
50497W        W20378  17.110  27.684  11.053
50498W        W20379   3.868  11.151  14.003
50499W        W20380  14.144  20.266  11.493
50500W        W20381   0.915  25.149  14.342
50501W        W20382  12.717  19.235  10.972
50502W        W20383   7.416  12.198   3.658
50503W        W20384  25.051  12.787   4.798
50504W        W20385  42.919  39.514  13.954
50505W        W20386  44.007  35.480   0.297
50506W        W20387   4.449   5.806  14.999
50507W        W20388  13.269  31.620   3.661
50508W        W20389  30.979  10.356  10.955
50509W        W20390  32.019  44.413  10.529
50510W        W20391   7.805  40.400   3.187
50511W        W20392  42.936  32.026   2.729
50512W        W20393  27.628   1.903   3.164
50513W        W20394  42.412  24.668  10.612
50514W        W20395  22.039   1.756   1.321
50515W        W20396  42.442  13.325   1.211
50516W        W20397  11.631  35.017  13.986
50517W        W20398   3.347  33.433  13.059
50518W        W20399  11.662   2.860   0.848
50519W        W20400   1.476  11.832   0.783
50520W        W20401  21.707   6.811  13.361
50521W        W20402   3.441  32.431   3.669
50522W        W20403  42.798  15.804  11.406
50523W        W20404   0.348  33.624   0.876
50524W        W20405  10.381  37.567  14.806
50525W        W20406   1.978   5.256   3.836
50526W        W20407  43.853   1.748   0.274
50527W        W20408  12.259   3.276   4.324
50528W        W20409  43.965   7.225  13.949
50529W        W20410   6.710   3.292  12.889
50530W        W20411  35.986   6.359  13.952
50531W        W20412  13.226  30.137  12.065
50532W        W20413  20.764   4.295  13.329
50533W        W20414  18.605  35.375  11.468
50534W        W20415   4.333  18.768   3.653
50535W        W20416  16.707  27.486   2.692
50536W        W20417  32.084  24.695   4.725
50537W        W20418  40.368   6.712   4.218
50538W        W20419  33.408   6.738  14.871
50539W        W20420  39.393   3.254   4.305
50540W        W20421  34.587  24.685   3.820
50541W        W20422   6.805  16.767  10.585
50542W        W20423   9.689  18.098   1.832
50543W        W20424  40.939  34.416  13.450
50544W        W20425  43.495  20.170  12.090
50545W        W20426  43.881   6.704   2.801
50546W        W20427  10.781   6.391   9.983
50547W        W20428  26.175  31.942   3.264
50548W        W20429  15.808  37.933  11.510
50549W        W20430  22.047   2.449  14.438
50550W        W20431  18.174  39.986  11.533
50551W        W20432  15.659  39.036   0.947
50552W        W20433  35.398   5.731   4.770
50553W        W20434  40.844  11.345   2.416
50554W        W20435  27.689   8.399   0.444
50555W        W20436  33.938  40.828   2.250
50556W        W20437  23.577  24.977   4.152
50557W        W20438  42.509   3.391   3.282
50558W        W20439  35.408  10.189  14.385
50559W        W20440  20.767   0.469  14.021
50560W        W20441  22.700  43.313   2.807
50561W        W20442  30.565  29.451  13.809
50562W        W20443  16.618  41.488   1.297
50563W        W20444  20.207  40.946   1.322
50564W        W20445  14.301  26.186   3.670
50565W        W20446   8.752  20.119  11.433
50566W        W20447  29.530   0.802  11.535
50567W        W20448  24.122  17.107   3.288
50568W        W20449  14.236  30.422   3.756
50569W        W20450  25.478  21.192  13.401
50570W        W20451  44.812   8.707   5.221
50571W        W20452  36.907  26.167   4.226
50572W        W20453  15.141  44.808  14.897
50573W        W20454  27.995  24.694  12.885
50574W        W20455  17.250   6.815  13.309
50575W        W20456   8.183  16.254   4.210
50576W        W20457  32.563  28.622  11.480
50577W        W20458  38.969  24.060   0.333
50578W        W20459  41.481  31.054  12.382
50579W        W20460  44.271  32.963   0.883
50580W        W20461  36.470   4.341  11.955
50581W        W20462  14.774  16.200   1.429
50582W        W20463  27.625  39.491  13.920
50583W        W20464   1.342  14.750   0.344
50584W        W20465  16.247   8.674   1.868
50585W        W20466  20.640  39.398  11.585
50586W        W20467  22.014   0.950   3.382
50587W        W20468  39.931  11.356   4.636
50588W        W20469  13.776  15.168   0.840
50589W        W20470   4.765  27.678   0.809
50590W        W20471  19.617  44.337   2.813
50591W        W20472  22.053  24.530  10.540
50592W        W20473  15.763   9.223   4.302
50593W        W20474  15.299  25.965  11.909
50594W        W20475  31.045  15.616   1.925
50595W        W20476  17.787  22.067  12.861
50596W        W20477  32.057   6.196  12.970
50597W        W20478  11.232  14.643   4.725
50598W        W20479  34.880  19.102  11.571
50599W        W20480  43.823  36.583  13.792
50600W        W20481   1.821  37.366  12.003
50601W        W20482  34.602   6.314   1.218
50602W        W20483   2.765  17.074  10.957
50603W        W20484  15.646  34.603   2.279
50604W        W20485   4.425  13.637   0.345
50605W        W20486  44.505  24.069   2.330
50606W        W20487  28.019  39.515  13.985
50607W        W20488  21.675   4.308   4.778
50608W        W20489  42.414   9.252  13.524
50609W        W20490   8.219  10.728   3.325
50610W        W20491   9.738  26.059  12.937
50611W        W20492  15.124  22.526  14.813
50612W        W20493   1.892  40.434   1.436
50613W        W20494  29.423  11.846  10.464
50614W        W20495  16.700  16.681   1.790
50615W        W20496   8.664  42.333  13.520
50616W        W20497  43.447   8.730   3.862
50617W        W20498  31.062   8.793   4.757
50618W        W20499   1.306  22.719   2.737
50619W        W20500   9.648  43.998  13.865
50620W        W20501  29.965  28.957  10.590
50621W        W20502  10.741  44.912   0.313
50622W        W20503   3.786  29.626   2.860
50623W        W20504  22.096  23.185  12.515
50624W        W20505  40.973  37.838  14.927
50625W        W20506  31.545  16.145   9.587
50626W        W20507  23.993  37.929   3.811
50627W        W20508  23.707   8.325  12.389
50628W        W20509   9.759  27.068  14.434
50629W        W20510  29.659  13.335   1.386
50630W        W20511  43.289   6.340  12.545
50631W        W20512  34.989   6.372   0.810
50632W        W20513  41.834  23.032  10.520
50633W        W20514   7.827  44.372  13.923
50634W        W20515  43.391  14.720  11.901
50635W        W20516  38.391  42.315   3.285
50636W        W20517  25.673  13.311   3.709
50637W        W20518   9.307  10.204  12.047
50638W        W20519  38.533  16.804   2.868
50639W        W20520  29.519  20.041   2.862
50640W        W20521  10.673  40.304   3.276
50641W        W20522  37.465  25.080  12.555
50642W        W20523  13.228  14.589  12.396
50643W        W20524  22.680  26.098  11.030
50644W        W20525  34.487  24.139   4.636
50645W        W20526   8.807  34.393  11.106
50646W        W20527   8.210  36.580   2.400
50647W        W20528   3.406  33.411  10.628
50648W        W20529  36.564  39.012  13.878
50649W        W20530  20.731   2.312  14.832
50650W        W20531   8.825  26.204  12.079
50651W        W20532  44.957  34.913   3.844
50652W        W20533   2.823  43.411  11.103
50653W        W20534   5.430  38.929  14.032
50654W        W20535  31.987   8.270  11.917
50655W        W20536  11.129  11.244   3.680
50656W        W20537   1.282  26.175   2.804
50657W        W20538   8.394  10.358  10.449
50658W        W20539  17.238  43.449   1.881
50659W        W20540  35.408  32.560  12.516
50660W        W20541  25.484  35.394  12.082
50661W        W20542  16.772  22.732   2.840
50662W        W20543   0.417  24.697   4.661
50663W        W20544   8.798   0.271  14.283
50664W        W20545  11.706  41.415  14.295
50665W        W20546  43.920  34.390  13.054
50666W        W20547  10.748  27.492   2.347
50667W        W20548  34.103  39.364  11.087
50668W        W20549  36.093  22.620  10.407
50669W        W20550   1.822  12.155  12.063
50670W        W20551   8.884  44.447   4.651
50671W        W20552   9.284   4.808  13.048
50672W        W20553  15.206   4.928  12.047
50673W        W20554  41.331  22.161   1.873
50674W        W20555  18.215  41.537  10.553
50675W        W20556  27.496   1.818  13.970
50676W        W20557  22.200  27.969  12.449
50677W        W20558  15.137  28.665  12.422
50678W        W20559  27.659  27.623   1.744
50679W        W20560   9.844  32.032  11.948
50680W        W20561  35.534   8.885  11.384
50681W        W20562  19.669  39.884   4.272
50682W        W20563  15.182  42.294  11.586
50683W        W20564  28.060  20.564   4.744
50684W        W20565   8.226  40.842  11.525
50685W        W20566  13.604   2.723  13.420
50686W        W20567  40.826   5.287   2.180
50687W        W20568  38.394   5.702   4.244
50688W        W20569  38.050  13.171   0.287
50689W        W20570  34.119  33.961  14.868
50690W        W20571  40.028   5.712  13.925
50691W        W20572  42.491  15.662  13.515
50692W        W20573   8.227  35.428  13.855
50693W        W20574  27.512  19.065   1.712
50694W        W20575   9.179  20.614   2.869
50695W        W20576  21.685  12.261   3.735
50696W        W20577  11.277  43.767   1.737
50697W        W20578  14.601  44.903  14.504
50698W        W20579  25.988   8.404  12.986
50699W        W20580  30.948  28.930   0.378
50700W        W20581  23.100  35.487  13.844
50701W        W20582   9.853  17.248  10.969
50702W        W20583  12.245  28.012   0.857
50703W        W20584  29.960  17.595   9.502
50704W        W20585  44.296  14.181  14.300
50705W        W20586  28.470  39.904  11.910
50706W        W20587  26.962  22.120  12.425
50707W        W20588   0.448   9.213  13.971
50708W        W20589  26.571  22.664   0.332
50709W        W20590  25.620  17.194  13.518
50710W        W20591   5.874  44.284   3.632
50711W        W20592  31.129  21.601   0.964
50712W        W20593  14.234  18.239   4.192
50713W        W20594   9.738  20.098  11.402
50714W        W20595   6.336  37.493   1.795
50715W        W20596  19.174  21.177  13.948
50716W        W20597  36.057   4.808  11.518
50717W        W20598  35.583  16.743  12.862
50718W        W20599  24.054  20.614  13.505
50719W        W20600  17.293  19.077  12.981
50720W        W20601   7.176  11.194  14.819
50721W        W20602   2.424  24.528   3.642
50722W        W20603  21.159  36.479  10.570
50723W        W20604   8.159  22.692  12.876
50724W        W20605  42.901  13.313   4.143
50725W        W20606  18.584  16.746  11.062
50726W        W20607  12.765   8.696   4.340
50727W        W20608  23.111  28.537  10.468
50728W        W20609  28.081  15.667  12.502
50729W        W20610  27.463   3.347  12.529
50730W        W20611   4.703  21.679  14.472
50731W        W20612   6.283   2.938  13.473
50732W        W20613  37.934  19.112   4.647
50733W        W20614   3.313  35.916   4.342
50734W        W20615  34.923   5.307  14.420
50735W        W20616  18.209  12.308   2.774
50736W        W20617  34.590  29.029   2.714
50737W        W20618  37.565  34.423  12.548
50738W        W20619  20.122  24.226   1.742
50739W        W20620  29.996  17.789  12.572
50740W        W20621   7.902  39.548  12.853
50741W        W20622  39.391  22.531   0.764
50742W        W20623  25.504   0.745  13.032
50743W        W20624  18.690  17.729  11.090
50744W        W20625  17.794   7.787  13.441
50745W        W20626  42.018  27.075   1.285
50746W        W20627  26.513  19.132  12.369
50747W        W20628  36.347  28.497  13.933
50748W        W20629  41.492   4.858  11.375
50749W        W20630  21.551  24.633   3.343
50750W        W20631  19.139  25.070  12.891
50751W        W20632  28.018  14.180  14.372
50752W        W20633  22.192  20.094  12.496
50753W        W20634   3.752  34.517  11.985
50754W        W20635  19.617  11.306  12.987
50755W        W20636   5.856  23.016  12.899
50756W        W20637  20.042  16.753  11.427
50757W        W20638   3.784  36.059  13.415
50758W        W20639  21.756   7.910  10.956
50759W        W20640  30.623   9.652   0.249
50760W        W20641   3.406  22.142   2.832
50761W        W20642  36.405  27.005   1.251
50762W        W20643   3.225  17.637   3.188
50763W        W20644  35.499  17.688   3.681
50764W        W20645   7.389  32.920   1.709
50765W        W20646  27.065  15.215  11.920
50766W        W20647  20.561  26.539   0.828
50767W        W20648  14.257  44.458  14.277
50768W        W20649   9.334  44.409  10.440
50769W        W20650  13.155  17.101   2.851
50770W        W20651  33.577  37.913   2.239
50771W        W20652  24.563  39.363  12.509
50772W        W20653  40.386  39.450  11.404
50773W        W20654   5.929  19.760   1.309
50774W        W20655  25.675  28.092   2.305
50775W        W20656  33.386   6.313   3.232
50776W        W20657  31.594   4.821   1.876
50777W        W20658  17.760  33.086  10.417
50778W        W20659  28.517  18.552  14.810
50779W        W20660  27.494   0.281   0.744
50780W        W20661  43.923   7.716  13.897
50781W        W20662  42.794  41.954   2.332
50782W        W20663  37.957   6.237   3.840
50783W        W20664  44.839  28.132  11.070
50784W        W20665  44.927   5.797  11.436
50785W        W20666   5.397  34.034  14.785
50786W        W20667   0.453   3.827   1.902
50787W        W20668   9.384  32.941  13.350
50788W        W20669  14.257  27.618  12.947
50789W        W20670  11.699  11.204   3.663
50790W        W20671  20.104  22.177  12.850
50791W        W20672   3.891  33.388  11.920
50792W        W20673  25.663  11.690   2.818
50793W        W20674  31.927  44.971   3.690
50794W        W20675  21.114   0.472   2.867
50795W        W20676  43.968  10.745  11.597
50796W        W20677  42.834   9.326  13.055
50797W        W20678   5.693  15.259   0.805
50798W        W20679  43.301  33.989  14.816
50799W        W20680  33.945  36.517   1.782
50800W        W20681  21.572  24.032  10.454
50801W        W20682  12.173   9.196  13.851
50802W        W20683   3.399   3.365  14.500
50803W        W20684  26.208   7.852   0.356
50804W        W20685  37.521  38.436  13.860
50805W        W20686  19.573  42.508  14.815
50806W        W20687  39.036  25.061   4.146
50807W        W20688  22.096  13.669  14.473
50808W        W20689  37.339  16.174  14.979
50809W        W20690  38.434  33.930  10.907
50810W        W20691  22.744  42.861   4.796
50811W        W20692  42.882  33.428   5.182
50812W        W20693   8.743  44.843   2.821
50813W        W20694  26.582  17.111  14.781
50814W        W20695  26.540   3.800   3.249
50815W        W20696  31.582  40.456   2.890
50816W        W20697  16.153  43.463   3.856
50817W        W20698  41.811   9.826  14.911
50818W        W20699  44.351  36.468  11.964
50819W        W20700  20.135  19.194   3.291
50820W        W20701   5.874  27.462   3.352
50821W        W20702  32.447  31.975   0.459
50822W        W20703  15.589  16.790   1.385
50823W        W20704   0.983  44.264  11.524
50824W        W20705  42.808  24.023   2.306
50825W        W20706  41.458  28.597   0.247
50826W        W20707  43.277  42.964   1.423
50827W        W20708  20.201   3.905  13.935
50828W        W20709  13.727  15.731  12.519
50829W        W20710  23.007  38.399  11.987
50830W        W20711  16.098   0.792   3.340
50831W        W20712  25.489  40.460  13.397
50832W        W20713  10.809  20.231   3.818
50833W        W20714  16.100   2.313  12.902
50834W        W20715  33.972   8.885   3.278
50835W        W20716   7.400  19.777  11.024
50836W        W20717  38.919   5.894  13.516
50837W        W20718  22.040   6.391  14.870
50838W        W20719   2.318   4.703   3.306
50839W        W20720  28.025  36.454   4.694
50840W        W20721  31.571  36.371  13.909
50841W        W20722  17.691  19.656  11.880
50842W        W20723  31.967   0.357  10.939
50843W        W20724   5.916  16.275  14.389
50844W        W20725  34.865  13.620   4.709
50845W        W20726  16.184  22.147  13.359
50846W        W20727   0.824  20.086  13.533
50847W        W20728  41.941  33.415  14.284
50848W        W20729  16.685  34.461   4.194
50849W        W20730  36.530  43.875  12.060
50850W        W20731  12.125  12.287   0.791
50851W        W20732  22.242  29.566   2.751
50852W        W20733  13.352   7.874  12.858
50853W        W20734   1.325  12.632   3.220
50854W        W20735  25.016  35.106   4.767
50855W        W20736  27.486  36.549  13.425
50856W        W20737   7.290  25.664  13.489
50857W        W20738  44.345  40.485   4.794
50858W        W20739  14.300  40.492   3.643
50859W        W20740  43.445  25.600  14.987
50860W        W20741  20.230   5.782   1.213
50861W        W20742   4.925  17.182  10.974
50862W        W20743  12.246  28.481   2.409
50863W        W20744  41.495  19.169   2.185
50864W        W20745   2.238  12.355  14.989
50865W        W20746  22.091  36.870  14.279
50866W        W20747  35.103  38.551   3.264
50867W        W20748   8.722  17.071  14.331
50868W        W20749   4.426  30.158   2.830
50869W        W20750  39.982  33.574   0.374
50870W        W20751  18.601   2.462   4.666
50871W        W20752  21.064  44.964   2.873
50872W        W20753  19.235   4.924   1.812
50873W        W20754  37.962  28.524   1.803
50874W        W20755  26.090  32.423  14.441
50875W        W20756  42.346  37.494   2.319
50876W        W20757   7.285   8.747   0.468
50877W        W20758   5.742  23.633  12.830
50878W        W20759  31.080  12.783   1.708
50879W        W20760  33.386  23.601   5.193
50880W        W20761   1.357  21.736   1.432
50881W        W20762  18.165  42.966   0.419
50882W        W20763  30.948  21.750  10.539
50883W        W20764  23.200  28.012   4.802
50884W        W20765  14.189  15.282  10.985
50885W        W20766  36.497   4.852   2.676
50886W        W20767   5.801  22.532  12.348
50887W        W20768  34.074  24.571   4.216
50888W        W20769  26.094   8.341  11.953
50889W        W20770   5.387  36.887   1.748
50890W        W20771  21.518  22.011  12.091
50891W        W20772  42.375  37.456   3.246
50892W        W20773  40.471  11.223  11.481
50893W        W20774  25.638  16.145   0.357
50894W        W20775  10.827  22.014  11.856
50895W        W20776  30.565  16.758  11.963
50896W        W20777   1.430  20.060   3.301
50897W        W20778  14.652  43.994   4.670
50898W        W20779  43.434   5.201  13.475
50899W        W20780  40.376   8.342   2.410
50900W        W20781  37.483   0.430   1.326
50901W        W20782   4.256  17.185  14.454
50902W        W20783  26.155  24.050  14.480
50903W        W20784  42.939  40.920  14.952
50904W        W20785  40.454  23.119  10.568
50905W        W20786   1.395  14.188   1.373
50906W        W20787  44.384  42.981  14.814
50907W        W20788  11.348  35.057   4.604
50908W        W20789  13.602  19.068  11.856
50909W        W20790  44.934  25.594  12.412
50910W        W20791  30.920  18.121  14.499
50911W        W20792  24.657  20.069  13.045
50912W        W20793  43.950   2.924  11.606
50913W        W20794  28.606  35.069   3.205
50914W        W20795  34.943  41.450  13.378
50915W        W20796  43.478   6.319  10.449
50916W        W20797   9.810  28.543   2.695
50917W        W20798   2.760  37.835  11.039
50918W        W20799   0.887   0.965   1.775
50919W        W20800  18.128   1.940   3.817
50920W        W20801  20.715  11.859  13.918
50921W        W20802  18.097  40.392   2.260
50922W        W20803  19.253  18.063  10.424
50923W        W20804  43.486  19.093   3.236
50924W        W20805  39.466  40.025  14.443
50925W        W20806  17.585  19.681   3.288
50926W        W20807  22.138  16.303  11.515
50927W        W20808  17.289   8.304  12.341
50928W        W20809  21.140   3.436   2.762
50929W        W20810   7.766  12.707  11.603
50930W        W20811   2.305  25.984  14.003
50931W        W20812  41.411  32.566   1.325
50932W        W20813   8.707  13.321  10.959
50933W        W20814  28.093  41.793  13.462
50934W        W20815  13.667  36.042  11.872
50935W        W20816  16.587  34.379   0.450
50936W        W20817  29.007  41.466  12.856
50937W        W20818  28.008  33.082  13.835
50938W        W20819  34.007  19.618  12.542
50939W        W20820  43.870  16.674   1.363
50940W        W20821  26.631  33.576   4.319
50941W        W20822  26.511  34.514  12.546
50942W        W20823   7.184  44.817   2.699
50943W        W20824  16.302  13.778  10.516
50944W        W20825  23.131  10.200   1.815
50945W        W20826   3.937  35.475   0.866
50946W        W20827   0.970  41.042   1.443
50947W        W20828  44.808  22.996  12.834
50948W        W20829  38.375  43.410  10.465
50949W        W20830  11.817  38.558   2.352
50950W        W20831  23.989  18.169  14.429
50951W        W20832  12.222   4.887  14.290
50952W        W20833  15.102   1.431  13.381
50953W        W20834  41.472  13.757   1.425
50954W        W20835  38.326  23.661  13.519
50955W        W20836  31.981  29.424   1.233
50956W        W20837  11.228  12.199   3.744
50957W        W20838  10.804   6.872   0.815
50958W        W20839   0.778  39.035  10.041
50959W        W20840  20.155  17.227  11.099
50960W        W20841  41.026   8.752  12.931
50961W        W20842   0.273  16.632   4.645
50962W        W20843  21.663  35.371   1.883
50963W        W20844  29.653  14.617  12.506
50964W        W20845  36.573   6.693   0.951
50965W        W20846   8.231  26.604  14.771
50966W        W20847  43.874  17.628   3.306
50967W        W20848  43.444  13.207   3.715
50968W        W20849  13.180  37.899  12.031
50969W        W20850   3.276  44.267   3.245
50970W        W20851  42.778   9.645   2.711
50971W        W20852   2.229  40.925  14.028
50972W        W20853  37.552  38.357  13.339
50973W        W20854  22.231  11.742   1.213
50974W        W20855   8.344  43.488   0.811
50975W        W20856  20.643  38.537   2.871
50976W        W20857   0.458  18.135  14.918
50977W        W20858  12.341  16.317   4.693
50978W        W20859  41.941  29.648  10.996
50979W        W20860  27.590  37.523  10.985
50980W        W20861  12.174   5.906  12.407
50981W        W20862  10.857  43.462   4.304
50982W        W20863  36.476  40.545   1.401
50983W        W20864   4.232   2.440  11.449
50984W        W20865  26.472  12.147   0.854
50985W        W20866  37.038  22.996   3.764
50986W        W20867  15.083   1.864  11.040
50987W        W20868   5.840  35.004   2.202
50988W        W20869  14.262   7.325   1.903
50989W        W20870   8.187   9.796   1.287
50990W        W20871  24.511  40.496  14.450
50991W        W20872  38.552  20.531  14.450
50992W        W20873  38.913  18.590   4.165
50993W        W20874  42.477  33.093   3.836
50994W        W20875   7.684  36.034   0.863
50995W        W20876  22.117   5.747  14.406
50996W        W20877  38.358   8.748   0.934
50997W        W20878  38.951  16.097   1.356
50998W        W20879  13.269  13.263   4.329
50999W        W20880  10.640  12.766  13.515
51000W        W20881   0.292   1.802   1.314
51001W        W20882   6.794  35.414  14.003
51002W        W20883  22.571  28.999  12.948
51003W        W20884   8.231  13.702  14.000
51004W        W20885  33.619  33.438   0.926
51005W        W20886  18.545  21.692  11.973
51006W        W20887   6.751  24.550   3.357
51007W        W20888  14.756  15.320  11.478
51008W        W20889   4.895  29.926   5.235
51009W        W20890  17.700  24.557   4.657
51010W        W20891  29.512  34.557  11.386
51011W        W20892  13.262  20.684  13.955
51012W        W20893  29.977  19.572  12.481
51013W        W20894  37.465  41.890  12.493
51014W        W20895  39.381  18.715   1.355
51015W        W20896  24.626  23.144  12.090
51016W        W20897  31.455  22.109  12.864
51017W        W20898  39.855  25.979  10.976
51018W        W20899  31.580   7.253   5.783
51019W        W20900  16.617  14.321  13.046
51020W        W20901  16.798  25.068   3.342
51021W        W20902  38.934  37.543   4.262
51022W        W20903  13.192  31.592  14.772
51023W        W20904  38.004   2.911   2.737
51024W        W20905  11.354  12.672   4.622
51025W        W20906  44.938  39.026   4.681
51026W        W20907  43.914  27.667  13.977
51027W        W20908  12.219  23.201  13.409
51028W        W20909  37.073   0.309   0.819
51029W        W20910  16.787  26.084  13.882
51030W        W20911  12.120  23.551   3.185
51031W        W20912  22.518  43.803  14.498
51032W        W20913  30.556  27.053  12.384
51033W        W20914  13.602  43.480  13.822
51034W        W20915  13.169  22.704  11.561
51035W        W20916  27.605  27.563  13.393
51036W        W20917  15.782   2.931  10.566
51037W        W20918  29.002  44.770   3.247
51038W        W20919  33.512  14.826  11.537
51039W        W20920  16.652  43.388   0.809
51040W        W20921   0.762  23.156  14.834
51041W        W20922  20.751  16.577   1.880
51042W        W20923   5.704   6.241  12.067
51043W        W20924  36.934  41.530  13.848
51044W        W20925  19.615  19.728   1.872
51045W        W20926  41.388  34.118  10.572
51046W        W20927   0.867   3.916   0.412
51047W        W20928  43.784   6.846  13.534
51048W        W20929   1.779  22.163  10.972
51049W        W20930   2.306  10.331  11.529
51050W        W20931  39.978  17.737  11.546
51051W        W20932  38.457   9.365  13.547
51052W        W20933  44.381  19.695  13.357
51053W        W20934  32.034  32.454   2.711
51054W        W20935  22.649  30.525  11.379
51055W        W20936  44.404   8.818   0.243
51056W        W20937  29.078  42.442   0.852
51057W        W20938  15.308  34.911  10.560
51058W        W20939  43.347  44.760  11.119
51059W        W20940  11.647  11.752  13.913
51060W        W20941  23.147  38.930  13.059
51061W        W20942  34.406   5.894   3.177
51062W        W20943  27.644   1.807   0.473
51063W        W20944  15.118  38.838  14.331
51064W        W20945  31.410  31.142   2.772
51065W        W20946   9.338  41.525  10.903
51066W        W20947  37.938   6.730   3.274
51067W        W20948   4.881  44.375  11.463
51068W        W20949  19.065  18.650  10.455
51069W        W20950  28.984   9.869   3.302
51070W        W20951  14.096  34.882  12.013
51071W        W20952   3.835  30.612  10.407
51072W        W20953  44.402  32.445   0.845
51073W        W20954   2.937   8.366  14.029
51074W        W20955  35.981   6.780   0.340
51075W        W20956  36.044  36.472   2.698
51076W        W20957  35.992  17.619  12.995
51077W        W20958  23.490  21.024  10.538
51078W        W20959  17.763  32.437  14.387
51079W        W20960   0.339   9.149   0.812
51080W        W20961  35.942  23.024  10.510
51081W        W20962  12.295  20.111  10.470
51082W        W20963   9.194  11.283   1.271
51083W        W20964  15.155  33.028  14.930
51084W        W20965   7.792   2.751  11.987
51085W        W20966  28.944  33.001   0.274
51086W        W20967  17.086  21.073  13.004
51087W        W20968   6.920  36.984   4.742
51088W        W20969   0.426  18.686   0.301
51089W        W20970   5.430  31.537   2.181
51090W        W20971  11.868  28.945   0.455
51091W        W20972  10.268  35.580  10.493
51092W        W20973   7.677  18.160   2.354
51093W        W20974   1.935  13.839   2.703
51094W        W20975   4.230  10.293  12.483
51095W        W20976   1.301  11.250   4.134
51096W        W20977   5.841   9.365  13.512
51097W        W20978  39.447  22.075   2.257
51098W        W20979   7.316  32.617  14.464
51099W        W20980   2.346   7.853   1.764
51100W        W20981  22.685   3.255   4.337
51101W        W20982  33.051  38.060   3.342
51102W        W20983  44.389  23.068   4.177
51103W        W20984  21.221   8.869  13.893
51104W        W20985  17.099  17.291   0.354
51105W        W20986  38.452  40.485  12.872
51106W        W20987  28.561  15.706   0.852
51107W        W20988  41.041  35.395   1.777
51108W        W20989  19.755  41.341   4.760
51109W        W20990  33.480   8.334   2.350
51110W        W20991  27.617  40.805  14.316
51111W        W20992  15.626  40.533   0.742
51112W        W20993  10.757  28.002  10.480
51113W        W20994  40.424  19.157   0.877
51114W        W20995  39.857  41.480  10.586
51115W        W20996  40.500  20.252  11.414
51116W        W20997  36.982  24.045  12.979
51117W        W20998   5.817  32.559   2.178
51118W        W20999  13.197  30.560   2.228
51119W        W21000   4.751   7.314   1.282
51120W        W21001  26.195   6.428  13.865
51121W        W21002  39.438  42.931   2.346
51122W        W21003  34.987  15.618   2.241
51123W        W21004  36.080   7.405  14.775
51124W        W21005  22.631  15.811  12.912
51125W        W21006  38.497   7.755   0.733
51126W        W21007  11.326   5.318   4.158
51127W        W21008   6.225  17.152   4.205
51128W        W21009  14.105   0.431  12.455
51129W        W21010  12.710  36.094   4.195
51130W        W21011  38.988  30.020  12.056
51131W        W21012  31.623  29.520  12.889
51132W        W21013  16.318  10.326  12.366
51133W        W21014  17.669  18.566   4.623
51134W        W21015  41.896  11.313  14.501
51135W        W21016  21.754  31.101   4.667
51136W        W21017   3.861  25.152   2.884
51137W        W21018  15.158  22.127  12.524
51138W        W21019   9.680  44.324   1.716
51139W        W21020   6.874   8.793   3.823
51140W        W21021  33.512  29.127  10.013
51141W        W21022  33.470   4.402  12.401
51142W        W21023  34.963  40.319   4.323
51143W        W21024   0.472  12.319  10.967
51144W        W21025  11.191  26.030  11.591
51145W        W21026  40.372  44.936   0.416
51146W        W21027  40.542   0.488   3.792
51147W        W21028  26.528  37.991  14.938
51148W        W21029   4.923   1.458   4.670
51149W        W21030  33.492  11.748   4.697
51150W        W21031  34.941  25.181   2.781
51151W        W21032  42.480  42.887  13.411
51152W        W21033  30.560  24.532  10.911
51153W        W21034  41.304  10.309  10.977
51154W        W21035   2.829  34.487   1.715
51155W        W21036   9.706  37.040  10.976
51156W        W21037  43.852  37.519   2.809
51157W        W21038  24.676  44.472  13.385
51158W        W21039  11.299  28.116  13.467
51159W        W21040  41.993  44.932   0.351
51160W        W21041  44.457  27.514   0.794
51161W        W21042  36.053  35.546  13.055
51162W        W21043  11.836   6.920  10.621
51163W        W21044  44.917  16.728   3.691
51164W        W21045  29.668  30.620   1.288
51165W        W21046  17.648   5.715  13.012
51166W        W21047  40.046  29.926   2.701
51167W        W21048  13.306  41.369   2.807
51168W        W21049  19.258  22.193   3.718
51169W        W21050  22.580  41.953   1.416
51170W        W21051  33.023   9.823   1.265
51171W        W21052   9.225   6.423  13.063
51172W        W21053  35.870  40.520  14.954
51173W        W21054  35.069  44.870  12.449
51174W        W21055  28.601  11.294   3.225
51175W        W21056   7.289  29.164  10.633
51176W        W21057  16.590   3.739   3.736
51177W        W21058  30.997  37.045   3.797
51178W        W21059  24.550  25.700   4.762
51179W        W21060  22.129  28.104  14.778
51180W        W21061  15.677   7.415  13.976
51181W        W21062  31.986   9.671  11.435
51182W        W21063  35.039   6.921  13.467
51183W        W21064  32.099  14.652   2.663
51184W        W21065   2.896   2.316  12.035
51185W        W21066  33.595  42.916   0.937
51186W        W21067  25.031  21.037   0.446
51187W        W21068  29.144  13.184   4.619
51188W        W21069  40.489  32.406   4.633
51189W        W21070  21.728  18.724  13.373
51190W        W21071  34.062  11.866   0.436
51191W        W21072   2.840  43.950  12.446
51192W        W21073   3.375  24.538  13.358
51193W        W21074  17.191  21.752   2.682
51194W        W21075  17.777  38.471   1.240
51195W        W21076   7.390  34.454  13.916
51196W        W21077  36.370  30.569  10.448
51197W        W21078  11.272  33.390   2.695
51198W        W21079  31.469  24.123   4.823
51199W        W21080  21.750  16.272   1.718
51200W        W21081  31.075   4.314  10.563
51201W        W21082  27.674  28.577   1.728
51202W        W21083  17.148  18.684  13.526
51203W        W21084  24.050  21.618  14.339
51204W        W21085  37.573  11.141   0.800
51205W        W21086  31.077   9.791   4.164
51206W        W21087  23.085   1.303   4.646
51207W        W21088  13.635  17.695   2.859
51208W        W21089   0.879  43.400  12.506
51209W        W21090   1.412  28.113   3.738
51210W        W21091  18.584  10.636   3.847
51211W        W21092  38.026  14.810  12.995
51212W        W21093  14.266  33.925  13.008
51213W        W21094  32.013  41.864   1.253
51214W        W21095  33.008  25.024  12.571
51215W        W21096  24.503   6.373   4.268
51216W        W21097  44.386  44.840  14.799
51217W        W21098   3.848  31.628  10.625
51218W        W21099  32.129   0.300   3.278
51219W        W21100  32.051  34.003   0.811
51220W        W21101  15.228  14.132  10.612
51221W        W21102  26.649  37.395   1.379
51222W        W21103   5.258  31.454   3.146
51223W        W21104   1.367  37.398  10.579
51224W        W21105  24.683  10.655  11.884
51225W        W21106  43.796  28.539  12.392
51226W        W21107  23.675  35.429   0.847
51227W        W21108  17.238  11.761  12.023
51228W        W21109  39.396   5.238   1.751
51229W        W21110  41.455  19.640   3.367
51230W        W21111  39.540  33.524   3.267
51231W        W21112  35.097   9.787   3.667
51232W        W21113   4.788  32.955   3.791
51233W        W21114   4.918  22.243   4.236
51234W        W21115  21.586   4.396  11.490
51235W        W21116  42.997  14.186  10.897
51236W        W21117  30.460   4.762  12.527
51237W        W21118  12.798  16.208   5.316
51238W        W21119  17.122  25.202   0.943
51239W        W21120  32.613  15.226  12.932
51240W        W21121  16.195  38.509   1.803
51241W        W21122   6.902  32.919  11.419
51242W        W21123  31.903  33.599  11.125
51243W        W21124  22.525  22.213  11.549
51244W        W21125  23.043  19.621  13.950
51245W        W21126  27.114  11.281  14.274
51246W        W21127  34.547  15.196  12.374
51247W        W21128  34.450  11.322   3.745
51248W        W21129  24.116  36.897  13.479
51249W        W21130  25.969  26.071   5.665
51250W        W21131  18.764  32.038  12.416
51251W        W21132  33.040   9.230  14.330
51252W        W21133  20.108  37.998   1.758
51253W        W21134  16.226  24.518   2.316
51254W        W21135  43.400  42.480  12.535
51255W        W21136   7.710  12.232  14.903
51256W        W21137   0.398  15.094  10.977
51257W        W21138  14.626  29.113   1.334
51258W        W21139  35.482   8.685  14.023
51259W        W21140  19.245  43.846  14.762
51260W        W21141  33.412  40.919  11.572
51261W        W21142   7.393  13.115  12.913
51262W        W21143  42.908  36.901  14.866
51263W        W21144  41.966  42.407  11.941
51264W        W21145   3.798  37.402   4.671
51265W        W21146   6.373  21.666   3.840
51266W        W21147   8.258  22.227   1.705
51267W        W21148   2.857   5.214   2.671
51268W        W21149  35.384  18.715  13.354
51269W        W21150  27.027   8.285   4.794
51270W        W21151  38.880  37.979  10.508
51271W        W21152   2.395  37.043  14.969
51272W        W21153   1.320  38.996   4.221
51273W        W21154  34.476  42.918   4.678
51274W        W21155  43.864  38.392  11.921
51275W        W21156  26.601  38.867   9.962
51276W        W21157  41.311   3.933   2.785
51277W        W21158  17.160  20.606  12.957
51278W        W21159   4.764  24.617   0.870
51279W        W21160  29.122  42.309   1.231
51280W        W21161  27.028  31.100  11.123
51281W        W21162  38.346  36.065   2.374
51282W        W21163  42.788  44.806  11.392
51283W        W21164   4.851   0.751   5.316
51284W        W21165  33.407  16.233  13.019
51285W        W21166  42.797  30.543  14.022
51286W        W21167   3.215  33.955   4.264
51287W        W21168  44.008  29.063   4.319
51288W        W21169  20.742   5.295  14.937
51289W        W21170  28.547  34.566   0.466
51290W        W21171  30.982  24.158  10.942
51291W        W21172  16.582  20.269  11.078
51292W        W21173  26.070  15.749  10.953
51293W        W21174  10.755  38.020  14.942
51294W        W21175  17.574  40.393   0.389
51295W        W21176  40.834  22.646  12.570
51296W        W21177  18.759  36.362  14.994
51297W        W21178  18.179  23.987  14.856
51298W        W21179  32.514  26.700  14.299
51299W        W21180  26.201  43.820  13.973
51300W        W21181  13.283  37.459  10.999
51301W        W21182  28.942  16.736   0.480
51302W        W21183  14.206   8.402  11.505
51303W        W21184  11.748  31.599   1.347
51304W        W21185  14.155  37.472   3.768
51305W        W21186  26.104  33.977  10.485
51306W        W21187  10.243  23.057  11.425
51307W        W21188  18.279   3.313   0.412
51308W        W21189  40.799   0.379  10.582
51309W        W21190  39.399  35.963   3.262
51310W        W21191  26.675  27.967   3.798
51311W        W21192  25.127  38.891  14.925
51312W        W21193  27.618  41.507  13.836
51313W        W21194   7.877  26.206   2.380
51314W        W21195  17.777  36.351  12.952
51315W        W21196  29.974  28.443  13.055
51316W        W21197   0.854  34.382   3.154
51317W        W21198  35.547  18.770   2.869
51318W        W21199  25.667  21.604  14.999
51319W        W21200  36.060  10.667  11.504
51320W        W21201   8.864  33.502   2.405
51321W        W21202   1.387  30.469  13.979
51322W        W21203  17.669   9.811  13.531
51323W        W21204  10.342  40.305  11.542
51324W        W21205   7.801  39.476   4.190
51325W        W21206  37.398  42.375   4.707
51326W        W21207  35.876   6.685   4.809
51327W        W21208   8.183  25.066   3.186
51328W        W21209  30.946  25.705  10.445
51329W        W21210   7.315  22.033   3.275
51330W        W21211  23.523   9.188   3.254
51331W        W21212  38.524  37.067   3.825
51332W        W21213  28.044  16.109  12.343
51333W        W21214  21.604  20.550  11.598
51334W        W21215  23.721  22.224   3.708
51335W        W21216  18.628   1.446   4.237
51336W        W21217  11.794  37.439   1.363
51337W        W21218   6.315  37.949  13.855
51338W        W21219  24.979  39.495  12.480
51339W        W21220  20.568   9.246  10.902
51340W        W21221   7.352   8.248  13.806
51341W        W21222  22.099  23.090   3.734
51342W        W21223  25.594  26.057  11.087
51343W        W21224   9.813   6.908  14.790
51344W        W21225  21.118  20.747  11.390
51345W        W21226  39.927  25.557   0.347
51346W        W21227  43.362  18.791  14.018
51347W        W21228   5.797  10.692   4.217
51348W        W21229  12.228  16.097   0.947
51349W        W21230  15.796  36.474  11.395
51350W        W21231  21.090   3.730   2.213
51351W        W21232  19.605  10.301  11.973
51352W        W21233   8.222  17.707  10.404
51353W        W21234  16.660   8.863   2.182
51354W        W21235  42.015  40.527  11.489
51355W        W21236  26.083  26.073  12.556
51356W        W21237  20.551  42.524  13.982
51357W        W21238  41.451  17.196   0.312
51358W        W21239  31.148  44.326   0.367
51359W        W21240  22.183  16.703  13.388
51360W        W21241  41.440  19.163   3.354
51361W        W21242  11.750  11.854   3.681
51362W        W21243   2.417  35.972  10.415
51363W        W21244  14.184  29.510  12.441
51364W        W21245  26.538  18.598   3.807
51365W        W21246  43.814  23.038  13.811
51366W        W21247  43.345  30.031   4.615
51367W        W21248  40.409  21.668   0.734
51368W        W21249  18.190   5.437  13.544
51369W        W21250  14.695  27.686  13.382
51370W        W21251  34.592  16.227  11.919
51371W        W21252  31.954  24.702   2.800
51372W        W21253   6.360  16.603   2.750
51373W        W21254  20.202  27.977   4.612
51374W        W21255  20.528  10.875  13.446
51375W        W21256  43.412  28.549  13.930
51376W        W21257  33.485  32.391  10.101
51377W        W21258  40.974  42.354   0.403
51378W        W21259  38.512  31.474  14.344
51379W        W21260  31.053   7.684   9.449
51380W        W21261  19.176  17.302  14.499
51381W        W21262  39.506  27.139   0.932
51382W        W21263  30.146  17.300   3.329
51383W        W21264  26.677  35.031  11.516
51384W        W21265  42.356  12.799  12.882
51385W        W21266  15.672  14.789  13.365
51386W        W21267  32.073  34.035   4.697
51387W        W21268   3.309  41.029   4.296
51388W        W21269  29.429   5.403   4.328
51389W        W21270   1.863  39.444   4.817
51390W        W21271  34.980  36.948  13.855
51391W        W21272  19.739  24.073   1.915
51392W        W21273   9.332  18.582   4.774
51393W        W21274  18.564  33.581  13.494
51394W        W21275   6.283  11.629  14.767
51395W        W21276   7.290   6.884  12.063
51396W        W21277  38.341  37.073   4.121
51397W        W21278   0.339   3.447   1.221
51398W        W21279   6.876  27.682   1.446
51399W        W21280  14.723  12.309  14.924
51400W        W21281  27.453  36.944   0.339
51401W        W21282  41.832  43.842  13.808
51402W        W21283  33.424  28.148  10.957
51403W        W21284  27.613  37.492  11.884
51404W        W21285  21.710   4.808   3.782
51405W        W21286  11.174  43.482  12.904
51406W        W21287  23.187  29.111  11.107
51407W        W21288  31.068   4.901   2.275
51408W        W21289  33.566  43.924   2.386
51409W        W21290   3.830   4.766   0.739
51410W        W21291  33.389  26.017  12.969
51411W        W21292  26.060  28.940   3.864
51412W        W21293  19.675   0.391   4.322
51413W        W21294   6.682  39.056   1.244
51414W        W21295  19.159  23.532  12.050
51415W        W21296  29.519  30.010   3.200
51416W        W21297  21.661  40.423   2.353
51417W        W21298  13.327  25.519  12.845
51418W        W21299  34.059  21.631   3.751
51419W        W21300  21.635  36.956   4.693
51420W        W21301  43.910  36.561  14.435
51421W        W21302  12.185   8.815   4.827
51422W        W21303  35.929   1.838  10.955
51423W        W21304  18.242  37.911   4.346
51424W        W21305  38.497  44.976  14.467
51425W        W21306  43.434  28.582  11.961
51426W        W21307  12.281  12.170   1.748
51427W        W21308   5.319  35.091  13.529
51428W        W21309   9.738  42.350   3.818
51429W        W21310  18.098   7.823  14.435
51430W        W21311  25.080   1.896   2.676
51431W        W21312  37.955  21.662   2.665
51432W        W21313   0.449  44.410  12.040
51433W        W21314  41.985  41.455   0.743
51434W        W21315  22.515  38.548   1.783
51435W        W21316  22.720  38.390   0.418
51436W        W21317   8.361  33.075  12.971
51437W        W21318  38.453   0.420  13.796
51438W        W21319  35.424  30.425  11.079
51439W        W21320   3.265   9.703   2.814
51440W        W21321   3.738   6.745  14.824
51441W        W21322  21.573  11.652   2.295
51442W        W21323  22.546  36.558   3.631
51443W        W21324  44.863  29.524   0.307
51444W        W21325  26.691   1.421   2.745
51445W        W21326  13.669   5.324   3.861
51446W        W21327  15.274   4.439   0.336
51447W        W21328  42.018   4.442  11.877
51448W        W21329  17.069  30.477  10.545
51449W        W21330  22.729  40.421  13.365
51450W        W21331  17.201  16.729  14.345
51451W        W21332   3.266   6.395  12.522
51452W        W21333   1.754  13.350  14.420
51453W        W21334  44.914  43.015  10.453
51454W        W21335  39.532  35.058   0.967
51455W        W21336  32.486  43.334  10.478
51456W        W21337  27.472  24.631   0.931
51457W        W21338   3.353  10.877  10.645
51458W        W21339  11.784  23.693  10.430
51459W        W21340   2.331  39.469   1.756
51460W        W21341  13.739  31.490  13.347
51461W        W21342  42.401   3.807   0.359
51462W        W21343  11.169  36.003  14.830
51463W        W21344  33.482  37.536  14.915
51464W        W21345   4.422  28.087  12.046
51465W        W21346  13.838   8.757  12.542
51466W        W21347   7.802  35.582  11.471
51467W        W21348  34.927  27.503   1.239
51468W        W21349  34.915  33.057  12.029
51469W        W21350  32.920  15.291  12.840
51470W        W21351  17.133  33.016   2.189
51471W        W21352   5.881  10.848  10.558
51472W        W21353   8.340  25.116   2.854
51473W        W21354  18.140  14.618   1.811
51474W        W21355  21.560  15.315  14.473
51475W        W21356  13.812  38.350  11.897
51476W        W21357  16.630  34.487   1.298
51477W        W21358   5.258   5.432  12.033
51478W        W21359   6.298  20.129  12.919
51479W        W21360  16.174  14.610   0.928
51480W        W21361  36.983   6.344   4.671
51481W        W21362  16.256  38.823   3.176
51482W        W21363  38.462  41.976  11.406
51483W        W21364  18.283  33.943   2.848
51484W        W21365  34.864  17.774   2.357
51485W        W21366  39.391  28.956   2.335
51486W        W21367  44.426   1.946   3.645
51487W        W21368  12.707  17.673  10.624
51488W        W21369  20.108   3.450   2.215
51489W        W21370  35.497  31.588  11.568
51490W        W21371  11.269  44.842   4.352
51491W        W21372  36.843   3.307  13.062
51492W        W21373  11.809   6.341   5.086
51493W        W21374  34.929  11.705  13.505
51494W        W21375   3.930   2.814   0.300
51495W        W21376  32.060   9.682  10.602
51496W        W21377  18.065  10.862  10.908
51497W        W21378  20.608  34.545   4.793
51498W        W21379  29.105  33.113  14.976
51499W        W21380  25.555  20.713   0.453
51500W        W21381  15.274  21.028  14.310
51501W        W21382   9.250  11.134   0.426
51502W        W21383  28.014  40.333  10.569
51503W        W21384  39.507   1.785  14.335
51504W        W21385  25.612   8.878   2.781
51505W        W21386   7.763  14.325  13.867
51506W        W21387   1.249   4.390  13.960
51507W        W21388  17.559   7.326   0.739
51508W        W21389  20.635  36.507   1.300
51509W        W21390  29.443  27.959  13.942
51510W        W21391  25.673   3.329   5.203
51511W        W21392  12.296  36.476   1.892
51512W        W21393  35.901  33.985   1.450
51513W        W21394  42.904  12.653  11.436
51514W        W21395   2.814   6.781  13.316
51515W        W21396  34.004  14.662  11.013
51516W        W21397  37.375  35.516  14.395
51517W        W21398  41.041  28.460  13.018
51518W        W21399  38.934   1.333  13.540
51519W        W21400   3.902  39.392  11.533
51520W        W21401  23.205  26.088  11.081
51521W        W21402   7.853   2.757  10.488
51522W        W21403  20.664   4.771  11.085
51523W        W21404  39.939  12.801  12.350
51524W        W21405  22.998  38.390  14.029
51525W        W21406  39.557  31.901  14.409
51526W        W21407  38.411  11.816   3.301
51527W        W21408  44.863  23.117  13.894
51528W        W21409  26.077  14.807   2.737
51529W        W21410   1.260  13.123   4.253
51530W        W21411  25.001  37.444  10.973
51531W        W21412  32.962   4.422   1.809
51532W        W21413  44.923  22.093  13.458
51533W        W21414  27.124  40.052  13.494
51534W        W21415  17.146  34.943  12.564
51535W        W21416  25.109  16.720  12.469
51536W        W21417   2.459  41.525  12.003
51537W        W21418  12.824   8.754   3.688
51538W        W21419  35.545  37.060   2.671
51539W        W21420  26.032  36.880  13.895
51540W        W21421   6.222  39.879  12.965
51541W        W21422   7.233  30.541  14.309
51542W        W21423   0.814  22.137  12.497
51543W        W21424  39.937   6.213  14.990
51544W        W21425  23.157  20.682   1.263
51545W        W21426  12.260   9.252   2.319
51546W        W21427  24.556  30.627   0.408
51547W        W21428  35.865  28.167   2.402
51548W        W21429  44.450   8.402  12.858
51549W        W21430  12.361  40.408   4.607
51550W        W21431  21.045   1.312   5.789
51551W        W21432  25.136  12.818  12.498
51552W        W21433  26.669  18.143  13.945
51553W        W21434   1.246   5.821   1.347
51554W        W21435  42.488  32.432   4.706
51555W        W21436  41.439  38.569   2.706
51556W        W21437  33.470  22.658  14.001
51557W        W21438  20.728  26.541  12.915
51558W        W21439   4.256  18.052  12.895
51559W        W21440   6.788  41.397   0.331
51560W        W21441  42.390  20.069  14.794
51561W        W21442  18.276  44.352  11.872
51562W        W21443  40.835   4.215   2.715
51563W        W21444  15.089  43.932  13.039
51564W        W21445   6.221  37.060  13.015
51565W        W21446  34.431  14.226  10.445
51566W        W21447  16.288  12.254  13.891
51567W        W21448  11.634   7.387  13.810
51568W        W21449  18.096   4.208   4.657
51569W        W21450  28.182  33.605   4.764
51570W        W21451  17.104  14.251  14.895
51571W        W21452   5.228  43.375   0.934
51572W        W21453  35.963   2.786   2.713
51573W        W21454  16.245  14.328  10.532
51574W        W21455  13.825  36.420   2.666
51575W        W21456  33.955  28.967  13.354
51576W        W21457  24.160  13.613  12.529
51577W        W21458  23.494   6.271  11.078
51578W        W21459  27.585  13.711  11.961
51579W        W21460  23.593  28.164   2.285
51580W        W21461  11.331  15.179  10.565
51581W        W21462  38.862   5.212  13.408
51582W        W21463  42.450  10.247   4.210
51583W        W21464  12.362  41.370  11.423
51584W        W21465  22.731   5.387  11.569
51585W        W21466  16.295   5.198   4.811
51586W        W21467  34.571  41.297  11.859
51587W        W21468   3.952  12.748   4.681
51588W        W21469  25.577  23.551   3.241
51589W        W21470   6.301  33.053   1.731
51590W        W21471  29.657  37.032   4.153
51591W        W21472  17.282   8.684  14.516
51592W        W21473   8.213   1.889   2.866
51593W        W21474   0.828  29.028   1.737
51594W        W21475   5.319  44.317   3.207
51595W        W21476  41.380  19.553   2.724
51596W        W21477  35.984  25.492  14.943
51597W        W21478  43.943  30.462  13.843
51598W        W21479  34.587  36.852  10.581
51599W        W21480   4.245  15.203   0.321
51600W        W21481  39.064   3.862  14.337
51601W        W21482  11.291   2.336  12.837
51602W        W21483   8.331  21.066   3.728
51603W        W21484  36.405  38.067  12.968
51604W        W21485  26.093   0.427   2.891
51605W        W21486  40.538  17.140  10.482
51606W        W21487  42.029  21.191  14.447
51607W        W21488  26.696  13.111   0.731
51608W        W21489  38.958  17.747  11.446
51609W        W21490  19.104  26.561   0.368
51610W        W21491   7.740   8.685   0.254
51611W        W21492  33.925  18.692  14.335
51612W        W21493  17.652   4.367  11.533
51613W        W21494   8.816   4.921   2.277
51614W        W21495   6.239   9.170   1.277
51615W        W21496  42.897   5.298  12.993
51616W        W21497   9.380  43.844  10.985
51617W        W21498   2.891  11.131   4.721
51618W        W21499  23.173  27.656   4.697
51619W        W21500   9.850  15.137   0.458
51620W        W21501   9.271  14.609  13.490
51621W        W21502  37.896  11.225   1.389
51622W        W21503  42.979  28.670   2.776
51623W        W21504  21.566  12.324  11.880
51624W        W21505  18.096  35.414   4.793
51625W        W21506  38.873  12.690   3.711
51626W        W21507  30.625   1.761  12.542
51627W        W21508  28.145  21.613  11.007
51628W        W21509  40.525  33.543   2.713
51629W        W21510  17.235  32.972   1.432
51630W        W21511   9.680  11.766  10.504
51631W        W21512   6.808   2.332  14.281
51632W        W21513   8.194  32.909   0.269
51633W        W21514  29.601   3.311  11.478
51634W        W21515  13.167  33.903   0.287
51635W        W21516   0.432  22.149  14.426
51636W        W21517  12.225   3.768   3.859
51637W        W21518  44.850   7.826   2.264
51638W        W21519  24.067  35.501  14.007
51639W        W21520  36.993   2.913  14.343
51640W        W21521   5.793   6.322   1.745
51641W        W21522  27.026  42.970  13.516
51642W        W21523  38.920  29.933  11.495
51643W        W21524  27.533  40.927  12.937
51644W        W21525  18.702   8.295  11.531
51645W        W21526   4.871  41.854   0.353
51646W        W21527  36.536   2.306  12.999
51647W        W21528  22.549  29.569   2.757
51648W        W21529  16.301  29.443  13.024
51649W        W21530  41.300   2.891   4.256
51650W        W21531  27.689  24.092   1.815
51651W        W21532  16.691  23.068   2.396
51652W        W21533   4.823   7.890   4.648
51653W        W21534  30.133  18.237  10.504
51654W        W21535  24.125  41.468   0.316
51655W        W21536  23.080   2.943  11.475
51656W        W21537  36.545   4.844   2.234
51657W        W21538   2.320  36.360  10.596
51658W        W21539  11.670  22.619   3.369
51659W        W21540  28.161   9.725  12.441
51660W        W21541  22.175   4.436  14.335
51661W        W21542   4.885  26.674   1.437
51662W        W21543  23.514   6.354   4.649
51663W        W21544  13.119  23.564  13.837
51664W        W21545  40.884   0.443   1.927
51665W        W21546  31.012  13.632  11.415
51666W        W21547  29.527  30.657  13.332
51667W        W21548  40.495   4.822  10.041
51668W        W21549  34.510  22.678  11.084
51669W        W21550   5.389  11.328  14.813
51670W        W21551  42.374  23.048  10.514
51671W        W21552  16.711  21.076  10.632
51672W        W21553  32.083  15.651   1.897
51673W        W21554   4.225  44.380  10.905
51674W        W21555  21.060  14.628   1.722
51675W        W21556  12.346  28.679  10.098
51676W        W21557  25.637  44.933  14.400
51677W        W21558  42.301  42.868  11.573
51678W        W21559  24.020  28.962  12.353
51679W        W21560  22.068  41.330   0.901
51680W        W21561  25.547  20.604   3.700
51681W        W21562  34.901  18.574   3.801
51682W        W21563  10.322   8.357   3.178
51683W        W21564   7.299   0.761  14.381
51684W        W21565  42.850  26.685   1.916
51685W        W21566  28.163  15.149   3.272
51686W        W21567  42.786  20.633  11.096
51687W        W21568   1.412  31.959  14.912
51688W        W21569  38.394  27.680   4.336
51689W        W21570  15.631   1.893  14.777
51690W        W21571   4.716  38.569  11.472
51691W        W21572  44.981  10.300  12.369
51692W        W21573  20.171   9.726   1.843
51693W        W21574  27.139   4.369  13.406
51694W        W21575   0.494   0.903  12.006
51695W        W21576  31.645  24.018   3.801
51696W        W21577  19.590  19.074   1.765
51697W        W21578  41.454   0.778   4.672
51698W        W21579  11.318  15.177   4.286
51699W        W21580  34.563  30.592   0.948
51700W        W21581  11.828   3.808  13.846
51701W        W21582  13.649  40.545   0.884
51702W        W21583   9.829  27.115   0.848
51703W        W21584  14.653   1.851   3.769
51704W        W21585  39.021  14.818  11.461
51705W        W21586  37.894  36.488  11.474
51706W        W21587  35.595   5.924   0.309
51707W        W21588  37.347  23.058  11.473
51708W        W21589   1.315  26.496   2.680
51709W        W21590   5.710   8.689   2.715
51710W        W21591  26.460  20.697  14.471
51711W        W21592  41.789   2.377  12.400
51712W        W21593   7.363   4.841   0.763
51713W        W21594  10.828  14.094  10.905
51714W        W21595  44.270  10.281  14.818
51715W        W21596  11.752  11.197  10.503
51716W        W21597  30.006   3.869   0.924
51717W        W21598  41.394  22.539  11.916
51718W        W21599  29.074  43.775   3.357
51719W        W21600  14.620  10.305   0.787
51720W        W21601  32.591  25.074  14.922
51721W        W21602  35.088  30.974   3.271
51722W        W21603  44.990  31.036  14.465
51723W        W21604   7.259  19.692  13.899
51724W        W21605  24.134  21.148  13.368
51725W        W21606  29.658   9.199  11.484
51726W        W21607  40.950   6.714  13.868
51727W        W21608  34.559  30.644  12.965
51728W        W21609  18.656  37.527  11.590
51729W        W21610  39.888  13.249   2.403
51730W        W21611  33.550  23.032  14.025
51731W        W21612  12.243  34.476   1.272
51732W        W21613  42.938  44.454   2.771
51733W        W21614  37.897  26.002   1.867
51734W        W21615  24.974   6.886  10.419
51735W        W21616   2.908  39.321  11.478
51736W        W21617   8.813  17.066   3.863
51737W        W21618  35.933  37.077  10.453
51738W        W21619  44.412  41.865   4.727
51739W        W21620  31.045   1.442   4.701
51740W        W21621  38.985   3.423   2.196
51741W        W21622  13.146   4.297   0.437
51742W        W21623  42.966   9.163   3.802
51743W        W21624  17.129  22.576  12.351
51744W        W21625  34.898  36.398  14.293
51745W        W21626  14.100  15.802  10.928
51746W        W21627  19.653  28.965   2.751
51747W        W21628  11.750   4.445  14.968
51748W        W21629  12.732  40.825   0.802
51749W        W21630  41.329  29.605   3.146
51750W        W21631   4.779   7.250  12.842
51751W        W21632  41.313  21.037  10.570
51752W        W21633  19.094   7.183  12.433
51753W        W21634  35.018  28.454  14.450
51754W        W21635  28.058  43.917   3.642
51755W        W21636  19.690   3.220  13.808
51756W        W21637  22.217   9.743  13.812
51757W        W21638  32.996   3.419   1.795
51758W        W21639  28.137  28.056   3.807
51759W        W21640  18.174  10.817  14.484
51760W        W21641  35.990   1.782   0.868
51761W        W21642   7.766  28.547   2.241
51762W        W21643  43.273  37.085  13.973
51763W        W21644  21.536   2.955   2.670
51764W        W21645  12.292  36.476  11.984
51765W        W21646  17.768  41.975  13.963
51766W        W21647  10.222  22.731   0.813
51767W        W21648  31.555  25.621   0.439
51768W        W21649  14.691   3.340   9.947
51769W        W21650  15.785  37.956  12.888
51770W        W21651  15.739  17.184  12.830
51771W        W21652  41.808   9.251   3.293
51772W        W21653  16.770  17.254   1.374
51773W        W21654  19.725  12.785  11.589
51774W        W21655  20.663  29.932  13.307
51775W        W21656  15.130  10.668   4.819
51776W        W21657   3.267   8.688   1.426
51777W        W21658  19.680   7.405  14.286
51778W        W21659  27.061  10.242   0.478
51779W        W21660  27.502  31.549  14.020
51780W        W21661  11.650  29.447   4.324
51781W        W21662  35.859  40.964   2.277
51782W        W21663  22.104  23.064   1.355
51783W        W21664  23.683  37.873  11.957
51784W        W21665  33.029  11.851   4.195
51785W        W21666  17.121  40.981  13.900
51786W        W21667  41.856  17.127   4.700
51787W        W21668  11.290  31.619   3.641
51788W        W21669  38.009   7.199   0.740
51789W        W21670  36.927  18.591   3.771
51790W        W21671   1.803  34.370   1.903
51791W        W21672  20.029  15.811   2.700
51792W        W21673  26.054  35.423   1.405
51793W        W21674  13.271  44.853   0.408
51794W        W21675  32.489   8.767   3.643
51795W        W21676  37.491  23.025  14.515
51796W        W21677  37.580   4.769   2.360
51797W        W21678  19.688  22.571  14.506
51798W        W21679  25.478  42.295   3.666
51799W        W21680  40.547  32.444  13.791
51800W        W21681  28.044  29.667  10.448
51801W        W21682  26.122  22.519  14.898
51802W        W21683  15.581  10.281  10.430
51803W        W21684  33.025  20.670  13.923
51804W        W21685  29.592  38.433   1.803
51805W        W21686  10.872  26.551   0.287
51806W        W21687   1.734  22.738  13.950
51807W        W21688  30.136  33.990   4.308
51808W        W21689  32.570  25.076   1.754
51809W        W21690  18.072   8.170   1.934
51810W        W21691   8.846  23.195   4.271
51811W        W21692  22.570   4.429   2.247
51812W        W21693  42.893   1.978   1.246
51813W        W21694  20.233  27.522  14.925
51814W        W21695  35.959  33.007  10.521
51815W        W21696   2.232  36.457   2.260
51816W        W21697  41.907   4.283  10.499
51817W        W21698  11.866   5.759  13.022
51818W        W21699  21.196  23.207  12.969
51819W        W21700  15.801  41.820  14.996
51820W        W21701  36.969   6.875   4.181
51821W        W21702  24.196  36.519  14.996
51822W        W21703  18.752  24.190  14.023
51823W        W21704  28.113  40.845   4.266
51824W        W21705  21.240  39.550  11.591
51825W        W21706   8.295  38.915   1.323
51826W        W21707  30.514  36.922   4.611
51827W        W21708  31.042  25.573  11.372
51828W        W21709  40.875  29.501   1.739
51829W        W21710  10.834  24.049   1.436
51830W        W21711  27.953  34.460  10.966
51831W        W21712  38.048   7.728  11.013
51832W        W21713  24.684  41.979  14.831
51833W        W21714  19.048   6.923  11.935
51834W        W21715  33.567  20.759  12.498
51835W        W21716  41.034  33.531  13.994
51836W        W21717   7.730  32.423   4.216
51837W        W21718  18.762  28.553   3.789
51838W        W21719  34.389  28.490  14.872
51839W        W21720  15.211  19.569   4.832
51840W        W21721  34.568  36.477   3.715
51841W        W21722  20.080  26.967  11.983
51842W        W21723   6.246  27.653   3.302
51843W        W21724  11.343  37.559  11.468
51844W        W21725  31.960  34.001   2.413
51845W        W21726  23.677   1.764   4.317
51846W        W21727  43.342  16.122   3.831
51847W        W21728  15.747   4.707   0.875
51848W        W21729  34.022  38.516   3.247
51849W        W21730  11.357  26.959  10.484
51850W        W21731  11.672  41.516   4.225
51851W        W21732   7.797  35.555   4.331
51852W        W21733  31.452   3.748   1.430
51853W        W21734  18.212   8.335   3.165
51854W        W21735  44.899  29.463   0.732
51855W        W21736  31.538  13.674   0.325
51856W        W21737   9.163   2.353   0.370
51857W        W21738  43.980  42.889  11.043
51858W        W21739  34.980  19.574   4.790
51859W        W21740  40.016   4.445   4.137
51860W        W21741   4.443  17.289   2.264
51861W        W21742  31.573  39.976   4.655
51862W        W21743  33.874  22.638  11.528
51863W        W21744   8.858   0.920   1.869
51864W        W21745  28.454  29.430   2.370
51865W        W21746  12.139  34.547  13.008
51866W        W21747  36.418  33.534   1.731
51867W        W21748  13.294  25.511  12.556
51868W        W21749  28.646   9.883  12.411
51869W        W21750  28.523  20.035   3.650
51870W        W21751  12.713  29.633   1.364
51871W        W21752  28.467   0.288  10.958
51872W        W21753  21.651   1.237  13.400
51873W        W21754  14.320  15.304   1.891
51874W        W21755  41.924  32.130   4.120
51875W        W21756  13.821  17.607  10.599
51876W        W21757  30.158  19.117   1.928
51877W        W21758  25.018  38.403  13.794
51878W        W21759  21.731  36.864   4.327
51879W        W21760  19.193  25.124  14.444
51880W        W21761  24.696   5.244  12.408
51881W        W21762   6.234  31.438   0.918
51882W        W21763  11.731  20.550   1.448
51883W        W21764  33.957  31.473  11.949
51884W        W21765  23.723   3.241   0.915
51885W        W21766   9.803  15.121   1.287
51886W        W21767   8.223   6.891   3.723
51887W        W21768  16.155  29.537   4.601
51888W        W21769  16.233   2.907  11.474
51889W        W21770  26.130   1.392  13.834
51890W        W21771  23.658  18.722  10.514
51891W        W21772  22.517  34.052   4.219
51892W        W21773  32.428   8.717  13.973
51893W        W21774  20.041  16.227   2.846
51894W        W21775  44.362  16.626   0.777
51895W        W21776  30.097   5.326  11.937
51896W        W21777  40.836  42.475   3.865
51897W        W21778  12.275  24.583  14.852
51898W        W21779  31.033   8.868   0.463
51899W        W21780  32.000   6.273  13.455
51900W        W21781   1.436  30.033  12.477
51901W        W21782  11.854  17.072   1.850
51902W        W21783  39.336  41.987  12.069
51903W        W21784  21.072  35.108   4.220
51904W        W21785   4.443   0.329   2.419
51905W        W21786  40.911  14.164  14.017
51906W        W21787   4.739  12.846   4.295
51907W        W21788  12.720  37.344   4.627
51908W        W21789  38.494  16.107  11.924
51909W        W21790   3.287  25.479  13.055
51910W        W21791  27.948   0.309   4.732
51911W        W21792   7.903  26.145   0.249
51912W        W21793   9.819  33.930  12.573
51913W        W21794  19.133  38.930  14.482
51914W        W21795  17.160  19.637  14.934
51915W        W21796  16.707  39.509   1.810
51916W        W21797  13.174   0.930   9.999
51917W        W21798   3.798  35.492  11.550
51918W        W21799  40.431   1.261   3.642
51919W        W21800  31.059   2.226   0.436
51920W        W21801  28.654  21.052  11.456
51921W        W21802  40.336  31.642  12.947
51922W        W21803   7.748   3.848  11.003
51923W        W21804  28.661   2.825  14.785
51924W        W21805  44.320  38.513   2.282
51925W        W21806  22.678  40.483  11.856
51926W        W21807   7.296  33.911  12.400
51927W        W21808   8.389  30.071   3.225
51928W        W21809  23.584  43.004  12.388
51929W        W21810   4.401  17.712  13.935
51930W        W21811  20.633  16.153  12.507
51931W        W21812   6.314  17.603  10.903
51932W        W21813  10.636  18.134  13.844
51933W        W21814  15.629   7.835  14.436
51934W        W21815  13.702  20.528  11.993
51935W        W21816  19.581  44.930  14.961
51936W        W21817   0.408  24.047   1.820
51937W        W21818  28.437   1.949   1.826
51938W        W21819  29.614  25.598  12.031
51939W        W21820  39.442  27.447  11.855
51940W        W21821  28.672  38.870  12.466
51941W        W21822   2.835   8.211   3.769
51942W        W21823  28.160  18.269   4.352
51943W        W21824  24.592   8.280  14.342
51944W        W21825  32.541  32.055   3.831
51945W        W21826  44.864  39.472  13.397
51946W        W21827   0.867  14.206   3.282
51947W        W21828  44.892  17.219  10.974
51948W        W21829  40.926   3.944   3.295
51949W        W21830  36.374  34.068  14.328
51950W        W21831  24.616  35.992   2.875
51951W        W21832  28.651  31.489  14.351
51952W        W21833  26.135  39.989  11.553
51953W        W21834  13.129  23.558  10.524
51954W        W21835   5.417  27.066   4.150
51955W        W21836  22.584  19.102   1.435
51956W        W21837  30.476  28.570  10.477
51957W        W21838  43.871  26.091  12.047
51958W        W21839  34.460  23.668  11.056
51959W        W21840  26.478  11.848  11.512
51960W        W21841  14.649   2.444   4.805
51961W        W21842  19.535   2.890  14.839
51962W        W21843   1.352  37.937  13.331
51963W        W21844  38.917  25.213  12.022
51964W        W21845  22.620  30.094  13.903
51965W        W21846  39.435  37.879   4.273
51966W        W21847   3.939  10.795   2.335
51967W        W21848   8.211  15.643   0.758
51968W        W21849  28.452  21.630   0.480
51969W        W21850  25.491  11.650   4.314
51970W        W21851  43.346  32.607   0.466
51971W        W21852  22.585  20.175   2.296
51972W        W21853  35.960   2.755   2.254
51973W        W21854   1.383  22.521   0.797
51974W        W21855  16.203  29.635  14.486
51975W        W21856  35.596   2.871  12.936
51976W        W21857  26.576  26.151   2.668
51977W        W21858  13.184  11.679  13.315
51978W        W21859  33.874   6.822   4.345
51979W        W21860  21.530  15.815  14.959
51980W        W21861   5.411  43.780   4.218
51981W        W21862   3.324   5.239  12.936
51982W        W21863  39.336  42.429   2.857
51983W        W21864  43.943  37.579  11.481
51984W        W21865  14.277  15.194  13.880
51985W        W21866  40.893  12.349  10.452
51986W        W21867  13.268  14.184   2.383
51987W        W21868  30.582  34.568  10.895
51988W        W21869  36.897   7.824  14.843
51989W        W21870  34.076  17.761   4.285
51990W        W21871  12.196  31.057  11.440
51991W        W21872  13.816   6.363  14.335
51992W        W21873  44.907  19.177   1.823
51993W        W21874  43.461  37.370   1.353
51994W        W21875  13.343  10.669   2.399
51995W        W21876   7.318  40.956  13.851
51996W        W21877  15.315  27.045  12.004
51997W        W21878  43.490   9.807  12.556
51998W        W21879   6.232  27.106  11.975
51999W        W21880   5.722  43.850  11.525
52000W        W21881  12.709  44.338  14.283
52001W        W21882  38.935  43.783  11.874
52002W        W21883  37.346  15.215  13.973
52003W        W21884  36.464   2.935  12.837
52004W        W21885  36.558   8.212   3.748
52005W        W21886   2.827  14.247  10.930
52006W        W21887  21.191   1.413   5.103
52007W        W21888  25.087  32.923  11.465
52008W        W21889  12.832  21.664  14.837
52009W        W21890   6.398  37.923   4.660
52010W        W21891  39.380  20.062   4.282
52011W        W21892  31.457  22.552  10.641
52012W        W21893  43.429  17.706   3.821
52013W        W21894  19.634  21.748   2.746
52014W        W21895  34.996  44.829   2.283
52015W        W21896  35.546  28.443  12.569
52016W        W21897  42.316  20.218  12.489
52017W        W21898  18.614  12.842  11.524
52018W        W21899  40.546  14.601   4.767
52019W        W21900   6.293  40.023   0.285
52020W        W21901  15.227   2.275   2.796
52021W        W21902   2.439  43.467   3.218
52022W        W21903  30.054  16.134   0.846
52023W        W21904  41.861  34.118   3.343
52024W        W21905  24.602  43.837  11.985
52025W        W21906  24.641  26.563  11.539
52026W        W21907  38.937  36.486  11.068
52027W        W21908   1.372  16.199  13.961
52028W        W21909  27.673  29.664   3.276
52029W        W21910  41.830  34.461   2.780
52030W        W21911  14.181   6.759  13.791
52031W        W21912  13.679  33.600  11.546
52032W        W21913  13.696  17.279   0.952
52033W        W21914  20.135  10.831   0.908
52034W        W21915  21.166   7.236   4.762
52035W        W21916  40.541   9.160  14.318
52036W        W21917   5.355  17.215  14.382
52037W        W21918  14.308   0.794   3.869
52038W        W21919  33.008   3.380  10.471
52039W        W21920  10.820  26.647  13.415
52040W        W21921  44.815  34.949  11.126
52041W        W21922  27.996  20.194   0.871
52042W        W21923  35.520   6.797  13.535
52043W        W21924  10.691  40.042   4.701
52044W        W21925  22.629   5.795   4.137
52045W        W21926   0.869  34.076   3.693
52046W        W21927  17.748  39.863  13.468
52047W        W21928  38.492  20.541   0.334
52048W        W21929  24.209  44.481   0.349
52049W        W21930  18.227   4.352   2.704
52050W        W21931  41.913  44.904  13.421
52051W        W21932  26.040   2.290   4.634
52052W        W21933  39.890   2.811  14.462
52053W        W21934  18.661   5.797  11.404
52054W        W21935  39.848  11.204  13.376
52055W        W21936  14.683  20.586   3.302
52056W        W21937  35.931  44.260   4.643
52057W        W21938  30.470  18.582  11.406
52058W        W21939  17.261   1.347   4.628
52059W        W21940  23.662   6.182   0.482
52060W        W21941   5.839  29.447   4.215
52061W        W21942  32.916  39.440  13.326
52062W        W21943  14.179  21.126   4.824
52063W        W21944  12.855  37.946  10.973
52064W        W21945  26.063  13.226   4.269
52065W        W21946  22.227  15.604  13.829
52066W        W21947   8.172  24.092  11.932
52067W        W21948  38.404  26.591   1.767
52068W        W21949   3.745  37.340   3.323
52069W        W21950  29.663  19.186   0.320
52070W        W21951  16.099  32.417   4.328
52071W        W21952  18.751   3.243  14.417
52072W        W21953   3.796  18.550  12.466
52073W        W21954  17.114  37.344   4.290
52074W        W21955   0.316  39.540   2.211
52075W        W21956  13.147  42.863   2.770
52076W        W21957  31.978  34.526  14.346
52077W        W21958  25.538  39.040  12.939
52078W        W21959  21.090  31.985   1.259
52079W        W21960  38.539  24.636   2.349
52080W        W21961  21.558   8.248  10.431
52081W        W21962  40.929  19.754  11.583
52082W        W21963  24.009   0.312  11.427
52083W        W21964  41.932  17.243  10.543
52084W        W21965  39.393  28.981  11.599
52085W        W21966  22.215  33.966  14.790
52086W        W21967  43.330   6.911   3.835
52087W        W21968  22.226  32.482   4.692
52088W        W21969  32.008  29.554   2.290
52089W        W21970   9.873  30.089   3.191
52090W        W21971  31.528  12.679  11.960
52091W        W21972  28.071  26.033  12.089
52092W        W21973  29.527  38.529  10.502
52093W        W21974  42.457   8.182   3.649
52094W        W21975  21.082   5.782   4.673
52095W        W21976  24.680  14.274   2.707
52096W        W21977  32.568  23.680  14.894
52097W        W21978  43.920  21.622  13.957
52098W        W21979  20.092  12.738  14.386
52099W        W21980  35.939   4.940   4.611
52100W        W21981  38.547   2.895  11.887
52101W        W21982   3.908  23.209  14.403
52102W        W21983   1.373  28.005  10.459
52103W        W21984  25.062  11.853  10.502
52104W        W21985  20.157  26.008   4.264
52105W        W21986  10.341  13.833   4.133
52106W        W21987  41.472  35.404  11.593
52107W        W21988  44.460   7.236  11.459
52108W        W21989  18.676  26.021   1.899
52109W        W21990  39.849  25.972   0.885
52110W        W21991  44.892   4.384  11.500
52111W        W21992  31.476  21.585  14.375
52112W        W21993   2.733  26.074  14.796
52113W        W21994  38.554  34.430   2.886
52114W        W21995  38.895  41.349   1.301
52115W        W21996  20.068  23.620   2.262
52116W        W21997  24.552  26.176  10.568
52117W        W21998  42.342  30.494   4.330
52118W        W21999  38.516  40.985  13.398
52119W        W22000   3.385  40.045  12.570
52120W        W22001  39.923  14.631   3.831
52121W        W22002  23.494   3.259  14.958
52122W        W22003  20.112   2.927  14.017
52123W        W22004  20.246  23.711  11.421
52124W        W22005  40.331  36.912   2.715
52125W        W22006  14.797  31.994   0.755
52126W        W22007  36.900  14.777   3.316
52127W        W22008  23.131  28.676  14.374
52128W        W22009  31.100  26.465   4.285
52129W        W22010  22.995  12.830  12.436
52130W        W22011  44.878   6.848  11.968
52131W        W22012  14.109  22.686   2.209
52132W        W22013  34.610  31.644   0.886
52133W        W22014  14.637   6.681  11.917
52134W        W22015   3.388  15.802  10.117
52135W        W22016   6.746  26.673  12.917
52136W        W22017   6.877  26.955   2.677
52137W        W22018  44.891   1.350  10.502
52138W        W22019  26.541   4.276   0.483
52139W        W22020   0.960   5.434  11.382
52140W        W22021   5.892  21.034   0.888
52141W        W22022  37.445  40.020   0.291
52142W        W22023   4.411   9.262   3.669
52143W        W22024  29.616  26.037   2.758
52144W        W22025  28.943  21.251  10.915
52145W        W22026  38.049  25.674   0.859
52146W        W22027  16.711  31.469  14.027
52147W        W22028  18.094  30.413  12.064
52148W        W22029  32.141  12.659  10.102
52149W        W22030  15.650   2.326  13.454
52150W        W22031  37.417  39.063  10.608
52151W        W22032  17.658   0.811  10.550
52152W        W22033  15.757  12.241  11.426
52153W        W22034  41.370   3.244   0.363
52154W        W22035  37.352  14.259   4.350
52155W        W22036  34.512  36.033   2.240
52156W        W22037  40.492   9.832   2.816
52157W        W22038  37.894  15.085   2.850
52158W        W22039  18.063  21.597   1.827
52159W        W22040  11.213  15.237   4.668
52160W        W22041  22.571  31.103   1.255
52161W        W22042  16.719   6.848  10.437
52162W        W22043  40.948  26.198  11.960
52163W        W22044  36.928  28.028   3.822
52164W        W22045  38.441  30.415   2.250
52165W        W22046  31.097  28.508  14.503
52166W        W22047   2.900  41.406  11.484
52167W        W22048  41.039  21.537  12.515
52168W        W22049  19.723  30.519  13.006
52169W        W22050  22.208  35.009   0.935
52170W        W22051  29.073   9.875   1.875
52171W        W22052  43.947  32.533  12.500
52172W        W22053  18.151  43.434   0.730
52173W        W22054  15.693  31.404   1.428
52174W        W22055  38.053  16.221  13.948
52175W        W22056  38.529   7.824   1.861
52176W        W22057  15.588  42.373   3.328
52177W        W22058   5.913   4.938   3.637
52178W        W22059   7.706  12.159  12.405
52179W        W22060   1.315  21.212   5.154
52180W        W22061  43.391   2.813  14.325
52181W        W22062  25.036  35.466  11.576
52182W        W22063  41.864   7.728   0.257
52183W        W22064  17.742  32.635   0.471
52184W        W22065  11.681  13.638  13.444
52185W        W22066   7.214  35.563   1.783
52186W        W22067  41.898  33.430  14.976
52187W        W22068  17.295   6.786  14.958
52188W        W22069  30.542  38.508  10.451
52189W        W22070  42.002  28.493  13.936
52190W        W22071   5.217  10.254  10.450
52191W        W22072  17.090  29.615  14.355
52192W        W22073  35.436   7.704  12.422
52193W        W22074  39.938  43.467  13.851
52194W        W22075  10.267  41.020   1.928
52195W        W22076  43.361  12.847   0.319
52196W        W22077   7.747   5.882   2.262
52197W        W22078  19.756  26.110  12.845
52198W        W22079  22.175   0.780   2.827
52199W        W22080  40.040  18.235  12.580
52200W        W22081  28.653  30.097   2.884
52201W        W22082  17.766  29.060  11.017
52202W        W22083  14.634   3.359  14.424
52203W        W22084  13.142  36.886  10.539
52204W        W22085  14.177  28.124  12.519
52205W        W22086  16.149  16.078  14.501
52206W        W22087  17.770  17.568  11.396
52207W        W22088  31.004  37.410  10.148
52208W        W22089  33.401   9.787  13.963
52209W        W22090   5.822  25.055   4.121
52210W        W22091  10.643  33.456  14.907
52211W        W22092  16.805  16.607   1.264
52212W        W22093   1.286   0.744  13.469
52213W        W22094  10.331  21.171   3.349
52214W        W22095  27.073   7.705  12.524
52215W        W22096  42.876  35.947  11.597
52216W        W22097  33.578   5.832  13.382
52217W        W22098  32.084  42.967  11.503
52218W        W22099  21.643   6.419  12.045
52219W        W22100  35.418  38.965  10.409
52220W        W22101   4.314  17.687  10.470
52221W        W22102  12.160  11.223  12.408
52222W        W22103  14.812  24.541   3.264
52223W        W22104  32.069  31.634  12.823
52224W        W22105  38.887  29.005  10.893
52225W        W22106  14.769  38.030  12.938
52226W        W22107  15.187  24.606  10.574
52227W        W22108  25.528  29.102   3.185
52228W        W22109   9.726  37.456  10.621
52229W        W22110  12.614   9.308  12.875
52230W        W22111  33.034  42.965  12.461
52231W        W22112  39.817  14.215  11.001
52232W        W22113  18.249  37.893  14.476
52233W        W22114  21.524  16.775  13.314
52234W        W22115   5.706   9.807   3.820
52235W        W22116  40.488  44.882   1.879
52236W        W22117   4.849  44.966  13.481
52237W        W22118   8.862   9.350   0.339
52238W        W22119   7.315   6.829   4.282
52239W        W22120  13.243   2.884  14.979
52240W        W22121  16.210  27.556   2.900
52241W        W22122  43.904  42.962  12.487
52242W        W22123  28.027  18.243  14.490
52243W        W22124   1.956  24.577   0.379
52244W        W22125  17.709  41.034  11.408
52245W        W22126  23.630  41.851  10.620
52246W        W22127  20.689  27.466   9.677
52247W        W22128  24.052  41.318  10.100
52248W        W22129   6.307  32.945   0.335
52249W        W22130  30.983  10.804   2.267
52250W        W22131  13.653   1.251   4.342
52251W        W22132  20.683   5.833  10.897
52252W        W22133  22.028  31.500   2.385
52253W        W22134  28.142  43.879   4.626
52254W        W22135  29.048  29.521  14.954
52255W        W22136  26.626   8.794  14.466
52256W        W22137  32.405   1.832   4.791
52257W        W22138   4.305  44.930   4.266
52258W        W22139  41.502  31.506  11.105
52259W        W22140  18.073  15.223   0.954
52260W        W22141  39.968  41.018  13.988
52261W        W22142  26.670  33.438  13.486
52262W        W22143  17.251  17.299   2.212
52263W        W22144  43.885  24.634   3.214
52264W        W22145  41.423   3.862   4.633
52265W        W22146  39.391  31.068  14.375
52266W        W22147  26.101  21.230   0.440
52267W        W22148  27.998   1.343  13.319
52268W        W22149  26.580   5.755   0.370
52269W        W22150  32.449  32.061  12.032
52270W        W22151  22.026   5.296   4.206
52271W        W22152   2.439  35.910  10.893
52272W        W22153  29.000  30.615   1.710
52273W        W22154  39.006   5.287  11.564
52274W        W22155  32.525  34.014  13.860
52275W        W22156  18.745  13.294   5.116
52276W        W22157  15.284   5.869   0.835
52277W        W22158  16.610  38.336   4.351
52278W        W22159  22.598  23.730   3.787
52279W        W22160  27.101  30.606   5.099
52280W        W22161  12.244  31.978   3.797
52281W        W22162  42.930  23.624  11.552
52282W        W22163  29.604  18.683   3.193
52283W        W22164  19.076  27.454   5.635
52284W        W22165  19.282   9.262   0.443
52285W        W22166  42.400  27.993  11.538
52286W        W22167  29.070   2.336  13.471
52287W        W22168  24.996  35.939   4.745
52288W        W22169   6.304  44.402   1.435
52289W        W22170  39.543   9.160   1.430
52290W        W22171  14.722   3.388   3.868
52291W        W22172  33.077  39.877   0.484
52292W        W22173  18.689   7.812   1.846
52293W        W22174  15.296  12.772  14.451
52294W        W22175  25.967  24.592   0.246
52295W        W22176   8.355  18.578   1.317
52296W        W22177  13.164  19.111  13.350
52297W        W22178  31.597  12.234   2.337
52298W        W22179  34.381  18.546   4.258
52299W        W22180  33.509  31.094  12.421
52300W        W22181  13.802   7.734  11.066
52301W        W22182  37.894   7.847   4.738
52302W        W22183  10.266  11.163   0.416
52303W        W22184  12.617  28.505   5.731
52304W        W22185  23.656  20.634   2.777
52305W        W22186  34.502   6.423   2.180
52306W        W22187  37.008   2.277  12.052
52307W        W22188   2.905  11.284  11.071
52308W        W22189  18.673  30.464  13.916
52309W        W22190  27.499  37.077  12.411
52310W        W22191  17.211  27.664   1.318
52311W        W22192   6.376  25.208  11.491
52312W        W22193  38.059  29.139  14.360
52313W        W22194  44.343  30.949  11.473
52314W        W22195  23.666  20.226  11.408
52315W        W22196  35.587   5.293  10.945
52316W        W22197  26.519   7.191  10.140
52317W        W22198  35.856  39.395   1.731
52318W        W22199  27.046   1.352   2.282
52319W        W22200  19.774  20.109  12.370
52320W        W22201  16.711  36.571   0.267
52321W        W22202   8.303   2.239  10.456
52322W        W22203  43.468  42.485  13.342
52323W        W22204  40.869  29.622  13.873
52324W        W22205  24.613   1.934  10.982
52325W        W22206  30.455  44.457   3.308
52326W        W22207  28.508   1.964   3.855
52327W        W22208  35.920   3.334  12.902
52328W        W22209  14.094  29.448   5.115
52329W        W22210  12.850  39.496  11.001
52330W        W22211  19.128  41.924   2.843
52331W        W22212  44.386  35.948   3.769
52332W        W22213  29.095   4.411  12.505
52333W        W22214   4.900  42.391   2.237
52334W        W22215  27.551  15.170   3.187
52335W        W22216  16.580   8.869  11.440
52336W        W22217  40.981  11.304   2.699
52337W        W22218  27.953  23.634   5.783
52338W        W22219   1.897  12.689   0.810
52339W        W22220  33.586  34.012  14.000
52340W        W22221  19.253  31.074  10.480
52341W        W22222  27.476   2.438   3.327
52342W        W22223  11.357  19.241  12.908
52343W        W22224  14.766  10.827  12.041
52344W        W22225  14.209  18.278   2.317
52345W        W22226  41.355  32.061   4.734
52346W        W22227  34.068  29.425   0.903
52347W        W22228   7.172  15.811   2.298
52348W        W22229  35.410   5.382  12.450
52349W        W22230   4.702   5.871   4.152
52350W        W22231  40.863  25.177   2.226
52351W        W22232  30.592  30.030   1.747
52352W        W22233   6.248   8.399  14.345
52353W        W22234  42.476  34.586  11.000
52354W        W22235  32.973  23.645  13.863
52355W        W22236   6.733  10.799   4.778
52356W        W22237  21.657  30.007  11.498
52357W        W22238  32.950  33.911  12.548
52358W        W22239  10.213  44.469   4.624
52359W        W22240   7.855  40.916   3.699
52360W        W22241  15.639  29.110   3.790
52361W        W22242  28.046  22.670  11.910
52362W        W22243  34.519  38.995  13.353
52363W        W22244  37.898  12.140  12.926
52364W        W22245  40.972  28.059  10.417
52365W        W22246  18.246   3.428   4.317
52366W        W22247  19.598  19.650   3.826
52367W        W22248  44.333  16.238   2.313
52368W        W22249   4.291  21.145  12.969
52369W        W22250  16.782   1.272  11.123
52370W        W22251  10.358   6.921  12.056
52371W        W22252   6.756  21.122  13.323
52372W        W22253  37.085   4.260  11.479
52373W        W22254  43.483  13.304  13.063
52374W        W22255  20.257  10.742   4.264
52375W        W22256  18.579  20.134   3.868
52376W        W22257  31.610   7.802   4.243
52377W        W22258  20.251  42.471  13.450
52378W        W22259   3.438  25.562   1.314
52379W        W22260  25.969  36.950   4.184
52380W        W22261  10.751  35.538  12.019
52381W        W22262  18.288   5.202  13.884
52382W        W22263  14.172  36.096   1.329
52383W        W22264  13.144  35.591   2.807
52384W        W22265  20.149  25.021   3.344
52385W        W22266   1.292  33.475  12.011
52386W        W22267  44.505   3.384  11.055
52387W        W22268  11.818  40.441   2.767
52388W        W22269  17.061  11.856  11.513
52389W        W22270  44.955  21.588   3.857
52390W        W22271   5.431  22.168  13.530
52391W        W22272  42.891  25.470   5.147
52392W        W22273  37.844  28.501   0.832
52393W        W22274  16.272  27.063  12.514
52394W        W22275  32.077   4.335   4.819
52395W        W22276   5.299   3.795  13.955
52396W        W22277  25.149   4.847   3.316
52397W        W22278  25.702  13.656   0.947
52398W        W22279  39.543  39.994  14.840
52399W        W22280   0.272  21.667  13.472
52400W        W22281   5.853  25.188   1.410
52401W        W22282  29.651   8.194   1.398
52402W        W22283   0.344   9.884  14.368
52403W        W22284  13.277  19.166  14.384
52404W        W22285   2.342  34.579  12.075
52405W        W22286  21.539  42.307   4.723
52406W        W22287  36.848  34.865   4.132
52407W        W22288  27.631  35.550   3.748
52408W        W22289  21.711   4.301   4.158
52409W        W22290  40.350  13.182   0.806
52410W        W22291  13.129  29.139   3.359
52411W        W22292  14.683  37.013   5.322
52412W        W22293  15.723  38.437   1.720
52413W        W22294   8.220  37.457   4.319
52414W        W22295   0.281  20.693   0.884
52415W        W22296   5.386  34.492  10.588
52416W        W22297  29.044  22.214  10.996
52417W        W22298  37.881  25.641  13.951
52418W        W22299   6.355  11.370  10.930
52419W        W22300  27.520  13.285  10.950
52420W        W22301  35.389  11.853  14.022
52421W        W22302  24.995   6.726  12.097
52422W        W22303  18.115  36.503   2.826
52423W        W22304  40.348  15.183   3.762
52424W        W22305  22.695  39.048  10.114
52425W        W22306  24.601   7.781   1.320
52426W        W22307  32.478  38.987   3.363
52427W        W22308  13.704  18.720  10.405
52428W        W22309  15.687  18.290  11.530
52429W        W22310  42.325  18.631  10.473
52430W        W22311  31.466  11.649  14.801
52431W        W22312  10.800  13.122  14.951
52432W        W22313  40.799  17.704  11.061
52433W        W22314  44.454  27.964   0.472
52434W        W22315  38.059  12.811  11.399
52435W        W22316  37.409  30.493   1.446
52436W        W22317  38.956  35.965  12.393
52437W        W22318  36.420  29.009  10.512
52438W        W22319  15.142  10.672  14.408
52439W        W22320  32.625  42.376   4.134
52440W        W22321  22.673  35.586  13.516
52441W        W22322  22.030   8.760   1.883
52442W        W22323  39.509  23.078   3.366
52443W        W22324   6.921  18.134   2.244
52444W        W22325   9.740   5.719   2.182
52445W        W22326  43.793   7.284  10.548
52446W        W22327  23.012  19.260   3.226
52447W        W22328  44.285  29.145   3.850
52448W        W22329  31.934   5.887   1.269
52449W        W22330  35.461  33.497   3.694
52450W        W22331  22.079  15.666  14.288
52451W        W22332  23.519  43.797  12.958
52452W        W22333  30.055  22.694  10.613
52453W        W22334  44.407  16.623   2.228
52454W        W22335  37.576  19.248   1.443
52455W        W22336  15.299  12.171  10.483
52456W        W22337  43.985  34.411   4.825
52457W        W22338  26.499  43.306  14.456
52458W        W22339   4.369  38.536  10.890
52459W        W22340  33.071  16.609   1.279
52460W        W22341  31.450  34.575   0.862
52461W        W22342  40.354  39.917   1.843
52462W        W22343  35.522  14.773   4.177
52463W        W22344  26.096  18.701  14.926
52464W        W22345  21.048  26.077  14.501
52465W        W22346  32.508  20.137  12.017
52466W        W22347  30.916  39.859   2.815
52467W        W22348  27.589  27.960   1.294
52468W        W22349  25.009  37.470  10.635
52469W        W22350  35.440  40.347  10.474
52470W        W22351  22.672  12.629  14.894
52471W        W22352  13.690   2.420  10.502
52472W        W22353   7.671   3.352  14.330
52473W        W22354  33.526  17.633   4.708
52474W        W22355  42.853  11.307   2.713
52475W        W22356  43.431  31.418  12.441
52476W        W22357  29.159  18.745  10.567
52477W        W22358  18.744  25.613   2.821
52478W        W22359   9.879  34.581   0.888
52479W        W22360   1.865   4.817   3.784
52480W        W22361  34.949  28.969   2.182
52481W        W22362  32.899  35.089  12.554
52482W        W22363  38.392  34.100  12.859
52483W        W22364  44.384  26.478  13.995
52484W        W22365  23.104   8.268   0.733
52485W        W22366  15.739  40.527  11.025
52486W        W22367  27.106  11.245  11.587
52487W        W22368  31.406  30.539   0.807
52488W        W22369   6.783  40.951   1.768
52489W        W22370  29.514  23.726  12.972
52490W        W22371   3.832  39.523  12.365
52491W        W22372   0.413   2.410   1.750
52492W        W22373  35.582  28.562   3.825
52493W        W22374   6.882  12.764   4.117
52494W        W22375  36.358  14.329   4.273
52495W        W22376  39.995  18.222  13.378
52496W        W22377  12.338  25.159   0.483
52497W        W22378   1.294  32.565  12.449
52498W        W22379  39.041  26.468  11.391
52499W        W22380  25.714   4.366   3.675
52500W        W22381  44.907  12.613  14.798
52501W        W22382  28.673  29.592  13.969
52502W        W22383  44.776   5.325   2.197
52503W        W22384   0.767   5.393  14.789
52504W        W22385  41.364  41.297  14.894
52505W        W22386   6.909  32.434   3.774
52506W        W22387  15.786   9.831   2.697
52507W        W22388  35.073   3.940  13.411
52508W        W22389  20.718  27.013  12.047
52509W        W22390  33.486  40.485  11.030
52510W        W22391  38.521  19.672  11.010
52511W        W22392  26.623  42.949  11.408
52512W        W22393  41.377  21.112  12.084
52513W        W22394  40.030  22.522  12.564
52514W        W22395  19.195   5.932  12.043
52515W        W22396  15.695  21.646   4.740
52516W        W22397   9.313   8.661  14.319
52517W        W22398  26.141  41.795   2.309
52518W        W22399  36.572  21.747  14.888
52519W        W22400   5.901  30.657   4.629
52520W        W22401   7.874   4.354  12.406
52521W        W22402   2.924  11.354   1.738
52522W        W22403  35.577  15.698   4.224
52523W        W22404   6.256  25.218   2.402
52524W        W22405  14.155   9.760   0.452
52525W        W22406  22.081  35.862  12.864
52526W        W22407   7.271  23.188   4.778
52527W        W22408  11.368   9.843  11.857
52528W        W22409  34.954  44.795   1.923
52529W        W22410   5.254   6.256  10.980
52530W        W22411  34.934   6.326   5.321
52531W        W22412  31.594  36.518   1.278
52532W        W22413  43.432  26.615  12.947
52533W        W22414   6.206  32.569  10.478
52534W        W22415  11.181  16.078  11.081
52535W        W22416  12.676   3.813  13.894
52536W        W22417  30.629  34.578  11.459
52537W        W22418   1.850  34.032  14.909
52538W        W22419  20.634  11.672   2.754
52539W        W22420  31.035  12.763   3.829
52540W        W22421   7.250  30.529  10.546
52541W        W22422  32.524  39.938  10.570
52542W        W22423   2.290   7.313   5.270
52543W        W22424   3.225   7.347  13.458
52544W        W22425   4.787   1.757   9.947
52545W        W22426  25.967  41.042  13.434
52546W        W22427   0.340   3.362  13.986
52547W        W22428  12.139  23.721  13.465
52548W        W22429   0.329  44.867   3.725
52549W        W22430  17.287  23.211  10.083
52550W        W22431   2.376  40.511   1.886
52551W        W22432  21.064  22.524  12.412
52552W        W22433  40.994  21.023  12.462
52553W        W22434  42.380  27.080  13.540
52554W        W22435  36.588  43.796   1.796
52555W        W22436  14.138  38.004   0.355
52556W        W22437  31.462  32.060   2.819
52557W        W22438  29.973  17.800  12.870
52558W        W22439  15.274  36.986  12.572
52559W        W22440  10.243  21.157  12.523
52560W        W22441  19.752  32.138  14.515
52561W        W22442  19.225  29.606  14.869
52562W        W22443   0.388  36.459   4.691
52563W        W22444  27.146  41.469   2.363
52564W        W22445  16.784   4.425   1.382
52565W        W22446  25.635  32.127   4.811
52566W        W22447   1.317  23.038   4.691
52567W        W22448  10.269  26.074  10.604
52568W        W22449  40.411  26.642   3.775
52569W        W22450  40.415  20.533   2.750
52570W        W22451  44.775  10.673   1.835
52571W        W22452  41.919  26.075  13.907
52572W        W22453  11.749  44.797   3.352
52573W        W22454  16.807  36.378  14.388
52574W        W22455  21.031  14.187   2.308
52575W        W22456  35.955  30.570  12.997
52576W        W22457  25.638  16.670   0.893
52577W        W22458  36.374   6.793   3.831
52578W        W22459  31.938  12.659   2.298
52579W        W22460  22.065   3.940  11.551
52580W        W22461  29.611  43.500   1.331
52581W        W22462  24.666  12.682  12.841
52582W        W22463  24.040   1.769   1.788
52583W        W22464  44.499  25.984  13.047
52584W        W22465  28.527  36.076   3.314
52585W        W22466  32.448   3.772   0.380
52586W        W22467  16.619  32.441  13.415
52587W        W22468  24.641  39.938   3.747
52588W        W22469  28.053   7.800   2.717
52589W        W22470  43.934  12.613  12.900
52590W        W22471  11.648  13.661   1.927
52591W        W22472  26.024   3.365  11.389
52592W        W22473  20.615  17.703   1.242
52593W        W22474  20.157  21.088   1.770
52594W        W22475  14.122  10.867   0.844
52595W        W22476   7.291  18.759  13.851
52596W        W22477  11.783  18.102  13.495
52597W        W22478  37.512  34.556   4.779
52598W        W22479  11.295  37.945  11.872
52599W        W22480  11.679  27.500   1.797
52600W        W22481  18.209  17.635  13.447
52601W        W22482  34.935  21.566  13.052
52602W        W22483  12.137  37.534  11.891
52603W        W22484   7.864  40.512  12.950
52604W        W22485  44.883   6.222   4.251
52605W        W22486   8.809  19.183  11.078
52606W        W22487  33.483  31.048  11.921
52607W        W22488  20.268  33.460  11.373
52608W        W22489  40.016  35.099   1.359
52609W        W22490  10.827  42.997  14.899
52610W        W22491   2.467  20.171  13.019
52611W        W22492   3.748  18.614  10.536
52612W        W22493  16.294  36.996  13.058
52613W        W22494  22.583  42.837   0.433
52614W        W22495  21.704  36.492   2.333
52615W        W22496   6.390  13.630   4.177
52616W        W22497   7.353   4.265   0.941
52617W        W22498   2.781  43.399   0.390
52618W        W22499   9.840  25.532  13.325
52619W        W22500  34.108  18.220  12.539
52620W        W22501  32.043  14.676   1.850
52621W        W22502  40.407  43.882  11.906
52622W        W22503  37.892  20.038   3.171
52623W        W22504   8.227  13.799   2.900
52624W        W22505  37.943   2.747  10.910
52625W        W22506  38.362  10.831  11.068
52626W        W22507  28.975  39.880  11.054
52627W        W22508  27.650  19.732   1.753
52628W        W22509  28.010   1.857   2.725
52629W        W22510   7.792   3.912  11.992
52630W        W22511   5.317  14.669  12.918
52631W        W22512  12.854   7.399   4.717
52632W        W22513  35.573  41.806  14.968
52633W        W22514  11.284  31.148   1.774
52634W        W22515  28.135  17.674   2.201
52635W        W22516  25.530   8.860   4.819
52636W        W22517  29.643   8.301  13.830
52637W        W22518  15.243  34.384   3.331
52638W        W22519  23.661  11.286   1.335
52639W        W22520  34.976  30.075  11.865
52640W        W22521  38.500  35.360   0.364
52641W        W22522  44.299  33.984  10.455
52642W        W22523  41.391  28.552  10.996
52643W        W22524   0.926  14.128  10.929
52644W        W22525  22.501  40.438   1.906
52645W        W22526   7.757  24.632   3.685
52646W        W22527  18.590   1.869  13.887
52647W        W22528   0.881  42.390  12.489
52648W        W22529  13.201  13.618  12.484
52649W        W22530   8.665   0.791   0.738
52650W        W22531  30.605  13.618   4.203
52651W        W22532  30.470   4.809  14.973
52652W        W22533  20.532  25.061   2.726
52653W        W22534  39.942   6.716  12.345
52654W        W22535  43.454  41.508   4.134
52655W        W22536   9.688  17.781   1.320
52656W        W22537  39.015  28.559   3.656
52657W        W22538  26.685   5.690  11.472
52658W        W22539  12.638  38.527   2.690
52659W        W22540  21.102  22.547   1.898
52660W        W22541  37.514  41.347  11.881
52661W        W22542  31.941   0.286  14.446
52662W        W22543   3.327  29.104  13.367
52663W        W22544   1.295  22.554  11.971
52664W        W22545  32.417  14.767   1.268
52665W        W22546  34.590   9.690  14.441
52666W        W22547  22.649   4.209  14.811
52667W        W22548   9.793   5.434   3.337
52668W        W22549  10.342  42.307  13.975
52669W        W22550  41.819  21.576   1.293
52670W        W22551  11.729  26.132   2.773
52671W        W22552  18.141  32.467  10.617
52672W        W22553   6.724  12.347   4.677
52673W        W22554  20.147   9.378   3.318
52674W        W22555  18.166  28.088   0.243
52675W        W22556  19.113  38.487   2.397
52676W        W22557  11.197  40.814   0.912
52677W        W22558  14.283  40.945  14.495
52678W        W22559  39.469   7.739  12.031
52679W        W22560  32.472  17.298   1.293
52680W        W22561  38.400  20.151   0.420
52681W        W22562   4.213  37.521   1.340
52682W        W22563  38.055  25.032  14.839
52683W        W22564  33.091  10.182   2.178
52684W        W22565  44.474  19.771   4.802
52685W        W22566  31.635  28.035   4.735
52686W        W22567  35.096  41.318   0.833
52687W        W22568  28.098   6.387   1.297
52688W        W22569  23.713  41.441   3.314
52689W        W22570  19.138   5.427  10.893
52690W        W22571   0.928  28.991   2.261
52691W        W22572  38.537  32.453  12.892
52692W        W22573  30.067  18.713   3.252
52693W        W22574  10.210  16.280   1.350
52694W        W22575   1.855  38.927  14.277
52695W        W22576   2.312  10.256   4.262
52696W        W22577  26.108  29.468   2.350
52697W        W22578  19.083  44.857  11.551
52698W        W22579  25.101  36.550   2.662
52699W        W22580  24.631  12.190   1.305
52700W        W22581  42.495  38.504   3.202
52701W        W22582   9.832  26.532  13.393
52702W        W22583  29.051  39.976  14.291
52703W        W22584  19.579  42.363  13.498
52704W        W22585  39.824  40.048  14.421
52705W        W22586   9.826  20.225   4.786
52706W        W22587  37.908  15.811   4.279
52707W        W22588  15.197  16.788   2.786
52708W        W22589  42.504  16.250   4.760
52709W        W22590  17.577  30.074   5.086
52710W        W22591   9.348  34.105   0.374
52711W        W22592  19.640  14.732   1.416
52712W        W22593  17.173  41.797   2.411
52713W        W22594  41.821  36.011   1.865
52714W        W22595  32.102  30.611   4.193
52715W        W22596  27.612  14.096  10.960
52716W        W22597   2.961   7.808  10.916
52717W        W22598  39.330   4.817  10.622
52718W        W22599  23.689  18.724  14.030
52719W        W22600   2.853  32.131  10.566
52720W        W22601  34.595  35.512  11.117
52721W        W22602  10.871   3.286   3.258
52722W        W22603  23.529  23.237   1.332
52723W        W22604  32.423  22.683  13.499
52724W        W22605  26.962  22.091   2.313
52725W        W22606   9.729  30.065   2.374
52726W        W22607   3.307  21.695  12.062
52727W        W22608   0.386  30.076  11.517
52728W        W22609  22.200  37.581  10.452
52729W        W22610   5.330   1.740   1.302
52730W        W22611  29.154  38.418   2.759
52731W        W22612  28.953  30.078   2.889
52732W        W22613  10.207  26.608   5.259
52733W        W22614  12.276   0.430   0.461
52734W        W22615  16.231  44.755  13.517
52735W        W22616  30.453  43.843   0.283
52736W        W22617  31.587   4.389   3.840
52737W        W22618  41.337  29.980   3.646
52738W        W22619  10.793  33.566   0.917
52739W        W22620  33.011  30.961   1.823
52740W        W22621  21.100  11.867   0.479
52741W        W22622  32.902  13.300  13.009
52742W        W22623  13.176  37.040  12.855
52743W        W22624  28.624  44.809   4.746
52744W        W22625  22.625  11.844   5.120
52745W        W22626  26.106  19.603   1.418
52746W        W22627  12.652  18.605   9.986
52747W        W22628  19.144  22.169  14.998
52748W        W22629  14.132  31.596   0.757
52749W        W22630   1.339  44.000   3.723
52750W        W22631  31.485   4.206   0.249
52751W        W22632  17.699  23.598  14.976
52752W        W22633  37.491  44.503  12.048
52753W        W22634  26.472  43.980   3.384
52754W        W22635  26.549  39.996   0.833
52755W        W22636   6.278  15.787   1.926
52756W        W22637  23.236   9.268   0.476
52757W        W22638  28.016  17.262   0.359
52758W        W22639  28.526   6.229  14.828
52759W        W22640  22.552   5.368   1.885
52760W        W22641  26.187   4.324  11.038
52761W        W22642  18.263  33.468   2.727
52762W        W22643   1.884   6.896  14.925
52763W        W22644  21.066   4.309  11.988
52764W        W22645  13.129  20.588   0.952
52765W        W22646  35.906  12.736  10.459
52766W        W22647  22.045   3.404   3.365
52767W        W22648  10.377   6.306   0.414
52768W        W22649  42.895  31.096  14.378
52769W        W22650  41.501  30.912  12.057
52770W        W22651   8.783  32.400  13.887
52771W        W22652  33.038  16.669   0.338
52772W        W22653  36.477  16.644  14.009
52773W        W22654  17.151  33.066   1.738
52774W        W22655   9.742  23.597   3.238
52775W        W22656   7.819  23.000   0.360
52776W        W22657  23.634   6.271  10.578
52777W        W22658  11.792  16.313  10.078
52778W        W22659  33.027  16.657  13.880
52779W        W22660  21.116  13.844  10.559
52780W        W22661  23.109  43.423   4.227
52781W        W22662   2.937  43.832   0.788
52782W        W22663  14.169  19.204   2.356
52783W        W22664  35.418  20.207   0.331
52784W        W22665   8.799  40.403  10.592
52785W        W22666  37.347  36.068   1.307
52786W        W22667   3.412  11.710   5.218
52787W        W22668  42.307  27.665   0.928
52788W        W22669  43.999   4.215  13.807
52789W        W22670   5.434  23.074   4.643
52790W        W22671  35.927  20.691   0.852
52791W        W22672  41.336  37.350  13.993
52792W        W22673  23.006  43.270   3.669
52793W        W22674  38.465  39.024   2.410
52794W        W22675  41.017  26.083   4.686
52795W        W22676  29.019  20.178  11.117
52796W        W22677  24.667  42.933   2.186
52797W        W22678  12.204  35.484  13.855
52798W        W22679  18.145  29.087   4.338
52799W        W22680   4.896  19.624  10.496
52800W        W22681  18.576  21.671  13.883
52801W        W22682  35.484  43.808   1.891
52802W        W22683  39.479   7.777   1.836
52803W        W22684   8.368  18.569   0.887
52804W        W22685  38.357   5.920  11.057
52805W        W22686  39.864   7.363   3.257
52806W        W22687  17.155  40.993   1.281
52807W        W22688  30.604  19.043  12.383
52808W        W22689  18.773  19.597   4.213
52809W        W22690  27.182  40.500  14.403
52810W        W22691  14.599   0.981  11.936
52811W        W22692   0.864  35.871  11.532
52812W        W22693  29.472  40.930   2.868
52813W        W22694  38.859   8.260   0.733
52814W        W22695  39.396  42.938  12.002
52815W        W22696  23.011   2.755   1.395
52816W        W22697   5.714  34.023  12.396
52817W        W22698  21.158  24.598   3.228
52818W        W22699  21.187   5.319   2.663
52819W        W22700   2.885  37.861   1.281
52820W        W22701   3.293  38.392  14.309
52821W        W22702  38.512  13.703   0.895
52822W        W22703  35.491  18.280   4.657
52823W        W22704  16.774  18.062   4.122
52824W        W22705  38.487   9.659  10.556
52825W        W22706   0.824   5.246   0.857
52826W        W22707  33.129  23.128   4.324
52827W        W22708  23.999  19.752  14.280
52828W        W22709  40.028  41.894  12.559
52829W        W22710  11.693  44.325  13.957
52830W        W22711  29.056  35.995   0.422
52831W        W22712  41.527  19.697   0.741
52832W        W22713  39.510  42.426   1.908
52833W        W22714   2.919  10.777  11.061
52834W        W22715  26.499   3.912  12.082
52835W        W22716   6.377  43.961  13.807
52836W        W22717  29.955   2.809   0.766
52837W        W22718  29.009  37.877   2.266
52838W        W22719  34.386  41.964   3.841
52839W        W22720   6.798  13.237   1.211
52840W        W22721  31.588  13.797  14.435
52841W        W22722  20.763  14.714   4.145
52842W        W22723  29.520  35.001  12.482
52843W        W22724  17.668  20.061   4.115
52844W        W22725   4.831  37.577   5.157
52845W        W22726  36.912  41.931   0.446
52846W        W22727  11.261  25.094   3.368
52847W        W22728  21.250  18.607  13.036
52848W        W22729  19.252  28.508  12.539
52849W        W22730  22.509  16.215  13.473
52850W        W22731  12.124   8.337   0.425
52851W        W22732  20.120  14.216  13.032
52852W        W22733  12.762   6.777   2.353
52853W        W22734   1.807  26.510   3.339
52854W        W22735  33.382  28.001  14.282
52855W        W22736  22.031  32.001   3.355
52856W        W22737  20.059  35.951  11.001
52857W        W22738   0.331  40.844   4.303
52858W        W22739  22.171  14.213  11.998
52859W        W22740  25.007  41.990  12.490
52860W        W22741  11.363  35.968  14.294
52861W        W22742   8.806   0.776   1.248
52862W        W22743  20.564  44.328  14.026
52863W        W22744   0.349  18.118  13.393
52864W        W22745  30.928  44.411  10.566
52865W        W22746  15.252  13.652   4.785
52866W        W22747  38.959  36.031   2.248
52867W        W22748  29.989  27.089  10.928
52868W        W22749   2.379  34.457   4.744
52869W        W22750  27.546   2.728   4.607
52870W        W22751  21.162   9.878   0.950
52871W        W22752   1.466  29.126  13.482
52872W        W22753  31.051   0.889  12.377
52873W        W22754  21.528  23.610  13.404
52874W        W22755  41.958  43.946  12.012
52875W        W22756  25.145  37.835   1.752
52876W        W22757  44.995  29.145  10.896
52877W        W22758  31.938   6.379  14.416
52878W        W22759  44.451  32.027   4.708
52879W        W22760  24.999  27.534   3.761
52880W        W22761  17.562  26.606   1.733
52881W        W22762  13.719  42.330  12.984
52882W        W22763  12.233  44.826  10.458
52883W        W22764  42.306  20.231  10.561
52884W        W22765  43.969  44.412   1.451
52885W        W22766  20.241  36.909  10.518
52886W        W22767  13.175   6.335   3.651
52887W        W22768  27.959  39.841   0.362
52888W        W22769  13.723   3.256   0.398
52889W        W22770  28.436  32.586   4.349
52890W        W22771   9.246  44.385  14.781
52891W        W22772  26.975  40.958  13.366
52892W        W22773  30.917  42.000  13.541
52893W        W22774  30.651  41.980  12.982
52894W        W22775  12.301  16.254  11.530
52895W        W22776  41.322  23.510   3.326
52896W        W22777  17.667   2.820   3.270
52897W        W22778  30.612  43.965  11.987
52898W        W22779   0.934  24.656   1.265
52899W        W22780  36.358  40.974   1.748
52900W        W22781  28.971  20.533   2.416
52901W        W22782  14.826  13.731  10.982
52902W        W22783  24.637  32.940   2.728
52903W        W22784   0.360  40.016  13.312
52904W        W22785   6.406   7.339  13.350
52905W        W22786  16.765   2.744  14.768
52906W        W22787   8.397  27.588  12.488
52907W        W22788  31.124  22.710   2.251
52908W        W22789  15.219  40.412  11.047
52909W        W22790  20.210  42.027   4.786
52910W        W22791  41.313  14.769   3.277
52911W        W22792  15.129  40.824  14.395
52912W        W22793  15.729  16.661  13.349
52913W        W22794  27.078  20.610  11.001
52914W        W22795  44.354  40.436  10.441
52915W        W22796  26.602  28.166   2.739
52916W        W22797  10.233  38.912  14.788
52917W        W22798  40.915   8.185   3.190
52918W        W22799  24.098  39.463  11.581
52919W        W22800   6.404  32.886  12.351
52920W        W22801  22.208   7.397  10.644
52921W        W22802   9.293  16.227  12.876
52922W        W22803  33.933  13.844   2.250
52923W        W22804   4.780  18.119   3.820
52924W        W22805  43.326  19.079   1.792
52925W        W22806   2.413  42.817  10.999
52926W        W22807  43.010  42.903   3.163
52927W        W22808   2.876  27.505   0.313
52928W        W22809  38.055  25.112   5.262
52929W        W22810  44.770  11.174  10.644
52930W        W22811   5.786  19.658  12.908
52931W        W22812  32.041  40.469   4.162
52932W        W22813  24.630   0.947  10.577
52933W        W22814  18.734  39.507   2.187
52934W        W22815  23.728  27.519   2.832
52935W        W22816  31.633  22.040   1.233
52936W        W22817  13.771  39.486   5.696
52937W        W22818   5.422  43.915  13.434
52938W        W22819   9.673  13.303   0.817
52939W        W22820  43.455  37.878   3.364
52940W        W22821  28.996  28.561   3.832
52941W        W22822   1.260  39.356  11.510
52942W        W22823  10.161  20.571   1.862
52943W        W22824  19.119  23.539  14.816
52944W        W22825  30.059  25.083   4.166
52945W        W22826  27.609   3.246  11.947
52946W        W22827  29.569  22.170   0.850
52947W        W22828   1.780  27.451  13.039
52948W        W22829  43.411  41.862  14.316
52949W        W22830  29.926  22.642  14.308
52950W        W22831  38.569  23.045   2.691
52951W        W22832   6.391   6.895  12.340
52952W        W22833   6.228  24.132   1.233
52953W        W22834  36.978  43.860   5.630
52954W        W22835  35.005  33.101  11.557
52955W        W22836  29.074  10.862   3.171
52956W        W22837  24.085  42.842   3.248
52957W        W22838  30.121  15.635   2.700
52958W        W22839  14.243   1.421  13.982
52959W        W22840  36.490   8.668  11.982
52960W        W22841  40.918  21.137   2.823
52961W        W22842  30.643  36.014   3.850
52962W        W22843   6.284  28.631   2.316
52963W        W22844  15.196  34.944  12.378
52964W        W22845  41.980  32.565  14.825
52965W        W22846  27.674  44.006   4.291
52966W        W22847  15.150  31.448   1.307
52967W        W22848  13.337   4.731   1.768
52968W        W22849  35.927   4.217  14.400
52969W        W22850  14.636   5.715  14.019
52970W        W22851  26.147   2.263   1.914
52971W        W22852   1.874  21.208   3.214
52972W        W22853  27.178   7.217   3.228
52973W        W22854  44.848  13.328   3.268
52974W        W22855  19.728  40.898   0.967
52975W        W22856  42.290  25.538  11.474
52976W        W22857  29.439  19.726  14.924
52977W        W22858  39.944  44.874  12.957
52978W        W22859  15.149  14.305   1.809
52979W        W22860  11.730  37.512  11.531
52980W        W22861  14.127  15.653   3.848
52981W        W22862  25.597  19.153  10.541
52982W        W22863  15.776  15.669   2.872
52983W        W22864  38.417   0.898   3.291
52984W        W22865  25.559  23.723  10.423
52985W        W22866  39.373  32.894  12.432
52986W        W22867  17.110   4.790   2.730
52987W        W22868   3.891   9.835  12.857
52988W        W22869  36.099  27.623  12.003
52989W        W22870  13.691  26.108   0.280
52990W        W22871  10.193  28.604   4.616
52991W        W22872   8.267  11.829   4.152
52992W        W22873  27.166   6.193   2.326
52993W        W22874  44.906  20.756  10.888
52994W        W22875  10.815  35.907  12.436
52995W        W22876  27.519  32.518   4.216
52996W        W22877   1.266   0.780   0.261
52997W        W22878  34.998  10.222  14.818
52998W        W22879  13.137   4.441   3.811
52999W        W22880  12.256  16.706   4.238
53000W        W22881  22.216   5.252  13.528
53001W        W22882  10.871  28.551  13.852
53002W        W22883  18.054  43.845   4.621
53003W        W22884  26.612  13.625  10.623
53004W        W22885   0.781  25.502   0.361
53005W        W22886  36.875  41.814  14.822
53006W        W22887   1.759  31.469  10.942
53007W        W22888   5.858  22.588   3.787
53008W        W22889  25.632  32.434  13.340
53009W        W22890  30.577  12.690  14.451
53010W        W22891  16.216   9.816  13.525
53011W        W22892  33.575  21.622   2.253
53012W        W22893  21.235  25.574   1.312
53013W        W22894   4.398  38.885  12.435
53014W        W22895  41.880  11.817   2.666
53015W        W22896  32.464  33.415  12.967
53016W        W22897  21.747  17.189  13.322
53017W        W22898  29.437  43.009   4.202
53018W        W22899  17.732  18.744   2.283
53019W        W22900   5.238  14.202  14.832
53020W        W22901  27.080  30.651  11.934
53021W        W22902  11.662  21.622  10.624
53022W        W22903  12.688  25.468  11.461
53023W        W22904  34.426  23.668   3.842
53024W        W22905  35.983   0.865  14.878
53025W        W22906  43.330  38.359   3.343
53026W        W22907  30.560  10.353  12.456
53027W        W22908  22.089  17.736   2.729
53028W        W22909  23.669  38.014  12.412
53029W        W22910  10.674  10.667   0.319
53030W        W22911  16.247  33.495  13.544
53031W        W22912  39.400  35.525   3.350
53032W        W22913  32.932  31.902   4.144
53033W        W22914  21.162  19.096   0.280
53034W        W22915  21.714   1.849   3.369
53035W        W22916   6.370  32.635   2.864
53036W        W22917   5.805  24.535  11.096
53037W        W22918  25.053  39.411   0.291
53038W        W22919  40.956  43.960   1.751
53039W        W22920  26.047  19.675   1.923
53040W        W22921  39.846  26.617   3.268
53041W        W22922  14.724  19.739  11.590
53042W        W22923  42.407  20.650  11.861
53043W        W22924  40.803  23.670   4.132
53044W        W22925  17.798  12.641   2.264
53045W        W22926   7.317   2.261  14.295
53046W        W22927  36.367  18.151   0.367
53047W        W22928  34.599  40.305   0.293
53048W        W22929   9.308  14.612   3.781
53049W        W22930  32.497   6.388  12.964
53050W        W22931  44.441  16.633   1.918
53051W        W22932  20.603  23.553   1.919
53052W        W22933  11.721  27.193  11.982
53053W        W22934  29.592   3.753   3.202
53054W        W22935  31.110  21.172   3.345
53055W        W22936  24.173  23.546  10.469
53056W        W22937  43.817  35.384  14.453
53057W        W22938  18.670   2.385   1.935
53058W        W22939  24.681   4.378   3.254
53059W        W22940  12.355  32.412  14.829
53060W        W22941   3.920  33.121   4.633
53061W        W22942  10.234  22.591   4.672
53062W        W22943   9.767  24.592  10.535
53063W        W22944  20.209  15.139   4.303
53064W        W22945  35.065  15.640  12.488
53065W        W22946  30.955  36.587  12.442
53066W        W22947  23.609   7.888  10.428
53067W        W22948  39.973  34.877   0.272
53068W        W22949  32.623  24.551  12.840
53069W        W22950  10.701  36.496   2.309
53070W        W22951  24.608   3.719   2.317
53071W        W22952  17.240   4.758  13.438
53072W        W22953  11.226  34.445   3.749
53073W        W22954  33.608   4.705   5.181
53074W        W22955   9.769  35.927  11.423
53075W        W22956   3.379  19.756   0.731
53076W        W22957  36.940   8.322   1.355
53077W        W22958  23.097  34.448  10.434
53078W        W22959  23.663  28.643   1.412
53079W        W22960   8.179  25.978  12.015
53080W        W22961  18.559  31.121   3.870
53081W        W22962  32.058  42.378  11.513
53082W        W22963  41.986  43.968   4.685
53083W        W22964  21.233  33.478   4.288
53084W        W22965   2.949  34.026  13.526
53085W        W22966   8.256   4.841  13.398
53086W        W22967  33.513  41.376   2.207
53087W        W22968  21.141  10.235   0.929
53088W        W22969  22.657  25.475  10.482
53089W        W22970   2.349  33.034  14.951
53090W        W22971  18.277  26.951  14.951
53091W        W22972  10.269  26.685   0.925
53092W        W22973   2.827  12.136  12.432
53093W        W22974  43.313  23.716   2.323
53094W        W22975   9.864  40.485  14.377
53095W        W22976  30.102  31.063  11.922
53096W        W22977  22.651  27.999  11.453
53097W        W22978   3.770  10.261  11.089
53098W        W22979  19.185  40.802   2.694
53099W        W22980  19.573  10.682   3.334
53100W        W22981  26.630  34.911   5.260
53101W        W22982  39.057  13.191   5.259
53102W        W22983  42.906  32.043   5.086
53103W        W22984   7.830  43.858   0.827
53104W        W22985  31.091  20.652  13.537
53105W        W22986  19.251  28.482  12.046
53106W        W22987  26.153  30.568   0.252
53107W        W22988  40.855  36.902   3.722
53108W        W22989  41.988  28.018   1.318
53109W        W22990  41.399  13.674  14.915
53110W        W22991   0.442   3.218   2.855
53111W        W22992  44.316  22.560  11.126
53112W        W22993  29.633  35.893   4.278
53113W        W22994  44.407  34.492   0.286
53114W        W22995  31.948  22.738   3.159
53115W        W22996   3.855   2.388   3.220
53116W        W22997  34.481  18.617  13.491
53117W        W22998  19.257   8.256  12.551
53118W        W22999  39.978  17.619  12.907
53119W        W23000   4.798   1.859   5.142
53120W        W23001  16.787  32.999   2.231
53121W        W23002   2.363  14.821   4.255
53122W        W23003   0.812  44.904  13.344
53123W        W23004  43.485  11.863   0.288
53124W        W23005  24.978  27.522  12.356
53125W        W23006   9.179  25.683   2.402
53126W        W23007  17.659  36.563   0.387
53127W        W23008  42.453  29.020   3.363
53128W        W23009  30.537  17.125  12.365
53129W        W23010  12.626  35.469   2.404
53130W        W23011  30.481  36.080  11.011
53131W        W23012  31.436  38.837   2.411
53132W        W23013  11.772  11.738  12.992
53133W        W23014   9.813  44.763  14.358
53134W        W23015  17.673  29.467   3.809
53135W        W23016  27.197   5.796  14.464
53136W        W23017  10.728  43.874  11.469
53137W        W23018  31.440  31.952  11.046
53138W        W23019   7.417  10.863   0.761
53139W        W23020  33.011  40.931   4.745
53140W        W23021  19.770  37.007  13.356
53141W        W23022  37.341   9.865   2.888
53142W        W23023   2.918   1.965   2.894
53143W        W23024  12.779  39.536   3.232
53144W        W23025  25.708  44.794  12.842
53145W        W23026  25.106  11.755  10.968
53146W        W23027   7.312  17.265   3.792
53147W        W23028   6.374  43.872  12.475
53148W        W23029  39.949  23.678  12.079
53149W        W23030  40.988  30.973  10.931
53150W        W23031  43.432   6.867  11.580
53151W        W23032  19.238  21.740   3.855
53152W        W23033   1.463  32.985   3.851
53153W        W23034   6.192  24.214  13.312
53154W        W23035   7.903  18.107  10.562
53155W        W23036  21.242  44.301  13.442
53156W        W23037  28.487  28.469  13.317
53157W        W23038   0.880   6.728   4.627
53158W        W23039  23.150  13.245  14.778
53159W        W23040  27.106  16.772   1.735
53160W        W23041  20.222  34.417  10.573
53161W        W23042  15.298  22.082   4.698
53162W        W23043  20.717  14.759  10.442
53163W        W23044  31.491   5.349   0.806
53164W        W23045  21.194  33.033   3.155
53165W        W23046   3.771  23.728  11.602
53166W        W23047  24.622  11.193  14.366
53167W        W23048  33.429  39.406  14.453
53168W        W23049  11.207  42.306  14.026
53169W        W23050  15.119  32.634  13.341
53170W        W23051  30.594  22.723  13.376
53171W        W23052   9.206   6.683  10.558
53172W        W23053  41.410  35.016   1.709
53173W        W23054  43.808  11.649  11.504
53174W        W23055  13.793  31.955   2.349
53175W        W23056   3.333  32.955   2.864
53176W        W23057   2.962  38.455   1.249
53177W        W23058  15.649  26.156  13.447
53178W        W23059  37.448  17.628  13.917
53179W        W23060   6.364  15.271  12.557
53180W        W23061  34.040  32.046   0.797
53181W        W23062  18.156   5.357   1.747
53182W        W23063  30.613  21.687  14.462
53183W        W23064  21.041  38.876   0.391
53184W        W23065  32.992  25.474   2.245
53185W        W23066   2.741  26.076  12.350
53186W        W23067  38.547  12.667  11.560
53187W        W23068   8.664  32.502   0.318
53188W        W23069  14.588  28.628   2.326
53189W        W23070  34.945  34.942   3.731
53190W        W23071  17.182  28.091   2.320
53191W        W23072  27.658  38.354  13.027
53192W        W23073  20.121  26.128  14.013
53193W        W23074  11.632  18.766  10.509
53194W        W23075  38.531  34.486  13.446
53195W        W23076   1.464  12.253  13.958
53196W        W23077   7.912   0.972   3.698
53197W        W23078  34.483  15.608  14.369
53198W        W23079  27.545  10.331   3.375
53199W        W23080  13.170  20.588  14.422
53200W        W23081  17.184   3.809   3.294
53201W        W23082  30.048  35.949  11.958
53202W        W23083  41.338  24.100   4.655
53203W        W23084  21.081  26.978  14.030
53204W        W23085  10.712  14.677  11.861
53205W        W23086  42.323  29.507  14.840
53206W        W23087  11.153  13.653  10.497
53207W        W23088  41.473  15.218   1.798
53208W        W23089  44.849  17.590   2.725
53209W        W23090  11.720  24.152  14.867
53210W        W23091  15.175  22.062  13.915
53211W        W23092  22.584   0.778   3.261
53212W        W23093  38.553  42.820   4.202
53213W        W23094   2.412  16.719   1.287
53214W        W23095  17.732  27.149  12.355
53215W        W23096  12.652  42.300  13.967
53216W        W23097  16.099  44.329   3.324
53217W        W23098  33.415   2.393   4.290
53218W        W23099  11.360   3.305   2.788
53219W        W23100  28.026  43.943  13.059
53220W        W23101  15.255  28.527   4.330
53221W        W23102  44.450  41.438  10.518
53222W        W23103  41.414  14.761   0.260
53223W        W23104  44.940  20.203   2.740
53224W        W23105  37.407  13.234  10.899
53225W        W23106  38.882  29.109   4.118
53226W        W23107  24.219   7.287  14.842
53227W        W23108   0.807   8.746   3.243
53228W        W23109  17.082  10.747   0.270
53229W        W23110  42.808  21.713   1.773
53230W        W23111  43.380   3.410  11.046
53231W        W23112  41.791   3.420  12.894
53232W        W23113   5.289   4.798   0.918
53233W        W23114  12.849  22.515  13.503
53234W        W23115  34.968  41.296   0.243
53235W        W23116   6.199   5.223   2.746
53236W        W23117  37.909  28.594  14.486
53237W        W23118   8.188  37.068   4.298
53238W        W23119  31.099  32.020   0.819
53239W        W23120  16.743  42.899  13.907
53240W        W23121   3.709  44.781  14.856
53241W        W23122  20.049  29.493  14.920
53242W        W23123   3.788  23.623  14.768
53243W        W23124  13.307   0.422  12.940
53244W        W23125  26.604  13.836  14.790
53245W        W23126  31.407  11.201  11.969
53246W        W23127  30.971   2.307   0.918
53247W        W23128  25.072  17.728   2.199
53248W        W23129  32.552  19.658   0.340
53249W        W23130  31.449  37.938  12.460
53250W        W23131  15.717  37.927   4.227
53251W        W23132  43.019  31.985  10.640
53252W        W23133   6.782  26.022   3.808
53253W        W23134  11.266  14.169  10.944
53254W        W23135  16.129  19.071  14.863
53255W        W23136   7.701  36.547   0.961
53256W        W23137  19.219  36.098  14.952
53257W        W23138  28.086  38.458  11.857
53258W        W23139  25.183  31.614  13.978
53259W        W23140  36.401  30.001  10.934
53260W        W23141  22.611  26.464  10.460
53261W        W23142  32.912   1.465   0.351
53262W        W23143   6.428   9.697   4.193
53263W        W23144  28.016  39.421   2.679
53264W        W23145  30.918  42.811   1.817
53265W        W23146  31.074  40.508   0.862
53266W        W23147  10.816  30.507  13.965
53267W        W23148  23.178  38.947  14.433
53268W        W23149  20.044  39.843   2.213
53269W        W23150   6.413  30.613  13.908
53270W        W23151   1.452   7.284   4.156
53271W        W23152  12.143   1.894   1.317
53272W        W23153  29.514  15.579  11.008
53273W        W23154   5.691  31.972  11.951
53274W        W23155  16.257  39.859   0.765
53275W        W23156  32.987  19.673  12.052
53276W        W23157  43.480  29.518   2.203
53277W        W23158   2.905  28.106  11.446
53278W        W23159  10.250   3.223  14.793
53279W        W23160  39.383   4.740  12.932
53280W        W23161   7.752  17.249   1.730
53281W        W23162  11.331  42.385  14.425
53282W        W23163   0.960  33.125   2.753
53283W        W23164  32.564   0.305   2.260
53284W        W23165  42.304  29.527  10.468
53285W        W23166  33.400   9.256  12.531
53286W        W23167  20.613  44.892   0.254
53287W        W23168  11.300  24.637  11.079
53288W        W23169   1.848  24.040  14.830
53289W        W23170   8.885   7.896  11.531
53290W        W23171  23.016  21.563   1.243
53291W        W23172   7.372  38.047  14.857
53292W        W23173  12.809  29.109   4.202
53293W        W23174  16.313  37.407  11.611
53294W        W23175  44.815  21.095   0.407
53295W        W23176  13.801  11.626   0.929
53296W        W23177  30.623  29.929  12.084
53297W        W23178  28.437  33.518   3.830
53298W        W23179  14.716  40.446   1.252
53299W        W23180  37.030   7.292   4.264
53300W        W23181  16.180  30.948   0.478
53301W        W23182  27.574  23.063  13.480
53302W        W23183  28.555  18.127   1.781
53303W        W23184  21.698  20.687   0.300
53304W        W23185  40.831  14.173   1.869
53305W        W23186  31.596  34.434  12.881
53306W        W23187  44.862  40.433   0.959
53307W        W23188  43.493  24.193  14.903
53308W        W23189  41.996  23.730   4.136
53309W        W23190  36.477  34.979  12.872
53310W        W23191  19.178  37.388   4.151
53311W        W23192  14.729  31.468  14.430
53312W        W23193  34.576   6.298  11.505
53313W        W23194  36.512  41.362   3.751
53314W        W23195  35.878  35.083   4.149
53315W        W23196  33.108  23.503  14.310
53316W        W23197  27.108  13.272   4.774
53317W        W23198  16.307  11.163  12.970
53318W        W23199   9.164  33.436   2.273
53319W        W23200  42.478   7.291   2.682
53320W        W23201  21.136   2.399  12.491
53321W        W23202  17.096  15.091   1.771
53322W        W23203  25.010  24.032   1.928
53323W        W23204  27.685  23.120  12.565
53324W        W23205  25.037  38.884  13.893
53325W        W23206  41.916  44.366  11.037
53326W        W23207  18.110  32.917  13.995
53327W        W23208   5.256   7.223  13.400
53328W        W23209  44.483  28.135   5.118
53329W        W23210   8.327   2.405   0.396
53330W        W23211   5.385  18.205  14.941
53331W        W23212  36.996  18.732  10.553
53332W        W23213  38.421  22.200   0.929
53333W        W23214   2.355  26.608  14.338
53334W        W23215  21.561  29.583  11.438
53335W        W23216  35.051  15.224  12.531
53336W        W23217   2.903   4.266   0.792
53337W        W23218  22.670  25.106   5.106
53338W        W23219  14.813  15.731  10.979
53339W        W23220  35.934  38.905   3.649
53340W        W23221  42.912   4.830  14.985
53341W        W23222  42.869  38.930   4.223
53342W        W23223   1.896   6.248   0.269
53343W        W23224  19.108  33.558  13.849
53344W        W23225  24.105   8.362   1.306
53345W        W23226  39.892   1.442  14.965
53346W        W23227  35.967  12.155   4.218
53347W        W23228  17.234  10.190  13.058
53348W        W23229  27.461   3.915  14.959
53349W        W23230  20.091  19.600   0.335
53350W        W23231  30.516  17.787   0.931
53351W        W23232   9.748  35.584  14.909
53352W        W23233  42.327  13.650  11.388
53353W        W23234  29.067  26.625   2.187
53354W        W23235   0.464  35.415   3.760
53355W        W23236  34.034  20.647  11.005
53356W        W23237  39.444  12.327   3.174
53357W        W23238  35.402  16.118   1.336
53358W        W23239  28.535   6.790   2.191
53359W        W23240  30.974  44.781  11.881
53360W        W23241  42.786   5.738   4.722
53361W        W23242  27.692  36.347  11.982
53362W        W23243   0.873  42.012  11.043
53363W        W23244  21.669  38.526   2.238
53364W        W23245   6.247  35.558   2.251
53365W        W23246  22.578  35.872  12.963
53366W        W23247  42.406  20.627   3.312
53367W        W23248  44.346  23.075   2.381
53368W        W23249   6.247  27.193   1.345
53369W        W23250  32.905  26.207  11.386
53370W        W23251  14.666   8.403  10.894
53371W        W23252  39.378  13.642   1.883
53372W        W23253  43.805  22.561   4.217
53373W        W23254  21.237  37.360  13.420
53374W        W23255  30.521  44.833   2.393
53375W        W23256   5.363   2.273   4.135
53376W        W23257  14.620  38.963  12.864
53377W        W23258  18.710  31.577   3.289
53378W        W23259  32.900  28.116   2.834
53379W        W23260  31.441   3.450  12.340
53380W        W23261  43.911  15.096  10.971
53381W        W23262  20.717   0.926  10.583
53382W        W23263   9.794  14.138  10.417
53383W        W23264   4.795  37.053   2.725
53384W        W23265  42.454   4.700   4.315
53385W        W23266   4.810  19.137  12.434
53386W        W23267  19.165  40.485   2.685
53387W        W23268   3.404  18.632   1.887
53388W        W23269  23.683   8.206   2.191
53389W        W23270  33.546  44.937  10.490
53390W        W23271  12.156  40.489  12.552
53391W        W23272  17.783   8.201  10.499
53392W        W23273  24.125  24.686  12.884
53393W        W23274  33.926  33.621   0.299
53394W        W23275  44.456   9.213   1.726
53395W        W23276   5.368  14.792  13.838
53396W        W23277  20.649  37.467   4.725
53397W        W23278  18.697  17.264  13.324
53398W        W23279   9.734  10.367  14.399
53399W        W23280  25.498   7.312   1.418
53400W        W23281  26.480  25.181   3.233
53401W        W23282  22.535   3.875  12.960
53402W        W23283  15.153  27.035  13.411
53403W        W23284  38.526  37.907  14.335
53404W        W23285  25.588  28.020  12.091
53405W        W23286   8.713  15.713  13.853
53406W        W23287  28.669  19.655  11.127
53407W        W23288  12.344   1.283  11.458
53408W        W23289   7.894  38.518  11.376
53409W        W23290  29.640   4.817   5.095
53410W        W23291  42.510  23.046  13.030
53411W        W23292  31.636  32.570   2.294
53412W        W23293  17.609   4.899  13.361
53413W        W23294  10.846  25.661   1.894
53414W        W23295  31.416  39.366  11.406
53415W        W23296  43.880  26.548   3.225
53416W        W23297  27.191  15.758  12.367
53417W        W23298  30.090  34.089   3.751
53418W        W23299   2.431  21.522  12.876
53419W        W23300  11.323  40.899   2.765
53420W        W23301  23.712  11.369  10.503
53421W        W23302  10.167  23.682   2.768
53422W        W23303  24.711  35.981  10.460
53423W        W23304  39.319  10.839  13.793
53424W        W23305  18.201  27.978  12.981
53425W        W23306   2.928   8.898  14.985
53426W        W23307  21.718   0.438   2.198
53427W        W23308   4.881  43.325   1.855
53428W        W23309  42.394   8.355   1.795
53429W        W23310  36.087   8.682   2.704
53430W        W23311  39.452  12.212   1.336
53431W        W23312  15.282   4.360  10.603
53432W        W23313  17.132  31.150   3.256
53433W        W23314   9.210  35.397   4.715
53434W        W23315  44.433  40.491  11.471
53435W        W23316   6.201  34.531   4.207
53436W        W23317   6.399  21.709   1.416
53437W        W23318  32.089   8.876   5.150
53438W        W23319  35.964  34.961  12.074
53439W        W23320   2.952   2.345   3.643
53440W        W23321  34.896   8.392  11.380
53441W        W23322  23.645  24.534   1.849
53442W        W23323  14.653   4.253   2.897
53443W        W23324  38.838   1.337  13.996
53444W        W23325  26.553  33.965  11.880
53445W        W23326  11.663  34.583   1.347
53446W        W23327  40.024  27.676  12.346
53447W        W23328  14.831  42.289   3.381
53448W        W23329  27.078  42.882   4.625
53449W        W23330  40.460  26.654   0.803
53450W        W23331  15.630  16.216   0.814
53451W        W23332  21.579  39.338   3.158
53452W        W23333   3.456  34.382   2.793
53453W        W23334  39.550   7.840  14.926
53454W        W23335  24.559  16.670  14.994
53455W        W23336   6.316   5.223  13.003
53456W        W23337  27.619  11.706  13.470
53457W        W23338  44.892  35.549   4.268
53458W        W23339  43.496   1.460  11.541
53459W        W23340  38.836   3.900   1.387
53460W        W23341   8.795   0.353  14.926
53461W        W23342  16.707  11.826   3.318
53462W        W23343  37.899  25.518   2.353
53463W        W23344  44.834  16.229  14.853
53464W        W23345  21.231  34.083  11.483
53465W        W23346  40.438  22.547   4.659
53466W        W23347  37.398  42.871  12.360
53467W        W23348   5.251   5.197   3.766
53468W        W23349   2.366  31.409   4.161
53469W        W23350  26.953  42.910   4.157
53470W        W23351  17.200  18.640   0.874
53471W        W23352  10.868   1.937   4.320
53472W        W23353  39.443  44.983   4.600
53473W        W23354   4.838  34.896   0.810
53474W        W23355  15.628  44.980  13.823
53475W        W23356  28.611  25.216   0.350
53476W        W23357  25.200  39.433  12.871
53477W        W23358  37.512  27.468   4.832
53478W        W23359  10.658  27.976   3.784
53479W        W23360  22.086  24.133  12.431
53480W        W23361  17.747   2.370   3.315
53481W        W23362  31.016  19.659  14.509
53482W        W23363  41.470   7.756  10.603
53483W        W23364  21.072   9.650  12.859
53484W        W23365  14.778  34.507  12.461
53485W        W23366  21.065  27.570   0.351
53486W        W23367  24.989  32.569   1.789
53487W        W23368   8.855  23.168  12.967
53488W        W23369  33.575  27.102   1.744
53489W        W23370  30.940  16.570  13.332
53490W        W23371   6.808  42.356  14.848
53491W        W23372  12.617  29.164  10.039
53492W        W23373   4.749  41.888  12.378
53493W        W23374  11.790   0.291  14.364
53494W        W23375  41.833   1.969  12.462
53495W        W23376   5.873   0.480   2.864
53496W        W23377   4.445  40.526   2.331
53497W        W23378  25.131  37.001  14.348
53498W        W23379  27.009  25.549  14.979
53499W        W23380   9.781  25.065  12.901
53500W        W23381  28.623  17.279  10.463
53501W        W23382  24.045  35.504   1.893
53502W        W23383  36.515  30.643   0.483
53503W        W23384  42.398   9.661   3.826
53504W        W23385  21.132  14.828  10.473
53505W        W23386  22.591  44.454  14.311
53506W        W23387  18.732   4.745  13.855
53507W        W23388  31.147   2.450   3.828
53508W        W23389   1.744  21.076  12.507
53509W        W23390   3.280  43.398   3.772
53510W        W23391  22.088  44.399   4.226
53511W        W23392  25.188  10.634  11.007
53512W        W23393  32.570  23.017  13.831
53513W        W23394  29.982   1.466  11.063
53514W        W23395  19.247  39.409  13.462
53515W        W23396  27.524  39.442  13.481
53516W        W23397  17.252   1.250  10.599
53517W        W23398   4.768  35.907  14.394
53518W        W23399  32.943  30.100  10.941
53519W        W23400  18.547  27.575   3.856
53520W        W23401  26.129  33.938   2.240
53521W        W23402  10.689  17.601  10.037
53522W        W23403  39.484  40.841   0.885
53523W        W23404  27.574  39.331  11.542
53524W        W23405  13.800  13.766   1.380
53525W        W23406   0.343  30.110   0.282
53526W        W23407  40.458  20.029   1.396
53527W        W23408  14.292  33.516   0.444
53528W        W23409   2.235  39.035  14.513
53529W        W23410  15.583  20.066   2.297
53530W        W23411  44.350  25.634   4.687
53531W        W23412  27.572   6.814  10.529
53532W        W23413   3.368  26.104  11.459
53533W        W23414   1.269  11.276   2.767
53534W        W23415   4.391  44.980  10.914
53535W        W23416  15.650  28.516  11.087
53536W        W23417   6.923  20.566  10.974
53537W        W23418   6.890   1.862  12.496
53538W        W23419   5.375  25.597   2.890
53539W        W23420  31.589  12.219   0.787
53540W        W23421  34.891  43.997  14.974
53541W        W23422  19.591  43.418  12.379
53542W        W23423  44.280  14.303  10.977
53543W        W23424  26.013   2.363   3.796
53544W        W23425  16.745  12.291   0.426
53545W        W23426  33.109  21.139  12.377
53546W        W23427  43.375  12.282   1.868
53547W        W23428   4.397  43.371  12.403
53548W        W23429  40.472  18.052  11.582
53549W        W23430  39.066  17.613  14.410
53550W        W23431  43.956  15.276  11.464
53551W        W23432  29.461   2.281  12.477
53552W        W23433   0.782  20.746  11.611
53553W        W23434   4.356   4.231  11.919
53554W        W23435  22.195  32.532  10.472
53555W        W23436  14.290  11.323  13.825
53556W        W23437  39.314  29.548   1.768
53557W        W23438   7.696  39.886  10.916
53558W        W23439  10.224  33.527  12.555
53559W        W23440  12.635  22.528  10.959
53560W        W23441  34.525  42.968  11.461
53561W        W23442  17.590  13.701  13.507
53562W        W23443  11.757  38.016  10.447
53563W        W23444  39.953   0.955   4.695
53564W        W23445   5.287   7.792   4.742
53565W        W23446  22.711   8.719   4.226
53566W        W23447  11.822  20.103  12.370
53567W        W23448  34.869  13.733  13.050
53568W        W23449  33.876  15.175   2.706
53569W        W23450  34.103  41.456   2.235
53570W        W23451  13.669   5.708  12.448
53571W        W23452  42.444   0.773   2.701
53572W        W23453  23.644  26.467   1.806
53573W        W23454   4.832  26.664   2.871
53574W        W23455  20.157   3.824   3.213
53575W        W23456  26.646  35.384  11.906
53576W        W23457  10.216  14.324  12.086
53577W        W23458  33.915   2.364   0.457
53578W        W23459  27.021   2.727  14.324
53579W        W23460   2.348  27.578   1.905
53580W        W23461  35.432  24.014  13.428
53581W        W23462  42.301  23.193  14.370
53582W        W23463  14.196   8.167   0.819
53583W        W23464  14.223  10.655  13.812
53584W        W23465  14.285  37.429   3.236
53585W        W23466  37.021  43.366  13.810
53586W        W23467   1.849   6.890  11.107
53587W        W23468  11.305  30.089   1.290
53588W        W23469   5.927  38.827  13.542
53589W        W23470  28.140  25.124  12.852
53590W        W23471  29.612  24.048   3.345
53591W        W23472  44.455  19.582  13.046
53592W        W23473   7.786  27.986   2.700
53593W        W23474   2.963  16.663   4.298
53594W        W23475  15.808  36.566   3.382
53595W        W23476  38.991  17.637  13.857
53596W        W23477   6.418  33.399  10.438
53597W        W23478  10.195  40.542  13.017
53598W        W23479  35.481   6.325  14.852
53599W        W23480  19.205  17.629  11.045
53600W        W23481   6.802  17.650   3.741
53601W        W23482  18.789  29.169   1.353
53602W        W23483   3.763  13.795  12.828
53603W        W23484  25.579  29.495   2.189
53604W        W23485  10.735  21.682  12.972
53605W        W23486  34.035  26.062   1.898
53606W        W23487  17.242  39.811  10.585
53607W        W23488   3.780  22.041  13.946
53608W        W23489  35.406   5.689  13.987
53609W        W23490  30.618   3.914   2.380
53610W        W23491  41.299  26.964   3.762
53611W        W23492  10.701   0.916  12.564
53612W        W23493  14.217   9.258  13.986
53613W        W23494  31.406   3.780   4.776
53614W        W23495   5.320  23.006  13.509
53615W        W23496   3.901  41.942  13.892
53616W        W23497  17.305  38.352  12.884
53617W        W23498  41.531  13.769   0.762
53618W        W23499  36.362   3.220  12.918
53619W        W23500  41.390  26.148   3.208
53620W        W23501  21.252  16.219  12.931
53621W        W23502  14.118  21.633  14.007
53622W        W23503   4.941   0.478  12.927
53623W        W23504  44.920  42.870   1.817
53624W        W23505  24.041  30.505   0.952
53625W        W23506  22.706  29.077  14.869
53626W        W23507   2.239  41.964   4.628
53627W        W23508  10.868   0.802  13.834
53628W        W23509  37.938  33.920   2.226
53629W        W23510   6.692   3.282   3.731
53630W        W23511  44.980  11.849  11.376
53631W        W23512  27.050  28.616   3.240
53632W        W23513  43.939  12.253   3.309
53633W        W23514  40.873  18.051  13.854
53634W        W23515  29.027  43.013  10.518
53635W        W23516  21.680  28.072   3.854
53636W        W23517  37.432  17.716   1.871
53637W        W23518  40.521  35.478   0.337
53638W        W23519  42.914   3.280  10.969
53639W        W23520  37.957  18.088  13.920
53640W        W23521   6.911  30.944  12.081
53641W        W23522  24.548  40.008   0.762
53642W        W23523  21.758  37.398  14.012
53643W        W23524  22.076  23.533   2.782
53644W        W23525   8.867   5.774  14.429
53645W        W23526   4.320  21.083   3.167
53646W        W23527  21.151  15.723  12.839
53647W        W23528   8.680  40.304   2.698
53648W        W23529  16.707   6.289   2.294
53649W        W23530  23.497  10.229  14.439
53650W        W23531   7.713  38.893  14.853
53651W        W23532  33.029  27.453  10.958
53652W        W23533  26.192  37.836  11.881
53653W        W23534  31.507  15.315   9.961
53654W        W23535  27.557   9.791   0.338
53655W        W23536  26.576  10.712  12.022
53656W        W23537  17.305  42.442  13.009
53657W        W23538  26.553  34.449   3.826
53658W        W23539  33.093  23.539  13.373
53659W        W23540  38.907  38.922   3.674
53660W        W23541  39.469  20.204  11.867
53661W        W23542  34.075  23.629  13.859
53662W        W23543  15.126  38.030   5.256
53663W        W23544  10.313  34.086  14.292
53664W        W23545  20.529  22.596   1.709
53665W        W23546  27.470   4.328  12.450
53666W        W23547  25.002  19.127  14.932
53667W        W23548  16.758  32.425  12.373
53668W        W23549  42.378  30.510   0.288
53669W        W23550  13.627   1.416   1.389
53670W        W23551  13.607  36.496  12.527
53671W        W23552   0.289  16.190  11.577
53672W        W23553  43.514  30.143  12.935
53673W        W23554  43.917  12.232   2.827
53674W        W23555  40.336  33.595  11.901
53675W        W23556  40.019   6.262  13.346
53676W        W23557  31.645   8.681   1.301
53677W        W23558  20.234  39.378   1.233
53678W        W23559  24.034  21.139   2.665
53679W        W23560  10.712  22.171   4.746
53680W        W23561   5.870  42.932   3.174
53681W        W23562  28.004   5.724  14.342
53682W        W23563   3.910  13.317  11.908
53683W        W23564  16.115  20.144   3.220
53684W        W23565  19.591  33.977  11.068
53685W        W23566   3.279  34.375   1.715
53686W        W23567  38.464   9.703   3.313
53687W        W23568  43.972  23.104  12.580
53688W        W23569  29.565   5.344   4.652
53689W        W23570  17.194  12.192  12.076
53690W        W23571  40.395  32.998   1.359
53691W        W23572  31.099   2.753   3.692
53692W        W23573  29.994  43.858  13.050
53693W        W23574  40.047  24.513  13.044
53694W        W23575   5.873  35.025  12.926
53695W        W23576  11.275  16.793   1.900
53696W        W23577  34.608  42.877   1.750
53697W        W23578  44.446  26.548  11.974
53698W        W23579  15.755   6.684   4.118
53699W        W23580  17.707  11.758   4.794
53700W        W23581  15.695   0.763   2.883
53701W        W23582  16.611   2.963   0.409
53702W        W23583  24.011  31.433  11.493
53703W        W23584  22.041  44.825   4.178
53704W        W23585  19.082  37.365  13.321
53705W        W23586  37.025   3.888   3.211
53706W        W23587  12.235   1.745   2.244
53707W        W23588  25.633   1.300   1.695
53708W        W23589  43.924  14.753  11.441
53709W        W23590  37.921   4.895  12.564
53710W        W23591  40.368  30.628   1.776
53711W        W23592  24.722   9.209   2.256
53712W        W23593   4.749  23.664  14.897
53713W        W23594  11.160  34.497  13.467
53714W        W23595   8.819  12.249  12.526
53715W        W23596  23.059  44.832  11.001
53716W        W23597  28.004  41.531  13.004
53717W        W23598   8.781  19.625   3.861
53718W        W23599  29.123   6.297   1.247
53719W        W23600  10.211  25.499  11.380
53720W        W23601  16.595  19.087  12.390
53721W        W23602  21.238   4.293   3.742
53722W        W23603   3.762   7.345   2.798
53723W        W23604  42.446  33.459   2.733
53724W        W23605  28.169  20.578  12.555
53725W        W23606  30.650  30.067   2.351
53726W        W23607  30.123   7.276   4.325
53727W        W23608  23.045  21.095  10.001
53728W        W23609  18.190  26.962   2.207
53729W        W23610  28.170  36.431   2.667
53730W        W23611  25.051  16.151  13.964
53731W        W23612   3.459  37.080  12.450
53732W        W23613  38.433  38.379   2.693
53733W        W23614  27.003  10.827  12.942
53734W        W23615  31.517  20.548   1.855
53735W        W23616   5.367  34.999   4.298
53736W        W23617   5.816  25.521   3.679
53737W        W23618  22.026  21.206  13.359
53738W        W23619   2.800  22.609  11.494
53739W        W23620  28.093  41.970   4.599
53740W        W23621   8.873  21.243   0.848
53741W        W23622  23.083   2.332   3.765
53742W        W23623  15.285   6.782  14.834
53743W        W23624  15.294   2.868   1.826
53744W        W23625   7.847   0.286   3.157
53745W        W23626  15.737  18.058  10.148
53746W        W23627   9.300  29.478   0.965
53747W        W23628  42.407   5.375  12.927
53748W        W23629  27.680  44.285   0.737
53749W        W23630  30.005   6.276  13.982
53750W        W23631  22.661   3.798   4.238
53751W        W23632  26.648   5.819  12.058
53752W        W23633  23.642  44.925  13.539
53753W        W23634  12.346  42.811  13.966
53754W        W23635  26.977  41.946   0.266
53755W        W23636   1.930  32.018  13.533
53756W        W23637   1.335  36.906  14.942
53757W        W23638  21.227  16.159  13.376
53758W        W23639  20.651  42.828   0.476
53759W        W23640  37.073  20.262  13.928
53760W        W23641  14.114   3.340  12.466
53761W        W23642  43.489  36.966  11.106
53762W        W23643  44.866  33.513   4.210
53763W        W23644  12.321  18.659  13.803
53764W        W23645  20.122   4.871  14.924
53765W        W23646  36.548   1.868   9.953
53766W        W23647  11.700  32.061   2.327
53767W        W23648  29.462  17.171  12.380
53768W        W23649   3.781   2.450  12.906
53769W        W23650  32.466  35.073  13.832
53770W        W23651  42.834  21.164   3.817
53771W        W23652  10.788  11.132   2.822
53772W        W23653  39.489  29.977  10.439
53773W        W23654  22.063  17.789   5.112
53774W        W23655  16.176   8.800   4.598
53775W        W23656  30.414  32.022  14.365
53776W        W23657   0.447  26.515   3.648
53777W        W23658  28.023  25.601   4.133
53778W        W23659  19.749  10.296  11.477
53779W        W23660  30.924  39.383   4.191
53780W        W23661   2.830  37.070   1.795
53781W        W23662  44.328  23.666   3.740
53782W        W23663   3.778   3.296   2.688
53783W        W23664  18.181   0.309   2.267
53784W        W23665  28.594  10.730   3.206
53785W        W23666  41.877  35.536   0.867
53786W        W23667  26.020   9.279   2.375
53787W        W23668  30.569   3.719  12.442
53788W        W23669  41.459  38.370   3.300
53789W        W23670  44.878   8.164  14.796
53790W        W23671  17.125  17.090  10.137
53791W        W23672   4.333  24.646   3.262
53792W        W23673   5.726   3.740  10.457
53793W        W23674  24.498  27.640  13.381
53794W        W23675  28.994  25.524  13.361
53795W        W23676  10.798  37.036   4.201
53796W        W23677  28.075  23.521  12.841
53797W        W23678  16.805  15.681   4.197
53798W        W23679  25.979  19.736   3.748
53799W        W23680  24.681  23.992   2.751
53800W        W23681   2.371  25.042  12.425
53801W        W23682  43.898  41.491   3.347
53802W        W23683  21.684   9.303  10.948
53803W        W23684   2.279  42.014   0.926
53804W        W23685  42.453   8.682   2.418
53805W        W23686  28.483  28.521   4.611
53806W        W23687  36.902  41.035  13.450
53807W        W23688  28.521  20.705  10.896
53808W        W23689  11.756  38.970   0.823
53809W        W23690  20.683  35.963  12.394
53810W        W23691   9.884  33.075  10.972
53811W        W23692   4.322  32.928   1.359
53812W        W23693   6.222  44.416  13.053
53813W        W23694  36.411  21.721   3.175
53814W        W23695  36.472  34.387   1.726
53815W        W23696  17.744  16.736  14.853
53816W        W23697  44.269  39.881  11.039
53817W        W23698  30.955  24.106   5.175
53818W        W23699  38.327  18.231   1.790
53819W        W23700  31.015  19.242   1.724
53820W        W23701  12.827  11.268  14.896
53821W        W23702  40.945   9.809  13.432
53822W        W23703   0.939   2.942  12.876
53823W        W23704  39.867   0.404   1.314
53824W        W23705  16.579   6.298   0.297
53825W        W23706  24.507   9.834  13.494
53826W        W23707  33.576  16.300  14.482
53827W        W23708  39.429   9.722   2.241
53828W        W23709  33.595   6.920   4.606
53829W        W23710  39.881  19.772   0.261
53830W        W23711  19.268  14.812   4.637
53831W        W23712  11.742  26.001  11.011
53832W        W23713  30.148   9.842   2.731
53833W        W23714   3.432   6.336  14.430
53834W        W23715   9.886  14.601   0.766
53835W        W23716  30.520  14.202  14.947
53836W        W23717   2.940  10.160  10.914
53837W        W23718  12.837  13.827   4.147
53838W        W23719  33.000   9.872   0.800
53839W        W23720  31.904  31.599  13.536
53840W        W23721  15.295  16.793   2.295
53841W        W23722  17.117  11.714   1.711
53842W        W23723  32.420   3.858   1.406
53843W        W23724  12.813  31.110   4.643
53844W        W23725  12.778  37.574   4.325
53845W        W23726  19.269   7.905  11.920
53846W        W23727  42.521  35.460  14.335
53847W        W23728  37.522  32.564   3.778
53848W        W23729   6.209  38.068   3.802
53849W        W23730  44.763   0.286   1.291
53850W        W23731  38.543   2.276  10.607
53851W        W23732  34.515  14.637  13.792
53852W        W23733  42.359  27.555  14.425
53853W        W23734  29.607  18.674  10.601
53854W        W23735  29.023  38.473   2.246
53855W        W23736  24.053   0.358   0.929
53856W        W23737  20.619  18.198  14.392
53857W        W23738   5.320   2.889   2.757
53858W        W23739   5.429  26.544  13.921
53859W        W23740  30.055  41.788  10.558
53860W        W23741  19.582  21.184  11.126
53861W        W23742  36.887  30.951   2.758
53862W        W23743  31.499  12.131  13.426
53863W        W23744  38.510  12.698  12.998
53864W        W23745  13.771  36.078   4.681
53865W        W23746  16.634  43.004   0.362
53866W        W23747  35.019   7.358  14.787
53867W        W23748  33.979  43.887   1.405
53868W        W23749  29.545   8.735  14.919
53869W        W23750  35.476  44.320  10.940
53870W        W23751   4.332  28.541  14.020
53871W        W23752  38.394   5.772  14.913
53872W        W23753   8.288   8.264   0.264
53873W        W23754  44.432  28.538  14.982
53874W        W23755  10.816  26.074  14.912
53875W        W23756  29.115  27.458  12.460
53876W        W23757   1.867  23.592   4.720
53877W        W23758   3.322  23.517   0.952
53878W        W23759  13.307  11.247   1.890
53879W        W23760  23.002  43.341  10.560
53880W        W23761   2.913  41.404   2.357
53881W        W23762  24.990   2.877  13.450
53882W        W23763  28.528  15.296   1.892
53883W        W23764  32.953  15.129   0.311
53884W        W23765  17.587  39.406  11.372
53885W        W23766   5.837   3.798  14.768
53886W        W23767   0.937  27.601   1.704
53887W        W23768  16.097  40.867  10.909
53888W        W23769   5.778   4.275   3.189
53889W        W23770  10.165  19.582  13.412
53890W        W23771  25.060   7.339  12.878
53891W        W23772  29.567  39.426   1.786
53892W        W23773  25.966  33.385  14.879
53893W        W23774  42.323  41.911   0.394
53894W        W23775  20.740  11.367   1.705
53895W        W23776   7.852  38.014  10.971
53896W        W23777  31.985  33.540  11.978
53897W        W23778   7.274  15.820  14.830
53898W        W23779  16.658  10.309  12.861
53899W        W23780  34.080  41.828   4.722
53900W        W23781  44.433  25.071  12.440
53901W        W23782   8.676  44.915  13.506
53902W        W23783  21.729   6.713  12.987
53903W        W23784  31.920  25.673  13.825
53904W        W23785  29.151  34.090   2.358
53905W        W23786  36.875   8.671  11.917
53906W        W23787  23.537  31.092   2.275
53907W        W23788  22.643   3.910  14.883
53908W        W23789  44.368  40.953   0.449
53909W        W23790  27.588  28.168  13.328
53910W        W23791  38.941  40.439   0.839
53911W        W23792  36.872  15.228   2.226
53912W        W23793  28.968  17.230  11.448
53913W        W23794  24.122  12.798  13.051
53914W        W23795  25.029  25.133  14.830
53915W        W23796  39.873  21.610   1.903
53916W        W23797  29.046   3.730   3.790
53917W        W23798   0.468  23.094  13.463
53918W        W23799  28.616   8.212  14.769
53919W        W23800  39.530  24.634  10.518
53920W        W23801  16.278  34.943  11.482
53921W        W23802  21.741  15.252  11.438
53922W        W23803  20.596  16.084   0.810
53923W        W23804  13.134  30.624   1.446
53924W        W23805   7.710  19.123  10.562
53925W        W23806  22.526   8.700  13.976
53926W        W23807  24.018   7.799  12.455
53927W        W23808   0.395  35.469  14.429
53928W        W23809  30.428   8.725  11.581
53929W        W23810  15.609  30.064  12.358
53930W        W23811  21.756  24.554  14.019
53931W        W23812  25.507  16.645  12.463
53932W        W23813  34.004  27.196   3.354
53933W        W23814  28.148  42.355   0.745
53934W        W23815  35.874  12.314  13.315
53935W        W23816  32.130   0.806  12.507
53936W        W23817  23.004  41.313   3.741
53937W        W23818   6.848  29.953  11.975
53938W        W23819  29.587  30.941  12.526
53939W        W23820  39.446  25.691   2.291
53940W        W23821  42.926  24.505  13.414
53941W        W23822   9.191  15.762  12.496
53942W        W23823   6.846  21.234  10.928
53943W        W23824   8.377  27.486  11.387
53944W        W23825  29.537  34.040  10.506
53945W        W23826  38.016  18.050  13.316
53946W        W23827  43.300  15.784   3.696
53947W        W23828  18.574  14.834  11.496
53948W        W23829  35.002  32.116   2.743
53949W        W23830  28.962  25.645   3.271
53950W        W23831  36.368  36.374   4.289
53951W        W23832  24.032  34.075   4.668
53952W        W23833  16.739  27.135   4.161
53953W        W23834  42.287  39.016   2.856
53954W        W23835  33.548   0.953   4.116
53955W        W23836  24.080  31.012   0.318
53956W        W23837  31.140  29.946   0.455
53957W        W23838  34.094  31.491   0.759
53958W        W23839  26.190  26.012  10.939
53959W        W23840  25.000  26.630  10.560
53960W        W23841  26.667   9.158  11.007
53961W        W23842  35.358   7.265  13.944
53962W        W23843  40.854  36.862  13.980
53963W        W23844  40.375  25.087  13.351
53964W        W23845   2.891  25.656  10.969
53965W        W23846  18.647  11.671  10.075
53966W        W23847  16.767   7.689  10.421
53967W        W23848  30.468  44.912  13.456
53968W        W23849  37.017  35.950  14.857
53969W        W23850  22.682  21.684   2.893
53970W        W23851  40.512  15.795  13.986
53971W        W23852   0.959  12.291   4.656
53972W        W23853  32.425  44.490   2.873
53973W        W23854  30.928  26.583  14.943
53974W        W23855   2.922  42.281  12.965
53975W        W23856  29.569  36.455  12.994
53976W        W23857  30.070  42.335   3.164
53977W        W23858   3.378  19.777   3.331
53978W        W23859  27.022  44.462  13.052
53979W        W23860   1.763  40.404   0.906
53980W        W23861  22.110  17.698  14.987
53981W        W23862  24.647  17.276   2.246
53982W        W23863  38.338   1.361   4.764
53983W        W23864  11.705  38.832   3.375
53984W        W23865  23.044  33.062   0.296
53985W        W23866   4.334   3.834   2.728
53986W        W23867  39.856  40.028   2.769
53987W        W23868  26.168  34.948   1.294
53988W        W23869  35.002  12.230  10.539
53989W        W23870   4.278  39.545   1.925
53990W        W23871  25.155   1.917   1.379
53991W        W23872  26.487  39.513  11.555
53992W        W23873  42.421  34.536   1.870
53993W        W23874  13.605   4.913  10.484
53994W        W23875   9.285  28.641   1.322
53995W        W23876  34.899  42.511   4.650
53996W        W23877   4.748  26.672  12.065
53997W        W23878  23.230  20.727  13.459
53998W        W23879   3.778  21.189  11.987
53999W        W23880  13.741  30.022   4.301
54000W        W23881  17.716  15.675   1.841
54001W        W23882   5.428  35.459   1.743
54002W        W23883  16.290  43.458  13.330
54003W        W23884  24.655  23.587  13.407
54004W        W23885  31.497  32.614   0.813
54005W        W23886  25.121  44.432  11.943
54006W        W23887  19.213  12.654   0.827
54007W        W23888   9.357  26.521  10.553
54008W        W23889  13.771  42.837  13.867
54009W        W23890  14.256  13.308   1.369
54010W        W23891  31.478  20.615  11.587
54011W        W23892  13.335   3.421   5.290
54012W        W23893   3.779  40.914  12.540
54013W        W23894  27.995  44.484  10.439
54014W        W23895  43.351  14.302  13.407
54015W        W23896  38.003  28.521  11.432
54016W        W23897  41.519   1.796  13.395
54017W        W23898  10.325  27.101   4.286
54018W        W23899  31.099  34.061  14.815
54019W        W23900  24.518  33.005  10.981
54020W        W23901  17.744  23.218  12.481
54021W        W23902  24.546  18.764  12.955
54022W        W23903  28.650   6.367   0.273
54023W        W23904   8.761  38.381   1.815
54024W        W23905  44.269   9.644  10.525
54025W        W23906  21.183   7.885   5.176
54026W        W23907  36.444   2.334   4.662
54027W        W23908  21.638   5.776   1.829
54028W        W23909  44.410  36.888  10.614
54029W        W23910   6.414   4.723  14.933
54030W        W23911  22.656   7.381  14.352
54031W        W23912  31.150  13.346   5.102
54032W        W23913  41.923  28.186  12.923
54033W        W23914  44.814  24.067  13.800
54034W        W23915  11.170  27.672   0.356
54035W        W23916  28.950  12.785  12.420
54036W        W23917  35.373   7.356  10.617
54037W        W23918   9.855  14.332  11.051
54038W        W23919  39.880  13.735   2.853
54039W        W23920  27.117  37.890  14.460
54040W        W23921   2.467  25.977  10.986
54041W        W23922  13.170  20.270  14.980
54042W        W23923  15.691  14.284  12.576
54043W        W23924   9.339  38.548   4.700
54044W        W23925  30.958  16.599  14.282
54045W        W23926  32.096  10.221  12.494
54046W        W23927  15.211  22.653   2.296
54047W        W23928   7.399  36.927  11.977
54048W        W23929  23.193  39.411   4.157
54049W        W23930  12.641   0.370  14.342
54050W        W23931  39.532  20.536  13.059
54051W        W23932  30.940  29.584  13.926
54052W        W23933  40.862  38.073   2.676
54053W        W23934   3.819  35.043   9.947
54054W        W23935  22.013  27.657   4.778
54055W        W23936  42.978  14.684   3.853
54056W        W23937  14.823  37.414  11.855
54057W        W23938  23.537  38.011   2.739
54058W        W23939  18.776   9.779  10.539
54059W        W23940  31.598  38.556  12.393
54060W        W23941   3.241   4.713  11.965
54061W        W23942  18.184  38.503   4.147
54062W        W23943   0.364   4.818  14.468
54063W        W23944  14.698  23.537  13.802
54064W        W23945  27.515  26.675  11.960
54065W        W23946  37.426  33.981  11.526
54066W        W23947  37.487  26.098   0.960
54067W        W23948  32.020  17.610   2.372
54068W        W23949  15.231  36.945  11.410
54069W        W23950  44.890   0.749   3.147
54070W        W23951  41.887  38.476  11.086
54071W        W23952   6.278  31.439   4.718
54072W        W23953  41.841   9.325  13.351
54073W        W23954  14.304  20.262   0.277
54074W        W23955  16.227  11.254  10.620
54075W        W23956   7.281  20.696   0.410
54076W        W23957  33.059  39.543   3.329
54077W        W23958   0.285  28.124   2.811
54078W        W23959   6.389   6.297   5.180
54079W        W23960  42.793  29.033   0.479
54080W        W23961   2.916   4.729  10.424
54081W        W23962   1.405  17.167   1.259
54082W        W23963  43.437  30.479  11.895
54083W        W23964  35.058   6.359   4.214
54084W        W23965  12.231  42.332   3.672
54085W        W23966  14.680  35.550   1.260
54086W        W23967  27.659   1.236   2.399
54087W        W23968   5.920  31.474  10.407
54088W        W23969  40.524  42.800  10.140
54089W        W23970   7.704   3.922  11.530
54090W        W23971  36.912  12.808   4.123
54091W        W23972  22.665  24.535   1.343
54092W        W23973  15.692   4.838   3.324
54093W        W23974  25.202  41.434  14.872
54094W        W23975  12.319  22.046   1.350
54095W        W23976   1.428   6.351   3.325
54096W        W23977  11.730   6.695   4.137
54097W        W23978   3.900   1.398   0.935
54098W        W23979  13.705  36.973   2.870
54099W        W23980  19.637  19.103   0.451
54100W        W23981  12.237  19.133  12.900
54101W        W23982  22.720  22.192  12.879
54102W        W23983   3.406  13.230   4.762
54103W        W23984   7.288  14.659  11.496
54104W        W23985  38.389  21.157   3.216
54105W        W23986  42.912   6.257   4.825
54106W        W23987  32.096   6.881   2.270
54107W        W23988  26.181  23.673   2.756
54108W        W23989  31.030   6.798  14.302
54109W        W23990  22.011  10.235   3.743
54110W        W23991  24.229  39.031  14.032
54111W        W23992  27.976  32.132   1.879
54112W        W23993  18.105  15.169  14.476
54113W        W23994   8.189  24.702   2.683
54114W        W23995  29.456  41.812   0.266
54115W        W23996  21.721   1.871  14.899
54116W        W23997   0.427  36.569  10.506
54117W        W23998   1.329  42.411   4.341
54118W        W23999  38.338  23.736  14.024
54119W        W24000   9.723  11.355   3.349
54120W        W24001   9.305  35.973   5.154
54121W        W24002  19.043  19.621   0.848
54122W        W24003   2.783   3.252   2.858
54123W        W24004  11.336  36.849  12.954
54124W        W24005   2.895  35.049   3.639
54125W        W24006  15.629  31.143   4.299
54126W        W24007  15.746  33.942   0.472
54127W        W24008  32.001   0.465   4.203
54128W        W24009   5.273   4.825   2.882
54129W        W24010   6.337   2.908   4.300
54130W        W24011  15.102  30.533   3.838
54131W        W24012  15.162  24.999  14.952
54132W        W24013  44.989  18.279  12.409
54133W        W24014  43.393   9.826   2.666
54134W        W24015  29.662  11.856   4.752
54135W        W24016   4.776  11.337   3.382
54136W        W24017  24.614   7.907   2.204
54137W        W24018  27.159  24.558   3.793
54138W        W24019   6.268   7.803  10.966
54139W        W24020  19.258  24.621   0.438
54140W        W24021  19.565  24.537   4.152
54141W        W24022  24.536  30.626  10.440
54142W        W24023  32.419  24.216  12.888
54143W        W24024  25.000  13.194  12.911
54144W        W24025  33.476   1.252   2.769
54145W        W24026  35.370  32.935  13.968
54146W        W24027  19.554  16.281  11.424
54147W        W24028  21.696  26.456   4.653
54148W        W24029  19.091   5.293  10.641
54149W        W24030  30.626   0.272   2.819
54150W        W24031  34.606  23.193   2.767
54151W        W24032  27.614  31.083  10.461
54152W        W24033  18.062  27.521   2.390
54153W        W24034  21.656  38.333  12.578
54154W        W24035  43.380  20.152  10.438
54155W        W24036   1.425  11.212   0.859
54156W        W24037   6.227  37.481   4.632
54157W        W24038   7.909  19.219  12.055
54158W        W24039  29.068  43.359  10.422
54159W        W24040   3.393  20.141  11.914
54160W        W24041   2.427   7.778  11.023
54161W        W24042  38.070  43.955   3.833
54162W        W24043  38.921  28.462   2.332
54163W        W24044  25.080  31.553   1.782
54164W        W24045  15.166   1.468  11.941
54165W        W24046   3.929  27.090  13.922
54166W        W24047  35.096  16.677   0.847
54167W        W24048  31.149  14.654  11.898
54168W        W24049  21.211   6.730   0.410
54169W        W24050  36.455  24.214   1.410
54170W        W24051  17.658  19.566  13.867
54171W        W24052   5.797  27.986   1.907
54172W        W24053   8.842  42.800  11.531
54173W        W24054  36.585   3.428  14.016
54174W        W24055   0.830  10.153   1.371
54175W        W24056   0.347  18.119   4.599
54176W        W24057   3.939  17.262  10.066
54177W        W24058  38.381  22.044   4.692
54178W        W24059  31.990  35.069   1.881
54179W        W24060   3.347   6.712  11.916
54180W        W24061  12.822   6.915  13.791
54181W        W24062  41.340  15.298   4.706
54182W        W24063  36.961  33.963   0.738
54183W        W24064   4.272  18.602   0.912
54184W        W24065  17.087  27.072   1.261
54185W        W24066  11.775   2.782  14.404
54186W        W24067  36.892  33.999   4.191
54187W        W24068  14.154  26.507  11.932
54188W        W24069   7.781  37.526   0.854
54189W        W24070  21.122  19.620   3.307
54190W        W24071  44.883  13.737   3.360
54191W        W24072  43.838   6.242  14.439
54192W        W24073  11.312  32.437   2.199
54193W        W24074  14.631  39.330   3.284
54194W        W24075  21.215   7.324   4.213
54195W        W24076  19.072  22.647   2.758
54196W        W24077  21.736   2.778   1.865
54197W        W24078  35.855  12.780  11.372
54198W        W24079  12.184  34.864  11.527
54199W        W24080  26.066  12.312   3.727
54200W        W24081  14.635  28.641   4.794
54201W        W24082  15.615  31.977   2.303
54202W        W24083   2.359  19.619   5.171
54203W        W24084  16.645  39.846   4.304
54204W        W24085   5.780  31.630  14.908
54205W        W24086   2.284  20.665   2.765
54206W        W24087  39.410  13.224  12.034
54207W        W24088  28.444  33.974  11.030
54208W        W24089  43.770  20.599   3.150
54209W        W24090  10.247  33.933  13.927
54210W        W24091  21.582  34.939  11.468
54211W        W24092  37.451  29.495   3.175
54212W        W24093   6.911  41.843   1.749
54213W        W24094   3.880   7.810  14.300
54214W        W24095  33.120  27.665  14.281
54215W        W24096   5.341  22.233  14.771
54216W        W24097  25.474  21.719  14.386
54217W        W24098  36.968   9.746  14.942
54218W        W24099  24.002  41.427  12.077
54219W        W24100   3.791  29.166   2.680
54220W        W24101  42.779  37.440  12.005
54221W        W24102  17.789  34.453   2.716
54222W        W24103  37.035  24.676   3.257
54223W        W24104  40.440  39.361   4.771
54224W        W24105  40.412  33.444  12.436
54225W        W24106  14.109  21.714   2.900
54226W        W24107  15.633  14.691   3.162
54227W        W24108   5.845  10.861   2.344
54228W        W24109   6.421   0.273   2.832
54229W        W24110  40.361   9.388  11.017
54230W        W24111  13.318  34.904  11.908
54231W        W24112  42.989  27.529  14.835
54232W        W24113  16.280  43.910  14.381
54233W        W24114   8.822   3.926   4.192
54234W        W24115  31.448  27.076  14.380
54235W        W24116  10.832  20.047  13.875
54236W        W24117  32.962  18.114   2.270
54237W        W24118  30.423  41.373  14.988
54238W        W24119   8.173  21.036  14.783
54239W        W24120  11.223  32.484   0.447
54240W        W24121   5.342  14.750  13.397
54241W        W24122  36.443   3.725   3.361
54242W        W24123  31.590  44.280   2.873
54243W        W24124  15.272   4.798  11.515
54244W        W24125  31.489  13.262   0.874
54245W        W24126  32.616   7.369  13.879
54246W        W24127  29.167  26.587  13.041
54247W        W24128  24.164  10.197  14.508
54248W        W24129  19.709  13.299  10.601
54249W        W24130  43.494  14.145  12.477
54250W        W24131  18.581  19.760   4.750
54251W        W24132  27.578  39.438  14.762
54252W        W24133  30.085  16.614  10.909
54253W        W24134  33.497   4.421  12.943
54254W        W24135   3.423  15.221  14.294
54255W        W24136  17.621  29.041   4.170
54256W        W24137  14.690   8.868  10.620
54257W        W24138   8.861  25.695  13.960
54258W        W24139  31.150  14.319  12.497
54259W        W24140  36.990  10.332  11.054
54260W        W24141  17.760  26.672  14.922
54261W        W24142  18.566   3.718   0.374
54262W        W24143   3.386  22.232  10.543
54263W        W24144  14.228   0.385   4.331
54264W        W24145  11.850  33.958  14.390
54265W        W24146  24.700  20.067   0.959
54266W        W24147  10.752  29.558   2.329
54267W        W24148  20.557  33.042  11.446
54268W        W24149  31.096  21.712  13.936
54269W        W24150  23.668  27.188  14.405
54270W        W24151  26.027  42.934  10.089
54271W        W24152  19.641  29.960   3.683
54272W        W24153  44.891  44.997  14.029
54273W        W24154  36.869   9.174   4.787
54274W        W24155  15.325  20.208   3.831
54275W        W24156  29.580  19.629  13.978
54276W        W24157  26.673  33.021   0.744
54277W        W24158  21.516   5.244  12.053
54278W        W24159  29.618  31.472   1.807
54279W        W24160  32.908  32.953  10.956
54280W        W24161  15.176   6.871   3.693
54281W        W24162  18.785   0.357   3.868
54282W        W24163  27.651  10.773  13.842
54283W        W24164  44.833   9.166   4.247
54284W        W24165  42.846  41.962   1.834
54285W        W24166  22.566  43.931   9.990
54286W        W24167   1.956  41.385  14.935
54287W        W24168  42.849  17.142   3.852
54288W        W24169  39.044  29.532   3.720
54289W        W24170  27.998  12.346  12.392
54290W        W24171  32.446  24.182   3.330
54291W        W24172  17.753  33.563  12.825
54292W        W24173  40.359  33.999  10.620
54293W        W24174  18.702  15.788  12.519
54294W        W24175  31.986   0.815   3.795
54295W        W24176  38.341   1.844   2.874
54296W        W24177  12.617  42.948   2.322
54297W        W24178  42.866  17.164   4.740
54298W        W24179  31.051   9.356  14.031
54299W        W24180   5.853   7.176  14.350
54300W        W24181   7.303  13.793  12.937
54301W        W24182  44.984  10.362  10.459
54302W        W24183  31.507  36.852  13.064
54303W        W24184  18.285  28.148   5.780
54304W        W24185  13.314  15.236  14.025
54305W        W24186  13.710  24.026  11.021
54306W        W24187  38.928  31.949   1.876
54307W        W24188   0.835  34.598   4.336
54308W        W24189  10.153  22.125   4.773
54309W        W24190  15.612  29.509  11.882
54310W        W24191  18.579  37.456   5.225
54311W        W24192  43.427  15.327   4.665
54312W        W24193  25.217   2.399  11.566
54313W        W24194  44.376  21.650   4.262
54314W        W24195   5.871  18.246  12.497
54315W        W24196  26.088  17.089  10.902
54316W        W24197  23.031  33.559  14.027
54317W        W24198  28.464  20.074  13.052
54318W        W24199  17.113  17.250  11.590
54319W        W24200  22.235  28.442  10.480
54320W        W24201  10.262  13.841  13.431
54321W        W24202  37.468  42.378   0.771
54322W        W24203  17.762  25.653   1.912
54323W        W24204  20.686  15.090   2.204
54324W        W24205  20.562   0.372   4.740
54325W        W24206  35.011  31.489  12.384
54326W        W24207  17.262  36.997  12.096
54327W        W24208   7.386   2.919  12.372
54328W        W24209   5.861  17.784  12.874
54329W        W24210  43.421   8.713  11.555
54330W        W24211  42.011  25.118  11.511
54331W        W24212  20.229  30.943   3.716
54332W        W24213  33.978  19.628   1.863
54333W        W24214  18.286  32.421   4.223
54334W        W24215  22.079   7.853  12.444
54335W        W24216  39.506  24.140  11.478
54336W        W24217  28.550  42.865   1.901
54337W        W24218  15.247  22.518   1.404
54338W        W24219   0.314  29.615   2.208
54339W        W24220  38.501   1.396   9.436
54340W        W24221  24.033  20.168  14.404
54341W        W24222  12.798  18.216  11.441
54342W        W24223  35.542  24.191  13.969
54343W        W24224  28.142  21.730   3.680
54344W        W24225  22.728  18.127  13.332
54345W        W24226  25.706  37.004  14.883
54346W        W24227  16.805  16.221  12.901
54347W        W24228  14.332  19.703  12.958
54348W        W24229   8.216  30.046  14.803
54349W        W24230  29.434  40.988  12.466
54350W        W24231   9.330  18.712   3.665
54351W        W24232  36.590  10.635   0.734
54352W        W24233  37.077  10.204   3.758
54353W        W24234  36.408  35.957  13.857
54354W        W24235  40.949   7.364   0.884
54355W        W24236  10.253  38.855   2.241
54356W        W24237  14.330  22.515   0.284
54357W        W24238  29.008   5.799   1.261
54358W        W24239  32.027  11.219   4.160
54359W        W24240   4.253  36.967   4.627
54360W        W24241  20.250  12.294   4.772
54361W        W24242  10.710  11.783  12.017
54362W        W24243  36.011  33.487   1.874
54363W        W24244   7.268   3.824   0.777
54364W        W24245   3.838  40.377   2.324
54365W        W24246   2.891  43.968   4.287
54366W        W24247  32.019  14.785   0.470
54367W        W24248  18.222   6.412  14.314
54368W        W24249  18.610  26.545  13.855
54369W        W24250  31.502  25.199  11.552
54370W        W24251  36.983  17.282  12.382
54371W        W24252   3.947  43.299  14.833
54372W        W24253  40.545  37.034  10.482
54373W        W24254  11.305   8.353  13.389
54374W        W24255  30.909   9.216   4.215
54375W        W24256  21.022   7.758   1.309
54376W        W24257  20.588  41.834  11.584
54377W        W24258  29.027  24.220  10.547
54378W        W24259  39.913  35.927  12.005
54379W        W24260  14.589  15.141  11.121
54380W        W24261  17.183  30.050   0.845
54381W        W24262  35.908  10.332  12.385
54382W        W24263  21.224  28.495  12.982
54383W        W24264   6.817  39.917  11.985
54384W        W24265   1.238  26.690  10.491
54385W        W24266  34.120  39.353  13.894
54386W        W24267  33.448  40.425  11.971
54387W        W24268  18.084  42.525  13.026
54388W        W24269  15.734   7.721  12.943
54389W        W24270  16.717  34.512   3.652
54390W        W24271   2.446  12.618  12.393
54391W        W24272  22.538  21.722   4.809
54392W        W24273  17.200  10.162   1.247
54393W        W24274  36.362  16.130   4.784
54394W        W24275  32.130  24.147  11.884
54395W        W24276  33.942  36.537  13.930
54396W        W24277  18.269   5.909   3.272
54397W        W24278   7.668  11.651  11.855
54398W        W24279   3.714   7.403  12.031
54399W        W24280  22.075  37.507   2.712
54400W        W24281  28.445  39.011   2.310
54401W        W24282  36.882  26.576  14.342
54402W        W24283  24.051  18.158  12.375
54403W        W24284  38.478  26.962   4.644
54404W        W24285  27.994  30.475  11.108
54405W        W24286  23.084  40.931  14.955
54406W        W24287  25.064  23.125   4.250
54407W        W24288  41.824  17.184  14.407
54408W        W24289  19.555  22.725   2.678
54409W        W24290   4.253  42.964   3.774
54410W        W24291  44.893  12.633   4.779
54411W        W24292   7.717  44.952  11.941
54412W        W24293  21.090   9.298   2.675
54413W        W24294  29.636  21.600   2.193
54414W        W24295  12.297  40.530  12.940
54415W        W24296  16.594  22.029   1.416
54416W        W24297  27.689  20.035  10.587
54417W        W24298  29.599  36.090  12.489
54418W        W24299   8.827  20.637  14.277
54419W        W24300   1.483  36.448   0.734
54420W        W24301  30.602  10.343   3.153
54421W        W24302  43.014  39.041   0.929
54422W        W24303  18.620  43.477   3.818
54423W        W24304  38.437  28.115  11.965
54424W        W24305  29.061  12.748   2.790
54425W        W24306  14.216  13.611  12.878
54426W        W24307  26.114  11.751  12.845
54427W        W24308  10.758  18.758   0.786
54428W        W24309  34.449   1.317   3.764
54429W        W24310  18.666  39.330  12.357
54430W        W24311  14.680  30.991  10.477
54431W        W24312  14.627   5.885  10.404
54432W        W24313  28.065  39.375  13.544
54433W        W24314  33.980  30.458   1.859
54434W        W24315  40.013   2.252   3.175
54435W        W24316  40.841   1.747   2.803
54436W        W24317  42.967  25.506  14.005
54437W        W24318  22.666  11.649   0.950
54438W        W24319  25.547   4.779   3.708
54439W        W24320  40.858  10.190   2.686
54440W        W24321  18.649  32.074  10.525
54441W        W24322  13.290  33.527   3.205
54442W        W24323  43.846  37.437   5.115
54443W        W24324  31.508  41.990  13.018
54444W        W24325  30.631  31.451  12.919
54445W        W24326  24.724  37.055  13.451
54446W        W24327  40.989  35.979   3.146
54447W        W24328  16.655  31.971  13.991
54448W        W24329  11.715   9.217  12.869
54449W        W24330  35.430  14.699  12.485
54450W        W24331  13.298  34.906  12.484
54451W        W24332  34.544  33.581   1.843
54452W        W24333  19.575   8.166  10.962
54453W        W24334  44.470   5.257  11.451
54454W        W24335  20.544  25.691   1.702
54455W        W24336  20.593  22.107  11.414
54456W        W24337   3.921  39.541  11.072
54457W        W24338  38.447  22.084  13.027
54458W        W24339  29.530  23.666   1.795
54459W        W24340   9.169  11.235   2.705
54460W        W24341   7.739  43.002  12.947
54461W        W24342  32.973  21.750  11.945
54462W        W24343  30.044   9.257   3.342
54463W        W24344  24.031  24.018   3.681
54464W        W24345  37.928  41.030   3.661
54465W        W24346  33.616  19.574   4.744
54466W        W24347   6.256  31.999  10.564
54467W        W24348   2.305  10.845  14.027
54468W        W24349  34.021   3.282  10.641
54469W        W24350   1.793  42.330   3.327
54470W        W24351  44.308  32.007  10.639
54471W        W24352   1.819   5.407   2.821
54472W        W24353  10.839  27.567   3.678
54473W        W24354  40.369  13.833   2.387
54474W        W24355   3.893   7.298   4.782
54475W        W24356  21.150  16.721   2.828
54476W        W24357  43.344  35.006   1.932
54477W        W24358   6.790  31.946  14.844
54478W        W24359  10.790  41.039   4.191
54479W        W24360  18.250   4.814  10.423
54480W        W24361  18.609  17.221   2.415
54481W        W24362   3.436  23.718   4.245
54482W        W24363  24.700  42.501  13.998
54483W        W24364  30.109   9.730  13.438
54484W        W24365  25.670  41.312   3.703
54485W        W24366  18.741  22.676   2.315
54486W        W24367  39.359  26.002   3.349
54487W        W24368  21.599  22.099   3.254
54488W        W24369  11.225   3.764   3.320
54489W        W24370  28.146  15.635   0.415
54490W        W24371   4.343   1.430   4.672
54491W        W24372  42.407  20.151   4.240
54492W        W24373  15.151  29.666  12.955
54493W        W24374  30.938  28.528  11.032
54494W        W24375  39.964  43.916   2.226
54495W        W24376  19.700  23.212   0.865
54496W        W24377  26.004  27.159   3.305
54497W        W24378  28.057  19.767   1.843
54498W        W24379  41.037   8.751   0.372
54499W        W24380  34.501  37.482   0.282
54500W        W24381  30.935  26.120  12.864
54501W        W24382  13.628  18.603   4.612
54502W        W24383  41.505  21.646  12.839
54503W        W24384  15.264   4.344  13.949
54504W        W24385  23.987  27.640   4.288
54505W        W24386  42.860   8.377  11.915
54506W        W24387  12.718  37.860  11.857
54507W        W24388  13.285   1.827  11.879
54508W        W24389  42.321  35.546  12.483
54509W        W24390  34.385  43.933  10.480
54510W        W24391  40.470  19.536   0.881
54511W        W24392  21.687  40.981  14.968
54512W        W24393  16.654  24.216   3.244
54513W        W24394  13.633  18.674  12.877
54514W        W24395   1.411  39.427  12.904
54515W        W24396  33.016  17.718   1.846
54516W        W24397  27.104   6.213   1.358
54517W        W24398  28.130  22.724   1.221
54518W        W24399   4.901  12.773  12.824
54519W        W24400  18.050  21.193   2.232
54520W        W24401  16.255  31.096  11.425
54521W        W24402  13.322  18.719   1.862
54522W        W24403  33.613  43.349  11.613
54523W        W24404  16.762   8.290  14.981
54524W        W24405   9.699  37.921   3.376
54525W        W24406   2.311  14.181   4.146
54526W        W24407  21.738   4.368   2.318
54527W        W24408  44.416  43.457   2.856
54528W        W24409   1.247  24.721   4.326
54529W        W24410   5.210  19.151  10.525
54530W        W24411  37.892  16.667   2.288
54531W        W24412  39.472  37.874  11.404
54532W        W24413  34.007  17.211  14.834
54533W        W24414  36.031  19.251   3.283
54534W        W24415  30.537  37.938   3.739
54535W        W24416   3.748  40.458   4.237
54536W        W24417   8.724  17.732   1.886
54537W        W24418  11.723  43.909   3.322
54538W        W24419  29.927  29.029   2.253
54539W        W24420  16.764  28.138  12.531
54540W        W24421  21.061  34.024   4.749
54541W        W24422  20.563   9.305  10.515
54542W        W24423  41.903   8.348   4.678
54543W        W24424  11.628   7.352   4.654
54544W        W24425   5.213  23.660  11.037
54545W        W24426  42.915  29.946   2.268
54546W        W24427  32.124  21.564  14.881
54547W        W24428  39.428  17.171  11.038
54548W        W24429  27.960   2.839  12.417
54549W        W24430  37.843  10.826   4.672
54550W        W24431  31.609   1.960  14.836
54551W        W24432  21.700  20.247  11.941
54552W        W24433  25.484  37.061  12.525
54553W        W24434   9.660  10.710   4.264
54554W        W24435  31.479  21.238   3.714
54555W        W24436  41.835  27.461  13.505
54556W        W24437  12.748  34.896  14.998
54557W        W24438   8.196  22.523   4.792
54558W        W24439  36.370  26.111  12.572
54559W        W24440  19.772  39.434   4.242
54560W        W24441   7.330  11.298   3.848
54561W        W24442  16.241  31.066  10.444
54562W        W24443  20.632   6.281  10.414
54563W        W24444  38.984  11.236   3.701
54564W        W24445   5.297  39.340   1.821
54565W        W24446  32.574   8.746  11.473
54566W        W24447  44.350  16.240   4.657
54567W        W24448  44.487   6.684   4.674
54568W        W24449   1.882  31.086   3.835
54569W        W24450   8.691  15.799  11.071
54570W        W24451  18.623   5.333  14.516
54571W        W24452   6.700  15.202   0.281
54572W        W24453  13.697   7.840   2.862
54573W        W24454  41.322  35.994  10.545
54574W        W24455  15.699   5.195  11.482
54575W        W24456  16.302  25.127  12.074
54576W        W24457   9.657  38.358   2.690
54577W        W24458  43.877  27.447  11.910
54578W        W24459   5.261  10.726   0.758
54579W        W24460   3.401  24.153  13.922
54580W        W24461  35.979  19.223   0.319
54581W        W24462  31.933  31.100   3.174
54582W        W24463  21.090   3.905   2.772
54583W        W24464  32.519  33.508   3.823
54584W        W24465  32.897  25.705  10.512
54585W        W24466  34.111  30.569   2.709
54586W        W24467  31.965  20.057   2.354
54587W        W24468  22.714  19.053  13.863
54588W        W24469  33.540  14.775  12.402
54589W        W24470  23.148   9.822   2.184
54590W        W24471  12.711  32.894   0.825
54591W        W24472  15.726  27.621   2.305
54592W        W24473  16.612   6.416  10.926
54593W        W24474   2.844   1.460  12.547
54594W        W24475  10.769  12.846  13.002
54595W        W24476  20.733   0.929  12.865
54596W        W24477  29.586  44.788  10.477
54597W        W24478   9.387  20.651   3.803
54598W        W24479   1.826  20.096  13.051
54599W        W24480   7.777  13.257   0.748
54600W        W24481   1.296  41.515   4.649
54601W        W24482  15.083  18.696   2.902
54602W        W24483  40.345  42.013   0.945
54603W        W24484   9.355  37.484  13.792
54604W        W24485  38.453  25.000   4.713
54605W        W24486  25.091  24.623   4.616
54606W        W24487   7.770  22.613  10.963
54607W        W24488  37.910  30.519   1.335
54608W        W24489  26.669  32.450   2.685
54609W        W24490  28.553  21.180  10.456
54610W        W24491  25.002  18.233  10.618
54611W        W24492  24.706  27.993   1.364
54612W        W24493   1.249  42.927   0.844
54613W        W24494   6.362  20.041  14.437
54614W        W24495  31.936  21.536  10.904
54615W        W24496  24.114  10.692   1.840
54616W        W24497   4.783  11.699   2.676
54617W        W24498   4.278  25.667   1.281
54618W        W24499  27.566  19.546  13.408
54619W        W24500  27.501   1.766   1.370
54620W        W24501  21.698  15.181  10.502
54621W        W24502  37.879  23.703   1.341
54622W        W24503   2.897  43.864   3.291
54623W        W24504  39.378  15.637   2.897
54624W        W24505  17.763   3.422   4.612
54625W        W24506  10.842  31.613  12.498
54626W        W24507   6.840   8.176   3.284
54627W        W24508  27.496  42.835  12.344
54628W        W24509  33.449  41.019   0.449
54629W        W24510  37.924  22.099  12.459
54630W        W24511  36.991  20.722  13.316
54631W        W24512  31.565  19.765   3.386
54632W        W24513  20.083  19.538   9.955
54633W        W24514  31.962  16.573  11.582
54634W        W24515  18.546  32.015   3.854
54635W        W24516   0.487  32.465  10.429
54636W        W24517   8.365  29.005   0.266
54637W        W24518  24.057  17.590   4.201
54638W        W24519  30.510   4.751  11.918
54639W        W24520  24.566  43.357   4.140
54640W        W24521  38.560   9.169  13.920
54641W        W24522   2.369  24.075   2.273
54642W        W24523  21.115  33.020  12.461
54643W        W24524  42.452  17.259   3.767
54644W        W24525  24.574  25.103   0.302
54645W        W24526   9.311  38.990   3.228
54646W        W24527  26.141  30.909  11.530
54647W        W24528  11.364  34.580  11.115
54648W        W24529  16.276  33.409  14.908
54649W        W24530   4.334   1.314  14.836
54650W        W24531  22.561   3.868   4.725
54651W        W24532  43.859  13.768   4.120
54652W        W24533  20.748  39.943   4.778
54653W        W24534  25.497  36.875  13.342
54654W        W24535   5.707  11.777   2.321
54655W        W24536  21.086  38.005  12.517
54656W        W24537  36.472  41.362  14.465
54657W        W24538  10.646  11.657  14.806
54658W        W24539  44.272   8.398   1.895
54659W        W24540  36.988  33.480  13.923
54660W        W24541  29.508   2.738   4.709
54661W        W24542  18.619   5.339  12.993
54662W        W24543  16.277  27.028  14.356
54663W        W24544   2.351  29.109   1.707
54664W        W24545   6.863  19.238   3.230
54665W        W24546  26.574  15.187   3.380
54666W        W24547   2.239   9.182  12.404
54667W        W24548  21.730  33.021  12.514
54668W        W24549  23.012  37.373   5.083
54669W        W24550  38.905  35.487  13.044
54670W        W24551   0.964  41.042  13.381
54671W        W24552   7.710  44.869   3.286
54672W        W24553   6.294  26.109   0.412
54673W        W24554  30.920  40.010   5.086
54674W        W24555  11.694  13.226  14.962
54675W        W24556  43.292   6.323   0.853
54676W        W24557  35.554  25.638   1.443
54677W        W24558  17.682   0.769  14.369
54678W        W24559   5.365   3.270   3.812
54679W        W24560  19.565  39.506  12.857
54680W        W24561  43.918  37.839   1.450
54681W        W24562  13.108  15.735  10.003
54682W        W24563  42.980  22.056  11.870
54683W        W24564   5.722   3.363  11.507
54684W        W24565  38.936   0.352  12.849
54685W        W24566  15.166   7.280   2.413
54686W        W24567   1.805   9.176   0.908
54687W        W24568  17.680  43.932  10.443
54688W        W24569  16.716  11.728   3.819
54689W        W24570  40.369   9.886   3.294
54690W        W24571   1.881  23.542   3.204
54691W        W24572  14.330  22.656  10.528
54692W        W24573  41.985  40.351   4.342
54693W        W24574  38.522  30.946  11.019
54694W        W24575  20.162  29.012  14.291
54695W        W24576   6.820  19.595  13.490
54696W        W24577   0.374  41.907   0.838
54697W        W24578  38.544  33.071   4.610
54698W        W24579  26.601   9.881  12.052
54699W        W24580  32.453  32.121  13.939
54700W        W24581  21.139  23.047   3.654
54701W        W24582  16.737   8.328  11.611
54702W        W24583  39.901   6.191   3.816
54703W        W24584  38.918   9.298   4.228
54704W        W24585  30.122   6.309   4.752
54705W        W24586   0.880  44.351   5.268
54706W        W24587   3.929   1.760   2.877
54707W        W24588  39.380   1.874   4.825
54708W        W24589  19.580  12.807   4.821
54709W        W24590  14.621  35.394   3.819
54710W        W24591  12.320   1.295   4.207
54711W        W24592  37.047  12.150  13.538
54712W        W24593   4.922  31.070  10.600
54713W        W24594   3.256  22.708  12.514
54714W        W24595  18.196  34.388   2.395
54715W        W24596  25.675  25.114  11.905
54716W        W24597  29.610  44.478   0.438
54717W        W24598  26.519  27.465   2.880
54718W        W24599   3.320  24.502  11.982
54719W        W24600  38.039  28.469   0.421
54720W        W24601  12.760  22.540   2.743
54721W        W24602  10.808  16.127   0.833
54722W        W24603  36.063  11.268  12.026
54723W        W24604  19.553  26.618   0.438
54724W        W24605  28.510  25.557  11.403
54725W        W24606   1.452  38.449  10.989
54726W        W24607  10.688  26.133   1.881
54727W        W24608  14.597  19.544   2.830
54728W        W24609  19.100  32.608  14.823
54729W        W24610  21.033  12.628  12.361
54730W        W24611   6.254  44.365   0.394
54731W        W24612  37.043  31.599   1.848
54732W        W24613  38.958   2.845   4.766
54733W        W24614  26.481  43.912   1.911
54734W        W24615  35.436  37.550   0.892
54735W        W24616   7.785  34.538   3.780
54736W        W24617  33.549  18.280   0.927
54737W        W24618  38.843  37.968  11.054
54738W        W24619  44.793  38.556   2.825
54739W        W24620  10.149  39.334   3.214
54740W        W24621  17.245  43.794  11.974
54741W        W24622  39.520  43.319   3.300
54742W        W24623  15.821  25.474  13.393
54743W        W24624   1.798  23.635  10.439
54744W        W24625  21.644  13.697   0.286
54745W        W24626  20.662   2.349   1.444
54746W        W24627  34.561   3.380  10.435
54747W        W24628   5.802  27.195   0.915
54748W        W24629  39.046  17.205   2.772
54749W        W24630  23.119  36.091  14.009
54750W        W24631   3.241  19.720  13.024
54751W        W24632  36.530  42.375   2.744
54752W        W24633  30.946  41.321  10.953
54753W        W24634   6.749  34.474   1.768
54754W        W24635  15.811  17.084   3.148
54755W        W24636  29.577  18.108  11.086
54756W        W24637   8.287  14.176   4.729
54757W        W24638  10.191   5.382   3.830
54758W        W24639  23.038  26.081  12.044
54759W        W24640  24.174  22.158   1.737
54760W        W24641  37.379   3.928  14.022
54761W        W24642   8.725   6.255   2.900
54762W        W24643  30.991  28.161   2.408
54763W        W24644  32.103  11.840   2.769
54764W        W24645  31.896  22.687  11.380
54765W        W24646  27.024  18.077  13.817
54766W        W24647  20.216   2.746   4.293
54767W        W24648  28.155  29.106   1.929
54768W        W24649  17.716  44.798   3.716
54769W        W24650  10.634  14.131  11.399
54770W        W24651  40.803   3.886  12.501
54771W        W24652  19.693   6.870  13.936
54772W        W24653  14.601  25.997  14.483
54773W        W24654  15.194  12.208  12.889
54774W        W24655  27.581  38.924  12.472
54775W        W24656   5.752  33.535  13.819
54776W        W24657  21.609   0.825  13.918
54777W        W24658  37.561  17.103   0.870
54778W        W24659  10.208  18.212  11.045
54779W        W24660   7.764  27.186   4.660
54780W        W24661  14.710   1.437   3.180
54781W        W24662  24.620  42.797   0.288
54782W        W24663  10.856  10.659   1.315
54783W        W24664  29.134  41.918   4.791
54784W        W24665  41.935  35.853   0.903
54785W        W24666  27.463  41.498  13.467
54786W        W24667  30.499  42.998   2.216
54787W        W24668  23.016   2.356   1.380
54788W        W24669  10.299   1.273   4.708
54789W        W24670  23.040  43.331  11.963
54790W        W24671  27.038  14.731   0.841
54791W        W24672  30.110   0.316  13.356
54792W        W24673   6.298  11.149   4.185
54793W        W24674  29.584  36.581   0.789
54794W        W24675  38.350   4.934  13.892
54795W        W24676  12.254   1.747  14.404
54796W        W24677  23.122  15.712   0.880
54797W        W24678  43.978  26.962   2.861
54798W        W24679  17.188  25.983  13.031
54799W        W24680   2.797  20.140  11.086
54800W        W24681   0.330  37.483   3.631
54801W        W24682  14.171  11.719  12.095
54802W        W24683  24.565  27.578  12.434
54803W        W24684  36.038  17.228  14.299
54804W        W24685  24.068   0.298   1.904
54805W        W24686  34.907  33.875  12.383
54806W        W24687  41.008   8.712  11.968
54807W        W24688  19.190  10.636  13.923
54808W        W24689  42.814  15.325  14.276
54809W        W24690   1.306   8.875  14.460
54810W        W24691   6.815   6.782   1.904
54811W        W24692   2.751  21.719   4.694
54812W        W24693  39.543  14.106  13.999
54813W        W24694   1.956  14.703  13.460
54814W        W24695   0.958  10.867  14.298
54815W        W24696  12.308   0.427   4.822
54816W        W24697  35.506  16.260  14.928
54817W        W24698  12.285  28.035  10.030
54818W        W24699   7.376  39.842   1.322
54819W        W24700  33.082   2.721  14.849
54820W        W24701   0.933  15.276   0.321
54821W        W24702  35.445  16.307  13.844
54822W        W24703  14.601   2.227  10.427
54823W        W24704  30.983  26.999  13.796
54824W        W24705  44.283  14.823   4.829
54825W        W24706  32.918  13.651   3.850
54826W        W24707  25.604  30.616  14.820
54827W        W24708  21.106  41.815  10.936
54828W        W24709  18.107  33.112   2.358
54829W        W24710   2.347   8.370   1.252
54830W        W24711  29.449  40.920   0.759
54831W        W24712  14.324   9.169   3.860
54832W        W24713  20.254   4.315  11.958
54833W        W24714  42.353  14.605   0.393
54834W        W24715  17.124  14.663   3.637
54835W        W24716  21.219  28.935   0.878
54836W        W24717  12.787  22.615  10.433
54837W        W24718   0.986  16.156  14.022
54838W        W24719  31.595  24.225  10.923
54839W        W24720  28.553  17.071  13.018
54840W        W24721   9.679  19.182   4.704
54841W        W24722  38.340   6.385  11.898
54842W        W24723  10.653  21.554   4.118
54843W        W24724  30.012   5.726  14.761
54844W        W24725  34.969   4.206   4.265
54845W        W24726  44.297  17.755   4.337
54846W        W24727  23.019  39.431   3.647
54847W        W24728  23.147  36.859  13.343
54848W        W24729  36.484  36.066  14.281
54849W        W24730   9.816  25.519  11.436
54850W        W24731  41.854  17.794   1.903
54851W        W24732  29.616  36.090   2.178
54852W        W24733  40.937  15.702  11.909
54853W        W24734   2.899   6.337   4.772
54854W        W24735  33.994  41.883  11.402
54855W        W24736   8.394   6.743   1.243
54856W        W24737  38.450  31.126  12.960
54857W        W24738   2.813  12.695  12.526
54858W        W24739  30.969  43.511  12.095
54859W        W24740  39.355  19.124   4.322
54860W        W24741  22.521  16.758   2.826
54861W        W24742  14.588  39.929   3.834
54862W        W24743  18.673  27.962   1.870
54863W        W24744  39.899   1.387  12.902
54864W        W24745  29.665  13.120  12.474
54865W        W24746   4.904  19.097   0.885
54866W        W24747  10.807  19.238   2.309
54867W        W24748   0.819  37.418  14.994
54868W        W24749  10.819   6.424   1.721
54869W        W24750  42.381   3.254  12.375
54870W        W24751  25.500  25.647   4.258
54871W        W24752  16.184   1.414   3.695
54872W        W24753  23.007  26.529  11.377
54873W        W24754  24.101  30.525  12.990
54874W        W24755   8.320  12.850  14.883
54875W        W24756  34.000   9.829   1.342
54876W        W24757   5.747  12.766   3.782
54877W        W24758   8.810  32.113   1.356
54878W        W24759  41.043  37.973  14.002
54879W        W24760  21.166  17.270  13.884
54880W        W24761  12.299  37.953  13.015
54881W        W24762   6.331   7.681   4.206
54882W        W24763  37.963  12.779   4.115
54883W        W24764  32.507  10.810   1.756
54884W        W24765  11.714  14.650  10.080
54885W        W24766  37.084  21.199  14.819
54886W        W24767  35.897  10.683   2.367
54887W        W24768   2.868   8.832  14.405
54888W        W24769  20.694  24.604   0.936
54889W        W24770  14.256  38.495   3.270
54890W        W24771  27.620  33.019   1.818
54891W        W24772   4.762   7.223   4.792
54892W        W24773  39.871  21.558   4.347
54893W        W24774  14.110   2.892   2.779
54894W        W24775  29.153  38.884   0.293
54895W        W24776  14.639  33.079  12.887
54896W        W24777  33.947  38.036   1.772
54897W        W24778  10.785  38.420   4.804
54898W        W24779  16.087  10.294  12.962
54899W        W24780  15.119  16.800   1.426
54900W        W24781  22.104   7.374  13.315
54901W        W24782  28.070  35.991  10.489
54902W        W24783  23.666   0.872  10.559
54903W        W24784   6.401  16.781   1.886
54904W        W24785  40.529  21.043   9.944
54905W        W24786  34.962  18.217  10.429
54906W        W24787   2.940  39.952  13.515
54907W        W24788   0.976  31.029   3.698
54908W        W24789  43.351  30.950   1.711
54909W        W24790  29.549   6.763  13.855
54910W        W24791  15.771  12.610  11.495
54911W        W24792  30.025  15.313  12.530
54912W        W24793  18.271  44.450  13.373
54913W        W24794  40.394  37.544   4.827
54914W        W24795   3.820  33.054  13.331
54915W        W24796   4.362  44.005   3.864
54916W        W24797  27.522  25.003  14.021
54917W        W24798  20.260  37.001  11.026
54918W        W24799   4.299   4.801   3.684
54919W        W24800  20.242  42.523  10.565
54920W        W24801  20.529   0.343  13.039
54921W        W24802  38.488  19.646  13.063
54922W        W24803  24.704  31.028   0.914
54923W        W24804  17.786  21.754   2.224
54924W        W24805   3.459  22.659   5.276
54925W        W24806  10.152  44.404  13.792
54926W        W24807  26.147  44.473  13.464
54927W        W24808  24.170   1.808  12.977
54928W        W24809  34.604  30.057  14.818
54929W        W24810  17.252  42.970  10.934
54930W        W24811  30.929  28.936   4.795
54931W        W24812  13.644  11.302  12.517
54932W        W24813  29.999  15.312   0.328
54933W        W24814  31.482  37.046   3.819
54934W        W24815  43.276  43.337   2.368
54935W        W24816  28.063   5.764   0.348
54936W        W24817   3.308  22.116   2.202
54937W        W24818  41.532  11.203   3.679
54938W        W24819   5.860  44.773  10.626
54939W        W24820   6.289  24.147  11.001
54940W        W24821  41.499  18.232   4.258
54941W        W24822  30.027  36.067   4.645
54942W        W24823  35.047  42.451  10.538
54943W        W24824  31.490  33.094  10.483
54944W        W24825  30.957   2.392  14.971
54945W        W24826  39.873  39.011  12.461
54946W        W24827  39.454  26.608   3.376
54947W        W24828  17.563  17.304   4.247
54948W        W24829  29.029  25.667   2.297
54949W        W24830  20.724  26.655  11.457
54950W        W24831  31.439  14.642  14.307
54951W        W24832  23.527  39.852  11.500
54952W        W24833   6.725   5.693  11.382
54953W        W24834  35.861   3.418   3.250
54954W        W24835  11.623  41.888   4.838
54955W        W24836   1.262  28.462   0.889
54956W        W24837  28.480  36.549  11.863
54957W        W24838  40.871  19.048  12.861
54958W        W24839   5.431  24.005   1.920
54959W        W24840  10.150  23.183  12.999
54960W        W24841  13.248  25.499  10.923
54961W        W24842   7.665  35.921   3.807
54962W        W24843  25.591  28.665   3.255
54963W        W24844   3.931  33.441   4.774
54964W        W24845  26.645  42.514   3.253
54965W        W24846  43.879  12.701   4.245
54966W        W24847  41.003  38.535  12.499
54967W        W24848   3.251  41.304   4.806
54968W        W24849   0.413  17.272  11.060
54969W        W24850  15.774  44.298  11.946
54970W        W24851  44.278  17.159   2.412
54971W        W24852  22.674  33.474  11.416
54972W        W24853  18.644   3.433   1.255
54973W        W24854  10.262  26.074   1.451
54974W        W24855  26.955  40.996  11.453
54975W        W24856  11.697   2.380  10.450
54976W        W24857  11.782  21.698   0.295
54977W        W24858  25.536   1.373   4.251
54978W        W24859  18.144  39.921   4.802
54979W        W24860  21.649  39.998   0.246
54980W        W24861  23.230  34.032  13.898
54981W        W24862   9.783  24.655   4.200
54982W        W24863  39.454  43.013   4.278
54983W        W24864  14.792   4.428  10.586
54984W        W24865  40.407  21.184  11.962
54985W        W24866  33.959   1.883  11.378
54986W        W24867   4.302  42.525   1.250
54987W        W24868  38.068  24.548  10.413
54988W        W24869  16.638  17.681   1.867
54989W        W24870  29.071   0.300  14.965
54990W        W24871  27.153  31.481  14.379
54991W        W24872   9.749  41.909   1.255
54992W        W24873   0.355  39.976   1.381
54993W        W24874  35.034  33.381  12.083
54994W        W24875  39.897  11.641   2.417
54995W        W24876   0.931  32.997  14.845
54996W        W24877  44.504  43.923   1.699
54997W        W24878  42.948  10.367  12.531
54998W        W24879  44.357   4.420  10.073
54999W        W24880  22.052  14.339  13.503
55000W        W24881  21.708  20.168  10.529
55001W        W24882  39.490  32.560  12.039
55002W        W24883  16.673  43.022   1.781
55003W        W24884  11.856  40.481  10.970
55004W        W24885  42.025  18.140  10.444
55005W        W24886  27.146  27.626  11.117
55006W        W24887   7.721  37.861  10.605
55007W        W24888  14.785   2.364   0.272
55008W        W24889   5.821  28.979  13.920
55009W        W24890  15.602   6.886   0.302
55010W        W24891  27.600  10.227  14.288
55011W        W24892  16.313   4.287  13.979
55012W        W24893  24.575  42.347   2.709
55013W        W24894  34.441  23.502  10.487
55014W        W24895  37.356  33.091   1.903
55015W        W24896   5.258  23.513  13.021
55016W        W24897  34.929  34.927   4.209
55017W        W24898  16.202  39.866   2.881
55018W        W24899  34.015  32.083  14.277
55019W        W24900  31.627  34.867  12.045
55020W        W24901  27.546  44.376   1.221
55021W        W24902   7.887  27.977   3.702
55022W        W24903   8.829  38.901   1.849
55023W        W24904   6.891  33.566  12.421
55024W        W24905  24.499   0.334   1.724
55025W        W24906   7.732  10.192  10.527
55026W        W24907  25.473  44.486   4.837
55027W        W24908  33.398   6.209   4.612
55028W        W24909  15.289  36.577   3.303
55029W        W24910  25.989  25.119  11.962
55030W        W24911   4.888  42.298   4.651
55031W        W24912  26.663  15.183   2.214
55032W        W24913  24.175  26.579   1.808
55033W        W24914  16.083  37.458  12.967
55034W        W24915  30.438  19.766   4.154
55035W        W24916  38.480   4.252  13.418
55036W        W24917  18.269  22.138  13.908
55037W        W24918   3.328  34.379   2.378
55038W        W24919  39.864  15.720   2.367
55039W        W24920  10.798  39.842  11.532
55040W        W24921  18.248   9.655   2.328
55041W        W24922  24.017  32.571  10.461
55042W        W24923  22.552  32.449  12.465
55043W        W24924  28.033  13.259  10.456
55044W        W24925  31.558  43.798   4.154
55045W        W24926  20.528  15.609   2.309
55046W        W24927  41.026   0.928   0.466
55047W        W24928  21.600   7.373   4.795
55048W        W24929  12.626   5.881   1.775
55049W        W24930  31.925  35.378   0.259
55050W        W24931  22.590  31.507  10.426
55051W        W24932  16.680   2.924   3.646
55052W        W24933   3.884   2.908  10.483
55053W        W24934  10.714  11.340   4.791
55054W        W24935  39.856  31.048   0.796
55055W        W24936  35.448  43.461   2.716
55056W        W24937  14.789  44.966  10.449
55057W        W24938  21.102  28.963   3.257
55058W        W24939  37.379  18.760  12.864
55059W        W24940  13.717  43.914  13.547
55060W        W24941  19.046  11.868  14.831
55061W        W24942   1.829   6.220   2.679
55062W        W24943  23.226  11.663   3.165
55063W        W24944  41.317  42.445  12.461
55064W        W24945   7.174   4.856  12.063
55065W        W24946  17.243   0.296  13.344
55066W        W24947  40.010  26.138   1.933
55067W        W24948  42.482   7.187   4.243
55068W        W24949  39.364   1.417   3.165
55069W        W24950  44.993  21.066  13.419
55070W        W24951  18.757  10.181   1.426
55071W        W24952   1.444  17.733  14.389
55072W        W24953  43.409  14.221   4.128
55073W        W24954  38.346  43.428   0.883
55074W        W24955   6.320  28.636   3.636
55075W        W24956  38.402  20.232   2.180
55076W        W24957  38.052  17.294  12.081
55077W        W24958  31.641  14.795  11.514
55078W        W24959  38.523  27.648   0.432
55079W        W24960  37.419   5.888  12.916
55080W        W24961   0.353  13.141  14.919
55081W        W24962  33.528  16.156   1.388
55082W        W24963  11.333  15.754   0.298
55083W        W24964  36.981  44.435   5.120
55084W        W24965  11.779   1.929   2.688
55085W        W24966  25.149   7.322  11.459
55086W        W24967  42.783  34.568  12.441
55087W        W24968  15.740  39.368   4.295
55088W        W24969  42.907  26.593  13.469
55089W        W24970  11.665  29.984   4.767
55090W        W24971  30.996  36.438  12.855
55091W        W24972  14.167   4.358   4.621
55092W        W24973  24.179  16.279   4.275
55093W        W24974   0.476  13.279  12.839
55094W        W24975  35.544  41.849  14.003
55095W        W24976   7.767  21.670   0.806
55096W        W24977  18.700   4.876  12.937
55097W        W24978   3.371  32.450   4.824
55098W        W24979  38.484  24.689  12.543
55099W        W24980  17.719   6.787  12.437
55100W        W24981  43.809   5.885  14.343
55101W        W24982  41.814  21.751   4.757
55102W        W24983  40.031  43.776   2.688
55103W        W24984  37.481  34.997   4.789
55104W        W24985  38.886  31.025   1.765
55105W        W24986  40.424  29.005   4.284
55106W        W24987  23.232   1.805  14.510
55107W        W24988  16.161  13.178   2.354
55108W        W24989   4.403  25.031  11.383
55109W        W24990  28.586  12.837   4.805
55110W        W24991  33.882  11.848   1.866
55111W        W24992  42.439   8.714  12.982
55112W        W24993  44.799  22.117   0.881
55113W        W24994  10.806  28.563   9.667
55114W        W24995  15.165  36.993   3.687
55115W        W24996  30.966   4.243  13.983
55116W        W24997  41.366  15.731   1.889
55117W        W24998   5.279   1.956  12.943
55118W        W24999  32.899   3.773   0.276
55119W        W25000  13.602   3.808  12.384
55120W        W25001  29.515   2.238  10.404
55121W        W25002  34.607  30.451   4.776
55122W        W25003   8.827   6.769  10.573
55123W        W25004  40.841  10.705   3.796
55124W        W25005  30.643  14.199  10.945
55125W        W25006  37.408   2.317   3.670
55126W        W25007  32.128  37.384   3.221
55127W        W25008  35.575  33.901   3.664
55128W        W25009   0.464   8.178  12.510
55129W        W25010  43.018  24.542  13.807
55130W        W25011  11.297  43.939  10.574
55131W        W25012   3.793  21.076   0.254
55132W        W25013   2.399  12.123   0.252
55133W        W25014  33.018  25.110   1.737
55134W        W25015   9.750  17.666  12.484
55135W        W25016   4.783  40.452   4.792
55136W        W25017  32.420  44.313  13.483
55137W        W25018  27.990  21.067   5.169
55138W        W25019  24.669  31.512  14.776
55139W        W25020   4.266  12.357   3.377
55140W        W25021  15.671   0.854   0.308
55141W        W25022  26.621  19.656  11.416
55142W        W25023  12.768  29.117   3.201
55143W        W25024   5.757  33.422   1.344
55144W        W25025  24.648  20.585   2.183
55145W        W25026   1.264  42.490   2.711
55146W        W25027   4.762  28.521   4.653
55147W        W25028  43.297  35.542  14.466
55148W        W25029   2.254   4.898   3.864
55149W        W25030   9.736  26.044  10.625
55150W        W25031  15.692  27.516  14.355
55151W        W25032  33.004  39.537  14.997
55152W        W25033  42.967   7.756  11.432
55153W        W25034  20.700  37.415  12.901
55154W        W25035  32.522   4.745   3.309
55155W        W25036  38.838   8.843   4.337
55156W        W25037  16.173  15.651   3.864
55157W        W25038  30.551   8.246  10.023
55158W        W25039  21.671  19.080   9.566
55159W        W25040   5.258  27.449   2.853
55160W        W25041  37.057  15.619  13.526
55161W        W25042  30.115  38.415  13.828
55162W        W25043   4.353  21.735   2.263
55163W        W25044  35.451  24.626  10.479
55164W        W25045   0.973  36.857  12.532
55165W        W25046  12.254   2.251  10.491
55166W        W25047  26.685  33.412   3.813
55167W        W25048  18.084  38.388   2.327
55168W        W25049  32.632  44.870   3.173
55169W        W25050  25.538  31.467  14.960
55170W        W25051  18.239  38.958   1.329
55171W        W25052  12.633  33.568   2.888
55172W        W25053  36.531  43.950   3.341
55173W        W25054   5.738  13.193  10.987
55174W        W25055  36.091  22.172  12.514
55175W        W25056  24.035  24.495   3.216
55176W        W25057  28.172  37.556  14.452
55177W        W25058  35.889  33.982   1.783
55178W        W25059   1.346  28.947  14.491
55179W        W25060   4.828  29.567   2.721
55180W        W25061  29.503  39.521  14.305
55181W        W25062   2.380  36.890  13.898
55182W        W25063  44.440   7.371  10.630
55183W        W25064  36.357  12.614   4.624
55184W        W25065  14.628   5.307  13.037
55185W        W25066  13.255  17.240   1.420
55186W        W25067  18.566   1.856   3.233
55187W        W25068   5.918   2.427   0.390
55188W        W25069   4.336  20.240  14.481
55189W        W25070   0.261  43.778   4.712
55190W        W25071  25.596  12.260   4.208
55191W        W25072  40.508  37.468   1.696
55192W        W25073   7.897  24.022   2.694
55193W        W25074  24.089   9.751   3.728
55194W        W25075  16.735  30.037  14.776
55195W        W25076   0.861  33.959   1.390
55196W        W25077   7.190  39.874  14.987
55197W        W25078  34.436  41.942   0.420
55198W        W25079  21.684  44.982  13.823
55199W        W25080  32.437  22.717  12.859
55200W        W25081  12.750   9.331  13.321
55201W        W25082  28.148  21.676   1.924
55202W        W25083  10.237  17.619  12.917
55203W        W25084   6.831  44.888   3.734
55204W        W25085  10.207  40.331   3.783
55205W        W25086   0.262   3.870  13.326
55206W        W25087   4.265  21.145  10.128
55207W        W25088  37.076  23.510   2.289
55208W        W25089  24.694  42.381  14.290
55209W        W25090  26.502   0.258   2.257
55210W        W25091  42.835   4.384   2.396
55211W        W25092   4.283  32.404   2.683
55212W        W25093  14.117   6.213  10.539
55213W        W25094  11.724  33.049  11.384
55214W        W25095  37.383  15.203   1.289
55215W        W25096   8.687   7.309  14.891
55216W        W25097  36.579  29.662  14.849
55217W        W25098  43.974  32.593  11.574
55218W        W25099  20.734   8.726  11.533
55219W        W25100  27.987  24.540   3.377
55220W        W25101  31.492  28.023  10.974
55221W        W25102  24.071  14.276   0.809
55222W        W25103   2.746  12.234   1.782
55223W        W25104   4.716   0.439  11.451
55224W        W25105  25.505  26.690  14.810
55225W        W25106  18.591   6.248  10.558
55226W        W25107  30.069  29.544  13.331
55227W        W25108  19.604  38.444  10.560
55228W        W25109  27.076  34.451   3.148
55229W        W25110  10.180  11.665   0.754
55230W        W25111  32.402  33.046  11.451
55231W        W25112  40.314   5.276  12.891
55232W        W25113  37.016  37.989   1.445
55233W        W25114  18.126  25.662  11.951
55234W        W25115  13.745   4.753   0.899
55235W        W25116  36.464  29.136  14.808
55236W        W25117  37.527  14.195  13.054
55237W        W25118  10.157  44.470  11.503
55238W        W25119   3.949  14.827  13.808
55239W        W25120  24.167  14.726  13.829
55240W        W25121  24.701  31.420  12.486
55241W        W25122  36.581   9.372  13.343
55242W        W25123  34.876  19.552  14.792
55243W        W25124  22.006   1.786  10.480
55244W        W25125  20.606   2.770   4.672
55245W        W25126  41.391  40.958   0.364
55246W        W25127   4.361  20.066   4.598
55247W        W25128  42.976  24.547   0.449
55248W        W25129   3.319  31.514   3.846
55249W        W25130  38.934  30.127  14.807
55250W        W25131  44.286  34.875   2.836
55251W        W25132   1.445  19.083   1.775
55252W        W25133   1.964  21.206  12.935
55253W        W25134   8.886   8.827  13.944
55254W        W25135  31.581  20.762  10.573
55255W        W25136  19.746   0.365   2.861
55256W        W25137  24.591  40.547   1.812
55257W        W25138  28.094   0.982  11.591
55258W        W25139  33.465  37.006  12.946
55259W        W25140  17.566  44.419  14.482
55260W        W25141  43.905  13.832   0.879
55261W        W25142  27.157  17.724  13.004
55262W        W25143  10.168  31.904   5.295
55263W        W25144  19.266   6.852   4.804
55264W        W25145  17.566  14.271  13.465
55265W        W25146  38.494  31.955  14.895
55266W        W25147  43.334  43.408   0.888
55267W        W25148  30.422  36.379   0.285
55268W        W25149  37.340  20.090  12.514
55269W        W25150   5.337  44.918   3.378
55270W        W25151  19.539  39.321   4.745
55271W        W25152  24.567  39.454   1.840
55272W        W25153  35.498  24.717   0.967
55273W        W25154  23.172  23.146  13.026
55274W        W25155  22.574  35.929  10.099
55275W        W25156  43.338  37.867  11.598
55276W        W25157  20.702   4.777   3.197
55277W        W25158   1.867  13.195   2.180
55278W        W25159  32.905  18.688   4.612
55279W        W25160  27.460  27.643   2.201
55280W        W25161  20.203   8.341  12.541
55281W        W25162  44.874  24.116  10.982
55282W        W25163  20.581  44.264   2.358
55283W        W25164  29.638  31.907   4.788
55284W        W25165   2.240  34.094  13.505
55285W        W25166   8.248  23.537  12.982
55286W        W25167  36.534  35.554  14.016
55287W        W25168  13.784  15.737   3.196
55288W        W25169  15.094  12.251  13.481
55289W        W25170  17.286  11.310   4.241
55290W        W25171   2.455  34.497   3.714
55291W        W25172  37.937  22.566  11.004
55292W        W25173  12.343   7.180  14.910
55293W        W25174  17.615  36.933   2.851
55294W        W25175  33.423   7.708   2.891
55295W        W25176   8.405  35.062  14.278
55296W        W25177  32.529  43.015  13.327
55297W        W25178  33.110  22.681  12.850
55298W        W25179  18.724  17.630  13.433
55299W        W25180   9.751   2.916   2.216
55300W        W25181  15.656   7.777   0.737
55301W        W25182  40.511  31.975  10.480
55302W        W25183  35.902  16.588   2.787
55303W        W25184  22.727  20.618  10.537
55304W        W25185  13.730  37.383  13.866
55305W        W25186  25.609  26.097   0.356
55306W        W25187  36.999   7.862  13.485
55307W        W25188  23.161  44.382   3.655
55308W        W25189  19.134  10.695  14.964
55309W        W25190  32.501  39.880  11.419
55310W        W25191  12.735  15.804  13.958
55311W        W25192  10.876  40.878  10.420
55312W        W25193  10.214  36.898  13.998
55313W        W25194  34.903  33.625   4.598
55314W        W25195  30.065  34.426   1.797
55315W        W25196   4.831   3.808  14.934
55316W        W25197  29.529   9.212   2.709
55317W        W25198  24.032  18.122  13.836
55318W        W25199  19.687  41.003   1.356
55319W        W25200   8.825  22.197  14.013
55320W        W25201  14.637  41.788  13.375
55321W        W25202  14.174  13.343   0.758
55322W        W25203  26.550  21.582   0.296
55323W        W25204   6.705   6.324   2.245
55324W        W25205  23.706   7.769  14.000
55325W        W25206  42.465  36.455  12.902
55326W        W25207  40.952  13.700   3.827
55327W        W25208  37.494  26.193   4.823
55328W        W25209  40.405  15.325  10.919
55329W        W25210  30.500  21.686   2.349
55330W        W25211  41.467  36.853  10.930
55331W        W25212  20.716   4.817   1.231
55332W        W25213  13.676  35.543  14.295
55333W        W25214  42.811   4.329  14.892
55334W        W25215  41.877  19.168  14.030
55335W        W25216  16.610  40.377   0.276
55336W        W25217   6.398  24.109   1.906
55337W        W25218  16.229   3.785  13.406
55338W        W25219  18.229   2.944   2.893
55339W        W25220  10.653  34.064   1.273
55340W        W25221   5.784  39.484   2.762
55341W        W25222   9.255  43.986  10.554
55342W        W25223   1.479   5.326   0.458
55343W        W25224  27.492  12.850   2.707
55344W        W25225  25.978  33.982  11.029
55345W        W25226  15.123  19.729  14.944
55346W        W25227  42.888  26.013   4.178
55347W        W25228   8.306   0.369   3.869
55348W        W25229  32.981   7.302  10.451
55349W        W25230   0.908  11.679   2.356
55350W        W25231  20.135  21.729  10.411
55351W        W25232   1.312   9.154  12.950
55352W        W25233  29.087   0.413  12.475
55353W        W25234   7.296   6.735  13.798
55354W        W25235  16.095  14.228  13.540
55355W        W25236  44.966  18.734   3.252
55356W        W25237  21.157  18.750   0.778
55357W        W25238  31.642  40.334  10.960
55358W        W25239   6.318   5.834  14.838
55359W        W25240   1.433   0.949   1.917
55360W        W25241  14.767  34.909   1.899
55361W        W25242  14.834  40.324  14.786
55362W        W25243  15.085  15.241   4.240
55363W        W25244   4.325  15.810   3.702
55364W        W25245  14.597  30.997  10.995
55365W        W25246  21.129  41.820   2.346
55366W        W25247  10.155  37.540  13.944
55367W        W25248  28.490   7.398  11.011
55368W        W25249   9.205  29.988  12.910
55369W        W25250  13.149  27.008   1.834
55370W        W25251  21.159  19.571  14.816
55371W        W25252  14.601  38.445   3.273
55372W        W25253  39.370  17.781   3.346
55373W        W25254  21.518   4.942  10.550
55374W        W25255   4.745  36.379  11.509
55375W        W25256   5.892   5.698   2.249
55376W        W25257   8.683  36.881  13.342
55377W        W25258  17.247  25.549  11.952
55378W        W25259  34.926  40.988   4.231
55379W        W25260   7.825  31.147  12.507
55380W        W25261  34.465   4.783  10.970
55381W        W25262  20.207  23.168  12.052
55382W        W25263  44.373  30.493   0.952
55383W        W25264  18.248  13.249   0.269
55384W        W25265  40.855  20.070  14.819
55385W        W25266   4.291  33.562   4.258
55386W        W25267  29.039  43.788  10.924
55387W        W25268  32.106  18.692   0.415
55388W        W25269  33.496  25.498  11.986
55389W        W25270  35.914  33.047  10.902
55390W        W25271  14.619  19.166  11.504
55391W        W25272   7.374  42.907  13.870
55392W        W25273  33.027  24.491   4.753
55393W        W25274  37.532  23.590   4.179
55394W        W25275  37.489  38.931  14.383
55395W        W25276   7.912  13.843  13.867
55396W        W25277  28.052  24.974   2.839
55397W        W25278  31.948  32.512  13.051
55398W        W25279  14.158   0.798   1.392
55399W        W25280  14.286  20.105   4.732
55400W        W25281  31.953  29.132  11.607
55401W        W25282  35.551  26.532   3.239
55402W        W25283  13.789  17.788   4.822
55403W        W25284  36.408  22.564  11.975
55404W        W25285  13.305  40.353   0.399
55405W        W25286  20.742   1.378   3.387
55406W        W25287   2.816  18.206   0.771
55407W        W25288  42.845  27.163  10.520
55408W        W25289  36.935  28.436   0.762
55409W        W25290  42.860  13.760  10.574
55410W        W25291  40.846  38.991   2.245
55411W        W25292  29.425  15.648   4.631
55412W        W25293  21.598   1.353   2.324
55413W        W25294  38.066  14.172   1.442
55414W        W25295  20.743   9.280   2.270
55415W        W25296  32.000  44.808  13.008
55416W        W25297  17.709  18.149  14.943
55417W        W25298  24.052   1.405   3.864
55418W        W25299  22.612  35.046   3.372
55419W        W25300  15.600  19.538  12.053
55420W        W25301  19.276   0.934   1.889
55421W        W25302  25.622  26.144   3.796
55422W        W25303  31.115   7.717   1.388
55423W        W25304  37.533  41.443   0.370
55424W        W25305  14.667   7.232  11.563
55425W        W25306   6.404   3.750  12.454
55426W        W25307   7.256  24.208  12.855
55427W        W25308  14.255  17.129   1.409
55428W        W25309  17.642  32.500   4.220
55429W        W25310  42.958  23.676   3.666
55430W        W25311  32.983  37.524  14.351
55431W        W25312   8.783  17.752   0.471
55432W        W25313  17.698  15.270   4.181
55433W        W25314  10.826  35.858   1.450
55434W        W25315  42.912  44.477   2.337
55435W        W25316  35.084  21.191   2.735
55436W        W25317   6.185   1.943   3.687
55437W        W25318  12.673   6.426  14.818
55438W        W25319  37.842  25.206  11.521
55439W        W25320  33.407   9.390   1.345
55440W        W25321  33.589  44.956  13.956
55441W        W25322  16.577  30.436  11.979
55442W        W25323  26.664   6.338   4.120
55443W        W25324  23.091  41.973  14.857
55444W        W25325   4.940  23.613  11.401
55445W        W25326   4.342  18.692   2.680
55446W        W25327  15.791  19.096   0.344
55447W        W25328  15.579  21.628  14.898
55448W        W25329  16.185  33.600  10.146
55449W        W25330  34.587   3.743   2.327
55450W        W25331  38.015  22.121   1.343
55451W        W25332   3.276  11.306   3.183
55452W        W25333  26.602  13.162  11.909
55453W        W25334  43.379  38.902   0.883
55454W        W25335  10.244  26.598  13.814
55455W        W25336  36.031   3.881  11.958
55456W        W25337   4.216  26.034  13.806
55457W        W25338  13.229   9.800  13.905
55458W        W25339  38.070  42.949  12.375
55459W        W25340  16.155   9.828   1.445
55460W        W25341  15.813  34.395   3.793
55461W        W25342   2.332  27.503   2.264
55462W        W25343  34.499  43.437   3.274
55463W        W25344  29.129  32.104  12.904
55464W        W25345  34.952  17.304  13.365
55465W        W25346  29.442  41.033   1.404
55466W        W25347  10.873  18.715  13.925
55467W        W25348  32.989  11.166  13.996
55468W        W25349  44.974   9.644  13.819
55469W        W25350  32.635  26.137  12.555
55470W        W25351  38.402   3.715  10.937
55471W        W25352  37.452  44.302  13.481
55472W        W25353  34.915   7.401  13.948
55473W        W25354   1.771  44.430   0.743
55474W        W25355  10.325   9.315   0.857
55475W        W25356  30.054  36.967  10.896
55476W        W25357  24.984  25.706  12.044
55477W        W25358  11.182  14.734  10.543
55478W        W25359  38.394  15.106  12.019
55479W        W25360  16.131  39.854   1.317
55480W        W25361  40.440  26.636   2.287
55481W        W25362  44.852  17.124   4.233
55482W        W25363   2.790  10.258   4.329
55483W        W25364  12.245  22.614  11.510
55484W        W25365  23.530  16.710  13.416
55485W        W25366  25.502  38.900  11.002
55486W        W25367  30.924  18.694  10.074
55487W        W25368  19.049  30.164   2.751
55488W        W25369  44.344  24.066  11.105
55489W        W25370  43.435   3.405   1.771
55490W        W25371  23.112  20.187   3.318
55491W        W25372  16.270  19.198  12.040
55492W        W25373   3.327   0.487  12.521
55493W        W25374  42.815  31.920  14.005
55494W        W25375  31.901  24.195  12.464
55495W        W25376  42.432   7.789  14.956
55496W        W25377  20.726   1.838  14.916
55497W        W25378  29.018  37.037   0.435
55498W        W25379  30.570  33.981  11.020
55499W        W25380   9.735  11.353   0.807
55500W        W25381  36.958  41.294  12.866
55501W        W25382   0.875  37.913   4.786
55502W        W25383   8.733   1.311  10.996
55503W        W25384  34.459  14.115  14.820
55504W        W25385  20.032  23.189   4.597
55505W        W25386  27.004  27.634  13.868
55506W        W25387   2.728  35.013   4.648
55507W        W25388  21.171   3.733   1.784
55508W        W25389  41.788  17.117  11.394
55509W        W25390  17.556  30.923   1.855
55510W        W25391  19.551  22.642   1.324
55511W        W25392  32.948  39.041   2.895
55512W        W25393  35.438  33.602  14.776
55513W        W25394   8.721   4.851  10.535
55514W        W25395  30.024   5.319  13.516
55515W        W25396  21.042   6.841  10.635
55516W        W25397  43.429  26.962  12.042
55517W        W25398  44.775  36.873  11.916
55518W        W25399  44.454   3.761   2.202
55519W        W25400  18.062   6.379   0.840
55520W        W25401  43.305  38.076   1.374
55521W        W25402   1.417  28.650   2.760
55522W        W25403  40.897  42.424   2.265
55523W        W25404  35.377  35.366   3.851
55524W        W25405  14.738  36.351   0.422
55525W        W25406  31.642  36.015  11.922
55526W        W25407  34.579  19.252  12.095
55527W        W25408   6.419   0.888   3.630
55528W        W25409  39.519  43.314  12.374
55529W        W25410  30.614  41.497  13.031
55530W        W25411  43.273  35.969  12.504
55531W        W25412   6.745  28.150  10.490
55532W        W25413   6.841  14.695   0.892
55533W        W25414  33.072  39.495   1.915
55534W        W25415  15.630  26.169   1.438
55535W        W25416   0.286  34.512  12.552
55536W        W25417  15.673  23.123  10.637
55537W        W25418   5.714  43.482  14.022
55538W        W25419   0.766   4.331   0.762
55539W        W25420  16.140  14.179   0.879
55540W        W25421  24.681  10.278  11.981
55541W        W25422  28.990  26.190  14.820
55542W        W25423   3.816  20.592  11.391
55543W        W25424  32.002  11.661  14.846
55544W        W25425  36.929   1.340  10.486
55545W        W25426   9.766  27.629  14.885
55546W        W25427  35.101  16.660  13.951
55547W        W25428  28.611  20.674   2.286
55548W        W25429   1.743  34.541  12.909
55549W        W25430  17.175   8.861   5.277
55550W        W25431  16.160  39.947   4.186
55551W        W25432  41.368  15.822   1.344
55552W        W25433  29.927  15.145  11.389
55553W        W25434   2.248  19.120   4.120
55554W        W25435  27.453  40.461  13.885
55555W        W25436  17.586  22.227   4.142
55556W        W25437  27.104  18.138   3.698
55557W        W25438  33.944   2.380   1.857
55558W        W25439  17.296   9.376  13.064
55559W        W25440  10.635   1.774  10.907
55560W        W25441  21.515   8.884  12.345
55561W        W25442  36.073  24.693  13.526
55562W        W25443  41.959  38.468   0.876
55563W        W25444  15.136  22.538   0.851
55564W        W25445  19.750  12.294  13.830
55565W        W25446  44.860  44.384  10.578
55566W        W25447  16.268  35.449  11.489
55567W        W25448  41.903  24.536  13.910
55568W        W25449  22.234  22.560   4.189
55569W        W25450  16.301  31.623   0.726
55570W        W25451  15.262  18.257  10.615
55571W        W25452  35.530   0.342  14.012
55572W        W25453   1.870  35.412  11.573
55573W        W25454  19.110  37.006  14.929
55574W        W25455  40.445   9.821   0.381
55575W        W25456  14.129  11.243   1.756
55576W        W25457   9.160  41.015   0.746
55577W        W25458  43.832  36.425  10.927
55578W        W25459  32.526  16.178   4.773
55579W        W25460  17.694   5.314   0.304
55580W        W25461  39.843  20.120  10.553
55581W        W25462   7.857  31.003  14.943
55582W        W25463  38.472  17.223  12.059
55583W        W25464  16.604  32.092  12.903
55584W        W25465  30.601  20.069  11.590
55585W        W25466  35.868  43.904   0.322
55586W        W25467  32.937  34.064   1.249
55587W        W25468   4.845  40.537  14.352
55588W        W25469  31.104  32.894   2.813
55589W        W25470  20.769  15.794  12.439
55590W        W25471  14.164  32.501   2.188
55591W        W25472  40.462   6.286  11.953
55592W        W25473  11.718  21.102   4.244
55593W        W25474  37.339  14.197   1.746
55594W        W25475  13.616   3.299   4.720
55595W        W25476  33.052  19.079  14.472
55596W        W25477  26.629  31.995  11.464
55597W        W25478  25.138  25.044   5.081
55598W        W25479  31.484   4.714  11.049
55599W        W25480   1.926  24.184  11.953
55600W        W25481  33.396  26.181   0.442
55601W        W25482  41.896  10.166  12.493
55602W        W25483  21.710   6.194  13.509
55603W        W25484  42.452  39.055  12.972
55604W        W25485  31.512  15.642   3.673
55605W        W25486  44.324   9.177  11.968
55606W        W25487   6.220  29.458   1.361
55607W        W25488  18.195   9.851   3.662
55608W        W25489  39.015  29.170   1.440
55609W        W25490  26.058  34.490  12.489
55610W        W25491  33.480   1.743  12.393
55611W        W25492  14.113  15.202   2.838
55612W        W25493  12.742  44.413   1.697
55613W        W25494  43.857   9.880   2.283
55614W        W25495  11.862  25.614  11.605
55615W        W25496  36.390  37.020   1.225
55616W        W25497   6.293   5.789  11.563
55617W        W25498  29.955  17.660   1.399
55618W        W25499  21.058  12.772   1.429
55619W        W25500   8.719  21.111   0.358
55620W        W25501  14.233  11.319   4.207
55621W        W25502  16.638  31.443   0.893
55622W        W25503   2.344   5.871  13.969
55623W        W25504  38.417  43.489   1.387
55624W        W25505  25.614  10.782  12.898
55625W        W25506   8.715  10.384  10.498
55626W        W25507  27.587  23.230   2.231
55627W        W25508  10.303  21.048   0.460
55628W        W25509  16.710   7.253  10.500
55629W        W25510  38.919  18.185   3.690
55630W        W25511  12.253  32.901   1.934
55631W        W25512  20.731  42.415   2.786
55632W        W25513   9.214  40.881   1.412
55633W        W25514   4.402  18.767  14.867
55634W        W25515   1.403  31.923  13.456
55635W        W25516  43.409  14.818  11.597
55636W        W25517  23.526  27.642   4.338
55637W        W25518  38.961  21.047  13.323
55638W        W25519  44.483  16.605  12.477
55639W        W25520   0.427  26.469  11.414
55640W        W25521  28.032  23.501  10.627
55641W        W25522  23.000  16.752  12.884
55642W        W25523  22.222   4.287   1.695
55643W        W25524  31.460  38.518  10.895
55644W        W25525   0.860  29.503   2.738
55645W        W25526  26.636  39.353  14.377
55646W        W25527  16.722  15.276   2.257
55647W        W25528  44.497  21.637  14.347
55648W        W25529  21.733  41.035   3.205
55649W        W25530  38.353  25.653   3.787
55650W        W25531  24.674   7.731   1.756
55651W        W25532  30.509   4.340   4.277
55652W        W25533  37.060   9.862   2.730
55653W        W25534  16.229  15.696  13.948
55654W        W25535  27.952  42.925   0.788
55655W        W25536  11.825  12.671  14.777
55656W        W25537  13.673   9.715  14.842
55657W        W25538  11.665  41.533  11.083
55658W        W25539  18.194  17.079   2.662
55659W        W25540  26.636   5.223  10.546
55660W        W25541  43.403   4.788  12.386
55661W        W25542  20.189  14.144   3.838
55662W        W25543  32.608  30.922  12.955
55663W        W25544  21.525  30.040   4.773
55664W        W25545  36.084   6.396  14.998
55665W        W25546  12.761  34.901   0.905
55666W        W25547  20.638   7.209  14.788
55667W        W25548  21.058  10.857  12.371
55668W        W25549   0.894  15.143   4.756
55669W        W25550  42.338  27.977  14.408
55670W        W25551  36.933  32.451  13.502
55671W        W25552  21.021  40.533   4.697
55672W        W25553  12.770  13.255  11.072
55673W        W25554  10.339  30.593  12.391
55674W        W25555  31.967   7.699   0.474
55675W        W25556  44.440  32.530  12.349
55676W        W25557  12.818  21.149  13.508
55677W        W25558   7.810  26.502   1.929
55678W        W25559  34.417  23.081  12.959
55679W        W25560  29.037   0.397  11.016
55680W        W25561   8.659  20.116   1.704
55681W        W25562  26.134  26.680   5.154
55682W        W25563  17.123  12.158  12.395
55683W        W25564  39.899  27.136   3.748
55684W        W25565  15.794  35.500   2.216
55685W        W25566  43.324  27.457   3.834
55686W        W25567  26.970  32.601  12.926
55687W        W25568  19.137  14.221  11.383
55688W        W25569  23.237  41.347  10.587
55689W        W25570   8.327   6.192   4.260
55690W        W25571  16.768   0.485  12.841
55691W        W25572  26.144  27.614  12.409
55692W        W25573  30.954  43.354  14.515
55693W        W25574  21.723  32.494   4.761
55694W        W25575   9.828  33.411   3.763
55695W        W25576  44.453   5.824   4.126
55696W        W25577  43.971  15.751  13.941
55697W        W25578   4.845  32.123  14.029
55698W        W25579  31.924  37.569   2.192
55699W        W25580  27.129  10.222  10.934
55700W        W25581   4.247   4.435  12.904
55701W        W25582  35.462  26.523   1.279
55702W        W25583  40.047  41.816  12.969
55703W        W25584  16.295  44.887  10.916
55704W        W25585  39.408  42.342   0.745
55705W        W25586  23.228  40.430  14.904
55706W        W25587   1.769   7.339   3.862
55707W        W25588  10.148   5.304   0.961
55708W        W25589  41.819  32.038   2.339
55709W        W25590  32.593  35.390   0.436
55710W        W25591  23.534  37.044  11.588
55711W        W25592  30.159  30.092  13.516
55712W        W25593  24.621  30.129  12.021
55713W        W25594  36.889   8.255  12.450
55714W        W25595  28.134  14.682  13.840
55715W        W25596  14.200  26.630  14.960
55716W        W25597   4.717   4.873   3.721
55717W        W25598  17.773  38.831  10.000
55718W        W25599  39.380  22.080  10.990
55719W        W25600  36.012  39.930  11.525
55720W        W25601  24.149  32.989   0.851
55721W        W25602  32.557  25.666  14.799
55722W        W25603   0.907   7.390  11.981
55723W        W25604  14.325  36.505   1.266
55724W        W25605  36.568  10.641   0.323
55725W        W25606  40.883  10.310   1.445
55726W        W25607   6.415  37.479   3.235
55727W        W25608  26.160  23.138  12.430
55728W        W25609  25.178  24.680  14.949
55729W        W25610  18.089   9.711   1.715
55730W        W25611  30.555   5.859   0.325
55731W        W25612   4.402  28.444   4.688
55732W        W25613  30.919   5.778   5.619
55733W        W25614  10.284  36.925  13.008
55734W        W25615  17.596  26.620   4.626
55735W        W25616  38.525  16.181  11.097
55736W        W25617  24.571  40.799  14.905
55737W        W25618  20.673  15.577  12.899
55738W        W25619  11.746  43.400  13.906
55739W        W25620   2.806  14.307  12.552
55740W        W25621  25.969  44.961   2.334
55741W        W25622  32.960  24.051  14.413
55742W        W25623  21.185  35.964  11.892
55743W        W25624  11.254  39.906  10.998
55744W        W25625  10.178  21.518  11.096
55745W        W25626  17.305  41.341   3.749
55746W        W25627   1.788  26.471   4.809
55747W        W25628   6.894  38.545   1.431
55748W        W25629  28.437  14.661  11.888
55749W        W25630  43.341   5.705  12.374
55750W        W25631  22.086   8.252   2.872
55751W        W25632  22.534  12.153   0.256
55752W        W25633  17.161  35.961   2.857
55753W        W25634   3.415   4.288  13.423
55754W        W25635   9.165   2.400  14.833
55755W        W25636  38.883  18.114  13.871
55756W        W25637  42.852  32.625  10.434
55757W        W25638  23.020   4.738  12.426
55758W        W25639  17.712  25.670  12.408
55759W        W25640  18.667  31.502   4.133
55760W        W25641  22.512   3.819   1.305
55761W        W25642  40.007  40.372  13.459
55762W        W25643  39.040  19.627   0.753
55763W        W25644   2.462   9.714  11.109
55764W        W25645  34.575  30.027  11.602
55765W        W25646   6.207  42.954  14.973
55766W        W25647  16.667   8.737  14.813
55767W        W25648  15.258  17.121  13.928
55768W        W25649  13.111  28.054   2.729
55769W        W25650   0.317  13.162   2.872
55770W        W25651  15.621  38.364  10.944
55771W        W25652  44.822  14.621  11.046
55772W        W25653   9.735  11.836   4.296
55773W        W25654  27.178  42.461  12.045
55774W        W25655  16.644  39.536  10.552
55775W        W25656  29.057   4.835   1.720
55776W        W25657  10.792  35.937  14.783
55777W        W25658  41.315  26.587   2.831
55778W        W25659   2.298  39.425   2.688
55779W        W25660  25.993  20.193   4.632
55780W        W25661  23.667  18.251  12.424
55781W        W25662  27.022   8.884  14.912
55782W        W25663   2.959  42.291   0.356
55783W        W25664  32.973  26.548   3.178
55784W        W25665  15.185  27.068   4.264
55785W        W25666  17.737  29.952  10.438
55786W        W25667  10.686  29.000   0.430
55787W        W25668  41.328  20.628  13.328
55788W        W25669  35.863   1.294   4.174
55789W        W25670  22.672   0.882  11.515
55790W        W25671  22.247  41.470   2.887
55791W        W25672   6.269  11.652   3.827
55792W        W25673  28.071  29.500  13.430
55793W        W25674  13.240  27.458  14.939
55794W        W25675   9.698  16.103   1.743
55795W        W25676   4.853  34.376   4.784
55796W        W25677   3.915  27.608  12.942
55797W        W25678   6.817   5.214   0.480
55798W        W25679  25.111  36.371  14.463
55799W        W25680  42.951  20.110   1.438
55800W        W25681  14.829  42.963   1.911
55801W        W25682  34.988  11.686   1.863
55802W        W25683  30.425  10.240   1.742
55803W        W25684   6.788   6.855  13.025
55804W        W25685  24.122  14.326  14.844
55805W        W25686  11.824  14.619   3.187
55806W        W25687  21.253  12.160  11.545
55807W        W25688  30.601   6.818   2.416
55808W        W25689  29.934  10.819   1.751
55809W        W25690   0.337  30.482   2.402
55810W        W25691  13.709  34.421  12.898
55811W        W25692  33.506  30.571  10.518
55812W        W25693   0.832  26.192  13.949
55813W        W25694  32.567  36.413  13.841
55814W        W25695   8.306   8.666  11.868
55815W        W25696  21.136  16.298  10.622
55816W        W25697  30.953  35.982   5.249
55817W        W25698  39.904   1.816   3.207
55818W        W25699  21.130  21.260  10.419
55819W        W25700   1.439  41.511  10.514
55820W        W25701  36.910  27.685   3.738
55821W        W25702  18.738  19.167  10.997
55822W        W25703   9.268   8.757  12.831
55823W        W25704  22.228   2.886  14.508
55824W        W25705  22.520   4.248  11.117
55825W        W25706   7.193  14.668  13.828
55826W        W25707  18.618   0.487   0.941
55827W        W25708  10.839  30.446  11.372
55828W        W25709  30.441  35.373  13.792
55829W        W25710  11.254   1.343   1.893
55830W        W25711  15.627   1.328  10.950
55831W        W25712  38.836  20.252   3.234
55832W        W25713  22.661  14.256  11.414
55833W        W25714   8.845  44.947   3.852
55834W        W25715  19.654  17.679   0.369
55835W        W25716  17.633  37.006   0.829
55836W        W25717  23.572  16.778   0.436
55837W        W25718   8.329  39.406   1.446
55838W        W25719  29.046  39.352   4.125
55839W        W25720  32.893   0.879  10.919
55840W        W25721   2.254   1.409  13.975
55841W        W25722  25.534  12.223  12.025
55842W        W25723  16.117  37.420   0.427
55843W        W25724  11.629  37.367   4.830
55844W        W25725  16.617   5.708  14.759
55845W        W25726  15.681  18.581   2.812
55846W        W25727   6.362  33.573   5.125
55847W        W25728  29.064  39.864   3.819
55848W        W25729  20.190  42.426   3.832
55849W        W25730  32.972  38.042  14.874
55850W        W25731  39.514  30.546  12.969
55851W        W25732  27.681  13.834   4.810
55852W        W25733   5.312  24.133  12.574
55853W        W25734  36.078  14.596   2.778
55854W        W25735  37.893  25.559  12.373
55855W        W25736  32.107  32.922  13.537
55856W        W25737  26.160  34.402   3.788
55857W        W25738  29.935  29.567   2.329
55858W        W25739  39.050  32.005   2.301
55859W        W25740  44.991  33.056   2.687
55860W        W25741  34.534  36.085  11.028
55861W        W25742  40.992  29.041   1.730
55862W        W25743  39.052  38.336   0.251
55863W        W25744  39.023  29.096   0.472
55864W        W25745  30.071  36.878  11.522
55865W        W25746  36.521  10.260  14.418
55866W        W25747  41.427  26.015  11.599
55867W        W25748  41.449  40.914  14.476
55868W        W25749  19.118  24.691  13.003
55869W        W25750  18.055  19.680   3.162
55870W        W25751  33.569   9.849   2.182
55871W        W25752  36.476  15.148   4.285
55872W        W25753   1.296  37.998   3.169
55873W        W25754  15.699   9.302   4.749
55874W        W25755  26.197  32.943   4.283
55875W        W25756  29.131  13.109   2.826
55876W        W25757  32.932  13.628  11.126
55877W        W25758  38.498  19.663  11.420
55878W        W25759  13.196   2.862  12.485
55879W        W25760  25.069  37.030  12.941
55880W        W25761  34.422  22.044   1.911
55881W        W25762  17.279  30.628  12.965
55882W        W25763   8.169   1.765  13.922
55883W        W25764  17.698  41.336   4.677
55884W        W25765  41.384  37.570  13.398
55885W        W25766  29.045  29.120   1.385
55886W        W25767  34.947  16.106  14.759
55887W        W25768  38.829  31.933   4.770
55888W        W25769  31.419  26.552  11.375
55889W        W25770   0.885  39.350   1.298
55890W        W25771  31.920   9.272  12.529
55891W        W25772  33.456  15.191   2.674
55892W        W25773  33.568   6.907   0.367
55893W        W25774  34.874  27.027   2.718
55894W        W25775   1.925   4.765  12.979
55895W        W25776  17.097  23.728  12.008
55896W        W25777  34.433  13.667  13.535
55897W        W25778   3.919  39.537   0.727
55898W        W25779  28.628  41.948  11.408
55899W        W25780  25.537   2.925  11.084
55900W        W25781  38.822  18.284  12.091
55901W        W25782  15.579  22.212  10.985
55902W        W25783  11.741  41.441   0.946
55903W        W25784  18.587  37.018   0.866
55904W        W25785  21.101   8.385   4.706
55905W        W25786   2.835  43.326  10.565
55906W        W25787  40.887   1.415   2.872
55907W        W25788  30.150  23.237   4.838
55908W        W25789   0.900  30.527   0.310
55909W        W25790  31.540  12.652   2.358
55910W        W25791  17.284  33.013  13.465
55911W        W25792  20.148  39.007  12.526
55912W        W25793  18.200  39.400  13.928
55913W        W25794  34.447   2.747   0.383
55914W        W25795  23.988   1.892   5.180
55915W        W25796  19.554  35.969  12.469
55916W        W25797  10.161  26.608   3.806
55917W        W25798  35.922  26.680   2.256
55918W        W25799  11.698  27.663  13.535
55919W        W25800   4.307  42.294   0.275
55920W        W25801   1.803  37.424   2.840
55921W        W25802  42.946  21.194  14.002
55922W        W25803  34.533  20.252   0.462
55923W        W25804  36.062  33.900  11.493
55924W        W25805  31.947  36.871   0.371
55925W        W25806  35.560  21.259   2.763
55926W        W25807  36.398  40.831  13.485
55927W        W25808  30.132  36.351  14.490
55928W        W25809  44.793  42.959   4.251
55929W        W25810   8.333  29.631   4.141
55930W        W25811  14.183  33.049  13.035
55931W        W25812  42.379  25.060  12.880
55932W        W25813   3.438  43.951  13.829
55933W        W25814   7.814  28.662  11.040
55934W        W25815  24.079  33.876   2.874
55935W        W25816  19.757  34.549  14.491
55936W        W25817  13.757  25.637  13.383
55937W        W25818  25.166  12.226  10.425
55938W        W25819  33.103  30.645   2.402
55939W        W25820  44.407  29.581   0.279
55940W        W25821  33.399  31.130  11.560
55941W        W25822  21.020  26.573  13.034
55942W        W25823  20.525  41.402   4.281
55943W        W25824  30.937  15.208  10.431
55944W        W25825  36.073  43.407   1.879
55945W        W25826   9.240  10.286   0.463
55946W        W25827  20.536  19.669  10.602
55947W        W25828  41.944  21.575   2.666
55948W        W25829   9.647  18.665  11.980
55949W        W25830  40.423  44.806  13.880
55950W        W25831  28.117   2.771  14.910
55951W        W25832   0.458   2.469  11.880
55952W        W25833  20.621  38.053   1.899
55953W        W25834   4.227  39.891   2.368
55954W        W25835  39.816   5.702  12.447
55955W        W25836  11.653  20.545  14.816
55956W        W25837  25.636  27.522   2.727
55957W        W25838  22.252  25.025   3.316
55958W        W25839  10.661   5.246  10.513
55959W        W25840  39.503   1.324  11.033
55960W        W25841  31.608  17.074  12.574
55961W        W25842  17.067  32.606   2.772
55962W        W25843   0.402  42.856  14.946
55963W        W25844  37.488  43.479  11.433
55964W        W25845  40.515  28.179   4.208
55965W        W25846  20.527  33.407   0.319
55966W        W25847  38.418  41.800  11.974
55967W        W25848  24.011  41.398   4.763
55968W        W25849  10.841  20.156   1.439
55969W        W25850  31.557   8.165  10.621
55970W        W25851   5.717  40.478  13.421
55971W        W25852  20.548  24.518  14.835
55972W        W25853  35.097   6.823  10.459
55973W        W25854  27.682   5.428  14.818
55974W        W25855   4.426   7.731   2.799
55975W        W25856  16.151  31.949   0.479
55976W        W25857  39.549  44.770   3.214
55977W        W25858  14.799  34.488   0.926
55978W        W25859  23.557  32.562  11.573
55979W        W25860  19.092  13.660   1.918
55980W        W25861   5.740  33.122  14.285
55981W        W25862  29.514  21.231   1.884
55982W        W25863  28.982   5.404   2.320
55983W        W25864   6.254  15.328  14.772
55984W        W25865  31.635   4.867  10.546
55985W        W25866  44.285  31.137  11.935
55986W        W25867  35.909  35.446  10.485
55987W        W25868  33.568  25.564  14.498
55988W        W25869  16.789  12.238  14.868
55989W        W25870   5.252  29.065   4.659
55990W        W25871  41.511  11.860  12.930
55991W        W25872  31.636  13.801   3.326
55992W        W25873  16.316  34.869  12.006
55993W        W25874  22.125   7.219   0.766
55994W        W25875  14.610  17.717  11.585
55995W        W25876  26.139  26.480   4.760
55996W        W25877  23.497  20.651  12.519
55997W        W25878  13.743  12.281   3.856
55998W        W25879  24.093  21.561  14.789
55999W        W25880  42.476  20.178   2.243
56000W        W25881  41.871  37.942   0.256
56001W        W25882  11.137  12.808   4.250
56002W        W25883  23.074  31.031   3.780
56003W        W25884  22.555  15.296   3.309
56004W        W25885   9.168  33.900  14.995
56005W        W25886  30.134  42.497  13.512
56006W        W25887  44.850  19.111   2.847
56007W        W25888   8.221  38.487  11.464
56008W        W25889  24.126  39.486   0.732
56009W        W25890  42.988  42.319   2.714
56010W        W25891   0.482  22.657  13.509
56011W        W25892  35.413   9.797   1.415
56012W        W25893  15.169  29.522  11.936
56013W        W25894  24.657  11.653   4.714
56014W        W25895  19.618  13.818   3.152
56015W        W25896  29.073  36.958  13.332
56016W        W25897  39.393  39.420   4.307
56017W        W25898   9.840  38.058   4.222
56018W        W25899  15.635   2.255   4.695
56019W        W25900  43.940  39.064   2.738
56020W        W25901  43.792  24.498   2.209
56021W        W25902  36.463   2.389   3.709
56022W        W25903  31.138  14.792   4.222
56023W        W25904  31.422  22.184   3.257
56024W        W25905   0.952  29.501  13.542
56025W        W25906  20.207  21.711   4.181
56026W        W25907  37.016   2.888   4.335
56027W        W25908   2.367  31.011  14.396
56028W        W25909  34.524  27.183  11.971
56029W        W25910   8.719  20.610  12.952
56030W        W25911  35.427  15.633  13.376
56031W        W25912  44.929  36.875   0.438
56032W        W25913  29.543  21.231  14.966
56033W        W25914  19.258  35.879  13.011
56034W        W25915  11.263  30.650   1.284
56035W        W25916  26.119  12.179   2.403
56036W        W25917  31.081   9.743   2.752
56037W        W25918  29.144  12.194   0.918
56038W        W25919  31.451  11.673   1.223
56039W        W25920  35.897  35.565  14.911
56040W        W25921  17.112  23.718   0.422
56041W        W25922  19.196   3.299   1.213
56042W        W25923  14.690  21.526  13.937
56043W        W25924  35.407  18.188  13.322
56044W        W25925  22.214  22.197  12.895
56045W        W25926  20.106  36.887   0.268
56046W        W25927  35.464  26.011   4.290
56047W        W25928  16.612  12.233  14.494
56048W        W25929  10.722   9.652  11.471
56049W        W25930  16.252  39.419   3.680
56050W        W25931  30.921  21.546  13.457
56051W        W25932   3.917  10.270   1.325
56052W        W25933  36.435  26.678   0.308
56053W        W25934   8.397   9.762   2.403
56054W        W25935  26.024  25.044   0.456
56055W        W25936  35.870  33.577   0.900
56056W        W25937  15.681   8.218  13.402
56057W        W25938  18.588  22.702   3.263
56058W        W25939  20.544  41.848  13.808
56059W        W25940  23.044  11.703  12.945
56060W        W25941  20.088  12.639   1.806
56061W        W25942  22.166   7.870   2.207
56062W        W25943  35.576  27.949  10.507
56063W        W25944  17.246  38.569  13.812
56064W        W25945  25.631  32.591   1.271
56065W        W25946  34.447   7.839   4.332
56066W        W25947   5.344  20.078   3.726
56067W        W25948   6.719  19.565  14.939
56068W        W25949  31.488  11.255  13.355
56069W        W25950  32.073  27.036   0.298
56070W        W25951  32.612  44.951   1.290
56071W        W25952  24.171  42.329   1.377
56072W        W25953  11.741  15.790   0.823
56073W        W25954  35.930  16.081  13.425
56074W        W25955  15.794  12.207  12.547
56075W        W25956  13.206  23.215  11.904
56076W        W25957  43.868   8.845  12.831
56077W        W25958  19.576  38.368  13.061
56078W        W25959  38.016  35.996   2.901
56079W        W25960  29.008  23.535   4.830
56080W        W25961  23.127   9.339  11.606
56081W        W25962   0.278   9.747   4.248
56082W        W25963  20.704  11.773  10.524
56083W        W25964  15.283  41.027   3.631
56084W        W25965  33.092  35.088   3.333
56085W        W25966  42.968  39.550  11.123
56086W        W25967  26.571  34.918   3.243
56087W        W25968   5.333  10.140   4.205
56088W        W25969   0.915   4.365  14.951
56089W        W25970  17.590  36.898   3.280
56090W        W25971  39.965  27.168   4.786
56091W        W25972  15.655  13.784   2.225
56092W        W25973   5.926  10.370  14.464
56093W        W25974  34.504  34.007  14.374
56094W        W25975  21.526   1.314  13.929
56095W        W25976  13.179  43.880  14.502
56096W        W25977  30.651  32.438   0.874
56097W        W25978  25.973  16.207  13.514
56098W        W25979  23.236  31.553  10.529
56099W        W25980  24.214   2.818  13.320
56100W        W25981  41.440   8.352   1.930
56101W        W25982   2.412  18.286  13.860
56102W        W25983   6.416  30.416   5.287
56103W        W25984  29.577  15.808  12.361
56104W        W25985  11.188  33.452   0.844
56105W        W25986  37.459  18.098   2.665
56106W        W25987  13.640  35.554  10.994
56107W        W25988  39.916  42.007   1.356
56108W        W25989  39.526  35.031  12.532
56109W        W25990  32.122  43.395   4.141
56110W        W25991  17.088   8.723   3.798
56111W        W25992   6.376  36.049  13.935
56112W        W25993  43.777   5.297   0.836
56113W        W25994  24.097  43.479  14.833
56114W        W25995  40.509  38.065   0.352
56115W        W25996  21.686   7.865  14.450
56116W        W25997  17.640   9.880  13.981
56117W        W25998  13.249  19.125   1.384
56118W        W25999  23.217  17.559   4.709
56119W        W26000   6.774  24.590  13.039
56120W        W26001  15.766   9.745  14.840
56121W        W26002  22.199  16.604  12.027
56122W        W26003  42.028   4.387  12.838
56123W        W26004  29.109  31.110   1.794
56124W        W26005  20.766   6.903   2.217
56125W        W26006  23.114  21.191  11.116
56126W        W26007  41.421  12.351   3.213
56127W        W26008  36.041  29.153  13.535
56128W        W26009  30.978  30.461   1.723
56129W        W26010  41.998  36.367   1.837
56130W        W26011  32.612  10.844  13.396
56131W        W26012  43.460  18.569   1.775
56132W        W26013  41.961  21.018   4.800
56133W        W26014  12.268  34.892  12.527
56134W        W26015  38.457  31.645  12.891
56135W        W26016  33.491  22.712   1.397
56136W        W26017  29.477   2.880   0.740
56137W        W26018   9.695  19.535  14.881
56138W        W26019   6.244  34.099  13.456
56139W        W26020  22.599  30.012  10.927
56140W        W26021  16.167  17.142   3.364
56141W        W26022  25.013   9.261  11.476
56142W        W26023   2.432  41.456   3.759
56143W        W26024  29.007  32.950  11.096
56144W        W26025  18.058  20.745   1.410
56145W        W26026  29.663   3.818  11.570
56146W        W26027  33.038  18.153   1.730
56147W        W26028  42.839  32.948  10.605
56148W        W26029   5.843  22.141   1.931
56149W        W26030   7.836  11.299   0.425
56150W        W26031   4.341  26.171   3.780
56151W        W26032  43.448   3.892   2.821
56152W        W26033   7.868  13.219  11.919
56153W        W26034  25.092  21.207   4.349
56154W        W26035  29.518   4.221  12.413
56155W        W26036  14.299  28.989   2.749
56156W        W26037  23.654  25.127  14.932
56157W        W26038  24.580  26.161   3.230
56158W        W26039  30.472  18.249  12.070
56159W        W26040  24.694  25.687   0.907
56160W        W26041  43.331  22.166   3.158
56161W        W26042  30.551  19.051  12.030
56162W        W26043  24.042  31.535   4.348
56163W        W26044  40.396  43.772   1.292
56164W        W26045  25.053   7.802  13.479
56165W        W26046   1.893  11.745   3.792
56166W        W26047   6.245  41.808   4.620
56167W        W26048   5.830  19.568  10.424
56168W        W26049   5.218   2.262  13.394
56169W        W26050  42.783  19.684   2.879
56170W        W26051  21.637  16.136   2.717
56171W        W26052   9.193   5.777  12.527
56172W        W26053  24.704  18.126   3.869
56173W        W26054  26.566  35.436   3.654
56174W        W26055   8.302  19.276  14.786
56175W        W26056  35.385   8.865  12.481
56176W        W26057  12.796  22.692   0.270
56177W        W26058   0.305  20.195   2.301
56178W        W26059  40.449  16.090   3.864
56179W        W26060  14.666  15.744  10.445
56180W        W26061  29.986  17.602   0.266
56181W        W26062  23.009  15.632  10.468
56182W        W26063  14.262  40.455  12.389
56183W        W26064   7.694  29.057   0.482
56184W        W26065  12.747   5.196   2.831
56185W        W26066  15.311  26.953   4.798
56186W        W26067  14.678  37.489   4.266
56187W        W26068  24.606   8.224  13.547
56188W        W26069  17.165  41.792  13.798
56189W        W26070  32.919   3.258  11.565
56190W        W26071  12.232  14.745   1.927
56191W        W26072  30.620  17.244  14.027
56192W        W26073  23.686  13.753  10.472
56193W        W26074  37.020  33.032  12.451
56194W        W26075   9.273  13.201  10.615
56195W        W26076  41.025  33.044   4.810
56196W        W26077  44.849  44.997   4.196
56197W        W26078  44.915  33.382   0.295
56198W        W26079  21.613  12.225   2.367
56199W        W26080  38.056   0.776  14.289
56200W        W26081   6.758  43.378  10.628
56201W        W26082  30.467  19.285  13.913
56202W        W26083  41.886  30.486  10.047
56203W        W26084   5.305  13.676  13.330
56204W        W26085  17.274  41.479   0.924
56205W        W26086  26.973  25.689   3.191
56206W        W26087  16.655   8.670  12.538
56207W        W26088  40.376   6.846  14.897
56208W        W26089   4.756  17.173   4.174
56209W        W26090  17.167   2.939  10.996
56210W        W26091  14.140   0.406  13.377
56211W        W26092  16.780  16.621   2.293
56212W        W26093   8.694  28.478   2.266
56213W        W26094  44.833  42.952   2.331
56214W        W26095   4.224  26.690  14.924
56215W        W26096   5.831  28.939  11.876
56216W        W26097  32.051  23.985  13.416
56217W        W26098  14.226  15.105  11.565
56218W        W26099  14.246  37.898   1.812
56219W        W26100  37.568   4.800  11.373
56220W        W26101  30.612  18.597   5.243
56221W        W26102   3.334  13.747  13.371
56222W        W26103  33.057   8.184  14.367
56223W        W26104   5.763  19.601   0.870
56224W        W26105  25.473  43.780   2.412
56225W        W26106  23.536  43.862   2.342
56226W        W26107  31.608  41.908   0.249
56227W        W26108  33.569  22.163   4.669
56228W        W26109  22.016  13.661   4.207
56229W        W26110  30.448   0.879   3.679
56230W        W26111  36.894   5.425   0.248
56231W        W26112   5.208  12.315  11.597
56232W        W26113  35.584  33.514   2.790
56233W        W26114  11.141  44.279  11.000
56234W        W26115   9.259  34.475  13.507
56235W        W26116  28.635  44.984  11.537
56236W        W26117  44.006  18.075  11.048
56237W        W26118  20.232  21.637  13.433
56238W        W26119  41.299  10.810   2.213
56239W        W26120  42.032  34.993  12.513
56240W        W26121  16.172  41.988   3.690
56241W        W26122  44.983  31.936   4.346
56242W        W26123  13.824  10.248   4.310
56243W        W26124  24.610   1.742  12.431
56244W        W26125  31.029  27.097   2.856
56245W        W26126  14.177  32.527  13.054
56246W        W26127  33.484   6.419  14.758
56247W        W26128  33.433   4.735  13.862
56248W        W26129  28.000  18.070   0.847
56249W        W26130  26.565  11.173   9.935
56250W        W26131  28.180  16.567   3.665
56251W        W26132  39.370  20.533   2.418
56252W        W26133   2.720   2.274   2.697
56253W        W26134  30.947  10.250  14.283
56254W        W26135  22.013  33.033  10.939
56255W        W26136  17.677  39.399  12.524
56256W        W26137  10.688  19.608   4.303
56257W        W26138  33.940  40.504   3.710
56258W        W26139  24.160  33.023  10.475
56259W        W26140   6.811  33.544   3.253
56260W        W26141  30.028  41.017  13.455
56261W        W26142  24.554  17.630   4.142
56262W        W26143   3.951  39.316  13.545
56263W        W26144  19.557  13.811  13.060
56264W        W26145   5.917  24.660  14.807
56265W        W26146  24.542   2.438   2.804
56266W        W26147  27.465  17.748   1.375
56267W        W26148  40.417  24.620  12.415
56268W        W26149  41.835  13.800   2.412
56269W        W26150  28.499  32.470   2.281
56270W        W26151  14.303  10.652   0.397
56271W        W26152  21.601  28.651  13.928
56272W        W26153  19.062   7.412   0.868
56273W        W26154   0.405  31.065  12.366
56274W        W26155  40.848  23.580  12.522
56275W        W26156   2.959   4.339   1.437
56276W        W26157  13.280  35.030  10.580
56277W        W26158  19.615  42.395   0.311
56278W        W26159  43.834   5.869  13.363
56279W        W26160   7.723  18.219  14.975
56280W        W26161  38.376   8.172  14.397
56281W        W26162  39.048  36.867  14.920
56282W        W26163  42.330  24.173   1.860
56283W        W26164  27.160  43.325   2.307
56284W        W26165   1.338  16.693  12.530
56285W        W26166   1.746  24.152   4.697
56286W        W26167  12.332   5.199  14.467
56287W        W26168   0.374  37.021   0.347
56288W        W26169  41.010  35.392   1.217
56289W        W26170   5.820  39.456   1.371
56290W        W26171  34.890  27.984  13.937
56291W        W26172  38.510   5.889   3.688
56292W        W26173  33.392   7.911   0.312
56293W        W26174  21.220  34.423  10.437
56294W        W26175  19.693  16.652  12.493
56295W        W26176  43.507   4.799   1.802
56296W        W26177  10.188  16.807  14.364
56297W        W26178  39.881  30.436  11.027
56298W        W26179  39.445  20.609   1.826
56299W        W26180  13.269  11.292  10.595
56300W        W26181  24.579  16.633  13.421
56301W        W26182  14.722  43.830   1.853
56302W        W26183  27.147  15.666   3.269
56303W        W26184   8.299  24.720  11.611
56304W        W26185  34.587  40.308   3.679
56305W        W26186  35.394  34.603  12.890
56306W        W26187   2.897  25.652   0.855
56307W        W26188  24.565  26.607   2.723
56308W        W26189  40.824  11.333   1.371
56309W        W26190  22.723  42.497  11.455
56310W        W26191  43.316  12.625   4.210
56311W        W26192  35.538  24.086  10.447
56312W        W26193  40.812  39.514  11.575
56313W        W26194   5.205  41.535  11.528
56314W        W26195  16.645  15.633  14.894
56315W        W26196  16.755  17.080   4.599
56316W        W26197  27.665  33.931  14.806
56317W        W26198  37.500  25.133  12.867
56318W        W26199  34.541  31.008   1.835
56319W        W26200  23.600  39.402  14.426
56320W        W26201  28.139  10.182   3.816
56321W        W26202  10.850  41.924   4.221
56322W        W26203  36.381  21.707  14.370
56323W        W26204   6.808  21.200   1.812
56324W        W26205  17.681  40.524  11.560
56325W        W26206   5.210  26.010   4.222
56326W        W26207  10.226  31.620   3.285
56327W        W26208  29.670  31.015  12.076
56328W        W26209  38.842  33.956   3.157
56329W        W26210  19.724   5.275  10.602
56330W        W26211   1.449  12.352  11.947
56331W        W26212   3.223  36.921   4.266
56332W        W26213   6.911  14.332   5.302
56333W        W26214  14.610  31.042  13.010
56334W        W26215   8.296  12.343   2.183
56335W        W26216  21.110  20.549   4.168
56336W        W26217  44.939  31.480  10.486
56337W        W26218  31.495  32.464  11.935
56338W        W26219  20.570   5.239  10.577
56339W        W26220  24.613  17.071  12.963
56340W        W26221  35.861  42.336  13.863
56341W        W26222  43.995  36.430   2.230
56342W        W26223  24.555  22.089   1.775
56343W        W26224  38.840  44.299  12.543
56344W        W26225  14.101  33.420  14.883
56345W        W26226   4.763  10.694   4.229
56346W        W26227  17.660  27.453  12.846
56347W        W26228  13.189  42.984   4.161
56348W        W26229  26.051   4.795   4.115
56349W        W26230  17.099   6.223  12.845
56350W        W26231  44.304  12.663  10.087
56351W        W26232  41.822  24.490   4.732
56352W        W26233  29.969   6.254   0.315
56353W        W26234   1.743   2.790   2.745
56354W        W26235  21.669   0.836   2.325
56355W        W26236   4.361   8.211  14.761
56356W        W26237  41.918  36.393  11.006
56357W        W26238   3.276   9.705  14.494
56358W        W26239  14.147  14.614   4.314
56359W        W26240  23.699  33.991   2.381
56360W        W26241  13.846  40.884   3.285
56361W        W26242  39.982  33.553  11.865
56362W        W26243  19.694   3.409  14.809
56363W        W26244  31.439  42.358   1.273
56364W        W26245  37.435  35.093   2.789
56365W        W26246   4.818  37.839   0.336
56366W        W26247  42.007  41.441  14.867
56367W        W26248   6.352  40.491  13.441
56368W        W26249  10.207  10.797  13.972
56369W        W26250  42.815  23.694   1.836
56370W        W26251  11.827  35.997  13.025
56371W        W26252  43.500  12.651   2.314
56372W        W26253  15.267  31.587  11.013
56373W        W26254  29.068  10.726  11.927
56374W        W26255  16.307  12.119  13.379
56375W        W26256  18.560  38.342   2.182
56376W        W26257  32.025  28.026  13.038
56377W        W26258  34.579  26.002  12.496
56378W        W26259   1.923  35.003  10.432
56379W        W26260   0.810  16.114   4.698
56380W        W26261  17.605  31.068  12.897
56381W        W26262   1.776  37.962   1.889
56382W        W26263  37.381  20.650  11.569
56383W        W26264  16.806  39.408   0.735
56384W        W26265  42.915  34.974  14.953
56385W        W26266  12.662  34.889   0.397
56386W        W26267   1.847  15.711   3.324
56387W        W26268   2.314  11.806  12.972
56388W        W26269   0.419  32.931   0.947
56389W        W26270  23.005  24.540   3.732
56390W        W26271  12.260  14.164   4.256
56391W        W26272   5.352  22.688  13.030
56392W        W26273   1.794  40.857  10.405
56393W        W26274  31.627  20.030  14.832
56394W        W26275  11.680  38.034  14.924
56395W        W26276  34.555  23.623   4.353
56396W        W26277  24.581   1.734   3.364
56397W        W26278  34.554   7.332   3.244
56398W        W26279  29.608   0.472   2.327
56399W        W26280  41.434   1.763  12.421
56400W        W26281  40.929  27.032   1.305
56401W        W26282  18.661  12.167  14.834
56402W        W26283  27.669  41.329   2.833
56403W        W26284  37.357  26.564  13.472
56404W        W26285   1.247  13.837   4.740
56405W        W26286   7.375   5.215   1.759
56406W        W26287   6.687   3.898  10.560
56407W        W26288   5.368  25.146   0.361
56408W        W26289  40.030  22.128  13.931
56409W        W26290  12.736  24.990   2.217
56410W        W26291   7.739  16.669  13.462
56411W        W26292  41.327  33.423  14.495
56412W        W26293   2.933  11.222   0.774
56413W        W26294   2.766  30.113  12.924
56414W        W26295  26.462  19.564   2.409
56415W        W26296   7.350  15.199   4.223
56416W        W26297   7.823   0.467  10.494
56417W        W26298  31.072  16.105   5.174
56418W        W26299  44.906   3.261  13.398
56419W        W26300   6.825  42.509  11.530
56420W        W26301  13.845  29.556   3.750
56421W        W26302  43.428   6.296  13.023
56422W        W26303  33.399  12.328  11.463
56423W        W26304  13.218  37.927  12.925
56424W        W26305  37.530   8.730   1.741
56425W        W26306  10.712  20.670   0.870
56426W        W26307  38.402  31.070  13.371
56427W        W26308  10.716  16.627  13.951
56428W        W26309  12.622  11.860  11.037
56429W        W26310   2.445  37.359   1.899
56430W        W26311  35.584  32.634  13.997
56431W        W26312  29.141   3.326  14.953
56432W        W26313  36.894  30.063   2.671
56433W        W26314  33.930  13.609  13.839
56434W        W26315  31.418  23.710   0.811
56435W        W26316  15.161  41.987  14.512
56436W        W26317  36.472   0.941   3.845
56437W        W26318  13.311  26.464   3.385
56438W        W26319  27.451  34.059   1.695
56439W        W26320   9.312  28.992   4.676
56440W        W26321   4.417  26.053  12.455
56441W        W26322  36.964  18.181  11.378
56442W        W26323  17.077  15.117   1.327
56443W        W26324  15.792  22.125  13.947
56444W        W26325  36.960  24.483   2.892
56445W        W26326   8.897  44.011   0.385
56446W        W26327  25.488  41.470  11.415
56447W        W26328  31.460   9.319  11.068
56448W        W26329  23.035  44.438   0.323
56449W        W26330  29.568  38.063   1.417
56450W        W26331  13.788   8.247  10.932
56451W        W26332  33.130   0.838  12.340
56452W        W26333  25.179  16.711  10.414
56453W        W26334  19.674  38.954   2.790
56454W        W26335  18.735  20.175  11.390
56455W        W26336  20.730  38.915  14.887
56456W        W26337  13.203  40.376   3.842
56457W        W26338   5.283   7.872   1.322
56458W        W26339   4.422  31.524  12.978
56459W        W26340  35.856  28.118  10.500
56460W        W26341  34.569  27.099  14.895
56461W        W26342  22.512  17.586   0.831
56462W        W26343   1.817  40.390  13.874
56463W        W26344   6.859  30.446   1.792
56464W        W26345  25.647  18.085  14.350
56465W        W26346  30.592  36.953  14.965
56466W        W26347  31.526  22.584  14.779
56467W        W26348  18.090  38.898  11.395
56468W        W26349  43.451  17.116  12.086
56469W        W26350   5.417  26.529   1.370
56470W        W26351  11.798  18.586   5.617
56471W        W26352  27.446   8.797  14.956
56472W        W26353  39.444   2.347  13.042
56473W        W26354  17.625  44.886   2.217
56474W        W26355   8.816  13.109   1.211
56475W        W26356  29.576  25.698  10.958
56476W        W26357  10.706  39.031   3.237
56477W        W26358  10.798  22.507  10.159
56478W        W26359  23.493  34.934   2.899
56479W        W26360  43.971   2.860   1.386
56480W        W26361  12.242  31.470   2.371
56481W        W26362  17.194  11.135   1.331
56482W        W26363   0.952   1.834   1.224
56483W        W26364   2.454  34.980  11.424
56484W        W26365  41.968   0.765   0.864
56485W        W26366  38.388  32.116  13.368
56486W        W26367  36.388  38.373  14.875
56487W        W26368   2.770  24.044  13.527
56488W        W26369   9.643   2.229  11.899
56489W        W26370  22.167   1.420  11.949
56490W        W26371  34.439  11.363   1.409
56491W        W26372  42.989  40.365  12.520
56492W        W26373  44.861  38.462   3.862
56493W        W26374  30.627   4.209  11.989
56494W        W26375   7.751  40.319   4.756
56495W        W26376  10.262  16.219   3.321
56496W        W26377  29.543  14.694  14.024
56497W        W26378   3.351  16.281   3.338
56498W        W26379   4.823  18.083   0.305
56499W        W26380  22.231   3.905   2.282
56500W        W26381  22.657  44.927   2.308
56501W        W26382  35.950  33.606  14.434
56502W        W26383  39.506  24.198   0.921
56503W        W26384  29.488  10.773  12.859
56504W        W26385  38.069  40.393   0.387
56505W        W26386   9.306  26.573   2.196
56506W        W26387  17.237  17.132  13.861
56507W        W26388   3.250  28.000   4.762
56508W        W26389  21.259  43.306  12.400
56509W        W26390  42.796  22.139   1.920
56510W        W26391   4.438  19.571   3.785
56511W        W26392   3.403   8.252  11.515
56512W        W26393   3.805  32.420  13.422
56513W        W26394  34.877  32.568  12.413
56514W        W26395  44.265   9.835   3.698
56515W        W26396  27.158  34.105  14.397
56516W        W26397  14.649  34.955   0.961
56517W        W26398  34.416  38.401  13.796
56518W        W26399  11.825  16.615  11.092
56519W        W26400   3.299  33.937   2.200
56520W        W26401   4.397  29.026   3.313
56521W        W26402   5.286  29.493  10.956
56522W        W26403   4.897   7.265   2.762
56523W        W26404  14.694  35.592   4.224
56524W        W26405   1.302   7.891  12.459
56525W        W26406  23.548  34.419  13.815
56526W        W26407  30.584   8.380   5.240
56527W        W26408  25.189  20.123   5.315
56528W        W26409  10.203  24.213   3.694
56529W        W26410  35.977  30.096  12.918
56530W        W26411   0.884  36.428  10.999
56531W        W26412  38.840  26.009   0.819
56532W        W26413  15.593  38.932   5.118
56533W        W26414  27.949  24.683  12.454
56534W        W26415  36.867  17.693   4.651
56535W        W26416   1.308  19.768   0.482
56536W        W26417  13.668  17.160   0.464
56537W        W26418  23.024   8.332   0.306
56538W        W26419  29.534  44.465   5.287
56539W        W26420  33.477   1.786  11.874
56540W        W26421  24.044  35.964  13.417
56541W        W26422   2.437  34.605  14.478
56542W        W26423  16.143  31.611  11.473
56543W        W26424  31.973  39.905   0.833
56544W        W26425  41.919  36.415   4.204
56545W        W26426   8.275   1.437   0.920
56546W        W26427  42.926  11.767   3.726
56547W        W26428  29.009   5.282   3.155
56548W        W26429  16.763  42.348   1.734
56549W        W26430  14.770   4.213   3.317
56550W        W26431  34.577  10.652  11.563
56551W        W26432  43.339  40.819   3.151
56552W        W26433  23.102   3.380   3.667
56553W        W26434   5.688  22.094  13.886
56554W        W26435  25.553   7.822   4.270
56555W        W26436  12.854  32.429  13.945
56556W        W26437  20.638  16.117  13.393
56557W        W26438  42.464  40.010  14.312
56558W        W26439  17.792  12.302  10.557
56559W        W26440  42.832  19.063   0.837
56560W        W26441  14.630  17.115  13.523
56561W        W26442  15.650  27.069  11.912
56562W        W26443   6.202  44.986   1.853
56563W        W26444  14.753  37.947   1.923
56564W        W26445   7.797   0.254  12.511
56565W        W26446  29.518  12.192  12.857
56566W        W26447  16.720  33.892   4.699
56567W        W26448  25.589  14.253   4.173
56568W        W26449  19.684   0.957   5.205
56569W        W26450  29.530  24.030  14.006
56570W        W26451  29.612  39.503   3.200
56571W        W26452  40.477  14.122  12.465
56572W        W26453   1.875  31.637   3.334
56573W        W26454  11.767  19.043   5.264
56574W        W26455   0.444  35.410   4.164
56575W        W26456   7.249   0.875   3.870
56576W        W26457  35.381   7.743  14.400
56577W        W26458  39.051  11.700   3.748
56578W        W26459  13.834  37.023   0.945
56579W        W26460  44.836  16.677  11.883
56580W        W26461  20.037  43.925   5.239
56581W        W26462  31.589  27.052   4.645
56582W        W26463  11.143   4.371  14.837
56583W        W26464  18.090  44.952  12.992
56584W        W26465  21.632  26.580   4.263
56585W        W26466  14.817  12.645  11.915
56586W        W26467  33.622  16.283  10.999
56587W        W26468   6.771   8.661   1.312
56588W        W26469  17.770   5.726   4.825
56589W        W26470   4.288   0.904  14.329
56590W        W26471   1.751   2.412   2.882
56591W        W26472   5.419  13.325  13.422
56592W        W26473   5.745  23.999   3.267
56593W        W26474   5.382  44.445  13.907
56594W        W26475   2.459  10.346  14.477
56595W        W26476  31.041  29.926   4.265
56596W        W26477  39.486   8.807   3.809
56597W        W26478  42.469  39.458  14.832
56598W        W26479  36.984  43.978   4.205
56599W        W26480  38.034  43.279   1.910
56600W        W26481   9.651  12.853  14.975
56601W        W26482   8.892   3.403   1.826
56602W        W26483  29.601   2.471  12.850
56603W        W26484   9.371  37.575  12.385
56604W        W26485   9.353  44.316  13.456
56605W        W26486  32.551  12.774  14.303
56606W        W26487  23.538  24.585   3.285
56607W        W26488  12.655  28.617  12.541
56608W        W26489  24.557   3.716   1.417
56609W        W26490  35.594  12.308  14.903
56610W        W26491  26.977   9.366   4.169
56611W        W26492   7.345  35.065  11.872
56612W        W26493   2.416  12.700  11.427
56613W        W26494  16.727   9.697  14.447
56614W        W26495  25.048  38.540   4.196
56615W        W26496  21.166  43.441   4.203
56616W        W26497  21.246  14.329  12.339
56617W        W26498  24.183  14.635   2.349
56618W        W26499  35.415  17.722   0.297
56619W        W26500   3.835   0.815  11.411
56620W        W26501  37.061  44.978   5.230
56621W        W26502  43.876  39.491  14.474
56622W        W26503  37.993  39.511   3.679
56623W        W26504  27.663  25.612  10.016
56624W        W26505   7.215  21.725  10.545
56625W        W26506   2.450   0.359   3.350
56626W        W26507  39.437  15.707   3.754
56627W        W26508  43.380  38.387   1.862
56628W        W26509   7.672  23.148  10.472
56629W        W26510   8.277  41.411   2.272
56630W        W26511  29.568   8.194  10.110
56631W        W26512   2.769  10.220   1.292
56632W        W26513  22.069   1.942   4.325
56633W        W26514  26.624  14.734   3.644
56634W        W26515   9.740   7.820  12.422
56635W        W26516  42.360  17.249   0.355
56636W        W26517  18.555  25.213  13.024
56637W        W26518  12.683  43.495  13.351
56638W        W26519  21.734  37.528   4.759
56639W        W26520  12.349  27.522  13.888
56640W        W26521  15.715  24.680   3.316
56641W        W26522  16.283  36.991   2.398
56642W        W26523  12.226  18.559   0.245
56643W        W26524  19.743  42.915   4.321
56644W        W26525  32.463  17.665  14.370
56645W        W26526   8.351  41.895   0.424
56646W        W26527   7.778  29.025  14.495
56647W        W26528  11.258  12.784  14.421
56648W        W26529  43.296  43.355   4.769
56649W        W26530  22.696   0.834  13.933
56650W        W26531  21.697  34.515  11.107
56651W        W26532  44.898  41.822   4.762
56652W        W26533  25.547  13.677   4.324
56653W        W26534  44.931  21.519   1.436
56654W        W26535  19.236  37.835  10.918
56655W        W26536   9.312   7.801  13.837
56656W        W26537  26.533  13.298  12.523
56657W        W26538  44.305  28.949   4.129
56658W        W26539  43.950  43.322  12.564
56659W        W26540  34.011  32.511  10.502
56660W        W26541   9.241  20.238  11.030
56661W        W26542   1.323  43.795   1.847
56662W        W26543  32.887  24.212  13.042
56663W        W26544   1.446  22.006  11.593
56664W        W26545  27.976  30.040  10.586
56665W        W26546   8.245  13.339  11.930
56666W        W26547  21.223  35.465  13.983
56667W        W26548  41.917  24.566  10.571
56668W        W26549  22.086  38.036  11.450
56669W        W26550   9.329  14.802   2.283
56670W        W26551  29.013   1.836  13.940
56671W        W26552  25.999  41.328   0.266
56672W        W26553  37.354  28.978   0.857
56673W        W26554  15.794   0.250   2.220
56674W        W26555  27.680  15.657   1.767
56675W        W26556  32.546  37.067   3.663
56676W        W26557   6.324   2.295  12.419
56677W        W26558   8.241   1.797   4.799
56678W        W26559  26.053   7.321  10.575
56679W        W26560  24.068   6.735   4.784
56680W        W26561  22.076   1.237  11.033
56681W        W26562   8.163   2.323  13.934
56682W        W26563  26.183  44.967   0.357
56683W        W26564   7.283  14.808  11.995
56684W        W26565  29.488  44.341   2.416
56685W        W26566   3.328  29.450   3.348
56686W        W26567  21.690   3.224  13.530
56687W        W26568  18.663   9.868  12.483
56688W        W26569  31.432   9.657  10.513
56689W        W26570  18.110  19.233  11.015
56690W        W26571   4.295   4.399  11.087
56691W        W26572  31.929  22.141   3.367
56692W        W26573  40.355  32.449   4.238
56693W        W26574  20.718  12.850   0.874
56694W        W26575  20.110  27.464  10.412
56695W        W26576  10.278  28.117   2.667
56696W        W26577   7.912  27.133  14.968
56697W        W26578  23.578  31.626  10.440
56698W        W26579  17.141  33.407   4.294
56699W        W26580  43.431  14.608   4.236
56700W        W26581   8.821  44.280  12.095
56701W        W26582  39.010  12.269   4.669
56702W        W26583  33.494  40.985   1.219
56703W        W26584  39.843  24.630  11.453
56704W        W26585  41.812  32.972   1.760
56705W        W26586  37.528  34.053   0.849
56706W        W26587  31.074  28.075   4.264
56707W        W26588  39.020  41.938   2.872
56708W        W26589  35.882  23.622   1.909
56709W        W26590   1.809  19.205   1.766
56710W        W26591  34.960  36.542   1.211
56711W        W26592  38.349  28.168   1.865
56712W        W26593  20.691  35.862  13.909
56713W        W26594   9.214  27.495  10.570
56714W        W26595  14.250  36.458  14.309
56715W        W26596  24.215  22.630  14.418
56716W        W26597  16.189  31.648  13.463
56717W        W26598  16.603  38.490   2.260
56718W        W26599  14.194  36.929   4.182
56719W        W26600  38.326   0.312   3.795
56720W        W26601  27.535   7.883   1.823
56721W        W26602  18.128  41.872   0.934
56722W        W26603  13.131  43.834   2.890
56723W        W26604  42.338  28.149   4.691
56724W        W26605  11.297  26.594   2.269
56725W        W26606  32.103   4.255   2.343
56726W        W26607  40.822  27.524  14.775
56727W        W26608  14.213   3.798  11.566
56728W        W26609  12.236  14.737   1.428
56729W        W26610  16.662  36.924  14.889
56730W        W26611   4.407  44.779  12.032
56731W        W26612  41.428   7.793   0.947
56732W        W26613  39.868   9.667   4.666
56733W        W26614  31.444   9.383   0.895
56734W        W26615   4.394   5.856   4.222
56735W        W26616  21.173  21.243   3.842
56736W        W26617  28.503  12.252   1.927
56737W        W26618  21.698  19.058  13.484
56738W        W26619  28.044  43.504   0.476
56739W        W26620  23.528  29.147  14.352
56740W        W26621  26.686  33.984   4.726
56741W        W26622   2.944  26.053   2.300
56742W        W26623  15.680  32.636  14.857
56743W        W26624  11.688   1.378   0.403
56744W        W26625  26.127  25.972  11.401
56745W        W26626  24.650  20.225  12.526
56746W        W26627  26.469  27.475   4.651
56747W        W26628   4.816  11.281   2.378
56748W        W26629   5.396   5.274  10.474
56749W        W26630  25.559  35.595  11.101
56750W        W26631  30.555  20.055  12.441
56751W        W26632  22.718  43.308  10.573
56752W        W26633  22.721  39.024  10.903
56753W        W26634  11.240  23.635  14.872
56754W        W26635  29.626  15.720   0.267
56755W        W26636  32.122  16.284   2.398
56756W        W26637  30.112  27.994   4.777
56757W        W26638  38.435   0.277   1.241
56758W        W26639   6.676  29.030   3.353
56759W        W26640  19.252  16.798  11.904
56760W        W26641   0.331  40.359  11.561
56761W        W26642  25.147   1.389   1.792
56762W        W26643  29.005  14.121  11.502
56763W        W26644  42.911  28.634   3.722
56764W        W26645  25.186  11.757  13.993
56765W        W26646  25.173  35.108  13.933
56766W        W26647  40.319   0.404   4.798
56767W        W26648  14.324  37.499   4.689
56768W        W26649  28.030  26.111   5.253
56769W        W26650  12.186   8.305  13.501
56770W        W26651  38.044   4.716  14.278
56771W        W26652  36.488  31.479  11.933
56772W        W26653  33.603  21.643  11.445
56773W        W26654  25.533  26.612   2.811
56774W        W26655  27.692  32.052   1.824
56775W        W26656  35.992  16.578   0.458
56776W        W26657  39.016   2.347  11.974
56777W        W26658  22.667  14.229   0.440
56778W        W26659  32.548   5.900   3.157
56779W        W26660   8.404  14.780  13.508
56780W        W26661  12.356  12.773  14.416
56781W        W26662  22.558  26.667   1.731
56782W        W26663  36.567  27.527  14.332
56783W        W26664  23.011   9.385   1.873
56784W        W26665   2.914  22.522  14.440
56785W        W26666  11.195   9.307   3.673
56786W        W26667  32.520  12.662   0.946
56787W        W26668  33.913  38.934   3.801
56788W        W26669  43.356   0.888  10.602
56789W        W26670  36.437  40.880  14.830
56790W        W26671  20.275   7.879   1.367
56791W        W26672  16.567   9.775   4.817
56792W        W26673  43.476   3.341   1.244
56793W        W26674  28.178  44.793   1.786
56794W        W26675   7.714  32.503   1.806
56795W        W26676  36.526   1.313  12.001
56796W        W26677  32.562  38.546  13.844
56797W        W26678  19.678  18.156  14.812
56798W        W26679  42.021  11.698   3.745
56799W        W26680  38.541  28.108   3.783
56800W        W26681  39.551   4.803  14.489
56801W        W26682  15.798  17.123  10.473
56802W        W26683  25.534  38.056   1.417
56803W        W26684  14.329  30.484  14.334
56804W        W26685  43.874  18.087   4.603
56805W        W26686  33.884  28.094   4.755
56806W        W26687  14.133   7.204   2.860
56807W        W26688  10.731  32.054   3.380
56808W        W26689  17.259  44.460  14.477
56809W        W26690  39.908  12.795  12.997
56810W        W26691   1.809   3.304  14.882
56811W        W26692  38.912   3.309   5.088
56812W        W26693  38.407   8.377  10.976
56813W        W26694   8.367  40.345  13.413
56814W        W26695  30.069  36.425  12.824
56815W        W26696  28.974  11.749   3.817
56816W        W26697  30.030  40.032   1.775
56817W        W26698  39.818  28.633   4.636
56818W        W26699  14.325  23.083  11.371
56819W        W26700  42.511  34.990   2.371
56820W        W26701  22.530  22.617   3.146
56821W        W26702  38.962  28.132  10.096
56822W        W26703  22.202  24.688   3.232
56823W        W26704   8.301  33.102   4.658
56824W        W26705  43.504   6.271   3.854
56825W        W26706  42.020   6.283   2.858
56826W        W26707  43.838  26.069   2.371
56827W        W26708   6.858   6.371  11.034
56828W        W26709  20.074  33.936   3.665
56829W        W26710  19.172  27.619   9.988
56830W        W26711  14.800  23.504   4.271
56831W        W26712  35.486   8.874  11.900
56832W        W26713  42.778  39.918   4.654
56833W        W26714  12.613  14.714  13.920
56834W        W26715  43.854  29.439   1.857
56835W        W26716  22.654  42.882  12.485
56836W        W26717  10.817  39.334  12.031
56837W        W26718   3.741  12.277  12.831
56838W        W26719  11.164  17.796  13.444
56839W        W26720  40.806   5.900  11.559
56840W        W26721  28.986  10.260   2.800
56841W        W26722  39.970  19.702   2.219
56842W        W26723   9.159  42.002   0.390
56843W        W26724  26.104   2.391  12.826
56844W        W26725  31.926  32.457   1.727
56845W        W26726  28.601  28.952  10.495
56846W        W26727  25.611  40.047   3.783
56847W        W26728  26.150  40.014   4.821
56848W        W26729   6.220  43.768  11.910
56849W        W26730  19.051  42.443  13.023
56850W        W26731  33.625   9.354  10.033
56851W        W26732  28.976  31.455   2.375
56852W        W26733  27.643  20.564  12.853
56853W        W26734  33.535  38.560   1.267
56854W        W26735  16.754  19.225  10.426
56855W        W26736   1.751   7.359  14.328
56856W        W26737  10.385  21.070  12.026
56857W        W26738  13.256  28.489  14.360
56858W        W26739  29.033  10.214   2.300
56859W        W26740   4.308   7.779   3.386
56860W        W26741  35.451   0.757   3.745
56861W        W26742  13.812  16.237   3.279
56862W        W26743  42.310   7.229   0.343
56863W        W26744  37.547   8.770  14.784
56864W        W26745  24.543  17.655  14.026
56865W        W26746   7.179   3.913   3.759
56866W        W26747  34.453  26.640  12.993
56867W        W26748   3.252  24.522   0.828
56868W        W26749  13.309  24.516  12.876
56869W        W26750  25.625  28.100   3.257
56870W        W26751  12.784  33.404  10.894
56871W        W26752  43.284   9.693  14.998
56872W        W26753  16.251  15.182   0.267
56873W        W26754  22.144  43.285   3.730
56874W        W26755  43.955  25.096   2.365
56875W        W26756  32.526  43.422  13.365
56876W        W26757  32.568  15.582   9.990
56877W        W26758  43.829  24.018   0.762
56878W        W26759  20.233  40.529   2.731
56879W        W26760  25.495   8.854  13.456
56880W        W26761  20.768  40.894   3.255
56881W        W26762   9.861  44.987  11.992
56882W        W26763  21.140   0.874  11.405
56883W        W26764   6.250   9.869   1.417
56884W        W26765  39.957  37.382   3.729
56885W        W26766  37.083  18.151  12.498
56886W        W26767  19.192  31.934  14.762
56887W        W26768  29.657   5.699  11.558
56888W        W26769  34.952  35.556  12.508
56889W        W26770  44.971  10.285   4.742
56890W        W26771  17.093   0.297   2.679
56891W        W26772   6.843  41.519   1.892
56892W        W26773   7.865   7.899  12.492
56893W        W26774   3.951   7.870  13.916
56894W        W26775  43.331   2.941   1.870
56895W        W26776  42.436  21.046   4.806
56896W        W26777  15.626   0.440   2.767
56897W        W26778  34.430   8.725  13.905
56898W        W26779  24.065  18.068  11.601
56899W        W26780  28.934  30.164  10.931
56900W        W26781  40.923   6.243  12.094
56901W        W26782  17.605  20.633  11.377
56902W        W26783  33.442   4.718   4.334
56903W        W26784  41.940  28.495  11.570
56904W        W26785  11.859   2.888  10.473
56905W        W26786  32.472   1.469  10.529
56906W        W26787   2.906   0.295   0.252
56907W        W26788  21.628  34.575  14.960
56908W        W26789  19.699   7.883   1.385
56909W        W26790  34.489  37.902   2.383
56910W        W26791   1.776  29.620   2.817
56911W        W26792  24.672   4.329   1.373
56912W        W26793  37.398   1.978   0.333
56913W        W26794  18.572   3.847   0.950
56914W        W26795  13.260  41.442  14.320
56915W        W26796  20.132   3.735  13.036
56916W        W26797  30.161  39.514   1.212
56917W        W26798  15.319  43.433   0.849
56918W        W26799   1.435  12.627   1.452
56919W        W26800   8.849  29.438  12.474
56920W        W26801  20.040  14.328  10.997
56921W        W26802  11.830  40.537   3.168
56922W        W26803   6.390  23.003   4.647
56923W        W26804  33.436  35.499  14.927
56924W        W26805   3.331   8.168  13.544
56925W        W26806  27.468   0.871  14.961
56926W        W26807   7.241  26.017  11.027
56927W        W26808  41.377  11.187   2.801
56928W        W26809  13.667  11.167   0.358
56929W        W26810   3.928   2.374   0.942
56930W        W26811  31.109  34.471  14.972
56931W        W26812  22.034  28.671  12.542
56932W        W26813  22.227   9.661  12.012
56933W        W26814  23.695  31.044  13.023
56934W        W26815  16.227  10.331  10.528
56935W        W26816  36.421  28.075   4.839
56936W        W26817  38.476  42.810   2.381
56937W        W26818  41.368  31.961   5.115
56938W        W26819   9.703  12.215   4.713
56939W        W26820  32.583  32.511   2.822
56940W        W26821  44.902  34.374  10.408
56941W        W26822  39.901  40.358   1.922
56942W        W26823  38.512  41.974   1.315
56943W        W26824  37.420  14.751  10.569
56944W        W26825  29.109  42.285   4.765
56945W        W26826   4.318  34.576   4.327
56946W        W26827  44.392  17.100  10.957
56947W        W26828  12.134  42.459   4.811
56948W        W26829  34.024  24.100   4.118
56949W        W26830   5.867  30.581  13.049
56950W        W26831  33.984  28.027   3.313
56951W        W26832  24.142  31.104   2.824
56952W        W26833   2.881  13.246  14.495
56953W        W26834  35.450  23.179   1.329
56954W        W26835  41.876   7.393   4.608
56955W        W26836  39.546  41.382   1.796
56956W        W26837  28.573   0.959   3.864
56957W        W26838  13.262  10.763   3.172
56958W        W26839  21.259  22.098   1.901
56959W        W26840  34.524  28.094   3.272
56960W        W26841  32.950  44.922  12.017
56961W        W26842  14.727  31.898   1.430
56962W        W26843  14.232  40.955   2.286
56963W        W26844  13.792  30.157   5.653
56964W        W26845   1.749  12.813   4.738
56965W        W26846  42.994   9.787   3.300
56966W        W26847  22.186   5.913   0.262
56967W        W26848  14.742   2.407  13.936
56968W        W26849  43.001  44.802   0.944
56969W        W26850   0.359   0.290  12.071
56970W        W26851   9.691  16.761   2.196
56971W        W26852  44.884  25.503  12.986
56972W        W26853  44.270   3.344   0.303
56973W        W26854  38.943  27.539   4.274
56974W        W26855   6.680  21.149  10.493
56975W        W26856  16.807  42.398   4.185
56976W        W26857  23.539  17.121  10.585
56977W        W26858   7.865  20.592  11.887
56978W        W26859   7.190  21.149   1.235
56979W        W26860   9.153  21.168  12.569
56980W        W26861  38.342  40.042   2.788
56981W        W26862  13.683   1.323  10.910
56982W        W26863  13.324  35.573   4.692
56983W        W26864  21.227  15.300   4.323
56984W        W26865   7.827  25.108  11.881
56985W        W26866  34.106   4.420   2.309
56986W        W26867  33.977  34.611   0.940
56987W        W26868  13.269  42.919   4.727
56988W        W26869  17.690  35.435   4.155
56989W        W26870  41.846  13.800  14.830
56990W        W26871  36.081   7.892   3.720
56991W        W26872  29.617  41.436   5.167
56992W        W26873  29.458  37.397  12.827
56993W        W26874  40.812  16.694  14.418
56994W        W26875  10.219   4.235   1.254
56995W        W26876  10.350  14.778  10.428
56996W        W26877  34.503  35.377  10.527
56997W        W26878  17.736  40.995  14.785
56998W        W26879   0.846   2.467   3.675
56999W        W26880  10.680  19.767  11.436
57000W        W26881  23.678   8.879  13.806
57001W        W26882  37.057  34.113  12.938
57002W        W26883  15.733  30.585   2.892
57003W        W26884  12.647   5.414   3.763
57004W        W26885  17.116  38.936  10.638
57005W        W26886  14.726   9.738   3.153
57006W        W26887  21.641  24.036   4.753
57007W        W26888  21.643   5.271  11.409
57008W        W26889  39.055  19.665  11.896
57009W        W26890   3.392  20.123   0.924
57010W        W26891  31.998   0.360   0.909
57011W        W26892   3.944  15.757   1.216
57012W        W26893  25.153  32.968  14.369
57013W        W26894  37.014   8.757  11.469
57014W        W26895  15.209  19.205   2.314
57015W        W26896  32.990  27.057  12.885
57016W        W26897  18.209  33.922   3.374
57017W        W26898  32.491  12.793   5.263
57018W        W26899  10.699  41.860  11.873
57019W        W26900  40.983  19.579   0.895
57020W        W26901  14.607  16.261   2.810
57021W        W26902  37.837   0.851  12.962
57022W        W26903  30.086  37.989  11.519
57023W        W26904  34.888  27.180   4.193
57024W        W26905  10.820  35.488   4.811
57025W        W26906  42.515  23.240  11.901
57026W        W26907  33.946  39.364   1.380
57027W        W26908   8.782   4.920   0.446
57028W        W26909  25.134  11.315  13.520
57029W        W26910  36.491  25.573   1.891
57030W        W26911  27.600   2.776  14.799
57031W        W26912  41.921  30.600  14.022
57032W        W26913  18.256   5.422  14.959
57033W        W26914  17.707  34.440   2.414
57034W        W26915  28.136   0.810   0.764
57035W        W26916   2.258   7.231   2.199
57036W        W26917  24.533  16.073  14.030
57037W        W26918  33.551  33.942   2.875
57038W        W26919  37.407  17.145  11.109
57039W        W26920  34.088   9.393  12.011
57040W        W26921  25.158  32.950   1.701
57041W        W26922  33.407  37.983  12.869
57042W        W26923   6.315  14.651   0.861
57043W        W26924  13.124  16.124   1.711
57044W        W26925   9.887  31.022  13.051
57045W        W26926  25.533  17.609  10.434
57046W        W26927   4.210  13.834   1.750
57047W        W26928   4.765  28.666   2.669
57048W        W26929   8.327  16.682  11.469
57049W        W26930  14.179   0.395  12.006
57050W        W26931  33.073  14.654   0.782
57051W        W26932  44.808  35.466  14.892
57052W        W26933   1.826   7.867   0.327
57053W        W26934  20.661  13.724  12.395
57054W        W26935  27.580  10.820  14.795
57055W        W26936  28.555   6.868   1.771
57056W        W26937   7.752  28.469  12.478
57057W        W26938  38.503  42.478   1.215
57058W        W26939  17.648  23.227   0.452
57059W        W26940  38.042  29.022   2.796
57060W        W26941  32.056  11.857   2.202
57061W        W26942  37.479  41.012   1.828
57062W        W26943  13.717  18.567   0.300
57063W        W26944   3.276   7.301  12.495
57064W        W26945   8.800  28.602   4.598
57065W        W26946   8.332   4.792  14.842
57066W        W26947  21.683  25.174   1.821
57067W        W26948  12.311  10.657   1.213
57068W        W26949  20.255  38.946   2.752
57069W        W26950  39.353  27.017   4.289
57070W        W26951  38.335  14.271  10.525
57071W        W26952  24.049  26.697   2.885
57072W        W26953  39.432   6.683   2.719
57073W        W26954  22.728  22.511  11.958
57074W        W26955  14.595  35.530  14.377
57075W        W26956  41.891  24.556  11.938
57076W        W26957  32.104  44.928   2.204
57077W        W26958  29.483  36.538  11.002
57078W        W26959  22.735   6.182  13.969
57079W        W26960  35.580   4.409  11.517
57080W        W26961   2.939  38.990   1.254
57081W        W26962  24.994   2.467   2.878
57082W        W26963  22.612   2.400   3.203
57083W        W26964  26.189  24.994  13.449
57084W        W26965  28.596  27.588   1.718
57085W        W26966   5.933  38.516   2.278
57086W        W26967   5.346  20.583  13.064
57087W        W26968  31.412  41.830   1.394
57088W        W26969  32.988   2.819   3.721
57089W        W26970  25.471  24.490   4.632
57090W        W26971   0.476  27.997   1.338
57091W        W26972   9.802  14.645  13.795
57092W        W26973  33.622  28.496   2.357
57093W        W26974  44.762   7.743   1.869
57094W        W26975  22.210  29.957   0.748
57095W        W26976  19.145   6.299   2.672
57096W        W26977   9.663   2.386   3.719
57097W        W26978   6.794  28.522  13.308
57098W        W26979  32.028   0.469  11.477
57099W        W26980  28.123  27.484   2.886
57100W        W26981  40.497   3.366   4.327
57101W        W26982  42.445  24.181  12.348
57102W        W26983  41.945  26.641  13.013
57103W        W26984   4.783   2.939  13.034
57104W        W26985  23.168  22.186  14.875
57105W        W26986  19.228  38.933  11.108
57106W        W26987  25.514  11.835   3.241
57107W        W26988  16.640   8.291  14.451
57108W        W26989  18.171  38.830   4.639
57109W        W26990   2.901  24.667  11.521
57110W        W26991   1.241  34.033   3.314
57111W        W26992  28.973  42.408   2.723
57112W        W26993   2.379  21.211  10.016
57113W        W26994   5.432   1.370   3.268
57114W        W26995   2.284   5.741   3.274
57115W        W26996  20.767  44.866   3.375
57116W        W26997  21.732  29.992   2.208
57117W        W26998  12.722  30.520   0.891
57118W        W26999  42.802  18.713  13.502
57119W        W27000  33.997  41.913  13.046
57120W        W27001  13.729  27.164   3.320
57121W        W27002  40.862  44.466  12.876
57122W        W27003  29.591  20.145  14.276
57123W        W27004  11.734  25.965   2.321
57124W        W27005  28.615  16.270   0.831
57125W        W27006  31.619  35.600  13.965
57126W        W27007  11.372   9.686  12.911
57127W        W27008  11.768  29.086  10.534
57128W        W27009   9.283  33.129   0.874
57129W        W27010  37.390  27.676   1.765
57130W        W27011   7.691  12.794   0.304
57131W        W27012  35.405  39.910  13.931
57132W        W27013  29.991  15.648  10.113
57133W        W27014   3.907   8.169   0.947
57134W        W27015   0.441  21.076  14.876
57135W        W27016  11.784   0.347   0.349
57136W        W27017   3.279  31.412  10.550
57137W        W27018  25.997  12.317  14.499
57138W        W27019  36.429  32.133   3.298
57139W        W27020  20.540  37.016   1.380
57140W        W27021  28.031  10.764  11.892
57141W        W27022  18.758  28.132  11.898
57142W        W27023   0.976  31.012  10.964
57143W        W27024  32.431   2.451   3.289
57144W        W27025  19.762   2.427   0.407
57145W        W27026  35.560  33.532  13.317
57146W        W27027  36.024  20.203  13.853
57147W        W27028  25.166  44.504  10.516
57148W        W27029  42.915  41.852   5.258
57149W        W27030  10.333  22.106   1.711
57150W        W27031  16.146  10.328   2.865
57151W        W27032  42.954  36.914  10.577
57152W        W27033  13.351  16.613   2.200
57153W        W27034  27.077  28.529  12.544
57154W        W27035  11.821  42.500  11.952
57155W        W27036   3.327  11.652  13.366
57156W        W27037  31.497  29.165  11.094
57157W        W27038  10.650   8.682   3.240
57158W        W27039   0.944   6.754   1.238
57159W        W27040  20.062  40.890  10.537
57160W        W27041   7.882  22.140   4.642
57161W        W27042   4.339   0.398  13.018
57162W        W27043   2.885  25.143  13.451
57163W        W27044  12.129  29.127   1.710
57164W        W27045   7.889  17.123  12.389
57165W        W27046  29.007  21.528   4.171
57166W        W27047  16.732  39.989   3.153
57167W        W27048   3.433  34.537   1.253
57168W        W27049  25.071  17.172  11.104
57169W        W27050  38.941  43.400   2.768
57170W        W27051  23.695  18.789   2.856
57171W        W27052  23.992  26.659  10.888
57172W        W27053   0.839  30.540   3.324
57173W        W27054  12.177  41.795   4.636
57174W        W27055  11.282  20.601   2.346
57175W        W27056  31.955  26.572   0.898
57176W        W27057  16.600  44.783   0.864
57177W        W27058  28.951  30.145   0.459
57178W        W27059  43.021  40.814   1.385
57179W        W27060  38.861  16.691  13.522
57180W        W27061  25.099  41.888  14.990
57181W        W27062  21.725  17.798   2.248
57182W        W27063  42.967  20.706  11.604
57183W        W27064  38.493  12.359  13.398
57184W        W27065  32.905  34.553   0.849
57185W        W27066  18.750   7.229  14.847
57186W        W27067  22.144   3.803   4.215
57187W        W27068  40.798  16.297   1.850
57188W        W27069  27.178  43.945   1.352
57189W        W27070   3.442  11.240   4.163
57190W        W27071  27.545   8.813  10.500
57191W        W27072  30.648  40.476   2.242
57192W        W27073  23.008   6.757  14.895
57193W        W27074  10.384  35.095   2.398
57194W        W27075  32.564  10.661   2.314
57195W        W27076  17.255  29.032  11.411
57196W        W27077   4.216   9.738  13.026
57197W        W27078   8.375  25.540  12.545
57198W        W27079  18.191  38.440  12.948
57199W        W27080  30.913   5.323   1.224
57200W        W27081  20.223  31.442   0.351
57201W        W27082  14.169  44.455   4.658
57202W        W27083  27.600  21.576  13.321
57203W        W27084  44.883  12.700  14.469
57204W        W27085  18.137  36.884   4.821
57205W        W27086  28.081   2.411   9.990
57206W        W27087  31.927  23.624   1.764
57207W        W27088   2.300  27.966  14.505
57208W        W27089  22.075  20.561   3.237
57209W        W27090   2.278  43.876  12.851
57210W        W27091  19.698  16.705  10.437
57211W        W27092  26.150  31.007   3.227
57212W        W27093   2.739  24.609  14.813
57213W        W27094  31.989   1.422   0.411
57214W        W27095  38.529  40.851   2.806
57215W        W27096   6.188  26.199  13.973
57216W        W27097  36.411  11.736   3.763
57217W        W27098  44.480  42.306   1.434
57218W        W27099  10.371  13.313   2.331
57219W        W27100   7.880  18.171  13.544
57220W        W27101  33.104  40.535   1.752
57221W        W27102  17.306  43.792  10.522
57222W        W27103  21.217  10.663   2.838
57223W        W27104  15.225  10.648   3.372
57224W        W27105  18.694  10.223  12.844
57225W        W27106  36.547   0.967   1.345
57226W        W27107  25.642   6.822  14.447
57227W        W27108   8.709  18.578   3.353
57228W        W27109  25.604   8.374   3.289
57229W        W27110  18.186  39.417  13.334
57230W        W27111  35.368  27.177  11.965
57231W        W27112  19.226  10.679   4.289
57232W        W27113  17.607  42.960  10.888
57233W        W27114   9.790  21.619  14.316
57234W        W27115  19.158  44.337   2.329
57235W        W27116  16.222  23.713  13.362
57236W        W27117  22.721  12.173  14.772
57237W        W27118  41.475  34.564   2.846
57238W        W27119  28.568  38.409   0.288
57239W        W27120   9.206   9.711   4.334
57240W        W27121  22.508  26.015  10.087
57241W        W27122   5.378  15.657   2.236
57242W        W27123  19.172  11.176  14.309
57243W        W27124  33.917  21.085   3.781
57244W        W27125  11.193  27.499   5.697
57245W        W27126  31.017  23.239  11.428
57246W        W27127   2.344  39.037  10.161
57247W        W27128  21.120  35.417   5.267
57248W        W27129  30.057  40.813  14.907
57249W        W27130  10.688  25.479   4.177
57250W        W27131  25.512  37.349   5.214
57251W        W27132  17.705  15.603   2.719
57252W        W27133  23.612  27.943  13.536
57253W        W27134  23.570  39.869  10.462
57254W        W27135   1.761  12.270   4.277
57255W        W27136  23.622  39.348  12.967
57256W        W27137   3.773   2.877  13.866
57257W        W27138   1.249  13.691   1.259
57258W        W27139   7.173  43.384  14.882
57259W        W27140  43.513  25.648   4.711
57260W        W27141  38.363  20.201  12.855
57261W        W27142   4.845  29.097   0.433
57262W        W27143  20.667  34.516   0.389
57263W        W27144  11.822   8.841  14.335
57264W        W27145   4.883   3.342  10.463
57265W        W27146   5.737  29.668   0.333
57266W        W27147  20.634  40.991  14.858
57267W        W27148  41.854  44.496  13.869
57268W        W27149  32.520  28.656  12.926
57269W        W27150  37.928  21.235  12.039
57270W        W27151  22.667   2.724  11.468
57271W        W27152  44.361  15.819  11.886
57272W        W27153  34.905  31.939   4.170
57273W        W27154  16.088  35.102  10.557
57274W        W27155  22.201  21.542  14.912
57275W        W27156   0.823  12.814   4.670
57276W        W27157  26.164  27.669   3.338
57277W        W27158   3.943   4.294  10.976
57278W        W27159  42.844  31.600   2.820
57279W        W27160  15.751  42.280  14.807
57280W        W27161  28.051  36.476  12.444
57281W        W27162  11.127  19.095   2.878
57282W        W27163  35.537  28.102  13.995
57283W        W27164  39.961  34.989  13.898
57284W        W27165  24.530   1.476  11.469
57285W        W27166  21.661  39.986   1.696
57286W        W27167  20.619  37.886  11.376
57287W        W27168  38.497  42.318   3.847
57288W        W27169   2.898   1.821   3.778
57289W        W27170  15.327   0.384  13.802
57290W        W27171  31.997  41.489   2.896
57291W        W27172   4.399  37.464  11.895
57292W        W27173  23.545   1.849  13.872
57293W        W27174   3.753  40.990   1.931
57294W        W27175  30.936   4.776  10.919
57295W        W27176  11.697  17.219   2.178
57296W        W27177  41.887  16.204   1.216
57297W        W27178   6.195  11.161   1.342
57298W        W27179   4.354   4.735  10.460
57299W        W27180  40.548  13.237  14.492
57300W        W27181   0.257  38.061   3.367
57301W        W27182   1.386  37.410  14.343
57302W        W27183   4.234   8.163  11.043
57303W        W27184  32.100   1.410  11.547
57304W        W27185   0.411  29.055   1.403
57305W        W27186  19.693  33.896  12.376
57306W        W27187   9.786  22.137  14.454
57307W        W27188  24.710  20.572   2.786
57308W        W27189  41.484  11.801   1.911
57309W        W27190  37.852   3.216  10.421
57310W        W27191  44.819  41.962   4.144
57311W        W27192  33.551  18.183  12.406
57312W        W27193  20.574  41.508  11.500
57313W        W27194  26.191  22.008   3.631
57314W        W27195  40.377  35.423   2.292
57315W        W27196  18.142  44.378   1.854
57316W        W27197  33.970  26.661   3.234
57317W        W27198   2.403   9.353   3.859
57318W        W27199   9.695   3.291   2.812
57319W        W27200  44.489   9.863   2.684
57320W        W27201   7.367  32.453  11.999
57321W        W27202  23.519   2.871   2.723
57322W        W27203  40.853  24.127  14.859
57323W        W27204   9.217  35.535  14.485
57324W        W27205  26.543  29.120   4.713
57325W        W27206  44.352   0.826  11.014
57326W        W27207  44.983  32.125  11.077
57327W        W27208   0.490  14.316  12.866
57328W        W27209  10.326  10.226   0.387
57329W        W27210  33.613  23.038   4.168
57330W        W27211  14.118   0.365   0.784
57331W        W27212  10.694   9.697   4.327
57332W        W27213  31.047  35.874  10.488
57333W        W27214  21.610  21.667   3.281
57334W        W27215  16.172  33.045   0.295
57335W        W27216   8.831  25.035   2.312
57336W        W27217  24.118   1.803  13.411
57337W        W27218  17.307  23.519  12.969
57338W        W27219  29.083  14.592   4.351
57339W        W27220  28.074   8.757   3.737
57340W        W27221   6.364  28.115   5.184
57341W        W27222  14.248  12.199   0.888
57342W        W27223  37.079  29.519  11.954
57343W        W27224  44.322   3.388  13.064
57344W        W27225  26.018  20.649   2.257
57345W        W27226  16.611  17.699   1.292
57346W        W27227  31.433  38.522   2.885
57347W        W27228  20.219  30.498  13.393
57348W        W27229   0.895  27.496   2.260
57349W        W27230  36.444   9.734  13.042
57350W        W27231  27.588   3.371  14.913
57351W        W27232  33.127  25.605   1.356
57352W        W27233  12.653  10.332   0.871
57353W        W27234  14.741   4.270  14.012
57354W        W27235  33.387  13.780  12.463
57355W        W27236  15.769  36.984   3.250
57356W        W27237  37.981   5.337   0.940
57357W        W27238  26.027  24.556   4.778
57358W        W27239   3.804  30.065   4.120
57359W        W27240  24.974  25.089   9.931
57360W        W27241  29.043  42.460  11.081
57361W        W27242   2.784  22.703  12.913
57362W        W27243  27.042  15.641  10.089
57363W        W27244  29.106  38.062  13.895
57364W        W27245  15.675  39.348  10.614
57365W        W27246  21.604  17.235  10.610
57366W        W27247  21.104  12.772   0.739
57367W        W27248  19.550  35.593  10.476
57368W        W27249  19.560   4.719  13.480
57369W        W27250  17.586   0.281   2.362
57370W        W27251   9.648  29.455  13.997
57371W        W27252   5.897  41.328  12.999
57372W        W27253  24.529  28.929   4.797
57373W        W27254   3.280  21.577  10.590
57374W        W27255  41.976   9.154   3.788
57375W        W27256  18.632  22.214  11.874
57376W        W27257  30.057   6.263   3.176
57377W        W27258  43.853  10.383   2.399
57378W        W27259  14.701  43.510   3.214
57379W        W27260  16.642  20.224  13.405
57380W        W27261  23.703   3.814  11.509
57381W        W27262   5.310  42.926   1.436
57382W        W27263  11.623   0.865  11.116
57383W        W27264  42.495  21.221   1.390
57384W        W27265  26.965  17.621   3.275
57385W        W27266  33.121  21.550  14.989
57386W        W27267  31.515  10.174  13.879
57387W        W27268   0.933  29.574   4.252
57388W        W27269  31.039  26.660   5.204
57389W        W27270  21.597  25.655  14.917
57390W        W27271   0.927  31.608   2.873
57391W        W27272  14.659  17.690   4.310
57392W        W27273   9.355   1.904   3.174
57393W        W27274  41.930  10.383  14.965
57394W        W27275   8.805   0.467   3.206
57395W        W27276  31.130  42.862  14.965
57396W        W27277  25.066  11.692  13.391
57397W        W27278  19.235  16.236   3.175
57398W        W27279  32.055  21.635  11.890
57399W        W27280  41.306  44.450   2.235
57400W        W27281  17.209  15.096  13.405
57401W        W27282   1.328   4.308  11.897
57402W        W27283  12.813  13.611  11.990
57403W        W27284  20.177  31.043   9.989
57404W        W27285  41.891  18.768   1.863
57405W        W27286  42.898  30.923   0.803
57406W        W27287  11.725  20.159  14.998
57407W        W27288  34.107  17.630   3.259
57408W        W27289   9.383   1.318   3.225
57409W        W27290  25.618   2.347  10.594
57410W        W27291  35.045  10.782  10.410
57411W        W27292   4.415   4.246   1.420
57412W        W27293  11.223  20.111  11.556
57413W        W27294  36.499  35.909   2.393
57414W        W27295  19.654  43.305  11.566
57415W        W27296  23.209  25.985  12.938
57416W        W27297   9.748  41.509  13.850
57417W        W27298  44.885  14.160   4.334
57418W        W27299  16.723  19.663  13.797
57419W        W27300   3.805  33.431  12.384
57420W        W27301  14.293  29.536   0.410
57421W        W27302   1.809  28.081   2.662
57422W        W27303  11.331  44.816   2.337
57423W        W27304  36.881  13.245   4.274
57424W        W27305  28.184  42.518   1.883
57425W        W27306   0.937  24.591   2.864
57426W        W27307  31.449   7.721  12.993
57427W        W27308  19.738  18.290  14.324
57428W        W27309  39.979  16.661  11.990
57429W        W27310  12.321  29.003  11.399
57430W        W27311  31.098  17.574  12.417
57431W        W27312  20.701  12.256   3.328
57432W        W27313   4.315   1.332   1.274
57433W        W27314  16.295  42.998   5.322
57434W        W27315  14.106  26.105  11.036
57435W        W27316  12.755  40.957  10.537
57436W        W27317  12.352  44.498  14.777
57437W        W27318  13.339  36.558  11.993
57438W        W27319  31.521  33.061  12.839
57439W        W27320  15.200  18.701  11.450
57440W        W27321  14.325  12.281   0.344
57441W        W27322  25.477  13.334  12.440
57442W        W27323  31.110  33.016  12.385
57443W        W27324  38.469  23.559   2.361
57444W        W27325  18.716  23.054  11.103
57445W        W27326   7.702   8.208   4.271
57446W        W27327   5.237  17.237   0.433
57447W        W27328  30.539  31.928  12.372
57448W        W27329  38.829  37.497  10.160
57449W        W27330  29.042  20.089  11.931
57450W        W27331  22.048  27.658  14.392
57451W        W27332   7.350  34.025  13.354
57452W        W27333  37.467   0.794   4.314
57453W        W27334  32.889   5.742  11.948
57454W        W27335  14.269  44.949   1.415
57455W        W27336  19.222   6.764  10.489
57456W        W27337  37.991  33.892  13.029
57457W        W27338  18.713  24.122   4.739
57458W        W27339  25.649   4.413  11.514
57459W        W27340  26.105  27.167   2.712
57460W        W27341   2.787  21.210   4.247
57461W        W27342  22.241  12.258   1.306
57462W        W27343  18.293  26.506  12.447
57463W        W27344  30.987  39.966  10.501
57464W        W27345  33.451  27.667  13.810
57465W        W27346  28.168  12.625   0.774
57466W        W27347   0.320  44.480   2.319
57467W        W27348  44.995  42.870  13.363
57468W        W27349  16.801  28.441   1.695
57469W        W27350   9.758   3.891  13.898
57470W        W27351  26.626  23.170  13.022
57471W        W27352  22.082  16.804  11.489
57472W        W27353   6.266   3.250   1.901
57473W        W27354  19.653  28.628  12.925
57474W        W27355   0.816   0.782  12.868
57475W        W27356  33.921  44.455   1.332
57476W        W27357  42.811  34.489   4.758
57477W        W27358  24.573  32.404   0.750
57478W        W27359   0.753   7.172  12.973
57479W        W27360   7.371  36.868  11.567
57480W        W27361  40.373   5.878   4.709
57481W        W27362  40.055   3.350  14.790
57482W        W27363  15.218  37.420  11.011
57483W        W27364  16.791  27.952   1.852
57484W        W27365  34.489  42.005  14.817
57485W        W27366  21.540  13.185  13.457
57486W        W27367  39.540  20.047   0.439
57487W        W27368  39.832  26.128   2.834
57488W        W27369  33.573  14.260   3.840
57489W        W27370  30.056  28.640  10.527
57490W        W27371  33.975  17.596  14.912
57491W        W27372  27.605   6.696   2.787
57492W        W27373  29.963   4.295  10.981
57493W        W27374  23.110  22.232   3.320
57494W        W27375  30.470  34.928  11.090
57495W        W27376   5.704  16.274   1.701
57496W        W27377  42.470  44.409  12.370
57497W        W27378  23.494   8.744   4.244
57498W        W27379  28.450  29.926  11.491
57499W        W27380  34.918  12.187   2.665
57500W        W27381  34.609  22.540   2.678
57501W        W27382   2.260   2.470   1.825
57502W        W27383  24.644   9.164  12.867
57503W        W27384  41.464  41.011  12.350
57504W        W27385   1.325  21.095   0.272
57505W        W27386  37.507  43.440  12.363
57506W        W27387  23.614  35.490  14.431
57507W        W27388   8.674  33.117  12.533
57508W        W27389  25.681  40.037  12.438
57509W        W27390  40.841  32.463   3.329
57510W        W27391  40.435  10.162   3.827
57511W        W27392  31.576   4.828  13.356
57512W        W27393  35.958  34.577  14.401
57513W        W27394  12.280  37.449  14.411
57514W        W27395  35.065  29.529  10.969
57515W        W27396   2.834  35.101   0.791
57516W        W27397  35.485  22.718   3.698
57517W        W27398  33.382  21.743  10.958
57518W        W27399  17.640  30.633  11.057
57519W        W27400  34.941  17.260  11.931
57520W        W27401  39.011  25.189   2.787
57521W        W27402  19.579  37.998   1.389
57522W        W27403   5.412  20.709   4.228
57523W        W27404  25.519  21.600  13.035
57524W        W27405   7.868  40.314  12.094
57525W        W27406  10.696  20.150  11.055
57526W        W27407  16.781  23.577   3.322
57527W        W27408  22.161  42.466   3.286
57528W        W27409   9.265  34.455   3.315
57529W        W27410  31.911  34.490  14.760
57530W        W27411  30.941  14.809   2.197
57531W        W27412  19.147  14.700  11.126
57532W        W27413  33.098   3.281  14.839
57533W        W27414  36.076  41.005   1.713
57534W        W27415   2.333  14.161   4.730
57535W        W27416  12.739  19.219   4.661
57536W        W27417  33.883  17.578  10.993
57537W        W27418  36.501   1.264   0.320
57538W        W27419  10.669  15.681   2.672
57539W        W27420  24.033  33.417   2.775
57540W        W27421  30.075  17.248   4.275
57541W        W27422  41.428  27.665   4.827
57542W        W27423  25.553  35.552  12.940
57543W        W27424  19.221   7.380   4.289
57544W        W27425  13.269  34.984   2.389
57545W        W27426  43.396  36.089   5.221
57546W        W27427  10.194  25.974  13.422
57547W        W27428   8.846   5.401   2.680
57548W        W27429  37.444  36.876   4.127
57549W        W27430   7.805   2.853   3.683
57550W        W27431  38.402   2.417  14.362
57551W        W27432  14.277  25.584  11.548
57552W        W27433   2.815   4.823  12.934
57553W        W27434   4.839  29.453   1.906
57554W        W27435  44.484  40.441  14.961
57555W        W27436  35.382  24.195  14.501
57556W        W27437  12.792  11.744   2.855
57557W        W27438  31.412  24.673   4.303
57558W        W27439  31.422  15.233  10.589
57559W        W27440  17.302  28.496   4.790
57560W        W27441  17.675  44.838   3.322
57561W        W27442  39.015  13.721   4.830
57562W        W27443  29.923  10.219  13.027
57563W        W27444  10.164  19.592   2.793
57564W        W27445  22.179  23.236  12.018
57565W        W27446  32.093  34.582   3.633
57566W        W27447  22.606  15.795  10.975
57567W        W27448  29.592  17.573  13.891
57568W        W27449  27.482  19.754  12.890
57569W        W27450   4.303   8.324   4.606
57570W        W27451  11.807   4.921   1.706
57571W        W27452  18.700  23.512   2.721
57572W        W27453  24.691  40.938   0.357
57573W        W27454  18.225  18.686   2.387
57574W        W27455  30.556  39.913   0.347
57575W        W27456  36.919   2.235   0.423
57576W        W27457  16.575  14.828  13.353
57577W        W27458   0.924   3.257   2.302
57578W        W27459  32.635   7.320  11.392
57579W        W27460  17.793  21.666  13.873
57580W        W27461  37.834  12.348  13.463
57581W        W27462  29.133  11.332   2.281
57582W        W27463   1.311   8.839  12.031
57583W        W27464  44.478  18.265  11.463
57584W        W27465  32.947   6.263   0.444
57585W        W27466  36.567  38.510  12.520
57586W        W27467  21.112  38.497   3.263
57587W        W27468  28.511  30.491  12.855
57588W        W27469   3.393  43.893  13.503
57589W        W27470  29.515   9.713  11.445
57590W        W27471  13.741  27.190  12.558
57591W        W27472  14.694   6.326   9.940
57592W        W27473  23.128   5.336   1.334
57593W        W27474   2.368  16.075  14.509
57594W        W27475   3.428  44.905   1.298
57595W        W27476  31.067  35.484  14.385
57596W        W27477  41.859  33.883   0.923
57597W        W27478  19.582  35.587   0.963
57598W        W27479  15.753  15.815   3.262
57599W        W27480   9.272  44.978  13.480
57600W        W27481  18.722  44.771  13.945
57601W        W27482  14.162  35.486   0.457
57602W        W27483  13.698  16.775   0.253
57603W        W27484  30.488   9.689  14.845
57604W        W27485   2.846  39.430  14.914
57605W        W27486  42.435  31.093   2.741
57606W        W27487   2.919  37.007  11.424
57607W        W27488  10.650  15.306  13.915
57608W        W27489  38.491  17.740   0.846
57609W        W27490   6.333  37.959  12.034
57610W        W27491  42.395  40.015   0.866
57611W        W27492  16.211  14.139  12.503
57612W        W27493  25.988  10.878   4.823
57613W        W27494  42.509  22.234   4.159
57614W        W27495   9.323  30.563   1.335
57615W        W27496  44.434   8.298  13.313
57616W        W27497  41.364  38.479  10.949
57617W        W27498   7.177  20.208   0.302
57618W        W27499  23.624  36.958  13.356
57619W        W27500  20.595  43.387   1.447
57620W        W27501   9.730  39.926   2.335
57621W        W27502  36.880  16.207  14.353
57622W        W27503   1.800  22.521   4.142
57623W        W27504   3.778  24.098   1.377
57624W        W27505   7.173  12.141  11.927
57625W        W27506  40.845  30.909   3.867
57626W        W27507  20.163  39.971  14.931
57627W        W27508  38.824  33.556   2.776
57628W        W27509   8.341  22.530   1.737
57629W        W27510  23.513  40.367  11.882
57630W        W27511  41.532  41.993   0.348
57631W        W27512  12.715  42.400   3.774
57632W        W27513   0.781  36.079   0.449
57633W        W27514  16.137  12.342   3.713
57634W        W27515  30.064  37.995   4.606
57635W        W27516  38.895  37.443   1.878
57636W        W27517  25.618  40.813   1.243
57637W        W27518  43.494  35.888   4.811
57638W        W27519   2.287  17.262   4.666
57639W        W27520  34.041  26.178  10.496
57640W        W27521  39.535  35.037  14.981
57641W        W27522  28.595  44.295  13.492
57642W        W27523  42.439   5.794   3.700
57643W        W27524   8.751  15.787  10.609
57644W        W27525  39.056  38.324  12.067
57645W        W27526   7.351  30.049   1.256
57646W        W27527  21.163  38.881   2.392
57647W        W27528  40.319  43.022   5.260
57648W        W27529   8.755  17.284   4.193
57649W        W27530   9.304  36.029   4.279
57650W        W27531  39.328  24.194  14.789
57651W        W27532   8.204  30.162   3.725
57652W        W27533   5.335  36.974  11.959
57653W        W27534  44.483  30.122  11.584
57654W        W27535  14.121  33.520  10.639
57655W        W27536  38.009  36.896   3.691
57656W        W27537  14.639  34.451   0.257
57657W        W27538  10.814   1.395  14.290
57658W        W27539  18.570  26.551   3.854
57659W        W27540  40.994   1.279  11.874
57660W        W27541  25.619  41.912  11.012
57661W        W27542  17.158  10.282  14.810
57662W        W27543  16.218  19.098   2.861
57663W        W27544  10.374   6.189   4.812
57664W        W27545  32.063  40.334   3.192
57665W        W27546  29.093  27.490  14.792
57666W        W27547  27.077  11.195   4.767
57667W        W27548  33.961  31.523   1.260
57668W        W27549   9.822   1.395   1.862
57669W        W27550  33.523  32.997  14.385
57670W        W27551  44.425  11.183  10.465
57671W        W27552  21.069  11.286   2.866
57672W        W27553  16.800  36.541  12.854
57673W        W27554  31.989  15.707  12.861
57674W        W27555  17.653  42.965  14.011
57675W        W27556   8.664  19.275   3.287
57676W        W27557  23.508   3.906  12.446
57677W        W27558  14.632  10.263  11.079
57678W        W27559   2.834   4.757   2.886
57679W        W27560   8.806   4.793   1.897
57680W        W27561   4.310  38.834  13.062
57681W        W27562   6.397  44.826   4.621
57682W        W27563  26.128  38.044  11.460
57683W        W27564  38.835  40.365  12.514
57684W        W27565  39.923  24.008  14.483
57685W        W27566  14.201   6.253  10.952
57686W        W27567   5.373  43.860   0.749
57687W        W27568  32.416  21.180   4.171
57688W        W27569  23.229   6.724  13.857
57689W        W27570  26.061   4.420  14.467
57690W        W27571  15.274  33.536  12.876
57691W        W27572  24.660  26.524  14.371
57692W        W27573  15.137  29.082  12.347
57693W        W27574  36.392  24.579  14.763
57694W        W27575  12.126  17.296  12.555
57695W        W27576  20.709   1.327  14.791
57696W        W27577  13.291  44.002  14.940
57697W        W27578  21.731  28.972   1.322
57698W        W27579  19.688   1.248   3.635
57699W        W27580  10.183   4.877   1.875
57700W        W27581  41.294  13.715   4.209
57701W        W27582  16.296  18.216   2.852
57702W        W27583  28.186  36.442  14.993
57703W        W27584  42.870  25.967  13.510
57704W        W27585  17.165  38.490   2.718
57705W        W27586  34.566  28.595   3.251
57706W        W27587  25.494  15.710  13.404
57707W        W27588  30.082   8.803   5.198
57708W        W27589  16.782  38.496  12.400
57709W        W27590  41.928  22.119   1.714
57710W        W27591  39.393  37.576  11.907
57711W        W27592   7.357   2.745   0.819
57712W        W27593   0.897  21.110   1.256
57713W        W27594  26.029  30.489   1.896
57714W        W27595  33.935   5.436  10.615
57715W        W27596  44.954  24.028  11.883
57716W        W27597  28.127   4.742  11.448
57717W        W27598  16.587  33.982  13.855
57718W        W27599   3.758  29.595  12.926
57719W        W27600   2.855   4.866   1.262
57720W        W27601  16.289   1.394   2.320
57721W        W27602  43.404  19.104  14.287
57722W        W27603   8.829  14.690   3.233
57723W        W27604  31.933  30.548   4.665
57724W        W27605  43.331  12.229   3.633
57725W        W27606  17.591   2.902  14.807
57726W        W27607  41.402  39.376  13.888
57727W        W27608  42.000  30.963   0.830
57728W        W27609  29.954  35.407   1.437
57729W        W27610   2.303  24.168  11.491
57730W        W27611  39.858   0.428   2.250
57731W        W27612  25.067  38.823  12.837
57732W        W27613  37.492  20.681  13.053
57733W        W27614  40.523  13.303   4.653
57734W        W27615  34.061  12.308   4.709
57735W        W27616  18.683  39.858   2.697
57736W        W27617  35.489  33.951   2.287
57737W        W27618   8.709  15.754   1.288
57738W        W27619  42.904  44.882  13.430
57739W        W27620  43.376  10.795  10.470
57740W        W27621   2.875   5.319  12.976
57741W        W27622   9.148  25.153   2.397
57742W        W27623   1.462   9.370   2.232
57743W        W27624  25.120  22.248   4.719
57744W        W27625   8.874  24.542  10.986
57745W        W27626  18.097  12.705  13.392
57746W        W27627   0.308  41.836  11.463
57747W        W27628  39.910   2.285  11.917
57748W        W27629  17.092  12.703  14.867
57749W        W27630  36.099   7.310   0.838
57750W        W27631  33.569  31.497  11.056
57751W        W27632  24.986  36.056  11.509
57752W        W27633  40.941   9.776   1.877
57753W        W27634  23.552  27.599   1.324
57754W        W27635   7.866  35.433   3.835
57755W        W27636  38.865  25.145  14.448
57756W        W27637  24.594  18.732   3.377
57757W        W27638  32.534  36.875  11.452
57758W        W27639   9.681  21.105   0.434
57759W        W27640  12.729  15.117  13.858
57760W        W27641  38.463   9.661   0.434
57761W        W27642   3.269   0.466  11.434
57762W        W27643   4.396  21.641  12.525
57763W        W27644  29.135   8.708  10.108
57764W        W27645  33.038  35.374  13.798
57765W        W27646  28.487  37.485  10.587
57766W        W27647  41.535  25.470  14.817
57767W        W27648  26.672  17.266  12.397
57768W        W27649  16.182  13.615   3.757
57769W        W27650  37.415  30.147  14.799
57770W        W27651  27.175  33.951  14.949
57771W        W27652   4.751  11.328  14.796
57772W        W27653  17.063  19.659   4.678
57773W        W27654  13.264   9.274   1.368
57774W        W27655  35.902   3.862  14.413
57775W        W27656  38.502   0.779   5.656
57776W        W27657  23.660  19.039  13.498
57777W        W27658  13.661  31.540  12.965
57778W        W27659  32.397  44.469   0.934
57779W        W27660  14.702  32.401  12.560
57780W        W27661  34.057  23.236   2.782
57781W        W27662  13.280  16.236   3.658
57782W        W27663  22.717   2.897  12.460
57783W        W27664   4.315  13.207  13.474
57784W        W27665  17.116   2.784   4.599
57785W        W27666  41.931   3.263   0.805
57786W        W27667  24.208  12.126  14.404
57787W        W27668  24.587  17.703   4.825
57788W        W27669  33.381  43.348  12.906
57789W        W27670  21.099  19.779   2.356
57790W        W27671  14.305  26.166  13.999
57791W        W27672  19.640  24.123  14.429
57792W        W27673  31.970  30.507  11.610
57793W        W27674  20.651   6.689  10.526
57794W        W27675  22.096   2.263  14.934
57795W        W27676  14.642  33.886   3.274
57796W        W27677  41.520   4.864   0.425
57797W        W27678  37.881  32.919   0.342
57798W        W27679  44.422  42.328   2.368
57799W        W27680  20.065  38.879  13.314
57800W        W27681  34.973  42.333   3.632
57801W        W27682   5.750   0.473  10.409
57802W        W27683  15.801  10.711   2.220
57803W        W27684  27.643  10.866  10.598
57804W        W27685  40.839  39.002   4.166
57805W        W27686  19.117  32.421  11.022
57806W        W27687  35.428   9.669   2.814
57807W        W27688  36.435  18.135   1.361
57808W        W27689  34.445  40.834   3.192
57809W        W27690   1.397  18.763  14.884
57810W        W27691  24.186  39.998  10.466
57811W        W27692  11.809   8.685  10.625
57812W        W27693  28.451   5.812   0.937
57813W        W27694  14.292  38.883   4.137
57814W        W27695  36.494  42.509   0.951
57815W        W27696  30.019  27.512   1.905
57816W        W27697   2.246  17.681   3.236
57817W        W27698  26.581  26.549  12.855
57818W        W27699  16.671  19.242   1.309
57819W        W27700  33.616  44.810  10.950
57820W        W27701  36.084  36.513  10.642
57821W        W27702  33.401  17.097  13.350
57822W        W27703  40.881  39.019   3.224
57823W        W27704  43.382  10.862   3.266
57824W        W27705  13.170  38.445  10.928
57825W        W27706   9.346  42.466   1.226
57826W        W27707   7.400  39.463  12.062
57827W        W27708  12.792  25.688  11.950
57828W        W27709  41.407  29.634  14.348
57829W        W27710  39.872   9.815   4.266
57830W        W27711  34.536  11.740   2.733
57831W        W27712  21.062  31.588   4.633
57832W        W27713  10.681  20.077  10.627
57833W        W27714  32.986   7.308   2.834
57834W        W27715  42.832  36.985   3.306
57835W        W27716  18.176  16.177  11.446
57836W        W27717  31.633  16.721  12.051
57837W        W27718  40.950  26.645   3.206
57838W        W27719  18.148   9.786  10.946
57839W        W27720   0.289  11.354   2.321
57840W        W27721  14.248   1.249   2.671
57841W        W27722  26.990   5.402   3.750
57842W        W27723  32.130  15.667   4.674
57843W        W27724  15.283  24.531   2.258
57844W        W27725  24.501   7.181   3.677
57845W        W27726  34.389  24.507  14.981
57846W        W27727  13.197  25.006   2.385
57847W        W27728  20.237  30.419   1.903
57848W        W27729   3.377  12.626   3.153
57849W        W27730  39.057  32.578  14.391
57850W        W27731  43.802  31.125  11.579
57851W        W27732  16.229  44.941   2.819
57852W        W27733   4.731  31.995  10.567
57853W        W27734  43.891  28.061   0.438
57854W        W27735  22.610  36.464   4.236
57855W        W27736  24.724  36.928  12.028
57856W        W27737  39.997  27.467  10.563
57857W        W27738  34.419  43.867  12.091
57858W        W27739   3.310  13.712  12.430
57859W        W27740  12.793  41.891  13.393
57860W        W27741   9.758  31.536   0.255
57861W        W27742  12.277  37.938  10.438
57862W        W27743   0.760  14.240  14.905
57863W        W27744  34.881  14.819   4.692
57864W        W27745  44.845  16.176   0.927
57865W        W27746  29.072  18.694  14.856
57866W        W27747  16.708  19.711   3.378
57867W        W27748  33.993   5.408  11.097
57868W        W27749  35.902  20.616   4.225
57869W        W27750  11.138  29.942  11.460
57870W        W27751  33.080  21.748   0.335
57871W        W27752  39.376  39.427  11.454
57872W        W27753   4.370  15.322  14.397
57873W        W27754  26.539  25.618   0.426
57874W        W27755   9.749  40.840   3.870
57875W        W27756  40.041  36.415  12.353
57876W        W27757   4.231  31.931   1.716
57877W        W27758  31.580  27.514  14.398
57878W        W27759   7.350  40.483  11.613
57879W        W27760   5.882   3.799  11.016
57880W        W27761  31.484  17.619   0.799
57881W        W27762  30.075  16.245   1.253
57882W        W27763  32.063  37.966  10.574
57883W        W27764   7.744  31.073   3.651
57884W        W27765  23.713  24.592  12.903
57885W        W27766   8.329  38.366  10.996
57886W        W27767  13.167  24.521  11.032
57887W        W27768  14.138  18.758   3.707
57888W        W27769  35.058  20.625  12.464
57889W        W27770  15.784  23.627  14.474
57890W        W27771  14.639  13.105   4.723
57891W        W27772  44.895   7.814  14.397
57892W        W27773  16.084  30.429  14.006
57893W        W27774  42.514  13.240   2.841
57894W        W27775  15.202  12.767   3.694
57895W        W27776  34.867  13.616   3.173
57896W        W27777  31.030  17.790   3.708
57897W        W27778  20.761   0.449  11.870
57898W        W27779  30.597  40.992  12.544
57899W        W27780  38.031  31.606  12.355
57900W        W27781  32.597   8.741   2.710
57901W        W27782  13.602  21.121  14.470
57902W        W27783   4.357   3.917  14.509
57903W        W27784  12.688  34.023   0.950
57904W        W27785  42.000  30.131   3.834
57905W        W27786  35.587  31.930  13.988
57906W        W27787   8.202  27.507   3.868
57907W        W27788  22.600   3.928   0.280
57908W        W27789  10.299   1.942  13.546
57909W        W27790  24.205   3.771   4.200
57910W        W27791  36.370  10.309   2.676
57911W        W27792  12.819  26.533  13.380
57912W        W27793  10.160  20.570   2.222
57913W        W27794   9.394   7.837   0.954
57914W        W27795  32.607  38.854  11.512
57915W        W27796  17.071  12.772  10.116
57916W        W27797  32.914  34.921  11.121
57917W        W27798  43.872   2.769   2.872
57918W        W27799   5.832  34.017   4.729
57919W        W27800  32.410   4.251  12.542
57920W        W27801  39.825  29.475  11.876
57921W        W27802   9.196  36.376  14.776
57922W        W27803  12.853  27.543  11.992
57923W        W27804  20.214  16.099  14.485
57924W        W27805  15.126   5.356   1.309
57925W        W27806  43.416  42.343   1.931
57926W        W27807  28.112   4.449   1.811
57927W        W27808  29.575  29.596   0.459
57928W        W27809  36.869   9.305   4.176
57929W        W27810  17.615  25.612   4.244
57930W        W27811  17.773  27.628   4.205
57931W        W27812  15.270  21.187  10.627
57932W        W27813   8.766  20.661   1.317
57933W        W27814  23.549  26.034  13.919
57934W        W27815   1.362  34.089   4.837
57935W        W27816  34.897   3.441  13.058
57936W        W27817  33.509  27.039   4.746
57937W        W27818  14.745  22.170  12.872
57938W        W27819  16.277  24.015   0.765
57939W        W27820  25.671  34.434   2.290
57940W        W27821  26.056  16.744   1.706
57941W        W27822  40.987  37.009   2.672
57942W        W27823  33.515  42.916  11.384
57943W        W27824  21.195  22.110   4.136
57944W        W27825  34.387  18.610   0.342
57945W        W27826   7.665  11.726   4.826
57946W        W27827   6.810   9.712   0.321
57947W        W27828   3.750  30.574   0.285
57948W        W27829  22.596  41.926  11.440
57949W        W27830  18.276  36.045   2.266
57950W        W27831  29.100  15.107  11.074
57951W        W27832  17.786  16.190  11.991
57952W        W27833  28.595  38.529  14.858
57953W        W27834  27.193  36.445   2.239
57954W        W27835  42.995  38.940   0.332
57955W        W27836  42.478  31.647  11.918
57956W        W27837  13.180  20.261   4.637
57957W        W27838  16.749  20.541  10.460
57958W        W27839   4.391  34.584  13.050
57959W        W27840  38.020  24.644  12.394
57960W        W27841  42.902  44.986  11.987
57961W        W27842  41.830  38.956   0.322
57962W        W27843   7.224   0.750   2.236
57963W        W27844  31.458  20.217   3.750
57964W        W27845  25.679  36.070   5.108
57965W        W27846  24.010   4.877   0.323
57966W        W27847  14.711  43.370   4.607
57967W        W27848   9.847   8.229   0.803
57968W        W27849  14.244  39.409   0.460
57969W        W27850  18.118   6.418   4.196
57970W        W27851  42.933  30.502   0.804
57971W        W27852  38.044   3.857  14.356
57972W        W27853   3.907   5.256   2.246
57973W        W27854  40.895  29.490  14.915
57974W        W27855   0.984   8.292  12.993
57975W        W27856   9.796  18.273   0.437
57976W        W27857  11.315   5.321  11.025
57977W        W27858  21.712  14.596  11.438
57978W        W27859   3.790  20.151   2.192
57979W        W27860  22.563  24.070   1.284
57980W        W27861  20.191  23.591  13.543
57981W        W27862  42.490  41.391  12.001
57982W        W27863  43.352  10.145  13.466
57983W        W27864  20.763  39.818   2.222
57984W        W27865  41.322  38.331  12.982
57985W        W27866  10.654  22.038  10.463
57986W        W27867  13.602  13.271   0.780
57987W        W27868  43.862  38.439   2.828
57988W        W27869  39.012  14.116   0.375
57989W        W27870   0.374  24.171  14.818
57990W        W27871  31.095  42.898   1.313
57991W        W27872  29.940   5.799  13.480
57992W        W27873  22.115  17.304   2.202
57993W        W27874  31.112  18.292   5.663
57994W        W27875  12.239  32.491   3.293
57995W        W27876  15.098  33.934   1.304
57996W        W27877  25.587   6.732  12.471
57997W        W27878  32.956  37.552  11.938
57998W        W27879  44.488  11.711  10.463
57999W        W27880  18.165  34.395   2.881
58000W        W27881  30.104  37.942  12.952
58001W        W27882  43.382  31.093   4.263
58002W        W27883  36.997  28.509   4.723
58003W        W27884  25.506   9.883  11.467
58004W        W27885  33.542   2.744   2.181
58005W        W27886  42.349  17.672  10.894
58006W        W27887  34.106   3.337   0.831
58007W        W27888  22.723  16.100  12.549
58008W        W27889   0.832  21.666  11.603
58009W        W27890  20.549   9.264  13.960
58010W        W27891   2.355   0.442  10.997
58011W        W27892  17.725  40.992  14.403
58012W        W27893   7.860  15.690  13.971
58013W        W27894  18.227   3.834  14.788
58014W        W27895  13.262  18.556  10.418
58015W        W27896  29.511  29.036   1.326
58016W        W27897  31.427  12.210   1.915
58017W        W27898   4.855  32.487   4.733
58018W        W27899  15.222  33.877   3.720
58019W        W27900   4.376   2.836  13.411
58020W        W27901  35.904  31.595   4.681
58021W        W27902  31.090  15.795  13.458
58022W        W27903  32.063   3.324   1.927
58023W        W27904   0.483   2.761  14.325
58024W        W27905  25.644  22.013   3.713
58025W        W27906  15.761  27.456   3.683
58026W        W27907  12.358  30.138   3.238
58027W        W27908  19.628   6.704  11.983
58028W        W27909  13.756  22.624   0.403
58029W        W27910  44.493  44.967  10.968
58030W        W27911   7.274  31.096  14.816
58031W        W27912  23.119  21.735   2.826
58032W        W27913  38.382  30.099   1.420
58033W        W27914   5.366  37.449  10.592
58034W        W27915  25.524  18.672  13.503
58035W        W27916  40.493  26.989  14.946
58036W        W27917  14.335  38.021  14.451
58037W        W27918  33.624  32.893  11.574
58038W        W27919  24.481   1.409   1.773
58039W        W27920   2.386  32.049   2.373
58040W        W27921  12.148   4.916   2.240
58041W        W27922  37.990  14.746  10.601
58042W        W27923  39.483  44.807   1.263
58043W        W27924  44.917  26.542  13.361
58044W        W27925   6.769  13.237  11.927
58045W        W27926  43.015  33.448   1.325
58046W        W27927  41.826  40.499  11.997
58047W        W27928   5.223  39.000  14.502
58048W        W27929  30.648  21.071   9.981
58049W        W27930  35.108   0.843  13.820
58050W        W27931  29.443  44.469   3.680
58051W        W27932   8.375  19.099  10.438
58052W        W27933   4.716  19.583  11.486
58053W        W27934  11.269  21.062  11.906
58054W        W27935  12.312   0.902  13.410
58055W        W27936  11.165   2.729   1.407
58056W        W27937   4.254  25.695   3.746
58057W        W27938  19.773  13.187  12.854
58058W        W27939  42.350  21.519  14.858
58059W        W27940  41.338  38.348   2.408
58060W        W27941   9.223  24.004  11.520
58061W        W27942  40.313   6.809  11.414
58062W        W27943  29.558   6.226   1.798
58063W        W27944  37.387  32.524  14.835
58064W        W27945  29.176  10.256  11.458
58065W        W27946  29.573  38.863  11.998
58066W        W27947  16.316  44.353  10.956
58067W        W27948  17.570  21.147  13.430
58068W        W27949  38.973  39.829  13.318
58069W        W27950   3.432  36.885   2.875
58070W        W27951   2.239   8.750   0.928
58071W        W27952  30.031  42.298  11.947
58072W        W27953  23.732  13.689   1.300
58073W        W27954  35.433   8.231  13.866
58074W        W27955   6.216  15.752  13.401
58075W        W27956  37.362  23.121   4.742
58076W        W27957  25.713  43.296   0.791
58077W        W27958  36.862  40.432  11.949
58078W        W27959  44.932  40.891  11.437
58079W        W27960  31.533   1.280   3.221
58080W        W27961  14.263  39.988  11.926
58081W        W27962  43.774  33.539  12.473
58082W        W27963   1.348  43.426   3.654
58083W        W27964  16.285  20.168  10.927
58084W        W27965   1.858   0.947   1.699
58085W        W27966  14.212  26.466   4.748
58086W        W27967  12.633  31.630  10.955
58087W        W27968  28.143   1.472   3.178
58088W        W27969  27.577  42.934   4.784
58089W        W27970   3.434  35.868   2.743
58090W        W27971  11.357  43.392   3.281
58091W        W27972  21.599   5.380   4.720
58092W        W27973  36.463   6.865   3.375
58093W        W27974   3.861  22.123  11.446
58094W        W27975  19.730  11.218  11.400
58095W        W27976  11.368  27.111   1.334
58096W        W27977  33.581  16.191   4.771
58097W        W27978  30.445   5.266  11.468
58098W        W27979  27.096  34.009  11.591
58099W        W27980  14.182   6.355   1.869
58100W        W27981   9.775  35.446   3.865
58101W        W27982   7.873  27.551  14.407
58102W        W27983  23.222  43.949  10.524
58103W        W27984  20.119   0.760   2.227
58104W        W27985  21.682  21.132  14.902
58105W        W27986   8.657  15.132  13.405
58106W        W27987  35.868  21.195   5.178
58107W        W27988  14.664  24.667   0.425
58108W        W27989  25.510  29.638  10.916
58109W        W27990  12.205  23.532   4.138
58110W        W27991  28.629  35.882  10.912
58111W        W27992  39.928  40.991  10.582
58112W        W27993  36.353   1.840  11.462
58113W        W27994   9.366  25.657   2.728
58114W        W27995   2.438  21.649  13.851
58115W        W27996   5.752  43.348   2.835
58116W        W27997   5.295  29.003  10.969
58117W        W27998  10.201  38.971  14.435
58118W        W27999  29.010  27.135   1.216
58119W        W28000  26.073  34.115   1.437
58120W        W28001  18.116  15.168  12.910
58121W        W28002   4.836  41.015  10.449
58122W        W28003   5.425   3.311  10.908
58123W        W28004  23.506  11.328   3.704
58124W        W28005  14.146  29.069   1.934
58125W        W28006  20.239  43.353  10.429
58126W        W28007  40.426  34.864  10.563
58127W        W28008  32.030   1.398  14.451
58128W        W28009  11.140  28.641   5.165
58129W        W28010  43.502  17.294  10.598
58130W        W28011  36.854  43.902  13.018
58131W        W28012   5.298   3.436   0.756
58132W        W28013  39.822  18.195  11.507
58133W        W28014  33.599  25.702   1.733
58134W        W28015  28.672  11.772  14.962
58135W        W28016  29.011  37.083   1.444
58136W        W28017  15.139  10.267  11.958
58137W        W28018  20.189  20.073   4.696
58138W        W28019  27.588  21.736  13.868
58139W        W28020  21.511   6.308   0.826
58140W        W28021  27.626   9.650  10.636
58141W        W28022   9.300  44.448   0.295
58142W        W28023  27.650   1.393   1.819
58143W        W28024   3.460  24.126   1.215
58144W        W28025  18.179  44.936  14.918
58145W        W28026  22.150  16.729   5.585
58146W        W28027  13.795  16.279   1.236
58147W        W28028  19.141  17.171   2.353
58148W        W28029  33.523  24.721  10.036
58149W        W28030  43.498  36.931  13.384
58150W        W28031  15.153  18.694   0.744
58151W        W28032  16.672  38.454   1.866
58152W        W28033  35.385  39.041  13.949
58153W        W28034  16.627  23.080   3.183
58154W        W28035  40.464  10.727  10.922
58155W        W28036   5.284  33.555   3.239
58156W        W28037  42.830  28.978   2.898
58157W        W28038  39.549  35.461  13.906
58158W        W28039  20.608  16.172  10.557
58159W        W28040  30.130  30.935  10.478
58160W        W28041  36.936  31.604  13.824
58161W        W28042  35.892   9.380  13.411
58162W        W28043  17.782  19.085  12.437
58163W        W28044  35.459  27.549  14.428
58164W        W28045  12.148  24.637   0.249
58165W        W28046   5.695  28.453  11.436
58166W        W28047  34.047  15.207  13.319
58167W        W28048  17.228   7.805  14.375
58168W        W28049  40.846  28.481   4.169
58169W        W28050  38.339  24.491   3.292
58170W        W28051   2.937   9.341   1.243
58171W        W28052   5.337  17.118  12.360
58172W        W28053  36.003   0.320   1.216
58173W        W28054   6.325  36.023  11.948
58174W        W28055  29.473  33.450   1.343
58175W        W28056  28.020  16.642  14.849
58176W        W28057  15.238  22.696   3.859
58177W        W28058   3.457   1.348   0.286
58178W        W28059  14.600  44.300   0.814
58179W        W28060  43.906  42.013  10.990
58180W        W28061  16.112  33.492  10.554
58181W        W28062  12.757  38.063   3.329
58182W        W28063   8.227  38.415   1.445
58183W        W28064   3.236  19.200   1.396
58184W        W28065  39.461   5.335   2.895
58185W        W28066  12.689  22.638   1.737
58186W        W28067  21.578  34.075  10.948
58187W        W28068  27.476  35.871  13.320
58188W        W28069  21.081  11.194   2.388
58189W        W28070  22.515   6.186   2.328
58190W        W28071  31.995  21.608   3.641
58191W        W28072  30.440  15.203  13.450
58192W        W28073  24.228  16.262   0.480
58193W        W28074  39.374  30.136   3.373
58194W        W28075  14.791   7.226   3.662
58195W        W28076  24.615  44.495   3.829
58196W        W28077  20.664  22.060  12.365
58197W        W28078  38.924  43.383  10.931
58198W        W28079   2.953   7.734   1.362
58199W        W28080   8.676   4.335   1.271
58200W        W28081   2.933  23.663   2.394
58201W        W28082  23.225   8.350  12.580
58202W        W28083   8.771  32.899   4.295
58203W        W28084  13.263  12.716   3.630
58204W        W28085   7.369  22.635   4.706
58205W        W28086  40.853  12.770  12.547
58206W        W28087  26.173  11.205  11.508
58207W        W28088  26.092  36.889   0.388
58208W        W28089  44.341  22.506  13.981
58209W        W28090  14.254  44.834   2.746
58210W        W28091  12.192   3.355  13.995
58211W        W28092  18.088  43.491  13.987
58212W        W28093  10.151   6.910  13.423
58213W        W28094  43.973  26.511  12.395
58214W        W28095  31.537  40.326   1.856
58215W        W28096   7.687  19.589  13.835
58216W        W28097  32.441   4.347   4.618
58217W        W28098  19.173   6.321   4.319
58218W        W28099  11.840  35.527   3.782
58219W        W28100  26.546  31.042  10.609
58220W        W28101  37.075   2.900   0.831
58221W        W28102  26.955   6.250  10.593
58222W        W28103  37.896   8.782   5.193
58223W        W28104  26.664  30.145  11.583
58224W        W28105  42.332  30.142  13.547
58225W        W28106  30.075  25.625  11.471
58226W        W28107   7.397  10.151  13.423
58227W        W28108  37.469  21.208  12.000
58228W        W28109   1.867  38.400   2.188
58229W        W28110  44.459  37.443   1.376
58230W        W28111   1.926  42.983  13.386
58231W        W28112  37.012  33.059   1.377
58232W        W28113  26.008   3.416  10.502
58233W        W28114  22.239  30.138  13.938
58234W        W28115  26.685   6.379  13.386
58235W        W28116  23.160   1.290  11.481
58236W        W28117  15.132  27.591   0.296
58237W        W28118  33.950  40.039   2.304
58238W        W28119  31.946   1.782   2.835
58239W        W28120  43.446   3.952   0.353
58240W        W28121  25.613  22.679  14.858
58241W        W28122  13.324  31.922   4.683
58242W        W28123  16.096  39.505   1.774
58243W        W28124  28.623  42.317  12.418
58244W        W28125  27.633  43.950  14.771
58245W        W28126  18.606  12.726   3.744
58246W        W28127  44.844  43.464   0.286
58247W        W28128  13.759  33.999   1.335
58248W        W28129   4.851  29.931   4.222
58249W        W28130  17.642  10.684  10.530
58250W        W28131  13.119   9.191  14.814
58251W        W28132  24.709  25.081   4.207
58252W        W28133  23.013   4.431   4.741
58253W        W28134  16.681  31.443  14.306
58254W        W28135  28.671   5.750   3.670
58255W        W28136  14.743  43.996  11.398
58256W        W28137   2.845  36.573  13.315
58257W        W28138  27.468  31.506   4.232
58258W        W28139  39.557  41.493  11.572
58259W        W28140  43.410  38.942   3.771
58260W        W28141  34.470  25.605   1.820
58261W        W28142  12.259  18.616  10.960
58262W        W28143   4.376  39.882  12.900
58263W        W28144  30.595   7.683   3.281
58264W        W28145  34.006  27.686   2.694
58265W        W28146   6.908   1.942  14.490
58266W        W28147  18.226  40.379  12.903
58267W        W28148  17.655  23.144  12.017
58268W        W28149   5.911  39.442  10.550
58269W        W28150  28.625  22.580  10.923
58270W        W28151  37.977  43.006  14.918
58271W        W28152  39.000  33.534   3.634
58272W        W28153  41.907  31.428   2.342
58273W        W28154  29.624  33.077   4.630
58274W        W28155  31.996  27.030  12.346
58275W        W28156  44.903  12.165   2.703
58276W        W28157  15.117  41.856  13.852
58277W        W28158  41.309  30.014  10.948
58278W        W28159  37.942  32.428  14.341
58279W        W28160   8.384  10.680  11.585
58280W        W28161  27.998  35.987   5.181
58281W        W28162   4.281  32.575  10.533
58282W        W28163   3.801   9.755  14.455
58283W        W28164  19.745   0.954   2.372
58284W        W28165  28.014  23.731  11.862
58285W        W28166  37.980  19.741   0.800
58286W        W28167   1.891  41.476   1.778
58287W        W28168  15.814  18.165   4.664
58288W        W28169   1.746  22.109  13.063
58289W        W28170  16.247   2.751  14.437
58290W        W28171  22.131  31.145   2.326
58291W        W28172   1.951  40.050  14.871
58292W        W28173  35.863   9.844  14.478
58293W        W28174  21.254  38.949   5.096
58294W        W28175  12.230  37.571  14.915
58295W        W28176   4.797  16.739   3.699
58296W        W28177  18.565  20.130   1.344
58297W        W28178  27.052  29.457   3.832
58298W        W28179  17.254  29.436  10.960
58299W        W28180  16.794   9.723   3.850
58300W        W28181  18.292  31.636   4.633
58301W        W28182  24.542   3.869  13.444
58302W        W28183  27.627  43.800  11.106
58303W        W28184  24.679  29.472  13.515
58304W        W28185  27.142  34.567   0.865
58305W        W28186  21.726  15.139  13.911
58306W        W28187   7.328  39.478   1.892
58307W        W28188  34.586  28.110   0.278
58308W        W28189  38.517  25.615   3.261
58309W        W28190  12.310  15.092   3.660
58310W        W28191  15.709  40.419   4.159
58311W        W28192   8.241  11.231   4.189
58312W        W28193  31.519   1.414   4.341
58313W        W28194  19.141  24.032  11.046
58314W        W28195   8.842  24.166  14.821
58315W        W28196  27.624   8.899   0.740
58316W        W28197  21.707   0.843   1.336
58317W        W28198  36.357  25.966   0.368
58318W        W28199  42.820  11.263  12.378
58319W        W28200  43.292  23.223   4.751
58320W        W28201  19.745   7.409   1.805
58321W        W28202  43.966   7.235  11.422
58322W        W28203   5.919  20.621  13.534
58323W        W28204  32.524   2.465   4.196
58324W        W28205  40.901  31.462  10.987
58325W        W28206   1.920  25.189   1.375
58326W        W28207   9.245  29.639  12.499
58327W        W28208  22.147   0.940   1.786
58328W        W28209   9.199  32.939   1.380
58329W        W28210   4.813   4.911  12.486
58330W        W28211  23.503  19.671   1.788
58331W        W28212  36.583   7.840   2.374
58332W        W28213  24.011   1.344   1.250
58333W        W28214  43.889  17.084  13.515
58334W        W28215  38.836  32.963   4.123
58335W        W28216  27.047  33.113   2.382
58336W        W28217  11.206  12.742  12.388
58337W        W28218  13.113   5.711   1.302
58338W        W28219  26.484  27.615   0.909
58339W        W28220  19.758  12.797  12.477
58340W        W28221  27.606  43.832   3.205
58341W        W28222  27.160  25.606  10.551
58342W        W28223  23.237  27.520  14.779
58343W        W28224  43.963  11.172   4.673
58344W        W28225  37.973   3.783   3.334
58345W        W28226   6.775   8.661   3.377
58346W        W28227  37.443  12.699  13.460
58347W        W28228  41.028  24.497   2.828
58348W        W28229  34.077  30.561   3.349
58349W        W28230  35.058  17.109   1.252
58350W        W28231  19.699  43.812   4.128
58351W        W28232   8.731  39.385  10.610
58352W        W28233  38.361   8.377  11.518
58353W        W28234  15.590  27.587  14.960
58354W        W28235   3.237  18.740   3.659
58355W        W28236  29.991  28.170  14.936
58356W        W28237   8.242  31.616   0.408
58357W        W28238  18.132   8.872  14.301
58358W        W28239  32.904  31.520   1.848
58359W        W28240  33.910  20.250  11.048
58360W        W28241  24.024  11.633   1.737
58361W        W28242  22.611  41.437   3.347
58362W        W28243  34.442  16.677  12.857
58363W        W28244  25.067  16.191   1.847
58364W        W28245  43.016  13.703   0.458
58365W        W28246  22.605   2.338  10.611
58366W        W28247  27.020  32.047  13.319
58367W        W28248  16.234  44.814   4.758
58368W        W28249  12.669  40.931   1.362
58369W        W28250   3.765   7.286  14.864
58370W        W28251   5.931  42.446  14.286
58371W        W28252   7.804  42.918  14.859
58372W        W28253  18.713  15.737  12.035
58373W        W28254  37.906  16.180   2.329
58374W        W28255   0.271  39.840  12.015
58375W        W28256  17.247   3.896  13.907
58376W        W28257  13.755  27.552   1.374
58377W        W28258  40.962  22.087   4.349
58378W        W28259  25.594  16.314   0.732
58379W        W28260  38.834  14.822  10.635
58380W        W28261   6.279  33.582   2.665
58381W        W28262  36.433  20.063   4.329
58382W        W28263  44.299   6.812  13.307
58383W        W28264  19.204   2.967   2.828
58384W        W28265   2.798  38.499   0.422
58385W        W28266   6.772  44.491   0.247
58386W        W28267   2.886   0.405  14.395
58387W        W28268  39.428   4.403  11.451
58388W        W28269  40.538  21.121   0.872
58389W        W28270  29.477  22.998   4.610
58390W        W28271  28.586  27.013  12.826
58391W        W28272  37.836  11.321  13.805
58392W        W28273  44.431  24.081  14.494
58393W        W28274   3.387  28.496   1.268
58394W        W28275  28.501   4.731   1.925
58395W        W28276  42.404  11.194   4.197
58396W        W28277  40.448  18.604   3.677
58397W        W28278   7.756   2.458   4.320
58398W        W28279   0.412  14.672   4.701
58399W        W28280  16.182  28.576   1.374
58400W        W28281  18.744  43.821   3.239
58401W        W28282  28.635   4.844   3.349
58402W        W28283  13.322  40.948  13.854
58403W        W28284  13.232  11.651   2.751
58404W        W28285  37.926  22.730   2.301
58405W        W28286  30.659  15.805  12.459
58406W        W28287   9.237  25.111  13.483
58407W        W28288  31.027  28.458   1.303
58408W        W28289  22.619   0.455   3.167
58409W        W28290  17.097   6.386   1.378
58410W        W28291  26.998  38.919   3.378
58411W        W28292   7.299   4.263   4.189
58412W        W28293  39.827  14.114   0.853
58413W        W28294   5.855  33.973  10.493
58414W        W28295  14.802  20.118   0.844
58415W        W28296  23.235   0.966  12.513
58416W        W28297  30.050   6.406  12.563
58417W        W28298  29.039  33.461  14.397
58418W        W28299   9.201  39.345  10.937
58419W        W28300  35.930  31.943  11.456
58420W        W28301  17.802  33.925   0.755
58421W        W28302  34.105  42.311   4.178
58422W        W28303   5.820  31.036   0.806
58423W        W28304  18.247  25.595  13.544
58424W        W28305   6.426  14.211   2.675
58425W        W28306  37.079  37.030  10.642
58426W        W28307  26.176  25.553   3.831
58427W        W28308  13.609  39.538  13.456
58428W        W28309  32.509  34.865   2.238
58429W        W28310  24.099  35.089  13.499
58430W        W28311  24.522  18.759   0.850
58431W        W28312   8.180  29.161   2.183
58432W        W28313  19.628  19.598  12.500
58433W        W28314  27.060   8.789  13.315
58434W        W28315  44.354  13.132   1.847
58435W        W28316   8.803  34.573   2.715
58436W        W28317  42.384  39.009  14.278
58437W        W28318  31.114  21.179   4.271
58438W        W28319  32.421  35.407  11.965
58439W        W28320  44.963  34.524  13.482
58440W        W28321  44.315  32.055  12.874
58441W        W28322  30.464  25.483   1.441
58442W        W28323  28.969   7.274   3.754
58443W        W28324   4.736  21.635  11.969
58444W        W28325   1.419  34.606  13.898
58445W        W28326  42.395  10.855   3.341
58446W        W28327   9.722  22.561   0.928
58447W        W28328  40.316   7.737   0.438
58448W        W28329   2.826   5.823   1.276
58449W        W28330  30.608  10.232  13.401
58450W        W28331  12.149  24.072  10.889
58451W        W28332  12.843  21.560   3.318
58452W        W28333  16.156  14.595   1.297
58453W        W28334  35.384   6.743  12.406
58454W        W28335  35.937   7.299  13.452
58455W        W28336  28.015  30.161   0.964
58456W        W28337  23.603   3.456  14.446
58457W        W28338  21.248  11.636  12.831
58458W        W28339  23.072  20.679   3.638
58459W        W28340  38.979  42.959  12.537
58460W        W28341  15.741   7.843   4.626
58461W        W28342  23.102  33.884   0.279
58462W        W28343   0.801   8.208   0.385
58463W        W28344  42.315  27.585  11.987
58464W        W28345  41.305  43.385   0.324
58465W        W28346  30.968  38.525   4.308
58466W        W28347  40.409  37.087  14.027
58467W        W28348  39.848  28.165   1.416
58468W        W28349  11.637  42.318   1.851
58469W        W28350  32.495  26.490  13.381
58470W        W28351  32.475   0.787   2.795
58471W        W28352   6.823   1.436   4.792
58472W        W28353  13.730  20.706  14.465
58473W        W28354  16.800  19.173   3.246
58474W        W28355  38.984  35.073  10.937
58475W        W28356  14.190  14.171  12.945
58476W        W28357  13.107   9.237   2.252
58477W        W28358  25.519  21.595  13.971
58478W        W28359  18.127   2.724   0.758
58479W        W28360  39.845  23.076  13.337
58480W        W28361  40.843  42.305  11.442
58481W        W28362  37.433   4.934   4.328
58482W        W28363  42.333  10.844  14.962
58483W        W28364  32.517   5.289   0.318
58484W        W28365  25.098  43.395  11.590
58485W        W28366  17.066  31.062  13.452
58486W        W28367  29.512  14.252  14.943
58487W        W28368  15.255   9.724   1.773
58488W        W28369  14.660  13.349   1.262
58489W        W28370  38.354  33.460  14.319
58490W        W28371  28.146  15.165  12.049
58491W        W28372   9.350  28.036  12.093
58492W        W28373   9.867  43.484  10.907
58493W        W28374  42.949  11.299  13.342
58494W        W28375  41.993  20.053   3.705
58495W        W28376  43.503  36.087   0.916
58496W        W28377  23.623  17.668   0.267
58497W        W28378  22.187  29.611  10.521
58498W        W28379  13.110  20.149  13.491
58499W        W28380   2.829   8.794  14.000
58500W        W28381  21.124  42.865   1.760
58501W        W28382  41.403  33.437  10.482
58502W        W28383  11.256   2.304   2.234
58503W        W28384   4.701  37.525   2.306
58504W        W28385  37.886  38.997   1.932
58505W        W28386  26.539  21.530  13.512
58506W        W28387   2.338  26.600  14.941
58507W        W28388  33.894  15.719  11.066
58508W        W28389  30.476  24.038  14.869
58509W        W28390  23.216  24.006  14.858
58510W        W28391  40.451  29.920   1.332
58511W        W28392  44.374  28.575   2.735
58512W        W28393  19.542  37.888   4.724
58513W        W28394  37.412  15.633  12.380
58514W        W28395  19.093  37.886   2.401
58515W        W28396   8.370   4.408   1.895
58516W        W28397  33.095  39.314  14.290
58517W        W28398  32.916   8.369  12.007
58518W        W28399   0.827  26.482  11.432
58519W        W28400  10.778  42.835  12.366
58520W        W28401  12.280  13.268   0.944
58521W        W28402  39.862  23.568  10.415
58522W        W28403   5.282  26.156  12.878
58523W        W28404  24.527  14.215  14.947
58524W        W28405   7.728   0.919  11.071
58525W        W28406  13.679  36.982  14.909
58526W        W28407  20.202  24.621   1.795
58527W        W28408  32.041  34.552  10.496
58528W        W28409  24.014   0.365  12.342
58529W        W28410  41.827  39.864  13.488
58530W        W28411   7.672  33.465  10.593
58531W        W28412   5.705  21.656   2.179
58532W        W28413  43.814  30.599   3.850
58533W        W28414  37.952  21.202  12.488
58534W        W28415   2.919  22.176  10.410
58535W        W28416   9.263  37.371   0.821
58536W        W28417  26.998  38.839  13.437
58537W        W28418   0.448   1.880   4.330
58538W        W28419  36.457  11.201  14.830
58539W        W28420  40.801  22.247  10.585
58540W        W28421  21.581  22.665   1.846
58541W        W28422  36.584  17.563   0.860
58542W        W28423  19.576  42.892   3.760
58543W        W28424  34.069   3.824   0.334
58544W        W28425  43.483  26.642  14.953
58545W        W28426  42.889   4.881  14.382
58546W        W28427   3.736  11.330   1.913
58547W        W28428  27.004   7.852  11.074
58548W        W28429  19.215  14.109  10.430
58549W        W28430  38.978  38.994   4.730
58550W        W28431  25.068  17.206  13.947
58551W        W28432  19.131   6.196  13.811
58552W        W28433   7.216  22.069  14.927
58553W        W28434  22.743   5.812  13.309
58554W        W28435  24.149  19.634  12.398
58555W        W28436  22.212   0.330  13.524
58556W        W28437  37.079  15.605  13.912
58557W        W28438   8.168  27.016   3.202
58558W        W28439  26.543  19.725  12.091
58559W        W28440  40.832  39.518   4.633
58560W        W28441   5.390   1.476  13.852
58561W        W28442  42.796  30.986   2.808
58562W        W28443  40.893  32.527   0.865
58563W        W28444  35.107  10.875  12.978
58564W        W28445  17.656  33.486   1.825
58565W        W28446  31.590  17.700   0.402
58566W        W28447  28.008  15.247   3.842
58567W        W28448  36.077  11.239   1.699
58568W        W28449  22.190  40.817  10.456
58569W        W28450  20.094   8.727   5.298
58570W        W28451   4.253  19.248   1.237
58571W        W28452  27.670  17.632  11.985
58572W        W28453  27.651  11.789   4.710
58573W        W28454  13.299   1.263  10.929
58574W        W28455  16.693  24.485  13.875
58575W        W28456  35.972  38.863  14.790
58576W        W28457  23.034  23.996  13.020
58577W        W28458   1.476  14.122   2.369
58578W        W28459  19.634  13.754   0.342
58579W        W28460  41.956  40.336   1.291
58580W        W28461  10.868  23.017  13.815
58581W        W28462  19.680   0.445   3.840
58582W        W28463  25.511   4.874   3.231
58583W        W28464  19.267  40.972   0.828
58584W        W28465  43.941  27.093   0.401
58585W        W28466   7.325  23.603   0.847
58586W        W28467  39.028  44.355  14.445
58587W        W28468   4.819  31.596   2.385
58588W        W28469  21.658  14.769  12.046
58589W        W28470  10.374  22.729  13.479
58590W        W28471  43.316   5.827  11.441
58591W        W28472  34.524  27.654   1.884
58592W        W28473  40.510  42.828  10.914
58593W        W28474   7.666  10.244   2.364
58594W        W28475  23.683  14.754   2.789
58595W        W28476  26.014   0.487   0.410
58596W        W28477  32.907   6.399   0.842
58597W        W28478  21.073  11.191  11.475
58598W        W28479   6.348   7.360   0.385
58599W        W28480  32.137   3.881  12.484
58600W        W28481  34.550  41.929   1.745
58601W        W28482  28.154  22.158  13.025
58602W        W28483  38.383  30.513  13.483
58603W        W28484  13.755   3.838   1.755
58604W        W28485   5.855  37.408  11.560
58605W        W28486  32.473  29.540   1.803
58606W        W28487  35.389  23.641   0.787
58607W        W28488  11.654  13.133  11.439
58608W        W28489  14.287  30.008   3.276
58609W        W28490  40.910  18.128  11.599
58610W        W28491  37.398  25.499   1.852
58611W        W28492  38.411   8.200  13.924
58612W        W28493   9.243  22.563   1.351
58613W        W28494  17.580  27.622   3.762
58614W        W28495  11.665  28.512   5.661
58615W        W28496  32.481   7.774  12.418
58616W        W28497  20.162  28.559  12.567
58617W        W28498  33.438  10.298  13.423
58618W        W28499   0.745  26.615   0.411
58619W        W28500  21.252   1.957   9.959
58620W        W28501  18.171   6.205  10.455
58621W        W28502  33.501  44.768   1.826
58622W        W28503  43.494   5.215   3.310
58623W        W28504  34.453  42.926   0.765
58624W        W28505  18.562  28.121   2.808
58625W        W28506   8.758  15.125   2.284
58626W        W28507  29.474  33.483   4.123
58627W        W28508   8.894  28.113  14.449
58628W        W28509   3.330  35.437   2.194
58629W        W28510   4.941  32.991  13.353
58630W        W28511  20.744  20.641  13.901
58631W        W28512  16.249  25.192  12.461
58632W        W28513  22.062   8.857   4.307
58633W        W28514  16.603   8.762  11.857
58634W        W28515   6.737  41.973   2.275
58635W        W28516   1.916  44.418   4.675
58636W        W28517  21.699   1.397   0.787
58637W        W28518  38.463  24.020  14.282
58638W        W28519   9.287  28.492  10.464
58639W        W28520   4.936  14.215  13.894
58640W        W28521  28.444  37.419  14.922
58641W        W28522  34.459   4.806   4.633
58642W        W28523   2.888  35.054   2.806
58643W        W28524   8.328  30.952   4.163
58644W        W28525  29.464  31.020  11.129
58645W        W28526  29.432  38.961   2.821
58646W        W28527  15.682  29.132   2.249
58647W        W28528   0.494  20.644  13.494
58648W        W28529  41.308   8.694  11.880
58649W        W28530  31.556  14.314   4.177
58650W        W28531   7.274  31.955   4.814
58651W        W28532   9.673   5.878  14.887
58652W        W28533  14.813  27.988   1.281
58653W        W28534   0.330  31.927   0.907
58654W        W28535   6.315   2.892  14.395
58655W        W28536  27.586  42.816   1.902
58656W        W28537  37.923  44.311   2.290
58657W        W28538  33.560  41.970   2.274
58658W        W28539  18.776  28.473  14.470
58659W        W28540  35.017  29.099   0.848
58660W        W28541  42.989  21.068   1.435
58661W        W28542   4.276  29.445   3.267
58662W        W28543   9.758  32.418  10.530
58663W        W28544  23.084  25.103   5.222
58664W        W28545  30.608  32.046   4.661
58665W        W28546  42.460  42.827   1.369
58666W        W28547  42.409  10.237   2.405
58667W        W28548  11.253   9.672   2.308
58668W        W28549   1.431  15.218  12.569
58669W        W28550  32.077  10.287  11.879
58670W        W28551  33.982  44.774   2.262
58671W        W28552   6.745  43.779  14.307
58672W        W28553   4.373  41.042   3.735
58673W        W28554  24.208  18.579  11.058
58674W        W28555   9.840   9.151   2.317
58675W        W28556   4.721  11.353   0.860
58676W        W28557  14.685  32.084   3.335
58677W        W28558  28.155  22.193   1.739
58678W        W28559  31.130   1.914  14.832
58679W        W28560  40.304  32.608  12.476
58680W        W28561  11.858  14.308  12.339
58681W        W28562  21.222   6.768   0.812
58682W        W28563  34.946   0.893   1.889
58683W        W28564  13.343   5.297   1.416
58684W        W28565  18.272   1.913   3.337
58685W        W28566  30.928  39.353   3.158
58686W        W28567  17.574   8.406   1.821
58687W        W28568   6.779  18.641   3.811
58688W        W28569  25.668  28.517   2.767
58689W        W28570  15.658  20.149   2.830
58690W        W28571  18.281  36.029   0.449
58691W        W28572   7.833  23.203   4.778
58692W        W28573   6.403  12.726   1.340
58693W        W28574  10.176   7.860  10.503
58694W        W28575   5.853   7.177   4.619
58695W        W28576  40.496   6.238  11.560
58696W        W28577  11.229  29.921   4.269
58697W        W28578  24.127  44.759   1.816
58698W        W28579  16.161  41.457  10.492
58699W        W28580  33.030  22.102  10.624
58700W        W28581  10.816  19.764   0.948
58701W        W28582  36.087  37.470   1.776
58702W        W28583   0.464   7.398  10.522
58703W        W28584   8.322  12.739   1.395
58704W        W28585  38.396  29.984  11.115
58705W        W28586   0.478  37.375  13.024
58706W        W28587   0.985  16.106   2.693
58707W        W28588   8.766  34.010   1.914
58708W        W28589  40.512  41.322  10.056
58709W        W28590  37.864  43.272  12.883
58710W        W28591   7.230   7.789  13.815
58711W        W28592  14.279  36.582   4.219
58712W        W28593  25.504  11.360   3.344
58713W        W28594  26.067  33.511  13.013
58714W        W28595  37.954   5.695  11.531
58715W        W28596  34.964  16.170   1.314
58716W        W28597  39.866  21.731  10.618
58717W        W28598  34.951  23.512   0.433
58718W        W28599  33.023  17.705   0.335
58719W        W28600  22.010  18.609   3.654
58720W        W28601  17.696  41.465   2.849
58721W        W28602   3.725  22.160  14.287
58722W        W28603  34.030   1.740  14.885
58723W        W28604  18.147  35.583   1.355
58724W        W28605   8.864  34.564  13.464
58725W        W28606  19.239  18.088  12.366
58726W        W28607  21.526  11.218  13.366
58727W        W28608   7.410  44.498   2.355
58728W        W28609  36.455  26.559  12.530
58729W        W28610  36.081  16.796   4.150
58730W        W28611  14.173  11.794   2.849
58731W        W28612  24.683  41.480   3.212
58732W        W28613  19.207  22.707   3.363
58733W        W28614   0.449  32.917   2.199
58734W        W28615  27.978  15.115   1.888
58735W        W28616  31.899  26.102  13.063
58736W        W28617  14.794  29.668   0.330
58737W        W28618  18.130  29.151  14.318
58738W        W28619  40.038  20.547   4.261
58739W        W28620  13.346  25.972   1.820
58740W        W28621  23.028  19.613  10.529
58741W        W28622  39.987   1.391  13.983
58742W        W28623  19.576  34.895   4.635
58743W        W28624  39.827  42.498   2.850
58744W        W28625  44.327  13.644   3.315
58745W        W28626  23.724  17.690   1.699
58746W        W28627  38.376  42.778   1.851
58747W        W28628  18.060  33.450  13.851
58748W        W28629  44.376  34.426  13.352
58749W        W28630  44.779  38.325  12.565
58750W        W28631  13.649   2.412   1.794
58751W        W28632  31.099  29.052   0.806
58752W        W28633  41.388  38.539   3.806
58753W        W28634  42.422  19.068  12.363
58754W        W28635  12.612   0.986   4.223
58755W        W28636  20.153   9.811  13.033
58756W        W28637  14.163   5.415  13.975
58757W        W28638   3.231   2.843  11.058
58758W        W28639  32.516  19.701  11.021
58759W        W28640  35.447  32.983  13.456
58760W        W28641  23.995  40.829   1.810
58761W        W28642   7.753  26.698   4.781
58762W        W28643  33.963  32.968  11.528
58763W        W28644  44.897   8.879  14.364
58764W        W28645   9.249  17.683  14.412
58765W        W28646  39.494   2.285   4.343
58766W        W28647  43.822  28.517  10.431
58767W        W28648  17.572  41.802   0.738
58768W        W28649   5.411   2.863   2.198
58769W        W28650  29.108  10.764   2.336
58770W        W28651  12.277  44.386   2.303
58771W        W28652  44.983  35.927  11.470
58772W        W28653  16.174  20.743  11.889
58773W        W28654  38.994  21.697   3.694
58774W        W28655  26.696  14.119  12.439
58775W        W28656  24.165  28.590  13.509
58776W        W28657  27.541  12.238  12.860
58777W        W28658  33.005  39.542  11.007
58778W        W28659  40.431  38.413  10.946
58779W        W28660   2.841  20.566   0.373
58780W        W28661   0.897  21.724   3.810
58781W        W28662   0.374  11.693   2.319
58782W        W28663  26.953   2.801  12.050
58783W        W28664   2.821  25.693  13.327
58784W        W28665  22.091  32.082  12.910
58785W        W28666  10.740  18.087  12.438
58786W        W28667  10.226   9.775   3.153
58787W        W28668   8.275  37.500   2.857
58788W        W28669   6.722  11.694  13.820
58789W        W28670   6.408  44.789   0.440
58790W        W28671   4.733  17.268  11.917
58791W        W28672  36.915  34.576   0.770
58792W        W28673  15.738   8.268   0.393
58793W        W28674  21.570  12.307  13.862
58794W        W28675   1.365  14.653   2.781
58795W        W28676  37.354   6.406  11.013
58796W        W28677  26.147   6.348  13.527
58797W        W28678   1.920  34.607  14.336
58798W        W28679  26.097  25.663  13.016
58799W        W28680  26.076  42.967   1.827
58800W        W28681  32.890  35.001  10.533
58801W        W28682   7.892   0.906   5.245
58802W        W28683  19.557  29.473   1.748
58803W        W28684  18.083   8.397   4.140
58804W        W28685  16.712  29.646  12.084
58805W        W28686  41.389   0.456  11.506
58806W        W28687  16.793  35.061  11.552
58807W        W28688  37.525  19.232  14.024
58808W        W28689  18.571  43.894  12.972
58809W        W28690  29.433  17.296   4.237
58810W        W28691  24.529  13.840   4.621
58811W        W28692  32.132  25.577  10.641
58812W        W28693  37.085  35.501   1.270
58813W        W28694  36.038  24.725   0.820
58814W        W28695  20.049  17.784   3.841
58815W        W28696  30.566  28.591  12.950
58816W        W28697  20.090  34.397   2.880
58817W        W28698  25.088   4.734  11.377
58818W        W28699   3.867   3.940   1.339
58819W        W28700  26.025   3.370  12.443
58820W        W28701   3.747   3.912   1.750
58821W        W28702  40.374  35.437   1.402
58822W        W28703  28.995  28.126   3.204
58823W        W28704  19.779  27.462   0.807
58824W        W28705  13.615  39.856  12.381
58825W        W28706  38.843  32.969   3.302
58826W        W28707  32.444   5.815   2.413
58827W        W28708  23.673   7.312   2.825
58828W        W28709  40.923  13.792   0.765
58829W        W28710  20.582  42.414   1.257
58830W        W28711  34.903  21.112   2.187
58831W        W28712  17.737  38.893   4.277
58832W        W28713   0.930  41.991   1.323
58833W        W28714  38.501  22.083   1.695
58834W        W28715  34.600   2.891   4.352
58835W        W28716   8.876  29.499   0.392
58836W        W28717   4.766  13.680  11.938
58837W        W28718  35.971  44.941   1.776
58838W        W28719   3.742  34.477   0.907
58839W        W28720  39.826  31.032  10.448
58840W        W28721   3.433  44.487   4.189
58841W        W28722  13.799  27.185  13.478
58842W        W28723  44.843  30.116  14.344
58843W        W28724  14.308   6.190   4.125
58844W        W28725  25.217  40.480  12.425
58845W        W28726   9.724   1.337   3.733
58846W        W28727  26.058  27.983   3.735
58847W        W28728  36.578  16.697  13.333
58848W        W28729  21.680   5.204   3.166
58849W        W28730  22.152   5.267   4.785
58850W        W28731   1.304   7.219  12.400
58851W        W28732  10.637  21.255   1.422
58852W        W28733  13.703   0.912  10.427
58853W        W28734  44.007  36.586  12.365
58854W        W28735  23.201  13.715   4.732
58855W        W28736  15.203  24.206   1.866
58856W        W28737  30.603  22.135   4.276
58857W        W28738  28.118  34.929  12.049
58858W        W28739  23.705  30.526  12.482
58859W        W28740   7.762  30.581   1.248
58860W        W28741   3.886  33.891   1.287
58861W        W28742  21.671  35.027  14.856
58862W        W28743  16.665   2.274  14.314
58863W        W28744   6.400  19.536  10.951
58864W        W28745  31.977  16.679   2.385
58865W        W28746  26.465  16.238   3.734
58866W        W28747   6.312  10.699   4.124
58867W        W28748  17.561   9.218  11.078
58868W        W28749  16.267  41.335   4.343
58869W        W28750   5.759  16.665  13.327
58870W        W28751  41.829  40.830  11.578
58871W        W28752  43.485   4.262   2.285
58872W        W28753  16.574  36.356  11.446
58873W        W28754  30.017  14.121   5.098
58874W        W28755  33.571  17.120   3.854
58875W        W28756  36.057  10.828  14.435
58876W        W28757   4.824  34.006   3.811
58877W        W28758  10.158  31.643   2.872
58878W        W28759  29.549   0.312  14.942
58879W        W28760  33.978   4.943   1.896
58880W        W28761  42.369  10.766  12.573
58881W        W28762  41.431  25.067   2.241
58882W        W28763  35.502  16.628  13.816
58883W        W28764   5.195  31.982  13.351
58884W        W28765  39.397   2.769   4.268
58885W        W28766  35.928  19.228   0.776
58886W        W28767   3.909  11.812   1.337
58887W        W28768   7.193  33.043  11.067
58888W        W28769  13.702  39.361   1.301
58889W        W28770  38.829  23.667  12.935
58890W        W28771  39.550  41.371  14.973
58891W        W28772   4.448  42.852   0.935
58892W        W28773  24.206   3.763  11.500
58893W        W28774  12.190   8.376  12.071
58894W        W28775  39.013  17.212  13.818
58895W        W28776   6.890  32.976   2.214
58896W        W28777   4.876  10.233  13.334
58897W        W28778  39.816   2.398   3.742
58898W        W28779  42.819  16.601   0.955
58899W        W28780  10.796  27.619  13.313
58900W        W28781  23.002   1.242  14.840
58901W        W28782  10.246  26.972   1.303
58902W        W28783  10.231  26.510   4.270
58903W        W28784  31.500  43.806   2.195
58904W        W28785   4.941  38.974  14.401
58905W        W28786  38.006  34.934   1.230
58906W        W28787  13.115  11.157  12.988
58907W        W28788  14.257  30.131   1.908
58908W        W28789  35.104  18.162   0.926
58909W        W28790  15.173  44.328  13.911
58910W        W28791  28.034   1.256   2.313
58911W        W28792   0.491  19.665  10.577
58912W        W28793   5.928  42.295  14.991
58913W        W28794  24.030  33.106  10.954
58914W        W28795   8.366   2.404  14.830
58915W        W28796  25.503  10.328   1.817
58916W        W28797  11.820  32.633  12.479
58917W        W28798  23.985  13.733   1.302
58918W        W28799   4.900   0.845  14.881
58919W        W28800  33.481   4.366  10.476
58920W        W28801  25.614   5.771  13.338
58921W        W28802  25.504  10.331   4.706
58922W        W28803  13.760  38.922   3.317
58923W        W28804  21.593  43.445   1.771
58924W        W28805  37.920  38.325   3.298
58925W        W28806  12.178   9.770   3.258
58926W        W28807   0.320   2.432   2.382
58927W        W28808  38.379  24.000  14.833
58928W        W28809   6.250  26.205   2.786
58929W        W28810  13.260  40.499  13.379
58930W        W28811   0.872  18.601   0.368
58931W        W28812   1.371   9.294   4.784
58932W        W28813  30.962  18.122   4.209
58933W        W28814   6.326  34.456   2.706
58934W        W28815  15.726  38.496  14.014
58935W        W28816  22.557  10.734  12.084
58936W        W28817   8.797   0.471  13.446
58937W        W28818   8.855  10.317   1.439
58938W        W28819   2.402  30.151  13.323
58939W        W28820  18.692  37.926   1.251
58940W        W28821  41.944   9.389  14.462
58941W        W28822  13.160  27.193  13.431
58942W        W28823  40.370  13.836  11.057
58943W        W28824  14.222  25.970  12.463
58944W        W28825   3.844   2.424   1.899
58945W        W28826  28.121   6.194  14.515
58946W        W28827  25.000  35.436   2.685
58947W        W28828   2.328   3.956   0.422
58948W        W28829   4.823  19.702   4.815
58949W        W28830  23.074  32.595   2.846
58950W        W28831  28.109  12.672  13.427
58951W        W28832  21.709   1.434  13.007
58952W        W28833  29.573   1.923   3.855
58953W        W28834   0.852   3.456   5.200
58954W        W28835  21.042   7.693   4.245
58955W        W28836  30.115  17.177   0.944
58956W        W28837  28.992  25.006  12.065
58957W        W28838  14.655   3.739  11.597
58958W        W28839  40.986   0.940  13.043
58959W        W28840   3.721  43.878  12.399
58960W        W28841  21.187  44.909   2.239
58961W        W28842  17.745   0.866   0.461
58962W        W28843  28.179  42.920  12.523
58963W        W28844  22.555  10.714   4.789
58964W        W28845  11.299  38.366   3.737
58965W        W28846   7.204  14.791  11.124
58966W        W28847  42.343  19.576   3.334
58967W        W28848  25.517  15.303  13.423
58968W        W28849  29.454  31.053  11.463
58969W        W28850  16.662  21.573  14.918
58970W        W28851  36.876  12.709   3.814
58971W        W28852  32.013   2.365  10.571
58972W        W28853  23.195  39.040   2.761
58973W        W28854   0.301  41.903   0.476
58974W        W28855  12.735  17.212   3.691
58975W        W28856  37.048  25.090   4.254
58976W        W28857  42.869   3.716  14.302
58977W        W28858  27.054  31.467  12.560
58978W        W28859  32.023  17.764   0.333
58979W        W28860  28.166  15.237  12.463
58980W        W28861  24.676  27.062   4.287
58981W        W28862  19.767  34.496  14.004
58982W        W28863  16.192  38.502   2.673
58983W        W28864   0.269  44.755  12.540
58984W        W28865  24.722  18.133   0.373
58985W        W28866   6.415   6.330  10.641
58986W        W28867  17.666  17.180  12.075
58987W        W28868  42.478   4.814  12.876
58988W        W28869  36.413  35.887   2.783
58989W        W28870  13.704  12.641   4.656
58990W        W28871  32.449  10.686  10.997
58991W        W28872   7.397  28.569   3.764
58992W        W28873  12.839  27.987  12.521
58993W        W28874  29.993  19.103   4.264
58994W        W28875  35.934   5.431   3.701
58995W        W28876  22.522  21.642   0.843
58996W        W28877   3.728   3.379  11.081
58997W        W28878   1.920  39.945  13.340
58998W        W28879  36.529   1.338  12.436
58999W        W28880  30.057  10.287   3.762
59000W        W28881   2.436   3.758   4.798
59001W        W28882  12.226   6.701   3.774
59002W        W28883   0.809  31.988   4.344
59003W        W28884  27.954  28.644   3.204
59004W        W28885  44.829  32.539  14.794
59005W        W28886  19.252   5.741   2.824
59006W        W28887  39.506  16.205  14.339
59007W        W28888   4.700   1.344  12.094
59008W        W28889  34.942  41.832  14.311
59009W        W28890  41.804  28.507   0.892
59010W        W28891   2.955  32.582   2.727
59011W        W28892  18.701  18.759  11.605
59012W        W28893  29.935  27.168  11.488
59013W        W28894  11.844   2.396   4.695
59014W        W28895  30.089  19.145   3.786
59015W        W28896  22.054   4.898   1.834
59016W        W28897  39.039  28.510   4.680
59017W        W28898  13.234  43.908   4.800
59018W        W28899  29.543  28.520  12.492
59019W        W28900   6.909  43.813   2.770
59020W        W28901   7.302  35.510   2.766
59021W        W28902   3.802  32.610   0.913
59022W        W28903   7.768   0.378  13.060
59023W        W28904  13.837  13.654  14.828
59024W        W28905  30.461  28.178   3.374
59025W        W28906  32.109  33.116  14.926
59026W        W28907  31.945   4.222  13.920
59027W        W28908  28.066   1.884   3.774
59028W        W28909  26.499   8.701   2.699
59029W        W28910  33.104  18.084   0.328
59030W        W28911  32.429  33.559   2.680
59031W        W28912  13.796  14.318   2.372
59032W        W28913  18.065  10.257   0.751
59033W        W28914  13.159  36.506  14.816
59034W        W28915  11.676  12.768  11.905
59035W        W28916  24.511  41.490   2.735
59036W        W28917  19.261  19.281  11.593
59037W        W28918  42.287  42.286  12.047
59038W        W28919  10.718  13.160   0.396
59039W        W28920  10.860   7.707  11.990
59040W        W28921  24.493  29.152  11.483
59041W        W28922  33.940  37.418  11.014
59042W        W28923  43.355   3.910   4.706
59043W        W28924  23.008  34.540   3.338
59044W        W28925  38.504   2.908   3.653
59045W        W28926  30.066  10.835   4.157
59046W        W28927  43.930  35.878   3.841
59047W        W28928  24.157   7.209   4.774
59048W        W28929   0.911  10.235  10.103
59049W        W28930  28.972  42.520   3.829
59050W        W28931  23.141  23.573   0.266
59051W        W28932   6.894  16.720   1.234
59052W        W28933   9.844   3.941   3.269
59053W        W28934  24.182  16.775  14.807
59054W        W28935  40.472  35.964   2.404
59055W        W28936  36.055  44.973  13.808
59056W        W28937   0.255  36.091   0.356
59057W        W28938   4.419   0.813   1.820
59058W        W28939   7.364  13.696  14.916
59059W        W28940  17.734  23.547   3.633
59060W        W28941  28.615  43.355  12.954
59061W        W28942   2.738  35.072   1.829
59062W        W28943  13.700  27.544   3.282
59063W        W28944  18.226  42.969   1.927
59064W        W28945  31.030  12.170   1.899
59065W        W28946   0.299  12.633   0.896
59066W        W28947  31.057  26.147  14.977
59067W        W28948   6.271  22.609   3.228
59068W        W28949  27.551  10.346   4.195
59069W        W28950  28.455  19.150   4.291
59070W        W28951   3.223   9.812   3.277
59071W        W28952   6.255  37.976   0.845
59072W        W28953  10.727  13.819   2.405
59073W        W28954  15.804  38.022  14.290
59074W        W28955   7.362  43.443   2.199
59075W        W28956  31.015  25.706   1.842
59076W        W28957  20.080  17.667   4.838
59077W        W28958  31.418  33.013  14.984
59078W        W28959   6.747  32.441   4.632
59079W        W28960  32.576   6.796   1.777
59080W        W28961  28.626   5.903  12.917
59081W        W28962  28.115   5.776  10.111
59082W        W28963  30.449  11.199   0.938
59083W        W28964  32.997   6.365  11.444
59084W        W28965   6.245   5.301   1.222
59085W        W28966   4.771  39.977   0.285
59086W        W28967  23.178  36.508  10.896
59087W        W28968  39.866  42.465  11.603
59088W        W28969  31.527   5.801   1.900
59089W        W28970  29.573  19.078  11.511
59090W        W28971  18.614  27.190   1.420
59091W        W28972  39.894  42.491  10.642
59092W        W28973  40.005  34.013  12.051
59093W        W28974  23.625  28.479  12.544
59094W        W28975   1.269  19.043  13.460
59095W        W28976  20.110   2.225  12.882
59096W        W28977   8.711  41.511  10.495
59097W        W28978  34.531  17.574  14.277
59098W        W28979  32.029  42.437  10.957
59099W        W28980  33.597   9.819  10.528
59100W        W28981   7.833  22.640  11.985
59101W        W28982  11.809   9.240   3.739
59102W        W28983  21.192  40.828  13.382
59103W        W28984  13.752  15.649  10.496
59104W        W28985  19.192  19.690   2.184
59105W        W28986  12.785  36.551  10.630
59106W        W28987  21.224   2.275  14.999
59107W        W28988  29.012  18.219   0.369
59108W        W28989  24.169   6.219   2.807
59109W        W28990  32.497  31.512  14.516
59110W        W28991  16.262   6.232   4.215
59111W        W28992  32.539  43.278  11.877
59112W        W28993   5.716   5.256  11.462
59113W        W28994  38.951  17.226   3.771
59114W        W28995   1.471   4.262   3.655
59115W        W28996  17.563   0.314   1.822
59116W        W28997  40.429   6.331   1.743
59117W        W28998   4.810   2.408  11.573
59118W        W28999   5.365  40.000  10.543
59119W        W29000  10.302  17.767  13.389
59120W        W29001  13.187   5.908   2.178
59121W        W29002  44.964  15.682  11.519
59122W        W29003  23.230  42.303  11.011
59123W        W29004  29.519  17.264  11.514
59124W        W29005  17.260  11.169   2.384
59125W        W29006  10.703  34.008   4.692
59126W        W29007   5.361  29.972  10.604
59127W        W29008  34.904  27.630  14.019
59128W        W29009  16.238  33.569   4.698
59129W        W29010  39.423  19.220  11.427
59130W        W29011  28.445   3.328  12.010
59131W        W29012  33.973   0.930   2.298
59132W        W29013  28.152  18.249  11.456
59133W        W29014   2.787  37.995   2.220
59134W        W29015   6.826  34.511  12.928
59135W        W29016  22.101  21.610   3.360
59136W        W29017  42.394  43.962  13.396
59137W        W29018  13.124   7.317  12.514
59138W        W29019  43.952  27.974   4.214
59139W        W29020  12.714  34.379  13.913
59140W        W29021  36.949   0.386   1.266
59141W        W29022  28.595   7.886   0.951
59142W        W29023   3.431  17.557   0.861
59143W        W29024   7.894  12.253  10.642
59144W        W29025  23.645  19.060   2.237
59145W        W29026   4.809  43.301  11.117
59146W        W29027  33.455  32.525   1.718
59147W        W29028  17.645   4.221  13.045
59148W        W29029  20.647  15.779   0.927
59149W        W29030   0.473  21.122   1.403
59150W        W29031  37.442  11.709  13.437
59151W        W29032   3.716  37.357  10.601
59152W        W29033  27.543   4.919  11.524
59153W        W29034   7.851   6.821   0.401
59154W        W29035  25.585  23.077  11.583
59155W        W29036   2.265   8.714   3.662
59156W        W29037  42.826  23.086   2.865
59157W        W29038   8.851  40.006   3.774
59158W        W29039   1.877   0.292   4.154
59159W        W29040   3.307  42.968  11.914
59160W        W29041  37.527  16.722  12.994
59161W        W29042   3.944  44.883   0.872
59162W        W29043  33.609  17.633  10.969
59163W        W29044  32.607  36.017   4.687
59164W        W29045  30.005  32.136   4.133
59165W        W29046  27.567   2.806   0.368
59166W        W29047  18.610   3.838   3.697
59167W        W29048   3.222  25.076   1.424
59168W        W29049  17.255  32.888  12.997
59169W        W29050  10.140   5.209   2.829
59170W        W29051  25.156  41.832   4.656
59171W        W29052  10.704  19.246  11.026
59172W        W29053  26.526  44.296   0.288
59173W        W29054  24.197  23.591  12.573
59174W        W29055  11.834  42.305  10.636
59175W        W29056  43.987  37.916   2.356
59176W        W29057  40.326  28.556   1.422
59177W        W29058  37.372  26.703  10.448
59178W        W29059  17.618  13.817   3.837
59179W        W29060  39.838  17.636  14.403
59180W        W29061  35.943  12.330  10.912
59181W        W29062  32.583  15.640   1.769
59182W        W29063  32.435  27.499  13.991
59183W        W29064  15.099  13.308  11.898
59184W        W29065  16.260  21.663  14.411
59185W        W29066  14.144  28.561   3.158
59186W        W29067  38.374   1.275   1.913
59187W        W29068  12.298  18.734   1.438
59188W        W29069  19.665  29.084   2.367
59189W        W29070   3.421  40.862   0.289
59190W        W29071  39.852  12.166  11.501
59191W        W29072  31.106  34.010  11.064
59192W        W29073  12.733   8.233   0.732
59193W        W29074  31.490  20.631  14.783
59194W        W29075   6.334  27.605   1.416
59195W        W29076   1.957  25.099  11.543
59196W        W29077   4.282  22.025   1.236
59197W        W29078  34.606   5.409   1.743
59198W        W29079  20.622  15.104   1.852
59199W        W29080  44.009  31.444   1.388
59200W        W29081  21.666  44.890   0.941
59201W        W29082  23.203  14.318  14.983
59202W        W29083  24.605   5.416   0.821
59203W        W29084  44.788  22.199  11.950
59204W        W29085  11.848  36.092  14.335
59205W        W29086  24.713   7.200  12.942
59206W        W29087  39.844  31.580   2.340
59207W        W29088  39.831  25.640  10.584
59208W        W29089   0.983  26.022  11.501
59209W        W29090  24.548  14.724  14.409
59210W        W29091  44.489  15.704  13.058
59211W        W29092  16.276  44.420   1.440
59212W        W29093  34.395  22.066  14.016
59213W        W29094  41.851  30.425   1.881
59214W        W29095  38.998  13.240   2.703
59215W        W29096   7.179  40.479  13.019
59216W        W29097  27.509  28.095   4.231
59217W        W29098  18.150  42.518   0.397
59218W        W29099   7.411  25.072   0.287
59219W        W29100  40.405   4.408   2.315
59220W        W29101  25.094  27.493  11.893
59221W        W29102  16.610  34.917   0.955
59222W        W29103   9.149   4.939  11.450
59223W        W29104  15.327  13.723   1.370
59224W        W29105  30.056   8.830   9.597
59225W        W29106  16.285  20.678  14.759
59226W        W29107  24.667   0.470  10.607
59227W        W29108  25.655  19.065   2.792
59228W        W29109  14.151  23.546  10.427
59229W        W29110   6.881   9.839   2.304
59230W        W29111   6.210  20.620  11.084
59231W        W29112  22.707  14.614  12.496
59232W        W29113  32.441  34.961  11.479
59233W        W29114  13.304  31.993   1.338
59234W        W29115  33.491  31.967   1.886
59235W        W29116  12.732  41.959   3.187
59236W        W29117  16.228  30.022   3.194
59237W        W29118  13.333  13.769   1.277
59238W        W29119   2.413   4.884  13.799
59239W        W29120  10.358  40.893  13.853
59240W        W29121  16.691  26.587  14.314
59241W        W29122  43.333  24.670  13.001
59242W        W29123  44.445  17.732   0.755
59243W        W29124  15.317  17.089  14.855
59244W        W29125  39.452   9.844   2.806
59245W        W29126  28.531  35.004   3.650
59246W        W29127  21.152  41.337   1.933
59247W        W29128  17.597  37.057  14.774
59248W        W29129  36.881  32.947  10.551
59249W        W29130  20.136   0.903  11.013
59250W        W29131  29.466  33.081  14.440
59251W        W29132  43.989  21.690   2.395
59252W        W29133  20.548  35.400  12.468
59253W        W29134  18.695   1.270   3.816
59254W        W29135  29.463   0.845   0.871
59255W        W29136   1.367  28.100  13.385
59256W        W29137  29.637  25.591  14.356
59257W        W29138  26.487  37.369   5.176
59258W        W29139   3.906   6.260  14.976
59259W        W29140  28.018  12.250   3.218
59260W        W29141  20.259  35.970  14.846
59261W        W29142   0.936   5.759   1.302
59262W        W29143   2.266  10.222  13.521
59263W        W29144  32.129   9.644  14.478
59264W        W29145   7.889  38.538   2.359
59265W        W29146   7.189  15.318   1.806
59266W        W29147  32.964  17.580   3.333
59267W        W29148  37.480   9.811   1.738
59268W        W29149  31.955  39.062   4.608
59269W        W29150  28.125  29.967   2.348
59270W        W29151  10.811  31.062   4.176
59271W        W29152  39.414  41.458  13.376
59272W        W29153  42.834  17.683  14.834
59273W        W29154  24.119  33.107  13.460
59274W        W29155   7.809  27.468   2.301
59275W        W29156  31.015  17.177  11.450
59276W        W29157  44.964  24.576   0.399
59277W        W29158  41.023  40.495   2.901
59278W        W29159  11.760  23.210  12.439
59279W        W29160  24.524  23.062   1.858
59280W        W29161  34.040  16.651  12.440
59281W        W29162  38.965  21.641   3.384
59282W        W29163  30.558  37.913   2.780
59283W        W29164  10.295  24.225   5.142
59284W        W29165  33.616  36.087   9.945
59285W        W29166  41.377  29.990   4.165
59286W        W29167  27.040  20.058   0.782
59287W        W29168  14.646   0.462  10.579
59288W        W29169  41.936  43.899   3.686
59289W        W29170  37.836  33.544  11.411
59290W        W29171  42.323  19.537   0.853
59291W        W29172  27.502   6.896   1.313
59292W        W29173  40.030  40.863   0.818
59293W        W29174   2.815   2.744   0.417
59294W        W29175   5.279  29.150  11.464
59295W        W29176   2.299  18.655   4.717
59296W        W29177  28.632  35.482   1.283
59297W        W29178  20.065  42.389  14.442
59298W        W29179   6.313   1.782   2.242
59299W        W29180  18.725  34.929   0.296
59300W        W29181  12.217  25.062  14.493
59301W        W29182  41.786  43.382  13.434
59302W        W29183  11.698  31.590  14.320
59303W        W29184  36.892   7.799   2.283
59304W        W29185  40.915  10.652   3.344
59305W        W29186  39.397  13.742   3.183
59306W        W29187  13.202  30.653  10.615
59307W        W29188  38.359  27.614  13.408
59308W        W29189  42.340  11.749  12.917
59309W        W29190  29.037  17.763   4.736
59310W        W29191  17.285   2.284  10.551
59311W        W29192  18.197  44.986   0.291
59312W        W29193  38.501  18.129  14.458
59313W        W29194  28.599  21.149   2.739
59314W        W29195  19.678  43.834  11.106
59315W        W29196  28.632  19.778   2.816
59316W        W29197  24.519  13.646  11.024
59317W        W29198   4.798   6.413   4.783
59318W        W29199  22.674  30.085  13.471
59319W        W29200  38.536  14.285  14.878
59320W        W29201  18.152  22.222  12.505
59321W        W29202  23.585  31.999  14.469
59322W        W29203  38.523  40.365  13.546
59323W        W29204   4.268   6.773   0.886
59324W        W29205   1.902  33.505  10.958
59325W        W29206   2.793  33.880  12.069
59326W        W29207  31.953  17.218   2.190
59327W        W29208   6.268  13.816   1.786
59328W        W29209  16.629  38.837   4.303
59329W        W29210  44.396  14.324   4.343
59330W        W29211  22.567  17.689  14.833
59331W        W29212  34.554  31.132  13.852
59332W        W29213   9.707  12.305   1.249
59333W        W29214  18.086  19.132  10.456
59334W        W29215  44.982  33.528  10.634
59335W        W29216  26.564  13.781  13.909
59336W        W29217  42.827  30.145   0.875
59337W        W29218  31.496  40.411   3.854
59338W        W29219  19.268  37.552  11.576
59339W        W29220  20.656  32.133   2.200
59340W        W29221  28.614  12.229   0.302
59341W        W29222  44.919  28.646   2.409
59342W        W29223  20.269  35.944   2.787
59343W        W29224  27.137  20.762  12.834
59344W        W29225  34.374   3.860   0.438
59345W        W29226  25.197  31.030  13.325
59346W        W29227  12.257   5.776   2.756
59347W        W29228   6.761  31.944  11.910
59348W        W29229  12.314  29.543  12.025
59349W        W29230  25.115  26.653   0.252
59350W        W29231  25.515  34.424  11.550
59351W        W29232  43.453  35.487   2.356
59352W        W29233  43.367  19.067  11.562
59353W        W29234  19.757  24.052  14.834
59354W        W29235  10.363  12.311   2.666
59355W        W29236  25.220  35.991   2.211
59356W        W29237   6.819  14.643   3.656
59357W        W29238  29.937  25.666   1.874
59358W        W29239  44.366  37.568   4.180
59359W        W29240  33.460  35.374   2.806
59360W        W29241  39.988  14.185   3.370
59361W        W29242  16.270  11.665  10.153
59362W        W29243  11.130  24.025   3.746
59363W        W29244  19.540   9.353  14.446
59364W        W29245  37.906   9.680   4.269
59365W        W29246  30.578   4.218  13.990
59366W        W29247  22.687  27.114  13.436
59367W        W29248  30.633   1.396  11.084
59368W        W29249  28.478  18.165  10.562
59369W        W29250  40.041  40.047  13.513
59370W        W29251  20.599  11.735   1.863
59371W        W29252  38.822   7.883  10.633
59372W        W29253   2.818  24.102   4.200
59373W        W29254  36.977  29.543  14.962
59374W        W29255  39.406  40.317  13.908
59375W        W29256   4.410  32.106   1.266
59376W        W29257  25.040  24.626   2.207
59377W        W29258  21.018  29.466  11.070
59378W        W29259  40.901  35.451  12.903
59379W        W29260  14.598  40.942   1.310
59380W        W29261  40.896  32.507   1.697
59381W        W29262  11.276  10.647   4.602
59382W        W29263  34.055   7.214   4.709
59383W        W29264   7.215  22.018   3.783
59384W        W29265  36.019   1.424   2.895
59385W        W29266   8.239   2.410   4.207
59386W        W29267  30.161  16.788   4.622
59387W        W29268  39.835  29.442   3.245
59388W        W29269   9.844   6.688   3.644
59389W        W29270  29.175  37.554   3.719
59390W        W29271   2.871  34.560  10.472
59391W        W29272  33.979  24.563   4.628
59392W        W29273  12.325  13.283  11.924
59393W        W29274   4.844  34.050  14.948
59394W        W29275   9.674   5.923  12.881
59395W        W29276  18.137  13.302  13.019
59396W        W29277  23.019   4.428  10.512
59397W        W29278  19.652   4.349   0.439
59398W        W29279  27.941  22.735   0.403
59399W        W29280   8.336  43.376  14.872
59400W        W29281  35.450  28.967   2.379
59401W        W29282  21.672   5.870   3.866
59402W        W29283  34.870  11.280  11.434
59403W        W29284  42.367  24.703   2.773
59404W        W29285  44.887  22.563  10.613
59405W        W29286  42.811   8.195  10.595
59406W        W29287   8.211   8.212  13.808
59407W        W29288   5.286  18.610   2.893
59408W        W29289  29.984  25.578  10.404
59409W        W29290  17.725   4.443  12.378
59410W        W29291  43.998  10.784   2.223
59411W        W29292   9.694  42.961  12.942
59412W        W29293  28.439   0.255  12.842
59413W        W29294  28.978  29.053   4.831
59414W        W29295   9.175  41.905  14.293
59415W        W29296   6.904  33.558   4.304
59416W        W29297  30.487  10.217  13.981
59417W        W29298   1.898  10.863  12.532
59418W        W29299  40.808  13.729  14.335
59419W        W29300  34.004  21.739   4.332
59420W        W29301  21.550  27.657  13.861
59421W        W29302  13.314  24.119   0.761
59422W        W29303   7.825  41.398  14.384
59423W        W29304  26.468  26.130  12.935
59424W        W29305   3.892  42.880   2.207
59425W        W29306   7.888  12.732   4.683
59426W        W29307   2.262  28.015  13.948
59427W        W29308  28.003  20.547   0.865
59428W        W29309  44.885  19.143  12.531
59429W        W29310  21.617  41.879   3.341
59430W        W29311  41.791  22.028   0.273
59431W        W29312  25.671  35.023   2.383
59432W        W29313  34.611   3.863  12.970
59433W        W29314  40.811   5.421  13.399
59434W        W29315  12.806  42.816  14.773
59435W        W29316  32.432  37.063   4.683
59436W        W29317  18.214  29.088  10.038
59437W        W29318  18.228  21.189  10.014
59438W        W29319  20.684  12.736  11.928
59439W        W29320   7.407  35.535  12.929
59440W        W29321  30.159  37.056  10.555
59441W        W29322  22.504  42.841   1.886
59442W        W29323  30.161  44.338  12.395
59443W        W29324  41.885  22.597  14.411
59444W        W29325  35.018  36.008  14.466
59445W        W29326  19.062   5.248  12.497
59446W        W29327  29.088  18.603   2.240
59447W        W29328  25.133  13.109  14.776
59448W        W29329  32.109  31.100  11.568
59449W        W29330  26.047  14.142  14.431
59450W        W29331  17.700  22.108   3.173
59451W        W29332  31.094   2.290   3.369
59452W        W29333  28.115   9.861  11.523
59453W        W29334  42.505   7.820   3.299
59454W        W29335  44.756  16.273   1.307
59455W        W29336  25.124  42.359  10.952
59456W        W29337  12.799  29.468  10.008
59457W        W29338  26.107  13.845   0.777
59458W        W29339  40.351  39.840   0.804
59459W        W29340   1.758  44.811   0.801
59460W        W29341  36.980  29.102  11.572
59461W        W29342  37.845   8.861  14.877
59462W        W29343  32.050   8.899  12.527
59463W        W29344  36.991  28.969   0.324
59464W        W29345  21.597  21.514  14.767
59465W        W29346  21.161  22.506  13.057
59466W        W29347  28.045   3.744   3.804
59467W        W29348  23.102  30.590  12.536
59468W        W29349  36.521  40.320   4.319
59469W        W29350   1.945  24.658  14.994
59470W        W29351  25.519  11.863  11.954
59471W        W29352  12.807  41.298   2.829
59472W        W29353  35.439  16.299   0.825
59473W        W29354   9.184  12.246  10.622
59474W        W29355  39.061  42.873   4.290
59475W        W29356  11.269   1.272   4.629
59476W        W29357  32.007  15.802  13.870
59477W        W29358  31.129  11.826  12.059
59478W        W29359   5.748  34.566   2.818
59479W        W29360   2.361  30.096   2.662
59480W        W29361  31.513   4.726   4.607
59481W        W29362  17.106  38.447   0.338
59482W        W29363   6.347  26.694  12.050
59483W        W29364  26.585   8.663   4.264
59484W        W29365  40.823  24.982   4.158
59485W        W29366  31.932   8.377   0.385
59486W        W29367  24.055  15.275  12.923
59487W        W29368  42.339   8.701  14.310
59488W        W29369   0.848  44.005  14.902
59489W        W29370  32.115  24.613  10.476
59490W        W29371  11.673   6.266   4.793
59491W        W29372  41.803  27.501   3.258
59492W        W29373  16.641  29.999  12.406
59493W        W29374   4.759  19.252  14.021
59494W        W29375   1.953  10.808  13.793
59495W        W29376  36.459  43.982   2.388
59496W        W29377  16.742  25.646  12.973
59497W        W29378  32.916   1.941  14.305
59498W        W29379  12.821  42.974   0.957
59499W        W29380  30.496   5.237  12.551
59500W        W29381  44.883  28.532   0.856
59501W        W29382  30.491  23.158  13.890
59502W        W29383   9.298   5.930   0.281
59503W        W29384  25.712  33.446  10.077
59504W        W29385  33.003  24.681   0.432
59505W        W29386   8.232  14.667   1.802
59506W        W29387   3.844  26.670  14.947
59507W        W29388   6.777   3.925   2.854
59508W        W29389  28.984  41.517   2.888
59509W        W29390   2.333  31.025  12.864
59510W        W29391  19.148  36.861   0.357
59511W        W29392  33.429   2.333   3.383
59512W        W29393  39.985   7.395  13.959
59513W        W29394  11.313  38.878  12.953
59514W        W29395   9.369  10.233  12.358
59515W        W29396   8.654  29.527  13.473
59516W        W29397   7.685  19.631   5.244
59517W        W29398  21.237  41.942  10.420
59518W        W29399  32.924  35.862   0.777
59519W        W29400  25.541  13.210  13.539
59520W        W29401  26.645  22.025   0.726
59521W        W29402   7.666  12.268  11.014
59522W        W29403  10.663   1.284   2.842
59523W        W29404  33.068   8.778   3.256
59524W        W29405  36.571   9.310   2.681
59525W        W29406  34.096  36.097  12.935
59526W        W29407  20.709  18.101  13.982
59527W        W29408  44.402  43.874  11.607
59528W        W29409  15.217  11.793  10.566
59529W        W29410  29.000  20.758   4.123
59530W        W29411  23.019  34.935  14.449
59531W        W29412  36.549  31.013  10.601
59532W        W29413  24.041  14.656  10.563
59533W        W29414  44.337  40.443  12.097
59534W        W29415  20.587  24.023  14.943
59535W        W29416  35.095  23.498   9.976
59536W        W29417  21.614   2.232   3.656
59537W        W29418  20.657  24.663   3.348
59538W        W29419  26.522   1.787   9.995
59539W        W29420  41.898   7.679  13.034
59540W        W29421  30.571  11.300   4.666
59541W        W29422  38.550  13.337  10.902
59542W        W29423  12.722  29.496  13.890
59543W        W29424   2.941  24.048   2.215
59544W        W29425   5.857   9.821  13.494
59545W        W29426  38.503  42.897  14.372
59546W        W29427  23.636  17.079   0.419
59547W        W29428  30.535  16.599   2.861
59548W        W29429  42.906  27.070  11.871
59549W        W29430   0.322  38.991  10.568
59550W        W29431  37.970  36.474  11.857
59551W        W29432  31.987  41.406   0.326
59552W        W29433  23.002  31.013  12.981
59553W        W29434   1.421  25.669   1.281
59554W        W29435  32.459   2.950   0.330
59555W        W29436  30.458  19.567  12.891
59556W        W29437  21.652   4.897  11.418
59557W        W29438  22.172   4.434  11.481
59558W        W29439  21.703  35.950   0.246
59559W        W29440  16.577  36.054   4.820
59560W        W29441  21.730  40.980  12.899
59561W        W29442  21.195  21.641  10.913
59562W        W29443  34.957  40.804  11.436
59563W        W29444   4.431  42.467  12.973
59564W        W29445  38.486  33.430   2.343
59565W        W29446   9.713   2.365   1.347
59566W        W29447  40.422  28.995  12.028
59567W        W29448  32.556   6.217  14.857
59568W        W29449   2.299  20.747   4.697
59569W        W29450  12.355  27.147  14.980
59570W        W29451   3.839  15.661  13.390
59571W        W29452  22.055   0.491   3.242
59572W        W29453  25.206  11.675  11.955
59573W        W29454  34.903   5.292  11.972
59574W        W29455   1.795  21.060   5.211
59575W        W29456   3.434  35.087  11.107
59576W        W29457   1.890  43.843   1.402
59577W        W29458  13.790  15.686   4.157
59578W        W29459  26.591  29.992   0.355
59579W        W29460  33.440  23.534   2.667
59580W        W29461  40.487  16.604  10.579
59581W        W29462  22.657  18.568   4.741
59582W        W29463  16.075  38.328   1.280
59583W        W29464  37.879   1.792   3.749
59584W        W29465   8.289   8.392   4.780
59585W        W29466  34.413  14.746   2.286
59586W        W29467  43.955  42.359   3.739
59587W        W29468   8.821   1.775   4.602
59588W        W29469  31.419  33.532   4.201
59589W        W29470  22.704  32.412   4.641
59590W        W29471  28.100   6.226   2.185
59591W        W29472   6.912   4.337  13.538
59592W        W29473  19.598   8.313   0.949
59593W        W29474   8.768  18.245  13.407
59594W        W29475   1.848  38.941   0.419
59595W        W29476  10.639  12.704   3.347
59596W        W29477   7.383  31.522  11.049
59597W        W29478  42.918  29.126   0.940
59598W        W29479   2.864  33.887   1.410
59599W        W29480  34.119   1.919   1.799
59600W        W29481  32.036   9.154  10.967
59601W        W29482  27.090  27.678  12.509
59602W        W29483   0.249   1.911  13.888
59603W        W29484   5.361  24.512   0.367
59604W        W29485   3.752  28.164   0.418
59605W        W29486  11.840   3.779   0.752
59606W        W29487  41.447  22.641  14.768
59607W        W29488  21.618   0.423  13.019
59608W        W29489  21.607  37.488  11.868
59609W        W29490  37.039  15.151  10.932
59610W        W29491  34.391   2.749   1.218
59611W        W29492  17.571   6.919   4.672
59612W        W29493  20.169   4.414  14.778
59613W        W29494   3.905  42.874  13.504
59614W        W29495  31.575  32.130   1.367
59615W        W29496  31.461   1.913   4.190
59616W        W29497   3.832  17.302   1.237
59617W        W29498  24.636   6.843  11.883
59618W        W29499  43.881  16.302   1.900
59619W        W29500  30.109  28.961  14.413
59620W        W29501  36.076  18.189  12.556
59621W        W29502  32.606  16.319   5.233
59622W        W29503  35.380  14.646  14.333
59623W        W29504  21.045  33.017   4.124
59624W        W29505  24.178   7.184   3.353
59625W        W29506  11.817  19.755  14.363
59626W        W29507  41.378  32.040   0.864
59627W        W29508   3.397  26.988  11.016
59628W        W29509  26.568  17.778   0.459
59629W        W29510  40.337   2.879  10.521
59630W        W29511  31.477  42.982   2.684
59631W        W29512  16.257  39.412   3.346
59632W        W29513  29.953  21.690   3.207
59633W        W29514  40.307  37.937   0.912
59634W        W29515  37.355  10.839  13.820
59635W        W29516  32.939   6.234   4.626
59636W        W29517  34.917  43.800   4.265
59637W        W29518  19.228   1.880   2.715
59638W        W29519  34.041  11.285   3.167
59639W        W29520  24.661  10.685   1.312
59640W        W29521  30.617  40.869   2.213
59641W        W29522   6.873  42.885  12.403
59642W        W29523  28.469  10.720  13.929
59643W        W29524  20.611  23.084   2.719
59644W        W29525   9.790  21.092  14.790
59645W        W29526   8.295  32.970  10.582
59646W        W29527   6.306  41.007  14.436
59647W        W29528  28.473  44.439   3.733
59648W        W29529  22.532  30.498  13.058
59649W        W29530  19.652  22.531  11.022
59650W        W29531  26.550  11.333   4.280
59651W        W29532  40.348  23.652   2.875
59652W        W29533  11.835  23.726  13.060
59653W        W29534  39.844  19.627   0.936
59654W        W29535  15.213  41.362   4.811
59655W        W29536  26.570  12.640   4.766
59656W        W29537  24.019  31.905   4.820
59657W        W29538  26.552   5.226  12.823
59658W        W29539  21.065  37.999   4.157
59659W        W29540  43.510   2.906  11.388
59660W        W29541  43.491  44.897   3.251
59661W        W29542   8.183  11.129  13.464
59662W        W29543  10.369  37.553  13.354
59663W        W29544  34.457  28.626   2.217
59664W        W29545  17.574  17.263   3.821
59665W        W29546  39.839  37.575  12.839
59666W        W29547  40.898  16.268   4.337
59667W        W29548  17.268  37.954   3.776
59668W        W29549  42.898   5.705   3.813
59669W        W29550  20.739  44.300   3.322
59670W        W29551   5.856  44.773   4.278
59671W        W29552  12.750  23.716   1.858
59672W        W29553  14.647   8.873   1.255
59673W        W29554   0.932  10.157  13.934
59674W        W29555  26.113  11.325   0.874
59675W        W29556  43.853  16.625  11.602
59676W        W29557   3.785  30.647   2.355
59677W        W29558  13.603  35.434   3.279
59678W        W29559  42.839  14.201  11.929
59679W        W29560   5.226  42.908  14.825
59680W        W29561   6.837  15.176  14.340
59681W        W29562  31.992  30.936   2.277
59682W        W29563   9.226  21.656  10.975
59683W        W29564  19.150  27.477  14.424
59684W        W29565  35.965  32.477   0.817
59685W        W29566   9.380  17.655  10.922
59686W        W29567  40.402  20.054   4.638
59687W        W29568  32.080  19.172  12.012
59688W        W29569  39.425  28.674  13.345
59689W        W29570  24.072  17.775  13.910
59690W        W29571  34.533  21.564  14.979
59691W        W29572  20.595  27.556  12.967
59692W        W29573   0.322  20.115  12.504
59693W        W29574  22.192  37.512  11.545
59694W        W29575  43.922  18.140   4.213
59695W        W29576  40.548   7.790   5.121
59696W        W29577  14.206  19.102   3.777
59697W        W29578  19.280  16.076   4.143
59698W        W29579  36.944  34.044  12.002
59699W        W29580  16.218  38.921   1.293
59700W        W29581  34.542  42.322  11.010
59701W        W29582  39.529  10.879  10.521
59702W        W29583  29.432  27.004  14.953
59703W        W29584  18.695  44.796   3.793
59704W        W29585  38.838  42.888  11.897
59705W        W29586  29.050  10.353  13.515
59706W        W29587   1.266  23.587  11.382
59707W        W29588  43.853  36.016  12.534
59708W        W29589  29.986  21.219  13.426
59709W        W29590  39.382  14.694   1.313
59710W        W29591  28.479  17.203  10.898
59711W        W29592  27.181  15.186  14.476
59712W        W29593  21.613  33.571  12.090
59713W        W29594  35.545  36.514   4.816
59714W        W29595  34.868  44.756   4.817
59715W        W29596  25.088  18.634   0.367
59716W        W29597  13.680  21.699   2.289
59717W        W29598  33.544   3.867   2.759
59718W        W29599  44.002  13.319  12.953
59719W        W29600  43.460  28.058  13.808
59720W        W29601  33.592  26.593  11.903
59721W        W29602  37.386  42.777   3.374
59722W        W29603   4.919  22.689  13.837
59723W        W29604  36.477   1.958   5.163
59724W        W29605  18.053   8.388   1.222
59725W        W29606   2.252  27.682  12.394
59726W        W29607  19.548  30.493   0.263
59727W        W29608  23.986  38.494   4.305
59728W        W29609  22.636   1.459   3.700
59729W        W29610  14.773  25.144  13.517
59730W        W29611  34.048   8.265   3.808
59731W        W29612  25.708  24.994  11.565
59732W        W29613  41.893  32.441  11.507
59733W        W29614  42.327   9.678  11.892
59734W        W29615  25.061  36.053  13.990
59735W        W29616   2.778   3.418  13.859
59736W        W29617  27.626   1.964  13.420
59737W        W29618   0.769  10.708   1.696
59738W        W29619  21.698  39.496  12.405
59739W        W29620   6.811   7.890  12.426
59740W        W29621   3.725  43.766  14.849
59741W        W29622  18.759  36.550   1.697
59742W        W29623  39.861  22.693   0.282
59743W        W29624  13.171  18.278   1.232
59744W        W29625  11.338  22.122   0.308
59745W        W29626  20.134  33.121  10.493
59746W        W29627  14.615  29.974   4.832
59747W        W29628  31.146  36.971  13.021
59748W        W29629   8.358   5.283  13.008
59749W        W29630   2.295  12.141   2.366
59750W        W29631  28.940   0.767   3.306
59751W        W29632  21.626  37.544  14.885
59752W        W29633  14.786  40.014  14.934
59753W        W29634   9.817  36.080  13.397
59754W        W29635  29.943   0.453   1.792
59755W        W29636  22.582  32.112  13.922
59756W        W29637  19.205  26.643  11.613
59757W        W29638  22.512   3.761  11.473
59758W        W29639  26.078  35.086  10.404
59759W        W29640  43.306  41.953  11.376
59760W        W29641   6.857  11.665  14.370
59761W        W29642  25.216   9.216  13.435
59762W        W29643  26.155  42.397   2.313
59763W        W29644  23.569  34.543  11.973
59764W        W29645   6.845   1.738   1.243
59765W        W29646   2.417  33.127   2.695
59766W        W29647  33.595   1.458   9.935
59767W        W29648  43.889   7.798  12.974
59768W        W29649  42.429   2.763   1.365
59769W        W29650   6.272  39.990   2.250
59770W        W29651  13.237   4.330   1.261
59771W        W29652  31.493   7.282  13.856
59772W        W29653  35.544   8.305   3.846
59773W        W29654  15.763   0.823  12.356
59774W        W29655  15.327  33.981   3.350
59775W        W29656   5.828  30.009  10.404
59776W        W29657  19.738   6.256   0.356
59777W        W29658  33.533  15.225   3.854
59778W        W29659  28.518  38.480  12.407
59779W        W29660  36.872  12.754   4.703
59780W        W29661   7.194  10.276   3.720
59781W        W29662  12.251   1.886  10.424
59782W        W29663  12.819   0.749   2.349
59783W        W29664  25.101  43.795  13.380
59784W        W29665  32.398  20.089   0.252
59785W        W29666   8.372  40.483   2.773
59786W        W29667  20.628  11.761  12.094
59787W        W29668  22.633   7.189  12.066
59788W        W29669  19.614   3.955   1.418
59789W        W29670  25.051  42.477  14.379
59790W        W29671  13.748  19.232  13.391
59791W        W29672  26.139  30.022  14.284
59792W        W29673   5.364  36.580  11.995
59793W        W29674  25.184  42.393   1.214
59794W        W29675  19.201  44.889   2.250
59795W        W29676  43.390  33.954   1.923
59796W        W29677  38.972  15.186   0.483
59797W        W29678   6.893  19.109  11.487
59798W        W29679   1.874  41.448   1.252
59799W        W29680  28.057  43.779  10.636
59800W        W29681  11.282  27.035  13.309
59801W        W29682  13.659  24.700  11.584
59802W        W29683  36.057  26.585   1.414
59803W        W29684  31.899  41.943  11.122
59804W        W29685  27.472  16.172  13.793
59805W        W29686  29.629  37.013  10.413
59806W        W29687  24.108  14.198   3.147
59807W        W29688  14.160  36.036   2.364
59808W        W29689  41.479  11.152   1.776
59809W        W29690  44.358  39.421  13.791
59810W        W29691   6.211  41.972  13.912
59811W        W29692   0.299  38.049  14.398
59812W        W29693   8.760  33.099  11.002
59813W        W29694  24.615   9.243  13.442
59814W        W29695  28.618  13.706  12.367
59815W        W29696  14.301   9.804  11.934
59816W        W29697  14.269  37.074  11.502
59817W        W29698  37.945  42.815   2.723
59818W        W29699  26.540  12.657  10.439
59819W        W29700  23.064  13.176  11.386
59820W        W29701   3.714   5.840   4.330
59821W        W29702   6.206  34.096  14.391
59822W        W29703   5.391  29.979  12.507
59823W        W29704   9.888   5.432  10.891
59824W        W29705  41.303  22.178   1.301
59825W        W29706  14.797   7.240   0.782
59826W        W29707  19.765  27.131   2.749
59827W        W29708  36.410   0.918   4.252
59828W        W29709   1.445   3.865  14.940
59829W        W29710  31.448  44.449  10.472
59830W        W29711  41.960  29.921   4.746
59831W        W29712  24.040   3.368  13.813
59832W        W29713   8.872  22.648  11.862
59833W        W29714  42.011   4.402   0.796
59834W        W29715  11.791  23.613   1.712
59835W        W29716  26.502  29.064  12.954
59836W        W29717  20.239  31.907   2.307
59837W        W29718  13.332  31.969  14.505
59838W        W29719  37.963  31.100   2.297
59839W        W29720  34.116  43.866  13.514
59840W        W29721  10.276  36.865   1.390
59841W        W29722  30.935  43.950  12.431
59842W        W29723  18.706   0.878   3.811
59843W        W29724  24.183  26.190   3.638
59844W        W29725  28.655  30.112   3.316
59845W        W29726  33.513  26.621  13.797
59846W        W29727  42.865   6.688   2.260
59847W        W29728  31.944   6.262  10.578
59848W        W29729   8.253   8.315  13.372
59849W        W29730  30.003  23.145   3.156
59850W        W29731   4.757  28.151   0.261
59851W        W29732  34.578  26.116  10.440
59852W        W29733  38.490   5.333   2.667
59853W        W29734  29.473   2.797  12.942
59854W        W29735   5.424   6.755  14.945
59855W        W29736   8.208  44.266  11.419
59856W        W29737  40.800  11.792   3.822
59857W        W29738   2.410  26.966   2.322
59858W        W29739   8.403  17.293   2.744
59859W        W29740  27.153  38.524  13.052
59860W        W29741   1.926   9.384  13.443
59861W        W29742   6.841  36.356   1.328
59862W        W29743  10.820  28.077  10.033
59863W        W29744  19.223  33.572   3.145
59864W        W29745  14.123  20.082   1.859
59865W        W29746  26.071  17.075   3.763
59866W        W29747  19.101  42.509  14.488
59867W        W29748  13.832  19.191  14.816
59868W        W29749  38.062  18.272  11.900
59869W        W29750  16.136   7.408  14.830
59870W        W29751  22.187  44.466  14.858
59871W        W29752  16.760  21.145   1.783
59872W        W29753  16.654  18.701  10.981
59873W        W29754  31.916   9.287  14.003
59874W        W29755   9.777  30.047  13.419
59875W        W29756  36.382  30.996  10.979
59876W        W29757  19.096  22.170  13.037
59877W        W29758   3.926  14.166  10.428
59878W        W29759  34.958  36.589   4.774
59879W        W29760  41.871  11.243  10.992
59880W        W29761  32.971  33.012   3.816
59881W        W29762  42.402  16.245   2.191
59882W        W29763  32.896  25.537  10.927
59883W        W29764  41.001  25.059  10.453
59884W        W29765   6.680  39.320   3.760
59885W        W29766   6.197  17.070   3.848
59886W        W29767   9.715   7.807  13.381
59887W        W29768   1.397  34.039   1.420
59888W        W29769  22.507  40.934  14.284
59889W        W29770  43.355   1.366  14.446
59890W        W29771   3.457  34.000  14.898
59891W        W29772  40.484   7.356  14.961
59892W        W29773  41.365  37.472  10.600
59893W        W29774  18.242  11.714  10.433
59894W        W29775  43.974  17.801  12.857
59895W        W29776   7.304  42.004   2.710
59896W        W29777  37.370   1.430  13.406
59897W        W29778  41.989  37.337  14.788
59898W        W29779   4.216  40.354  13.470
59899W        W29780  15.672  19.753  11.373
59900W        W29781  37.438  42.337  12.391
59901W        W29782  13.109  26.692   2.785
59902W        W29783   6.286   7.314   4.776
59903W        W29784  39.516   0.857   4.721
59904W        W29785  43.844  38.527   0.468
59905W        W29786   8.348   6.198   1.834
59906W        W29787  30.918   8.200   0.762
59907W        W29788  11.314  11.674   4.307
59908W        W29789   1.847  32.995  13.509
59909W        W29790  21.680   0.762  11.566
59910W        W29791  42.839  10.695  14.481
59911W        W29792  10.817  23.156  14.347
59912W        W29793  25.673  11.288   0.393
59913W        W29794  23.232  24.578  10.545
59914W        W29795  38.399  12.793  14.497
59915W        W29796   7.253  41.310  12.965
59916W        W29797  22.561  15.252  12.539
59917W        W29798  24.676   7.182   4.749
59918W        W29799  11.244  16.251  12.833
59919W        W29800  23.600   6.313   3.285
59920W        W29801  36.996  21.548  14.785
59921W        W29802  26.000   3.899   0.441
59922W        W29803  34.406   2.840   2.217
59923W        W29804  17.061  35.011   0.251
59924W        W29805  15.253  38.850  14.889
59925W        W29806   2.256  32.910   3.312
59926W        W29807  21.512  25.027   3.740
59927W        W29808  40.891   4.907  10.519
59928W        W29809  31.949   8.256   4.656
59929W        W29810  13.690  33.890   4.299
59930W        W29811  17.257  31.538   4.797
59931W        W29812   7.735  20.161  13.821
59932W        W29813  24.218  28.129  12.573
59933W        W29814  28.669  34.540   2.732
59934W        W29815   5.232  41.020   2.308
59935W        W29816  37.845  41.878  10.472
59936W        W29817   0.494  39.952   3.158
59937W        W29818  21.715  42.842  12.924
59938W        W29819  37.564  12.333   3.246
59939W        W29820  29.093   5.375   0.350
59940W        W29821   2.877  18.189   2.800
59941W        W29822  19.681  21.141   3.215
59942W        W29823   5.918  38.852   0.320
59943W        W29824   8.824  16.588  13.402
59944W        W29825  21.168  18.720  12.397
59945W        W29826  12.670  17.259  14.822
59946W        W29827  39.428  15.115   0.932
59947W        W29828   1.952  41.467   4.188
59948W        W29829  19.722  37.354   4.226
59949W        W29830  36.856  27.112  13.405
59950W        W29831  44.493  29.069   0.246
59951W        W29832  25.685   3.319   4.245
59952W        W29833   6.201  34.411   0.738
59953W        W29834   7.308  26.177  13.412
59954W        W29835  11.662   2.934  11.972
59955W        W29836  32.059  39.381   4.743
59956W        W29837  16.229  41.312  12.381
59957W        W29838   6.356   8.194  11.054
59958W        W29839  26.105  34.866   3.638
59959W        W29840   4.782  19.194  12.965
59960W        W29841  36.997  28.112  13.419
59961W        W29842  38.458  22.691   3.681
59962W        W29843  11.670  14.292   4.354
59963W        W29844  28.663  12.810   4.253
59964W        W29845  25.612  33.964  11.555
59965W        W29846  22.198  28.972  12.947
59966W        W29847  36.856  32.053   2.779
59967W        W29848  17.776  11.323   3.673
59968W        W29849   5.249  40.310  11.105
59969W        W29850  31.943  23.028  11.032
59970W        W29851  31.938  13.228   2.193
59971W        W29852  29.615  25.472   2.402
59972W        W29853   6.756  18.096   2.768
59973W        W29854   6.720   5.868  13.804
59974W        W29855   8.689   7.266   3.696
59975W        W29856  21.720  15.706   4.305
59976W        W29857  38.831  30.948  12.971
59977W        W29858  39.023  44.790  12.916
59978W        W29859  39.828  33.478   3.842
59979W        W29860  31.117  34.443  13.321
59980W        W29861   6.831   6.819   0.932
59981W        W29862   6.841   8.255   0.264
59982W        W29863   7.739  21.701   4.350
59983W        W29864  20.146  40.048   3.188
59984W        W29865   9.853   6.276  11.003
59985W        W29866  18.079  12.324   0.322
59986W        W29867   4.317  20.203  14.932
59987W        W29868  34.920  17.236  10.014
59988W        W29869   6.371  34.594   0.396
59989W        W29870  22.631  23.234   1.299
59990W        W29871   8.770  13.804  13.372
59991W        W29872   0.844  38.498   1.921
59992W        W29873  29.004  43.367   1.359
59993W        W29874  33.928  27.673  11.605
59994W        W29875  41.850  44.872  11.493
59995W        W29876  30.996  27.651  12.457
59996W        W29877  37.005  32.565   0.893
59997W        W29878  13.187   5.821  12.973
59998W        W29879  25.128  42.832  10.971
59999W        W29880  23.710  38.932   1.377
60000W        W29881  36.369  44.304  13.950
60001W        W29882  24.012   9.277  14.426
60002W        W29883  35.932  11.292   2.195
60003W        W29884   8.393  38.047  10.576
60004W        W29885  34.542  44.809  11.577
60005W        W29886  21.123  16.753  13.349
60006W        W29887  23.712   1.857   1.365
60007W        W29888  22.746  21.714   4.334
60008W        W29889  38.326  14.739  12.922
60009W        W29890   8.169  43.840   2.868
60010W        W29891  14.646   3.405  11.882
60011W        W29892  24.979  29.663  10.641
60012W        W29893  26.596  23.569  10.100
60013W        W29894  36.072  14.130  13.046
60014W        W29895  27.595  30.627  14.837
60015W        W29896   4.778   1.391   0.788
60016W        W29897  41.369  35.933   3.819
60017W        W29898   5.914  41.887  13.525
60018W        W29899  43.827  30.634  13.409
60019W        W29900  38.873  26.195   1.723
60020W        W29901  13.728  24.114  12.975
60021W        W29902  32.422  25.153   1.302
60022W        W29903  14.115  42.357  10.492
60023W        W29904  36.017  23.610   2.889
60024W        W29905   0.457  22.588  13.003
60025W        W29906  10.638  27.628  11.951
60026W        W29907   3.738  32.111  11.601
60027W        W29908  30.164  39.879   0.476
60028W        W29909  38.538   2.721  10.483
60029W        W29910  25.540  21.051  13.021
60030W        W29911   6.697  15.785   4.809
60031W        W29912   2.467  38.424  10.576
60032W        W29913  36.901   2.852   4.606
60033W        W29914  41.340   9.286  13.985
60034W        W29915  32.501  33.536  11.880
60035W        W29916  19.647  18.592   4.227
60036W        W29917  28.170   1.734  14.017
60037W        W29918   6.186  13.234   9.930
60038W        W29919  31.537  36.966  14.373
60039W        W29920  13.693  42.403   3.386
60040W        W29921  39.871  42.892  11.068
60041W        W29922  24.099  19.226   1.343
60042W        W29923  25.544  35.896   1.748
60043W        W29924   0.384  31.573  12.963
60044W        W29925   1.949  38.872  13.538
60045W        W29926  41.428   8.278  13.911
60046W        W29927  18.700   8.222  10.495
60047W        W29928  33.086   0.808   2.836
60048W        W29929  20.545  12.126  11.961
60049W        W29930  22.207  29.968  11.385
60050W        W29931  14.106  12.695  12.979
60051W        W29932  39.344   6.873   1.326
60052W        W29933  10.657  43.286  11.985
60053W        W29934  18.164  30.058  10.082
60054W        W29935   7.272  22.701  11.585
60055W        W29936  41.439  36.371   3.146
60056W        W29937   4.818   0.477   4.119
60057W        W29938   6.886  27.092  11.053
60058W        W29939  15.735  23.601  12.481
60059W        W29940  36.072  18.176   4.115
60060W        W29941  19.220   1.427   5.788
60061W        W29942  14.645  44.324   2.185
60062W        W29943  14.718  27.033  13.792
60063W        W29944   6.365  44.461   3.706
60064W        W29945   0.884  42.990   2.190
60065W        W29946   7.321  42.488   4.231
60066W        W29947  32.053  39.522  14.309
60067W        W29948  23.694   8.680  14.337
60068W        W29949  42.816  14.814   2.880
60069W        W29950   3.791  27.116   2.319
60070W        W29951  34.950  26.586   3.360
60071W        W29952  43.930   5.211  14.452
60072W        W29953  10.348   7.749   4.172
60073W        W29954  20.244  41.514  11.039
60074W        W29955   7.703  35.500   0.473
60075W        W29956  44.441  36.493   3.234
60076W        W29957  18.749  27.959   3.716
60077W        W29958  25.056   4.434  14.801
60078W        W29959  33.551  34.549   3.709
60079W        W29960  39.353  33.077   2.222
60080W        W29961  37.574   5.364   1.362
60081W        W29962   3.357  42.398   0.302
60082W        W29963  23.157  41.912   1.746
60083W        W29964  14.712  24.176   3.251
60084W        W29965  28.998  18.254   1.440
60085W        W29966  29.583  20.206  12.971
60086W        W29967  24.706  32.930  14.883
60087W        W29968   7.293  34.090   0.334
60088W        W29969  16.798  36.496   2.692
60089W        W29970  38.476  10.208  12.054
60090W        W29971  10.667  14.324  14.804
60091W        W29972  20.638  19.546   0.364
60092W        W29973  22.738  16.130   2.382
60093W        W29974  24.705   3.242   1.837
60094W        W29975  16.168  16.586  14.333
60095W        W29976  23.236  39.838   0.841
60096W        W29977   9.156  32.970   1.893
60097W        W29978  28.635  41.403  13.526
60098W        W29979  30.625  18.069   1.448
60099W        W29980  28.589  10.845  11.093
60100W        W29981   5.205   2.928  10.408
60101W        W29982  25.519   1.389  10.627
60102W        W29983   6.271   8.747   2.845
60103W        W29984   3.299  36.401  13.473
60104W        W29985   5.690  33.569   2.323
60105W        W29986  10.678  11.770  10.636
60106W        W29987   3.341   0.351  11.069
60107W        W29988   1.949  19.249  13.822
60108W        W29989  14.242  39.872  14.349
60109W        W29990  22.167   2.427  11.474
60110W        W29991   3.775  40.405   0.246
60111W        W29992   8.247   2.382   3.177
60112W        W29993   1.734   3.867   3.767
60113W        W29994  22.152   9.197  11.418
60114W        W29995  18.658  43.890  14.462
60115W        W29996  18.786  18.773  10.509
60116W        W29997  21.665  35.979   0.911
60117W        W29998  15.266  23.619   4.689
60118W        W29999  31.046  21.191   3.772
60119W        W30000  43.402  35.519  12.038
60120W        W30001  40.055  39.424   0.824
60121W        W30002  43.463  10.816   1.730
60122W        W30003  25.510  16.748   0.281
60123W        W30004  40.912  20.694   0.452
60124W        W30005   5.260  19.773   0.966
60125W        W30006  31.011  21.646  13.043
60126W        W30007  19.649  21.667   4.343
60127W        W30008   8.241  44.338   0.282
60128W        W30009  20.548   8.231  13.059
60129W        W30010  29.103  38.560   0.730
60130W        W30011  38.041  12.705   0.739
60131W        W30012  18.103  23.110   3.191
60132W        W30013  25.966  37.367   3.849
60133W        W30014  18.281  17.070  12.934
60134W        W30015  30.593  31.023   1.420
60135W        W30016  30.071   6.322   3.721
60136W        W30017  33.051  39.455   1.250
60137W        W30018  25.559  14.591   1.385
60138W        W30019  36.065  28.647   1.284
60139W        W30020  23.045  34.040   1.869
60140W        W30021  18.237   8.727  12.062
60141W        W30022  42.489  13.175  11.606
60142W        W30023  34.504  10.633   1.410
60143W        W30024  12.354  27.566   3.867
60144W        W30025  15.130   5.694  12.049
60145W        W30026  29.002   8.291  11.880
60146W        W30027   6.285   1.759  12.343
60147W        W30028   0.255  30.477   1.857
60148W        W30029  35.026  22.528  13.840
60149W        W30030  36.483  28.509   0.343
60150W        W30031   9.707  16.743   1.914
60151W        W30032   8.208  36.346  14.966
60152W        W30033  32.428  22.612   0.769
60153W        W30034  44.006  26.061  12.852
60154W        W30035  20.582   4.249  13.913
60155W        W30036  43.405  24.054  11.494
60156W        W30037  14.216  24.506   1.374
60157W        W30038  35.589  38.325  13.404
60158W        W30039  35.068  12.153  11.604
60159W        W30040   5.381  37.879   4.623
60160W        W30041  14.284  22.744  12.372
60161W        W30042  30.442  15.702  13.902
60162W        W30043  23.617  34.409  13.344
60163W        W30044  36.542   5.730  12.895
60164W        W30045  15.095  31.097  14.447
60165W        W30046  29.572  32.485   4.267
60166W        W30047  17.774  28.544   2.230
60167W        W30048   4.762  20.557   3.667
60168W        W30049  13.675  36.055   0.851
60169W        W30050  16.309   0.453   1.445
60170W        W30051   4.933  40.903   4.229
60171W        W30052   9.673  33.887   1.376
60172W        W30053  29.638  35.378  11.069
60173W        W30054  40.976  41.879   4.256
60174W        W30055  13.203  12.191  12.944
60175W        W30056  28.516  35.094  13.813
60176W        W30057   0.750  33.056   2.273
60177W        W30058   7.848   3.827   1.274
60178W        W30059  16.787  12.275   1.228
60179W        W30060  41.292  14.789   2.251
60180W        W30061   7.378  20.216  13.314
60181W        W30062  39.417  36.524   0.838
60182W        W30063   2.309  10.349   1.290
60183W        W30064  18.277  29.018   0.355
60184W        W30065   2.430   1.456  14.802
60185W        W30066  37.404  16.088   1.720
60186W        W30067  12.694  34.110  13.490
60187W        W30068  26.537  34.058   2.813
60188W        W30069   0.457  34.574  14.009
60189W        W30070  27.482  17.073   3.633
60190W        W30071  10.256  37.463  10.138
60191W        W30072  25.194   6.227  14.925
60192W        W30073  23.498  32.524   0.469
60193W        W30074  27.963  39.475   3.866
60194W        W30075  16.813   5.803   1.253
60195W        W30076  22.141  35.567   4.774
60196W        W30077   5.412  32.966   1.333
60197W        W30078  16.768  32.504  14.796
60198W        W30079   6.243  32.092   5.243
60199W        W30080  21.687  39.428   0.472
60200W        W30081  25.119   9.644   2.711
60201W        W30082   0.330  32.902  13.890
60202W        W30083  18.613  25.495  14.861
60203W        W30084  33.472  39.056   1.277
60204W        W30085  27.506  40.349   4.295
60205W        W30086  18.180   9.760   2.710
60206W        W30087  25.640  32.001   4.221
60207W        W30088   3.355  14.262  13.923
60208W        W30089  33.943  37.936  12.411
60209W        W30090   8.730  13.247  14.919
60210W        W30091  12.144   7.282  11.474
60211W        W30092  10.265  20.244  13.431
60212W        W30093  40.982  31.929  13.976
60213W        W30094  19.211   5.778   1.799
60214W        W30095  10.859  26.094   0.951
60215W        W30096  20.768  32.562   2.227
60216W        W30097  18.781  14.606  11.916
60217W        W30098  44.261  36.029  13.490
60218W        W30099  33.918  19.071  14.299
60219W        W30100  27.672  12.159   2.274
60220W        W30101  35.395  29.960  13.414
60221W        W30102  18.238  44.266   4.657
60222W        W30103  15.622   7.725  10.026
60223W        W30104  13.779  43.811   1.433
60224W        W30105  13.139  14.793  12.856
60225W        W30106  33.595   9.673  10.980
60226W        W30107  18.625   2.817  13.466
60227W        W30108  44.805  16.660   4.187
60228W        W30109   5.903  25.210  14.812
60229W        W30110  19.749   9.159   4.685
60230W        W30111  41.377  21.553  11.066
60231W        W30112  31.936   5.759  14.781
60232W        W30113  36.970   5.390   0.812
60233W        W30114  35.391  27.064   4.345
60234W        W30115   5.849  19.162  12.039
60235W        W30116   0.267   8.242   0.833
60236W        W30117  27.088  35.955   0.260
60237W        W30118  22.689  16.611  14.785
60238W        W30119   1.734  25.602   1.230
60239W        W30120  30.160   6.250  10.996
60240W        W30121   4.828  10.363  11.549
60241W        W30122  28.156  25.699  13.956
60242W        W30123   0.871  19.663  14.971
60243W        W30124  26.534  11.778   2.240
60244W        W30125   6.394  23.592   1.224
60245W        W30126  23.494  10.271  11.007
60246W        W30127   0.409   7.848   1.900
60247W        W30128  23.104   7.209   0.963
60248W        W30129  31.458   6.883  10.038
60249W        W30130  13.310  38.949   3.816
60250W        W30131  26.480   9.256  14.433
60251W        W30132  34.040  10.856   4.804
60252W        W30133  32.961  19.050  13.429
60253W        W30134  25.534  23.187   0.843
60254W        W30135  26.507  43.493   4.663
60255W        W30136  32.918   4.417   4.271
60256W        W30137  26.998   2.343   0.782
60257W        W30138  21.033  29.510   2.210
60258W        W30139  36.063  31.009  11.108
60259W        W30140   3.894   5.863   0.256
60260W        W30141  26.583  27.043   4.767
60261W        W30142   0.928  15.132   4.140
60262W        W30143  14.817  13.621  14.780
60263W        W30144  19.735  14.126   0.469
60264W        W30145  14.589  25.602   1.867
60265W        W30146   4.766  16.581   3.325
60266W        W30147   6.901  15.668  14.484
60267W        W30148   1.353   1.842  12.955
60268W        W30149  41.987  22.239  10.549
60269W        W30150  41.921  18.762   2.189
60270W        W30151  14.217  29.043   3.220
60271W        W30152  33.069  38.819  11.077
60272W        W30153  10.215  29.173  13.894
60273W        W30154   6.248  27.660  14.472
60274W        W30155   0.477  31.904   1.307
60275W        W30156  28.664  43.495  11.389
60276W        W30157  14.324  42.514  13.395
60277W        W30158  17.267  16.096  10.481
60278W        W30159  28.046   7.181  14.769
60279W        W30160  17.733  10.773  14.470
60280W        W30161   1.761  12.650  10.547
60281W        W30162  16.762   1.924  10.641
60282W        W30163  38.924  30.135   4.708
60283W        W30164  15.148  15.141   0.322
60284W        W30165  23.170  12.738  12.988
60285W        W30166  23.658  10.239   3.755
60286W        W30167  23.614  43.446   2.343
60287W        W30168   5.932  33.470   0.279
60288W        W30169  41.491  25.587   2.249
60289W        W30170  28.491  19.150  14.456
60290W        W30171   5.744   5.700  11.518
60291W        W30172  27.534   6.803   2.371
60292W        W30173  21.537  21.056   2.205
60293W        W30174   7.289   6.820   4.795
60294W        W30175  16.707  35.861   2.373
60295W        W30176  21.256  27.968   2.756
60296W        W30177  36.535  35.981  11.559
60297W        W30178   8.401   0.853  14.939
60298W        W30179  44.445  37.558  14.824
60299W        W30180   2.935   1.371   1.444
60300W        W30181  37.522   5.248  12.548
60301W        W30182  18.654  29.591   4.732
60302W        W30183  27.516   5.765   2.339
60303W        W30184  27.961  17.236   1.725
60304W        W30185  17.778   2.295   3.847
60305W        W30186   6.879  14.672  10.559
60306W        W30187  28.086   8.828  13.369
60307W        W30188  33.423  26.654  13.438
60308W        W30189  33.593  35.989   3.278
60309W        W30190  13.137  30.485   0.271
60310W        W30191  39.445  15.724   0.321
60311W        W30192  42.307  43.999  11.562
60312W        W30193   0.312   9.277   2.681
60313W        W30194  22.996  16.649  14.308
60314W        W30195  29.030   6.692  13.012
60315W        W30196   0.843  14.607   0.447
60316W        W30197  15.766  37.941  13.430
60317W        W30198   1.879  29.135   4.678
60318W        W30199  28.147   2.277  12.913
60319W        W30200   2.751   9.163   2.309
60320W        W30201   2.348  25.150  11.484
60321W        W30202  29.563  43.856   2.194
60322W        W30203  33.477   4.798  10.645
60323W        W30204  29.569  12.715  13.411
60324W        W30205   6.826  16.129   4.820
60325W        W30206  34.536  36.558  12.983
60326W        W30207   8.165  42.970  14.339
60327W        W30208  13.715  42.838   3.701
60328W        W30209   1.330   0.875   2.336
60329W        W30210   3.279  22.512   3.663
60330W        W30211   0.958  31.554   3.214
60331W        W30212  39.811   5.721  12.024
60332W        W30213  36.027  13.654   4.699
60333W        W30214  13.130   1.286  12.917
60334W        W30215   3.258  20.631  13.923
60335W        W30216  25.214  30.989   1.721
60336W        W30217  10.732  38.860   0.443
60337W        W30218   1.962  25.209   0.731
60338W        W30219  33.982  23.531   2.674
60339W        W30220  29.428  39.860   0.386
60340W        W30221  23.571  13.273   2.293
60341W        W30222  40.010  26.050  13.043
60342W        W30223   1.927  24.007  13.413
60343W        W30224  24.509  10.238   4.764
60344W        W30225   2.848   1.865  12.033
60345W        W30226  33.507  30.108  13.044
60346W        W30227  31.543   8.853  10.576
60347W        W30228  35.928   5.431  11.978
60348W        W30229   5.926  25.993   1.245
60349W        W30230   6.717   6.690   3.286
60350W        W30231  20.717  23.177   0.733
60351W        W30232  40.418  19.082   1.903
60352W        W30233  44.970  18.121  14.484
60353W        W30234  28.968  17.709   2.672
60354W        W30235  33.081  24.993   0.401
60355W        W30236  39.869  26.527   1.708
60356W        W30237  36.481  16.659   4.693
60357W        W30238  34.514   5.837  12.848
60358W        W30239  20.750  25.552   1.244
60359W        W30240  37.083   1.252  11.048
60360W        W30241  28.956  38.891   1.331
60361W        W30242  28.072  23.727  10.968
60362W        W30243  25.666  33.550   2.758
60363W        W30244  44.437  23.058   2.718
60364W        W30245  43.333  18.710   2.892
60365W        W30246  36.542  11.178   2.322
60366W        W30247   5.899  20.234   0.789
60367W        W30248  40.007  41.900   4.332
60368W        W30249  41.429  27.066  11.926
60369W        W30250  28.658   6.213   2.817
60370W        W30251  40.969  25.709   2.738
60371W        W30252  22.546  18.146   1.839
60372W        W30253  10.167  37.420  10.428
60373W        W30254   4.824   9.256  11.398
60374W        W30255  33.981   8.682   4.136
60375W        W30256   5.887  34.956   1.407
60376W        W30257  21.656  13.832  11.884
60377W        W30258   4.292   8.308  13.857
60378W        W30259  17.556  42.016   0.253
60379W        W30260   3.741  23.995  14.842
60380W        W30261  11.660  35.382   4.251
60381W        W30262   3.867  20.723   1.310
60382W        W30263  28.558  30.125  13.430
60383W        W30264   7.894  11.747  12.487
60384W        W30265   7.414  33.428   2.246
60385W        W30266  18.719  34.905  12.048
60386W        W30267   1.282  44.322   1.349
60387W        W30268  27.117  30.922   2.249
60388W        W30269  33.423  18.259  10.894
60389W        W30270  30.557  11.282  12.350
60390W        W30271  12.629   8.182  13.460
60391W        W30272  39.023   5.777  12.920
60392W        W30273  26.695  26.602   9.998
60393W        W30274   2.466  22.540  13.514
60394W        W30275   7.854  12.823  14.997
60395W        W30276  38.064  32.062  11.518
60396W        W30277  21.150  25.598   0.930
60397W        W30278  13.647  24.624   4.324
60398W        W30279  13.622  27.176   0.900
60399W        W30280  21.611  32.012   3.196
60400W        W30281  10.831  26.662   3.353
60401W        W30282  21.132  20.112   9.943
60402W        W30283  12.783  20.186   2.891
60403W        W30284  41.337  13.619   3.362
60404W        W30285   3.791  38.859  13.333
60405W        W30286  28.123   4.874  13.399
60406W        W30287  18.064   1.241   4.739
60407W        W30288  10.243  25.991   3.157
60408W        W30289  16.760  30.521   0.847
60409W        W30290  13.683  34.433   3.725
60410W        W30291   7.301   0.443  13.876
60411W        W30292  16.770  24.497  11.425
60412W        W30293  24.081   9.359   4.745
60413W        W30294  43.853  14.653   0.249
60414W        W30295  23.152  24.492   1.329
60415W        W30296   7.255  25.555  11.935
60416W        W30297  42.291  28.446  13.392
60417W        W30298  34.910  44.321   3.385
60418W        W30299  11.800  42.965   3.325
60419W        W30300  42.334   8.725  12.078
60420W        W30301  13.207  32.436   1.731
60421W        W30302  29.973   0.296   4.610
60422W        W30303  17.718   2.755   0.260
60423W        W30304  21.627  22.100   1.247
60424W        W30305  32.059  14.749   5.100
60425W        W30306  23.179  23.181  10.452
60426W        W30307  32.941  13.655   3.334
60427W        W30308  19.057  15.621  13.828
60428W        W30309  32.940  24.650  11.073
60429W        W30310  35.891  15.083   1.362
60430W        W30311  41.326  40.999  10.450
60431W        W30312   9.168  44.477  10.033
60432W        W30313  26.970  13.106  14.471
60433W        W30314   9.304  33.395  10.573
60434W        W30315  25.477  44.501   2.719
60435W        W30316  42.859   3.931  12.498
60436W        W30317  35.461  30.937   3.361
60437W        W30318   0.273  15.811   1.235
60438W        W30319   0.809   5.264  13.008
60439W        W30320  20.096  29.988  12.935
60440W        W30321   5.303  35.538  13.991
60441W        W30322  41.535  21.181   2.382
60442W        W30323  18.581  22.067  11.422
60443W        W30324  23.195  42.287  14.816
60444W        W30325   6.265  13.315   3.357
60445W        W30326  11.141  18.172  14.020
60446W        W30327  37.878  26.629  10.448
60447W        W30328  23.127  20.710   0.739
60448W        W30329  19.164  27.941   0.790
60449W        W30330  35.956  35.586   4.117
60450W        W30331  41.827  10.776  14.282
60451W        W30332  44.269  24.176  12.069
60452W        W30333  44.272  15.626  11.016
60453W        W30334  24.511  17.667   5.607
60454W        W30335  32.043  15.101  12.502
60455W        W30336   0.946  16.248   3.357
60456W        W30337  34.565  40.438   1.694
60457W        W30338  22.055  35.870   1.777
60458W        W30339  23.230  42.322   3.693
60459W        W30340  36.524  17.288  11.380
60460W        W30341  36.446  10.871  14.888
60461W        W30342  14.177  24.973  13.857
60462W        W30343   4.876  42.018   4.680
60463W        W30344  25.471  41.793  11.896
60464W        W30345  24.690  17.605   2.227
60465W        W30346  17.124  26.013  14.907
60466W        W30347  33.453  37.391   1.376
60467W        W30348  30.654   0.774   2.309
60468W        W30349  44.901  22.108   2.197
60469W        W30350  22.741  33.534  10.990
60470W        W30351  20.741  39.496  12.437
60471W        W30352  22.607  21.624  13.508
60472W        W30353  37.525  13.221  10.587
60473W        W30354  10.262  31.406   2.193
60474W        W30355  18.142  13.351   1.315
60475W        W30356  42.895  30.614  10.426
60476W        W30357  33.421  37.970   3.187
60477W        W30358  42.498  38.948   2.288
60478W        W30359   3.276  12.656  14.918
60479W        W30360  15.204  36.585  11.903
60480W        W30361  40.503   0.804  11.523
60481W        W30362  17.061  23.712  14.475
60482W        W30363  33.064  21.255  10.928
60483W        W30364  22.228  20.569  13.328
60484W        W30365  29.149   3.711  13.308
60485W        W30366  19.079  22.075  13.469
60486W        W30367  34.605  39.869   0.875
60487W        W30368  25.086  36.569   1.385
60488W        W30369  44.880  42.508  11.875
60489W        W30370  22.092   3.233  14.802
60490W        W30371  26.542  35.910  11.608
60491W        W30372  25.563  16.141   3.637
60492W        W30373  36.044   1.792  11.453
60493W        W30374  40.893  30.444  10.411
60494W        W30375  19.644  40.925   4.165
60495W        W30376  15.239  44.842  12.011
60496W        W30377  37.025  10.702  10.519
60497W        W30378   3.930  36.906   1.872
60498W        W30379  44.454  34.961  14.789
60499W        W30380  26.968   6.919   1.309
60500W        W30381  15.656  39.930  14.950
60501W        W30382  19.711  37.494  12.440
60502W        W30383   3.878  16.208  10.971
60503W        W30384  44.402  15.304  11.973
60504W        W30385  19.548  13.192   2.682
60505W        W30386  34.588  14.659  14.455
60506W        W30387   1.410  17.302  13.528
60507W        W30388  23.225   1.285  10.606
60508W        W30389  25.581  10.710   1.302
60509W        W30390  22.113  20.072   4.141
60510W        W30391  40.930   3.946  13.023
60511W        W30392  22.039  24.030  10.602
60512W        W30393  39.477  16.625  10.431
60513W        W30394   2.255  10.226   5.104
60514W        W30395  27.687   4.715   3.170
60515W        W30396  25.198  23.492  10.588
60516W        W30397  44.861  26.005  12.366
60517W        W30398  38.422  44.779   2.868
60518W        W30399   8.679  30.430   0.416
60519W        W30400   2.228  41.415  14.298
60520W        W30401  10.782  19.723  11.097
60521W        W30402  12.751  36.882  12.424
60522W        W30403  40.003  39.534  11.107
60523W        W30404   1.333  28.139  14.327
60524W        W30405  28.008  29.001  10.979
60525W        W30406  24.682  40.916  11.884
60526W        W30407  36.880  38.516  13.330
60527W        W30408   9.251  24.570   3.635
60528W        W30409  22.594  22.015   4.803
60529W        W30410  19.190  36.865   0.955
60530W        W30411  28.577  42.794  14.869
60531W        W30412  17.173  12.827  13.939
60532W        W30413   5.819  44.944   3.232
60533W        W30414   7.230  41.413   1.304
60534W        W30415  17.638   9.188   2.307
60535W        W30416  24.106  21.532  12.845
60536W        W30417  33.418  41.518   1.240
60537W        W30418  41.990   9.213   4.178
60538W        W30419  25.172   5.424  12.536
60539W        W30420   9.653  29.649  10.607
60540W        W30421  37.580   2.892  12.415
60541W        W30422  44.310  30.067   2.745
60542W        W30423  29.615  44.783   1.726
60543W        W30424  28.018   3.383  12.918
60544W        W30425  10.153  27.068  11.389
60545W        W30426  31.082  24.698   4.255
60546W        W30427  23.655  25.203  11.067
60547W        W30428  43.873  28.178   4.787
60548W        W30429  33.420   2.416   0.263
60549W        W30430  24.186  44.945   2.813
60550W        W30431  35.378  40.470   2.190
60551W        W30432   6.206  24.142   2.729
60552W        W30433  37.876  29.150  12.565
60553W        W30434  19.119  44.917   5.124
60554W        W30435  44.908  36.444  13.991
60555W        W30436  11.783  39.419  11.963
60556W        W30437  23.036  34.863  10.436
60557W        W30438  41.954  38.862   9.928
60558W        W30439  13.312   8.282  12.979
60559W        W30440   5.328  24.498  11.475
60560W        W30441  21.627  28.534  10.501
60561W        W30442   2.378  15.812   5.248
60562W        W30443  28.115   7.829  14.778
60563W        W30444   2.428  33.055  11.484
60564W        W30445  12.771  35.855  14.340
60565W        W30446  12.687  26.460  11.952
60566W        W30447  37.494  15.213   2.306
60567W        W30448  36.860  39.973   1.378
60568W        W30449  36.919   2.274  14.890
60569W        W30450   3.221  44.965   0.929
60570W        W30451   9.197   6.371   0.788
60571W        W30452  22.677  12.136  12.905
60572W        W30453   6.310  35.371   2.765
60573W        W30454  21.112  21.606  12.059
60574W        W30455  38.053  41.957   3.691
60575W        W30456  21.717  31.946  14.462
60576W        W30457  42.952  16.234  12.412
60577W        W30458  32.445  25.104   2.235
60578W        W30459  42.018  33.487  13.468
60579W        W30460  13.785  29.920   2.735
60580W        W30461   2.329   6.853   2.825
60581W        W30462  22.023   6.261  13.456
60582W        W30463   0.254  25.517   4.643
60583W        W30464  19.590  32.481   3.741
60584W        W30465   3.865  10.359   3.704
60585W        W30466  35.941  10.225   1.437
60586W        W30467  34.063  19.076   0.436
60587W        W30468  26.048  16.302   4.223
60588W        W30469   4.881  13.628   0.841
60589W        W30470  27.453  39.473  10.896
60590W        W30471   3.233   2.722   0.323
60591W        W30472  12.180  20.541  12.080
60592W        W30473  23.726  23.068  10.590
60593W        W30474   7.388   4.259   0.475
60594W        W30475  34.928   7.309  13.357
60595W        W30476  37.348   6.416   2.867
60596W        W30477  22.597  26.662  12.491
60597W        W30478  32.010  18.646   4.780
60598W        W30479  37.026  14.735  14.427
60599W        W30480  44.341  28.985   1.256
60600W        W30481  39.546  26.963   2.839
60601W        W30482  32.403   5.340  14.002
60602W        W30483  43.956   2.342   0.405
60603W        W30484  13.123  31.573   1.827
60604W        W30485  33.933  34.986   1.754
60605W        W30486  34.083  25.649  14.807
60606W        W30487  42.779  34.026   1.861
60607W        W30488  33.022   3.274  13.863
60608W        W30489   5.860   3.755   2.893
60609W        W30490   7.296   3.879  13.836
60610W        W30491   7.382  20.729   0.740
60611W        W30492  29.112  32.988   2.850
60612W        W30493  35.532   0.908   3.299
60613W        W30494  39.886  32.975   3.356
60614W        W30495  19.700  22.198   3.259
60615W        W30496  42.850  38.975   4.705
60616W        W30497  29.945  22.035   0.763
60617W        W30498  37.049  16.790   2.871
60618W        W30499   3.400  33.879  13.963
60619W        W30500   3.302  16.750   1.697
60620W        W30501  33.941  11.239  11.009
60621W        W30502  10.347  30.057   0.375
60622W        W30503  21.200  11.720  13.896
60623W        W30504  44.856  35.051   0.346
60624W        W30505  34.433  12.721  12.456
60625W        W30506  24.652   4.311  11.115
60626W        W30507  24.105  16.672   0.915
60627W        W30508  15.638   9.394   2.816
60628W        W30509  23.721  38.535   1.823
60629W        W30510  43.353  16.803   3.806
60630W        W30511   1.878  35.386   4.313
60631W        W30512  37.456  44.959  12.886
60632W        W30513  19.085  37.086  14.503
60633W        W30514  34.007  24.016  13.371
60634W        W30515  18.701  44.807  14.780
60635W        W30516  32.957  28.061  12.974
60636W        W30517  16.230  32.958  13.356
60637W        W30518  24.160  27.066   3.308
60638W        W30519  25.557  24.712  11.907
60639W        W30520  10.260   7.329  12.388
60640W        W30521  12.190  31.092  14.353
60641W        W30522  11.747  41.352   2.232
60642W        W30523  29.170  37.361  12.883
60643W        W30524  13.215  33.051  12.537
60644W        W30525  29.465  16.596  14.484
60645W        W30526  42.371  14.620   2.275
60646W        W30527   4.705  21.245  13.928
60647W        W30528  33.082  35.380   3.353
60648W        W30529  34.003  25.521  11.453
60649W        W30530  24.600  23.505   1.342
60650W        W30531   1.287  40.937  14.482
60651W        W30532  14.130  41.341   0.377
60652W        W30533  30.574  10.354  14.973
60653W        W30534  29.555   1.404  10.960
60654W        W30535  18.078  37.908   2.877
60655W        W30536  27.506  10.164  10.492
60656W        W30537  28.086   7.701  10.461
60657W        W30538  22.530  17.134  13.508
60658W        W30539  20.254   6.408  14.983
60659W        W30540  26.035   1.731  12.094
60660W        W30541  17.222  25.685  10.896
60661W        W30542  24.628  35.530   0.299
60662W        W30543  16.238   2.916   0.478
60663W        W30544  39.470  40.488   0.350
60664W        W30545  14.282   8.785   4.628
60665W        W30546   0.925   1.767   3.242
60666W        W30547   2.323  32.995  13.030
60667W        W30548  14.236   5.753  14.346
60668W        W30549  40.842  28.595   4.802
60669W        W30550  42.957  20.723   3.176
60670W        W30551  42.895  10.729   2.818
60671W        W30552  24.622   6.918   3.246
60672W        W30553   0.819  10.821  11.051
60673W        W30554  21.708  38.328   4.176
60674W        W30555  11.205  33.109  12.995
60675W        W30556  13.134  26.482   9.958
60676W        W30557  35.594  11.338   4.197
60677W        W30558  11.778  30.528  13.412
60678W        W30559   0.463  15.638  13.506
60679W        W30560  23.722  28.542   0.872
60680W        W30561  43.400  43.820  11.931
60681W        W30562  19.574  23.620  13.918
60682W        W30563  40.434  22.730   2.373
60683W        W30564  34.614  33.518  13.531
60684W        W30565  18.720  32.034  11.410
60685W        W30566  18.628  33.116   1.327
60686W        W30567  28.534   5.792  10.903
60687W        W30568  15.326  15.805  10.949
60688W        W30569  40.450  24.222   3.730
60689W        W30570  25.580  39.345   3.384
60690W        W30571  31.567  38.912  10.953
60691W        W30572   6.777   4.249  12.915
60692W        W30573  28.585   6.690  10.921
60693W        W30574   5.868  16.598  12.082
60694W        W30575  21.652  27.640   4.743
60695W        W30576  17.703  38.439   0.293
60696W        W30577   2.842  39.378   4.267
60697W        W30578  33.964   2.721  13.429
60698W        W30579  16.782  27.994  10.451
60699W        W30580  35.601   6.749   4.186
60700W        W30581   5.717  37.061  11.088
60701W        W30582  41.898   1.795  12.999
60702W        W30583  11.315  33.889   0.860
60703W        W30584  39.383   7.273   2.332
60704W        W30585  34.974  18.241   3.784
60705W        W30586  29.922  13.823   1.796
60706W        W30587  14.794  25.037   3.673
60707W        W30588   3.339   2.398  13.904
60708W        W30589   9.164  18.559  12.891
60709W        W30590   2.944  24.683   3.334
60710W        W30591  10.265   4.358   0.873
60711W        W30592  44.458  31.588   2.301
60712W        W30593  10.254   3.805  11.043
60713W        W30594  27.666  27.469   2.874
60714W        W30595  35.394   5.830   0.875
60715W        W30596   8.669  38.044   1.873
60716W        W30597  21.681  10.871  12.996
60717W        W30598  38.987  21.212   3.697
60718W        W30599  29.573  12.153   1.763
60719W        W30600  24.493   5.913  14.332
60720W        W30601  21.652  15.090  14.891
60721W        W30602  33.937  10.669   3.326
60722W        W30603  20.136  16.725   3.254
60723W        W30604   5.240   0.845  14.344
60724W        W30605  12.743  15.139  14.902
60725W        W30606  17.698  26.151   4.142
60726W        W30607   6.851  11.777   0.955
60727W        W30608  34.508  34.486  10.634
60728W        W30609  26.536  15.314  14.955
60729W        W30610  32.118  17.786   3.303
60730W        W30611  19.769  10.355  12.948
60731W        W30612  15.149  23.666  11.896
60732W        W30613  12.306  42.923   5.132
60733W        W30614  30.467  13.815   3.221
60734W        W30615   4.424   0.318   4.166
60735W        W30616   2.791  32.967   1.870
60736W        W30617  38.920  17.083  11.090
60737W        W30618  38.930  44.308  11.461
60738W        W30619  19.195   0.933   2.236
60739W        W30620  17.739  31.945   3.380
60740W        W30621  27.007  23.231   3.268
60741W        W30622   5.924   9.210  11.886
60742W        W30623  34.077  36.913  11.043
60743W        W30624  41.532  19.719   3.645
60744W        W30625  10.271  36.438  11.974
60745W        W30626  38.884  10.723   2.291
60746W        W30627  28.524  44.970   0.962
60747W        W30628   1.324  15.761   1.747
60748W        W30629  34.498  42.887  12.407
60749W        W30630  11.159  42.834   2.280
60750W        W30631  34.873  24.197   3.741
60751W        W30632  34.465  40.997   3.660
60752W        W30633  14.762   5.868   1.368
60753W        W30634   2.842  13.157  13.530
60754W        W30635  19.206   5.351  12.986
60755W        W30636  35.456  13.609  12.869
60756W        W30637  11.205  38.541   0.828
60757W        W30638  26.129   3.944  14.766
60758W        W30639  24.148   3.371   1.895
60759W        W30640   8.787  40.390   5.137
60760W        W30641  43.824  41.516   1.344
60761W        W30642  29.921  40.352   4.742
60762W        W30643  34.571  35.548  11.510
60763W        W30644  36.066  42.361   1.710
60764W        W30645  41.375  23.108   2.686
60765W        W30646  34.034  12.696   4.692
60766W        W30647  29.598  13.844   2.237
60767W        W30648  25.077   7.828  14.388
60768W        W30649  40.988  33.934   0.372
60769W        W30650   5.861  28.532   2.205
60770W        W30651  18.223  35.944  12.543
60771W        W30652   0.381  43.434  13.504
60772W        W30653  30.542  30.504   0.829
60773W        W30654  13.216  32.063   0.390
60774W        W30655   4.812  13.143   3.212
60775W        W30656   3.285   5.806   3.158
60776W        W30657  36.564   3.840  13.894
60777W        W30658   6.398  44.886   4.292
60778W        W30659  17.229  10.696   3.277
60779W        W30660  34.402  37.542  13.381
60780W        W30661   2.450  41.492   5.162
60781W        W30662  23.053   7.884  12.003
60782W        W30663  16.191  28.556  11.406
60783W        W30664  20.707  18.634   2.760
60784W        W30665  24.661   3.939  13.839
60785W        W30666  20.660  41.395  13.047
60786W        W30667  38.843  29.131   1.709
60787W        W30668  21.213  35.460  11.375
60788W        W30669  13.604  29.975  13.427
60789W        W30670  13.263  16.635   3.194
60790W        W30671   6.331  38.383   4.785
60791W        W30672  36.499  19.160   3.664
60792W        W30673  28.624  27.491   2.681
60793W        W30674  19.065  43.977   5.097
60794W        W30675   8.213   1.400   1.829
60795W        W30676  37.366  41.930   3.661
60796W        W30677  38.508  20.228   3.296
60797W        W30678  36.009  25.506  13.490
60798W        W30679  31.982  27.582   2.294
60799W        W30680  40.825   9.887  14.336
60800W        W30681  38.052  32.487   1.275
60801W        W30682   2.400  35.980   2.759
60802W        W30683  10.172  23.666  14.490
60803W        W30684  43.874  32.899  14.401
60804W        W30685   8.851  23.105   2.899
60805W        W30686  41.339  20.616   3.377
60806W        W30687  35.507  19.745  13.514
60807W        W30688   3.374  32.566  14.341
60808W        W30689  41.968  15.726   4.720
60809W        W30690  31.015  12.183   1.379
60810W        W30691  35.496  43.368   4.284
60811W        W30692  13.205  12.174   1.276
60812W        W30693   3.299  19.574   1.406
60813W        W30694   2.323  44.423  10.441
60814W        W30695  37.573  10.285  13.818
60815W        W30696  42.902   2.945  13.432
60816W        W30697   5.422   7.743  14.826
60817W        W30698  39.910  19.712  12.581
60818W        W30699   0.311  38.507  12.849
60819W        W30700  27.015  36.057   3.340
60820W        W30701  23.519  10.850  14.336
60821W        W30702  35.482  15.173  12.864
60822W        W30703   4.744  43.489   4.135
60823W        W30704  33.580  36.008  11.924
60824W        W30705   1.290  34.601   0.393
60825W        W30706  31.405   2.250   2.835
60826W        W30707  13.771   5.884   1.848
60827W        W30708  12.817  20.722  10.405
60828W        W30709  14.108  19.634   9.954
60829W        W30710  12.128  10.715   3.326
60830W        W30711  33.410  13.613   4.696
60831W        W30712  26.497  21.097   2.743
60832W        W30713  41.829  29.175  10.418
60833W        W30714  14.615   6.811   2.370
60834W        W30715   0.376  40.867   1.750
60835W        W30716  16.707  25.518  13.959
60836W        W30717  33.590   8.242  11.868
60837W        W30718  13.340  25.552  11.499
60838W        W30719   4.310   5.844  12.057
60839W        W30720   6.215   4.235  13.438
60840W        W30721   3.219  17.795  14.342
60841W        W30722  19.139  20.119   4.837
60842W        W30723  17.200  21.248  12.415
60843W        W30724  22.568  44.396   4.760
60844W        W30725  10.725  40.834   2.694
60845W        W30726  18.122  20.118  12.830
60846W        W30727  40.867   8.688   3.305
60847W        W30728  34.493  23.233   1.765
60848W        W30729  32.931  41.478   3.743
60849W        W30730  13.150  41.442  12.058
60850W        W30731  22.742  44.472  12.956
60851W        W30732  23.561   6.739   3.728
60852W        W30733  37.022   8.762   3.278
60853W        W30734   1.875   2.264  12.966
60854W        W30735  22.231  16.276   3.858
60855W        W30736  26.475  10.333  11.399
60856W        W30737  17.569  28.120   0.847
60857W        W30738  38.349  12.640  10.645
60858W        W30739  13.652  24.537  14.884
60859W        W30740  24.210  10.858   4.133
60860W        W30741  34.562   9.197  13.368
60861W        W30742  19.550   8.189  10.632
60862W        W30743  29.961   5.342   9.608
60863W        W30744  11.322  15.251   2.782
60864W        W30745  11.162  42.392   4.226
60865W        W30746   6.710  36.859  14.882
60866W        W30747  30.922  36.578  14.366
60867W        W30748  43.478  12.651   0.760
60868W        W30749   0.385  15.702   0.883
60869W        W30750  22.162  41.838   3.198
60870W        W30751  12.839   9.283  12.580
60871W        W30752  43.304  26.964   1.784
60872W        W30753  33.101  20.615  13.337
60873W        W30754  15.743  39.384   3.260
60874W        W30755  19.189  38.884   3.277
60875W        W30756  37.999   2.816  12.000
60876W        W30757   3.322  10.744   0.867
60877W        W30758  12.177  39.504  13.871
60878W        W30759  44.434  25.115  12.904
60879W        W30760   9.295  27.538   2.347
60880W        W30761  22.209   2.371   3.329
60881W        W30762   0.860  14.150  13.865
60882W        W30763   7.744  10.174  13.394
60883W        W30764  30.619   0.492  13.024
60884W        W30765  43.804  35.417   2.767
60885W        W30766  33.505  21.168   4.747
60886W        W30767  28.028  14.678  11.475
60887W        W30768  20.767   7.677  13.062
60888W        W30769  39.506   0.464  14.868
60889W        W30770  29.128  18.562  13.986
60890W        W30771  24.110  20.725  12.980
60891W        W30772   5.424  18.631  10.892
60892W        W30773  39.021  32.588  11.594
60893W        W30774   6.727  43.281  12.878
60894W        W30775  37.406   9.276  14.412
60895W        W30776  34.941  14.652  13.044
60896W        W30777   3.215  30.419  11.532
60897W        W30778  19.589  36.506   1.884
60898W        W30779  37.831   0.370  12.413
60899W        W30780  26.973   5.211   2.674
60900W        W30781   0.346  42.364  11.950
60901W        W30782  16.259  39.441   4.799
60902W        W30783   0.804  27.592  12.995
60903W        W30784  23.520  35.393  11.036
60904W        W30785   9.367  12.357  13.538
60905W        W30786  21.051  40.464   3.294
60906W        W30787  20.721  20.632   0.413
60907W        W30788  31.949   1.455  11.865
60908W        W30789   8.832  17.285  14.887
60909W        W30790   7.823  25.966   3.656
60910W        W30791  10.792  20.181  12.429
60911W        W30792   3.849  24.635  13.380
60912W        W30793  20.145  22.624  13.373
60913W        W30794  15.748  15.726   1.710
60914W        W30795  36.044   7.198  13.842
60915W        W30796  44.833  39.420  12.879
60916W        W30797   5.319  42.014   3.730
60917W        W30798  37.867  42.494  11.432
60918W        W30799  11.349  29.063   4.809
60919W        W30800  39.534  20.247   4.656
60920W        W30801  31.412  20.639   2.838
60921W        W30802  31.430  27.050   1.370
60922W        W30803   5.718  21.558   0.476
60923W        W30804  20.638  11.281   0.442
60924W        W30805  37.975  28.668   2.417
60925W        W30806  14.292  17.222  12.855
60926W        W30807  29.437  30.957  13.920
60927W        W30808   8.897  20.118  13.488
60928W        W30809  39.523  22.516  10.505
60929W        W30810  27.174  27.594  14.972
60930W        W30811   7.298   1.331   0.255
60931W        W30812   6.351  42.487  13.364
60932W        W30813  23.695  10.822   2.384
60933W        W30814  39.854  44.921   4.805
60934W        W30815   4.352  25.568  10.991
60935W        W30816   7.285  23.561   3.633
60936W        W30817  44.755  20.658   3.361
60937W        W30818  31.953   3.711  12.093
60938W        W30819   7.740  36.000  12.482
60939W        W30820  41.873  36.389  12.985
60940W        W30821  12.658  40.016   1.231
60941W        W30822  24.686  41.963   2.311
60942W        W30823   6.770  31.542  14.452
60943W        W30824   4.903  10.378   2.320
60944W        W30825   1.302  44.415  13.361
60945W        W30826   7.383  27.490  12.831
60946W        W30827  19.149  40.849   4.214
60947W        W30828  27.642  19.599   0.329
60948W        W30829  20.763  29.654  13.324
60949W        W30830   9.661  13.303   0.462
60950W        W30831  18.227  26.206  13.046
60951W        W30832  24.198   8.817   1.768
60952W        W30833  36.474  28.177  12.476
60953W        W30834   0.404  26.084   4.319
60954W        W30835   9.383  24.135  12.030
60955W        W30836  32.963   0.259   3.267
60956W        W30837  39.996  17.291   3.216
60957W        W30838  36.474  10.668  10.940
60958W        W30839  22.099  27.685  10.604
60959W        W30840   5.430  36.912   2.181
60960W        W30841  25.119  43.785  10.595
60961W        W30842  29.590   6.820   2.744
60962W        W30843  19.243  24.011   0.281
60963W        W30844  20.265  35.439  13.823
60964W        W30845  39.326  42.798   1.923
60965W        W30846  14.286  24.664   4.645
60966W        W30847  33.380  43.345   2.848
60967W        W30848  37.859  33.506   4.250
60968W        W30849  24.086  40.318  11.890
60969W        W30850  31.532   9.776   3.180
60970W        W30851  32.963   4.792   4.222
60971W        W30852  40.387  41.897   1.416
60972W        W30853  34.478  11.694   0.390
60973W        W30854  29.645  43.842   2.749
60974W        W30855  15.300  16.087  11.502
60975W        W30856  11.740  14.640   3.672
60976W        W30857  15.723  36.093   1.359
60977W        W30858  24.201   9.316  11.883
60978W        W30859  28.502  26.109  12.526
60979W        W30860   1.266  32.431   2.335
60980W        W30861   0.929  25.616  10.404
60981W        W30862  30.979  24.644  14.334
60982W        W30863  34.605  25.539  12.536
60983W        W30864  25.642   0.311   1.813
60984W        W30865  22.241  31.507  12.081
60985W        W30866   7.833   8.369   0.306
60986W        W30867  42.969  19.087   0.324
60987W        W30868  44.383  16.670  14.959
60988W        W30869   0.425  17.254   3.174
60989W        W30870   8.823  33.876  13.852
60990W        W30871  26.188  33.496  13.883
60991W        W30872  42.393  14.705   4.624
60992W        W30873  40.809   2.952  11.600
60993W        W30874  42.000  32.934   1.446
60994W        W30875  39.808   2.382   0.909
60995W        W30876  44.281   8.176  11.484
60996W        W30877  31.595   2.786   1.879
60997W        W30878  44.836  12.619   4.182
60998W        W30879  30.064  43.432   3.280
60999W        W30880  39.525  30.959  10.432
61000W        W30881  31.941   0.792  10.560
61001W        W30882  31.562   8.844  13.508
61002W        W30883   0.479  44.328  10.600
61003W        W30884  28.673  16.085   3.702
61004W        W30885  38.470  33.062   3.151
61005W        W30886   4.748  42.798  11.419
61006W        W30887   7.326  13.332  11.080
61007W        W30888   8.753   3.751   1.737
61008W        W30889   1.268  10.796   0.287
61009W        W30890  27.027  34.448  12.444
61010W        W30891   0.300   0.285   2.330
61011W        W30892  17.095   6.781   4.317
61012W        W30893  42.991  33.566  10.905
61013W        W30894  18.051   7.906   4.776
61014W        W30895  26.067  12.817   3.267
61015W        W30896  25.700  10.346  14.455
61016W        W30897  35.359  24.596  13.494
61017W        W30898   0.371  41.484  14.326
61018W        W30899  17.107  44.769   1.933
61019W        W30900  20.608  35.451   1.810
61020W        W30901  14.650   6.744  12.937
61021W        W30902  33.493  22.531  11.061
61022W        W30903   5.207  33.487   0.475
61023W        W30904   4.840  34.521  10.994
61024W        W30905  19.216  32.004  13.027
61025W        W30906  44.971   0.807   3.768
61026W        W30907  36.929  14.134   0.861
61027W        W30908  21.624  40.841  10.638
61028W        W30909  33.911  10.272   1.340
61029W        W30910  30.097  13.734   2.888
61030W        W30911  29.930  28.455   2.876
61031W        W30912  35.530   8.845   5.173
61032W        W30913  19.731  35.392   0.383
61033W        W30914  23.072   7.822  10.458
61034W        W30915  25.041  32.975   0.787
61035W        W30916  35.477  27.967   0.470
61036W        W30917   2.797  27.985   1.807
61037W        W30918  25.683  25.984   1.292
61038W        W30919  23.223  44.917   1.709
61039W        W30920   0.344  20.703   0.476
61040W        W30921  26.206  20.160  14.941
61041W        W30922  32.406  11.834  10.140
61042W        W30923  11.773  19.239   0.261
61043W        W30924  33.620  28.010   2.867
61044W        W30925  39.931   6.215   0.825
61045W        W30926  44.904  15.707   0.364
61046W        W30927  44.852  21.026   4.667
61047W        W30928   0.751  22.639  13.026
61048W        W30929  31.975  16.709   3.380
61049W        W30930  11.642  15.243   0.402
61050W        W30931   0.418  28.148  14.432
61051W        W30932  20.261   4.396  10.424
61052W        W30933  28.479  44.755   3.767
61053W        W30934  25.588  12.160  13.983
61054W        W30935  28.938   1.251  10.586
61055W        W30936  36.589  17.158   3.639
61056W        W30937  23.703  23.503   0.292
61057W        W30938  34.917   0.952   0.736
61058W        W30939  38.992  21.680   1.924
61059W        W30940  43.809  31.465  12.421
61060W        W30941   0.493   2.360   4.830
61061W        W30942  25.131  37.367   1.242
61062W        W30943  24.583   1.939  10.457
61063W        W30944  35.895  32.585  12.913
61064W        W30945  36.591  41.340   2.705
61065W        W30946  29.651  22.997  11.102
61066W        W30947   7.732  18.074   4.223
61067W        W30948  17.084  30.639  10.978
61068W        W30949  13.134  27.597  10.437
61069W        W30950  13.661  19.651   2.368
61070W        W30951  44.350  32.920  10.524
61071W        W30952  40.346  44.960   2.230
61072W        W30953   0.452  12.835  12.396
61073W        W30954  12.165  15.314   0.962
61074W        W30955   4.872  43.874   2.401
61075W        W30956  16.777  31.021   4.703
61076W        W30957  19.137  43.890   4.760
61077W        W30958   2.813  25.219  12.379
61078W        W30959  22.725   1.325  11.048
61079W        W30960  27.599  20.618  12.344
61080W        W30961  41.445  35.421   4.794
61081W        W30962  32.975  38.393   3.706
61082W        W30963  14.285  14.694  14.016
61083W        W30964  13.245  12.251  14.906
61084W        W30965  40.953   8.847  14.781
61085W        W30966  16.633  33.047   3.711
61086W        W30967  11.190  36.893  12.456
61087W        W30968  32.981  30.152  12.349
61088W        W30969  25.109  23.600  12.077
61089W        W30970   3.265  30.636   4.348
61090W        W30971  22.154  13.121   4.769
61091W        W30972  33.590  34.871   0.395
61092W        W30973  11.215  44.379  12.526
61093W        W30974   5.273  33.000  13.307
61094W        W30975  17.697  40.438  12.954
61095W        W30976  26.152  41.395  13.328
61096W        W30977  17.261  37.021   4.658
61097W        W30978  34.045  34.019   4.237
61098W        W30979  13.686   1.916  11.406
61099W        W30980  27.996  36.001   4.718
61100W        W30981  25.615  15.699  12.433
61101W        W30982   2.298  36.391  12.839
61102W        W30983  34.040  31.478   2.245
61103W        W30984  28.028  31.051   2.770
61104W        W30985  44.316  43.774   3.845
61105W        W30986  37.385  19.745   5.253
61106W        W30987  24.225   6.204   4.261
61107W        W30988  40.535  42.937  12.964
61108W        W30989  37.898   2.794   3.308
61109W        W30990   9.214  35.007  14.762
61110W        W30991  28.601  24.171   4.204
61111W        W30992  38.333   2.245   0.751
61112W        W30993  32.023  38.057  13.391
61113W        W30994   4.916  30.105  13.003
61114W        W30995  10.241  28.439  12.508
61115W        W30996  29.629   1.303   0.925
61116W        W30997   4.787  11.700  13.410
61117W        W30998  14.603  11.198   3.148
61118W        W30999  11.140  36.431   2.353
61119W        W31000  32.049  20.227   4.767
61120W        W31001   4.359  27.133  14.515
61121W        W31002   4.215   8.292   0.310
61122W        W31003  18.715  36.967   2.404
61123W        W31004  29.021  33.406  10.946
61124W        W31005  32.519  23.626  13.853
61125W        W31006  38.402  36.033  14.762
61126W        W31007   7.802  26.527  10.449
61127W        W31008   5.319  41.914  12.885
61128W        W31009  25.203  19.572   1.808
61129W        W31010  36.868  17.570  14.767
61130W        W31011  34.561  23.068   0.968
61131W        W31012  23.680   3.794  11.978
61132W        W31013   7.841   6.304  14.346
61133W        W31014  18.751   7.192   0.919
61134W        W31015  25.569  26.660  13.959
61135W        W31016  26.588   1.343  14.380
61136W        W31017  36.956  37.848  14.426
61137W        W31018  18.285   3.750   4.300
61138W        W31019   3.930  10.371  12.940
61139W        W31020   6.712  26.517  13.368
61140W        W31021  42.946  19.559  13.896
61141W        W31022  24.049  19.616   3.344
61142W        W31023   4.325  10.634   2.789
61143W        W31024  10.193   7.325  13.002
61144W        W31025   2.290  25.481   0.902
61145W        W31026   2.331  13.732   2.891
61146W        W31027  33.900  16.685   1.250
61147W        W31028  39.882  23.527  10.950
61148W        W31029  31.405  35.390  13.453
61149W        W31030  11.805  28.544   2.354
61150W        W31031  12.709  34.522  13.369
61151W        W31032  41.435   7.364  14.940
61152W        W31033  13.329  15.317  12.497
61153W        W31034   7.368  36.488  13.934
61154W        W31035  17.582   9.659   4.801
61155W        W31036  33.418  37.007  14.794
61156W        W31037  23.655  42.354  12.412
61157W        W31038  38.548  22.052   3.156
61158W        W31039  16.648  12.747   0.893
61159W        W31040   1.959   1.971  12.468
61160W        W31041  40.822  36.477   0.446
61161W        W31042  28.500   1.317  13.801
61162W        W31043   1.970  40.421  13.044
61163W        W31044   7.807  44.470   4.735
61164W        W31045   3.345   4.872   0.837
61165W        W31046  36.934   7.880   4.222
61166W        W31047  15.594  13.654   0.747
61167W        W31048   7.249  25.009  13.441
61168W        W31049  39.413  27.112   3.824
61169W        W31050  11.308  12.851  11.455
61170W        W31051  25.191  17.792  12.846
61171W        W31052   8.852  25.152   1.293
61172W        W31053  44.394  39.322   2.849
61173W        W31054  19.580  43.919  11.945
61174W        W31055  32.565  26.980  13.860
61175W        W31056  33.024  27.529   3.819
61176W        W31057  11.330   8.386   0.289
61177W        W31058  10.367  17.299   2.257
61178W        W31059   5.308   5.770   2.821
61179W        W31060  10.232  30.478   9.926
61180W        W31061   5.726  19.662   2.854
61181W        W31062  17.677  13.808   4.145
61182W        W31063  20.076  24.028  13.497
61183W        W31064  39.530  28.983  14.421
61184W        W31065  21.698  20.597   2.798
61185W        W31066   5.932   2.407  14.759
61186W        W31067  24.529  25.071   3.364
61187W        W31068  37.047  31.131  14.485
61188W        W31069  18.103  40.801   2.828
61189W        W31070   6.257  32.925  12.915
61190W        W31071   6.211   3.308  13.388
61191W        W31072  39.879  12.839  11.406
61192W        W31073  44.305  33.524  13.423
61193W        W31074   3.362  20.533   4.824
61194W        W31075  20.217  29.008  11.380
61195W        W31076  25.131   0.319   4.598
61196W        W31077  44.294  40.311   3.787
61197W        W31078  38.540   5.848   1.829
61198W        W31079   9.656  38.973  14.931
61199W        W31080  17.757  23.170   4.691
61200W        W31081   8.363  39.475   1.894
61201W        W31082  24.610   1.380  14.861
61202W        W31083   0.762  36.581  12.069
61203W        W31084  22.196  20.717  10.642
61204W        W31085   7.262  31.085  13.344
61205W        W31086  40.896   5.811   2.869
61206W        W31087  44.883  16.314  13.473
61207W        W31088  19.109  42.010   3.825
61208W        W31089  31.497  11.761  11.939
61209W        W31090  37.389  39.889   1.334
61210W        W31091   2.893   6.387  12.437
61211W        W31092  35.582  40.939  14.436
61212W        W31093   0.986  34.523  11.501
61213W        W31094  16.222  40.927   0.903
61214W        W31095  33.103  24.151   1.329
61215W        W31096  35.564  27.679  13.447
61216W        W31097   8.380  17.637   0.427
61217W        W31098  22.138  43.446   4.698
61218W        W31099  40.429  14.785   1.268
61219W        W31100  12.160  13.346  12.877
61220W        W31101   6.189  35.358   0.299
61221W        W31102  33.615  25.107  12.409
61222W        W31103   6.909  11.154  14.803
61223W        W31104   9.702  36.910  13.327
61224W        W31105   7.677  15.620  14.852
61225W        W31106  26.562  30.938   0.879
61226W        W31107  26.497   7.270   2.689
61227W        W31108  23.144  10.824  10.487
61228W        W31109  12.785  11.328   2.359
61229W        W31110  28.139  34.504  10.520
61230W        W31111  35.425  41.452  13.311
61231W        W31112  10.316  41.940  13.039
61232W        W31113  31.083   5.740   3.705
61233W        W31114  37.369  21.708   5.203
61234W        W31115  16.782   6.182  12.996
61235W        W31116  24.623  12.643  13.442
61236W        W31117  42.526   3.223  11.104
61237W        W31118  36.858  40.829  13.806
61238W        W31119  15.191  19.583   0.309
61239W        W31120  42.843  17.087   0.341
61240W        W31121   0.443  37.954  14.952
61241W        W31122  12.742  24.019  11.930
61242W        W31123  24.666   7.254   0.246
61243W        W31124  24.146  31.491   2.787
61244W        W31125  22.227  38.865   0.447
61245W        W31126  39.368  27.054   3.232
61246W        W31127  24.028   7.769   2.392
61247W        W31128  34.445   6.682  14.995
61248W        W31129  24.216  39.017   2.183
61249W        W31130  23.009   5.738  11.404
61250W        W31131  12.269  21.587  13.873
61251W        W31132  43.952  38.856   3.322
61252W        W31133  11.769  30.974   3.339
61253W        W31134  22.711  39.946   2.231
61254W        W31135   0.314  31.529  13.455
61255W        W31136  41.502  43.995  13.937
61256W        W31137  29.624  12.718  11.373
61257W        W31138   4.214  20.709  11.534
61258W        W31139  25.011  44.980   4.209
61259W        W31140  39.997  37.391  11.396
61260W        W31141  20.126  32.899  14.764
61261W        W31142  26.659   1.841  14.828
61262W        W31143  37.067   3.809   0.330
61263W        W31144  19.048  21.673  13.955
61264W        W31145  41.989  42.315  12.544
61265W        W31146  11.808  28.040  12.940
61266W        W31147  38.898  15.611   3.158
61267W        W31148  11.808  31.998  13.014
61268W        W31149  15.586  31.001   1.274
61269W        W31150  40.042   8.848   4.261
61270W        W31151   5.371   3.787   4.152
61271W        W31152  35.373  39.450  14.858
61272W        W31153  11.205  33.533  13.347
61273W        W31154  44.883  12.854   3.319
61274W        W31155  28.098   7.747  11.127
61275W        W31156  36.441  22.715  12.383
61276W        W31157  36.448  44.885  14.437
61277W        W31158  36.958   8.200  10.455
61278W        W31159  18.264  30.029   5.781
61279W        W31160   4.391  31.025  14.835
61280W        W31161  27.179  36.040  11.931
61281W        W31162  36.084  13.785  12.574
61282W        W31163  16.725  42.887  14.450
61283W        W31164   5.848  26.543   0.309
61284W        W31165  16.799  31.043  14.299
61285W        W31166  22.159  13.343  12.493
61286W        W31167  40.468  35.860   5.137
61287W        W31168   7.175   1.321   2.243
61288W        W31169   2.800  22.708   1.302
61289W        W31170  15.671  37.576   3.316
61290W        W31171  41.015  23.088  14.850
61291W        W31172  20.727  20.114  12.493
61292W        W31173  12.205  27.962   0.466
61293W        W31174  24.616  28.672  14.422
61294W        W31175  35.580  34.441   4.269
61295W        W31176  37.077  13.146   2.329
61296W        W31177  40.324  14.639   2.709
61297W        W31178  22.732   3.262  10.030
61298W        W31179  19.711  37.872   3.340
61299W        W31180  22.573  24.579   4.798
61300W        W31181  42.836  19.553  10.036
61301W        W31182  34.114   1.824   3.847
61302W        W31183  17.287   9.272  13.455
61303W        W31184   4.271   4.327  12.476
61304W        W31185  30.653  42.834  12.958
61305W        W31186  13.175  21.650  11.499
61306W        W31187  19.717   1.243  12.892
61307W        W31188   6.369  34.596   4.683
61308W        W31189  24.149  26.522  14.916
61309W        W31190   2.919  27.109   4.609
61310W        W31191  18.235  17.073   4.118
61311W        W31192  42.370  18.633   3.692
61312W        W31193  31.976  24.487  12.464
61313W        W31194  28.040  24.579   4.721
61314W        W31195  29.587  34.094   2.393
61315W        W31196  21.536  17.628  13.970
61316W        W31197  30.919  29.007   3.383
61317W        W31198  44.481  40.946  11.521
61318W        W31199  28.521  13.797  12.869
61319W        W31200  30.158  34.095   0.749
61320W        W31201  41.334   8.240  13.505
61321W        W31202  24.584  10.256   3.696
61322W        W31203  37.984   8.316   1.378
61323W        W31204  18.251  39.321   2.683
61324W        W31205  36.978  20.041   1.398
61325W        W31206  35.059  10.711   3.351
61326W        W31207  32.449  31.066   0.947
61327W        W31208   3.901  22.713   1.709
61328W        W31209   3.748  23.538  13.906
61329W        W31210   6.203  35.894  12.952
61330W        W31211  18.072  40.840  11.919
61331W        W31212   6.202  26.066  10.954
61332W        W31213  32.943   0.823   4.268
61333W        W31214  10.203  24.675  14.301
61334W        W31215  17.559  23.104  13.502
61335W        W31216  27.540  41.986  14.819
61336W        W31217  44.488  11.829  12.084
61337W        W31218   5.854  11.706   1.406
61338W        W31219  42.865  37.518  12.860
61339W        W31220   5.306   4.388  14.496
61340W        W31221  43.839   2.740   3.635
61341W        W31222  30.036   0.399   2.321
61342W        W31223  34.894  36.441  12.468
61343W        W31224  10.692  34.422  12.913
61344W        W31225  24.595  43.516   0.373
61345W        W31226   7.863  15.192   3.242
61346W        W31227  22.062   7.416   3.304
61347W        W31228  17.097  13.656   1.241
61348W        W31229  32.084  40.477   5.158
61349W        W31230   2.739  11.230   2.363
61350W        W31231  33.384   7.882   4.267
61351W        W31232  39.376  35.060  13.493
61352W        W31233  10.789  39.358   4.754
61353W        W31234  27.018  22.622  11.496
61354W        W31235  11.657   3.741  13.037
61355W        W31236  26.686  15.275  12.492
61356W        W31237  18.617   2.878   3.292
61357W        W31238  15.142  40.873   1.890
61358W        W31239  28.556  43.802  10.523
61359W        W31240   7.209   3.899   4.250
61360W        W31241  42.333  44.283  14.305
61361W        W31242  34.443  13.603  11.560
61362W        W31243  42.305  20.130  11.066
61363W        W31244  14.094  23.094   2.772
61364W        W31245  13.211   9.730   2.767
61365W        W31246  22.200   9.651   0.254
61366W        W31247  37.501   7.673  10.519
61367W        W31248  14.274  39.812   1.894
61368W        W31249  17.062  14.591  10.115
61369W        W31250  26.606  17.238  12.949
61370W        W31251  25.628  11.239  11.964
61371W        W31252  31.913  28.983   3.721
61372W        W31253   3.246  12.269   0.776
61373W        W31254  41.926  31.571   2.673
61374W        W31255   7.826  18.576   4.705
61375W        W31256  15.121  39.315   3.719
61376W        W31257  20.670  30.436  11.534
61377W        W31258  34.392  17.562   0.803
61378W        W31259  37.545  26.497   3.345
61379W        W31260  31.986  42.840   2.761
61380W        W31261   9.234   2.392  12.040
61381W        W31262  11.807  23.990   3.323
61382W        W31263  24.008  43.983   0.893
61383W        W31264  30.443  23.179  13.521
61384W        W31265  26.459   2.255   1.272
61385W        W31266  11.154   1.441  11.486
61386W        W31267  10.689  22.074   3.247
61387W        W31268  16.293  23.061  12.465
61388W        W31269   9.861   7.213  11.998
61389W        W31270   5.359  10.761  14.499
61390W        W31271  12.708   0.890   1.316
61391W        W31272  22.529  31.482  12.867
61392W        W31273   8.397  20.045   1.415
61393W        W31274  33.405  35.545   3.734
61394W        W31275  31.992  28.957  13.981
61395W        W31276  41.914   2.831   4.149
61396W        W31277  41.855  16.165   4.179
61397W        W31278   8.685   7.853   0.757
61398W        W31279   8.724  36.052  13.487
61399W        W31280   8.766  18.556   3.713
61400W        W31281  26.088   7.361  12.545
61401W        W31282  10.302  19.766  14.020
61402W        W31283  16.269  29.066  12.521
61403W        W31284  38.930  36.521   0.940
61404W        W31285  14.670  23.204   0.369
61405W        W31286  11.157   6.273   2.202
61406W        W31287   5.836  43.806  14.328
61407W        W31288   1.845  15.136   1.879
61408W        W31289   9.831  33.511   4.271
61409W        W31290  15.645  23.635   2.865
61410W        W31291   6.889  18.202   1.797
61411W        W31292  36.882  44.933  11.120
61412W        W31293  14.234  24.659  12.877
61413W        W31294  19.109   8.676   1.368
61414W        W31295   6.828  38.007  12.369
61415W        W31296   3.795   8.162  11.904
61416W        W31297   5.813   3.927   3.229
61417W        W31298  35.358  19.681   0.741
61418W        W31299  44.976   9.760  14.960
61419W        W31300  41.369  18.664  10.518
61420W        W31301   4.435   6.267  13.853
61421W        W31302  44.904  27.663  14.800
61422W        W31303  14.808   5.282  13.316
61423W        W31304  36.854  33.900  12.577
61424W        W31305  33.608  31.478  11.392
61425W        W31306  23.139  43.405  13.480
61426W        W31307  41.957  41.314   2.783
61427W        W31308  18.788  34.029   2.187
61428W        W31309   5.326   9.785  10.495
61429W        W31310  30.585  24.583  12.050
61430W        W31311  35.603   6.404   1.781
61431W        W31312  26.645  31.600   3.244
61432W        W31313  25.656  27.012  12.048
61433W        W31314  40.364  21.041   3.172
61434W        W31315  44.396  44.314   1.369
61435W        W31316  24.608  31.994   4.737
61436W        W31317   2.371   7.853  14.466
61437W        W31318  31.561  30.916  13.956
61438W        W31319  24.223  21.745  10.450
61439W        W31320   5.347   0.337  11.900
61440W        W31321  22.567  28.003  10.917
61441W        W31322   4.935  39.809   3.663
61442W        W31323  22.640  29.942   2.282
61443W        W31324   9.363  33.088   2.735
61444W        W31325   7.889  18.716  11.406
61445W        W31326  39.825  34.053  11.457
61446W        W31327  11.309  42.842  14.302
61447W        W31328  44.917  30.938  11.419
61448W        W31329  41.009  43.393   0.754
61449W        W31330  14.245  30.612  12.985
61450W        W31331   0.816  28.127  12.535
61451W        W31332  30.948  38.443   3.161
61452W        W31333  32.449  11.165   4.266
61453W        W31334  32.003  23.710  12.414
61454W        W31335  18.072  37.968   1.429
61455W        W31336  23.533  34.021   0.335
61456W        W31337  20.216  38.459   2.829
61457W        W31338  37.952  30.493   4.654
61458W        W31339   5.899  17.148  13.532
61459W        W31340  12.284  41.926   1.382
61460W        W31341  12.649  13.846   3.716
61461W        W31342  42.495  32.439  10.557
61462W        W31343   7.248   7.404   3.711
61463W        W31344  43.019  43.461   0.834
61464W        W31345   9.275  27.080  12.076
61465W        W31346  10.632  14.170  11.982
61466W        W31347   2.773  29.522   1.439
61467W        W31348  34.536  17.136   0.753
61468W        W31349   0.248  21.229   0.379
61469W        W31350  27.068   6.844   3.186
61470W        W31351  12.231  12.676  11.882
61471W        W31352  43.394  37.369  11.574
61472W        W31353  19.771  13.138   1.308
61473W        W31354  44.881  23.027   2.278
61474W        W31355   8.764   3.711   1.218
61475W        W31356   5.750  34.888  10.989
61476W        W31357  30.995   2.851  13.489
61477W        W31358   1.386  38.011   0.806
61478W        W31359  43.953  30.000   1.396
61479W        W31360  37.083  27.982  14.828
61480W        W31361  23.984  12.677   3.646
61481W        W31362  30.650  14.621  13.481
61482W        W31363   7.684  18.721   0.292
61483W        W31364  28.130  10.688   4.819
61484W        W31365  33.068   2.807   2.678
61485W        W31366  38.418  26.503  10.449
61486W        W31367  37.928  32.415  10.531
61487W        W31368  36.031  41.909  14.009
61488W        W31369  18.281  17.214  10.416
61489W        W31370  16.704  41.511  10.990
61490W        W31371  32.101  36.537  10.517
61491W        W31372   7.815  42.895   3.748
61492W        W31373  17.662  43.408   4.820
61493W        W31374  14.743  21.169   4.615
61494W        W31375  14.632  35.545  11.565
61495W        W31376  11.774  26.611   3.682
61496W        W31377  28.623  38.423   4.349
61497W        W31378  41.924   3.937  12.062
61498W        W31379  38.826  16.251  10.562
61499W        W31380   3.264  12.753   1.442
61500W        W31381  35.524  44.339   4.159
61501W        W31382  20.539   6.396  13.502
61502W        W31383  39.900   2.937   3.258
61503W        W31384  19.112  26.681   2.724
61504W        W31385  37.991  44.858   1.357
61505W        W31386  11.182  10.368   3.708
61506W        W31387  12.157  23.530   0.947
61507W        W31388  33.553   0.306  10.951
61508W        W31389  12.802   0.480   0.836
61509W        W31390  19.241  11.160   1.730
61510W        W31391  29.942   8.239   3.806
61511W        W31392  42.355   8.210  12.975
61512W        W31393  21.618   6.901  14.376
61513W        W31394   6.897  15.695   3.632
61514W        W31395   9.205  19.647  10.579
61515W        W31396  41.496  36.842  14.451
61516W        W31397  31.437  36.389   3.335
61517W        W31398  38.001  23.650  12.998
61518W        W31399  31.145   4.868   3.723
61519W        W31400   9.152   4.314   0.775
61520W        W31401  12.119  20.238  14.009
61521W        W31402  32.926  21.758  11.046
61522W        W31403  10.708   1.830  14.407
61523W        W31404  39.539   3.280  11.427
61524W        W31405   6.230  28.581   2.753
61525W        W31406   0.357  36.005   4.118
61526W        W31407  25.148  40.422   4.136
61527W        W31408  21.575  15.624   1.263
61528W        W31409  32.083   5.428   2.879
61529W        W31410  24.164  32.493   3.813
61530W        W31411  36.952   5.900   4.807
61531W        W31412  27.555   7.410  11.110
61532W        W31413   6.380   0.798  14.513
61533W        W31414  23.577  36.000   2.798
61534W        W31415   3.423  38.493  10.625
61535W        W31416  28.990  21.063  11.563
61536W        W31417  34.611  44.922  14.452
61537W        W31418  14.707  39.853  13.531
61538W        W31419   0.323  19.710   3.312
61539W        W31420  16.237  25.483  12.477
61540W        W31421  15.737  29.587   2.312
61541W        W31422  18.203   1.840   0.967
61542W        W31423  29.033   3.907  14.422
61543W        W31424  18.698  41.348  11.465
61544W        W31425  37.887  11.760  13.452
61545W        W31426  37.983   1.733   2.367
61546W        W31427  35.963  29.139   1.782
61547W        W31428  43.811  34.003  13.013
61548W        W31429  41.305  39.985  12.378
61549W        W31430   5.422  42.437  14.955
61550W        W31431   8.859   2.442   2.199
61551W        W31432  33.536  29.466   3.744
61552W        W31433  27.624  29.463  13.924
61553W        W31434  39.876  18.598  11.472
61554W        W31435   6.290  15.196  13.994
61555W        W31436   6.700   6.261  14.772
61556W        W31437  19.075  15.728  11.981
61557W        W31438  19.585  12.717  10.917
61558W        W31439  44.972  36.557  10.585
61559W        W31440  31.582   6.767   2.687
61560W        W31441   0.971  18.595  11.488
61561W        W31442   6.806  31.592   4.174
61562W        W31443   0.776   4.751   0.810
61563W        W31444  34.609  25.589   3.714
61564W        W31445  44.855  37.960  10.560
61565W        W31446  16.161  15.284  12.547
61566W        W31447  42.445  21.703   2.216
61567W        W31448  40.381  43.489   0.923
61568W        W31449   6.265   4.885  14.015
61569W        W31450   9.751   8.175  12.462
61570W        W31451  38.370   9.151  14.428
61571W        W31452  33.396  37.460  11.603
61572W        W31453  22.106  14.778   1.875
61573W        W31454  37.014  39.329  14.783
61574W        W31455  34.503  43.824   0.411
61575W        W31456  19.640   4.739  10.944
61576W        W31457  24.505   5.305   4.797
61577W        W31458  19.701  11.248  10.539
61578W        W31459  13.719   1.764  11.048
61579W        W31460  35.887  15.132  11.503
61580W        W31461  13.718  32.043   1.342
61581W        W31462  37.036  32.062   0.314
61582W        W31463  44.983  30.479   0.334
61583W        W31464  37.511  21.607   2.333
61584W        W31465   2.443   2.466   4.762
61585W        W31466  13.218   6.238  14.367
61586W        W31467   1.432  12.815  11.012
61587W        W31468   8.314  36.926  11.936
61588W        W31469  42.452   4.210  14.906
61589W        W31470   7.243  41.906   1.729
61590W        W31471  26.140  24.214   4.174
61591W        W31472  15.121  28.133   3.188
61592W        W31473  33.528  29.564  13.369
61593W        W31474  20.168  27.998  12.943
61594W        W31475   1.407   1.260   2.188
61595W        W31476  43.943   4.432   0.858
61596W        W31477  30.520  30.458   4.757
61597W        W31478  31.079   3.794   0.880
61598W        W31479  35.065  12.653   3.700
61599W        W31480  10.773   5.388   4.729
61600W        W31481  31.145   9.220  12.379
61601W        W31482   7.230   3.295  10.477
61602W        W31483  42.913  34.918   3.328
61603W        W31484  36.541  22.120  11.476
61604W        W31485  32.394  39.437  14.387
61605W        W31486  24.714  13.825  13.862
61606W        W31487  38.935  18.229  14.433
61607W        W31488  33.948   1.388   1.929
61608W        W31489  17.792  18.677  13.977
61609W        W31490   1.293  42.890   2.315
61610W        W31491  29.067   0.872   4.619
61611W        W31492  39.007  21.033   3.381
61612W        W31493  27.600  41.974   2.805
61613W        W31494   0.489  33.998  11.392
61614W        W31495  42.359  35.448  10.987
61615W        W31496  23.154  31.590   4.277
61616W        W31497   5.275  23.733   0.879
61617W        W31498  18.615  28.151  12.437
61618W        W31499  23.665   5.201  11.608
61619W        W31500  27.592  35.559  11.991
61620W        W31501  15.753   4.744   2.717
61621W        W31502  22.635  19.704   2.289
61622W        W31503  40.502  36.579  14.912
61623W        W31504   6.302  11.838   5.124
61624W        W31505  21.074  23.551  11.006
61625W        W31506  20.591   7.776   0.322
61626W        W31507  18.573  23.581  12.929
61627W        W31508  24.230  30.469  13.883
61628W        W31509  16.648  44.941   3.806
61629W        W31510  14.796   6.230  13.334
61630W        W31511   2.853  23.576  13.834
61631W        W31512  41.375  38.424   0.351
61632W        W31513  25.676  26.129  12.459
61633W        W31514  13.156  19.643   0.423
61634W        W31515  39.398  33.510   1.830
61635W        W31516  10.660   3.413  11.879
61636W        W31517  28.056  19.243  14.004
61637W        W31518  36.354  35.083  11.460
61638W        W31519  33.490   2.793   0.760
61639W        W31520  25.643   9.714   2.322
61640W        W31521  29.557  28.624   1.412
61641W        W31522   7.323  21.198  10.563
61642W        W31523  36.987  17.139  11.019
61643W        W31524  27.055  21.158   2.765
61644W        W31525  18.266  24.998   4.134
61645W        W31526  39.521  30.956   1.356
61646W        W31527  43.507  18.121  11.386
61647W        W31528   3.311  25.614   2.379
61648W        W31529  26.184   2.966  11.478
61649W        W31530  26.660  28.099   4.244
61650W        W31531   4.743  33.937  11.997
61651W        W31532  41.508  39.353  11.476
61652W        W31533  19.629   2.292  13.792
61653W        W31534   3.745  11.767  11.494
61654W        W31535   6.243  13.764   2.225
61655W        W31536  36.490  39.816   4.777
61656W        W31537  24.042  10.811   1.220
61657W        W31538  33.963  29.946  14.947
61658W        W31539  12.135  34.055   3.326
61659W        W31540  16.801  27.120  10.920
61660W        W31541   5.798  25.477  11.093
61661W        W31542  14.813  16.796   1.331
61662W        W31543  18.107  26.654  13.848
61663W        W31544   1.960  39.896   0.405
61664W        W31545   9.152  23.009   0.343
61665W        W31546  41.927   4.926  14.317
61666W        W31547   5.231  18.762   0.243
61667W        W31548  23.054  33.522   0.745
61668W        W31549   8.254   8.729  13.381
61669W        W31550  12.123  39.857  10.953
61670W        W31551   1.255  18.715   1.737
61671W        W31552   3.880  36.394   3.744
61672W        W31553   8.860  30.022  13.428
61673W        W31554  33.402  35.890   2.328
61674W        W31555  37.441  26.665   4.138
61675W        W31556  32.558  14.266   3.870
61676W        W31557  37.562  15.634   4.331
61677W        W31558  23.719  26.042   0.318
61678W        W31559  42.809  40.931   4.116
61679W        W31560  31.456  10.735   3.694
61680W        W31561  38.827  13.298   3.146
61681W        W31562  14.275  40.861   3.641
61682W        W31563  13.219   2.469   1.214
61683W        W31564  32.084  15.727   5.248
61684W        W31565  23.643  14.717   0.247
61685W        W31566   4.382  38.433   1.386
61686W        W31567  24.498  14.094   4.720
61687W        W31568  19.725   4.858   2.350
61688W        W31569  31.633  40.858  14.425
61689W        W31570   5.434  16.696   2.692
61690W        W31571  42.429  14.706  13.895
61691W        W31572  22.159  40.868   4.792
61692W        W31573  41.487  37.381   1.417
61693W        W31574  34.030  39.414  12.399
61694W        W31575  19.100   5.723  11.404
61695W        W31576   0.420   8.822   1.901
61696W        W31577   9.661  23.111  12.510
61697W        W31578  22.206  10.751  12.989
61698W        W31579  13.309  22.688   4.630
61699W        W31580   4.384  27.144   3.833
61700W        W31581  13.127  34.584   4.832
61701W        W31582   2.302  23.011   0.788
61702W        W31583   4.346  14.791   0.309
61703W        W31584  14.212  28.638   4.259
61704W        W31585  42.361   2.800   4.292
61705W        W31586  27.498  35.915  14.968
61706W        W31587  35.491  22.029   2.671
61707W        W31588   8.198  28.535   1.778
61708W        W31589   6.310  30.571   3.334
61709W        W31590  41.975  35.905   4.337
61710W        W31591  30.564   7.365   4.221
61711W        W31592  12.753  25.062  13.836
61712W        W31593  23.731  41.356  10.917
61713W        W31594  13.276   8.818  11.938
61714W        W31595   1.324  16.618   0.729
61715W        W31596  21.052  28.445  13.868
61716W        W31597  26.611  40.872   0.754
61717W        W31598   3.383  28.185  11.946
61718W        W31599  36.479  25.028  14.439
61719W        W31600  10.786   3.912   1.699
61720W        W31601  38.903  33.559  12.452
61721W        W31602  24.683  43.442   1.310
61722W        W31603  15.159  23.628  13.322
61723W        W31604  31.982  16.720  10.627
61724W        W31605  33.049  43.367  10.504
61725W        W31606   3.358   0.891   3.270
61726W        W31607  27.492  22.612   4.177
61727W        W31608  22.086  12.715  14.410
61728W        W31609  20.663  40.346  14.476
61729W        W31610  34.370  33.126   4.345
61730W        W31611  24.685  32.489  10.967
61731W        W31612  35.444  29.551  11.478
61732W        W31613  13.745  30.462  13.375
61733W        W31614  31.597   8.249  10.931
61734W        W31615  37.445  13.305   2.710
61735W        W31616  44.330  20.727   1.833
61736W        W31617  12.135  41.378  12.953
61737W        W31618  17.237  14.095   5.133
61738W        W31619  32.604   2.461   0.474
61739W        W31620   7.813  26.593  14.331
61740W        W31621   2.888  13.656  13.899
61741W        W31622  37.969  20.183   2.206
61742W        W31623  34.468   8.357  12.087
61743W        W31624  24.680   4.792  10.032
61744W        W31625  22.213  37.861  13.368
61745W        W31626  32.634  15.813   2.368
61746W        W31627   6.880  31.965   1.393
61747W        W31628  13.260  25.190   4.755
61748W        W31629  43.466  35.065   0.369
61749W        W31630  34.437  19.217   3.323
61750W        W31631  20.677   8.359  14.414
61751W        W31632  24.086  35.017   2.286
61752W        W31633  31.909   7.403  14.492
61753W        W31634  37.369  10.192   3.299
61754W        W31635  18.179  22.042   0.937
61755W        W31636  37.967  14.755  14.786
61756W        W31637   6.383  44.780  13.514
61757W        W31638  11.183   2.931  13.852
61758W        W31639  23.118   0.320  12.495
61759W        W31640  39.338  17.113   1.716
61760W        W31641  42.859  37.855  11.982
61761W        W31642  44.279  23.523   0.414
61762W        W31643  31.083  27.608   1.431
61763W        W31644   1.938  38.468   2.698
61764W        W31645  10.335  20.151  13.913
61765W        W31646  13.770  11.273   3.205
61766W        W31647  27.464  27.481   4.736
61767W        W31648   5.725  42.287  12.875
61768W        W31649  32.012  20.753  12.364
61769W        W31650  40.362  31.013   3.699
61770W        W31651  12.744  42.870  10.439
61771W        W31652  18.137  21.232  11.934
61772W        W31653  38.922  38.002  12.831
61773W        W31654  43.771  34.372   3.819
61774W        W31655  22.743   1.387   4.337
61775W        W31656  20.747  44.956  14.931
61776W        W31657   1.879  40.467   4.344
61777W        W31658   7.872   6.329  11.100
61778W        W31659  38.935  11.310  13.971
61779W        W31660  23.710  33.433   3.322
61780W        W31661   3.338  43.438  11.865
61781W        W31662  17.706   8.236  12.958
61782W        W31663  38.948  38.986  10.418
61783W        W31664   7.896  28.007   0.428
61784W        W31665  19.100  33.979  11.426
61785W        W31666  14.133  39.327  10.638
61786W        W31667  27.046  38.845   1.765
61787W        W31668  11.676  40.419  12.944
61788W        W31669  12.648  24.652   0.878
61789W        W31670   4.435  31.096   4.672
61790W        W31671   1.361  41.811  10.891
61791W        W31672  25.485  13.142  11.497
61792W        W31673   1.840   6.185  11.099
61793W        W31674  40.967   0.763   1.794
61794W        W31675   0.815  16.316  14.401
61795W        W31676  36.553   9.342  12.545
61796W        W31677  33.000   2.831  11.539
61797W        W31678  33.986  15.273  10.895
61798W        W31679  20.092  15.143  14.842
61799W        W31680  13.261  17.735  10.012
61800W        W31681  33.061  43.796   1.871
61801W        W31682  40.875  25.650   4.142
61802W        W31683  41.349   2.752   1.287
61803W        W31684  29.132  38.914   2.225
61804W        W31685   7.344  13.243  13.827
61805W        W31686  33.879   0.747   3.219
61806W        W31687  44.281  18.262  11.862
61807W        W31688  22.193  28.625   0.758
61808W        W31689   0.286  29.657   4.629
61809W        W31690  42.376  32.109  12.844
61810W        W31691  14.298  42.449   3.787
61811W        W31692  33.003  15.197  13.497
61812W        W31693   5.206   7.805   2.347
61813W        W31694  38.913  28.067  14.418
61814W        W31695   1.380  17.213   3.263
61815W        W31696  38.501   0.958   5.116
61816W        W31697  36.395  36.580  10.512
61817W        W31698  16.271  19.620   2.861
61818W        W31699  18.102  11.826   1.247
61819W        W31700   1.455   8.309   3.787
61820W        W31701  28.153  18.785   2.395
61821W        W31702  43.404  34.373  14.957
61822W        W31703  10.643  12.118  12.553
61823W        W31704  26.668  35.540  12.937
61824W        W31705  28.612  20.551  11.573
61825W        W31706  15.638   4.403  13.990
61826W        W31707  29.013  29.471  13.316
61827W        W31708  43.945  17.793   3.733
61828W        W31709  19.079  10.202  13.814
61829W        W31710  38.835  10.366  13.028
61830W        W31711   9.320  21.713  14.796
61831W        W31712  36.353  20.116  10.608
61832W        W31713  42.985  13.278   4.619
61833W        W31714  32.619  25.652   4.123
61834W        W31715  20.164  31.598   3.347
61835W        W31716  15.680   8.807  14.800
61836W        W31717  16.174   2.280   1.750
61837W        W31718   3.354   0.885   4.675
61838W        W31719  30.023  18.278   5.082
61839W        W31720  21.074  27.678  12.888
61840W        W31721  18.209  16.160   4.734
61841W        W31722  41.533  15.740   4.788
61842W        W31723  18.248  23.611  12.488
61843W        W31724  16.197  30.958   1.788
61844W        W31725  23.117  31.141  12.084
61845W        W31726   8.341   8.659  14.384
61846W        W31727  37.537   6.407   2.355
61847W        W31728  20.240  17.152   2.794
61848W        W31729  35.372   6.222   0.804
61849W        W31730  44.304  13.667  14.430
61850W        W31731  14.100  14.158  12.382
61851W        W31732  37.858  24.541   3.864
61852W        W31733  29.152   0.818  10.434
61853W        W31734  29.501   1.395  13.826
61854W        W31735  42.303   1.893  14.425
61855W        W31736  43.300  43.455   1.714
61856W        W31737   5.914   7.827  11.915
61857W        W31738   6.305  38.543   3.710
61858W        W31739  34.587   2.347   1.706
61859W        W31740  34.990  29.563  10.421
61860W        W31741  16.732  19.281   0.285
61861W        W31742  43.843  44.446   0.918
61862W        W31743  24.125  24.042  10.921
61863W        W31744  28.096  30.927   3.673
61864W        W31745  35.921  31.086   2.764
61865W        W31746  20.696   9.317  14.855
61866W        W31747   9.388  20.163  14.497
61867W        W31748  26.157  14.316   1.731
61868W        W31749  32.399  31.620   2.200
61869W        W31750   3.386  39.321   0.254
61870W        W31751   9.662  44.770  13.536
61871W        W31752   0.416  17.110  14.288
61872W        W31753  11.201  13.632  11.961
61873W        W31754  32.933  39.431   2.263
61874W        W31755   5.406  21.066  13.865
61875W        W31756  25.518  30.912   1.226
61876W        W31757  36.516   8.324   0.909
61877W        W31758  27.137  44.267  11.405
61878W        W31759  31.137  38.071  12.495
61879W        W31760  31.049  20.524  12.088
61880W        W31761  35.472  44.259  12.970
61881W        W31762  30.079  38.910   4.189
61882W        W31763  29.471  30.039  13.909
61883W        W31764  24.052  22.679  12.407
61884W        W31765   3.298  31.122   4.660
61885W        W31766  21.208  43.010  11.006
61886W        W31767  16.668  35.962   0.471
61887W        W31768  42.375  30.656   1.718
61888W        W31769   4.350  13.192   0.884
61889W        W31770  17.795  31.901  12.013
61890W        W31771  17.268  13.128  10.907
61891W        W31772  26.049  16.637   3.744
61892W        W31773  17.672  31.427  10.428
61893W        W31774  20.666  29.137   4.286
61894W        W31775  36.533  23.991  12.472
61895W        W31776  14.256  19.134  10.982
61896W        W31777  41.849   8.797   0.323
61897W        W31778   6.783  20.078   4.703
61898W        W31779  32.992   1.841  14.002
61899W        W31780  22.176   2.412   2.727
61900W        W31781  20.238   1.417   0.844
61901W        W31782  39.464  25.610   3.302
61902W        W31783  10.708  41.002  11.584
61903W        W31784  16.769  37.896   1.293
61904W        W31785  38.984  44.817   3.219
61905W        W31786  31.111  41.432  11.433
61906W        W31787  16.641  11.662   2.389
61907W        W31788  31.485  37.393  12.079
61908W        W31789  31.144   4.906   3.350
61909W        W31790  33.398   2.786   0.394
61910W        W31791   1.798  18.566  13.806
61911W        W31792  19.254  37.421  14.367
61912W        W31793  13.696   9.678  11.449
61913W        W31794  24.605  32.625   4.763
61914W        W31795   1.367  36.472  10.405
61915W        W31796   2.352  41.425  11.069
61916W        W31797  17.277  28.498  13.452
61917W        W31798   9.715  42.480   2.708
61918W        W31799   2.336  42.913   4.788
61919W        W31800  41.459  22.736   3.315
61920W        W31801  21.123   7.774   2.887
61921W        W31802  24.646  19.240   0.452
61922W        W31803  15.802  22.040  13.520
61923W        W31804   9.166  10.704  12.444
61924W        W31805  11.187   1.263  13.037
61925W        W31806  10.333  38.554   0.437
61926W        W31807   1.841  22.603   4.668
61927W        W31808  34.443  43.820  13.005
61928W        W31809  20.590  26.627   9.989
61929W        W31810  35.483   9.783   4.309
61930W        W31811   0.294  30.076   2.353
61931W        W31812  35.434   9.738   0.820
61932W        W31813   3.744  41.415  10.994
61933W        W31814  18.568  10.207   1.714
61934W        W31815  36.501  24.505  10.916
61935W        W31816  30.016  12.625   3.825
61936W        W31817  19.191  15.657   3.740
61937W        W31818  17.150  10.691   1.760
61938W        W31819  41.004  20.248   2.682
61939W        W31820  44.868  14.806   3.767
61940W        W31821  26.010  20.741  10.546
61941W        W31822  26.101  36.421  12.832
61942W        W31823  20.144  11.801   5.215
61943W        W31824  19.278  20.245  13.452
61944W        W31825  23.587   7.368  12.990
61945W        W31826   3.258   3.805   3.646
61946W        W31827  41.033  31.096   3.162
61947W        W31828  28.995   8.214  13.312
61948W        W31829   4.780  16.217   2.188
61949W        W31830  44.486  37.908   2.869
61950W        W31831  40.443  43.364   1.211
61951W        W31832  44.869  30.141   0.754
61952W        W31833  32.094  17.689   3.740
61953W        W31834  34.374  23.529  11.939
61954W        W31835  15.125  28.136   4.303
61955W        W31836  26.496  14.732  12.094
61956W        W31837  16.697  37.481  11.406
61957W        W31838  25.148  28.583   3.213
61958W        W31839  20.677  29.458  14.005
61959W        W31840  29.151  33.407   3.321
61960W        W31841   2.329  29.490   2.346
61961W        W31842  44.279  44.795  10.594
61962W        W31843  20.197  25.048   1.813
61963W        W31844   9.359  29.659  11.378
61964W        W31845  19.752   4.290  10.424
61965W        W31846  23.151   2.355  13.944
61966W        W31847  31.992  15.090  13.461
61967W        W31848   7.336  44.449   4.763
61968W        W31849  15.209   7.715  10.498
61969W        W31850  31.037  42.429   4.763
61970W        W31851  26.057  20.241  13.053
61971W        W31852  10.682  13.738   3.670
61972W        W31853  44.779  40.484   0.363
61973W        W31854  36.579   1.888   4.294
61974W        W31855  10.184  13.627  13.794
61975W        W31856  26.552  41.400  14.946
61976W        W31857  16.080  42.978   4.645
61977W        W31858  44.996  18.788  13.056
61978W        W31859   6.296   2.960  11.103
61979W        W31860   8.790   0.874   2.816
61980W        W31861   3.339  29.079  11.513
61981W        W31862  44.340  24.199  10.500
61982W        W31863  10.638   2.896   3.324
61983W        W31864  37.511  36.007  12.053
61984W        W31865  42.417  38.878  11.030
61985W        W31866  14.198  17.611  14.810
61986W        W31867  19.706  38.361  11.516
61987W        W31868   9.155  20.030   0.464
61988W        W31869   1.943   0.803   0.388
61989W        W31870  33.980  17.601   2.756
61990W        W31871  44.383  27.144   3.153
61991W        W31872  34.095  44.395  14.456
61992W        W31873  21.677  35.571  12.068
61993W        W31874  34.877   9.761   3.255
61994W        W31875  11.824  32.453   1.315
61995W        W31876   9.391  12.126  14.281
61996W        W31877  28.439  27.978  11.030
61997W        W31878   6.338  26.173  14.997
61998W        W31879  16.806   1.321   4.335
61999W        W31880   4.302  14.817   4.770
62000W        W31881  22.041  24.672  13.025
62001W        W31882  25.074  17.203   3.731
62002W        W31883  43.383  26.703   4.193
62003W        W31884  28.112  44.783  13.437
62004W        W31885  24.128  29.026  11.406
62005W        W31886   0.312  35.989  12.036
62006W        W31887  44.317  24.639  13.364
62007W        W31888  11.309  19.215   9.631
62008W        W31889  13.707   9.241  13.528
62009W        W31890  44.990  21.751  11.390
62010W        W31891  17.077   7.325  13.886
62011W        W31892  15.165   3.247  14.498
62012W        W31893  15.632  10.810  13.310
62013W        W31894  24.014  23.066  14.913
62014W        W31895  29.047  20.673  14.846
62015W        W31896  11.846   0.373   1.864
62016W        W31897  40.920  42.903  10.507
62017W        W31898  44.364  12.664   4.649
62018W        W31899  21.080   0.318   1.711
62019W        W31900  14.282  22.661   4.327
62020W        W31901  27.621  13.194   4.232
62021W        W31902  34.467  25.168  12.392
62022W        W31903  12.660  24.598   2.851
62023W        W31904   3.226  31.436  13.335
62024W        W31905  16.184   7.311  13.460
62025W        W31906  41.937  42.383   3.703
62026W        W31907  11.351  25.603   3.805
62027W        W31908  44.914  26.590  12.540
62028W        W31909  36.388  33.598   4.722
62029W        W31910  10.718   8.890  12.439
62030W        W31911  28.489  15.697  10.517
62031W        W31912  38.820  33.942  13.991
62032W        W31913  43.508  27.033  10.507
62033W        W31914  39.832  42.985  11.856
62034W        W31915  38.529  28.953   3.170
62035W        W31916  20.736  43.019  12.439
62036W        W31917   6.753   0.920   2.192
62037W        W31918  25.640  14.792  14.311
62038W        W31919  19.768  14.094   5.254
62039W        W31920  26.991  24.018   3.815
62040W        W31921  22.605  37.453   2.837
62041W        W31922  41.916  35.917  13.888
62042W        W31923  18.222  27.947  11.968
62043W        W31924  37.052  10.377  10.444
62044W        W31925   9.730   7.770  11.893
62045W        W31926   5.745  11.819  12.031
62046W        W31927  31.061  26.648   2.898
62047W        W31928  35.386  13.311  12.837
62048W        W31929  36.442  22.168  10.429
62049W        W31930   2.335  33.056  10.612
62050W        W31931   5.230  37.013  10.459
62051W        W31932  13.230  25.494  14.366
62052W        W31933   0.389  20.715  13.950
62053W        W31934   7.290  23.724   0.431
62054W        W31935   6.263  43.401   0.877
62055W        W31936  12.293  31.646  13.376
62056W        W31937  41.864  43.934   1.847
62057W        W31938  27.606  34.464   2.275
62058W        W31939   3.398  38.515  13.818
62059W        W31940   1.463  31.935   2.249
62060W        W31941  25.102   1.961   4.260
62061W        W31942  33.874  43.995  10.502
62062W        W31943  27.124  26.031  12.986
62063W        W31944  11.181  24.526   0.861
62064W        W31945   7.240  40.043  11.860
62065W        W31946  37.862  39.888  10.454
62066W        W31947  23.070  26.144   3.776
62067W        W31948  32.077  38.935   0.379
62068W        W31949  38.826  14.097  11.480
62069W        W31950  43.929  30.620   4.829
62070W        W31951  11.341   5.353  13.957
62071W        W31952   1.881  39.823   2.816
62072W        W31953  36.013  16.280   1.895
62073W        W31954  30.588  14.804  13.938
62074W        W31955  30.146  11.815   3.835
62075W        W31956  34.957   3.915   0.871
62076W        W31957  24.702  29.048   3.693
62077W        W31958  28.456  14.815   2.869
62078W        W31959  17.276  39.446   3.255
62079W        W31960  15.275   5.713  10.438
62080W        W31961  18.248  31.951   4.180
62081W        W31962  14.725  28.053  13.796
62082W        W31963  16.079  34.438   1.415
62083W        W31964  33.507  19.631  12.025
62084W        W31965  23.036  24.107  11.081
62085W        W31966   2.463  11.818  11.906
62086W        W31967   8.753  20.092   5.113
62087W        W31968  12.137  23.029  13.060
62088W        W31969  21.753  28.155  13.504
62089W        W31970  44.297  43.480  11.014
62090W        W31971  37.574  32.445  14.370
62091W        W31972  44.319   1.823   2.179
62092W        W31973  35.579   6.902   3.243
62093W        W31974   4.928  10.295  10.027
62094W        W31975  36.512  21.238   0.956
62095W        W31976  30.565  36.946  14.487
62096W        W31977  31.045  25.564  13.330
62097W        W31978  34.903  44.450   1.336
62098W        W31979  36.550   5.284   3.817
62099W        W31980  30.977  44.999   0.775
62100W        W31981  10.865  13.119  13.433
62101W        W31982  22.031  19.145  14.030
62102W        W31983   9.257  20.235  10.485
62103W        W31984  37.568   9.360  14.993
62104W        W31985  41.316   6.818   0.303
62105W        W31986  40.981  24.181  13.852
62106W        W31987  38.455  32.542  14.878
62107W        W31988   0.967  31.017   0.290
62108W        W31989   1.736  13.764  11.398
62109W        W31990   8.802  26.175   0.428
62110W        W31991  20.605   5.394   4.612
62111W        W31992  18.786  36.358   3.377
62112W        W31993   5.708  15.731   4.144
62113W        W31994   7.288  19.716   4.318
62114W        W31995   4.382  28.929   0.906
62115W        W31996  35.557  20.167  10.894
62116W        W31997  13.126  18.289   3.151
62117W        W31998  17.603  26.584  11.450
62118W        W31999  21.543  42.367  10.978
62119W        W32000  41.373   7.275   2.251
62120W        W32001  26.071   3.459   2.362
62121W        W32002  36.513  23.186  10.924
62122W        W32003   5.919  30.007  11.898
62123W        W32004  25.493  23.521  13.024
62124W        W32005  18.293  13.107  11.411
62125W        W32006   1.891  18.105   2.826
62126W        W32007   6.239  42.814  11.383
62127W        W32008  44.498  30.510   4.624
62128W        W32009  42.862  42.829  14.398
62129W        W32010  30.079  26.056   2.745
62130W        W32011   9.770   2.832  14.349
62131W        W32012  43.497   4.422  10.554
62132W        W32013  16.309  12.271   4.703
62133W        W32014  15.145  25.554  11.932
62134W        W32015  25.702  37.910  11.937
62135W        W32016   3.384  19.565   1.927
62136W        W32017  13.638   7.222   1.351
62137W        W32018  28.993  39.412  12.040
62138W        W32019   4.816  36.872  12.950
62139W        W32020  37.875  44.968  10.614
62140W        W32021  30.019  29.543  11.110
62141W        W32022   0.907  33.539  10.053
62142W        W32023  26.498  20.685   2.380
62143W        W32024  41.035   3.746  13.814
62144W        W32025   5.279  33.928   2.346
62145W        W32026  34.413   1.873   4.838
62146W        W32027  11.215  18.544  11.979
62147W        W32028  12.264  23.697   2.851
62148W        W32029  37.908  30.139   1.227
62149W        W32030   1.733   4.352  12.074
62150W        W32031  35.457   6.183  11.612
62151W        W32032  39.020  40.883  14.959
62152W        W32033  30.125  26.183   0.404
62153W        W32034  10.734   3.395  10.996
62154W        W32035  36.465   6.887   4.625
62155W        W32036   7.850   1.857   2.857
62156W        W32037  40.981   7.383   2.217
62157W        W32038   2.287  13.202   0.776
62158W        W32039  10.652  34.965  10.561
62159W        W32040  12.254  21.194  12.861
62160W        W32041  19.639   6.697   3.851
62161W        W32042  44.431  36.502  13.381
62162W        W32043  25.697  31.446   0.391
62163W        W32044  21.530  43.866   1.220
62164W        W32045  23.059   8.182   4.203
62165W        W32046  18.652  41.976   3.670
62166W        W32047  16.756  29.658   4.131
62167W        W32048  36.888   2.424  10.537
62168W        W32049  33.085  11.829   3.380
62169W        W32050  38.842  11.141  13.364
62170W        W32051   6.886  34.058   1.716
62171W        W32052  31.037   0.351  10.421
62172W        W32053  35.410  26.072   2.764
62173W        W32054  22.727  13.194  13.469
62174W        W32055  20.684  44.929  11.942
62175W        W32056   7.328  35.931  13.514
62176W        W32057  28.987   7.771  12.349
62177W        W32058  17.090  10.844  13.003
62178W        W32059  26.583  21.152  13.340
62179W        W32060  21.119  23.596  12.923
62180W        W32061  43.425  12.709   5.100
62181W        W32062  23.498  44.000   1.304
62182W        W32063  41.020  19.098  12.406
62183W        W32064  29.427  30.978   2.677
62184W        W32065  31.069  43.506  11.018
62185W        W32066   6.778  12.332  12.849
62186W        W32067  30.053  12.229  14.336
62187W        W32068   9.850  29.935  12.480
62188W        W32069   2.852  33.923   2.252
62189W        W32070   9.249  40.025   3.284
62190W        W32071  13.624   7.832  13.352
62191W        W32072  19.583  35.102   0.293
62192W        W32073  36.909  20.125   4.248
62193W        W32074  19.196  26.053   1.918
62194W        W32075  27.471  27.133   5.803
62195W        W32076   7.195  28.178  10.442
62196W        W32077  38.880  44.811  10.444
62197W        W32078  23.655  30.030  11.563
62198W        W32079   7.199  15.252  10.508
62199W        W32080   5.891  43.861   3.307
62200W        W32081  19.622  35.032   0.886
62201W        W32082  12.278   3.774  12.823
62202W        W32083  28.589  34.482   0.945
62203W        W32084  10.825  32.118  10.534
62204W        W32085  15.820  41.960  11.556
62205W        W32086  34.475   2.869   3.765
62206W        W32087  24.017  27.158  13.495
62207W        W32088   6.791  34.579   2.712
62208W        W32089  43.013   0.356   4.194
62209W        W32090  27.530  26.587  14.371
62210W        W32091   8.201  31.961   3.310
62211W        W32092  42.453  15.130  13.906
62212W        W32093  14.603  34.071  13.340
62213W        W32094  14.143  38.835   2.369
62214W        W32095  37.905  40.810  14.468
62215W        W32096   9.324  13.776  10.984
62216W        W32097   1.294  12.358  11.496
62217W        W32098   6.194  32.533   1.915
62218W        W32099  13.158  10.857  13.502
62219W        W32100  30.992   9.702  10.643
62220W        W32101  25.195  43.009   4.801
62221W        W32102  39.859   3.441   2.821
62222W        W32103  37.872  23.610   0.373
62223W        W32104   4.297  23.110  13.975
62224W        W32105  17.775   2.433   1.309
62225W        W32106  20.602  12.147  14.791
62226W        W32107  32.467  26.120   4.756
62227W        W32108   7.859   6.744   2.390
62228W        W32109  30.486  21.141   1.843
62229W        W32110  30.499  40.902   0.826
62230W        W32111   7.840  33.571   5.256
62231W        W32112  19.560   1.464  13.905
62232W        W32113   4.273   5.420  12.411
62233W        W32114  43.021  34.561  11.103
62234W        W32115  22.052   7.682  13.354
62235W        W32116  43.818   5.727   4.639
62236W        W32117   7.196  28.167  14.848
62237W        W32118  41.817  36.848   0.296
62238W        W32119  41.930  30.413   0.321
62239W        W32120  41.986  27.686  12.503
62240W        W32121  38.349  35.413  12.852
62241W        W32122   1.784  26.700  14.470
62242W        W32123   0.343   7.740   2.229
62243W        W32124  18.769  12.776   1.720
62244W        W32125   7.775  22.647  11.454
62245W        W32126   3.813  17.249   0.351
62246W        W32127  44.982  10.236   0.817
62247W        W32128  14.711  38.565  11.389
62248W        W32129   4.869  34.885  13.470
62249W        W32130  33.035  40.541  12.853
62250W        W32131   3.365  40.866   2.223
62251W        W32132  13.321  15.237  13.314
62252W        W32133  44.895  42.305  11.076
62253W        W32134  21.186   1.799   1.225
62254W        W32135  43.869  39.413  11.027
62255W        W32136   4.213  16.582   3.774
62256W        W32137   5.732  20.611  11.450
62257W        W32138   5.709  15.148   4.722
62258W        W32139   9.379  42.866  13.840
62259W        W32140  21.213  41.529  12.892
62260W        W32141  23.506  19.113  11.963
62261W        W32142  23.575  31.009  14.443
62262W        W32143  29.451  19.625   0.462
62263W        W32144  11.728   1.793  10.458
62264W        W32145  23.054  40.038   1.852
62265W        W32146  25.468  39.370  11.046
62266W        W32147   1.474  14.770  12.951
62267W        W32148  10.343  20.672   3.250
62268W        W32149  36.987  40.468  13.907
62269W        W32150  35.542  41.830  11.871
62270W        W32151  13.147  21.624   0.433
62271W        W32152  13.177  30.636   4.217
62272W        W32153  44.277   5.293  11.856
62273W        W32154  16.788  37.946  11.066
62274W        W32155  21.209  28.484  14.298
62275W        W32156  39.989   9.789   3.385
62276W        W32157   0.266  17.725   1.911
62277W        W32158  31.562  43.954   2.745
62278W        W32159  22.578   4.749  13.946
62279W        W32160  13.281  12.705  11.884
62280W        W32161  28.989   8.258   5.133
62281W        W32162  21.211   6.338   1.796
62282W        W32163   4.300  10.276   4.238
62283W        W32164   6.839   8.306  11.864
62284W        W32165  15.280  18.067   3.687
62285W        W32166  21.151  26.195   3.842
62286W        W32167  37.553  36.419   5.285
62287W        W32168   9.744  42.310   0.831
62288W        W32169   1.755   0.260  11.568
62289W        W32170  24.593  36.558  11.389
62290W        W32171  24.108  19.196   4.141
62291W        W32172  29.931  39.377  14.386
62292W        W32173  31.520  39.861  11.014
62293W        W32174  11.806  20.552  12.096
62294W        W32175  10.804  37.464   0.836
62295W        W32176   2.826  40.371  12.010
62296W        W32177   4.937  32.126   0.954
62297W        W32178  23.612   5.856  11.470
62298W        W32179   7.287  16.076  14.817
62299W        W32180  14.265  39.370   4.215
62300W        W32181  42.843  12.810  11.997
62301W        W32182  21.212  25.676   5.296
62302W        W32183  37.946   2.851  13.429
62303W        W32184  37.477  44.422  11.097
62304W        W32185  21.630  23.544  14.470
62305W        W32186   8.245  10.758   3.814
62306W        W32187  42.319  27.118   3.263
62307W        W32188  14.182  14.712   1.211
62308W        W32189  30.436  10.662   0.432
62309W        W32190  16.130  34.385   3.768
62310W        W32191  19.584  12.850   3.379
62311W        W32192  32.599  25.513  13.936
62312W        W32193   2.420  32.549  14.761
62313W        W32194  29.146  39.972   4.634
62314W        W32195  28.999  41.445  12.019
62315W        W32196  15.273   8.762   4.623
62316W        W32197   4.865  42.326  14.343
62317W        W32198   8.758  29.486  14.961
62318W        W32199  40.854  26.540  11.055
62319W        W32200  20.527  32.548  11.588
62320W        W32201  12.662  38.487  13.891
62321W        W32202  40.891  41.865   0.477
62322W        W32203  16.595  42.008  12.838
62323W        W32204  27.085  31.127   2.706
62324W        W32205  21.706  18.280  14.857
62325W        W32206  15.736  29.057   5.093
62326W        W32207  28.599  41.335  13.811
62327W        W32208  27.006  12.228  12.515
62328W        W32209   6.238  14.115  14.503
62329W        W32210  21.245  41.368   3.269
62330W        W32211  15.700  12.648   1.781
62331W        W32212  42.310  14.675   4.220
62332W        W32213  12.315   8.286  12.984
62333W        W32214  12.256  38.887   0.301
62334W        W32215   2.307   8.778   5.123
62335W        W32216  32.062  36.049   1.748
62336W        W32217   4.847  22.726   2.281
62337W        W32218  13.842  22.632  12.046
62338W        W32219  27.646  36.078   0.742
62339W        W32220  18.169  30.053   1.363
62340W        W32221  19.145   0.801   0.290
62341W        W32222  16.201  28.678   3.323
62342W        W32223  30.995  14.213  13.388
62343W        W32224   2.827  17.754   3.226
62344W        W32225  29.936  26.575   0.449
62345W        W32226  13.229   3.390  11.068
62346W        W32227   3.760  12.208   0.910
62347W        W32228   4.895  18.665   0.816
62348W        W32229  30.109  15.749  12.947
62349W        W32230  35.598   4.263   2.260
62350W        W32231  14.250   6.736  12.353
62351W        W32232  19.232  34.932  13.355
62352W        W32233  11.689  17.696   4.283
62353W        W32234  24.026  43.375  13.046
62354W        W32235  22.013  10.177  13.528
62355W        W32236  10.859  12.847  11.998
62356W        W32237  43.482  34.417   4.278
62357W        W32238  13.783   1.332  10.478
62358W        W32239   7.351  15.705   3.652
62359W        W32240  11.224   6.842  12.378
62360W        W32241  20.684  24.642   1.369
62361W        W32242  18.683  20.627  13.821
62362W        W32243  37.462   3.352   2.193
62363W        W32244  37.558  35.472  12.855
62364W        W32245  35.411  16.779   1.731
62365W        W32246  35.521  40.500   1.770
62366W        W32247  41.306  35.881   1.766
62367W        W32248  14.619  15.205   2.875
62368W        W32249  36.413   5.933  10.912
62369W        W32250   6.917  24.529   0.346
62370W        W32251  40.356  41.509   1.451
62371W        W32252  44.862  39.343   0.394
62372W        W32253  10.671   0.765   3.313
62373W        W32254   6.896   9.731   3.225
62374W        W32255  37.892  28.588   1.328
62375W        W32256   4.765  15.802  10.054
62376W        W32257  29.087  17.771  12.378
62377W        W32258  39.454   6.830  14.869
62378W        W32259  23.536  40.389  11.589
62379W        W32260  38.558  39.016   3.784
62380W        W32261  33.564  15.190  13.398
62381W        W32262  29.556   1.857   1.396
62382W        W32263  21.624  17.616   4.710
62383W        W32264  37.337  20.646  13.975
62384W        W32265  31.117  15.730   4.663
62385W        W32266  24.069  41.300   3.672
62386W        W32267   1.248  34.557  11.415
62387W        W32268  33.619  15.213  14.489
62388W        W32269  24.658  29.536  10.473
62389W        W32270  15.622  11.288  14.461
62390W        W32271  31.923  27.989   5.320
62391W        W32272   8.696  11.186   4.780
62392W        W32273   8.223   5.227   4.317
62393W        W32274   4.906  34.447  13.959
62394W        W32275  28.959  28.084   0.763
62395W        W32276  27.168  24.599  10.593
62396W        W32277  23.651  35.007   3.791
62397W        W32278   3.830   8.164   4.251
62398W        W32279  19.122  28.977   3.704
62399W        W32280  13.663  21.103  10.966
62400W        W32281  22.071   8.365  14.388
62401W        W32282  13.350   7.768   2.235
62402W        W32283   8.803  17.590   2.710
62403W        W32284   9.836  23.609  13.876
62404W        W32285  40.404  20.556  12.511
62405W        W32286  16.216  21.260  12.403
62406W        W32287  42.835  28.008   1.707
62407W        W32288  19.168  43.295   3.311
62408W        W32289  10.372  35.863   4.709
62409W        W32290  21.606  43.462  11.994
62410W        W32291  35.596  29.145   1.913
62411W        W32292   2.867  19.720   3.844
62412W        W32293  25.520  23.004  13.904
62413W        W32294  39.934  15.713  11.905
62414W        W32295  26.615  16.628   0.260
62415W        W32296  34.979  23.214  10.506
62416W        W32297  43.392   3.848   3.221
62417W        W32298  25.599  30.603   2.359
62418W        W32299   5.896  32.582  13.979
62419W        W32300   9.248   9.768   4.799
62420W        W32301   7.307  15.792  11.527
62421W        W32302  34.462  37.527  10.558
62422W        W32303   2.922   8.166  12.394
62423W        W32304  24.064   6.911   2.368
62424W        W32305  11.330   4.841  11.960
62425W        W32306  41.016  29.505   1.305
62426W        W32307  15.778  13.135   4.246
62427W        W32308  40.044  34.608   1.440
62428W        W32309   2.877   4.360   3.657
62429W        W32310  34.923  21.225   4.156
62430W        W32311  32.414  35.423   3.342
62431W        W32312  39.479  36.920   0.746
62432W        W32313  10.727  25.037  14.383
62433W        W32314  11.318   3.740  13.363
62434W        W32315  15.189   8.813  10.483
62435W        W32316  26.963  14.142  13.860
62436W        W32317  13.307  15.727   0.473
62437W        W32318  38.940  24.211   1.928
62438W        W32319  37.026  30.435   1.342
62439W        W32320  39.038   7.207  10.642
62440W        W32321   5.261  28.026   4.259
62441W        W32322  42.444  36.059  10.420
62442W        W32323  32.983   8.772  11.941
62443W        W32324  30.932  13.174   4.177
62444W        W32325  34.033  18.257  11.942
62445W        W32326  27.554  44.302  11.451
62446W        W32327  37.564  11.200   2.362
62447W        W32328   0.264  30.588  13.995
62448W        W32329   9.710  38.964  13.030
62449W        W32330  20.137   7.190   1.736
62450W        W32331  42.019   7.335   5.119
62451W        W32332  16.609   5.914  11.056
62452W        W32333  42.474  17.191  13.967
62453W        W32334  12.301  40.954  14.311
62454W        W32335   9.276  26.671  13.436
62455W        W32336  27.592  16.753   1.872
62456W        W32337  15.587  40.372  14.796
62457W        W32338  31.602  33.004   0.745
62458W        W32339  24.669   0.795  11.479
62459W        W32340  10.745  35.881   0.342
62460W        W32341  37.512  33.013  12.848
62461W        W32342   0.280   1.854   2.293
62462W        W32343  28.138  32.621   0.453
62463W        W32344   3.835  36.083  12.093
62464W        W32345  35.099  35.570   3.241
62465W        W32346   1.862  14.762  11.592
62466W        W32347  19.755  25.967  14.921
62467W        W32348  38.355  39.333  10.409
62468W        W32349  26.188  22.642   3.166
62469W        W32350  12.244  31.567  12.544
62470W        W32351   9.285  17.685   1.322
62471W        W32352  14.175  32.474   4.354
62472W        W32353  43.382  38.463   1.262
62473W        W32354  14.769  28.065  12.947
62474W        W32355  31.514  41.004   0.250
62475W        W32356  14.818  38.534  12.008
62476W        W32357   5.211  41.011   3.382
62477W        W32358   9.875   7.203   2.288
62478W        W32359  37.064  17.251  10.409
62479W        W32360  16.786  25.196  13.821
62480W        W32361  14.207  14.278   2.397
62481W        W32362  11.768   9.278   2.207
62482W        W32363  15.280  33.919  12.391
62483W        W32364  36.097  23.511  10.975
62484W        W32365  36.456   8.365  12.397
62485W        W32366  30.548   5.911   1.823
62486W        W32367  21.153   8.676   2.269
62487W        W32368  27.098  18.151   3.151
62488W        W32369  33.515   8.901  13.048
62489W        W32370  32.073  42.481   2.403
62490W        W32371  43.013  31.045  11.091
62491W        W32372  31.032  40.821   1.773
62492W        W32373  42.909  37.885   2.416
62493W        W32374  25.712  37.012   1.304
62494W        W32375  19.260  39.906  14.466
62495W        W32376  40.426  40.002   3.711
62496W        W32377  23.984  44.343   0.966
62497W        W32378  17.114  43.473  11.425
62498W        W32379   8.718   1.904  10.974
62499W        W32380   9.843  41.958  10.627
62500W        W32381  29.621  22.107  14.002
62501W        W32382   6.190   8.227  14.017
62502W        W32383  18.262  42.789   3.682
62503W        W32384  41.517  37.396   4.156
62504W        W32385  28.633  12.190   3.789
62505W        W32386  43.391  16.156  10.965
62506W        W32387   4.703  15.603  14.971
62507W        W32388  26.695  11.331   2.403
62508W        W32389  35.548   1.349  12.574
62509W        W32390  13.163   5.423  10.957
62510W        W32391   4.334  11.338  14.472
62511W        W32392   4.424  31.897  14.319
62512W        W32393   0.350  13.713  12.454
62513W        W32394   6.426  25.533  12.546
62514W        W32395   5.862  21.103   4.700
62515W        W32396   8.761   1.251  13.474
62516W        W32397  44.967   1.740   4.678
62517W        W32398  44.443  24.088   5.120
62518W        W32399  43.504  40.927   4.613
62519W        W32400   3.320  35.923   1.451
62520W        W32401  23.519  43.913  10.933
62521W        W32402  31.089   7.764  14.413
62522W        W32403  14.096  33.600  11.526
62523W        W32404  21.078  19.597  10.497
62524W        W32405   2.858   4.273  12.915
62525W        W32406  39.453  32.453   2.839
62526W        W32407  30.464   8.706   2.751
62527W        W32408  17.734  35.924  12.973
62528W        W32409   4.942  13.215   5.257
62529W        W32410  28.582  11.642  10.499
62530W        W32411  16.145   0.429   2.357
62531W        W32412  24.575  15.648   2.704
62532W        W32413   9.349  24.545  11.011
62533W        W32414  36.467  23.665   2.720
62534W        W32415   8.723  40.868   3.750
62535W        W32416  33.574   6.427   3.677
62536W        W32417  36.401   0.380   2.818
62537W        W32418  39.416  21.684   1.301
62538W        W32419  27.475  22.704  10.445
62539W        W32420  35.907  10.861  13.339
62540W        W32421  24.497  17.767  14.507
62541W        W32422   4.239   2.318   1.308
62542W        W32423  41.981  22.590   3.291
62543W        W32424  12.306  43.831  12.953
62544W        W32425  15.236  20.170   3.176
62545W        W32426  34.096  23.030   4.835
62546W        W32427  12.266  11.747  13.864
62547W        W32428  19.121  29.075  12.028
62548W        W32429  23.628  19.597  13.986
62549W        W32430  21.064   0.951   0.467
62550W        W32431  34.877  13.822  10.897
62551W        W32432  20.269  13.729  14.437
62552W        W32433  39.998  42.324  13.312
62553W        W32434  25.516  39.326   3.728
62554W        W32435   4.710  36.932   1.395
62555W        W32436  33.528  22.529   4.248
62556W        W32437  35.060  31.101   0.377
62557W        W32438  13.635  23.186   3.686
62558W        W32439  16.119  23.610  14.870
62559W        W32440   5.396  32.967   1.779
62560W        W32441  40.051  23.129  11.503
62561W        W32442   3.301  18.640  14.885
62562W        W32443  33.609  21.242  14.002
62563W        W32444  39.326   7.690   0.381
62564W        W32445  34.607  39.314   4.787
62565W        W32446  10.184  23.618  12.403
62566W        W32447  24.585   7.181  11.482
62567W        W32448  22.032   5.352   1.375
62568W        W32449  11.860  31.511  13.473
62569W        W32450  36.509   1.259   1.847
62570W        W32451  36.547  31.556   4.311
62571W        W32452  40.375  44.465  13.411
62572W        W32453  38.973  25.521   1.300
62573W        W32454  11.130   3.848   0.342
62574W        W32455  32.080  20.624  10.965
62575W        W32456  10.284  10.795   4.795
62576W        W32457  21.183   8.376   2.297
62577W        W32458   7.265   7.225   0.314
62578W        W32459  34.916   9.744   0.354
62579W        W32460  41.801  38.865   4.616
62580W        W32461  41.337  37.876  10.582
62581W        W32462  30.096  16.692  13.506
62582W        W32463  40.519  26.631  12.983
62583W        W32464  30.931   8.711  12.892
62584W        W32465  20.566  35.460  14.859
62585W        W32466  30.519  34.049   1.365
62586W        W32467  30.114   0.843   1.893
62587W        W32468  38.477   3.349  10.502
62588W        W32469  34.448  30.970   1.367
62589W        W32470   2.394  22.221   0.410
62590W        W32471  27.094   9.362   2.860
62591W        W32472  36.910  19.687   1.387
62592W        W32473  43.328  33.457  11.084
62593W        W32474   4.704  35.099  11.128
62594W        W32475  16.590  27.037   2.365
62595W        W32476   8.856  23.989  13.819
62596W        W32477  42.521   9.316   1.238
62597W        W32478  18.075  43.971  10.599
62598W        W32479   6.319  37.841   3.276
62599W        W32480  28.557  20.567   4.659
62600W        W32481  37.960  30.588   0.380
62601W        W32482  35.894  13.744   3.168
62602W        W32483  23.137  33.010  14.774
62603W        W32484  44.902  12.726  12.951
62604W        W32485   5.910  13.260  13.824
62605W        W32486  26.026  20.045  10.910
62606W        W32487   6.423  28.171  13.516
62607W        W32488  41.927   2.742  13.929
62608W        W32489  34.599  10.148  13.861
62609W        W32490   1.331  23.661   0.944
62610W        W32491  27.111   7.234  14.840
62611W        W32492   4.406  36.889  10.507
62612W        W32493  14.771  33.384  11.398
62613W        W32494  41.410  14.794  11.494
62614W        W32495  28.104  21.732  14.777
62615W        W32496  20.261  19.244   4.203
62616W        W32497  18.621  10.686  12.829
62617W        W32498  37.483  35.916   1.865
62618W        W32499   9.818  11.308   4.320
62619W        W32500  22.120  42.971  12.039
62620W        W32501  27.132  25.193  13.814
62621W        W32502  40.017  22.631  13.313
62622W        W32503  39.946  19.658  13.802
62623W        W32504  22.016  42.493  12.549
62624W        W32505   0.816  37.905   1.798
62625W        W32506  22.143  24.190  10.902
62626W        W32507  36.888  43.996  12.356
62627W        W32508  40.538  16.645  12.511
62628W        W32509  33.468  38.472  11.089
62629W        W32510   3.793  30.491  12.437
62630W        W32511  28.010  29.652  10.996
62631W        W32512   7.720  26.023   1.439
62632W        W32513  37.469   3.924   3.151
62633W        W32514  37.336   7.827   1.386
62634W        W32515  39.974   7.334   2.724
62635W        W32516  40.412  32.061   5.165
62636W        W32517   2.428   4.257   3.773
62637W        W32518  28.160   0.423  14.502
62638W        W32519  19.123  30.956   5.282
62639W        W32520  30.423  31.021   3.331
62640W        W32521   6.321  37.367   4.223
62641W        W32522  31.479  13.638  10.603
62642W        W32523  43.383  19.630   2.317
62643W        W32524   4.708  36.962   1.703
62644W        W32525   5.912  37.015  10.559
62645W        W32526  44.877  36.997   1.873
62646W        W32527  33.540   3.874   3.188
62647W        W32528  13.263  28.600  12.569
62648W        W32529  11.740  39.392   4.353
62649W        W32530   1.457  31.141   2.844
62650W        W32531  40.369  29.169   0.470
62651W        W32532   7.272  40.404   3.754
62652W        W32533  20.105  34.054  11.931
62653W        W32534  15.583  37.391  12.519
62654W        W32535  10.825  23.007   1.895
62655W        W32536   3.807  25.038  14.940
62656W        W32537   2.424  40.054   3.863
62657W        W32538  34.486   6.700  13.989
62658W        W32539  12.160  21.611  12.882
62659W        W32540  11.766   8.727   3.712
62660W        W32541   1.254  40.842  14.030
62661W        W32542  17.693  15.755  12.457
62662W        W32543  25.499  31.611   2.360
62663W        W32544   3.408  40.916  14.976
62664W        W32545  39.470  21.163  13.345
62665W        W32546   7.254  11.851  13.492
62666W        W32547   5.261  36.407  13.898
62667W        W32548  41.426  18.630   1.861
62668W        W32549  22.154   0.784  13.531
62669W        W32550  36.442  42.362   4.344
62670W        W32551  21.226  18.712   2.221
62671W        W32552   2.847  23.536   2.733
62672W        W32553  20.724  30.155  13.948
62673W        W32554  13.270  34.987  10.943
62674W        W32555  22.106  34.436   1.820
62675W        W32556   6.712  20.563  12.579
62676W        W32557  34.404  34.497  12.967
62677W        W32558   8.833  29.567  10.988
62678W        W32559   8.717  15.615  14.427
62679W        W32560  12.770  33.103  10.954
62680W        W32561  36.849  36.446   4.720
62681W        W32562  12.758  38.958   2.280
62682W        W32563  21.234  37.572   4.769
62683W        W32564   2.860  44.344  13.421
62684W        W32565  21.521   9.221   1.708
62685W        W32566  39.981  13.335  10.974
62686W        W32567  20.149  10.303  13.951
62687W        W32568  27.637  39.914  14.011
62688W        W32569  39.334  17.710  10.890
62689W        W32570   9.167  15.236   0.865
62690W        W32571  22.204   7.779   0.304
62691W        W32572   8.859  15.084   1.345
62692W        W32573  28.550  40.396  10.927
62693W        W32574  14.777  11.684  14.504
62694W        W32575  10.294  41.993   1.866
62695W        W32576  32.432  28.544  11.030
62696W        W32577  18.785  36.057   2.332
62697W        W32578  23.691  13.622   3.321
62698W        W32579   0.447  42.975   3.229
62699W        W32580  22.039  26.175   1.709
62700W        W32581  17.242  22.700  11.037
62701W        W32582  16.185  26.637  10.585
62702W        W32583   7.342  24.067  14.435
62703W        W32584  40.453   6.919  10.998
62704W        W32585  39.391  22.206  11.532
62705W        W32586  16.765  18.067   4.776
62706W        W32587  30.414  34.091  10.568
62707W        W32588  11.685   8.839  10.029
62708W        W32589  16.226  18.632   4.767
62709W        W32590  41.985   3.240   1.347
62710W        W32591  35.021  25.679  14.456
62711W        W32592  30.453  43.870  11.054
62712W        W32593  22.628  17.645  12.870
62713W        W32594  40.493  15.326   2.308
62714W        W32595  44.920  21.741   3.156
62715W        W32596  34.383  30.992   0.805
62716W        W32597   8.891  36.889  11.923
62717W        W32598  20.112  12.764  12.909
62718W        W32599  19.674  19.248   3.845
62719W        W32600   3.951   8.834  14.424
62720W        W32601  12.330  16.260   4.292
62721W        W32602   8.224  22.181  14.937
62722W        W32603  12.736   1.797   1.717
62723W        W32604   7.371  14.339  12.038
62724W        W32605  29.644   6.213   5.136
62725W        W32606  23.511  43.852  12.355
62726W        W32607  20.262  35.076  10.476
62727W        W32608  36.549  38.521  13.966
62728W        W32609  43.836  11.335   1.392
62729W        W32610  27.082   6.687   1.803
62730W        W32611  36.533  20.690  10.934
62731W        W32612  22.210  44.375  10.504
62732W        W32613  34.868  26.091  13.806
62733W        W32614  11.162  41.921   2.408
62734W        W32615  33.466  32.042   2.877
62735W        W32616   7.324  11.643  12.878
62736W        W32617  33.010  39.942   3.649
62737W        W32618   4.792   6.907  11.104
62738W        W32619   2.428  36.555  12.054
62739W        W32620  14.761  22.193   0.355
62740W        W32621   2.436   3.448   3.662
62741W        W32622  13.639   4.914  13.842
62742W        W32623   4.778  23.617   2.187
62743W        W32624  18.243  15.118   0.294
62744W        W32625  10.743  37.525  12.033
62745W        W32626  34.423  14.262  12.999
62746W        W32627  17.764  42.296  11.112
62747W        W32628  20.571  32.043  13.478
62748W        W32629  29.647  11.218   1.711
62749W        W32630  13.784  36.451  12.941
62750W        W32631  38.857   6.918   0.816
62751W        W32632  13.723  41.349  13.028
62752W        W32633  18.742  42.883  14.409
62753W        W32634   1.972  17.698   0.452
62754W        W32635  19.108  39.959   0.257
62755W        W32636  31.540   3.246   0.254
62756W        W32637  28.666  27.501  14.965
62757W        W32638   1.750  30.580  14.779
62758W        W32639   9.790   7.274   1.365
62759W        W32640   7.380  22.668  10.923
62760W        W32641  29.431  21.128   0.939
62761W        W32642  15.668   3.931  12.938
62762W        W32643  20.646  18.083  12.492
62763W        W32644  26.123  14.600  13.357
62764W        W32645  21.131  17.705   3.687
62765W        W32646  30.534  31.920  10.963
62766W        W32647  11.756  40.392  11.578
62767W        W32648  13.612   3.828  14.344
62768W        W32649  15.592  32.490   4.129
62769W        W32650   9.704  34.591   0.409
62770W        W32651  30.544  43.318  12.905
62771W        W32652  36.842  31.401  12.896
62772W        W32653  32.618  22.648   3.673
62773W        W32654  37.907   8.390   2.204
62774W        W32655  15.579  38.476   3.238
62775W        W32656  23.019   7.893   3.780
62776W        W32657   7.682  15.205   2.202
62777W        W32658  17.280  19.708   5.287
62778W        W32659  40.378  41.809   4.268
62779W        W32660   1.413  22.107   4.323
62780W        W32661  16.709  42.888   3.733
62781W        W32662  25.990  23.554   3.812
62782W        W32663  23.160   9.841   1.734
62783W        W32664   9.345   0.257  10.905
62784W        W32665  23.643  29.542   0.280
62785W        W32666  39.472   8.362   4.214
62786W        W32667  39.433  37.540  10.416
62787W        W32668  26.483  26.032   1.281
62788W        W32669  28.513   2.799  13.343
62789W        W32670  13.713  31.457  13.967
62790W        W32671  40.504  18.265   2.689
62791W        W32672  35.529  38.051   4.642
62792W        W32673   2.439  13.209  14.324
62793W        W32674  25.622  24.992  10.437
62794W        W32675   9.691  18.259  14.851
62795W        W32676  41.841   7.859   1.854
62796W        W32677  28.490   3.941   3.310
62797W        W32678   7.259  30.616   4.619
62798W        W32679  21.567   3.831   1.702
62799W        W32680   4.340  15.174   4.713
62800W        W32681  27.104  23.542   5.222
62801W        W32682  28.503   9.357  13.962
62802W        W32683  25.199   1.880   4.698
62803W        W32684  44.888  15.612   2.854
62804W        W32685  20.228  39.974  12.556
62805W        W32686  23.557  32.537   4.228
62806W        W32687  42.318   8.757   0.434
62807W        W32688   7.671  21.235   0.272
62808W        W32689  43.947  33.116   0.341
62809W        W32690  29.519  10.744   2.391
62810W        W32691   6.908   1.286   0.417
62811W        W32692  44.457  12.142  13.932
62812W        W32693  25.604  43.401   1.707
62813W        W32694  33.089  12.312  13.894
62814W        W32695  14.708  12.826  10.154
62815W        W32696   8.865  44.771  12.075
62816W        W32697  40.941  17.259   4.348
62817W        W32698  25.137  14.337  11.495
62818W        W32699  25.150   7.220   3.829
62819W        W32700  22.545  25.555  11.426
62820W        W32701  29.969   7.249   1.439
62821W        W32702  15.734  34.882  10.606
62822W        W32703  12.760   4.271  11.016
62823W        W32704   9.308   6.763  13.884
62824W        W32705   7.340  20.534   4.236
62825W        W32706  44.007  33.613  13.804
62826W        W32707  29.070  37.547  11.494
62827W        W32708  27.545  36.976  14.342
62828W        W32709  27.645  26.198   3.374
62829W        W32710  38.353  15.105  12.829
62830W        W32711  16.289  31.471   1.777
62831W        W32712  23.659  30.076  11.913
62832W        W32713  16.715  22.585   4.712
62833W        W32714  24.207   2.734   3.640
62834W        W32715   0.939  40.401   5.291
62835W        W32716   3.956  22.559  12.355
62836W        W32717  13.256  16.181   2.382
62837W        W32718  19.174  22.208  10.449
62838W        W32719  40.974   8.166   1.743
62839W        W32720  11.170  15.693  12.452
62840W        W32721  23.692  31.028   4.741
62841W        W32722  30.644   2.910  13.860
62842W        W32723  34.500  33.581  10.921
62843W        W32724  22.528  26.077  14.807
62844W        W32725  30.558  11.843  11.121
62845W        W32726  35.562   2.875  14.884
62846W        W32727  17.662  13.681  13.876
62847W        W32728  11.308  30.023  13.898
62848W        W32729  44.900  36.084   2.214
62849W        W32730   2.412  21.640  10.572
62850W        W32731  28.946   7.797  11.030
62851W        W32732  10.257   4.723   3.318
62852W        W32733   9.388  32.630   1.826
62853W        W32734  25.076  30.567   0.964
62854W        W32735  31.025  25.079   3.285
62855W        W32736  28.638  22.558  14.785
62856W        W32737  14.756  33.625   4.203
62857W        W32738   2.850  38.538   3.690
62858W        W32739  22.599  12.641  10.898
62859W        W32740  26.569  18.548  14.426
62860W        W32741  19.051  18.078   2.779
62861W        W32742  17.757  43.497   2.697
62862W        W32743  28.670  17.300   3.215
62863W        W32744   4.903  42.390  11.993
62864W        W32745  11.696  35.415   0.471
62865W        W32746   9.266  15.261  11.415
62866W        W32747  40.458   4.429  13.007
62867W        W32748   4.233  23.240  13.474
62868W        W32749  34.966  19.588  12.367
62869W        W32750  11.626   4.353  12.923
62870W        W32751   7.218  16.677  10.906
62871W        W32752  36.477  11.175   3.272
62872W        W32753  22.577  21.567  14.308
62873W        W32754   9.379  27.572   2.738
62874W        W32755   6.853  35.902   2.662
62875W        W32756  16.137   1.839   2.804
62876W        W32757  21.106  39.877   1.286
62877W        W32758  37.351   2.271   4.353
62878W        W32759  28.179  12.138   0.744
62879W        W32760  10.808  21.688   1.246
62880W        W32761  16.811  40.976  11.501
62881W        W32762  10.160  26.193  12.984
62882W        W32763  33.915   2.454  14.320
62883W        W32764  26.681  24.628  14.433
62884W        W32765   0.454  35.923  13.383
62885W        W32766   8.822  36.954   4.790
62886W        W32767  10.182   1.832   3.297
62887W        W32768  39.001  25.119  11.450
62888W        W32769  25.031   9.792   3.775
62889W        W32770   7.683  40.049  10.488
62890W        W32771  39.547  21.732  11.449
62891W        W32772  13.152  31.127  12.042
62892W        W32773  29.041  10.808  10.592
62893W        W32774  39.065  12.201   3.784
62894W        W32775   1.800   3.949  13.883
62895W        W32776  11.684  39.527  11.449
62896W        W32777   9.712  19.128  13.043
62897W        W32778   5.917  30.142   1.401
62898W        W32779  28.019   7.281   5.221
62899W        W32780  21.682  13.814  14.276
62900W        W32781   8.383   6.227  10.521
62901W        W32782  44.953  20.673   2.208
62902W        W32783  40.423  24.553   3.159
62903W        W32784  33.107  19.534   2.705
62904W        W32785  31.993   1.891   3.244
62905W        W32786  36.920  33.579  10.500
62906W        W32787  34.889   7.822  11.910
62907W        W32788  23.220  35.563  12.052
62908W        W32789  17.772   5.692   0.805
62909W        W32790   1.453  40.483  10.899
62910W        W32791  29.936  17.583   5.619
62911W        W32792   3.443  33.579   4.637
62912W        W32793  43.352  26.023   0.884
62913W        W32794  30.107  44.812  13.447
62914W        W32795  29.663  31.941   2.292
62915W        W32796  29.667  11.253   4.163
62916W        W32797  25.468  21.522   1.447
62917W        W32798   0.444  23.151  10.600
62918W        W32799  37.999  25.964  11.019
62919W        W32800  16.583  13.251  12.372
62920W        W32801  40.968  32.125  12.959
62921W        W32802   4.833   5.699   9.980
62922W        W32803  25.966  20.099   1.313
62923W        W32804  16.801  25.012  10.591
62924W        W32805  29.434   3.382   3.848
62925W        W32806  35.358  24.141   0.884
62926W        W32807  35.949  27.451   3.191
62927W        W32808  17.242  37.841  10.536
62928W        W32809   2.857  41.890  14.844
62929W        W32810  39.976  21.573   2.234
62930W        W32811   5.232  23.224  12.073
62931W        W32812  11.705  27.008   1.930
62932W        W32813  20.081  44.003  13.932
62933W        W32814  31.497  37.423  14.351
62934W        W32815  42.967  30.099   3.661
62935W        W32816  21.598   8.323  13.997
62936W        W32817  27.015  15.208   2.326
62937W        W32818  11.632  41.298   3.833
62938W        W32819  22.232   0.250   1.233
62939W        W32820  38.359  17.292  14.384
62940W        W32821  10.833  38.425  14.372
62941W        W32822   0.420  11.671   4.771
62942W        W32823   0.899  25.612  10.051
62943W        W32824  13.308  33.547   0.887
62944W        W32825  32.071  11.862  13.933
62945W        W32826  21.754  22.252  14.977
62946W        W32827  11.344  19.109  11.604
62947W        W32828  13.618  30.551   0.346
62948W        W32829  19.204  10.804  11.430
62949W        W32830  40.410  20.622   1.414
62950W        W32831  21.099  20.068  12.033
62951W        W32832  14.599  15.123   3.303
62952W        W32833   6.419  43.801   3.828
62953W        W32834   8.672   4.365   3.193
62954W        W32835  21.231  37.361  10.015
62955W        W32836  20.094  25.051  14.284
62956W        W32837   5.723  11.242  11.125
62957W        W32838  42.410  42.319  12.570
62958W        W32839  19.747   1.469   4.740
62959W        W32840  14.773  44.320  13.979
62960W        W32841  16.143  33.127  12.355
62961W        W32842  28.005   8.825  10.542
62962W        W32843  20.102  20.550   1.261
62963W        W32844   5.279  38.502   3.677
62964W        W32845  10.317  12.270  14.516
62965W        W32846  23.506  21.651  13.002
62966W        W32847   3.737   0.360  11.954
62967W        W32848  22.120  12.615  14.895
62968W        W32849   8.193  37.364  12.479
62969W        W32850  29.949  21.107  14.312
62970W        W32851   9.773  19.070   1.398
62971W        W32852  28.615  28.151   0.412
62972W        W32853   6.708  21.107   0.947
62973W        W32854  24.500   5.209   2.360
62974W        W32855  43.431  40.503   1.721
62975W        W32856  23.644   0.321   4.222
62976W        W32857  42.882  28.185  14.850
62977W        W32858  24.692  40.800   2.826
62978W        W32859  38.069  27.022   0.323
62979W        W32860  40.813  22.235   0.456
62980W        W32861  39.419  43.803   1.380
62981W        W32862   2.750  27.565  14.806
62982W        W32863  42.526  28.170  13.406
62983W        W32864  22.626  30.114  12.371
62984W        W32865  23.588  17.214  11.935
62985W        W32866   1.391   6.204  14.436
62986W        W32867  41.345  34.500  14.336
62987W        W32868  28.532  38.073   0.876
62988W        W32869  34.119  40.459   1.876
62989W        W32870  29.454  22.191  13.538
62990W        W32871  36.924  32.056   1.355
62991W        W32872   3.376  32.987  10.421
62992W        W32873  44.269  42.000  14.871
62993W        W32874  40.509  36.373  13.516
62994W        W32875  13.116  19.690  12.984
62995W        W32876  34.950   6.311  11.396
62996W        W32877  41.443  28.986   1.741
62997W        W32878   4.732  20.100  11.378
62998W        W32879  11.808   7.249   4.199
62999W        W32880   0.873  30.560   1.878
63000W        W32881  20.652   5.690   1.722
63001W        W32882  18.715  10.329  14.024
63002W        W32883  16.176  27.141   4.122
63003W        W32884  17.700  41.008  12.558
63004W        W32885  12.231   2.227  11.539
63005W        W32886   0.437  13.207   1.743
63006W        W32887  24.687  15.712   3.214
63007W        W32888  19.707  30.566  11.881
63008W        W32889  43.281   6.364  14.797
63009W        W32890  35.016  15.120   0.877
63010W        W32891  19.556  29.569  11.032
63011W        W32892   7.394  27.192   2.849
63012W        W32893  34.905  20.216   1.871
63013W        W32894   6.791  28.437  14.405
63014W        W32895  37.473   2.762   0.926
63015W        W32896  41.940  26.106  11.986
63016W        W32897  24.633  31.075   4.122
63017W        W32898   5.755  35.860  10.508
63018W        W32899   5.315  28.545  13.350
63019W        W32900  15.247  41.856   3.657
63020W        W32901  32.431  21.192  13.353
63021W        W32902  24.485  22.227   4.825
63022W        W32903   0.948  17.673   1.833
63023W        W32904  11.729  32.022  14.281
63024W        W32905   1.464  25.118  12.564
63025W        W32906   9.659  29.537  14.450
63026W        W32907   4.430   3.953   1.340
63027W        W32908  23.209  20.271  14.824
63028W        W32909   3.942  44.878   3.713
63029W        W32910  38.957  16.641   1.767
63030W        W32911  15.782  43.793  11.448
63031W        W32912  30.082  11.678   4.742
63032W        W32913  30.001  14.141   3.358
63033W        W32914  41.333  34.943   4.207
63034W        W32915  27.451  27.193   9.575
63035W        W32916  20.594   4.775   3.652
63036W        W32917   7.208  38.029   0.819
63037W        W32918   2.234  34.460  10.557
63038W        W32919  15.193  19.763  13.532
63039W        W32920   0.471  43.006   1.386
63040W        W32921  20.680   6.896  14.994
63041W        W32922  13.142  40.463  12.352
63042W        W32923   0.976  30.551   1.332
63043W        W32924  42.879  20.544   3.741
63044W        W32925  15.110  26.665  11.883
63045W        W32926  14.773  24.638   1.755
63046W        W32927  39.814  20.761  12.559
63047W        W32928   5.726  31.608   0.791
63048W        W32929  11.243  17.206  11.981
63049W        W32930   3.860   4.282  13.976
63050W        W32931  39.824  32.479   0.881
63051W        W32932   5.728  12.262   3.251
63052W        W32933  29.458  24.046   2.714
63053W        W32934   5.371  27.953   4.724
63054W        W32935  30.544   0.485  11.421
63055W        W32936   5.298   3.420  14.979
63056W        W32937  43.286   3.267   4.685
63057W        W32938  15.700   8.863   1.271
63058W        W32939   4.773  10.636  10.452
63059W        W32940  30.017  24.979   0.388
63060W        W32941  24.591   2.787  14.845
63061W        W32942   9.873  39.831   3.331
63062W        W32943  15.709  34.515   3.248
63063W        W32944  27.098  26.085  10.139
63064W        W32945  40.935  36.366  13.959
63065W        W32946  14.326  15.643  11.410
63066W        W32947  41.323   0.894  14.866
63067W        W32948  23.687  30.052   2.742
63068W        W32949  21.169  25.509  12.369
63069W        W32950  30.520  18.191   5.312
63070W        W32951  15.663  37.540   4.260
63071W        W32952  40.368  18.142  13.905
63072W        W32953  42.428  36.094   4.334
63073W        W32954  38.049  29.116  11.078
63074W        W32955  35.892   3.373   4.301
63075W        W32956   8.699  29.069   1.706
63076W        W32957  31.958  13.674  13.933
63077W        W32958   0.941   0.428  14.832
63078W        W32959  36.555  17.801   4.141
63079W        W32960  17.741  38.067   4.254
63080W        W32961   4.363  35.000  11.904
63081W        W32962  18.133  22.103  13.535
63082W        W32963  35.516  20.617   2.241
63083W        W32964   8.242  25.967  11.407
63084W        W32965  18.640   0.901   1.911
63085W        W32966  25.653  15.317   4.601
63086W        W32967  39.511  24.656  14.943
63087W        W32968  38.868  33.904  10.976
63088W        W32969   6.794   2.800  11.116
63089W        W32970  41.401  38.953   2.754
63090W        W32971  14.735   5.817   1.888
63091W        W32972  19.594  36.028  10.106
63092W        W32973   6.771   2.910  14.951
63093W        W32974   0.894   8.748   5.256
63094W        W32975   8.336  12.227   4.256
63095W        W32976  28.989  22.007  13.832
63096W        W32977  35.375  27.524  13.901
63097W        W32978   7.209  36.921  14.433
63098W        W32979   3.950  14.820  10.968
63099W        W32980  23.553   2.373  10.481
63100W        W32981  34.039  39.548  11.384
63101W        W32982   6.764  12.272   1.237
63102W        W32983  28.581   4.209  14.948
63103W        W32984   9.368  34.878   0.777
63104W        W32985  22.529  20.635  14.024
63105W        W32986   2.462   0.377   3.791
63106W        W32987   8.835   1.865   2.322
63107W        W32988  22.074  39.809  12.041
63108W        W32989   9.325  42.311   3.272
63109W        W32990  30.587  36.460  14.819
63110W        W32991  13.612  30.512  10.413
63111W        W32992  33.436   3.934  13.971
63112W        W32993  32.509  30.586  11.960
63113W        W32994  11.644  39.560   3.165
63114W        W32995   9.156  26.962   4.234
63115W        W32996  41.854  14.230   0.413
63116W        W32997  18.088   1.967   2.180
63117W        W32998  15.786  25.093   3.290
63118W        W32999  24.535  15.295  14.923
63119W        W33000  44.935  32.061  14.852
63120W        W33001  31.001  11.168  11.875
63121W        W33002   7.272  30.982  11.882
63122W        W33003  22.589  18.151  12.388
63123W        W33004  23.142  14.111   0.326
63124W        W33005   0.261   1.942  11.604
63125W        W33006  43.330  11.253   2.207
63126W        W33007  42.942  13.144  14.000
63127W        W33008   2.461  39.022   3.686
63128W        W33009  26.022  42.937  12.070
63129W        W33010  27.638  39.816   4.745
63130W        W33011  36.347  40.486  13.943
63131W        W33012  32.399  35.892   2.211
63132W        W33013  33.927  11.745  11.477
63133W        W33014  31.535  26.616   0.937
63134W        W33015  28.454  25.555  14.349
63135W        W33016  29.476   3.235  12.580
63136W        W33017  34.552   1.474  12.541
63137W        W33018  11.759   4.815  11.409
63138W        W33019  14.768   0.929  14.474
63139W        W33020  43.872  36.533   0.364
63140W        W33021  42.330   6.749  11.089
63141W        W33022   6.736   0.889  11.428
63142W        W33023  16.227  27.095   1.897
63143W        W33024  24.569  32.076   0.785
63144W        W33025   3.788  17.244   3.373
63145W        W33026  14.141  26.567  10.525
63146W        W33027  21.634  35.858   2.809
63147W        W33028  22.637  33.458   2.724
63148W        W33029  23.098  18.611  12.516
63149W        W33030  26.558  20.722  12.080
63150W        W33031  39.411   9.704   3.641
63151W        W33032  26.086   4.799  13.826
63152W        W33033   0.302   0.830   3.649
63153W        W33034  10.783  34.934   9.944
63154W        W33035  41.503   1.300  12.472
63155W        W33036  15.138  11.264  14.383
63156W        W33037  30.921  40.049  12.968
63157W        W33038  10.152   3.435  10.028
63158W        W33039  15.119   7.350  11.118
63159W        W33040  29.498  29.022  13.460
63160W        W33041  33.009  11.832   1.775
63161W        W33042  22.164  40.998  14.339
63162W        W33043  32.125   6.408   0.463
63163W        W33044   8.828   7.381   0.880
63164W        W33045  30.113   5.219  14.446
63165W        W33046   8.170   8.392   2.689
63166W        W33047  41.028  43.782  12.557
63167W        W33048  40.029  14.297   2.689
63168W        W33049  22.241   7.797  12.063
63169W        W33050  19.196  40.408  13.415
63170W        W33051  31.611  36.379   2.889
63171W        W33052  15.126  40.408   1.213
63172W        W33053  37.418  14.698  14.799
63173W        W33054   0.906   8.771  12.991
63174W        W33055  43.953  10.287  13.486
63175W        W33056  36.081   4.719   5.191
63176W        W33057   0.262  40.507  14.506
63177W        W33058  16.117   8.243   1.904
63178W        W33059  24.116   1.395  13.865
63179W        W33060  43.500   5.227   0.738
63180W        W33061  21.114  27.586   0.881
63181W        W33062  24.071  12.325   1.324
63182W        W33063  19.236  42.946  13.056
63183W        W33064  22.136  31.131  14.424
63184W        W33065  27.455  27.098   2.676
63185W        W33066  39.053  31.086  10.418
63186W        W33067  26.973  17.180  10.529
63187W        W33068  38.860  38.443   4.767
63188W        W33069   4.705  13.736   4.715
63189W        W33070  17.694  21.204  14.308
63190W        W33071  32.601  28.066  13.917
63191W        W33072  42.382   0.263  10.517
63192W        W33073  39.024   9.696  12.933
63193W        W33074  21.115  24.504  10.908
63194W        W33075   0.283  33.534   1.273
63195W        W33076  35.059  14.823   2.727
63196W        W33077   5.234  34.934  14.497
63197W        W33078  16.152  19.200   4.628
63198W        W33079  27.623  18.608   0.802
63199W        W33080   9.848   1.328  11.038
63200W        W33081  30.975  28.051  11.067
63201W        W33082  34.444  14.624   4.153
63202W        W33083  10.747   2.471  14.419
63203W        W33084  13.809  32.525   0.344
63204W        W33085  26.590  12.340  10.504
63205W        W33086  42.290  23.726  12.860
63206W        W33087  36.525   1.352   4.741
63207W        W33088  41.969  44.327   4.836
63208W        W33089   7.279  24.575   1.336
63209W        W33090  12.816  19.212  13.024
63210W        W33091   8.820  10.866   1.384
63211W        W33092   5.388  19.722   4.683
63212W        W33093   6.851  15.598   4.130
63213W        W33094  39.005  18.589  14.925
63214W        W33095  14.324  17.641   4.221
63215W        W33096  28.055  41.524  11.563
63216W        W33097  20.523  40.009   4.319
63217W        W33098  36.519  36.488   3.165
63218W        W33099  38.425  32.416   0.796
63219W        W33100  26.128  35.377  11.016
63220W        W33101  43.476  42.411   3.246
63221W        W33102   4.386  15.235  12.081
63222W        W33103  30.149  37.063  12.528
63223W        W33104  15.656   5.817  14.808
63224W        W33105  14.756  25.977   4.816
63225W        W33106  15.728  31.106  13.389
63226W        W33107  19.759  16.568   3.187
63227W        W33108   7.260  18.153  12.512
63228W        W33109  41.352  26.047   2.384
63229W        W33110  28.063  13.336   1.350
63230W        W33111  10.243   6.361   2.854
63231W        W33112  42.831  35.872   2.810
63232W        W33113  43.408   6.747  14.004
63233W        W33114  20.248  35.035  13.471
63234W        W33115   5.259  22.025   2.350
63235W        W33116  24.172  44.827  11.448
63236W        W33117  41.010  24.095   4.762
63237W        W33118  18.271  20.745  11.888
63238W        W33119  15.627   1.481   3.862
63239W        W33120  37.410   2.459   4.831
63240W        W33121  32.510   4.833  12.954
63241W        W33122  18.158  32.980  14.841
63242W        W33123  17.747  21.689   2.823
63243W        W33124  38.890  32.427  13.503
63244W        W33125  20.572  14.258  10.643
63245W        W33126   4.827  42.897   1.398
63246W        W33127  26.631   2.309  12.403
63247W        W33128   0.881   5.342   2.226
63248W        W33129  29.510  28.566  14.859
63249W        W33130  31.585  26.649  12.894
63250W        W33131  19.605  22.225  10.466
63251W        W33132  35.363   7.677  11.896
63252W        W33133   2.470  34.097  10.969
63253W        W33134  27.509   2.237  14.985
63254W        W33135  27.591   0.936  12.452
63255W        W33136  42.778  27.583  11.478
63256W        W33137  14.803  28.441  12.570
63257W        W33138  23.701   9.824  10.561
63258W        W33139  13.123  26.670   3.707
63259W        W33140  25.683   9.271  14.489
63260W        W33141  12.837  11.866   1.767
63261W        W33142  25.071  31.038   2.334
63262W        W33143  25.095  22.046  11.075
63263W        W33144  30.602  32.939   1.759
63264W        W33145   3.274   0.374  13.010
63265W        W33146   9.782  24.621   3.153
63266W        W33147  13.669  25.627   2.346
63267W        W33148  12.767  15.312  13.324
63268W        W33149  25.169  36.901  11.389
63269W        W33150   9.341  15.248   0.346
63270W        W33151   2.842  13.815   4.129
63271W        W33152  29.471  43.498  12.345
63272W        W33153  33.919   9.344  14.292
63273W        W33154  42.394  22.064  14.944
63274W        W33155  26.048  21.740  13.356
63275W        W33156  41.930   6.883  13.864
63276W        W33157  38.409  12.808   4.306
63277W        W33158  43.468  11.859  12.843
63278W        W33159  15.189  44.893  13.364
63279W        W33160  11.154  12.743  10.963
63280W        W33161  37.411  24.215   3.205
63281W        W33162  29.043  43.405   1.828
63282W        W33163  43.310  32.493   0.821
63283W        W33164  22.172  43.331  12.426
63284W        W33165  21.751  14.276   1.774
63285W        W33166   5.234  22.627   1.332
63286W        W33167  21.571  15.613  11.908
63287W        W33168  21.027  41.425   3.862
63288W        W33169  12.280  17.783  14.363
63289W        W33170  42.333  16.087   4.189
63290W        W33171   8.202  15.652   3.631
63291W        W33172  15.599  35.580   4.704
63292W        W33173   1.293   4.228   2.841
63293W        W33174  38.408  12.275   2.316
63294W        W33175   1.252  39.512   2.671
63295W        W33176  42.452   9.351   0.960
63296W        W33177  39.883  40.424  11.432
63297W        W33178  27.028  19.610  12.037
63298W        W33179  42.827   0.357   1.256
63299W        W33180  30.651  33.954  11.467
63300W        W33181   0.290  13.698  10.531
63301W        W33182   9.831  18.294   2.202
63302W        W33183  15.702   9.363   1.716
63303W        W33184  36.484  14.594  12.957
63304W        W33185  22.997  25.547  12.371
63305W        W33186  32.115  11.791   0.836
63306W        W33187   2.341  23.677   3.228
63307W        W33188  21.156   1.261   2.237
63308W        W33189  39.917  25.552  13.358
63309W        W33190  44.305  39.054  12.081
63310W        W33191  14.187  15.705   2.288
63311W        W33192   1.844  35.976   1.811
63312W        W33193  16.099  38.067   4.815
63313W        W33194   1.906  23.159   1.286
63314W        W33195  11.734  33.944  13.930
63315W        W33196   3.307  35.414  11.548
63316W        W33197  39.916  38.873   4.170
63317W        W33198  23.190   3.949   3.164
63318W        W33199  23.206  40.390   3.637
63319W        W33200   6.679  28.086   4.124
63320W        W33201  16.690  17.792  11.099
63321W        W33202   3.337  28.176  12.492
63322W        W33203  36.423  24.536  11.381
63323W        W33204   2.250   8.793  10.072
63324W        W33205  13.325  22.199  14.027
63325W        W33206   8.173  35.568   0.299
63326W        W33207  12.257  20.194   1.901
63327W        W33208  11.307  41.455   0.745
63328W        W33209   3.792  17.663  11.888
63329W        W33210  26.620  42.985  14.480
63330W        W33211   2.772   6.231  14.357
63331W        W33212  15.764  20.081   3.777
63332W        W33213   0.471  29.650  12.443
63333W        W33214  36.017   3.764   0.372
63334W        W33215  11.754  32.018   4.615
63335W        W33216  12.279  26.165  10.891
63336W        W33217   6.268  13.643   1.389
63337W        W33218  15.579   4.320  14.916
63338W        W33219  42.524   7.865  11.920
63339W        W33220  40.475  40.816   0.886
63340W        W33221  24.200  32.427  12.513
63341W        W33222  20.166  13.286  12.070
63342W        W33223  36.469  19.644   4.767
63343W        W33224   2.838  18.571  12.997
63344W        W33225   7.766   4.209  11.895
63345W        W33226  23.091  40.913   2.709
63346W        W33227  40.811  27.087  14.969
63347W        W33228  12.610  26.471   3.669
63348W        W33229  20.647  12.134   1.738
63349W        W33230  10.837   3.275   0.451
63350W        W33231  35.931  20.150   1.830
63351W        W33232  43.339  13.724   0.323
63352W        W33233  35.924  25.033  13.400
63353W        W33234  34.104   7.349   4.175
63354W        W33235  12.257  27.646  13.372
63355W        W33236  31.985  17.266  12.554
63356W        W33237  42.886  35.480   4.186
63357W        W33238  13.106  10.233  12.476
63358W        W33239  38.494   8.161   0.259
63359W        W33240   4.752  27.059  10.105
63360W        W33241  29.176  24.158   0.376
63361W        W33242  22.669   8.692  12.911
63362W        W33243  20.206  14.215   0.275
63363W        W33244  24.129  36.935   0.776
63364W        W33245  15.272  10.637   0.383
63365W        W33246  10.814  29.619  13.836
63366W        W33247  24.187  24.649  11.001
63367W        W33248  34.469  27.163  11.527
63368W        W33249   9.153  17.199   3.307
63369W        W33250  24.117  33.423   0.410
63370W        W33251   5.412   3.914  11.527
63371W        W33252  11.856  29.936  12.568
63372W        W33253  14.779  11.842  12.366
63373W        W33254  19.700  34.385   2.271
63374W        W33255  30.455  32.132   3.688
63375W        W33256  38.937   7.362   4.687
63376W        W33257  29.601  16.738   0.369
63377W        W33258   8.391  34.104  12.928
63378W        W33259  20.124  27.975   0.784
63379W        W33260  14.698  16.567  12.493
63380W        W33261  21.030  11.227   3.760
63381W        W33262   1.835  37.970   2.782
63382W        W33263  29.424  36.875   1.866
63383W        W33264  10.715  34.893   2.242
63384W        W33265  32.130  40.995   3.377
63385W        W33266  24.717  35.997   0.789
63386W        W33267   6.185   8.276  12.881
63387W        W33268  10.732  36.012  13.905
63388W        W33269  23.984  20.705   0.446
63389W        W33270  41.983  33.945  12.550
63390W        W33271  36.441  33.995   4.235
63391W        W33272  10.868   4.406   1.931
63392W        W33273  27.091   9.368   3.715
63393W        W33274  10.188  37.526   2.888
63394W        W33275   9.286  16.072   4.312
63395W        W33276  30.107  30.951   2.395
63396W        W33277  36.954   2.403   2.334
63397W        W33278  28.647   2.397   3.668
63398W        W33279  26.019  39.504  12.498
63399W        W33280  14.788   8.405   0.406
63400W        W33281  33.389   1.333  11.446
63401W        W33282   9.879   3.761  14.926
63402W        W33283  13.648  22.170  10.463
63403W        W33284  31.491  11.288   2.785
63404W        W33285   9.675  27.464  11.909
63405W        W33286  30.609   9.164  13.959
63406W        W33287  17.191  31.599   4.347
63407W        W33288  28.500  35.382   3.868
63408W        W33289  25.109  12.331   0.769
63409W        W33290  39.064  38.071  14.873
63410W        W33291  37.835  18.637   3.255
63411W        W33292  13.824  27.961  13.793
63412W        W33293   6.233  30.628  14.319
63413W        W33294  27.023   1.733   2.669
63414W        W33295  43.418  30.950  12.429
63415W        W33296  44.335  28.039   1.360
63416W        W33297  38.048  41.536   3.327
63417W        W33298  30.475   2.747   3.714
63418W        W33299  26.036   4.302   2.391
63419W        W33300  27.483   6.288   3.647
63420W        W33301  32.555  44.004  10.596
63421W        W33302  33.942   3.941  10.948
63422W        W33303  28.673  31.069   4.283
63423W        W33304   4.267   8.861  12.024
63424W        W33305  38.038   0.405  10.405
63425W        W33306  43.294  35.007  13.326
63426W        W33307  12.177  40.540  14.470
63427W        W33308  39.876  20.061  14.987
63428W        W33309  27.568   0.352   0.376
63429W        W33310  36.023  19.535   3.718
63430W        W33311  42.414  26.997  12.968
63431W        W33312  29.664   2.934  12.041
63432W        W33313  14.130   5.309  12.885
63433W        W33314  24.571  28.445   1.776
63434W        W33315  40.424   7.291   0.857
63435W        W33316  34.054  22.083   0.385
63436W        W33317  13.684  29.464  10.510
63437W        W33318   6.779  30.941  10.934
63438W        W33319  34.429  37.025   1.338
63439W        W33320  37.428  19.605  13.037
63440W        W33321  21.164  17.714  10.472
63441W        W33322  10.254  20.100   3.248
63442W        W33323   6.395   7.707   1.297
63443W        W33324  25.984  20.245   0.959
63444W        W33325  19.542  16.153  13.060
63445W        W33326  29.926  10.779  11.581
63446W        W33327  30.971   3.919  11.856
63447W        W33328  27.174  39.980   2.336
63448W        W33329  41.538  31.460   4.223
63449W        W33330  30.593  25.573   2.318
63450W        W33331  34.089   5.871   1.845
63451W        W33332  35.484  32.515  12.072
63452W        W33333  24.163  38.462   0.760
63453W        W33334  33.933  31.088  12.572
63454W        W33335  23.187  36.885  14.987
63455W        W33336  37.081   7.768  11.599
63456W        W33337  20.239  33.956   4.681
63457W        W33338  16.208   1.241   0.404
63458W        W33339  12.852  32.503  13.483
63459W        W33340  27.502  41.042   1.775
63460W        W33341  15.747  33.877  14.281
63461W        W33342  29.990   6.815  13.033
63462W        W33343   5.319  28.147  10.638
63463W        W33344   0.332   4.372  13.429
63464W        W33345   5.884  28.167   0.963
63465W        W33346  13.783   4.269  14.824
63466W        W33347  28.475  17.583   1.373
63467W        W33348  15.805  22.523  11.086
63468W        W33349  40.401   1.289  12.890
63469W        W33350  34.489  30.467  12.356
63470W        W33351  26.623  19.089   0.933
63471W        W33352  43.275  14.753  14.429
63472W        W33353  21.715  17.748  14.916
63473W        W33354  17.679  22.573   1.415
63474W        W33355   5.851  19.624   3.196
63475W        W33356   2.823  22.647  14.779
63476W        W33357  30.119   2.282  14.026
63477W        W33358  12.328  22.723   2.361
63478W        W33359  11.849  44.271   3.864
63479W        W33360   7.356   7.322   3.183
63480W        W33361  35.474  37.876  12.929
63481W        W33362  19.118   7.730  10.888
63482W        W33363  41.510   9.689  13.402
63483W        W33364  10.817  44.293   1.247
63484W        W33365   3.427  30.544  13.853
63485W        W33366  17.253  26.556  12.892
63486W        W33367  26.981  39.441  12.067
63487W        W33368   2.343  25.534   0.464
63488W        W33369   0.402  39.475   3.160
63489W        W33370  12.284   3.775  13.487
63490W        W33371  18.579  37.946  14.943
63491W        W33372  18.051   3.348   3.774
63492W        W33373  26.584  38.056   1.779
63493W        W33374  18.633  18.718  12.959
63494W        W33375  25.175  24.651  12.877
63495W        W33376  35.923   5.826   0.346
63496W        W33377   7.821   3.289  10.962
63497W        W33378  35.901   1.321  11.004
63498W        W33379  44.789  27.563   3.686
63499W        W33380  12.358  19.261  11.890
63500W        W33381  20.652  21.174   0.873
63501W        W33382   2.315  22.642  11.516
63502W        W33383   4.707  30.949  11.477
63503W        W33384  29.154  34.932  12.517
63504W        W33385   6.265  23.056   2.826
63505W        W33386   4.431  21.747  14.900
63506W        W33387  41.041  18.613   1.210
63507W        W33388  30.549  43.374   0.379
63508W        W33389  27.663  41.500  13.010
63509W        W33390  33.097  27.100  11.431
63510W        W33391   9.270  35.560   2.263
63511W        W33392  11.188  28.667   4.164
63512W        W33393   9.805  41.979  12.539
63513W        W33394  42.942  32.465   4.239
63514W        W33395   8.318   0.764   4.299
63515W        W33396  23.231  43.777  11.003
63516W        W33397  11.170  22.547   4.756
63517W        W33398  19.768  12.223  12.461
63518W        W33399  26.025   0.806   2.390
63519W        W33400   0.917  28.632   1.343
63520W        W33401  41.398  14.603   1.913
63521W        W33402   6.220  34.109  11.067
63522W        W33403   2.431   6.391   0.939
63523W        W33404  36.847  34.420  13.419
63524W        W33405  18.137  43.490  11.871
63525W        W33406  30.035  22.203  13.060
63526W        W33407   7.767  24.621  12.447
63527W        W33408  35.514  23.180   0.751
63528W        W33409  10.791  34.448   2.213
63529W        W33410  14.687   1.920  13.997
63530W        W33411  22.560  36.094   3.349
63531W        W33412  38.960  17.208   1.748
63532W        W33413  36.928  35.957  10.573
63533W        W33414  20.589  29.555   5.259
63534W        W33415   0.267  14.835   3.252
63535W        W33416  29.120  44.300  13.064
63536W        W33417  28.594  16.753   3.782
63537W        W33418   5.781   7.325   3.650
63538W        W33419  20.053  26.058  12.343
63539W        W33420  42.336  43.845  14.882
63540W        W33421  39.375   3.881  11.946
63541W        W33422  13.134   2.372   4.719
63542W        W33423  18.067  23.205   3.757
63543W        W33424   3.459  23.651  13.826
63544W        W33425  41.827  34.393   1.344
63545W        W33426  44.804  30.439   4.668
63546W        W33427  31.646  23.522  14.865
63547W        W33428  38.906  28.001   3.811
63548W        W33429  39.038   1.341   0.862
63549W        W33430   9.738  31.494  12.829
63550W        W33431  37.010  34.996   0.433
63551W        W33432  30.474  17.740  14.293
63552W        W33433  27.132  41.963   4.310
63553W        W33434  24.099   1.467  13.518
63554W        W33435  10.879  36.897  13.895
63555W        W33436  19.178  12.765   1.903
63556W        W33437  29.588  36.493  13.947
63557W        W33438  31.094  24.578   0.395
63558W        W33439   1.302  39.443  10.984
63559W        W33440  26.095  21.240  12.377
63560W        W33441  10.222  10.218   3.711
63561W        W33442  22.182  19.625  12.502
63562W        W33443  34.446  15.225  10.479
63563W        W33444  38.823  40.455   2.898
63564W        W33445  25.614  21.125  13.934
63565W        W33446   5.426  27.502  13.943
63566W        W33447  34.069  35.925   2.217
63567W        W33448  25.982  12.682  13.312
63568W        W33449  35.029  24.516   1.757
63569W        W33450  16.182  36.943   5.688
63570W        W33451  39.368  25.041  14.331
63571W        W33452  44.496   6.814   4.191
63572W        W33453  28.574  42.388  13.386
63573W        W33454  37.002  16.131   1.813
63574W        W33455  12.214  28.594   2.780
63575W        W33456  35.480  11.766   1.767
63576W        W33457  21.258  14.603  12.885
63577W        W33458  43.313   9.356   4.647
63578W        W33459  25.573  34.484  12.951
63579W        W33460  11.750  41.007  13.419
63580W        W33461  17.716  37.483   2.717
63581W        W33462  32.628   3.378  11.015
63582W        W33463  26.166  21.130   1.377
63583W        W33464  41.804  35.055  13.056
63584W        W33465  39.317  43.966  12.431
63585W        W33466  39.405  23.582  13.323
63586W        W33467  18.168  24.989   3.845
63587W        W33468   8.793   4.318  11.560
63588W        W33469  31.467   1.468  14.485
63589W        W33470  21.250  37.075   1.775
63590W        W33471  28.963  44.803   1.858
63591W        W33472  37.466   3.893   1.862
63592W        W33473  26.613  19.723  14.838
63593W        W33474  36.097  25.673   5.106
63594W        W33475  39.385  24.645   4.607
63595W        W33476  41.445  14.700  14.280
63596W        W33477  10.651  38.423   0.339
63597W        W33478  12.319  11.247   2.769
63598W        W33479  38.895  26.470  13.548
63599W        W33480   1.470   2.888   0.818
63600W        W33481  35.493  43.312  12.575
63601W        W33482  32.470   2.337  12.476
63602W        W33483   0.366  42.998   0.270
63603W        W33484  14.256   3.800  14.825
63604W        W33485  41.356  42.824  13.968
63605W        W33486  20.751  13.149   1.305
63606W        W33487   5.358  22.244   2.834
63607W        W33488  10.332  43.296   0.861
63608W        W33489  19.744  42.861   0.747
63609W        W33490   8.363  24.059   1.246
63610W        W33491   0.313  30.070   1.820
63611W        W33492  35.584  35.390  10.981
63612W        W33493  11.223  25.002   4.724
63613W        W33494  35.973  31.132   3.631
63614W        W33495   7.353  26.055  11.418
63615W        W33496  29.164   9.207  14.006
63616W        W33497  41.522  39.365   2.289
63617W        W33498  16.153  19.170   3.870
63618W        W33499  37.482  13.794   1.841
63619W        W33500  25.634  36.046  13.875
63620W        W33501   6.802  31.424  14.954
63621W        W33502  22.592  44.354  13.490
63622W        W33503  23.105  43.856  11.913
63623W        W33504  11.357  33.468   3.700
63624W        W33505   5.328  20.176   3.344
63625W        W33506  33.022  44.346  14.982
63626W        W33507  35.945  10.206  12.933
63627W        W33508   6.247  25.081   0.931
63628W        W33509  32.405  29.459  13.951
63629W        W33510  10.645  41.418   2.292
63630W        W33511   6.806  32.886  10.978
63631W        W33512  31.015  43.477   1.244
63632W        W33513  24.195  14.827   4.699
63633W        W33514   7.216  17.679   2.253
63634W        W33515  39.326  18.553   4.797
63635W        W33516   8.787  18.121   1.847
63636W        W33517  43.785  18.051   0.743
63637W        W33518  35.904  43.940  13.356
63638W        W33519  14.250  42.320   2.367
63639W        W33520  21.595  26.141  10.549
63640W        W33521  13.325  10.158   5.300
63641W        W33522  35.405  23.131  11.403
63642W        W33523  39.928  41.417  11.044
63643W        W33524  32.043   0.836   3.352
63644W        W33525  35.453   2.346  14.912
63645W        W33526  29.174  27.176   2.200
63646W        W33527  29.135  38.332  11.035
63647W        W33528  13.167  22.558  11.929
63648W        W33529   4.375  16.276   4.681
63649W        W33530  40.424  40.385   3.851
63650W        W33531  23.601  16.662  13.821
63651W        W33532   9.252  23.998  14.943
63652W        W33533  28.494  41.896   1.716
63653W        W33534   6.790  27.528  11.375
63654W        W33535  10.747  24.196  14.816
63655W        W33536  24.645  14.747   3.243
63656W        W33537  26.970  41.304  12.925
63657W        W33538  10.693  26.501  11.893
63658W        W33539   7.768  20.665  14.874
63659W        W33540  16.706  20.667   0.909
63660W        W33541  29.600  18.600  13.512
63661W        W33542  10.191  32.450   2.819
63662W        W33543  10.259  15.803  12.893
63663W        W33544  27.546  28.636   1.359
63664W        W33545  26.532  22.996  13.331
63665W        W33546  34.595  35.502   0.453
63666W        W33547  25.551   1.950   2.751
63667W        W33548  13.178  28.929  14.953
63668W        W33549   3.391  28.154  11.478
63669W        W33550   0.878  42.817   2.808
63670W        W33551  29.988  44.871   4.185
63671W        W33552  26.483  32.063  10.904
63672W        W33553  36.440  20.694  12.862
63673W        W33554  16.780  10.732   2.221
63674W        W33555  37.889  18.276   4.122
63675W        W33556  28.942  18.295   0.812
63676W        W33557  25.571   1.342  14.369
63677W        W33558   8.229  16.286   3.311
63678W        W33559  30.633   7.353  14.355
63679W        W33560  32.068   3.807  12.959
63680W        W33561   1.940   7.354  11.099
63681W        W33562  40.515  36.978   1.856
63682W        W33563   6.350  20.731   3.339
63683W        W33564  15.577  10.236   3.822
63684W        W33565  18.736  19.772  12.412
63685W        W33566  16.182  13.235  12.837
63686W        W33567  25.021  39.974   4.809
63687W        W33568  23.559  18.781   1.380
63688W        W33569  19.162  20.065   3.747
63689W        W33570  29.934  22.223  10.583
63690W        W33571   2.761   4.230   4.321
63691W        W33572  37.066  42.952   1.307
63692W        W33573  12.246   1.817   0.343
63693W        W33574  42.360  32.439  12.443
63694W        W33575  38.984  43.010   2.368
63695W        W33576   2.386  33.096  13.944
63696W        W33577  16.706   2.756   3.382
63697W        W33578  42.500  14.788  11.077
63698W        W33579  38.329  42.973  11.930
63699W        W33580   1.788  27.466  10.610
63700W        W33581   5.788   9.374   0.440
63701W        W33582  21.536   6.193  11.555
63702W        W33583  20.671  14.181   0.818
63703W        W33584  32.457   6.833  12.436
63704W        W33585  37.983  38.364  14.306
63705W        W33586  21.062  27.183   1.851
63706W        W33587  28.024   6.816  12.997
63707W        W33588   8.325  11.641   2.291
63708W        W33589  11.313  29.094   3.171
63709W        W33590  13.693  11.359  14.483
63710W        W33591   3.938  38.353   3.847
63711W        W33592  10.874  36.589  10.485
63712W        W33593  21.674  20.119   4.297
63713W        W33594   0.293  18.231  13.903
63714W        W33595  38.983  43.303  14.446
63715W        W33596  10.865  40.451  13.528
63716W        W33597   0.275  29.956   4.202
63717W        W33598  34.025  42.301   1.804
63718W        W33599  10.247  17.179  12.920
63719W        W33600  19.671   4.282   4.174
63720W        W33601  10.341   0.351   0.400
63721W        W33602   2.442  44.385  14.784
63722W        W33603   5.255   5.860  10.408
63723W        W33604  29.064  43.932   2.681
63724W        W33605  40.369  16.108  12.339
63725W        W33606  15.206  20.719   1.891
63726W        W33607  19.701  16.167   1.910
63727W        W33608   2.915   9.818  14.010
63728W        W33609  40.041  28.506  12.511
63729W        W33610  17.085  33.949  11.514
63730W        W33611  35.925   1.376  13.533
63731W        W33612  32.615  42.481  12.066
63732W        W33613  38.869  33.402  10.469
63733W        W33614  36.033   6.897  11.065
63734W        W33615  41.478   4.934   2.372
63735W        W33616  37.856  36.548  11.001
63736W        W33617  25.690  38.555  12.370
63737W        W33618   5.803  25.628   1.859
63738W        W33619  22.101  36.071  11.097
63739W        W33620   3.275  33.430   1.891
63740W        W33621  25.687  20.132  12.892
63741W        W33622  31.067  13.804  13.425
63742W        W33623  10.759  37.066   2.377
63743W        W33624  43.012  39.944   1.317
63744W        W33625  42.000  43.368   2.194
63745W        W33626  40.451  18.143  12.964
63746W        W33627   5.725  31.598  12.416
63747W        W33628   8.748  17.606   4.330
63748W        W33629   8.208   5.302  13.545
63749W        W33630  12.160  17.231   3.322
63750W        W33631  16.083  13.292  14.369
63751W        W33632  19.278  31.130  12.509
63752W        W33633  23.649  32.470  13.820
63753W        W33634  24.126   9.336   4.344
63754W        W33635  33.448  22.066  12.494
63755W        W33636  31.021  38.986  12.360
63756W        W33637  37.853  22.708  10.431
63757W        W33638  21.215   5.797  12.954
63758W        W33639  37.073   4.831   2.696
63759W        W33640  11.193  27.671  14.471
63760W        W33641  40.415  26.693   1.385
63761W        W33642  41.373  24.479   4.779
63762W        W33643  30.447  33.572   4.154
63763W        W33644  41.873  12.247   3.236
63764W        W33645  34.399  41.043  13.414
63765W        W33646   0.852   4.324  14.013
63766W        W33647  43.006  40.820   1.862
63767W        W33648   7.829  37.939   4.713
63768W        W33649  16.230  43.798   1.334
63769W        W33650   6.773  31.624   2.779
63770W        W33651  24.557  39.975  14.025
63771W        W33652   9.865  20.616  14.449
63772W        W33653  17.590  16.616   0.903
63773W        W33654  28.443  25.123  14.351
63774W        W33655  15.274  17.715  11.592
63775W        W33656  22.176  30.579   1.427
63776W        W33657  39.065  10.239  13.366
63777W        W33658  25.520  19.093  13.927
63778W        W33659  39.003  19.726   1.823
63779W        W33660  33.998  37.039   1.308
63780W        W33661  28.459  32.991   1.337
63781W        W33662  21.525   5.931  12.008
63782W        W33663  43.492  44.972   1.787
63783W        W33664  36.879   0.439  10.496
63784W        W33665  12.186  15.093   2.199
63785W        W33666  26.961  12.743  14.843
63786W        W33667  18.626  17.732  14.926
63787W        W33668  38.490  37.886   2.419
63788W        W33669   6.735  23.188  12.513
63789W        W33670  26.598  25.080  14.509
63790W        W33671  14.192   4.738   4.212
63791W        W33672  15.586  36.008  13.000
63792W        W33673   8.299  43.336  13.476
63793W        W33674  21.052  38.368  12.067
63794W        W33675  24.100   3.795  11.059
63795W        W33676  41.302  18.675   2.313
63796W        W33677  25.556  42.430   4.716
63797W        W33678   4.264  42.310  10.938
63798W        W33679  14.732  41.524  12.895
63799W        W33680  17.136   6.756   1.739
63800W        W33681  19.153  38.500  10.517
63801W        W33682  44.754  34.390   1.427
63802W        W33683  11.698  19.720   4.696
63803W        W33684   0.466  19.085   0.794
63804W        W33685  35.391  39.024   4.825
63805W        W33686  42.834   2.787   0.901
63806W        W33687   9.214  18.618   1.228
63807W        W33688  11.253  20.164  13.340
63808W        W33689  27.185   9.734   1.737
63809W        W33690   4.806  25.609   3.365
63810W        W33691  30.075  19.143  11.948
63811W        W33692  25.129   6.840  14.838
63812W        W33693  17.151   8.676   2.191
63813W        W33694  28.086   9.315   3.770
63814W        W33695  23.632  10.291   1.330
63815W        W33696  44.439  10.733   4.808
63816W        W33697  22.638  23.005   0.313
63817W        W33698   6.778  43.435  13.483
63818W        W33699  36.946   3.347   2.826
63819W        W33700  23.539  36.401   1.305
63820W        W33701  33.982   3.368   0.376
63821W        W33702   4.888  21.580   9.984
63822W        W33703  44.313  38.526  12.573
63823W        W33704  14.794  13.830   4.756
63824W        W33705  37.486   2.445  11.911
63825W        W33706  11.267  25.646  11.593
63826W        W33707  23.496   9.297   3.691
63827W        W33708  24.620   5.704  11.518
63828W        W33709   5.819  25.096  13.464
63829W        W33710   7.389   4.923   3.381
63830W        W33711  40.039  27.568   0.300
63831W        W33712  15.228  38.965   4.307
63832W        W33713  41.982   1.840   2.373
63833W        W33714  19.277   0.769  12.993
63834W        W33715  29.555  13.666  10.985
63835W        W33716  11.811  43.961  11.376
63836W        W33717  12.283  32.007  13.500
63837W        W33718  23.687  35.038  11.062
63838W        W33719  23.152  44.351  10.988
63839W        W33720  35.588  10.799   0.737
63840W        W33721  27.077   2.788   4.640
63841W        W33722  13.341  16.726   5.308
63842W        W33723  22.167  10.786   2.751
63843W        W33724  26.103  30.137  11.046
63844W        W33725  24.534  19.177   0.952
63845W        W33726  22.006  30.088  14.922
63846W        W33727  14.774  13.654  14.426
63847W        W33728  16.115  35.514  13.931
63848W        W33729  40.517  27.671   1.864
63849W        W33730  19.278  35.916  14.369
63850W        W33731  34.909  21.074  11.889
63851W        W33732   9.673  37.477   1.426
63852W        W33733  12.671   7.754  11.907
63853W        W33734   2.887  43.365  11.522
63854W        W33735  40.029  12.345  14.992
63855W        W33736  14.205  11.773   0.816
63856W        W33737  13.815  28.002   1.375
63857W        W33738   9.859  17.135   9.505
63858W        W33739  24.640  28.960   2.207
63859W        W33740  14.261   5.384  14.444
63860W        W33741  18.294  41.452  12.899
63861W        W33742  24.499  16.796  12.060
63862W        W33743  20.672  39.350   2.667
63863W        W33744  41.410   5.750   1.442
63864W        W33745  43.867  17.711   2.880
63865W        W33746  29.038  27.021  13.829
63866W        W33747  21.083  18.210  13.922
63867W        W33748  21.657   6.723   4.700
63868W        W33749  24.137  30.072  12.927
63869W        W33750  33.462  14.746   3.764
63870W        W33751   8.176   1.305  11.072
63871W        W33752  11.854  28.620  14.928
63872W        W33753  31.639  40.954  10.631
63873W        W33754  31.021  21.698   0.474
63874W        W33755   7.688  17.642   1.353
63875W        W33756  19.188  32.588   4.658
63876W        W33757   3.425   2.394   1.393
63877W        W33758   0.440   1.933   0.934
63878W        W33759   5.200   9.786   1.711
63879W        W33760  22.538  29.641   5.260
63880W        W33761  19.756  38.520  12.052
63881W        W33762   3.906  26.073   3.773
63882W        W33763  33.000  31.998  10.918
63883W        W33764   3.800   2.314   3.786
63884W        W33765  23.026  28.669  14.780
63885W        W33766   6.817  14.787   1.284
63886W        W33767  18.582   4.811   5.230
63887W        W33768  17.113  26.987   1.875
63888W        W33769  39.392   9.862  12.034
63889W        W33770   1.438  36.571   0.345
63890W        W33771   3.384  12.646   4.339
63891W        W33772  39.945  36.013   2.282
63892W        W33773   6.759   9.205  11.447
63893W        W33774  20.057  13.244   2.346
63894W        W33775  40.353  42.324   2.741
63895W        W33776  40.364   3.869  11.078
63896W        W33777  27.103   1.255   3.780
63897W        W33778   0.972   9.258  14.274
63898W        W33779   5.788  14.694   4.323
63899W        W33780  29.659  17.208  14.866
63900W        W33781  24.724  35.479  13.805
63901W        W33782   2.233   1.895  12.542
63902W        W33783  22.191   6.297   0.761
63903W        W33784  40.813  38.571   2.415
63904W        W33785  25.978  12.760   4.332
63905W        W33786   4.784   6.784   4.806
63906W        W33787  25.060  42.487  13.822
63907W        W33788  24.561  40.529   4.795
63908W        W33789  14.339  42.019   2.314
63909W        W33790  44.976  36.510  14.888
63910W        W33791   0.973  18.081   0.862
63911W        W33792  40.800   8.251   2.696
63912W        W33793  23.043  38.440   4.244
63913W        W33794  24.603  25.076   3.775
63914W        W33795  10.336  37.577  12.096
63915W        W33796  20.652  22.156   4.266
63916W        W33797   7.873  25.985  14.998
63917W        W33798  19.262  44.778  10.908
63918W        W33799  33.528   3.316   0.893
63919W        W33800  15.200  17.094   1.865
63920W        W33801  33.963   6.791  13.922
63921W        W33802  24.516   0.942   2.844
63922W        W33803  29.070  29.164  11.069
63923W        W33804  10.288  14.695  13.489
63924W        W33805  23.095   3.260  10.423
63925W        W33806  12.205  29.439  12.564
63926W        W33807  24.045   4.858  10.611
63927W        W33808  43.884  18.052   1.406
63928W        W33809  14.608  33.120  10.425
63929W        W33810  42.026  26.538   2.288
63930W        W33811  44.955  10.274  13.038
63931W        W33812  35.604   7.895   2.713
63932W        W33813   7.194  34.392   2.250
63933W        W33814   0.358   2.810  13.376
63934W        W33815   8.254  38.007   1.304
63935W        W33816  44.276  44.445   2.393
63936W        W33817  31.453  36.851   3.345
63937W        W33818  18.282  17.673  14.975
63938W        W33819  14.639  15.086  13.322
63939W        W33820  22.020  33.489  14.473
63940W        W33821  32.997  34.459   4.676
63941W        W33822  42.385  23.984   2.234
63942W        W33823  20.694  11.313  12.973
63943W        W33824   0.413  27.032   0.904
63944W        W33825  36.545  24.479  10.566
63945W        W33826  21.203  31.148   1.429
63946W        W33827  31.526   6.344   5.645
63947W        W33828  35.579  35.585  12.395
63948W        W33829  22.083   5.865   3.375
63949W        W33830   6.888  35.380   2.183
63950W        W33831  16.780  30.074   3.352
63951W        W33832   8.722  40.968  13.502
63952W        W33833   7.280   8.283  10.920
63953W        W33834  30.004  22.513   0.418
63954W        W33835  40.996  15.640  14.805
63955W        W33836   1.738  11.633   1.325
63956W        W33837  39.524  21.715   4.654
63957W        W33838  27.132  24.207  12.085
63958W        W33839  16.227  35.554   1.728
63959W        W33840  43.893  21.185  10.461
63960W        W33841  36.362   6.375  12.925
63961W        W33842   5.774  36.995  11.563
63962W        W33843  14.632  21.179  13.850
63963W        W33844   7.802   9.732  13.812
63964W        W33845   0.818  29.974  12.045
63965W        W33846  38.027  10.375  13.323
63966W        W33847  26.679  17.671   2.285
63967W        W33848  42.407  23.543   3.292
63968W        W33849  38.961  25.676  10.551
63969W        W33850  38.520  32.541   0.313
63970W        W33851  35.972  20.611   2.732
63971W        W33852  43.334  28.117   0.790
63972W        W33853  26.079  22.549  13.379
63973W        W33854  21.034   7.404  11.532
63974W        W33855  35.077  37.391  10.028
63975W        W33856   0.898  16.108  13.466
63976W        W33857   6.850  20.217   0.326
63977W        W33858   7.743  37.924   0.401
63978W        W33859  36.398   4.237   2.670
63979W        W33860  40.932  10.875  11.977
63980W        W33861  31.932  40.871  12.490
63981W        W33862  40.846  41.335   0.865
63982W        W33863   4.389  19.736  13.011
63983W        W33864  37.056  34.900  10.644
63984W        W33865  37.881  26.074  13.949
63985W        W33866  26.469  26.483   0.428
63986W        W33867  32.449  42.504   2.322
63987W        W33868  37.885  11.742  14.961
63988W        W33869  29.604  11.625   1.365
63989W        W33870   5.210  37.081   4.339
63990W        W33871  37.843   4.833   0.908
63991W        W33872  27.583  32.015  11.116
63992W        W33873  12.668   9.259   3.791
63993W        W33874  22.636  10.229  11.065
63994W        W33875  17.072  36.047  13.906
63995W        W33876  39.869  18.122  14.305
63996W        W33877  32.450  43.393  10.989
63997W        W33878   9.702  37.567   3.334
63998W        W33879   7.778  39.886   2.696
63999W        W33880  16.732  22.662   1.926
64000W        W33881  30.522  37.940   2.354
64001W        W33882  38.483  19.723   1.790
64002W        W33883   0.337  41.329   4.741
64003W        W33884  24.614  43.785   2.299
64004W        W33885  21.633  16.571  11.566
64005W        W33886  34.897  36.018  11.573
64006W        W33887   8.287  42.396   4.681
64007W        W33888  42.422  14.712  12.955
64008W        W33889  17.082  17.783  13.410
64009W        W33890  35.058  17.571  13.930
64010W        W33891  24.116  11.832  14.409
64011W        W33892  36.091   6.832   3.167
64012W        W33893  39.876  24.999   5.117
64013W        W33894  32.131  37.940  12.480
64014W        W33895  25.107  20.590  12.063
64015W        W33896  24.640  39.926  11.937
64016W        W33897  34.027  18.698   2.410
64017W        W33898  39.887  44.773   1.861
64018W        W33899  22.042  27.971  10.933
64019W        W33900   2.470  36.046  13.473
64020W        W33901   9.700   2.468   0.749
64021W        W33902  32.521  27.048  13.326
64022W        W33903  15.269  40.993   0.275
64023W        W33904  42.301   1.279  14.032
64024W        W33905  22.134  10.148   1.706
64025W        W33906   3.906  25.176  11.099
64026W        W33907  38.922  39.407   4.678
64027W        W33908  31.534  32.116   3.827
64028W        W33909  13.722  14.328   3.632
64029W        W33910  31.546   2.775   4.641
64030W        W33911  37.537  31.454   4.756
64031W        W33912   4.327  34.393  11.959
64032W        W33913  30.987  35.109  14.028
64033W        W33914   5.918  26.490   1.254
64034W        W33915  11.152  15.605   5.680
64035W        W33916  38.838  42.397   2.267
64036W        W33917   3.863  42.858   1.381
64037W        W33918  40.980  23.495  13.838
64038W        W33919  22.606   2.336   3.742
64039W        W33920  20.584  12.290  10.605
64040W        W33921  24.704  26.200  14.473
64041W        W33922  18.636   4.938   2.353
64042W        W33923  24.111  37.070  11.065
64043W        W33924   0.864  22.538  12.579
64044W        W33925  11.241  40.905  11.955
64045W        W33926  15.614  33.608  10.920
64046W        W33927   0.843  16.575  14.509
64047W        W33928  23.168   6.920  11.929
64048W        W33929  15.270  23.036  11.085
64049W        W33930  11.132  11.339   4.650
64050W        W33931  36.440  17.795  11.874
64051W        W33932   7.888  23.665   4.733
64052W        W33933  20.696  12.816   4.737
64053W        W33934  29.656  16.161   0.858
64054W        W33935   2.922  24.985  12.015
64055W        W33936  17.304  13.276   3.678
64056W        W33937  35.069   6.318  13.868
64057W        W33938  28.994  24.669  11.088
64058W        W33939  10.739  17.149  14.915
64059W        W33940   6.275  22.219  14.391
64060W        W33941   0.289   6.756   3.325
64061W        W33942  19.240  24.529   3.761
64062W        W33943  25.595  14.118  14.368
64063W        W33944  29.160  34.518  13.867
64064W        W33945  10.864  26.606   4.667
64065W        W33946   3.742  42.498  13.025
64066W        W33947   6.901   4.443  11.029
64067W        W33948  27.020  35.083   4.744
64068W        W33949   7.325  39.028   2.311
64069W        W33950  10.155  20.117   4.213
64070W        W33951  37.485  33.903   2.762
64071W        W33952   7.406  39.332   3.845
64072W        W33953  23.545   0.275  12.372
64073W        W33954  29.528  16.223  10.459
64074W        W33955  24.598  12.270   1.897
64075W        W33956   2.404  20.150  11.101
64076W        W33957  29.542   7.399  12.521
64077W        W33958  44.276   6.711  12.844
64078W        W33959  38.386   0.937  11.062
64079W        W33960   4.261  32.391  11.386
64080W        W33961   4.751  33.470  13.931
64081W        W33962  26.491  27.137  10.607
64082W        W33963  38.504  27.648   3.647
64083W        W33964  32.922  32.606  14.853
64084W        W33965  16.077  19.590  11.969
64085W        W33966   6.719  26.639  12.008
64086W        W33967  30.451   8.786  13.373
64087W        W33968  33.610   5.880  14.470
64088W        W33969  31.638  22.680  12.483
64089W        W33970   2.929  29.559   1.753
64090W        W33971  39.906  37.338   2.824
64091W        W33972   0.386  36.948  14.398
64092W        W33973   0.271  43.399   3.719
64093W        W33974  31.909  19.559   4.631
64094W        W33975  28.586   3.813   2.795
64095W        W33976   3.277  37.932  12.026
64096W        W33977   2.917  38.941  10.604
64097W        W33978  21.070  44.981  14.802
64098W        W33979  23.618  25.170   4.676
64099W        W33980  12.764   3.381  13.797
64100W        W33981  14.682  14.265  12.836
64101W        W33982  28.955  15.807   3.750
64102W        W33983  27.551   5.795  10.477
64103W        W33984  39.828  39.357  14.917
64104W        W33985  34.543  34.544   0.908
64105W        W33986  28.156  40.819  10.589
64106W        W33987   1.768  24.551   4.639
64107W        W33988   3.748  40.484  10.536
64108W        W33989  34.536  44.274   0.937
64109W        W33990  36.043  15.701  12.491
64110W        W33991  25.616  21.578   2.786
64111W        W33992  38.855  38.907   2.840
64112W        W33993   8.391  25.628  13.368
64113W        W33994   6.807  23.733   3.299
64114W        W33995  14.698  22.633   0.807
64115W        W33996  37.857  42.309  14.872
64116W        W33997  11.192  39.377  11.382
64117W        W33998  15.095  27.167   3.790
64118W        W33999  40.360  29.151   2.871
64119W        W34000  36.572  32.963  11.955
64120W        W34001  28.593   1.479  12.376
64121W        W34002  12.142  23.542  14.809
64122W        W34003   1.815  41.480   2.714
64123W        W34004   2.883   0.761   4.747
64124W        W34005  24.639  36.379   3.844
64125W        W34006  35.528  14.646  10.626
64126W        W34007  35.365  31.983  11.417
64127W        W34008   9.861  27.052  13.812
64128W        W34009  16.161   6.426   3.288
64129W        W34010  31.022  35.939   4.703
64130W        W34011   3.229  28.051   2.384
64131W        W34012   0.766  40.943  14.435
64132W        W34013  41.812  21.124   5.142
64133W        W34014   1.923  32.421   4.333
64134W        W34015  12.842  38.043  14.835
64135W        W34016  29.956  11.768   2.819
64136W        W34017  36.455  44.350  13.415
64137W        W34018  43.505  37.504   2.200
64138W        W34019  24.184   6.418   5.281
64139W        W34020  20.550  17.065  12.952
64140W        W34021  35.406  38.895   2.869
64141W        W34022  39.963   0.406   0.437
64142W        W34023   6.768  24.716  10.576
64143W        W34024  44.394  26.702   3.349
64144W        W34025  18.617  23.136  12.463
64145W        W34026  24.103  23.144   2.770
64146W        W34027  38.931   5.398   1.906
64147W        W34028  44.875  14.794   1.328
64148W        W34029   5.401   2.924   3.639
64149W        W34030   4.880  39.997   2.667
64150W        W34031   5.821   7.198   1.364
64151W        W34032  23.494   4.234  12.345
64152W        W34033  39.358  39.532   2.316
64153W        W34034   6.351   9.758   4.600
64154W        W34035   6.711  27.640   2.330
64155W        W34036   8.873  34.986  12.453
64156W        W34037  39.469  42.513  12.458
64157W        W34038  28.503  14.270   3.705
64158W        W34039  40.885   9.652  11.536
64159W        W34040  15.777   2.898  11.559
64160W        W34041   9.663  31.957   1.876
64161W        W34042  31.607  44.463  13.029
64162W        W34043  23.134   5.381  11.897
64163W        W34044  39.518  40.487   2.271
64164W        W34045  25.987  42.785  14.435
64165W        W34046  37.526   3.726  14.477
64166W        W34047  43.492  14.200  14.413
64167W        W34048  10.674  41.291  14.461
64168W        W34049  34.048  36.541   2.337
64169W        W34050   7.187   4.895   1.861
64170W        W34051   0.430  18.605  11.395
64171W        W34052  41.808   0.454  12.871
64172W        W34053  43.897   6.870   1.876
64173W        W34054  24.094  42.784  13.439
64174W        W34055  41.301   0.248  14.837
64175W        W34056  21.584  39.999  12.444
64176W        W34057  40.321   3.336  10.437
64177W        W34058   5.356   9.352  12.829
64178W        W34059  26.657  21.041  10.637
64179W        W34060  31.144  40.462  11.549
64180W        W34061  34.094   5.830   1.330
64181W        W34062  15.228  37.535   2.221
64182W        W34063  16.781  26.190   4.638
64183W        W34064  39.023  33.481   0.889
64184W        W34065  26.551  25.493  11.105
64185W        W34066  44.969   0.922   0.475
64186W        W34067  19.256   4.420  12.827
64187W        W34068  28.597  24.539   2.798
64188W        W34069   9.740  42.949   0.276
64189W        W34070   6.324  44.306   3.147
64190W        W34071  37.912  14.589  11.507
64191W        W34072  35.486  26.003  12.464
64192W        W34073  15.650  14.275   0.332
64193W        W34074  32.132  30.622  10.936
64194W        W34075  35.028  42.462  14.857
64195W        W34076  43.820  36.439  12.878
64196W        W34077  40.484  38.060  12.859
64197W        W34078   5.696  38.847   1.832
64198W        W34079  31.456  19.612  13.884
64199W        W34080  13.233  35.926   2.314
64200W        W34081  34.550  13.640   0.404
64201W        W34082  17.281  24.105   3.819
64202W        W34083  26.093  22.088   1.852
64203W        W34084   0.962  15.755  10.626
64204W        W34085  16.298   6.906   1.426
64205W        W34086  22.553  40.944  11.611
64206W        W34087   4.836  11.234   2.707
64207W        W34088  43.430  11.649   3.260
64208W        W34089  30.421  15.728   4.352
64209W        W34090   7.697  21.682  13.317
64210W        W34091  36.536  35.081   3.814
64211W        W34092  14.278   9.222   1.907
64212W        W34093  26.124  23.641  11.483
64213W        W34094  43.014   9.268  14.367
64214W        W34095  31.925  28.628   3.292
64215W        W34096   2.785  30.500  12.517
64216W        W34097  22.551  44.480   0.405
64217W        W34098  27.975  32.929   2.289
64218W        W34099  14.254  18.080  10.075
64219W        W34100  23.077  39.969   3.694
64220W        W34101  34.909  17.287  14.468
64221W        W34102  17.226  36.532   3.638
64222W        W34103   7.202  22.050  12.399
64223W        W34104  16.128  18.705  12.020
64224W        W34105  30.136  38.462   1.256
64225W        W34106  11.767  33.929   3.339
64226W        W34107  23.716  38.943  13.340
64227W        W34108  12.660  41.399  11.939
64228W        W34109  26.990  44.348  13.322
64229W        W34110  12.275  25.651  10.944
64230W        W34111   9.149  34.046  12.566
64231W        W34112  42.830  20.055   2.290
64232W        W34113  28.982  25.147  12.968
64233W        W34114   9.716   1.775   0.812
64234W        W34115  19.110  15.096  11.439
64235W        W34116  30.445  16.610  10.427
64236W        W34117  16.150  41.357  14.379
64237W        W34118  40.933  30.512  14.293
64238W        W34119   4.387  34.115  12.371
64239W        W34120  40.848  18.189  14.839
64240W        W34121   0.380  26.656   1.868
64241W        W34122  21.674   9.238  14.774
64242W        W34123   3.745   1.745  11.446
64243W        W34124  20.574  27.599   2.229
64244W        W34125  28.491  27.552  11.498
64245W        W34126  17.234  12.244  14.342
64246W        W34127  32.894  27.169   1.783
64247W        W34128   8.823   0.887   4.259
64248W        W34129  16.271  17.786   3.179
64249W        W34130   0.434   3.821  12.965
64250W        W34131  37.368  40.834  12.992
64251W        W34132  23.555  12.345  14.333
64252W        W34133  21.261   2.472   2.674
64253W        W34134  44.289   0.975   4.252
64254W        W34135  24.095  42.435   0.833
64255W        W34136  23.700  38.012   4.278
64256W        W34137  23.123  17.621   1.822
64257W        W34138  34.904  40.926  10.966
64258W        W34139  36.000  33.107   4.761
64259W        W34140  14.770  38.426   1.336
64260W        W34141  22.137  20.740   1.412
64261W        W34142  34.944  15.615   2.687
64262W        W34143  42.871  28.494  11.606
64263W        W34144  34.974   5.237   4.604
64264W        W34145  32.428   4.906  10.954
64265W        W34146  31.454  41.820  12.510
64266W        W34147  39.357  30.557   4.617
64267W        W34148  30.594  27.049  11.974
64268W        W34149  12.724  17.104   0.399
64269W        W34150  13.244  11.373  13.431
64270W        W34151   8.716  18.125   0.360
64271W        W34152  24.669  42.837  13.407
64272W        W34153   3.237  31.538  13.919
64273W        W34154  23.109  11.236   2.351
64274W        W34155  10.147  14.834  13.856
64275W        W34156  37.842  31.520   2.774
64276W        W34157  22.531  21.583  10.047
64277W        W34158  10.817  29.544  12.467
64278W        W34159  42.874   5.336   3.254
64279W        W34160   5.383  15.714  13.888
64280W        W34161  41.980   2.938   3.375
64281W        W34162  41.925   3.898  13.958
64282W        W34163  11.154  40.820   3.653
64283W        W34164  32.095  32.477   2.196
64284W        W34165  39.501  40.497  11.126
64285W        W34166  29.164  38.536  13.976
64286W        W34167  23.674  17.217   5.094
64287W        W34168  16.709  42.387  11.992
64288W        W34169  36.843   4.425  12.075
64289W        W34170  44.373  26.518   3.800
64290W        W34171  39.466  11.315   3.658
64291W        W34172  17.625   1.961  10.548
64292W        W34173  15.239  13.125   4.271
64293W        W34174   0.286  18.555  14.910
64294W        W34175  20.756  37.444   3.822
64295W        W34176  13.814  30.442  14.789
64296W        W34177  10.741   1.390  13.469
64297W        W34178  29.938  44.956   2.306
64298W        W34179  33.571  14.699   1.751
64299W        W34180  30.093  42.937  13.987
64300W        W34181  22.148  38.870  11.594
64301W        W34182  38.066  27.517   3.375
64302W        W34183  26.046   1.877   3.333
64303W        W34184  33.548  19.204  11.894
64304W        W34185  15.248  42.512  11.998
64305W        W34186   4.214  21.631  13.878
64306W        W34187   1.809  25.531  12.859
64307W        W34188   4.293  10.139   1.267
64308W        W34189  14.274  25.986  11.447
64309W        W34190   9.706  25.042   1.263
64310W        W34191  21.676  20.059   2.726
64311W        W34192  34.022  19.544   0.260
64312W        W34193  34.578  36.926   2.798
64313W        W34194  31.501   1.319  12.937
64314W        W34195  27.007  21.034   9.948
64315W        W34196  32.106  43.887   4.197
64316W        W34197  29.575   8.295   1.698
64317W        W34198  44.959   5.232  13.973
64318W        W34199   6.367  36.056  10.020
64319W        W34200  10.294   1.927  11.903
64320W        W34201   3.866  41.806  11.952
64321W        W34202  18.705  42.396   0.849
64322W        W34203  41.342  34.564  12.437
64323W        W34204   5.767  42.290  11.497
64324W        W34205  29.529  22.685  14.389
64325W        W34206  32.508  43.302   0.917
64326W        W34207  42.893  10.655   4.811
64327W        W34208  11.298  26.668  11.499
64328W        W34209  10.352  16.160   4.228
64329W        W34210  11.234  40.308   0.915
64330W        W34211   4.791  15.101  12.343
64331W        W34212  16.202   7.714  11.863
64332W        W34213  41.484   5.797  13.925
64333W        W34214   2.353  30.654   0.278
64334W        W34215  42.018  40.475   1.909
64335W        W34216   6.795  26.987   0.831
64336W        W34217  21.251   1.384  12.928
64337W        W34218  38.391  22.667  10.491
64338W        W34219  30.128  41.011  11.073
64339W        W34220   9.747  22.127   2.707
64340W        W34221  31.510   1.859  11.477
64341W        W34222   9.819  25.524   3.358
64342W        W34223  14.825  21.575   0.736
64343W        W34224  38.545   5.337  11.508
64344W        W34225   3.934  32.486   1.429
64345W        W34226  28.533  27.171  14.990
64346W        W34227  26.540  28.182   0.922
64347W        W34228  19.557  11.808   3.227
64348W        W34229   2.253   7.320  13.476
64349W        W34230   2.745  26.991   0.473
64350W        W34231   9.253  38.004   2.779
64351W        W34232  14.780  19.566  11.920
64352W        W34233  19.746  10.184  12.409
64353W        W34234  21.175  43.407   3.806
64354W        W34235  31.923  10.228  14.340
64355W        W34236  34.022  37.352  14.301
64356W        W34237  40.514   9.844   1.232
64357W        W34238  35.407   0.828  13.860
64358W        W34239  16.683  13.660   2.800
64359W        W34240  41.528  36.953   4.225
64360W        W34241  19.690   0.879  13.486
64361W        W34242  31.559   6.796   5.308
64362W        W34243  44.462   1.347   3.232
64363W        W34244  20.120  19.565   0.739
64364W        W34245   8.190  29.143   3.740
64365W        W34246  37.087  22.585   2.823
64366W        W34247  34.933  33.109  12.873
64367W        W34248  43.439   1.246  14.788
64368W        W34249   8.357  33.974   1.387
64369W        W34250  25.480  18.272   0.267
64370W        W34251  30.603  30.520   1.214
64371W        W34252  21.057  34.405  13.389
64372W        W34253   4.932  41.968  11.083
64373W        W34254  40.529  19.551   1.413
64374W        W34255  25.649  38.432  10.962
64375W        W34256   2.771  33.402   2.192
64376W        W34257  35.022  12.791  11.921
64377W        W34258  35.466   7.887   3.760
64378W        W34259  30.636  30.612   2.366
64379W        W34260   2.859   5.203  14.933
64380W        W34261  32.114  31.147  14.304
64381W        W34262   0.793  33.513   1.420
64382W        W34263   3.745  42.488   4.776
64383W        W34264   6.380   8.774  10.042
64384W        W34265  42.872  41.960   0.896
64385W        W34266  11.289  33.994  13.479
64386W        W34267  43.768   2.427  11.083
64387W        W34268  13.631  42.914  14.491
64388W        W34269  32.557  12.828  13.057
64389W        W34270  26.152  20.036   0.253
64390W        W34271   0.483  10.351  10.477
64391W        W34272   0.810  39.820  14.282
64392W        W34273  11.161  23.199   2.362
64393W        W34274   8.884  10.201  11.386
64394W        W34275  34.928  12.272  14.337
64395W        W34276   4.242  25.118   1.909
64396W        W34277   5.925  33.957   4.181
64397W        W34278   9.219  28.960  13.494
64398W        W34279  37.579  34.967  14.954
64399W        W34280  18.175   0.315  11.111
64400W        W34281  25.562  37.016  13.834
64401W        W34282  37.937   0.379  14.396
64402W        W34283  24.066  38.935  14.937
64403W        W34284  16.692  34.933  11.079
64404W        W34285   9.165  38.008  11.010
64405W        W34286   3.350  33.078   0.326
64406W        W34287  28.943   3.310   2.761
64407W        W34288   4.387  37.391  13.922
64408W        W34289  24.574  32.610   1.262
64409W        W34290  13.813  39.338   0.761
64410W        W34291   6.855  36.449  13.410
64411W        W34292   9.819  40.826  10.984
64412W        W34293  27.044  25.568   3.744
64413W        W34294  19.281   0.271  11.947
64414W        W34295  40.538  15.301   1.244
64415W        W34296  17.643  17.244  13.832
64416W        W34297  27.612  13.277  10.432
64417W        W34298  40.324  24.006  11.077
64418W        W34299  31.592  21.758  11.996
64419W        W34300   7.761  27.484  11.092
64420W        W34301  26.959  26.687  14.952
64421W        W34302  22.688  14.264   3.709
64422W        W34303  29.976  12.137  11.585
64423W        W34304  40.049  27.959  11.378
64424W        W34305  30.149  14.160   1.795
64425W        W34306  26.482  43.904  13.377
64426W        W34307  18.638  41.793  13.509
64427W        W34308  22.186  39.986   2.179
64428W        W34309  43.880  19.675   1.434
64429W        W34310  37.532  23.565  12.407
64430W        W34311  38.958  10.173  10.078
64431W        W34312   5.244  40.979   2.787
64432W        W34313  26.038  39.517   1.305
64433W        W34314  21.568  35.105  10.893
64434W        W34315   6.305   9.216  10.529
64435W        W34316  34.524  38.560   2.746
64436W        W34317  25.986  23.680  13.478
64437W        W34318  41.412  36.520  10.487
64438W        W34319  35.074   0.361   4.747
64439W        W34320  43.422  14.602   4.730
64440W        W34321  39.962  40.963   1.268
64441W        W34322   0.869  29.571  10.608
64442W        W34323  17.195  22.127  10.117
64443W        W34324  31.913  25.707  11.097
64444W        W34325  16.111  11.639   2.866
64445W        W34326  35.426   3.742   2.323
64446W        W34327  26.055  28.669  13.006
64447W        W34328  19.081  37.908  13.439
64448W        W34329   8.343  13.172  13.497
64449W        W34330   7.380   0.304   2.240
64450W        W34331   2.827  34.463  12.848
64451W        W34332  23.582  16.708  10.951
64452W        W34333  14.768  14.230   4.689
64453W        W34334  10.670  28.473  11.042
64454W        W34335  25.566   1.412  12.349
64455W        W34336  20.674   3.753  14.275
64456W        W34337  39.414  41.411   3.819
64457W        W34338  29.539   0.283   4.151
64458W        W34339  36.564  35.434   3.292
64459W        W34340  11.207  31.435   1.809
64460W        W34341   5.219  33.915  12.432
64461W        W34342  29.065  16.237  13.950
64462W        W34343   6.319  24.558   0.848
64463W        W34344   3.421  16.758   4.785
64464W        W34345  10.866  28.095   3.279
64465W        W34346  43.948  38.056  14.766
64466W        W34347  24.503  12.796  12.493
64467W        W34348  32.540  14.686  13.475
64468W        W34349  26.674  41.331   4.778
64469W        W34350  10.771  15.785   0.853
64470W        W34351   5.429  13.209   2.806
64471W        W34352   7.743  40.848  10.625
64472W        W34353   4.930  33.622  12.408
64473W        W34354  35.495   9.796   3.784
64474W        W34355  13.708   9.389  13.879
64475W        W34356  29.990  32.952   0.880
64476W        W34357  27.581  21.238  13.322
64477W        W34358   8.198  23.686   3.706
64478W        W34359  31.547   2.799  11.523
64479W        W34360  20.136   1.743  13.488
64480W        W34361  34.378   9.383   2.772
64481W        W34362  10.360  33.068   0.766
64482W        W34363   9.785  37.376  14.415
64483W        W34364  27.131  11.635  14.937
64484W        W34365   9.274   2.739   2.202
64485W        W34366  26.476   2.808   1.254
64486W        W34367  18.220  12.673   3.801
64487W        W34368   6.840   7.177  11.910
64488W        W34369  35.548  43.504  11.401
64489W        W34370  36.078   9.816  12.870
64490W        W34371  18.145  41.848  13.978
64491W        W34372  44.501  30.538   3.798
64492W        W34373  16.618  17.747  13.344
64493W        W34374  31.908  33.504  13.540
64494W        W34375  44.940  22.038  14.885
64495W        W34376  35.052   9.183  13.977
64496W        W34377  21.556  20.526  13.518
64497W        W34378   5.899   5.328  11.111
64498W        W34379  22.647  28.981   2.746
64499W        W34380   8.878  12.341  10.523
64500W        W34381   7.268   2.845   2.689
64501W        W34382  21.561  40.911   1.715
64502W        W34383  26.175  38.564  12.857
64503W        W34384   4.799  39.849   4.262
64504W        W34385  36.055  38.416  12.941
64505W        W34386  32.625  33.389   1.244
64506W        W34387  11.187  10.773   1.417
64507W        W34388  18.212   7.209   3.287
64508W        W34389   8.250  13.705  11.545
64509W        W34390  33.973  40.317   2.393
64510W        W34391   8.862  34.477  13.837
64511W        W34392  28.106  11.747  12.864
64512W        W34393  23.214  11.159  11.582
64513W        W34394  37.952  44.885   4.657
64514W        W34395   2.298   8.724   0.414
64515W        W34396  23.540  12.798   4.136
64516W        W34397  41.516  14.175  12.401
64517W        W34398  30.940  38.381   3.763
64518W        W34399  36.951   7.858  13.009
64519W        W34400  29.605  41.955   0.890
64520W        W34401  15.704   6.420  14.024
64521W        W34402  32.604  24.006  14.792
64522W        W34403  32.912  41.406   0.281
64523W        W34404   7.672  14.219  11.935
64524W        W34405  35.466  28.676   2.221
64525W        W34406  29.948  37.443  13.806
64526W        W34407  16.257   0.336   0.822
64527W        W34408  36.422  36.421  12.430
64528W        W34409  27.110   0.444  10.555
64529W        W34410  22.601  14.144  13.420
64530W        W34411   0.252   8.780  14.893
64531W        W34412  37.896  37.505  13.890
64532W        W34413   8.165  43.932  12.424
64533W        W34414   7.286  39.853  13.484
64534W        W34415  12.298  35.049   3.641
64535W        W34416  34.584  38.995  13.968
64536W        W34417  37.006  23.587  12.433
64537W        W34418  11.755  12.131   4.743
64538W        W34419  34.956   7.863   1.280
64539W        W34420  23.107   6.338   2.716
64540W        W34421   0.476  13.726   2.754
64541W        W34422  10.832  23.019   2.801
64542W        W34423  35.997  40.532  10.456
64543W        W34424  31.940  20.244   1.822
64544W        W34425  28.068  36.373  11.499
64545W        W34426  12.280  33.551  13.539
64546W        W34427  26.117  36.404   3.651
64547W        W34428  12.355  34.053  12.853
64548W        W34429  19.631  36.094  14.955
64549W        W34430  36.441  17.285  10.991
64550W        W34431  30.514  23.655  13.834
64551W        W34432   7.812  37.940  14.772
64552W        W34433  28.146   0.953  11.893
64553W        W34434  13.641  17.740   4.242
64554W        W34435  31.942  27.123  11.862
64555W        W34436   3.852  21.543  12.436
64556W        W34437  32.432  39.827   0.313
64557W        W34438  17.238   1.481   3.805
64558W        W34439   9.660  34.607   1.773
64559W        W34440  14.175  39.546   3.866
64560W        W34441  12.667  41.004  14.929
64561W        W34442   6.417  29.984  14.020
64562W        W34443  23.647  42.342  11.070
64563W        W34444  20.222  13.134  14.939
64564W        W34445   2.720   2.357   4.140
64565W        W34446  13.114  43.304   3.273
64566W        W34447  28.109  25.029  11.071
64567W        W34448  15.817   5.927   2.844
64568W        W34449  11.828  17.259   0.803
64569W        W34450   3.250  18.272  13.028
64570W        W34451  24.174  35.395  13.408
64571W        W34452  28.050  38.863   3.752
64572W        W34453   8.737   4.699   4.672
64573W        W34454   2.353   8.759  13.929
64574W        W34455   2.259  16.610   4.313
64575W        W34456  12.235  14.321  14.387
64576W        W34457  37.957  24.104  12.851
64577W        W34458  43.796   1.336  10.992
64578W        W34459  23.687  25.474  10.565
64579W        W34460  23.708  44.375   2.772
64580W        W34461  38.560  32.525  14.399
64581W        W34462  44.349  30.469   2.666
64582W        W34463  10.214  21.559  12.364
64583W        W34464  29.030   3.911   2.732
64584W        W34465  24.693  27.100  12.905
64585W        W34466  28.637  44.778  10.563
64586W        W34467   6.374   6.825  13.911
64587W        W34468   4.435   3.322   4.719
64588W        W34469  39.876  21.717   0.335
64589W        W34470  42.409  41.832  12.471
64590W        W34471  34.871  20.613  14.418
64591W        W34472  38.987  27.067   1.406
64592W        W34473  42.850  30.001  10.422
64593W        W34474  25.631  35.072  13.472
64594W        W34475   4.811  23.599  11.070
64595W        W34476  15.679  28.060   0.311
64596W        W34477  37.887  19.618   2.688
64597W        W34478  30.004   8.179  11.560
64598W        W34479   5.781  32.005   4.209
64599W        W34480  20.709   8.358   2.758
64600W        W34481   8.770  36.919   0.359
64601W        W34482  12.349  34.899   3.320
64602W        W34483   8.787  13.702   0.926
64603W        W34484   1.474  14.172  14.998
64604W        W34485  37.476  36.423   0.457
64605W        W34486  40.799   5.308  14.289
64606W        W34487  42.905  26.050  14.799
64607W        W34488  37.556   8.241  11.434
64608W        W34489  38.980   6.919  12.534
64609W        W34490  24.718  15.749   4.764
64610W        W34491  24.540  24.209   0.808
64611W        W34492   7.718  28.534   0.293
64612W        W34493  32.595  10.369   3.302
64613W        W34494  27.530   9.351  14.986
64614W        W34495  37.564   2.395  10.959
64615W        W34496  15.816  28.561   4.662
64616W        W34497  23.988  34.521   0.307
64617W        W34498   4.759  24.140  12.871
64618W        W34499  25.977  30.131   3.224
64619W        W34500  25.028  33.587  12.467
64620W        W34501  19.039  15.644   1.269
64621W        W34502   7.341  19.114   4.681
64622W        W34503  44.389   9.248   2.829
64623W        W34504  42.366  21.027  14.821
64624W        W34505  13.339  19.074  10.621
64625W        W34506  30.414  42.411  11.530
64626W        W34507  43.796   4.246  13.475
64627W        W34508  18.649   4.746   4.763
64628W        W34509  42.457  30.016   2.686
64629W        W34510   2.756  38.498   4.322
64630W        W34511  36.892  38.943  12.424
64631W        W34512  15.599  32.074  14.817
64632W        W34513  29.079  11.863  10.460
64633W        W34514  23.168  20.244  11.973
64634W        W34515  31.038  28.434  14.992
64635W        W34516  40.422  32.031  14.280
64636W        W34517  35.898  25.596   1.873
64637W        W34518  15.232   8.861   1.224
64638W        W34519  40.841  10.684  14.501
64639W        W34520  12.775  20.681  13.923
64640W        W34521  33.487  26.039   4.749
64641W        W34522  34.614  22.630  13.927
64642W        W34523   4.910  28.171  10.982
64643W        W34524  24.101  32.045  14.401
64644W        W34525  30.486  32.593  13.981
64645W        W34526  16.271   1.390  14.513
64646W        W34527  21.524  38.427   2.838
64647W        W34528  32.400   5.932  14.964
64648W        W34529  43.367  29.072   3.314
64649W        W34530   0.368   1.428  14.925
64650W        W34531  37.399  14.619   0.938
64651W        W34532   9.232  23.228   4.298
64652W        W34533  38.362  33.882  13.386
64653W        W34534  34.492   5.751   1.299
64654W        W34535   3.432  40.317   3.737
64655W        W34536  34.371  18.736  10.406
64656W        W34537  23.511  37.564  13.028
64657W        W34538  12.689   9.808   0.797
64658W        W34539  17.796   2.464  13.982
64659W        W34540  25.119  44.874  14.501
64660W        W34541  24.016  30.448   4.754
64661W        W34542  11.736   0.922   4.598
64662W        W34543  23.082  13.661  13.310
64663W        W34544   9.770   7.290  10.930
64664W        W34545  34.947  22.101   0.835
64665W        W34546  26.152  25.498  10.445
64666W        W34547   3.454  29.491  13.976
64667W        W34548   3.325  15.161  13.879
64668W        W34549  25.043  13.142  12.402
64669W        W34550  16.203  29.147   0.442
64670W        W34551  18.077   4.934  11.558
64671W        W34552  35.468   4.230  13.915
64672W        W34553  20.731  44.915  14.414
64673W        W34554   1.398  24.718   1.903
64674W        W34555   2.779  26.547  13.791
64675W        W34556  43.935   2.957  13.472
64676W        W34557  22.502  24.717  14.007
64677W        W34558  26.477  39.520   2.252
64678W        W34559   9.193  15.196   4.727
64679W        W34560   4.920  28.541  13.885
64680W        W34561   2.372  32.414   2.267
64681W        W34562  36.875   3.257   1.912
64682W        W34563  21.230  29.562  14.895
64683W        W34564  11.146  22.519  12.538
64684W        W34565   6.367   4.920  12.838
64685W        W34566  36.506  34.381  11.100
64686W        W34567   3.452   2.921  14.811
64687W        W34568   5.805  22.740  11.529
64688W        W34569  14.686  23.136  11.938
64689W        W34570  26.963   5.809   4.611
64690W        W34571  32.573  38.423   0.427
64691W        W34572  11.313  28.175  11.925
64692W        W34573  14.699  20.579   2.682
64693W        W34574  39.326   1.804  12.483
64694W        W34575  19.250  14.620   3.274
64695W        W34576   0.456  42.478   3.636
64696W        W34577   6.781  20.727   1.332
64697W        W34578   1.781   8.191   0.421
64698W        W34579   8.257   1.448   1.441
64699W        W34580   6.834  36.868  10.893
64700W        W34581  30.152  34.953   4.695
64701W        W34582  40.961   7.809   0.389
64702W        W34583  32.477  20.197  14.950
64703W        W34584  25.161  42.878  13.514
64704W        W34585  42.886  17.088  14.841
64705W        W34586  12.755  29.929   0.767
64706W        W34587   0.445  41.461  12.557
64707W        W34588  18.262  41.831   1.244
64708W        W34589  39.012  36.434   2.736
64709W        W34590  43.915  25.713   2.776
64710W        W34591   4.823  21.219  11.091
64711W        W34592   0.955  19.571   0.382
64712W        W34593  40.953  29.927  12.487
64713W        W34594  34.010  15.578  14.380
64714W        W34595  14.590  15.823  13.874
64715W        W34596  21.210  37.908   3.774
64716W        W34597  32.426  12.164   1.848
64717W        W34598  12.615  30.475  14.328
64718W        W34599  43.876  22.201   1.282
64719W        W34600  27.540  44.293  11.998
64720W        W34601  40.841   5.747  11.967
64721W        W34602  35.423  40.968   0.856
64722W        W34603  15.690  41.356  14.934
64723W        W34604  19.066   2.958   4.243
64724W        W34605  36.408   2.401  11.585
64725W        W34606  42.858   7.716  14.850
64726W        W34607   2.920  21.132   5.220
64727W        W34608  39.388  17.214  12.441
64728W        W34609  16.802  28.512   3.267
64729W        W34610   7.705  24.040  11.437
64730W        W34611   4.334  31.905   0.419
64731W        W34612  10.300   3.272   1.797
64732W        W34613  28.607  37.449   2.765
64733W        W34614   5.380   7.821  11.421
64734W        W34615   5.868  34.556   1.407
64735W        W34616  36.861  17.236  11.431
64736W        W34617  12.621  40.377  10.965
64737W        W34618  22.536  10.157   3.829
64738W        W34619   7.759  24.036   4.706
64739W        W34620  38.530   1.423  11.503
64740W        W34621   6.391  34.937   2.181
64741W        W34622  27.625  24.504  11.127
64742W        W34623  40.469  29.664   3.183
64743W        W34624  37.579  15.283  14.773
64744W        W34625  12.757   9.732   4.699
64745W        W34626  24.990   6.798   0.918
64746W        W34627   6.687  22.576   2.750
64747W        W34628  14.718  32.547  13.507
64748W        W34629  16.761  30.512  13.482
64749W        W34630  27.149   1.732  14.455
64750W        W34631  18.627  37.499   4.269
64751W        W34632   3.739   8.319  14.862
64752W        W34633  32.080  30.116  11.867
64753W        W34634   8.225   4.875  12.022
64754W        W34635  36.523  13.665   4.283
64755W        W34636  15.760  27.048   5.293
64756W        W34637  21.585   0.370   3.190
64757W        W34638  33.531  31.058  12.918
64758W        W34639   9.363  27.508   4.175
64759W        W34640  23.630   0.472   1.247
64760W        W34641  26.622  20.059   3.148
64761W        W34642  19.703   8.268   3.826
64762W        W34643   1.771  27.110   1.361
64763W        W34644   0.266   7.811  14.000
64764W        W34645  39.930   4.727   3.755
64765W        W34646  44.846  34.593  12.340
64766W        W34647   3.289   6.789   2.411
64767W        W34648  16.763   4.227  11.059
64768W        W34649  17.180  28.560   2.687
64769W        W34650  21.178  12.627   4.211
64770W        W34651  37.469   4.246   3.360
64771W        W34652  30.460  32.094  11.977
64772W        W34653  14.709   5.360  14.838
64773W        W34654  30.147  22.647  13.015
64774W        W34655  24.610   3.777   4.189
64775W        W34656   6.199  38.374   0.434
64776W        W34657  27.447   9.266   2.838
64777W        W34658  15.810  16.184   1.787
64778W        W34659  35.092  40.917   3.151
64779W        W34660   8.244  39.454   3.253
64780W        W34661   0.482  13.673   4.317
64781W        W34662  39.391  36.526   3.376
64782W        W34663  32.900  17.243  11.403
64783W        W34664  14.734  21.068  14.860
64784W        W34665  24.494  16.594   0.832
64785W        W34666  41.461   4.306  14.840
64786W        W34667  26.043   8.670  11.029
64787W        W34668  21.155  28.582  11.028
64788W        W34669  12.653  40.976   1.723
64789W        W34670  39.353  15.276  14.783
64790W        W34671  40.500  26.528   3.177
64791W        W34672  23.546  32.605   2.401
64792W        W34673  44.425  42.486   3.166
64793W        W34674  22.626  24.619  14.979
64794W        W34675  21.228  31.116   0.898
64795W        W34676  35.940  28.615   2.394
64796W        W34677  20.531  18.713   1.370
64797W        W34678   4.699  11.629   5.165
64798W        W34679  16.113  22.043   3.180
64799W        W34680  27.532  42.383  12.425
64800W        W34681  10.240  27.604   1.226
64801W        W34682  41.377  26.018   3.630
64802W        W34683   5.250  25.995   3.780
64803W        W34684  25.711  12.724   0.911
64804W        W34685  30.942  17.241  14.807
64805W        W34686   1.750   1.924   2.372
64806W        W34687  39.988   0.852  12.824
64807W        W34688   1.429  38.993   2.768
64808W        W34689  18.151  36.058  14.286
64809W        W34690  27.063   1.401   1.733
64810W        W34691  24.533   4.911  12.894
64811W        W34692  16.700   8.379   4.165
64812W        W34693   8.799  14.715  10.972
64813W        W34694   6.888   5.290  12.980
64814W        W34695   2.784  37.439  13.536
64815W        W34696  15.819  40.798  10.991
64816W        W34697  21.668  12.316  12.366
64817W        W34698   8.697   4.902  13.007
64818W        W34699  34.920  14.146   2.189
64819W        W34700  27.020  21.243   2.286
64820W        W34701  10.378  25.476  13.913
64821W        W34702  37.412   7.717   5.117
64822W        W34703  44.924   6.358  14.505
64823W        W34704   3.423  26.695   0.755
64824W        W34705  40.419   1.288   4.228
64825W        W34706  14.127  33.533  13.848
64826W        W34707   1.439   9.846   0.323
64827W        W34708  43.359  29.637   0.874
64828W        W34709  24.976   0.866  13.972
64829W        W34710  36.908  32.403   3.265
64830W        W34711  32.458  41.497   4.748
64831W        W34712  44.354   3.226  14.432
64832W        W34713  14.123   4.910   0.866
64833W        W34714  36.505   9.252  14.905
64834W        W34715  15.222   8.275   1.318
64835W        W34716   0.334  25.108   2.205
64836W        W34717  41.034  40.453   4.827
64837W        W34718   1.473  31.108   4.742
64838W        W34719   8.320  13.234  10.579
64839W        W34720   4.822  21.661   2.234
64840W        W34721  35.938  38.873  12.452
64841W        W34722  36.873  20.679  10.551
64842W        W34723   3.412  29.427   3.683
64843W        W34724  10.149   5.428  11.561
64844W        W34725   6.806  14.755   0.449
64845W        W34726  15.150   2.761  10.423
64846W        W34727   6.799  42.379   0.420
64847W        W34728  11.211   2.740  10.898
64848W        W34729  29.492  14.232   1.444
64849W        W34730   6.872  30.491  12.462
64850W        W34731   6.724  23.675  10.974
64851W        W34732  39.828  35.969  12.370
64852W        W34733  28.442   5.886  11.945
64853W        W34734  16.584   9.264   4.692
64854W        W34735   4.204   5.253   0.823
64855W        W34736  11.276  16.273  10.434
64856W        W34737  29.525   7.174  12.912
64857W        W34738  13.323  32.449  12.989
64858W        W34739  39.984  16.251   1.735
64859W        W34740  27.614  11.364   4.813
64860W        W34741  25.176   5.764   0.456
64861W        W34742   3.284  15.260  12.910
64862W        W34743  40.012  27.682   4.122
64863W        W34744   3.788  14.775   0.779
64864W        W34745   1.398  29.924  13.942
64865W        W34746  40.882  26.045   0.776
64866W        W34747  43.994  10.846   4.327
64867W        W34748  37.925  11.636   0.480
64868W        W34749  22.023   5.840  13.980
64869W        W34750  31.945  25.692   4.669
64870W        W34751   2.940  16.609   3.759
64871W        W34752  33.014  20.221   2.692
64872W        W34753  24.669  20.119   1.913
64873W        W34754  31.113  32.967   4.168
64874W        W34755  22.503  34.965  11.607
64875W        W34756   8.237  34.593   0.444
64876W        W34757  30.445  33.594   0.295
64877W        W34758  37.998   8.273  11.022
64878W        W34759  12.812  18.112  14.305
64879W        W34760  12.159  21.061   2.710
64880W        W34761   9.340  12.301   0.906
64881W        W34762  32.495  17.775  13.808
64882W        W34763   8.821  23.031  14.311
64883W        W34764   4.328  31.897   2.684
64884W        W34765  23.621  38.845  10.452
64885W        W34766  11.245  23.013   4.715
64886W        W34767   7.320  29.530  14.283
64887W        W34768   2.281  27.022   0.340
64888W        W34769   1.803  18.608   0.360
64889W        W34770  19.215  25.976  10.520
64890W        W34771  36.894  11.247  12.880
64891W        W34772  44.791  25.965   4.692
64892W        W34773  33.889  29.664   4.661
64893W        W34774  19.648  18.184  11.074
64894W        W34775   3.912   2.450  10.623
64895W        W34776   0.882  26.551  11.885
64896W        W34777  36.400  20.707   4.819
64897W        W34778  44.266   1.907  12.065
64898W        W34779  30.562   4.246  11.579
64899W        W34780  33.559   6.873  11.900
64900W        W34781   7.843  36.534  11.918
64901W        W34782   5.216  29.440  11.891
64902W        W34783  23.029  41.493   2.889
64903W        W34784  15.639   1.813  13.450
64904W        W34785  26.524  15.705  11.443
64905W        W34786   5.848  38.846  11.080
64906W        W34787  31.980   3.275   3.692
64907W        W34788  33.041  27.447  13.944
64908W        W34789  27.131   9.661  14.996
64909W        W34790  23.022  17.727  14.280
64910W        W34791  42.454   5.361  13.892
64911W        W34792   4.384  30.435  11.374
64912W        W34793   4.256  36.977  13.498
64913W        W34794   2.800   8.375   2.414
64914W        W34795  28.438  37.983   3.189
64915W        W34796   2.817  11.725  10.564
64916W        W34797  35.866   3.333   0.244
64917W        W34798  39.560  10.146   2.242
64918W        W34799  13.158  30.154   4.768
64919W        W34800  36.885  12.844  11.858
64920W        W34801  24.641  11.813  14.863
64921W        W34802  13.198  21.225   5.311
64922W        W34803  26.604   6.323  12.843
64923W        W34804  27.109  23.099   3.650
64924W        W34805   0.829  38.357  13.437
64925W        W34806  44.978  26.579   1.849
64926W        W34807  29.144   4.764  13.900
64927W        W34808   9.788   4.308   2.303
64928W        W34809  25.973  34.420  10.957
64929W        W34810  39.936  34.952  11.403
64930W        W34811   2.751  13.685   3.215
64931W        W34812   5.426   1.361   2.761
64932W        W34813   4.298  30.644  14.869
64933W        W34814  37.356  38.386   1.854
64934W        W34815  11.222  36.881  14.792
64935W        W34816  30.993   7.798  10.130
64936W        W34817  22.112   8.716   1.341
64937W        W34818  16.616  33.067   0.760
64938W        W34819  43.894  22.243  10.628
64939W        W34820   7.194  34.889  14.380
64940W        W34821  14.591  28.166  14.287
64941W        W34822  43.440  22.565   1.304
64942W        W34823  44.297  18.257   3.746
64943W        W34824   1.769  24.117   0.746
64944W        W34825  33.097  30.530   0.394
64945W        W34826  36.483  34.567  10.557
64946W        W34827  22.730   3.725  14.378
64947W        W34828  21.153  13.635  13.027
64948W        W34829  41.388   0.866  12.976
64949W        W34830  34.010  13.150   1.744
64950W        W34831  27.616  11.663   3.193
64951W        W34832  12.682  37.435  13.035
64952W        W34833  31.042   8.892   0.795
64953W        W34834  36.845   8.188  11.491
64954W        W34835  24.504  12.298   4.609
64955W        W34836  15.277   0.814   3.367
64956W        W34837   5.304  33.524   3.629
64957W        W34838   1.337  14.795  10.537
64958W        W34839  12.175  19.635  14.820
64959W        W34840  11.661  17.098  11.878
64960W        W34841  14.640  30.636   2.715
64961W        W34842  12.323  24.712  14.001
64962W        W34843  26.623   5.756   3.868
64963W        W34844   3.852  33.621  13.043
64964W        W34845  44.404  39.315   0.339
64965W        W34846   6.382  17.137  12.448
64966W        W34847  25.216  15.672  13.417
64967W        W34848  11.179  32.487  11.073
64968W        W34849   2.913  24.105  10.919
64969W        W34850  28.496  30.433   3.211
64970W        W34851  30.645  32.430   5.210
64971W        W34852   4.720   4.417   0.960
64972W        W34853  41.496   6.369   3.648
64973W        W34854  16.732   8.812   3.767
64974W        W34855   2.424  37.866  14.998
64975W        W34856  28.958  11.696   4.265
64976W        W34857  31.059  27.101  14.942
64977W        W34858  32.528  20.687  12.952
64978W        W34859  33.092  19.705   0.370
64979W        W34860  15.109  23.562  10.645
64980W        W34861   8.187   4.778   0.326
64981W        W34862  26.498  24.073   0.382
64982W        W34863  25.144  22.084   4.219
64983W        W34864  39.026  23.541   3.735
64984W        W34865  23.213   4.791   4.783
64985W        W34866  11.316  22.631  13.918
64986W        W34867  37.576  19.242   3.801
64987W        W34868  36.895  40.547  12.990
64988W        W34869  12.693  14.698   4.203
64989W        W34870   6.730  36.591  14.910
64990W        W34871  10.675   9.298  11.898
64991W        W34872  40.014  24.211   3.843
64992W        W34873  23.015  35.517   4.783
64993W        W34874  23.120  36.986  12.035
64994W        W34875   4.278  25.695   1.836
64995W        W34876   7.758  40.379   5.118
64996W        W34877  11.233   3.279  11.606
64997W        W34878  21.585  36.077   3.180
64998W        W34879  34.572  20.691  14.359
64999W        W34880  37.878  35.544   2.749
65000W        W34881  16.095  36.467  13.809
65001W        W34882   4.390   3.776   4.765
65002W        W34883  14.188  35.855  11.438
65003W        W34884  23.064   9.887  12.358
65004W        W34885  31.093   6.256   0.378
65005W        W34886  21.756  32.415   2.845
65006W        W34887  20.225  24.697  14.808
65007W        W34888  12.362  18.086   4.794
65008W        W34889   2.760  43.783  11.600
65009W        W34890   9.221  32.997  13.983
65010W        W34891   6.782  31.513  11.388
65011W        W34892  14.659   5.211  11.462
65012W        W34893  23.549  32.901  13.864
65013W        W34894  32.029  12.722  14.840
65014W        W34895  38.547  19.245   0.848
65015W        W34896  44.428  35.589  14.360
65016W        W34897   9.667  14.667   4.326
65017W        W34898   2.354  36.430   1.706
65018W        W34899  29.504   0.921  11.858
65019W        W34900  42.446   2.363  14.337
65020W        W34901  16.225  15.176  12.982
65021W        W34902  20.714   6.889   0.903
65022W        W34903  42.013  43.439   1.808
65023W        W34904  11.670   6.885  14.310
65024W        W34905  11.195  30.537   3.757
65025W        W34906   4.363  29.131   4.293
65026W        W34907   3.744  36.400   0.256
65027W        W34908  27.154   7.885  12.932
65028W        W34909  25.491  40.955  14.991
65029W        W34910   8.387  22.131  12.842
65030W        W34911  10.738  13.321   4.210
65031W        W34912  44.007  24.179  11.008
65032W        W34913   7.199   5.421   4.761
65033W        W34914   7.358  15.717   4.353
65034W        W34915   0.852  14.216  12.342
65035W        W34916  19.065  17.246  12.427
65036W        W34917  10.366  34.871  13.409
65037W        W34918  21.678  40.859   2.299
65038W        W34919  41.368   3.314   1.289
65039W        W34920  44.945  14.707  11.417
65040W        W34921  31.010  41.328  12.393
65041W        W34922   4.864   8.763   4.114
65042W        W34923  32.586  11.142  13.372
65043W        W34924  21.145  38.427  13.903
65044W        W34925  24.630   0.801   3.772
65045W        W34926   5.233   0.927  13.532
65046W        W34927  34.503  21.152   2.409
65047W        W34928  36.364  44.795  13.874
65048W        W34929  24.698   0.775   1.299
65049W        W34930  24.163  27.156   4.148
65050W        W34931  10.156  35.962   3.147
65051W        W34932  33.041  36.355   2.283
65052W        W34933   8.161  35.534  11.537
65053W        W34934  20.180   7.187  14.783
65054W        W34935  37.900  29.472  12.893
65055W        W34936  40.905   6.881   0.448
65056W        W34937  35.575  28.434  13.464
65057W        W34938  41.461  12.684  10.581
65058W        W34939  12.346  43.374  13.982
65059W        W34940  22.550  40.936  10.943
65060W        W34941  26.701  25.554   3.220
65061W        W34942  19.098  19.655   2.747
65062W        W34943  10.233  40.845  11.936
65063W        W34944  17.797  14.810  13.521
65064W        W34945  11.223  18.083   4.187
65065W        W34946  12.812  23.232  14.859
65066W        W34947   3.749  24.500  14.351
65067W        W34948  36.024  35.551   2.738
65068W        W34949  36.016  35.917  12.856
65069W        W34950  17.204  25.503  12.966
65070W        W34951  38.029  19.579  13.953
65071W        W34952   4.896  18.060   4.309
65072W        W34953  36.881  21.097   0.793
65073W        W34954  44.781  27.664   0.281
65074W        W34955  10.219  43.814   2.680
65075W        W34956  22.577   7.697   4.292
65076W        W34957  17.596  38.937  13.909
65077W        W34958  39.880  41.024  11.488
65078W        W34959  27.554  41.527   1.377
65079W        W34960   7.302  23.537  11.004
65080W        W34961  27.041  42.299   4.210
65081W        W34962  24.602  27.474   2.745
65082W        W34963   1.371  30.489   4.808
65083W        W34964   3.935   1.850  13.378
65084W        W34965   9.749  29.659  12.047
65085W        W34966  30.140  36.440  12.579
65086W        W34967   6.344  33.996   3.218
65087W        W34968   5.931  21.733  10.925
65088W        W34969  25.539  13.128   3.165
65089W        W34970   5.297  40.984  14.279
65090W        W34971  22.600   3.277  12.963
65091W        W34972  31.003  38.467   2.347
65092W        W34973  43.947  33.893  11.432
65093W        W34974   4.251  32.622   4.273
65094W        W34975  32.431  38.837  12.342
65095W        W34976  15.174   6.265   1.390
65096W        W34977  30.494  23.171  10.498
65097W        W34978   6.351  39.428   2.871
65098W        W34979  10.269   4.340  10.445
65099W        W34980  28.586   5.414  13.401
65100W        W34981  19.205  12.284   0.325
65101W        W34982  23.018   3.317   4.634
65102W        W34983  33.103   7.375  13.917
65103W        W34984  29.459   8.745   3.655
65104W        W34985  39.880  18.280   2.877
65105W        W34986   8.284   6.733  10.546
65106W        W34987  30.014  22.224  14.956
65107W        W34988   8.883  12.807   0.423
65108W        W34989  28.170  20.065  10.603
65109W        W34990  40.492  11.257   0.907
65110W        W34991  21.220  22.098   0.408
65111W        W34992  24.551  27.057  10.595
65112W        W34993  27.558  31.435  13.463
65113W        W34994  39.978  43.453   1.933
65114W        W34995  12.838  38.472  11.992
65115W        W34996  39.874  29.173  11.898
65116W        W34997  39.851  32.408   1.766
65117W        W34998   4.943  17.580   1.796
65118W        W34999  35.876  44.805  12.511
65119W        W35000  29.589  11.204  12.041
65120W        W35001  28.179   9.805  12.890
65121W        W35002   8.741   4.322  11.855
65122W        W35003  18.249   0.766  14.449
65123W        W35004   4.312   4.326   3.165
65124W        W35005  33.561  34.507  14.920
65125W        W35006  17.692  33.617  10.452
65126W        W35007   6.220  17.802   0.414
65127W        W35008  24.602  12.840   1.772
65128W        W35009   9.731  36.889  12.408
65129W        W35010   2.389  22.726   1.719
65130W        W35011  27.510  10.785   1.864
65131W        W35012  40.055  36.985  10.974
65132W        W35013  41.467  38.846  10.417
65133W        W35014  21.118   4.736  14.967
65134W        W35015  18.654  25.201   5.286
65135W        W35016  18.153  13.337  14.805
65136W        W35017  39.909  20.758   4.688
65137W        W35018   6.897   3.754  11.535
65138W        W35019   1.466   0.447  14.350
65139W        W35020  13.751  36.349  13.882
65140W        W35021  42.403  44.998   3.338
65141W        W35022  40.914   5.382  12.501
65142W        W35023  20.552  36.925  12.450
65143W        W35024  13.316   5.891   0.329
65144W        W35025   9.798   9.282  10.427
65145W        W35026   1.946  12.811  11.608
65146W        W35027   1.388  11.815   1.778
65147W        W35028  42.831  32.554   3.279
65148W        W35029   1.260  12.285  14.316
65149W        W35030  31.488  26.037   1.405
65150W        W35031  10.755  32.936   4.202
65151W        W35032  40.962  24.119  10.923
65152W        W35033   2.387  43.784   1.721
65153W        W35034  28.664   9.716   0.437
65154W        W35035  41.864   3.727  10.996
65155W        W35036  31.112  10.632   4.255
65156W        W35037  29.517  41.904   1.926
65157W        W35038   3.425  39.887  11.865
65158W        W35039  21.120  19.688   4.615
65159W        W35040  28.662  21.153   3.662
65160W        W35041  34.043  44.283  11.980
65161W        W35042  34.394  30.548   3.676
65162W        W35043  18.676  10.667  13.985
65163W        W35044  21.561   3.359  12.939
65164W        W35045  19.557  22.136  10.932
65165W        W35046  19.741  29.619  13.510
65166W        W35047  19.605  38.508   3.810
65167W        W35048   3.863  34.477  12.472
65168W        W35049  19.608   8.234  14.811
65169W        W35050  41.367   9.659   0.462
65170W        W35051  30.597  38.857  11.117
65171W        W35052  30.980  35.092   2.238
65172W        W35053  33.967  10.773   0.863
65173W        W35054  18.676  12.204  13.462
65174W        W35055  24.193  40.872  11.103
65175W        W35056  19.069   1.947  14.857
65176W        W35057  12.738  30.121   2.312
65177W        W35058  30.521  27.166   2.412
65178W        W35059  24.978  39.414   1.442
65179W        W35060   3.243  12.635  11.959
65180W        W35061   6.744  31.644  10.466
65181W        W35062  14.615  26.664  12.552
65182W        W35063  13.806  34.076  13.327
65183W        W35064  31.597  25.681   3.634
65184W        W35065  20.610   5.736  13.820
65185W        W35066  36.474  11.754  13.981
65186W        W35067  34.976  36.899  12.506
65187W        W35068   4.281  31.039   2.751
65188W        W35069  35.520   7.738   2.183
65189W        W35070  21.648   4.880   1.396
65190W        W35071  41.874  20.556  12.422
65191W        W35072  33.559  43.424   4.718
65192W        W35073  12.227   5.284   1.247
65193W        W35074   0.450  30.101   2.816
65194W        W35075  42.375  28.938  14.962
65195W        W35076  25.193  17.135  12.490
65196W        W35077  36.497   7.857  12.414
65197W        W35078  12.201  31.446   0.950
65198W        W35079  16.713  15.256  13.450
65199W        W35080  34.591   3.324   3.365
65200W        W35081   1.901  12.145  13.433
65201W        W35082  11.150  33.489   2.191
65202W        W35083  35.535  14.148  12.831
65203W        W35084  19.220  35.081  11.028
65204W        W35085   0.936   8.388  10.977
65205W        W35086  10.639  38.561   4.323
65206W        W35087  41.017   2.728  14.022
65207W        W35088  28.987  19.643  12.575
65208W        W35089  15.194  35.491  13.050
65209W        W35090  21.117  29.002   1.227
65210W        W35091  27.452  18.095   3.258
65211W        W35092  42.448  31.128   2.359
65212W        W35093   2.806   7.240   3.363
65213W        W35094   0.892  21.645   4.719
65214W        W35095   6.741  43.314   4.771
65215W        W35096   2.350  17.757   3.721
65216W        W35097   9.670  21.718   4.130
65217W        W35098  33.467  42.874  12.849
65218W        W35099  31.421  11.622   4.314
65219W        W35100   2.447  24.615  12.077
65220W        W35101   7.872  25.986  12.467
65221W        W35102  24.166  37.350  12.421
65222W        W35103  39.458  29.486  13.324
65223W        W35104  16.156  41.930   3.271
65224W        W35105  11.839   6.759  13.014
65225W        W35106  37.452  41.867   0.770
65226W        W35107  22.008  26.515  12.425
65227W        W35108   4.349   7.834   3.760
65228W        W35109  15.160  19.103   3.316
65229W        W35110   8.878  26.195  12.849
65230W        W35111   3.783   5.415  13.008
65231W        W35112  25.208  34.887  12.506
65232W        W35113  15.805  43.794   1.749
65233W        W35114  40.013  17.215   1.812
65234W        W35115  21.751  13.123   0.782
65235W        W35116  18.673  24.050  11.535
65236W        W35117  16.220  16.713   0.304
65237W        W35118   8.256  15.809   2.710
65238W        W35119  30.038  23.224  11.964
65239W        W35120  40.971  11.325  13.871
65240W        W35121  15.697  42.980   1.342
65241W        W35122  37.415  27.165   4.333
65242W        W35123  24.521  38.006  10.925
65243W        W35124   9.191  15.662   1.781
65244W        W35125  26.677  12.831  14.497
65245W        W35126  14.132   5.235   0.765
65246W        W35127   5.825  28.626   1.292
65247W        W35128  44.884  16.282   3.804
65248W        W35129  35.467  38.468  12.956
65249W        W35130  15.751   6.850   3.690
65250W        W35131  16.792  26.491   0.447
65251W        W35132  42.971  29.145  14.786
65252W        W35133  32.441  42.000  10.969
65253W        W35134   2.812  31.009   3.250
65254W        W35135  17.730  25.590   1.321
65255W        W35136  41.807  34.984   3.737
65256W        W35137  36.966   2.802  14.946
65257W        W35138  36.967  32.086  14.816
65258W        W35139  10.165  19.108   2.677
65259W        W35140  10.158  17.225  13.866
65260W        W35141   4.302  42.444   0.765
65261W        W35142  12.225  24.979   3.252
65262W        W35143  38.408   4.807  14.785
65263W        W35144   7.806   1.425  12.530
65264W        W35145   7.192  24.007   4.771
65265W        W35146   7.711   6.211   4.779
65266W        W35147   3.223  42.020  13.937
65267W        W35148  30.948  41.484   1.258
65268W        W35149  40.798  29.017  13.050
65269W        W35150  35.922  23.190  11.960
65270W        W35151  24.176  43.856  11.880
65271W        W35152   8.290   4.246   4.301
65272W        W35153  42.408  11.639  14.292
65273W        W35154  34.118  38.876  13.425
65274W        W35155  10.683  38.949  11.085
65275W        W35156  12.345   4.216  10.425
65276W        W35157  16.807   0.369   0.922
65277W        W35158  37.377  17.764  13.307
65278W        W35159  33.559  38.521   2.725
65279W        W35160  17.269  38.353   1.233
65280W        W35161  24.582  27.998  11.488
65281W        W35162   6.421  35.574  12.029
65282W        W35163  38.500   8.218  12.056
65283W        W35164   3.869  28.073   4.632
65284W        W35165  41.789  25.609   2.761
65285W        W35166  27.448  39.909   4.339
65286W        W35167   8.362  41.031  13.010
65287W        W35168  23.603  19.714   4.275
65288W        W35169  34.490  32.495   4.608
65289W        W35170  18.241  33.393  11.024
65290W        W35171  10.797  32.596   0.787
65291W        W35172   1.848  34.969  13.840
65292W        W35173   7.279  23.083   2.894
65293W        W35174  21.133  29.574   1.828
65294W        W35175  43.374  40.471   0.297
65295W        W35176   4.238  11.152  10.436
65296W        W35177  23.628  39.402  12.342
65297W        W35178   0.492  26.110  14.410
65298W        W35179   8.336  35.034   1.403
65299W        W35180  17.571  36.551   2.363
65300W        W35181   4.209  25.670  12.846
65301W        W35182   6.923  14.708  12.079
65302W        W35183   5.354  13.161  11.435
65303W        W35184  44.892  16.680  12.877
65304W        W35185  24.528  13.664  12.454
65305W        W35186   4.263  26.130   1.372
65306W        W35187  10.302  42.838  14.928
65307W        W35188  20.183  14.183   2.343
65308W        W35189  32.553  13.600  11.109
65309W        W35190  24.505  36.554  13.481
65310W        W35191  39.394  14.297   2.311
65311W        W35192  28.589  12.648  11.996
65312W        W35193  32.538  11.748  10.496
65313W        W35194  26.136  31.442  11.084
65314W        W35195  34.444  27.487   1.392
65315W        W35196  16.194  38.359   5.651
65316W        W35197  12.767   4.896   4.706
65317W        W35198   0.428  39.355   4.311
65318W        W35199  33.935  14.603   2.283
65319W        W35200  34.573  40.910  14.330
65320W        W35201  23.228  38.532  13.548
65321W        W35202  27.582  27.986  12.424
65322W        W35203  10.845  20.728  12.854
65323W        W35204   6.768  16.695  11.435
65324W        W35205  31.959  19.767   5.140
65325W        W35206   7.860   6.428   0.266
65326W        W35207   5.841  15.794   1.773
65327W        W35208  17.611  24.537  13.827
65328W        W35209   8.661  11.337   1.696
65329W        W35210  36.864   5.266   3.791
65330W        W35211  12.615   8.379  12.040
65331W        W35212  36.438  22.712  13.003
65332W        W35213  24.042   5.745  10.906
65333W        W35214  35.936  15.659  14.940
65334W        W35215   2.831  25.095  14.940
65335W        W35216  25.681  10.233   4.288
65336W        W35217  12.160  28.530   5.103
65337W        W35218   7.310   8.827   0.783
65338W        W35219  10.259  42.981  13.837
65339W        W35220  18.123  19.603   0.444
65340W        W35221  37.902  28.985   0.451
65341W        W35222   3.443   2.810   1.737
65342W        W35223  40.801  22.665  14.873
65343W        W35224   3.726  26.962  12.525
65344W        W35225  34.057   9.700   0.863
65345W        W35226  32.548  21.173  12.963
65346W        W35227  29.564  43.474   0.364
65347W        W35228  22.733  32.946   4.818
65348W        W35229   0.349  30.531  11.927
65349W        W35230   0.305  40.856   0.887
65350W        W35231  21.588   6.424   1.393
65351W        W35232  15.105   5.836  12.409
65352W        W35233  25.540  40.535   2.344
65353W        W35234  23.539  34.016  13.917
65354W        W35235  15.142  35.399  10.548
65355W        W35236   4.269   5.809  10.928
65356W        W35237  28.140   8.319  10.062
65357W        W35238  23.166  32.399   0.311
65358W        W35239  20.101  30.033   9.545
65359W        W35240  14.599  34.116  12.063
65360W        W35241  40.013  10.816  13.862
65361W        W35242  37.975  40.864   0.252
65362W        W35243  16.179  27.677   4.238
65363W        W35244   1.749  29.630  10.983
65364W        W35245  29.052   7.740  10.457
65365W        W35246  13.833   3.323  13.499
65366W        W35247  37.001  40.391  14.925
65367W        W35248  34.900   0.954   4.259
65368W        W35249  22.745  11.263   2.698
65369W        W35250  26.167  30.977   0.390
65370W        W35251  26.959  38.962  14.491
65371W        W35252  36.578  44.977  13.495
65372W        W35253  32.959  28.055   1.729
65373W        W35254   3.459  36.914  13.517
65374W        W35255  30.514   1.917  13.376
65375W        W35256   2.269  43.510  12.953
65376W        W35257  21.571  11.687   3.255
65377W        W35258  12.692  18.232   4.248
65378W        W35259  18.673  24.214   2.294
65379W        W35260  34.073   6.370  14.479
65380W        W35261   0.859   4.742  14.860
65381W        W35262   8.270  37.392   1.298
65382W        W35263  35.876  21.598  12.895
65383W        W35264  36.855   6.832  10.460
65384W        W35265  29.068  10.653   1.755
65385W        W35266   6.794  12.142   3.331
65386W        W35267  35.856  35.064   1.898
65387W        W35268  10.358  25.071  12.899
65388W        W35269  43.422  12.126  12.359
65389W        W35270   1.421  43.814   2.764
65390W        W35271   9.315   3.358   1.445
65391W        W35272  29.602   3.755  10.419
65392W        W35273  11.299  11.657  13.410
65393W        W35274  40.387  32.521   2.755
65394W        W35275  35.406  21.174  12.877
65395W        W35276  16.275  23.070  13.499
65396W        W35277  30.133  33.498  14.388
65397W        W35278   8.319  36.974  13.473
65398W        W35279  44.497  21.135  13.332
65399W        W35280  10.142   1.303   5.253
65400W        W35281  20.569  25.147   0.789
65401W        W35282  36.014  40.871   0.394
65402W        W35283   3.789  24.995   3.664
65403W        W35284  27.953   8.830   0.431
65404W        W35285   8.663  17.250   1.335
65405W        W35286  29.670  12.753   0.732
65406W        W35287   0.377  20.711  11.496
65407W        W35288  25.035  38.009   5.263
65408W        W35289  27.648  28.569  12.564
65409W        W35290  41.406  12.330  13.051
65410W        W35291  13.292   3.349   3.383
65411W        W35292  37.035  36.575   2.720
65412W        W35293  36.089   8.291  11.455
65413W        W35294  39.966   8.802  10.563
65414W        W35295  39.887  29.526  13.461
65415W        W35296  22.572  31.617  11.504
65416W        W35297  18.277   3.733   2.251
65417W        W35298   8.830  36.906  10.635
65418W        W35299  31.593   3.772  13.469
65419W        W35300   1.382  42.477  10.576
65420W        W35301  12.287  27.113   3.288
65421W        W35302  24.677   9.708  11.425
65422W        W35303  19.232  28.171  14.026
65423W        W35304  25.556  10.329  11.446
65424W        W35305  23.092  15.615  13.373
65425W        W35306   4.843  14.693  12.052
65426W        W35307  30.456   6.201  11.938
65427W        W35308  24.505  30.619  11.066
65428W        W35309   6.700  39.373   1.368
65429W        W35310  26.137   7.819  13.794
65430W        W35311  28.612  13.260  12.021
65431W        W35312   7.242  39.425   0.782
65432W        W35313  16.310  17.752  13.832
65433W        W35314  36.880   6.319   3.246
65434W        W35315  25.640  40.498   1.771
65435W        W35316  24.561  39.444  14.854
65436W        W35317  18.757  22.552  14.850
65437W        W35318  21.186  35.040  12.546
65438W        W35319  14.678  29.997  11.062
65439W        W35320  25.970  34.374  14.460
65440W        W35321  15.587  10.778   4.224
65441W        W35322   4.349   1.962   2.813
65442W        W35323  16.790   3.906   4.706
65443W        W35324  42.898  38.372   3.253
65444W        W35325  36.949  11.730  11.584
65445W        W35326  44.267  37.387  13.908
65446W        W35327  14.687  39.337   3.846
65447W        W35328  17.652   4.382   0.334
65448W        W35329   2.824   4.394  14.982
65449W        W35330  38.876  23.178   1.867
65450W        W35331   1.741  11.230   0.284
65451W        W35332  14.589  31.630  10.993
65452W        W35333  41.891   9.843   4.290
65453W        W35334  28.009  36.959  11.908
65454W        W35335  42.854   2.770  14.494
65455W        W35336  38.046  32.012   0.399
65456W        W35337   5.909  13.835  13.045
65457W        W35338  41.798  43.401  12.567
65458W        W35339  11.148  37.936  13.831
65459W        W35340  12.314   0.419   3.721
65460W        W35341  36.536   5.414  13.014
65461W        W35342  41.414  29.607   1.864
65462W        W35343   6.739  16.693  10.937
65463W        W35344  27.181  19.266   4.788
65464W        W35345   1.826  26.145  11.870
65465W        W35346   1.479  36.847  12.530
65466W        W35347  11.224  37.915  12.508
65467W        W35348   0.870  42.862   5.120
65468W        W35349  29.549  10.810  14.326
65469W        W35350  32.568  15.790  12.007
65470W        W35351  34.378  10.777  10.451
65471W        W35352   3.801  33.029  12.527
65472W        W35353   6.323   0.336   1.923
65473W        W35354  14.287  26.082  14.291
65474W        W35355   9.313  37.018  11.440
65475W        W35356  21.179  31.103   1.887
65476W        W35357   0.843   3.348  13.925
65477W        W35358  38.016  25.219   3.181
65478W        W35359  29.607  11.251   0.748
65479W        W35360  22.527   5.397  11.001
65480W        W35361  40.454  26.605  12.379
65481W        W35362  44.885  18.167   4.625
65482W        W35363  25.630  42.942   2.355
65483W        W35364  44.283  38.072   3.232
65484W        W35365  32.398   4.727  10.155
65485W        W35366   0.840  32.617  14.969
65486W        W35367  14.125  20.105  14.359
65487W        W35368   1.476  20.194  11.911
65488W        W35369  18.053  30.606   1.313
65489W        W35370  22.043  35.531  13.850
65490W        W35371   6.728   9.263   1.780
65491W        W35372  28.965   6.682   2.228
65492W        W35373   2.461  23.697  12.959
65493W        W35374   3.821  32.006  13.906
65494W        W35375  19.058   1.322  12.934
65495W        W35376  25.153  34.897  13.437
65496W        W35377  28.098  32.094  12.370
65497W        W35378  10.722  29.033   1.844
65498W        W35379  40.440  43.877  12.848
65499W        W35380  29.508  31.916  14.851
65500W        W35381  32.601  11.154  12.474
65501W        W35382  33.001  10.685  14.955
65502W        W35383  20.100   4.796   4.599
65503W        W35384  27.098   3.373  13.814
65504W        W35385   0.391  11.678   4.172
65505W        W35386  17.155  25.554  11.398
65506W        W35387  27.062  11.698   3.327
65507W        W35388  44.802  28.161  10.052
65508W        W35389   4.787  32.576  11.884
65509W        W35390  17.739  16.669  13.360
65510W        W35391  16.247  18.740  13.992
65511W        W35392  24.050  31.104   3.651
65512W        W35393  25.504  39.458  12.957
65513W        W35394  17.066  13.630   4.701
65514W        W35395  42.893  17.793  10.577
65515W        W35396  21.517  44.835  14.974
65516W        W35397  33.062   5.312   1.307
65517W        W35398  17.177  32.111  14.420
65518W        W35399  10.681  39.915  10.963
65519W        W35400  12.200  30.107   1.233
65520W        W35401  19.652  32.539  11.520
65521W        W35402  32.926  33.502   0.816
65522W        W35403  44.312  29.919   1.258
65523W        W35404  15.135  12.666  14.761
65524W        W35405   6.755   6.293   3.805
65525W        W35406  11.815  44.756   4.628
65526W        W35407  14.202  11.712  14.478
65527W        W35408   1.249  24.723  12.096
65528W        W35409  18.196   6.267  13.838
65529W        W35410  35.008  16.089  14.313
65530W        W35411  25.530  16.310  10.404
65531W        W35412  44.862  41.459  11.393
65532W        W35413  28.489  27.651   4.674
65533W        W35414  16.133  17.243  11.581
65534W        W35415  16.299  34.460   0.450
65535W        W35416  27.597  40.975  13.412
65536W        W35417   7.736  19.700   3.177
65537W        W35418  35.003  16.774   2.745
65538W        W35419  35.426  25.962  13.824
65539W        W35420  34.482   0.300  10.475
65540W        W35421  20.580  19.616   2.284
65541W        W35422  12.222   5.355  10.477
65542W        W35423  24.700  38.903  10.085
65543W        W35424   0.924  36.521   1.824
65544W        W35425  33.481  43.321   4.239
65545W        W35426   7.825  17.559  12.485
65546W        W35427  19.541  21.148   3.745
65547W        W35428  20.678  16.609  10.922
65548W        W35429   2.291  19.674  14.881
65549W        W35430  34.118  30.526  11.526
65550W        W35431  33.571  20.094   1.767
65551W        W35432  24.113  24.164  14.389
65552W        W35433   3.332  35.021  10.625
65553W        W35434  18.555  39.821   0.888
65554W        W35435  40.531  17.168  13.847
65555W        W35436  27.032  16.739  11.039
65556W        W35437  34.561  10.776  14.964
65557W        W35438  12.335   4.387  13.828
65558W        W35439  39.897  17.063  14.433
65559W        W35440  28.051   3.301  13.333
65560W        W35441  27.683  32.487  10.581
65561W        W35442  35.573  15.818   1.888
65562W        W35443  10.673  32.406  13.319
65563W        W35444  41.424  39.382   0.803
65564W        W35445  36.008  22.649  13.913
65565W        W35446  30.009  15.174  11.918
65566W        W35447  33.956   4.708   1.399
65567W        W35448  40.391   4.897  13.907
65568W        W35449  44.324  17.598   3.802
65569W        W35450  16.774  16.310  14.987
65570W        W35451  42.873  16.310   2.892
65571W        W35452  25.139   3.396   1.255
65572W        W35453  26.990  37.401   2.341
65573W        W35454  28.016   5.253   1.717
65574W        W35455   9.370  15.714   3.686
65575W        W35456  22.518  33.106   1.743
65576W        W35457  43.810  39.532   1.399
65577W        W35458  25.013  30.113   3.227
65578W        W35459  44.443  19.274   0.254
65579W        W35460   1.910   1.840  10.618
65580W        W35461  38.372  33.075   0.949
65581W        W35462  32.473  25.136   4.821
65582W        W35463   9.221   9.689   0.432
65583W        W35464  33.418   6.185   2.738
65584W        W35465  18.252  21.574   2.750
65585W        W35466  39.381  22.741   3.648
65586W        W35467  44.816   1.453   0.333
65587W        W35468  14.666  31.614   2.671
65588W        W35469  35.372  11.146  11.857
65589W        W35470  16.161   7.776  13.922
65590W        W35471  30.121  24.634   0.421
65591W        W35472  35.037   0.425   3.333
65592W        W35473  24.030  34.416   3.680
65593W        W35474  43.457  13.835  12.946
65594W        W35475  10.366  37.339  12.571
65595W        W35476  14.318  19.710   0.424
65596W        W35477  12.815  30.044  10.583
65597W        W35478  13.179  27.629   2.324
65598W        W35479  41.041  22.240  12.849
65599W        W35480  44.001   8.763  11.890
65600W        W35481  40.481  27.122   3.345
65601W        W35482  40.954  38.887  13.322
65602W        W35483  40.038  29.048   3.177
65603W        W35484  34.553  31.645  12.420
65604W        W35485  13.634  14.812   3.297
65605W        W35486  43.865  15.170  12.505
65606W        W35487  19.235  24.489   4.763
65607W        W35488   5.874  40.823  14.800
65608W        W35489  32.118  19.230  13.816
65609W        W35490  44.939   9.159  10.524
65610W        W35491  28.443  23.037  11.942
65611W        W35492   2.303  10.361  12.557
65612W        W35493  28.062  17.234  14.503
65613W        W35494  18.572   4.830   2.744
65614W        W35495  15.164   3.800   0.923
65615W        W35496   4.793  43.429  13.834
65616W        W35497  23.191  21.635   0.459
65617W        W35498  39.330  28.993  12.858
65618W        W35499  17.124  20.115  14.292
65619W        W35500   7.371   2.436  13.409
65620W        W35501  27.057   6.318  14.980
65621W        W35502  27.169  11.851  10.409
65622W        W35503  37.901  18.210  12.571
65623W        W35504   6.283  41.864  12.054
65624W        W35505  32.074   4.354  11.453
65625W        W35506  42.927  20.609  12.997
65626W        W35507  37.003  23.115  13.351
65627W        W35508  33.508  40.979  13.336
65628W        W35509   1.395   0.965  14.811
65629W        W35510  22.227  36.389  13.022
65630W        W35511   3.867  22.211   4.264
65631W        W35512  44.903  37.073   3.249
65632W        W35513  22.746  30.045  11.470
65633W        W35514  28.535  25.139   3.660
65634W        W35515  42.335   2.309   3.654
65635W        W35516  22.252   1.756   2.873
65636W        W35517  23.555  12.143  11.865
65637W        W35518   0.274   6.851  12.832
65638W        W35519  26.017  13.707   3.174
65639W        W35520   1.927  28.139  10.508
65640W        W35521  29.025   0.765  11.560
65641W        W35522  13.645  20.155   4.798
65642W        W35523   9.669  42.776   2.192
65643W        W35524   4.732  32.563  14.967
65644W        W35525  34.000  37.352   4.716
65645W        W35526   4.896  18.571   4.206
65646W        W35527   7.770   9.385  12.843
65647W        W35528  28.093  28.644   1.899
65648W        W35529  30.560  33.540   3.190
65649W        W35530  32.514   7.884   4.324
65650W        W35531  21.714  19.046   4.205
65651W        W35532  20.691  34.468   3.357
65652W        W35533  42.859  27.567  12.453
65653W        W35534  31.484  21.094   5.124
65654W        W35535   4.318   5.403   4.829
65655W        W35536  29.573  18.603   4.725
65656W        W35537  29.521  35.971   1.353
65657W        W35538  32.437  38.387  14.898
65658W        W35539   8.761  28.482  11.564
65659W        W35540  34.610  35.414   4.709
65660W        W35541  39.909  29.469  10.585
65661W        W35542  42.397  16.753  12.576
65662W        W35543  20.207  35.009   3.307
65663W        W35544  37.994  29.993   2.731
65664W        W35545  35.595  15.606  13.018
65665W        W35546   8.824   9.373   1.802
65666W        W35547   8.776   4.380   2.415
65667W        W35548  14.643  10.350  10.103
65668W        W35549  13.244   0.386  12.459
65669W        W35550  42.400  17.724   1.909
65670W        W35551   6.218  36.526   1.894
65671W        W35552  13.657  23.572  14.289
65672W        W35553  33.044  10.345   4.257
65673W        W35554  22.222  43.487   2.384
65674W        W35555   8.401  42.497   4.230
65675W        W35556  43.510  34.974  14.911
65676W        W35557  21.578  23.108  12.405
65677W        W35558  27.041  13.203   3.732
65678W        W35559  27.649  39.399   2.190
65679W        W35560  16.710  44.847   1.893
65680W        W35561   4.783  17.760  11.054
65681W        W35562  23.021  44.350  13.343
65682W        W35563  36.973  25.111  13.498
65683W        W35564  36.412   7.729   1.915
65684W        W35565  13.774  15.285  10.444
65685W        W35566  33.504  11.637   3.212
65686W        W35567  11.729   0.837  12.354
65687W        W35568  30.647  10.769  11.549
65688W        W35569  14.606  12.793  11.611
65689W        W35570  27.020  33.539   3.234
65690W        W35571  24.179  19.167  12.992
65691W        W35572  34.586  15.741   0.476
65692W        W35573  14.164   6.297  11.399
65693W        W35574  37.458  11.781   1.262
65694W        W35575   2.905   3.752   1.769
65695W        W35576  14.661  17.624   2.312
65696W        W35577  33.562  35.096   4.129
65697W        W35578  35.871  10.874  10.413
65698W        W35579  14.297   8.289  14.854
65699W        W35580  31.021  31.635   4.282
65700W        W35581  20.704   6.695  14.306
65701W        W35582  37.883  29.161  13.928
65702W        W35583  43.770  18.639   4.742
65703W        W35584  42.495  26.153   0.809
65704W        W35585  39.427   5.838  11.475
65705W        W35586  25.092  13.272   3.637
65706W        W35587   6.847   9.776   2.883
65707W        W35588  21.213  18.788   3.258
65708W        W35589   8.352  18.706  14.424
65709W        W35590  13.156   8.879   2.812
65710W        W35591  27.678  40.919  11.441
65711W        W35592  41.374   8.666   1.233
65712W        W35593  12.187  27.462   5.612
65713W        W35594   0.272  14.649   0.274
65714W        W35595   1.824  10.343  12.343
65715W        W35596  39.939  27.506   4.751
65716W        W35597   3.872  42.808  11.039
65717W        W35598  31.501  41.315  12.062
65718W        W35599   4.397  30.111  13.862
65719W        W35600  33.555   5.235  11.601
65720W        W35601   4.802  37.952   2.822
65721W        W35602  33.455  26.096  11.042
65722W        W35603  16.116  30.578   3.276
65723W        W35604  42.282  15.115   2.285
65724W        W35605   9.804   8.347  10.457
65725W        W35606  31.060   4.794   0.392
65726W        W35607   7.818  22.579   3.676
65727W        W35608  27.989  24.081  12.991
65728W        W35609  42.967  35.014   3.748
65729W        W35610  30.139  27.081  13.913
65730W        W35611  41.440  15.702  13.328
65731W        W35612  20.659  34.959  11.504
65732W        W35613  36.009  13.184   4.183
65733W        W35614  29.923  11.154  11.910
65734W        W35615  29.454  10.707   0.451
65735W        W35616   6.380  33.061   0.865
65736W        W35617  23.045   0.782   1.886
65737W        W35618   3.755  25.469  14.278
65738W        W35619  24.632  26.582  14.801
65739W        W35620   7.737  22.078  11.501
65740W        W35621  24.020  25.019   5.228
65741W        W35622  22.159   4.775   0.272
65742W        W35623  13.218  10.668   2.776
65743W        W35624   8.770  40.547   4.675
65744W        W35625  25.567  16.194   2.286
65745W        W35626  17.668  25.076  14.350
65746W        W35627  35.105  32.926   4.800
65747W        W35628  41.507  13.110   1.810
65748W        W35629  27.510  31.575   2.821
65749W        W35630  11.630  11.729  14.922
65750W        W35631  26.067  37.392  14.471
65751W        W35632  24.116  16.642   1.274
65752W        W35633   1.268  32.590   1.326
65753W        W35634  14.214  36.949   0.329
65754W        W35635  22.510   6.814  11.563
65755W        W35636   1.429   9.766  13.934
65756W        W35637  43.346   9.167  11.586
65757W        W35638   7.328   7.760   0.949
65758W        W35639  13.302  34.980   4.708
65759W        W35640   7.786   3.951   3.769
65760W        W35641  30.561  26.495   1.446
65761W        W35642  31.915  35.586   2.299
65762W        W35643  18.593  13.266  12.982
65763W        W35644   0.964  27.171  11.520
65764W        W35645   6.273   9.652  14.405
65765W        W35646  16.182  22.555   1.859
65766W        W35647   2.310   1.401   0.842
65767W        W35648  44.917   0.313   4.332
65768W        W35649  10.675  16.089   5.623
65769W        W35650  26.198  40.802   2.694
65770W        W35651  20.262   0.314   4.650
65771W        W35652  25.607   4.211   4.822
65772W        W35653  14.238  12.832  13.424
65773W        W35654  10.221  15.167  11.402
65774W        W35655  22.032   8.296   1.899
65775W        W35656  39.509  43.015  10.589
65776W        W35657   7.793  16.295   2.341
65777W        W35658  10.287  42.883  10.085
65778W        W35659  34.598  13.280   3.243
65779W        W35660  19.129  33.436   3.825
65780W        W35661  30.481  19.282  10.571
65781W        W35662  27.101  44.350   4.624
65782W        W35663   6.808  10.731  14.018
65783W        W35664  42.346  34.454   4.655
65784W        W35665  24.209  33.037   4.738
65785W        W35666  21.646  44.886  12.043
65786W        W35667   1.872  29.133  10.622
65787W        W35668  20.179  44.811  10.412
65788W        W35669  23.588  15.589   0.729
65789W        W35670   9.834  33.079   0.391
65790W        W35671  19.639  41.471   1.748
65791W        W35672  17.743   8.781   2.178
65792W        W35673   8.160  15.637  14.369
65793W        W35674  21.731  41.857  10.564
65794W        W35675   7.789  30.152  10.472
65795W        W35676  35.564  36.414  12.397
65796W        W35677   5.780  38.348  10.629
65797W        W35678  25.101   2.363  14.360
65798W        W35679  43.336  21.156  12.474
65799W        W35680  11.249  44.753   3.230
65800W        W35681   7.179  38.407  14.390
65801W        W35682  33.598  23.233   4.759
65802W        W35683  14.604  26.104   0.893
65803W        W35684  10.847   2.857  14.927
65804W        W35685  29.010  19.563  12.050
65805W        W35686  27.082  32.896   3.689
65806W        W35687  21.087  43.798   1.265
65807W        W35688  39.852  19.251   3.814
65808W        W35689  27.604  35.448  14.333
65809W        W35690  10.790  20.108  14.288
65810W        W35691  20.720   2.246  12.000
65811W        W35692   9.731  17.260  10.475
65812W        W35693  30.121  33.980  13.985
65813W        W35694  20.241  23.605   0.432
65814W        W35695  15.792   6.364   1.721
65815W        W35696  17.227  13.725  14.943
65816W        W35697  11.339  11.810  11.924
65817W        W35698  40.500  29.492   2.308
65818W        W35699  42.854   0.818   3.818
65819W        W35700  28.089   7.191  11.610
65820W        W35701  43.764  15.309   1.698
65821W        W35702  16.651  19.206  14.378
65822W        W35703  40.358  13.643  13.800
65823W        W35704  43.918  17.748  14.934
65824W        W35705  31.460  30.531  10.953
65825W        W35706   8.716  12.176   4.609
65826W        W35707  40.985  44.958  13.987
65827W        W35708   9.358  23.004  13.965
65828W        W35709   9.859  19.255  11.055
65829W        W35710  21.567  17.721  11.058
65830W        W35711  37.078  12.357   4.208
65831W        W35712   3.233  33.115   4.258
65832W        W35713  20.696   2.437   3.867
65833W        W35714  10.714  21.717  11.522
65834W        W35715  13.340  37.403   0.409
65835W        W35716  20.567  28.494  10.636
65836W        W35717  14.325   2.418   0.791
65837W        W35718  42.023  24.607   2.748
65838W        W35719  24.041  13.227  11.093
65839W        W35720  38.059  37.997  13.791
65840W        W35721  23.232  31.124   2.215
65841W        W35722  10.368  11.711  13.952
65842W        W35723  15.605  29.954  10.419
65843W        W35724  40.450   2.440   2.665
65844W        W35725  43.827   5.909   0.291
65845W        W35726  32.012  36.886   0.903
65846W        W35727   5.417  13.209  11.013
65847W        W35728  28.128  29.542  11.936
65848W        W35729  41.412  10.185   0.259
65849W        W35730  44.321  18.574  12.536
65850W        W35731   3.320  28.035   1.349
65851W        W35732  36.481  31.052  14.841
65852W        W35733  33.086   3.416  11.860
65853W        W35734  44.428  13.282  12.028
65854W        W35735   6.887  34.951  13.356
65855W        W35736  27.036  22.035   4.293
65856W        W35737  38.881  41.504  10.013
65857W        W35738  38.984  19.202   0.748
65858W        W35739  18.547   9.862  10.958
65859W        W35740  11.178  37.941  11.585
65860W        W35741   7.808  20.145   2.273
65861W        W35742  19.583   9.701   2.349
65862W        W35743  28.126  13.312   4.159
65863W        W35744  27.469  40.919  10.969
65864W        W35745  36.418  35.513  14.308
65865W        W35746  23.230  41.993  11.526
65866W        W35747  23.584   5.353   1.830
65867W        W35748  32.609  36.937   1.764
65868W        W35749  14.133  28.972   3.821
65869W        W35750   1.249  23.674   3.320
65870W        W35751   1.246  12.214  10.620
65871W        W35752   6.810  37.501  12.048
65872W        W35753  25.595  15.322  14.917
65873W        W35754  37.443  26.624  11.863
65874W        W35755  15.160  37.046   4.667
65875W        W35756  40.466   7.391  10.592
65876W        W35757  34.543  41.300  10.630
65877W        W35758   9.742   6.802  11.493
65878W        W35759   2.335  30.927  12.375
65879W        W35760  34.101  41.499   0.470
65880W        W35761  24.505  38.067   4.233
65881W        W35762   5.206   0.459  14.281
65882W        W35763  33.000  41.505   0.951
65883W        W35764  27.133  16.100  12.981
65884W        W35765   4.383  41.469  11.486
65885W        W35766  34.058   1.333  14.874
65886W        W35767  44.411   2.726   2.312
65887W        W35768   7.257  27.647   4.829
65888W        W35769  37.990  31.967   2.264
65889W        W35770  23.103  18.660  10.515
65890W        W35771   9.679  17.120   1.393
65891W        W35772   1.382  23.590  13.802
65892W        W35773  28.636  21.145  14.971
65893W        W35774   1.408  32.579  10.438
65894W        W35775  27.165  16.673   1.287
65895W        W35776   1.738  32.063  13.846
65896W        W35777  35.074  10.257   0.297
65897W        W35778  10.662  44.505  12.528
65898W        W35779  13.106  31.963  11.898
65899W        W35780  41.820  23.657   0.884
65900W        W35781  41.841  29.484   3.694
65901W        W35782  21.074  44.962   4.673
65902W        W35783  34.876   1.307  11.589
65903W        W35784  11.848  19.563   2.184
65904W        W35785  20.177   2.270   1.884
65905W        W35786  12.117   8.725  14.884
65906W        W35787   6.738  21.176   0.338
65907W        W35788  26.007  21.068  11.394
65908W        W35789   3.231  15.790   2.755
65909W        W35790  41.316  29.972  12.573
65910W        W35791  32.539   3.349   1.389
65911W        W35792  36.404   9.175   1.415
65912W        W35793   3.400   4.434  14.347
65913W        W35794   4.745   0.927   2.791
65914W        W35795  33.043  25.085  14.290
65915W        W35796   5.816  22.723  14.424
65916W        W35797  11.326  30.999   1.297
65917W        W35798   6.199  30.980  12.498
65918W        W35799  13.704   8.895  10.958
65919W        W35800  26.976  24.714  13.400
65920W        W35801  22.087  33.058   4.283
65921W        W35802  10.191  19.602   0.806
65922W        W35803  11.247  23.139   2.882
65923W        W35804  39.401   9.779  12.378
65924W        W35805  40.352   2.865  14.949
65925W        W35806  25.120  13.671   2.246
65926W        W35807  44.982  22.229   4.695
65927W        W35808   6.265  30.921  14.784
65928W        W35809  27.628   7.711   4.627
65929W        W35810   3.744   9.776   2.377
65930W        W35811  23.987   8.783  13.920
65931W        W35812  26.598  19.546  12.578
65932W        W35813  26.478  42.956   0.423
65933W        W35814  32.404  29.625   3.870
65934W        W35815  15.672  32.086   4.804
65935W        W35816  44.299   7.844   5.091
65936W        W35817  20.760  34.543   0.944
65937W        W35818  39.365  32.473   0.801
65938W        W35819  14.104  29.967   2.222
65939W        W35820  20.182  38.991  11.961
65940W        W35821  15.103   5.815   4.804
65941W        W35822  27.636  29.569   1.370
65942W        W35823   4.754  17.210  12.424
65943W        W35824  21.206  36.891   3.636
65944W        W35825  21.180  22.097   2.321
65945W        W35826   4.763  44.335   1.227
65946W        W35827  39.887   5.349  10.538
65947W        W35828  38.479   1.298   3.820
65948W        W35829  26.132  38.559  10.429
65949W        W35830  35.420  27.526  10.531
65950W        W35831  38.900   0.307   2.215
65951W        W35832   0.444  11.185  13.980
65952W        W35833  42.320   3.278   2.324
65953W        W35834   0.365  26.021  11.894
65954W        W35835  38.508  36.497   0.795
65955W        W35836  29.568  20.077   3.798
65956W        W35837  43.869   1.750   0.967
65957W        W35838   0.782   3.408  12.838
65958W        W35839  18.223  37.061   3.184
65959W        W35840  22.698   7.732  10.589
65960W        W35841  10.338  41.476  11.902
65961W        W35842  16.648  30.599  13.980
65962W        W35843  33.528  13.621   0.475
65963W        W35844   9.718  22.171   3.301
65964W        W35845  33.091   3.374   0.895
65965W        W35846   1.380  13.216   2.334
65966W        W35847  24.540  36.983   0.266
65967W        W35848  27.172  39.016   3.752
65968W        W35849  15.788  30.981   2.884
65969W        W35850  10.227   8.821   2.684
65970W        W35851  24.222  24.153   4.597
65971W        W35852  36.501  40.830  10.506
65972W        W35853  25.102  30.077  12.026
65973W        W35854   7.831  43.466   2.691
65974W        W35855  28.441  13.248   0.427
65975W        W35856  31.951   1.378  13.030
65976W        W35857   1.467  35.534  12.449
65977W        W35858  17.712   4.217  11.893
65978W        W35859   6.324  44.999  10.478
65979W        W35860   0.468  31.011  13.813
65980W        W35861  39.411   4.749  12.382
65981W        W35862  36.939  21.620   1.293
65982W        W35863   1.448  20.670   0.874
65983W        W35864  36.440  29.026   4.673
65984W        W35865  25.536  20.572  12.928
65985W        W35866  15.717  40.458   3.821
65986W        W35867  40.989  35.009  13.819
65987W        W35868   8.779  39.485  12.911
65988W        W35869  17.794  13.693  11.513
65989W        W35870  18.571  22.723  14.367
65990W        W35871  22.012   0.938   1.213
65991W        W35872  40.897   2.939   4.159
65992W        W35873  41.362   1.974  14.022
65993W        W35874  11.666  25.566  12.023
65994W        W35875   1.810  26.068   2.730
65995W        W35876  39.821   2.890  11.870
65996W        W35877  17.776  43.513   0.341
65997W        W35878  14.679  23.083  13.922
65998W        W35879   5.290  26.063   0.727
65999W        W35880  40.483  14.318   2.818
66000W        W35881  39.941  32.046   3.242
66001W        W35882  16.798  40.493   4.771
66002W        W35883   4.403  36.028  14.978
66003W        W35884  16.237   6.697   4.735
66004W        W35885  32.573   6.901  14.344
66005W        W35886   6.353  41.980   3.726
66006W        W35887   5.699   7.887   3.161
66007W        W35888  26.007  29.038   1.777
66008W        W35889  37.863  24.207   1.923
66009W        W35890  10.758  42.786   0.788
66010W        W35891  31.647  27.978  14.481
66011W        W35892  40.976  18.662  12.898
66012W        W35893  32.021  18.707  12.955
66013W        W35894  22.182  13.689  10.477
66014W        W35895  43.856  27.025   3.695
66015W        W35896  32.104  39.890   0.452
66016W        W35897  35.526  21.562   0.414
66017W        W35898  44.897  11.631   0.395
66018W        W35899   3.247  11.234   2.801
66019W        W35900  17.082  23.631   0.873
66020W        W35901  11.723  34.484   3.156
66021W        W35902  13.617  12.664   3.337
66022W        W35903   2.323  37.358  10.534
66023W        W35904  17.642  44.972  12.880
66024W        W35905   8.394  14.103  14.413
66025W        W35906  15.247  26.104  14.337
66026W        W35907   5.827  23.063   1.347
66027W        W35908  17.265  23.227   2.332
66028W        W35909   7.716  22.047  10.490
66029W        W35910  10.176  42.990   1.755
66030W        W35911  41.486  21.551   1.927
66031W        W35912  43.286  11.296  13.511
66032W        W35913  20.607  24.074   2.394
66033W        W35914  31.552  21.517   0.731
66034W        W35915  30.985  16.104  11.863
66035W        W35916  33.937   0.256   0.938
66036W        W35917  37.834  17.097  12.421
66037W        W35918  24.672  29.051  14.881
66038W        W35919   2.758  16.755   2.414
66039W        W35920   0.452  23.010   4.771
66040W        W35921  37.538  36.007  13.866
66041W        W35922  37.001  13.794   3.847
66042W        W35923  21.175  21.584   2.221
66043W        W35924  35.091  37.503  11.066
66044W        W35925  15.099  44.929  10.632
66045W        W35926   9.198  10.777   0.787
66046W        W35927  15.669  44.369  13.792
66047W        W35928   0.787   7.726  12.396
66048W        W35929   1.239  41.362   2.873
66049W        W35930  31.563   8.381   5.728
66050W        W35931   1.367   6.341   0.279
66051W        W35932  17.647  25.525  12.874
66052W        W35933  23.056   1.916   1.731
66053W        W35934  38.035  10.663   2.784
66054W        W35935  37.913  44.343  11.051
66055W        W35936  26.629  42.325   1.372
66056W        W35937  25.699   4.905  13.482
66057W        W35938  12.847   4.853   2.228
66058W        W35939  38.332  20.123   4.701
66059W        W35940  34.563  38.843   0.396
66060W        W35941  11.305  27.688   3.727
66061W        W35942  35.380   5.314  13.464
66062W        W35943   4.333   7.871  14.292
66063W        W35944   3.289  21.671  14.000
66064W        W35945   1.791  36.922   0.812
66065W        W35946  11.151  43.360   3.818
66066W        W35947  19.585  31.897   1.875
66067W        W35948  33.951  30.930   2.744
66068W        W35949  10.297  37.856   4.304
66069W        W35950   7.198   0.771  13.950
66070W        W35951  42.015   7.225   2.863
66071W        W35952  29.591  22.010  12.087
66072W        W35953  43.320  23.996   4.795
66073W        W35954   2.864   5.303  10.616
66074W        W35955  21.083  44.985   3.338
66075W        W35956  13.108  15.791  13.854
66076W        W35957   5.317  20.731  12.383
66077W        W35958   4.357  33.006  14.500
66078W        W35959  37.571  31.634  12.361
66079W        W35960  35.055  36.050  11.931
66080W        W35961   2.331  14.338  10.410
66081W        W35962  36.948   4.935  14.445
66082W        W35963  25.700   3.882   2.717
66083W        W35964   6.372  10.717   4.825
66084W        W35965   7.372  10.140  14.414
66085W        W35966  10.757  24.191  10.578
66086W        W35967   5.242   2.923  12.827
66087W        W35968  36.376  13.816  12.539
66088W        W35969  39.840   4.326   0.915
66089W        W35970  19.068  20.739   1.791
66090W        W35971  31.418  40.521   0.388
66091W        W35972  43.391  13.743   3.764
66092W        W35973  40.327  39.867   0.321
66093W        W35974  13.701  32.600  12.372
66094W        W35975  28.670  16.111  12.478
66095W        W35976  29.083   2.303   0.363
66096W        W35977   0.982  31.529   0.466
66097W        W35978  34.941  40.338  10.960
66098W        W35979  17.169   0.846  11.124
66099W        W35980  32.452   9.718   3.247
66100W        W35981  37.387  17.654  11.932
66101W        W35982  16.118   6.840  14.860
66102W        W35983   2.792   0.415   3.734
66103W        W35984   1.290   2.804  14.435
66104W        W35985  28.136  21.646   0.278
66105W        W35986  20.079  27.974  10.628
66106W        W35987  34.421  33.056   3.301
66107W        W35988  33.473  12.627  14.304
66108W        W35989  39.022  14.115   3.376
66109W        W35990  42.839  40.375  12.925
66110W        W35991   2.459  19.128   4.609
66111W        W35992  15.303  21.244   3.694
66112W        W35993  18.783  34.988  13.852
66113W        W35994  37.537   0.985   1.231
66114W        W35995  33.937  35.438   1.808
66115W        W35996   0.975  19.583  10.038
66116W        W35997  10.297  25.107   2.863
66117W        W35998  26.963  35.050  14.810
66118W        W35999   6.405  39.336   3.728
66119W        W36000   8.169  15.816   3.253
66120W        W36001  42.029  34.867   3.308
66121W        W36002  28.113  31.587   3.174
66122W        W36003   2.243  30.935   1.314
66123W        W36004   7.237   3.730  14.374
66124W        W36005   8.738  32.961  12.976
66125W        W36006  43.327  37.020   1.817
66126W        W36007  38.033  33.987  12.542
66127W        W36008  12.245   8.345   3.196
66128W        W36009   4.426   4.217  14.275
66129W        W36010  11.300  32.059   2.737
66130W        W36011  27.648  11.289  11.896
66131W        W36012   5.268  40.455   0.299
66132W        W36013  40.928   8.796  14.283
66133W        W36014  14.761  18.170  11.428
66134W        W36015  35.467  25.482  11.434
66135W        W36016  24.576  36.425   2.217
66136W        W36017  25.654  18.564   1.397
66137W        W36018  11.355  33.892  11.110
66138W        W36019  26.162  30.095  11.934
66139W        W36020  32.985   9.827  12.976
66140W        W36021  34.413  39.025  14.443
66141W        W36022   8.292  27.537   3.303
66142W        W36023  35.466  36.868   0.762
66143W        W36024   9.150  14.661  11.984
66144W        W36025  42.962  16.157  10.935
66145W        W36026  37.029  29.459  11.493
66146W        W36027  14.675  40.905   2.198
66147W        W36028  19.103  27.610   2.874
66148W        W36029  13.279  38.033  14.475
66149W        W36030  10.377  20.716  13.033
66150W        W36031   3.332  42.859  13.862
66151W        W36032  28.937  11.237  11.475
66152W        W36033  19.124  22.172   4.214
66153W        W36034  16.073  22.660  13.975
66154W        W36035   5.811  35.425  13.876
66155W        W36036  30.951  13.317   2.675
66156W        W36037  22.090   4.298   0.835
66157W        W36038  23.160  31.002  14.821
66158W        W36039  31.005  30.965  10.615
66159W        W36040  28.022   7.391  13.844
66160W        W36041  14.317  41.348  12.083
66161W        W36042   2.354  35.896   5.130
66162W        W36043  20.705  29.114  11.102
66163W        W36044  36.380   2.351   0.428
66164W        W36045  21.624  12.315  10.543
66165W        W36046  14.277  16.312   4.171
66166W        W36047  16.726   7.392  13.376
66167W        W36048  40.972  25.471  12.051
66168W        W36049  21.675  24.689  13.522
66169W        W36050  39.559  14.618  14.470
66170W        W36051  29.009  17.610  10.955
66171W        W36052  33.948  22.039   4.836
66172W        W36053   2.314   3.302  14.981
66173W        W36054   4.795  12.244   4.329
66174W        W36055  33.056  22.040  13.319
66175W        W36056  34.598  38.967   1.796
66176W        W36057  21.179  30.501   2.287
66177W        W36058  19.677  38.472  14.421
66178W        W36059  44.965  34.022  13.363
66179W        W36060  10.222   7.297  14.360
66180W        W36061  30.116  28.957   1.359
66181W        W36062  35.005  16.775   3.842
66182W        W36063  27.456  42.907   2.710
66183W        W36064  24.974  13.294  11.576
66184W        W36065  14.740  28.634  14.500
66185W        W36066  17.738  26.207  10.623
66186W        W36067  20.114  22.180  14.423
66187W        W36068  32.502   6.683   4.300
66188W        W36069   7.283  27.954   4.257
66189W        W36070  28.448  23.026   3.325
66190W        W36071  32.119  22.602  13.310
66191W        W36072  35.541  44.854  14.901
66192W        W36073  14.196  11.193   1.286
66193W        W36074  24.132  21.525  11.989
66194W        W36075  12.293  33.478   2.782
66195W        W36076  29.129  25.972   4.628
66196W        W36077  26.194  19.592   0.435
66197W        W36078  37.940  31.951  12.993
66198W        W36079  37.366  27.557   2.671
66199W        W36080  23.128   4.242   4.189
66200W        W36081   1.733  30.021  13.961
66201W        W36082   6.892  34.937   4.687
66202W        W36083  37.836  43.491  10.932
66203W        W36084  31.922   2.961  14.002
66204W        W36085  41.442  16.679  13.344
66205W        W36086  17.174  11.364  14.881
66206W        W36087   2.963  17.669  11.857
66207W        W36088  10.656  23.108   2.199
66208W        W36089  22.175  16.741  13.050
66209W        W36090  31.034  21.167  10.910
66210W        W36091  17.654  40.314   1.838
66211W        W36092  36.485   7.275  10.158
66212W        W36093  18.223   0.775  11.467
66213W        W36094  30.437  12.246  11.003
66214W        W36095  14.255   1.434   0.817
66215W        W36096  17.733   3.299  11.902
66216W        W36097  39.028  43.440  12.395
66217W        W36098   1.871  21.242   0.426
66218W        W36099  12.196  38.561   2.235
66219W        W36100  34.404  43.815   2.246
66220W        W36101  12.610   1.830  11.855
66221W        W36102  19.268  44.485  11.017
66222W        W36103  16.256  40.806  12.951
66223W        W36104  37.522  36.856  11.540
66224W        W36105  39.830  31.092   2.693
66225W        W36106  14.151  24.490   2.735
66226W        W36107  38.882  30.634  10.615
66227W        W36108   4.391  19.581   3.300
66228W        W36109   2.757  24.694   3.705
66229W        W36110  37.447  35.504  11.093
66230W        W36111   0.386  14.639  14.410
66231W        W36112  19.234  26.584  13.883
66232W        W36113  39.430  33.080   2.809
66233W        W36114   3.791   3.741   0.441
66234W        W36115  15.736  22.572   3.193
66235W        W36116  15.705  23.594   4.666
66236W        W36117   8.796  21.536  10.626
66237W        W36118  15.213   3.240  11.585
66238W        W36119  26.577  12.840   3.207
66239W        W36120  33.928  34.595  12.052
66240W        W36121   5.349  33.979  11.112
66241W        W36122   0.943  42.450  11.430
66242W        W36123  29.550   4.864  14.369
66243W        W36124  18.668  34.373   3.241
66244W        W36125   5.377  21.182  13.433
66245W        W36126  21.613  18.673   3.749
66246W        W36127  20.034  29.996  10.004
66247W        W36128  29.652  42.292   1.222
66248W        W36129  40.996  43.830  11.578
66249W        W36130  41.425  19.665   4.764
66250W        W36131  17.744   3.264  11.501
66251W        W36132  36.449  20.181   3.790
66252W        W36133  23.604   5.310  10.559
66253W        W36134  34.028  22.664   0.932
66254W        W36135   2.463   5.221  10.645
66255W        W36136  33.895  41.416   2.689
66256W        W36137  43.780  41.818   0.335
66257W        W36138  36.086  38.408   3.284
66258W        W36139  30.918  40.847  13.953
66259W        W36140  23.706  33.519  12.878
66260W        W36141  18.653   5.725  11.906
66261W        W36142   9.391  26.184   4.225
66262W        W36143  43.861  42.946  10.556
66263W        W36144  36.578  20.035  11.909
66264W        W36145  20.264  26.994  13.314
66265W        W36146  12.202  40.016  11.516
66266W        W36147  36.418  31.576   1.722
66267W        W36148   1.475  20.612   4.633
66268W        W36149  36.938  11.658   1.728
66269W        W36150  23.565  37.890   4.769
66270W        W36151  30.457  34.601  13.975
66271W        W36152  28.111  22.077   0.745
66272W        W36153   9.882   8.724   5.223
66273W        W36154   5.887   2.445   3.766
66274W        W36155  44.906   8.672  11.501
66275W        W36156  28.160  34.379   4.643
66276W        W36157  20.693  33.489  13.863
66277W        W36158  34.393  39.064  14.912
66278W        W36159   6.335  25.087   1.336
66279W        W36160  16.270  21.583   4.608
66280W        W36161  13.633  27.655  12.464
66281W        W36162  39.912  26.487  13.391
66282W        W36163  41.462  20.049   1.891
66283W        W36164  31.462   9.339  12.877
66284W        W36165  44.796   6.893   0.401
66285W        W36166  21.734  20.092   3.247
66286W        W36167  40.538  11.308   4.235
66287W        W36168  40.347  12.667   3.152
66288W        W36169   7.252  33.478  10.461
66289W        W36170  24.196  40.417  13.025
66290W        W36171  11.144  35.868  11.071
66291W        W36172   8.338  28.159  11.055
66292W        W36173  39.812  42.351   4.346
66293W        W36174   0.898  40.399   2.294
66294W        W36175  30.656  28.531   3.784
66295W        W36176  11.313  18.596   2.356
66296W        W36177   3.923   2.310  11.557
66297W        W36178  36.428   2.419   3.177
66298W        W36179  27.131  39.464  11.514
66299W        W36180  37.536  38.499  12.874
66300W        W36181  10.693   5.244   2.322
66301W        W36182  38.069  18.570  13.823
66302W        W36183  43.968   9.694  10.508
66303W        W36184  40.895  42.022  13.459
66304W        W36185  21.102  22.040  10.109
66305W        W36186  25.470  31.019  10.461
66306W        W36187  16.734  37.508   4.143
66307W        W36188  12.174  37.577  13.454
66308W        W36189  18.788  10.356  11.111
66309W        W36190  25.651  18.721   2.279
66310W        W36191   1.826  16.598  14.420
66311W        W36192  29.651  22.086  14.776
66312W        W36193   5.889  10.360   1.842
66313W        W36194  31.020  16.568  13.989
66314W        W36195  13.253  43.343  13.061
66315W        W36196  32.628  16.094  10.128
66316W        W36197  28.119   8.790   1.301
66317W        W36198  25.988  36.395   4.836
66318W        W36199  37.012  29.987   3.264
66319W        W36200   0.320  44.967   3.213
66320W        W36201   8.389   5.810   1.699
66321W        W36202  23.701  30.498   2.185
66322W        W36203  12.208   8.671  10.422
66323W        W36204  24.682  11.362   2.324
66324W        W36205  22.711  26.691   4.773
66325W        W36206  30.140  39.480   1.730
66326W        W36207  34.874  30.996   2.359
66327W        W36208  17.158   0.968   9.936
66328W        W36209  26.572  43.430  10.424
66329W        W36210  17.602   6.865  10.923
66330W        W36211  32.505   4.775  14.952
66331W        W36212  28.056   0.397   2.324
66332W        W36213  14.105  24.110  11.455
66333W        W36214  20.544  40.389   2.373
66334W        W36215   4.299   4.758   0.444
66335W        W36216  21.745  23.199  13.544
66336W        W36217  24.000  18.547  12.400
66337W        W36218  28.060  14.801  14.780
66338W        W36219   1.893  38.920  13.041
66339W        W36220  44.817  43.867   1.790
66340W        W36221   9.726  19.676  14.291
66341W        W36222  23.011  10.315  10.917
66342W        W36223   1.904  26.703  12.925
66343W        W36224  24.598  15.721  13.360
66344W        W36225   1.447  21.527   0.764
66345W        W36226  35.097  25.988   0.372
66346W        W36227   6.712  41.450   2.819
66347W        W36228   5.293  21.571  11.556
66348W        W36229  40.020  35.930   3.810
66349W        W36230  34.466  34.477   1.862
66350W        W36231   2.892  27.457   4.632
66351W        W36232  28.518  32.455  12.465
66352W        W36233   1.755  21.549   0.320
66353W        W36234  34.118  21.738   1.253
66354W        W36235   9.239  39.911   1.375
66355W        W36236  13.187   7.837  14.417
66356W        W36237  35.075  28.929  13.484
66357W        W36238   8.755  27.476  14.004
66358W        W36239  23.139   0.797   3.774
66359W        W36240  38.954  36.521  14.891
66360W        W36241  31.148  37.381  13.818
66361W        W36242  23.119   3.879  14.004
66362W        W36243   6.910   0.925   1.313
66363W        W36244  13.731  39.341   9.971
66364W        W36245   4.908   1.845   2.709
66365W        W36246  20.715  39.399   4.602
66366W        W36247  20.760   2.832   2.771
66367W        W36248   5.726  34.580  14.805
66368W        W36249  23.658   6.814   4.746
66369W        W36250  27.972  28.133   4.125
66370W        W36251  32.955  42.871  11.899
66371W        W36252  37.554  37.875   0.957
66372W        W36253  14.762  44.296  11.592
66373W        W36254  17.215  10.856   2.358
66374W        W36255  43.326  41.475  13.437
66375W        W36256  33.101  30.138   3.281
66376W        W36257  20.171  24.012  12.345
66377W        W36258  35.463  26.099  10.492
66378W        W36259   4.353  29.003  10.525
66379W        W36260  33.963  43.394  14.847
66380W        W36261  17.725   4.895   3.347
66381W        W36262  43.299  42.963  13.501
66382W        W36263  44.952  34.985  13.018
66383W        W36264  23.159   3.805  12.084
66384W        W36265  44.001  38.004   1.837
66385W        W36266  10.781  17.782   3.839
66386W        W36267  36.586  22.182   1.773
66387W        W36268   6.403  43.960  12.825
66388W        W36269   2.355  38.516  13.983
66389W        W36270   1.240  33.051  13.799
66390W        W36271  26.463  28.561   4.157
66391W        W36272   0.744  16.073  12.050
66392W        W36273  25.682   6.340   0.258
66393W        W36274  27.039  34.589   4.744
66394W        W36275  15.138  26.679  13.798
66395W        W36276  34.457  18.624  14.834
66396W        W36277  16.690  15.819   2.741
66397W        W36278  43.280  33.476  11.610
66398W        W36279  11.848  30.126   3.824
66399W        W36280   5.797  26.976  12.984
66400W        W36281   0.300   5.913  12.383
66401W        W36282  29.063  37.905   0.451
66402W        W36283  10.699  35.519   1.805
66403W        W36284  35.402  25.115   2.798
66404W        W36285  35.085   4.717   2.393
66405W        W36286   6.425  18.690   3.858
66406W        W36287  43.978   4.436   2.747
66407W        W36288  12.269  39.866   0.834
66408W        W36289  31.616  29.134   2.397
66409W        W36290  42.777  29.039   2.302
66410W        W36291  34.026  23.499  13.519
66411W        W36292  23.495  19.633  14.310
66412W        W36293  38.848  30.424   4.660
66413W        W36294  33.046  10.862  14.292
66414W        W36295   7.307  41.934  13.922
66415W        W36296  42.786   3.303  11.380
66416W        W36297   6.419  29.005  10.118
66417W        W36298  28.447  11.226   1.803
66418W        W36299  20.232  30.015  11.456
66419W        W36300  17.656  32.978   0.811
66420W        W36301  21.561  15.611  13.372
66421W        W36302  33.588  18.790  10.954
66422W        W36303  22.106  35.520  12.356
66423W        W36304  27.582  44.324  10.528
66424W        W36305  24.706   7.726   3.817
66425W        W36306  38.525  21.242   1.253
66426W        W36307  17.705  32.573   2.246
66427W        W36308  42.425  32.474  12.856
66428W        W36309  38.978  16.233  12.897
66429W        W36310  34.082  22.049  10.458
66430W        W36311  42.889  17.258   4.285
66431W        W36312  44.411  10.766   1.388
66432W        W36313   4.905   1.796   4.665
66433W        W36314   9.314  40.509   1.797
66434W        W36315   7.827  17.178  13.544
66435W        W36316  11.188  31.049  11.042
66436W        W36317  41.976  12.854  14.291
66437W        W36318  19.132  30.521   5.283
66438W        W36319  41.462  24.514  11.514
66439W        W36320   9.668   3.923   4.176
66440W        W36321  29.067   3.944   3.209
66441W        W36322  23.214  14.279   2.398
66442W        W36323  18.674  41.851  14.328
66443W        W36324  37.078  42.916  14.433
66444W        W36325  17.705  36.959  14.379
66445W        W36326   5.385   8.404   3.152
66446W        W36327   9.183  39.066   1.436
66447W        W36328  17.683  10.160  13.369
66448W        W36329   9.387  15.762  14.432
66449W        W36330  40.361  21.106  13.963
66450W        W36331  35.491  21.754   2.735
66451W        W36332  12.655   5.754   3.379
66452W        W36333  14.701  19.170  11.897
66453W        W36334  27.600   4.873  14.481
66454W        W36335  18.055  42.281  10.997
66455W        W36336  20.648  14.718  11.864
66456W        W36337  10.179  27.038   2.676
66457W        W36338  41.291  30.025  13.801
66458W        W36339  44.794  22.640  13.338
66459W        W36340  14.149  43.314   2.314
66460W        W36341  42.318  23.184   2.388
66461W        W36342  32.618  24.083  10.994
66462W        W36343  41.413  11.228  11.493
66463W        W36344   8.764  13.822   2.861
66464W        W36345   7.879  30.069  11.885
66465W        W36346  29.663  36.924   3.781
66466W        W36347  15.118  26.042  13.842
66467W        W36348  30.417  44.883  11.490
66468W        W36349  12.338  15.111   0.308
66469W        W36350  32.914  11.199  14.995
66470W        W36351  36.537  10.688  11.388
66471W        W36352   4.363  31.007   0.965
66472W        W36353  20.110  23.507   2.745
66473W        W36354  31.553  20.768  13.834
66474W        W36355   4.940  12.207   3.236
66475W        W36356  21.117  13.666  14.764
66476W        W36357  16.588  21.690  10.524
66477W        W36358   6.400  27.468   2.357
66478W        W36359  27.967  36.420   2.337
66479W        W36360  36.867  41.436  14.352
66480W        W36361  28.046  30.466  12.849
66481W        W36362   0.354  22.084   1.867
66482W        W36363  35.992  10.689  12.385
66483W        W36364  12.735  18.761  13.423
66484W        W36365  34.083   5.706  12.887
66485W        W36366  25.097  37.836   0.405
66486W        W36367  36.462  10.284   0.955
66487W        W36368  36.435  27.682   1.292
66488W        W36369  40.998  12.809  13.051
66489W        W36370  22.073  19.753   0.327
66490W        W36371   4.730   3.438   1.861
66491W        W36372   8.888  12.799   1.418
66492W        W36373  37.510  35.566   0.280
66493W        W36374  39.416  11.632  13.398
66494W        W36375  13.192  35.853   3.718
66495W        W36376  22.653  37.948   3.834
66496W        W36377  17.084  22.548   2.819
66497W        W36378  43.976   7.220  12.034
66498W        W36379  21.069  17.098   2.411
66499W        W36380  27.497   4.439  14.759
66500W        W36381  13.271  21.593  10.570
66501W        W36382  27.064   4.777   3.321
66502W        W36383   2.910  21.056  10.550
66503W        W36384   9.171  44.855   2.247
66504W        W36385  22.080  19.162   3.246
66505W        W36386  31.583   2.948  12.988
66506W        W36387  40.522  22.042  14.469
66507W        W36388   5.807  38.522   1.404
66508W        W36389  16.109  13.331  14.995
66509W        W36390  44.324  43.004   1.738
66510W        W36391   0.258  34.369   3.683
66511W        W36392   3.894  25.571   4.706
66512W        W36393   5.827  37.034   4.311
66513W        W36394  14.228  44.997   3.717
66514W        W36395  37.386   1.307  13.843
66515W        W36396  38.407  12.324  12.040
66516W        W36397  35.582  35.408   1.433
66517W        W36398  33.406  43.397  10.131
66518W        W36399  31.428  28.148  11.424
66519W        W36400  43.983   1.752  11.117
66520W        W36401  19.675  14.695  11.008
66521W        W36402  11.719  15.305   4.759
66522W        W36403  20.128  35.455   3.795
66523W        W36404  25.637  14.691   3.802
66524W        W36405  31.926  23.183  11.584
66525W        W36406   4.838  20.743  11.453
66526W        W36407   8.852   1.402  11.924
66527W        W36408  36.586  38.538   2.852
66528W        W36409  17.665   6.361  11.925
66529W        W36410   1.849  11.632  11.991
66530W        W36411   1.274  42.994  12.949
66531W        W36412  31.535   7.710   3.835
66532W        W36413  38.837  25.572   2.228
66533W        W36414  43.979  22.055   0.773
66534W        W36415  21.180   9.369   0.451
66535W        W36416  28.177  31.548   2.762
66536W        W36417  30.647   9.889   3.342
66537W        W36418   4.249   4.836   3.357
66538W        W36419  14.221  11.345  12.556
66539W        W36420  25.070   2.369   1.333
66540W        W36421  16.278  44.408   0.817
66541W        W36422  21.172   1.398   3.370
66542W        W36423  38.837  13.110   4.772
66543W        W36424  43.510  27.468  11.412
66544W        W36425  13.222  28.967  13.983
66545W        W36426  31.539  43.413   1.416
66546W        W36427  28.163  16.279   2.205
66547W        W36428   2.812  22.097  12.473
66548W        W36429  18.167  40.868  11.071
66549W        W36430  44.359   9.704  13.328
66550W        W36431  30.924   5.235   3.852
66551W        W36432  43.002  36.933   4.716
66552W        W36433  12.836  13.714   3.146
66553W        W36434   5.373  19.774  13.874
66554W        W36435  11.843  24.230  13.442
66555W        W36436  25.048   5.843  11.608
66556W        W36437  23.172  10.855  12.522
66557W        W36438   0.433  11.712   2.695
66558W        W36439  37.935  33.545  12.031
66559W        W36440  12.776   0.773   3.185
66560W        W36441   2.266  34.894  13.497
66561W        W36442  30.143   0.883  13.357
66562W        W36443  40.353  19.183  13.951
66563W        W36444  30.595   0.477   4.300
66564W        W36445  21.599  14.227   0.307
66565W        W36446  12.348  27.159  13.862
66566W        W36447  30.129   9.320   1.335
66567W        W36448  36.445  29.122   4.197
66568W        W36449  15.818   5.199   1.405
66569W        W36450  39.910  39.345   2.355
66570W        W36451  23.185  41.533  12.008
66571W        W36452  20.219  26.030   1.229
66572W        W36453   9.345  11.718  11.884
66573W        W36454  33.970  12.677   0.279
66574W        W36455  21.532  21.603  10.464
66575W        W36456  42.356  10.684   1.821
66576W        W36457  30.554   6.848   3.247
66577W        W36458  41.507  42.474   4.240
66578W        W36459  34.403  21.574  12.526
66579W        W36460   5.324  37.470   2.295
66580W        W36461  12.689   4.441  14.834
66581W        W36462  17.585  32.459   1.264
66582W        W36463  31.969  36.347  14.319
66583W        W36464  44.780  44.340  13.902
66584W        W36465  22.637  29.524  13.005
66585W        W36466  29.583  38.024  11.960
66586W        W36467  43.850  33.616  10.521
66587W        W36468  14.627  22.119   1.442
66588W        W36469  15.116  33.391  10.947
66589W        W36470  29.597  13.117  13.888
66590W        W36471   3.935   9.671  10.506
66591W        W36472  28.621  32.468  14.853
66592W        W36473   2.232  11.814  10.434
66593W        W36474   0.392  28.520  13.422
66594W        W36475   8.229   8.249   1.328
66595W        W36476  16.646  38.332  10.478
66596W        W36477  38.368  37.961  10.921
66597W        W36478  10.372  16.125  11.499
66598W        W36479   7.692  34.018  12.934
66599W        W36480   9.743  28.678  10.919
66600W        W36481  26.074  30.052   2.247
66601W        W36482  28.931  20.098  13.000
66602W        W36483  21.026  30.070  12.009
66603W        W36484  27.977  19.569  10.078
66604W        W36485  19.767  30.090   1.914
66605W        W36486  21.256   8.256  12.085
66606W        W36487  42.347   6.270  10.453
66607W        W36488  16.242  11.858   4.804
66608W        W36489   3.217  35.568  14.338
66609W        W36490  10.215   0.323  11.512
66610W        W36491   3.255   3.360   1.770
66611W        W36492  38.902  29.023  14.015
66612W        W36493   8.260   6.364  11.935
66613W        W36494  12.270   1.238   2.753
66614W        W36495   8.238  28.116  13.979
66615W        W36496  42.949  13.197  14.299
66616W        W36497  44.500  38.567   1.422
66617W        W36498  22.604  35.974   2.786
66618W        W36499  17.155  13.661  10.119
66619W        W36500   0.817  29.519   0.412
66620W        W36501  19.169   5.767  13.928
66621W        W36502   4.323  24.577  12.968
66622W        W36503  43.334  23.094   2.400
66623W        W36504  37.897  23.140  11.480
66624W        W36505  24.033   2.280   1.795
66625W        W36506   6.314  30.574  13.313
66626W        W36507   3.810  28.493  10.451
66627W        W36508  20.692   2.869  14.761
66628W        W36509  25.503   2.263   2.347
66629W        W36510  11.637  44.350  12.952
66630W        W36511  11.794  31.630  12.038
66631W        W36512  31.998  23.011   0.943
66632W        W36513  23.644  37.337  13.795
66633W        W36514  16.085  38.379  14.510
66634W        W36515   3.328   6.275   3.174
66635W        W36516   7.230  26.997  12.477
66636W        W36517  27.977  22.546   2.417
66637W        W36518  17.215  41.369   0.447
66638W        W36519  20.626  27.004  10.408
66639W        W36520   1.368   8.884   1.291
66640W        W36521   7.674   9.359  11.418
66641W        W36522  37.433  16.155   1.300
66642W        W36523  11.761  25.652  12.871
66643W        W36524  43.801  43.779   1.214
66644W        W36525  22.164  21.625  11.009
66645W        W36526  39.006  40.024   3.160
66646W        W36527  37.949   7.276  14.897
66647W        W36528  32.418  12.168  13.524
66648W        W36529   4.717  26.994   4.673
66649W        W36530  41.857  22.083  14.457
66650W        W36531  27.167  36.511  12.087
66651W        W36532  41.818   4.332   0.253
66652W        W36533  22.174  16.107   1.715
66653W        W36534  20.650  18.073   4.334
66654W        W36535   1.792  17.641  14.460
66655W        W36536  28.647  10.332  12.490
66656W        W36537  21.564   2.791  13.858
66657W        W36538  44.851  38.048   1.833
66658W        W36539  27.534  23.217   9.443
66659W        W36540  38.884   9.705   4.799
66660W        W36541  24.019   0.472  14.972
66661W        W36542  15.276  18.101  13.379
66662W        W36543   1.790  10.815  13.509
66663W        W36544   3.903  41.917   0.844
66664W        W36545   8.321  33.588   4.191
66665W        W36546  42.820   3.387  12.085
66666W        W36547   7.879  39.477   0.889
66667W        W36548   6.183   0.485  10.982
66668W        W36549   2.436  40.843   2.723
66669W        W36550   5.921   4.362  12.853
66670W        W36551  41.404  30.634   0.299
66671W        W36552  39.323  14.321  13.363
66672W        W36553   0.269  25.711  12.424
66673W        W36554   7.178  27.020  13.036
66674W        W36555  38.492  16.274   1.380
66675W        W36556  25.063  40.433   4.733
66676W        W36557  39.407   0.302   3.382
66677W        W36558   7.358   1.255  12.469
66678W        W36559  12.830  14.790   3.147
66679W        W36560   0.745  40.454  12.869
66680W        W36561  24.507  11.691   1.776
66681W        W36562   8.856  30.491  12.981
66682W        W36563  30.027  35.105  12.013
66683W        W36564  23.138  36.473  14.425
66684W        W36565  17.568   6.917   3.183
66685W        W36566   1.480  32.585  14.327
66686W        W36567  43.498   1.473   4.276
66687W        W36568  23.714  11.677   4.710
66688W        W36569  21.103  30.646  10.040
66689W        W36570  11.687  12.226   0.290
66690W        W36571  44.753  26.619   2.756
66691W        W36572  43.457   8.659   0.729
66692W        W36573   4.412  33.081  10.998
66693W        W36574  27.178   8.232   2.212
66694W        W36575  11.268  15.726  14.981
66695W        W36576  10.672  21.561  12.006
66696W        W36577  13.295  21.687   4.127
66697W        W36578  40.459  30.585  10.090
66698W        W36579  31.055   3.421  13.043
66699W        W36580  34.416  16.190  10.435
66700W        W36581  27.099   3.715   2.717
66701W        W36582   5.405   8.807   0.868
66702W        W36583  31.422  19.624  14.850
66703W        W36584  42.432  36.863   4.250
66704W        W36585  11.274  11.210  12.556
66705W        W36586  39.061   2.864   2.186
66706W        W36587  43.449  44.403   2.747
66707W        W36588  36.559  10.773  10.573
66708W        W36589  29.107  14.776   2.681
66709W        W36590   9.286  35.010   2.341
66710W        W36591  31.149  12.809   1.332
66711W        W36592  28.551   7.731   3.674
66712W        W36593  22.563  41.412  13.365
66713W        W36594   8.797  25.125  12.900
66714W        W36595  44.358  13.342  11.122
66715W        W36596  22.706  22.506  10.484
66716W        W36597   7.226  39.894  11.400
66717W        W36598  29.973  23.220  14.372
66718W        W36599  35.909  23.095   3.222
66719W        W36600  41.955  16.676   1.775
66720W        W36601  25.147  37.434   3.344
66721W        W36602  27.454  39.054   2.305
66722W        W36603  43.978  13.640   0.368
66723W        W36604  16.674  10.300   3.794
66724W        W36605  41.908  20.555  13.799
66725W        W36606  33.058   4.380  12.047
66726W        W36607   9.704  35.021   0.441
66727W        W36608  12.709  44.318   4.273
66728W        W36609  13.781  21.143   4.330
66729W        W36610  37.355  40.538  14.400
66730W        W36611  28.140   9.151  11.988
66731W        W36612  27.174  32.985  10.554
66732W        W36613   8.702  14.177   0.753
66733W        W36614  41.975   2.242   1.343
66734W        W36615  40.865  25.472  13.841
66735W        W36616  43.015   9.865  10.097
66736W        W36617  25.495  42.305  14.896
66737W        W36618  18.136  21.253  12.950
66738W        W36619  44.826  22.092  12.487
66739W        W36620  42.845  21.737  13.492
66740W        W36621  12.774  32.114  10.930
66741W        W36622   7.765  16.172  13.843
66742W        W36623   0.975  23.117  11.546
66743W        W36624  43.832  29.062   3.188
66744W        W36625  19.630  44.308  12.956
66745W        W36626  44.914  31.986  10.627
66746W        W36627  32.065  41.912  13.833
66747W        W36628  24.078  25.138  14.470
66748W        W36629  16.267  27.975  12.061
66749W        W36630  25.188  29.585   0.365
66750W        W36631   6.823  38.913  14.429
66751W        W36632  29.617   6.372   0.432
66752W        W36633  21.695  18.068  12.463
66753W        W36634   3.461  34.605  11.381
66754W        W36635   3.367  13.168  14.957
66755W        W36636  26.072  28.592  14.903
66756W        W36637  43.427   6.274   4.623
66757W        W36638   4.312  11.221   2.873
66758W        W36639  20.225  39.969   4.674
66759W        W36640  31.543  40.309  13.334
66760W        W36641  36.859   8.756  13.548
66761W        W36642  10.361  20.718  14.908
66762W        W36643  41.931  11.250   1.935
66763W        W36644  42.021  33.973   3.682
66764W        W36645  37.011  26.028   1.737
66765W        W36646  31.941   7.786   4.252
66766W        W36647  33.030  41.433  12.366
66767W        W36648   1.827   7.290   0.894
66768W        W36649   8.191  34.021  10.984
66769W        W36650  32.550  37.974  11.380
66770W        W36651   3.732  12.234  11.423
66771W        W36652  35.035  24.707  13.957
66772W        W36653  41.463  21.547  13.363
66773W        W36654  35.020  37.907  11.062
66774W        W36655  17.082  13.151   4.710
66775W        W36656  23.129  27.514   0.380
66776W        W36657  11.772  17.782  12.975
66777W        W36658  43.346  16.297  14.764
66778W        W36659   4.885  28.142   0.953
66779W        W36660   0.281  37.075  10.459
66780W        W36661   1.743  38.419  11.930
66781W        W36662  39.989   2.739   0.433
66782W        W36663  35.071  15.662   1.746
66783W        W36664  28.588  41.381   3.236
66784W        W36665  37.569  37.552   3.146
66785W        W36666  22.166  22.593  11.895
66786W        W36667  13.813  35.984   2.851
66787W        W36668  29.629   1.420   1.907
66788W        W36669  22.599  26.109   1.887
66789W        W36670  31.106   6.424  11.873
66790W        W36671  21.251  37.048   0.423
66791W        W36672  15.205  35.363  10.913
66792W        W36673  38.350  32.126   2.405
66793W        W36674  39.336  37.344  13.531
66794W        W36675  16.642   2.452  13.321
66795W        W36676  14.134  13.599   2.197
66796W        W36677  36.971   7.295  11.866
66797W        W36678  25.600  44.366  13.412
66798W        W36679  31.507  24.714  12.035
66799W        W36680  44.755  31.430   0.397
66800W        W36681   1.966  15.175  11.996
66801W        W36682  43.012  41.369  14.514
66802W        W36683  11.659  12.185  10.631
66803W        W36684  11.127   4.208  12.977
66804W        W36685  42.507  28.020   2.790
66805W        W36686  34.510  20.587  14.794
66806W        W36687  13.339  32.589   3.694
66807W        W36688  19.615   9.837  10.945
66808W        W36689  28.635  18.244   4.780
66809W        W36690   0.411  13.187  12.563
66810W        W36691  22.131  21.237  12.843
66811W        W36692  17.204  28.474   0.828
66812W        W36693  11.843  35.906   4.227
66813W        W36694  27.113  21.074  12.058
66814W        W36695  17.150  14.786  11.380
66815W        W36696  22.021  37.894  13.856
66816W        W36697  13.135   1.305   1.450
66817W        W36698  34.527  22.193  13.042
66818W        W36699  35.876   2.405  14.897
66819W        W36700  37.888  25.139   0.878
66820W        W36701  16.229  38.060  11.873
66821W        W36702  17.647  37.901  14.342
66822W        W36703  17.241   5.741   0.801
66823W        W36704  27.960  44.879  11.001
66824W        W36705  16.678   8.665  10.548
66825W        W36706  41.937  20.619  10.603
66826W        W36707  33.469   3.330  10.066
66827W        W36708  38.892  41.506   4.712
66828W        W36709   2.875  24.004   3.290
66829W        W36710  18.740  40.384   4.765
66830W        W36711  37.061  26.078   2.255
66831W        W36712  19.274  17.691   3.800
66832W        W36713  32.525  40.350  10.924
66833W        W36714   2.904  15.785   2.316
66834W        W36715  20.563   2.314   4.278
66835W        W36716  27.524   3.772  13.048
66836W        W36717  19.735   9.815   1.828
66837W        W36718   4.319   3.923   4.121
66838W        W36719  29.610  31.623   4.609
66839W        W36720  38.330  10.241  14.932
66840W        W36721   5.904  40.484  14.332
66841W        W36722   1.875   4.337   0.939
66842W        W36723   2.930  16.086  10.552
66843W        W36724   5.783   7.336  13.387
66844W        W36725   2.942  37.083   4.764
66845W        W36726  22.508  15.626  12.443
66846W        W36727  38.032  11.168  11.498
66847W        W36728  11.651  21.211   4.753
66848W        W36729  21.235  41.973   1.369
66849W        W36730   2.307  44.446   3.377
66850W        W36731  19.285  24.011  13.531
66851W        W36732   8.835  33.068  13.316
66852W        W36733   7.317   7.676  13.064
66853W        W36734  19.218  29.036  11.039
66854W        W36735  39.483  42.810   0.856
66855W        W36736  17.134  26.551   0.813
66856W        W36737  44.813  29.665   3.267
66857W        W36738  39.883   3.759   3.780
66858W        W36739  12.619  41.351   3.753
66859W        W36740  19.753  16.666  11.389
66860W        W36741  36.943  43.887  14.769
66861W        W36742  15.117  37.884   0.299
66862W        W36743  41.036  31.574  14.792
66863W        W36744   0.298  21.238   1.845
66864W        W36745   7.303   5.809   1.424
66865W        W36746   1.839   2.319  10.520
66866W        W36747  24.186  33.954  11.576
66867W        W36748  26.476  33.015   2.412
66868W        W36749  14.672  26.695   4.769
66869W        W36750  23.233  28.044  14.369
66870W        W36751  44.884  27.145  10.534
66871W        W36752   8.359   8.365  11.080
66872W        W36753  22.531  17.681  12.524
66873W        W36754  18.737   3.716  13.928
66874W        W36755   0.798  32.950  14.470
66875W        W36756  30.148  13.190   4.760
66876W        W36757  40.991   9.241  12.451
66877W        W36758  23.641  12.707  14.383
66878W        W36759  30.961  19.256   0.864
66879W        W36760  14.803  40.350   2.824
66880W        W36761  24.688   8.306   2.766
66881W        W36762  23.132  19.643   2.402
66882W        W36763  44.898  43.823   2.688
66883W        W36764  12.737  39.030  13.500
66884W        W36765  36.047  43.391   0.301
66885W        W36766  13.264   2.441   3.640
66886W        W36767  10.164   5.281  10.644
66887W        W36768  22.067  14.106   0.465
66888W        W36769  44.418  43.313   0.279
66889W        W36770  33.439  11.640   1.786
66890W        W36771  23.078  22.587   4.728
66891W        W36772  11.289  41.826  10.630
66892W        W36773  24.009  20.602   2.204
66893W        W36774  23.225  31.640  11.064
66894W        W36775  34.579  44.265   3.813
66895W        W36776  34.597   9.395   2.264
66896W        W36777   4.229   3.733   3.314
66897W        W36778  44.980   5.793  13.405
66898W        W36779  11.852  12.611  13.843
66899W        W36780  37.442  31.992   2.409
66900W        W36781  37.041   4.930  10.622
66901W        W36782  42.467  24.985   2.214
66902W        W36783  22.124  36.518  10.910
66903W        W36784  13.249  24.487  13.345
66904W        W36785  28.567  19.726   1.353
66905W        W36786  10.278  33.444  10.428
66906W        W36787  30.481  42.908   3.819
66907W        W36788  34.085  22.623   4.680
66908W        W36789   5.228   9.273  13.904
66909W        W36790  43.885   1.327  14.991
66910W        W36791  17.204  15.254  11.011
66911W        W36792  19.716  12.174   3.355
66912W        W36793  29.088  42.803   4.181
66913W        W36794   6.233  37.397  14.383
66914W        W36795  40.981   5.911   3.174
66915W        W36796  24.562  20.201   2.885
66916W        W36797  33.517   7.713  11.042
66917W        W36798  25.024  22.739  13.513
66918W        W36799  44.397   1.247   5.187
66919W        W36800  16.180  21.652   3.742
66920W        W36801  27.099  37.393   4.176
66921W        W36802  23.047  10.721  14.336
66922W        W36803  36.435  29.634   2.673
66923W        W36804  23.178   5.318  14.338
66924W        W36805  31.019  18.560   0.369
66925W        W36806   0.848  34.082  12.039
66926W        W36807   1.821  20.272  12.474
66927W        W36808  10.281  36.950   1.812
66928W        W36809  33.971  23.516  10.631
66929W        W36810  12.231  19.739   0.246
66930W        W36811  35.562  31.481  14.457
66931W        W36812  24.190   6.742  11.599
66932W        W36813  31.059  38.962  11.389
66933W        W36814  11.246   7.671   3.680
66934W        W36815   0.853  17.207   2.890
66935W        W36816  35.384  23.239   3.765
66936W        W36817  35.888  41.817  14.783
66937W        W36818  12.134  31.585  11.987
66938W        W36819  12.743   9.691  13.006
66939W        W36820  37.475   3.824  11.984
66940W        W36821  22.729  15.625   1.396
66941W        W36822  17.633  38.439  14.486
66942W        W36823  30.033  39.959   2.875
66943W        W36824  21.189  33.579  11.026
66944W        W36825   9.850  26.653  14.787
66945W        W36826  38.352  21.240  13.941
66946W        W36827  17.204  13.265  10.117
66947W        W36828  31.526  25.496   0.893
66948W        W36829  30.156  14.591   1.441
66949W        W36830   8.779  27.993  11.096
66950W        W36831  32.012  23.082  13.046
66951W        W36832   8.851   5.229   2.269
66952W        W36833  17.619  20.692   0.429
66953W        W36834  26.050  20.120  13.329
66954W        W36835  14.218  37.993   0.885
66955W        W36836  30.511  36.444  10.908
66956W        W36837  34.986   8.740  14.927
66957W        W36838  20.538   3.903  10.469
66958W        W36839  37.931  27.151  12.556
66959W        W36840  35.922  35.005  13.484
66960W        W36841  19.076  13.192  12.012
66961W        W36842   8.712  16.710   0.447
66962W        W36843   0.775  32.042  11.084
66963W        W36844  42.948  19.543   1.430
66964W        W36845  20.263  27.605  13.811
66965W        W36846  10.306  30.921  14.839
66966W        W36847   0.745  34.943  13.039
66967W        W36848  27.670   8.857  11.597
66968W        W36849   4.423  18.720  12.974
66969W        W36850   4.256  19.695   1.258
66970W        W36851  35.877  13.724   1.873
66971W        W36852  21.704  23.676   3.741
66972W        W36853  33.047  10.214   3.787
66973W        W36854  38.441  24.208  11.587
66974W        W36855  39.534  18.135   1.695
66975W        W36856  37.494  20.594   4.148
66976W        W36857   9.381   5.265   3.243
66977W        W36858   2.957  32.558  13.968
66978W        W36859  35.377  13.771  10.581
66979W        W36860   3.866  44.314   9.977
66980W        W36861  23.736  17.164  13.515
66981W        W36862  30.138  41.532  11.047
66982W        W36863   0.873  26.054   1.814
66983W        W36864  23.196  44.886  10.511
66984W        W36865   6.359   1.325  12.971
66985W        W36866  44.379  34.572   1.351
66986W        W36867  13.826  29.443   1.337
66987W        W36868   5.372  13.647   0.296
66988W        W36869  38.851  21.630  11.909
66989W        W36870  38.402   9.232   3.211
66990W        W36871  36.925  41.358   4.601
66991W        W36872   2.285   0.381   1.797
66992W        W36873  41.441  25.608  12.039
66993W        W36874  38.059  21.583   4.635
66994W        W36875  22.638  17.157  14.340
66995W        W36876  18.199  14.823  14.938
66996W        W36877  35.966  32.410  13.957
66997W        W36878  21.220  42.358   0.368
66998W        W36879  38.366  33.406  12.932
66999W        W36880  29.472  35.443  11.450
67000W        W36881  23.074  44.446  13.996
67001W        W36882  26.150  33.523   4.790
67002W        W36883  14.224   8.747   0.775
67003W        W36884  29.108  16.770  11.008
67004W        W36885  31.411  35.970   3.648
67005W        W36886  20.202  13.744   0.263
67006W        W36887  20.695  11.225  14.338
67007W        W36888  17.091  19.634  13.053
67008W        W36889  21.749   4.414   3.820
67009W        W36890   5.862  27.686   2.856
67010W        W36891   3.317  38.060  12.453
67011W        W36892  13.271  31.068  12.446
67012W        W36893  14.278  10.353  11.973
67013W        W36894  39.489  36.521   0.460
67014W        W36895  23.012  34.409  11.069
67015W        W36896  28.510  24.525   0.466
67016W        W36897  10.868  10.753  14.487
67017W        W36898  29.597   1.787  11.510
67018W        W36899  20.687  19.263   3.340
67019W        W36900  12.240   3.729  12.406
67020W        W36901   2.444   8.690  13.548
67021W        W36902  39.440  11.367   2.389
67022W        W36903   9.727  17.750  11.566
67023W        W36904  39.986  13.277   2.760
67024W        W36905  10.156  30.435  10.994
67025W        W36906  39.929  40.879   1.818
67026W        W36907  35.367  27.186   1.755
67027W        W36908  22.736  19.596  13.980
67028W        W36909  24.093  38.048  12.445
67029W        W36910   0.443  12.654   2.330
67030W        W36911  32.518  35.553  12.494
67031W        W36912  17.568  15.287   0.320
67032W        W36913  40.054  35.973   3.385
67033W        W36914  11.769  17.578   3.835
67034W        W36915  11.643  33.999   4.157
67035W        W36916  12.347  24.069  13.360
67036W        W36917  32.915  38.419   2.864
67037W        W36918  20.593   7.693   3.848
67038W        W36919  37.002  42.348  11.867
67039W        W36920   4.247  13.338   4.128
67040W        W36921  31.498   0.876   4.270
67041W        W36922  31.463  38.076  14.404
67042W        W36923  41.364   9.822   2.218
67043W        W36924   5.751  35.370   2.251
67044W        W36925  18.565  33.939   3.166
67045W        W36926  12.655   4.803  14.800
67046W        W36927  18.139  20.723   2.689
67047W        W36928   4.245  40.325  14.012
67048W        W36929  44.321  16.655   1.384
67049W        W36930  33.574   1.381  12.417
67050W        W36931  34.067  27.029   4.724
67051W        W36932  36.384  11.226  13.845
67052W        W36933   9.329  40.973   2.328
67053W        W36934  19.235  15.604  14.482
67054W        W36935  10.865  22.037   1.312
67055W        W36936   5.413  28.681  14.027
67056W        W36937   9.368  21.175  12.907
67057W        W36938  28.933  27.010  12.020
67058W        W36939  19.089  44.293   4.153
67059W        W36940  44.413  16.250   0.427
67060W        W36941  29.634  18.709   2.350
67061W        W36942  14.805  15.713   4.774
67062W        W36943  22.116   9.153  10.414
67063W        W36944   4.751  41.928  14.370
67064W        W36945  28.515  23.072   1.253
67065W        W36946  23.718  14.672   2.379
67066W        W36947  20.629  27.473  13.456
67067W        W36948  10.297   0.771   1.418
67068W        W36949  38.939  44.784   1.919
67069W        W36950  34.467  40.941   0.956
67070W        W36951  31.953  26.108   0.838
67071W        W36952  13.286  25.525   0.244
67072W        W36953  30.954  22.070   2.763
67073W        W36954  21.659  31.448  14.789
67074W        W36955  10.753   7.715  14.901
67075W        W36956  41.497  10.256  14.028
67076W        W36957  18.694  14.833  12.911
67077W        W36958  37.389  38.339   3.348
67078W        W36959   2.821  35.524  12.549
67079W        W36960  30.619  17.621  13.310
67080W        W36961  29.175  38.457   4.680
67081W        W36962  31.534  14.101  14.807
67082W        W36963  36.960  41.435   0.772
67083W        W36964   0.317  37.035   2.252
67084W        W36965  37.484  19.229  14.503
67085W        W36966  19.183  36.091  12.067
67086W        W36967   1.256   6.781   3.324
67087W        W36968  31.984  10.242   2.765
67088W        W36969   3.223  38.940  11.117
67089W        W36970  40.872  15.093  11.022
67090W        W36971  35.542  12.165  11.581
67091W        W36972  32.023  14.203  12.887
67092W        W36973   7.742  13.187   2.410
67093W        W36974  16.769  28.661  11.973
67094W        W36975   5.396  33.938   3.768
67095W        W36976   9.238  34.541   0.817
67096W        W36977  34.099  22.106   0.848
67097W        W36978  32.921  44.941  13.003
67098W        W36979   6.185  33.458  12.086
67099W        W36980  37.344  12.719   2.835
67100W        W36981  35.361  39.059   3.671
67101W        W36982  43.963  26.691   0.421
67102W        W36983  24.724  32.055   2.733
67103W        W36984  34.413   5.341   2.692
67104W        W36985  16.304   9.788  12.995
67105W        W36986   5.865   0.398   3.768
67106W        W36987  21.032  43.410   1.418
67107W        W36988  38.893  24.512   4.789
67108W        W36989   3.764  22.623  12.874
67109W        W36990  44.338  30.997  13.359
67110W        W36991  31.084  27.652  11.097
67111W        W36992  13.822  12.778   1.799
67112W        W36993   6.903   6.922  12.036
67113W        W36994  21.132  35.378  12.060
67114W        W36995  19.622  31.058  13.320
67115W        W36996  26.064   8.661   2.283
67116W        W36997  18.629  28.141  14.886
67117W        W36998  39.407   6.400  10.508
67118W        W36999  36.994   3.356  12.088
67119W        W37000   1.837   2.835  14.773
67120W        W37001  37.046  28.571   1.869
67121W        W37002  42.359  15.603   0.731
67122W        W37003   7.805  25.633   0.287
67123W        W37004  18.279  18.568   4.812
67124W        W37005  15.238  28.072  13.039
67125W        W37006  32.914  42.801  11.018
67126W        W37007  23.208   4.772  14.838
67127W        W37008  27.569   5.322  13.471
67128W        W37009  15.253  39.497   9.565
67129W        W37010  41.413  42.347   3.168
67130W        W37011  33.001   1.747   2.316
67131W        W37012  36.062  34.013   4.277
67132W        W37013  13.697   6.341  14.874
67133W        W37014  39.433  36.553  11.860
67134W        W37015  22.592  12.696  12.511
67135W        W37016  22.056  42.971   4.347
67136W        W37017  22.199  41.829   4.694
67137W        W37018  15.760   1.464   4.630
67138W        W37019  22.662  36.546   2.898
67139W        W37020  43.014   9.364   5.310
67140W        W37021  39.546   1.460   0.795
67141W        W37022  41.298  12.146  12.072
67142W        W37023  41.903  12.165  10.554
67143W        W37024  30.102   8.188  14.809
67144W        W37025  15.768  24.987   4.785
67145W        W37026   3.271  18.765   1.406
67146W        W37027  28.477  22.731  12.073
67147W        W37028   1.839  32.457   2.673
67148W        W37029  24.620  16.280  11.032
67149W        W37030   2.879  33.010   2.688
67150W        W37031  32.045   4.772  10.552
67151W        W37032  20.066  41.379  13.031
67152W        W37033  21.563  34.898  10.024
67153W        W37034   8.789  42.482   0.765
67154W        W37035  24.178  18.158  11.878
67155W        W37036  31.469   5.783   1.230
67156W        W37037  37.434  24.527   0.917
67157W        W37038  32.082  21.123  10.017
67158W        W37039  38.531  37.341  10.948
67159W        W37040  29.441  11.240  14.896
67160W        W37041   4.944  16.650   0.420
67161W        W37042  37.832  10.145  14.360
67162W        W37043  15.211  41.393  11.999
67163W        W37044  32.412  25.039   3.844
67164W        W37045  29.982  27.016   0.742
67165W        W37046  43.933  40.499  13.358
67166W        W37047  42.353  41.488  13.477
67167W        W37048   1.298  28.011  14.863
67168W        W37049  20.601  41.323   3.362
67169W        W37050  43.789  33.893  10.411
67170W        W37051  26.143  36.440  11.480
67171W        W37052  23.687   8.334   1.847
67172W        W37053   3.724  15.751  13.996
67173W        W37054   0.346  40.492  10.561
67174W        W37055   1.289  22.685  14.850
67175W        W37056  43.851  27.041   4.244
67176W        W37057  41.034  15.627  10.085
67177W        W37058  36.406  12.260  10.469
67178W        W37059   5.752  39.972  12.407
67179W        W37060   7.745  41.882  13.355
67180W        W37061  17.619  29.451   2.229
67181W        W37062   0.982  40.944   3.770
67182W        W37063  36.878  38.351  12.550
67183W        W37064  27.615  43.396  13.005
67184W        W37065  41.535   6.295   1.283
67185W        W37066  40.825  33.594  13.513
67186W        W37067  20.267  18.722  11.923
67187W        W37068  38.058  32.464  13.406
67188W        W37069  11.662  25.551   1.369
67189W        W37070  31.958  14.806   1.363
67190W        W37071  19.673  18.612   3.202
67191W        W37072  36.463  11.190   3.806
67192W        W37073   5.390   6.343   0.763
67193W        W37074  23.066   3.376   1.747
67194W        W37075  15.261  20.071   0.325
67195W        W37076  31.989  20.586   2.366
67196W        W37077  13.604  19.280   3.676
67197W        W37078  13.244  22.686   4.199
67198W        W37079  30.654  26.517  13.894
67199W        W37080   3.313  23.497  14.352
67200W        W37081  11.272  17.076  10.902
67201W        W37082  29.963  12.817  13.321
67202W        W37083   2.848  18.583  10.939
67203W        W37084  26.574  32.110   2.773
67204W        W37085  31.505  16.708   3.839
67205W        W37086  42.886  17.718   2.839
67206W        W37087  21.677   9.764   1.210
67207W        W37088   3.848  36.087   4.693
67208W        W37089  14.307  13.227  11.406
67209W        W37090   4.247   0.426   2.670
67210W        W37091  43.291  41.898  12.895
67211W        W37092  19.218  40.917   4.649
67212W        W37093   1.357  22.187   3.800
67213W        W37094   3.736   4.381  12.846
67214W        W37095  14.131  22.024   0.287
67215W        W37096  17.657  36.515  14.770
67216W        W37097  41.407   7.286  11.589
67217W        W37098   6.249  26.185   3.749
67218W        W37099   4.237  32.631  11.097
67219W        W37100   1.465  12.846  12.052
67220W        W37101  13.105  37.575   2.266
67221W        W37102   2.269  23.045   1.394
67222W        W37103  17.168  23.500  13.856
67223W        W37104  34.913  35.969   5.309
67224W        W37105   9.743   4.230   3.369
67225W        W37106  18.690  40.418  14.477
67226W        W37107   2.937  32.950  14.904
67227W        W37108   8.866  44.923  13.996
67228W        W37109   2.417  43.872   3.189
67229W        W37110  26.625   9.751   1.426
67230W        W37111   9.819  12.750   1.249
67231W        W37112  19.078  34.428  12.022
67232W        W37113   0.448  23.692   1.923
67233W        W37114  31.417  14.780  11.945
67234W        W37115  12.648  43.454  11.939
67235W        W37116  26.051  23.202   1.763
67236W        W37117  43.770  29.058  11.471
67237W        W37118  40.883  23.014  11.540
67238W        W37119  33.422   6.891   1.327
67239W        W37120  14.755  17.597   3.350
67240W        W37121  31.549  19.758  11.604
67241W        W37122  16.587   2.396  13.844
67242W        W37123  12.782  27.477   4.333
67243W        W37124  10.669  28.021  14.358
67244W        W37125   9.780  19.551   5.184
67245W        W37126  10.359  29.669  11.397
67246W        W37127  16.236   2.837   1.756
67247W        W37128  41.405  41.867  13.965
67248W        W37129  41.007  33.096  11.880
67249W        W37130  44.396  15.745   3.337
67250W        W37131  28.975  36.873   4.172
67251W        W37132  35.966  14.143   1.744
67252W        W37133  19.252  18.591  13.538
67253W        W37134  34.465  24.225   4.299
67254W        W37135   6.883   8.194  12.409
67255W        W37136  27.572   8.294  14.982
67256W        W37137  16.637   6.354   2.751
67257W        W37138  35.009   0.938  12.957
67258W        W37139  28.063  40.352  11.581
67259W        W37140   8.793  25.078  13.963
67260W        W37141  33.542  29.656   2.711
67261W        W37142  41.869  40.846  10.581
67262W        W37143  24.658  41.372   3.847
67263W        W37144  36.500  37.991  14.864
67264W        W37145  10.231   6.707   2.803
67265W        W37146  44.288  44.283   3.791
67266W        W37147  13.609  39.480   4.194
67267W        W37148   1.320   4.426  10.570
67268W        W37149  24.083  38.408  12.390
67269W        W37150  42.494  32.926  13.491
67270W        W37151  31.956  12.325  11.930
67271W        W37152  27.139   3.444   1.338
67272W        W37153  36.384   6.238  12.457
67273W        W37154   0.966   6.185   4.632
67274W        W37155  21.208   5.745   2.808
67275W        W37156  32.076  41.941  14.493
67276W        W37157  28.489  26.132   4.240
67277W        W37158  18.192   2.739  11.508
67278W        W37159   4.323  37.987  10.895
67279W        W37160  20.212  30.541   4.795
67280W        W37161  40.444  33.931  11.099
67281W        W37162  29.489  20.714  13.508
67282W        W37163  41.898  32.007  11.933
67283W        W37164  12.291  33.044  14.830
67284W        W37165   9.384  21.147  11.453
67285W        W37166  44.413   6.235  11.868
67286W        W37167  19.640   5.318   3.238
67287W        W37168  34.555  18.282   3.724
67288W        W37169   6.359  34.549  14.491
67289W        W37170  11.346  28.666  10.470
67290W        W37171  36.520  21.154   3.219
67291W        W37172  42.512   4.928   4.789
67292W        W37173   7.797  24.554  10.533
67293W        W37174  32.129  44.309  12.858
67294W        W37175  43.979  38.006   3.373
67295W        W37176  39.546  31.620   2.260
67296W        W37177  42.951  15.106   1.908
67297W        W37178   8.172   9.389  14.289
67298W        W37179  11.843  27.945  12.340
67299W        W37180  31.415  17.756   1.915
67300W        W37181  26.149  13.608  11.121
67301W        W37182  10.840  39.546  11.519
67302W        W37183  38.503   6.209  10.617
67303W        W37184  40.949  31.982   1.418
67304W        W37185  14.299  16.106   0.925
67305W        W37186  36.063  31.517   3.211
67306W        W37187  42.390  27.055  14.511
67307W        W37188  27.142  36.882   0.804
67308W        W37189  16.287   6.356  12.950
67309W        W37190  35.376  10.174  11.941
67310W        W37191   7.346  35.400  13.414
67311W        W37192  26.635  30.586   0.834
67312W        W37193   4.385  29.978  14.431
67313W        W37194  17.121  11.226   0.737
67314W        W37195   0.457  25.524  13.359
67315W        W37196  25.658  26.963  13.514
67316W        W37197   4.258  18.083  11.990
67317W        W37198  29.531  15.172  11.582
67318W        W37199  16.189   3.454  13.926
67319W        W37200  43.929  28.929  10.490
67320W        W37201  11.637  27.573   3.323
67321W        W37202  18.676  36.586  12.082
67322W        W37203  37.571  32.593   4.621
67323W        W37204   9.200  27.618  12.072
67324W        W37205  28.990  43.884  13.021
67325W        W37206  31.055  25.507   1.327
67326W        W37207  10.175  13.326   0.937
67327W        W37208   4.894  26.584  10.427
67328W        W37209   7.191  43.851  13.438
67329W        W37210   2.364  19.222   2.293
67330W        W37211  13.773   9.729   1.324
67331W        W37212  32.417  20.084  12.931
67332W        W37213   2.963   7.358  14.515
67333W        W37214  28.451  23.211  11.515
67334W        W37215  16.312  43.840   1.865
67335W        W37216   6.280   1.927   3.374
67336W        W37217  26.025  19.229  10.926
67337W        W37218  17.556  35.453  13.412
67338W        W37219  12.799  41.938   4.190
67339W        W37220   9.342   7.849   3.168
67340W        W37221   1.444  39.492   0.886
67341W        W37222   0.405  37.548  13.836
67342W        W37223   6.702  36.054   3.174
67343W        W37224  35.528  25.546   0.805
67344W        W37225   7.415  34.506   0.868
67345W        W37226  17.617  31.499   1.786
67346W        W37227  38.865  23.642   0.338
67347W        W37228  19.255  40.504   1.411
67348W        W37229  17.631  42.958  13.028
67349W        W37230  34.582  41.934   1.273
67350W        W37231   5.210  37.490   1.839
67351W        W37232  31.923   2.301  11.932
67352W        W37233   7.287  41.477  11.971
67353W        W37234   0.483  35.419   2.333
67354W        W37235  17.584  42.943   2.807
67355W        W37236  16.635  16.654  14.032
67356W        W37237   7.734   1.951  14.399
67357W        W37238  40.009  38.447   1.885
67358W        W37239  42.938  23.201   3.666
67359W        W37240  34.411  28.562   0.868
67360W        W37241  14.752  33.080  11.988
67361W        W37242  18.773  10.201   4.719
67362W        W37243  42.464  23.057  13.530
67363W        W37244  35.104  42.009   2.875
67364W        W37245  27.117  38.062  10.423
67365W        W37246   3.804  29.489   3.259
67366W        W37247  11.280  44.965   2.811
67367W        W37248  44.937  20.149  14.357
67368W        W37249   8.782  43.292  12.525
67369W        W37250  23.033  19.144  13.465
67370W        W37251  32.471  24.160   4.789
67371W        W37252   9.381  43.415  11.124
67372W        W37253  24.083  25.501  14.947
67373W        W37254  44.798  34.105  10.520
67374W        W37255   0.949   4.929   0.454
67375W        W37256  17.712  11.287  12.509
67376W        W37257  33.612  24.512   1.388
67377W        W37258   9.388  12.842  14.911
67378W        W37259  44.845  38.940   2.870
67379W        W37260   2.840  32.629  12.431
67380W        W37261  22.546  38.346  10.438
67381W        W37262  26.962   6.701  12.438
67382W        W37263  23.020   5.760  12.075
67383W        W37264  10.222  24.149  11.373
67384W        W37265  41.329  29.971   0.300
67385W        W37266  32.491  43.960   0.470
67386W        W37267  35.926  38.851   1.821
67387W        W37268   1.447  18.113  12.549
67388W        W37269  17.288  34.951   0.828
67389W        W37270   3.438   0.850   3.788
67390W        W37271   4.834   6.855   1.725
67391W        W37272  10.304  30.139  13.383
67392W        W37273  27.508   5.834  11.048
67393W        W37274  13.639  32.014   3.209
67394W        W37275  12.618  44.485  13.024
67395W        W37276  44.327  27.014   1.427
67396W        W37277  19.087  19.104   2.383
67397W        W37278  38.367  28.170  14.773
67398W        W37279   0.817   5.734  10.920
67399W        W37280  24.683  35.073  12.373
67400W        W37281  30.038  10.861   0.888
67401W        W37282   8.348  10.735   0.247
67402W        W37283  27.159  39.510  14.827
67403W        W37284  27.065  31.608   1.736
67404W        W37285  33.532  24.526   3.339
67405W        W37286  10.326  26.148   3.633
67406W        W37287  16.133   7.669   2.206
67407W        W37288  21.714   9.813  11.501
67408W        W37289  30.958  10.160  12.410
67409W        W37290   7.174  16.600   3.160
67410W        W37291  21.650  22.015   3.825
67411W        W37292   3.894  43.443  12.079
67412W        W37293  13.693  42.780  14.950
67413W        W37294  35.988  29.038   4.605
67414W        W37295  15.119  24.137  11.964
67415W        W37296  14.111  14.708  11.889
67416W        W37297  22.247   8.322   3.730
67417W        W37298  20.722  17.740   0.781
67418W        W37299  14.211  15.605   0.834
67419W        W37300  40.421  22.211  12.431
67420W        W37301  21.122  24.531   2.321
67421W        W37302  10.292  34.895   1.825
67422W        W37303   1.910  20.619  11.583
67423W        W37304   4.698  27.508   2.760
67424W        W37305   4.775  31.413   3.196
67425W        W37306  29.995  20.266   0.438
67426W        W37307   2.264  22.196   2.698
67427W        W37308  13.825  39.474   2.202
67428W        W37309  33.060   7.809  13.921
67429W        W37310  33.948  23.026   3.808
67430W        W37311  10.226  13.653  14.836
67431W        W37312   9.258  18.756  11.521
67432W        W37313  19.570  11.753   4.123
67433W        W37314  20.581  28.973   5.171
67434W        W37315  25.142  34.391  11.895
67435W        W37316  16.730  40.965  11.037
67436W        W37317  29.931   5.805   0.734
67437W        W37318  30.119   9.220  12.535
67438W        W37319  16.753   7.693  11.860
67439W        W37320  37.515  20.234  12.905
67440W        W37321  42.464  16.089  13.374
67441W        W37322  10.280  24.205  14.488
67442W        W37323  43.986  25.049  14.277
67443W        W37324  12.713  36.548   3.290
67444W        W37325  14.107  15.740   3.225
67445W        W37326  40.506  23.625   0.759
67446W        W37327  34.976  26.995   3.833
67447W        W37328  26.174  19.687  10.970
67448W        W37329  27.661   7.703   2.226
67449W        W37330  39.043   7.886   9.975
67450W        W37331  19.256  27.072   0.776
67451W        W37332  43.799   1.842  14.433
67452W        W37333  37.858  25.063  13.932
67453W        W37334  33.917   7.899   0.837
67454W        W37335  18.782  21.594   4.295
67455W        W37336  22.071  34.117  10.530
67456W        W37337  13.686  42.938   4.119
67457W        W37338   3.918  38.977  10.541
67458W        W37339  15.735  11.631   2.789
67459W        W37340  33.579  32.941   5.288
67460W        W37341  11.683   4.419   1.351
67461W        W37342  43.293  11.681   4.803
67462W        W37343  12.673  26.658   1.365
67463W        W37344  15.116   9.708  14.416
67464W        W37345  32.889   5.410   3.152
67465W        W37346  34.020   7.702   4.601
67466W        W37347  15.276  36.478   1.285
67467W        W37348   6.350  40.366   0.441
67468W        W37349  43.953  15.744  14.511
67469W        W37350  31.062  27.033   4.337
67470W        W37351  27.646  41.313  14.292
67471W        W37352  38.894   1.792  13.374
67472W        W37353  40.906  30.156   3.186
67473W        W37354  13.122  27.953   2.346
67474W        W37355  31.436  43.378  14.460
67475W        W37356   5.313  17.733  14.475
67476W        W37357  27.100  31.580   2.877
67477W        W37358  13.294  30.639  13.947
67478W        W37359   0.425  12.338  12.825
67479W        W37360  34.915   7.209   1.806
67480W        W37361  32.895  25.679  14.274
67481W        W37362   2.416  30.628   5.258
67482W        W37363  12.163  32.472  11.407
67483W        W37364   4.817   1.946   0.457
67484W        W37365  12.815  17.627  12.390
67485W        W37366  15.665  42.848   2.726
67486W        W37367  44.376  26.976  12.343
67487W        W37368  30.451  12.296  11.887
67488W        W37369  42.882  39.414   2.761
67489W        W37370   8.686   7.681  14.325
67490W        W37371  39.493  18.190   1.242
67491W        W37372  22.111  41.429  11.905
67492W        W37373   5.816  27.046   0.326
67493W        W37374  23.710  37.924   3.197
67494W        W37375   3.437   8.691   4.639
67495W        W37376  23.575  40.332  13.845
67496W        W37377  20.716  14.728  14.781
67497W        W37378  33.079  21.073  13.429
67498W        W37379  16.793  44.892  12.353
67499W        W37380  40.460  42.286   0.426
67500W        W37381  29.965  34.384  14.508
67501W        W37382   7.172   3.940  10.579
67502W        W37383  37.835  17.267  14.340
67503W        W37384   9.681  38.339   0.922
67504W        W37385  19.544  27.966  11.455
67505W        W37386  26.654   2.759  13.537
67506W        W37387  44.801   1.784  14.507
67507W        W37388  12.613   4.370  10.526
67508W        W37389  44.459  16.084  13.030
67509W        W37390   8.865  21.032  11.875
67510W        W37391  41.002  13.241   3.357
67511W        W37392   5.424  31.591   1.336
67512W        W37393  24.527  17.089   0.434
67513W        W37394   3.874  33.078   0.870
67514W        W37395  35.920  38.448  13.448
67515W        W37396  41.032  38.405   4.683
67516W        W37397   0.942  21.651   4.194
67517W        W37398  16.792  14.628   0.780
67518W        W37399  29.949  24.169   4.325
67519W        W37400   0.430  32.482   4.288
67520W        W37401   1.245  12.708  13.060
67521W        W37402  17.246  22.237  12.928
67522W        W37403  17.065  23.685  12.420
67523W        W37404   6.805  38.500  13.976
67524W        W37405   4.437  37.486   4.619
67525W        W37406   4.440  44.342   2.321
67526W        W37407   0.268  37.520  12.413
67527W        W37408  15.111   6.261   3.771
67528W        W37409  19.730   6.340  13.818
67529W        W37410   8.400  11.317  11.404
67530W        W37411  23.161  27.166   1.908
67531W        W37412  22.226  11.659   0.934
67532W        W37413   4.853   8.845   2.824
67533W        W37414  34.997   0.965   2.298
67534W        W37415  35.498  10.225   2.864
67535W        W37416  38.820  32.621   4.282
67536W        W37417   9.194  19.627   3.221
67537W        W37418  37.042   4.233  12.517
67538W        W37419  23.508   1.444   1.311
67539W        W37420  44.935  22.693   2.234
67540W        W37421  31.116  15.319   3.185
67541W        W37422   4.820  15.112  11.565
67542W        W37423  17.152  35.602   4.815
67543W        W37424  41.303  42.999   1.247
67544W        W37425  11.691  33.905  12.878
67545W        W37426  30.086  42.025  12.992
67546W        W37427  39.041   8.897  12.018
67547W        W37428  37.919  39.968   4.156
67548W        W37429  32.469  21.657  11.577
67549W        W37430  26.982  33.036  10.995
67550W        W37431  21.663  18.671   4.711
67551W        W37432  13.333  21.201   4.835
67552W        W37433   7.395  39.034   0.429
67553W        W37434  14.826  43.977   2.869
67554W        W37435  20.660  15.093  11.546
67555W        W37436   0.298  30.415  14.868
67556W        W37437  28.996  19.574   4.607
67557W        W37438  27.078  10.272  11.536
67558W        W37439   1.785  42.366  14.872
67559W        W37440  41.474  33.508  11.457
67560W        W37441  30.489   7.295   0.412
67561W        W37442  27.603  31.968  12.989
67562W        W37443  43.867  37.030  10.920
67563W        W37444  36.458   8.308  11.597
67564W        W37445  40.323   0.852   2.322
67565W        W37446  20.725  23.114  11.456
67566W        W37447  19.059  27.573  13.545
67567W        W37448   7.788  21.192   4.179
67568W        W37449   1.816  21.183  13.939
67569W        W37450  27.947  26.181   2.417
67570W        W37451   1.353  15.689  12.996
67571W        W37452  17.115  17.148   5.100
67572W        W37453  26.971  35.094  12.377
67573W        W37454   5.343  18.580   2.285
67574W        W37455  38.033  37.860  11.870
67575W        W37456  35.948  24.662   1.331
67576W        W37457  28.995  15.728  13.408
67577W        W37458   0.790  38.962   5.237
67578W        W37459   6.741  27.109  13.043
67579W        W37460  27.465   3.945  10.521
67580W        W37461  14.593  22.580  12.862
67581W        W37462  44.327   7.349   3.812
67582W        W37463  33.477   1.841   3.185
67583W        W37464   0.988   0.764   4.308
67584W        W37465  16.194  11.190   2.820
67585W        W37466  33.429   2.943   4.158
67586W        W37467  27.987  13.799   1.922
67587W        W37468  36.093  35.406   1.230
67588W        W37469  41.025  39.959   2.209
67589W        W37470  10.238   1.853   0.956
67590W        W37471   4.428  22.703  14.819
67591W        W37472  32.488  35.588  13.392
67592W        W37473  21.250  29.960  12.459
67593W        W37474  27.165  35.936  13.884
67594W        W37475  37.523  10.723  12.920
67595W        W37476  41.009  33.884   3.690
67596W        W37477  36.951  38.024   2.765
67597W        W37478  30.522   8.210  14.876
67598W        W37479  33.580  30.947   4.774
67599W        W37480  15.819  29.498   3.305
67600W        W37481  35.513   1.272   0.415
67601W        W37482  14.257  29.070   4.314
67602W        W37483  26.087  27.575  11.082
67603W        W37484   0.811  44.812   4.216
67604W        W37485  25.029  39.019   2.726
67605W        W37486  21.687  21.123   2.710
67606W        W37487  18.743  11.366  10.999
67607W        W37488  32.595  25.518   4.643
67608W        W37489  28.098  38.549   2.202
67609W        W37490   8.655  27.070  14.432
67610W        W37491  29.116  30.073   3.870
67611W        W37492  15.698  44.348  10.948
67612W        W37493  14.184  10.348  14.335
67613W        W37494  27.060  21.046  13.384
67614W        W37495   9.190   7.838   0.269
67615W        W37496  22.212  43.904  11.026
67616W        W37497  26.583  27.680  11.968
67617W        W37498   9.798  14.187   0.897
67618W        W37499  17.727  29.052   0.459
67619W        W37500  24.157  14.153   2.294
67620W        W37501  16.648   9.179   2.814
67621W        W37502   0.916  42.308   3.791
67622W        W37503  33.108   0.431  14.299
67623W        W37504   3.217  40.466   4.225
67624W        W37505  23.714  36.346  14.963
67625W        W37506  35.883  31.488   4.349
67626W        W37507   0.395  44.382   4.795
67627W        W37508  17.209  30.590   3.278
67628W        W37509   2.313   3.377   4.605
67629W        W37510   3.301  38.429   4.706
67630W        W37511   9.164  25.984  12.573
67631W        W37512  24.000  31.923   9.950
67632W        W37513  10.199  38.325  10.115
67633W        W37514  19.052  34.526  13.927
67634W        W37515  14.784  44.839   3.381
67635W        W37516   4.360   8.893   2.342
67636W        W37517  31.451   6.241   0.914
67637W        W37518  30.459  21.513  12.956
67638W        W37519  23.621   3.417  10.546
67639W        W37520  35.920  21.717   1.813
67640W        W37521  29.161  19.613  14.926
67641W        W37522   8.885  29.647  12.883
67642W        W37523   6.270   3.801   0.277
67643W        W37524   9.816  33.485   1.250
67644W        W37525  10.788  15.776   4.336
67645W        W37526  39.869  26.661   2.866
67646W        W37527  15.818  12.780  11.118
67647W        W37528  28.498   2.265   4.667
67648W        W37529  30.975  15.142   2.768
67649W        W37530  11.666  18.638  13.844
67650W        W37531  39.545   2.834  11.547
67651W        W37532   6.341   5.272  11.512
67652W        W37533  14.214   0.485  11.115
67653W        W37534  22.194   9.349  14.874
67654W        W37535   3.454   7.680   1.883
67655W        W37536  38.944   2.333   3.359
67656W        W37537  12.286  44.859  13.335
67657W        W37538   1.821  40.933   3.318
67658W        W37539  32.581  19.220  14.917
67659W        W37540  17.276   0.253   3.778
67660W        W37541   7.730   8.855   4.743
67661W        W37542  38.515  22.240   2.709
67662W        W37543  43.857  25.069   0.327
67663W        W37544   6.376  44.933   2.663
67664W        W37545  35.971   7.745   1.252
67665W        W37546  41.478   7.413   2.868
67666W        W37547  30.630   7.783   1.750
67667W        W37548  15.647   5.722   0.458
67668W        W37549  19.092  20.037   0.334
67669W        W37550   1.952  22.022  10.530
67670W        W37551  24.616  21.625   3.309
67671W        W37552  29.532  10.742   4.240
67672W        W37553  40.325  28.596   0.361
67673W        W37554  16.232  23.681   4.152
67674W        W37555  10.254  43.977  11.990
67675W        W37556  22.015  14.237  12.924
67676W        W37557  24.523  16.232  12.417
67677W        W37558  36.401  28.003   9.976
67678W        W37559  27.499  15.802  14.407
67679W        W37560  20.167  20.232  13.835
67680W        W37561  43.955  43.822  10.409
67681W        W37562  29.990  25.113   4.716
67682W        W37563  37.991  39.390  12.384
67683W        W37564   2.851  29.551   0.344
67684W        W37565  18.129  28.160  11.395
67685W        W37566  20.250  41.892   3.677
67686W        W37567   9.382  39.859   0.422
67687W        W37568  35.417   2.769  10.630
67688W        W37569  11.235  41.500   4.764
67689W        W37570  15.657  15.248   2.243
67690W        W37571  19.105  19.155   0.776
67691W        W37572  30.538  36.948   0.778
67692W        W37573  38.432  24.533  14.458
67693W        W37574   8.810  32.057   5.289
67694W        W37575  43.389   1.971   1.289
67695W        W37576  34.065  43.487   0.408
67696W        W37577  40.032  14.213   1.892
67697W        W37578  35.446  27.029   0.776
67698W        W37579  27.538  39.852   0.740
67699W        W37580  43.004  11.796  14.004
67700W        W37581  12.814  42.410   1.322
67701W        W37582  37.435   4.285   0.794
67702W        W37583   1.347  40.899   4.729
67703W        W37584   5.907  28.609   0.277
67704W        W37585   7.176   8.243  12.537
67705W        W37586  13.615  11.336  13.896
67706W        W37587   1.404  10.877  12.032
67707W        W37588  21.706  12.774  13.882
67708W        W37589   1.312  19.204   4.198
67709W        W37590  39.844   3.246   0.394
67710W        W37591   9.755  31.553   2.206
67711W        W37592   6.264  37.043   3.318
67712W        W37593  23.665  38.500   0.377
67713W        W37594  18.661  14.329  10.440
67714W        W37595  41.326  17.299   4.140
67715W        W37596  44.285  18.687   1.390
67716W        W37597  43.896  16.198  13.310
67717W        W37598   7.886   3.782  14.926
67718W        W37599  34.876  40.896  13.839
67719W        W37600  34.467  21.045  11.423
67720W        W37601  42.308  17.748   0.751
67721W        W37602  35.021  33.393   5.201
67722W        W37603  10.273  13.714   0.727
67723W        W37604  17.131  28.435   1.882
67724W        W37605  31.444   8.201  13.507
67725W        W37606  33.583  11.719  12.450
67726W        W37607  11.806  19.234   4.249
67727W        W37608  24.556  38.922  13.877
67728W        W37609  34.955  25.651  13.828
67729W        W37610  27.036  40.935  12.852
67730W        W37611   9.807  17.646   9.508
67731W        W37612  41.520  32.974   3.350
67732W        W37613   0.789  28.565  13.882
67733W        W37614  14.326   5.760   4.733
67734W        W37615  40.369  41.842   1.697
67735W        W37616  41.898   7.399  14.397
67736W        W37617  11.713  42.891   1.242
67737W        W37618  44.935  34.467  11.456
67738W        W37619  20.641  44.401   2.692
67739W        W37620   8.353   9.338  14.809
67740W        W37621  34.881   4.756  10.483
67741W        W37622   9.833   2.759  13.528
67742W        W37623  20.074  20.737  11.436
67743W        W37624  43.312  36.069   0.325
67744W        W37625  42.301  44.433  10.064
67745W        W37626  24.492  29.120   0.965
67746W        W37627  34.413  19.135   0.764
67747W        W37628   1.329  27.458  13.388
67748W        W37629  29.957  31.006  13.335
67749W        W37630   3.821  41.981   4.679
67750W        W37631  10.241  41.839  10.416
67751W        W37632  35.364   6.780  11.933
67752W        W37633  38.045  40.935   0.945
67753W        W37634  44.475  37.448   5.205
67754W        W37635   0.404  36.524   0.298
67755W        W37636  37.347  17.789   3.745
67756W        W37637  20.253  36.947   0.933
67757W        W37638  11.227  12.707   3.724
67758W        W37639  19.086  40.335  13.922
67759W        W37640  27.057   9.303   1.712
67760W        W37641  31.457  18.236  13.947
67761W        W37642  24.670  21.029  11.386
67762W        W37643  11.151   6.704  14.461
67763W        W37644  30.164  10.750   4.729
67764W        W37645  18.142   4.264  14.803
67765W        W37646   5.242   9.181   0.256
67766W        W37647  30.067  44.950  12.377
67767W        W37648  42.498   3.800   4.790
67768W        W37649   2.383  17.737  11.901
67769W        W37650  13.717   4.204   0.350
67770W        W37651  27.638  31.630  11.603
67771W        W37652   6.339  36.907   4.731
67772W        W37653  42.025  42.340  12.931
67773W        W37654  31.984   3.715  10.587
67774W        W37655  18.702  44.380   4.190
67775W        W37656   5.304   0.786  12.891
67776W        W37657  42.378  38.412  13.802
67777W        W37658  27.089  30.601   3.268
67778W        W37659  26.142   8.863   1.921
67779W        W37660   8.817   4.436   4.347
67780W        W37661  12.329  28.176   3.150
67781W        W37662  19.077  43.001  10.982
67782W        W37663   7.293  35.395  11.942
67783W        W37664  15.261  32.599   0.451
67784W        W37665   7.301  44.840  13.929
67785W        W37666   5.368  41.943  10.976
67786W        W37667  34.560  26.696   1.716
67787W        W37668  28.117  44.428  14.275
67788W        W37669  12.637  44.791  12.559
67789W        W37670  22.654  15.674   5.281
67790W        W37671   8.386  24.707   4.297
67791W        W37672  41.379  21.123   4.132
67792W        W37673  32.007  43.778   1.431
67793W        W37674  23.692  36.465   4.264
67794W        W37675   9.779  34.471   2.178
67795W        W37676  22.682  41.808  13.349
67796W        W37677  19.198  30.161   1.397
67797W        W37678   0.440  23.214  11.483
67798W        W37679  23.040  40.403   0.729
67799W        W37680  19.089  21.628   2.294
67800W        W37681  15.611  22.521  13.062
67801W        W37682  31.492   6.787   0.930
67802W        W37683  36.471   9.789   4.137
67803W        W37684  34.912   0.769   0.407
67804W        W37685  23.713  13.172   2.758
67805W        W37686  12.287  18.111   1.773
67806W        W37687   3.416   3.336  12.040
67807W        W37688  11.733  24.016  13.032
67808W        W37689   2.751   9.232   3.768
67809W        W37690  17.070  23.163   0.906
67810W        W37691  26.662  38.890   4.765
67811W        W37692  15.094  27.473  12.401
67812W        W37693  16.643  26.466   0.961
67813W        W37694  15.817  42.344   2.330
67814W        W37695   0.296  34.402  10.428
67815W        W37696  32.957  31.896  14.366
67816W        W37697   7.227  37.369  12.060
67817W        W37698   4.431  19.122  14.493
67818W        W37699  42.023   2.930  11.499
67819W        W37700  43.944  31.006   0.961
67820W        W37701   4.901  30.091   0.318
67821W        W37702  24.140  24.527   4.695
67822W        W37703   0.940  42.918  11.908
67823W        W37704   7.268  11.831  10.634
67824W        W37705  28.553  34.047  14.843
67825W        W37706  35.005   1.773  10.560
67826W        W37707   7.406  23.515  11.600
67827W        W37708  21.529  26.121   4.353
67828W        W37709  14.157   9.350  12.871
67829W        W37710  31.482  11.288   4.138
67830W        W37711  37.082  16.772  10.593
67831W        W37712  36.002  21.562  13.316
67832W        W37713  18.625  14.259  14.398
67833W        W37714   7.858  39.506   4.809
67834W        W37715  21.540   7.222  13.848
67835W        W37716  40.325  27.551   0.827
67836W        W37717   1.858  34.536  11.533
67837W        W37718  26.107   5.877   0.797
67838W        W37719   2.285  20.097   4.301
67839W        W37720  27.671  12.787  11.071
67840W        W37721  39.372  13.325  12.826
67841W        W37722   2.364  31.469   3.284
67842W        W37723  24.081   9.385  11.080
67843W        W37724  23.541  17.617   0.922
67844W        W37725   5.891  12.693   1.423
67845W        W37726  21.628  29.967  14.304
67846W        W37727  23.492   6.800  14.443
67847W        W37728  30.638  36.956   2.782
67848W        W37729  22.178  27.145  13.317
67849W        W37730  31.412  32.483   4.348
67850W        W37731  12.175   6.244   1.763
67851W        W37732  31.124  31.003  14.852
67852W        W37733  16.314  14.650   3.648
67853W        W37734  18.686  39.523   1.391
67854W        W37735  13.261  30.605  11.379
67855W        W37736  24.129  27.655  14.002
67856W        W37737  31.604  33.918  10.644
67857W        W37738  10.250  21.203   2.754
67858W        W37739  13.737  41.524   3.706
67859W        W37740  22.011   6.194   4.801
67860W        W37741   2.445  39.392  11.881
67861W        W37742  31.915  21.081  14.423
67862W        W37743  40.389   4.385  11.450
67863W        W37744  29.097   1.371  14.820
67864W        W37745  20.606  11.856  12.341
67865W        W37746  28.988   2.421   1.231
67866W        W37747   1.426  14.622  14.381
67867W        W37748  13.633  25.653   2.773
67868W        W37749  22.007  25.169   0.818
67869W        W37750  25.186  21.520   0.251
67870W        W37751  26.533  36.579   1.221
67871W        W37752  43.907   9.777  13.968
67872W        W37753  17.667  23.598  13.439
67873W        W37754   8.666  15.241  10.145
67874W        W37755  25.001   3.917   1.879
67875W        W37756  30.483  31.048  10.979
67876W        W37757  38.056  22.067  13.521
67877W        W37758   0.440   6.717   2.881
67878W        W37759  42.987  39.915   0.797
67879W        W37760  14.800  28.552  12.868
67880W        W37761  43.905   3.267   4.762
67881W        W37762  42.470  40.467   2.407
67882W        W37763  37.888  17.132   3.331
67883W        W37764  42.377   6.267  13.050
67884W        W37765  34.922   4.702   4.776
67885W        W37766  13.121   3.453   2.267
67886W        W37767  10.860  28.545  11.894
67887W        W37768  43.294  32.467  13.827
67888W        W37769   9.272  23.088   1.848
67889W        W37770  34.485   8.829   1.234
67890W        W37771  21.231  35.590   2.702
67891W        W37772  30.039  39.376   4.323
67892W        W37773  15.613  35.499   3.226
67893W        W37774  37.400   1.366   5.806
67894W        W37775  18.051  30.579  10.410
67895W        W37776  38.874  25.032  13.510
67896W        W37777  28.542  12.753  14.436
67897W        W37778  38.860  43.277  13.047
67898W        W37779  31.595   5.735  10.456
67899W        W37780  44.327  27.459  14.999
67900W        W37781  37.563  28.525   3.162
67901W        W37782  18.587  18.102  12.909
67902W        W37783   7.759  24.657  10.963
67903W        W37784  42.816  26.035  12.071
67904W        W37785  40.462  38.906   4.146
67905W        W37786  41.895   9.778  11.561
67906W        W37787  23.637   9.205  10.945
67907W        W37788  37.896  35.599   3.205
67908W        W37789  11.634  38.352   1.731
67909W        W37790  14.783  19.098   0.730
67910W        W37791  44.482  25.984  14.825
67911W        W37792  14.142  14.271   4.698
67912W        W37793   2.362  33.587  11.539
67913W        W37794   5.301   0.368  12.564
67914W        W37795  23.633  42.500   3.302
67915W        W37796   8.707  28.949   0.802
67916W        W37797  42.875  34.569  12.838
67917W        W37798  21.747   6.315   3.810
67918W        W37799   8.174   6.366   2.389
67919W        W37800  14.240  18.554  14.944
67920W        W37801   9.165   4.338   3.271
67921W        W37802  27.006  29.476   4.222
67922W        W37803  18.285  32.453   1.760
67923W        W37804  13.812  37.533  12.074
67924W        W37805  29.587  24.012  12.082
67925W        W37806  41.387  11.864   4.178
67926W        W37807  41.895  29.587  11.475
67927W        W37808  10.229  15.719   5.301
67928W        W37809  17.781  24.661  14.335
67929W        W37810  31.543  40.839   1.434
67930W        W37811  30.604  44.408  13.455
67931W        W37812  29.980  15.284   3.780
67932W        W37813  27.664  19.060  11.566
67933W        W37814  35.419  38.860   0.474
67934W        W37815   6.344  23.020  11.436
67935W        W37816   3.772   9.780  10.986
67936W        W37817  24.688  25.978  12.932
67937W        W37818  14.098  29.467  14.305
67938W        W37819  25.064  28.133   0.747
67939W        W37820   1.477   6.354  12.022
67940W        W37821  18.203  40.425  14.476
67941W        W37822  18.555  29.113   0.743
67942W        W37823  41.484  31.100   3.225
67943W        W37824  29.005  39.033  13.819
67944W        W37825  26.058  36.065   3.329
67945W        W37826  14.107   5.251  10.951
67946W        W37827   6.773  36.414   2.823
67947W        W37828   2.353  39.908  14.389
67948W        W37829  33.087  20.079   2.364
67949W        W37830   3.925  38.061   2.764
67950W        W37831  28.983   3.243   3.307
67951W        W37832   0.274  21.067  13.360
67952W        W37833   3.323  38.499   2.246
67953W        W37834  28.577   8.191   9.996
67954W        W37835  23.536  18.169  13.036
67955W        W37836  23.624  31.025  13.358
67956W        W37837  17.287  14.168   3.359
67957W        W37838   6.742  16.192  10.947
67958W        W37839  43.385   8.684  11.983
67959W        W37840  32.929  44.765  11.613
67960W        W37841   7.909  34.378  12.948
67961W        W37842  25.138  19.180   0.397
67962W        W37843  30.916   7.709  13.461
67963W        W37844  12.311   2.390  13.400
67964W        W37845  43.993  29.598  11.061
67965W        W37846  32.392  42.350   4.607
67966W        W37847   5.366  33.959   4.216
67967W        W37848  25.470  15.686  13.830
67968W        W37849  32.968  29.591   1.273
67969W        W37850   9.758  29.577   4.730
67970W        W37851  15.656  14.610   4.127
67971W        W37852  20.606  35.376   0.262
67972W        W37853  24.553   1.915  13.356
67973W        W37854  33.056   0.797  10.483
67974W        W37855   5.842  32.023   3.732
67975W        W37856   2.759  31.966  14.422
67976W        W37857  17.204  37.506   2.735
67977W        W37858  36.471  11.167  11.020
67978W        W37859  14.831  26.002   3.637
67979W        W37860  27.613  43.808  12.424
67980W        W37861  20.193   2.333   0.855
67981W        W37862  43.363   0.925  11.553
67982W        W37863  15.671  34.899   1.214
67983W        W37864  28.631  33.040   2.266
67984W        W37865  35.009  31.108  14.473
67985W        W37866   1.967   7.772  13.862
67986W        W37867   0.293  37.472  11.598
67987W        W37868  33.118  25.118   4.638
67988W        W37869  20.681  13.760   3.260
67989W        W37870  13.240  36.070  12.957
67990W        W37871  10.235   2.768   0.277
67991W        W37872   0.984  30.029   0.306
67992W        W37873  17.802  19.599  12.567
67993W        W37874   2.406   5.896   0.850
67994W        W37875  10.871   7.737   1.270
67995W        W37876  25.165  21.536   1.758
67996W        W37877   8.188  30.074  12.855
67997W        W37878   8.888   9.322  12.549
67998W        W37879  40.047  15.290  11.017
67999W        W37880  43.381  36.034   4.348
68000W        W37881   5.899  33.382  11.447
68001W        W37882  34.059  18.787  13.423
68002W        W37883  12.806  28.045   4.631
68003W        W37884   1.275   2.895  10.616
68004W        W37885  26.569   9.336  13.924
68005W        W37886  22.073  41.291   0.458
68006W        W37887  14.753  30.539   0.785
68007W        W37888  10.280  44.316   3.867
68008W        W37889  28.621   2.225   0.396
68009W        W37890  29.151  21.655   0.944
68010W        W37891  29.431  27.010  12.364
68011W        W37892  43.854  31.611  11.995
68012W        W37893  37.553  15.319   3.775
68013W        W37894  25.998  21.737  14.358
68014W        W37895   8.830  20.150  13.063
68015W        W37896   4.859   1.804  11.964
68016W        W37897  42.478   9.657   3.194
68017W        W37898  41.325  10.712   0.729
68018W        W37899  14.781  40.812  13.514
68019W        W37900   7.779  10.271   0.886
68020W        W37901  32.044  27.675  12.445
68021W        W37902  24.617   5.194   2.797
68022W        W37903   0.481  24.009   0.280
68023W        W37904  39.950  30.508  12.371
68024W        W37905  11.269   8.225  12.421
68025W        W37906  21.090  11.843   4.739
68026W        W37907  25.713   7.243  11.988
68027W        W37908   8.779   0.923   3.233
68028W        W37909  22.555   3.755  12.561
68029W        W37910   6.183  22.251  12.016
68030W        W37911  41.835  37.544   4.156
68031W        W37912  41.792   3.835   0.849
68032W        W37913  20.251  37.983   3.352
68033W        W37914  23.668  33.435   1.222
68034W        W37915  14.214  32.942  12.435
68035W        W37916  12.615  32.546  12.082
68036W        W37917  35.037  35.460   2.868
68037W        W37918  10.301  15.192   1.232
68038W        W37919  43.939  26.002  11.496
68039W        W37920  25.110  36.979  13.838
68040W        W37921  16.793  35.023   0.423
68041W        W37922  14.216  12.284   4.651
68042W        W37923  19.734  33.395   4.294
68043W        W37924  40.805  15.795   3.361
68044W        W37925  43.390  39.453   2.833
68045W        W37926  10.690  42.991  10.439
68046W        W37927  14.614   0.836  11.480
68047W        W37928  23.113  36.493  13.514
68048W        W37929   2.279  28.945   5.277
68049W        W37930  13.111  21.693   3.844
68050W        W37931  36.381  17.773   0.413
68051W        W37932  26.652  19.285   4.189
68052W        W37933   2.861  44.848  14.006
68053W        W37934  34.545   4.894  10.623
68054W        W37935  27.069   4.895   4.640
68055W        W37936   9.766  11.176   4.734
68056W        W37937   8.728   6.285   4.740
68057W        W37938  14.676  18.778  14.493
68058W        W37939  44.980  26.065  13.014
68059W        W37940  29.439  12.173  11.538
68060W        W37941  11.684  14.684   1.890
68061W        W37942  13.758  24.225  11.969
68062W        W37943  37.467  26.662  14.497
68063W        W37944  35.561  19.206   1.305
68064W        W37945  27.040  42.846   1.423
68065W        W37946   1.769  17.192   0.852
68066W        W37947  17.574  28.621  11.559
68067W        W37948  36.077  41.811  11.403
68068W        W37949  43.922  12.685   2.859
68069W        W37950  15.648  44.989   1.226
68070W        W37951  18.102  28.445  12.850
68071W        W37952  28.068  39.951  12.934
68072W        W37953  26.035  20.601  13.025
68073W        W37954  13.201   0.768  12.042
68074W        W37955  24.099  16.114  10.570
68075W        W37956   5.296  29.134  11.876
68076W        W37957  11.668  25.529   0.736
68077W        W37958  13.236   1.803  10.540
68078W        W37959  38.945  30.429   3.235
68079W        W37960   5.273  44.304   3.826
68080W        W37961  30.627  11.321  10.982
68081W        W37962  11.772  15.141  11.989
68082W        W37963  41.941   1.399  14.832
68083W        W37964  36.869   9.207   1.734
68084W        W37965  18.127  28.531   1.763
68085W        W37966  30.086  37.028   4.745
68086W        W37967  41.984  14.237   5.275
68087W        W37968   4.720  35.940  11.005
68088W        W37969  33.533  36.370  11.444
68089W        W37970  31.115  12.344  14.006
68090W        W37971  26.502  39.008   2.732
68091W        W37972  17.790  19.192  13.375
68092W        W37973   5.377  10.164  14.008
68093W        W37974  44.860  26.958  11.443
68094W        W37975  36.378  42.366  10.631
68095W        W37976  30.483   5.694   4.703
68096W        W37977  21.612  24.154   1.272
68097W        W37978  44.404  13.707   3.693
68098W        W37979  10.708  19.771   1.255
68099W        W37980   6.771   9.767  13.312
68100W        W37981  19.569  18.178   0.765
68101W        W37982  12.144  40.393   3.344
68102W        W37983   7.794  16.580  12.889
68103W        W37984  15.156  14.304  14.801
68104W        W37985  20.249  15.087   1.302
68105W        W37986   6.406  31.510  13.995
68106W        W37987   3.927  10.156  10.153
68107W        W37988   1.255   8.208  11.001
68108W        W37989  38.984  14.698   1.839
68109W        W37990  26.568  37.474  13.856
68110W        W37991  40.799  43.915  13.803
68111W        W37992  16.720  17.135  11.376
68112W        W37993  11.158  21.539  12.947
68113W        W37994  39.443  37.548  13.969
68114W        W37995  29.931  15.256   4.116
68115W        W37996   8.658  15.153  14.940
68116W        W37997  32.098  36.974  10.944
68117W        W37998   0.903  10.281  10.602
68118W        W37999  13.710   1.758   2.336
68119W        W38000  10.143  22.119   4.175
68120W        W38001  23.622  14.248  14.770
68121W        W38002  40.309  24.494   2.392
68122W        W38003  22.145  12.159   0.839
68123W        W38004   7.670  38.851   4.755
68124W        W38005  31.941  35.929  12.000
68125W        W38006  33.579   7.905   5.266
68126W        W38007  17.303  30.001   3.290
68127W        W38008  40.393  44.794  14.960
68128W        W38009  36.913  19.170   0.886
68129W        W38010  11.735  18.186  12.060
68130W        W38011  15.668   7.366  10.446
68131W        W38012  29.972  41.859   1.239
68132W        W38013  26.984  25.592  10.159
68133W        W38014  32.404  31.616   1.770
68134W        W38015  23.656  29.656  14.980
68135W        W38016  10.744  32.530   3.335
68136W        W38017  17.203   8.288   0.775
68137W        W38018  17.078  35.539  12.980
68138W        W38019   6.389  30.481  12.093
68139W        W38020  13.253   6.861   4.664
68140W        W38021  37.076  39.903   3.329
68141W        W38022  10.699  25.700  13.440
68142W        W38023  40.917   4.931   3.732
68143W        W38024  14.151  31.588   4.158
68144W        W38025  24.562  38.027  12.372
68145W        W38026  17.596  26.670   1.241
68146W        W38027  23.708   4.888  10.527
68147W        W38028  42.027   0.815   3.766
68148W        W38029   4.301  38.552  13.849
68149W        W38030   7.703  36.590  12.939
68150W        W38031   2.805   0.370  11.089
68151W        W38032  12.677  39.910   3.149
68152W        W38033  43.287  39.934   2.829
68153W        W38034   7.728  14.331  14.788
68154W        W38035   7.200  33.585   3.684
68155W        W38036  13.823  20.168  10.920
68156W        W38037  41.487   3.454  13.455
68157W        W38038  16.073  33.930  11.381
68158W        W38039  42.852   2.346   5.235
68159W        W38040  20.601  42.779  12.927
68160W        W38041  29.500  41.803   2.223
68161W        W38042   8.161  21.209  14.472
68162W        W38043  43.490  21.148   4.830
68163W        W38044  30.428  34.548   3.354
68164W        W38045  34.439  44.499   1.888
68165W        W38046  11.253  20.033   3.732
68166W        W38047  31.577  10.304   4.727
68167W        W38048  14.714  12.850   5.268
68168W        W38049  28.672  43.966  14.479
68169W        W38050  24.705  20.249   3.638
68170W        W38051  26.663  22.695   2.281
68171W        W38052  24.648  28.464   2.868
68172W        W38053  25.507  14.248   1.791
68173W        W38054  12.706  11.715  12.998
68174W        W38055  23.133  36.474   4.345
68175W        W38056  37.055  17.559   3.307
68176W        W38057  14.817  39.006  14.807
68177W        W38058  26.070  30.927  12.012
68178W        W38059  23.152  32.023  10.484
68179W        W38060   6.240   7.200  11.475
68180W        W38061  20.144  43.380   3.338
68181W        W38062   5.810  40.544   4.832
68182W        W38063  24.710  22.684  12.420
68183W        W38064  20.620   4.944   2.320
68184W        W38065   3.824  22.676   4.637
68185W        W38066  36.406  11.865  12.888
68186W        W38067   6.221   1.855  13.939
68187W        W38068  20.141  25.654  11.547
68188W        W38069  43.941  36.403  13.490
68189W        W38070  26.559  22.626   0.930
68190W        W38071  19.542  17.606  14.854
68191W        W38072  31.435  11.644  10.530
68192W        W38073  14.663  38.937   0.767
68193W        W38074  13.844  14.622  12.004
68194W        W38075  10.757  39.386  13.317
68195W        W38076  41.822  13.835   2.681
68196W        W38077  29.616  11.649   5.112
68197W        W38078  33.016  17.604  10.559
68198W        W38079   1.808  39.487  12.506
68199W        W38080  19.541  39.973   2.273
68200W        W38081  16.704   1.390   1.438
68201W        W38082  37.550  20.031   4.742
68202W        W38083  18.667  21.053  13.456
68203W        W38084   4.210  28.071   0.728
68204W        W38085  10.274  41.366   2.407
68205W        W38086   6.337  18.227  11.068
68206W        W38087   3.411  22.520  13.434
68207W        W38088  31.092  19.700   2.401
68208W        W38089   3.852   0.752   3.373
68209W        W38090   2.832  27.504  11.472
68210W        W38091  39.493  41.797   3.279
68211W        W38092  26.206  24.528   9.974
68212W        W38093  13.284  26.200   3.833
68213W        W38094  32.108  41.466   0.965
68214W        W38095  39.417  24.213   1.879
68215W        W38096  44.763  14.178  12.025
68216W        W38097  22.122  10.157   4.343
68217W        W38098  35.947   8.889  14.829
68218W        W38099  12.728   8.228  12.825
68219W        W38100  36.515  40.331  10.568
68220W        W38101  18.252  30.454   3.794
68221W        W38102  44.926  30.111  14.795
68222W        W38103   5.417  32.951   2.182
68223W        W38104  28.598  31.995   4.257
68224W        W38105  42.386  38.904  13.408
68225W        W38106  31.580  10.677   4.174
68226W        W38107  32.059  37.503  11.571
68227W        W38108  37.870  26.600   1.411
68228W        W38109  25.013  41.369   2.824
68229W        W38110  29.134  43.975  14.276
68230W        W38111   6.257  30.972  14.318
68231W        W38112   5.721  32.407  14.370
68232W        W38113  25.622  39.436  13.429
68233W        W38114  32.499  42.493   0.456
68234W        W38115  28.658   1.819  12.547
68235W        W38116   0.419   3.252  12.968
68236W        W38117  32.499  12.785   1.893
68237W        W38118  32.399  10.314  12.341
68238W        W38119  15.696   3.368   2.841
68239W        W38120   9.204  23.622   2.215
68240W        W38121  33.581  30.097  14.398
68241W        W38122   2.881  39.897  14.830
68242W        W38123  31.429  15.699  13.019
68243W        W38124  27.570  15.189  10.539
68244W        W38125  17.620  20.224  11.884
68245W        W38126  26.108  42.483  10.939
68246W        W38127  22.190  37.438   3.705
68247W        W38128  23.193  20.227   3.835
68248W        W38129  15.668  25.202   2.751
68249W        W38130  22.008  38.376  14.363
68250W        W38131   0.913  28.108   3.768
68251W        W38132   4.798   9.835   5.081
68252W        W38133   4.389  11.335  13.360
68253W        W38134  16.782  22.574  12.369
68254W        W38135   8.309  13.819   3.290
68255W        W38136  37.408   2.800  11.925
68256W        W38137  34.053  13.274   0.821
68257W        W38138  35.496  36.526   3.344
68258W        W38139  32.962  41.970   0.283
68259W        W38140  11.770  16.128  12.417
68260W        W38141  32.098  38.856  14.879
68261W        W38142  24.204  41.346   4.140
68262W        W38143  30.473  19.061   4.145
68263W        W38144  20.666  21.057  10.540
68264W        W38145   8.309  22.094   2.702
68265W        W38146  35.494  21.728   4.175
68266W        W38147  13.285  42.923   2.411
68267W        W38148  31.518   7.867   4.599
68268W        W38149   9.752  22.090  11.947
68269W        W38150  22.138  25.598   0.346
68270W        W38151  16.283  12.821  13.036
68271W        W38152  31.627   9.261   3.638
68272W        W38153  36.429   6.274   0.787
68273W        W38154  11.705   4.278   2.347
68274W        W38155   9.744  31.103  10.451
68275W        W38156  43.938  24.111   3.847
68276W        W38157   3.220  27.943  10.590
68277W        W38158  17.664  42.495  13.993
68278W        W38159  22.172  21.170  12.497
68279W        W38160  36.476  25.604   4.628
68280W        W38161   5.819  17.167   3.736
68281W        W38162  42.984  19.237   3.266
68282W        W38163  38.421  21.521   3.748
68283W        W38164   1.747  36.864   1.358
68284W        W38165  31.026  22.012   1.708
68285W        W38166   0.489  33.917  11.006
68286W        W38167  22.643   0.454  12.884
68287W        W38168  27.066   4.219   4.701
68288W        W38169   6.316   3.752   0.765
68289W        W38170  16.202  29.525   3.677
68290W        W38171  44.987  19.221   4.313
68291W        W38172   1.442  35.056  11.969
68292W        W38173  12.850  12.669   3.706
68293W        W38174  10.707  43.383   0.461
68294W        W38175  33.966  43.306   3.753
68295W        W38176   5.821  34.610   0.927
68296W        W38177  13.300   6.189   0.271
68297W        W38178  31.587  33.506  10.518
68298W        W38179  15.195   9.366   1.421
68299W        W38180  42.472  23.103   4.686
68300W        W38181  32.895   7.316  14.815
68301W        W38182  21.173   3.299   2.386
68302W        W38183  18.267  11.274   2.415
68303W        W38184  21.071  13.689  11.381
68304W        W38185  33.907  23.635  11.395
68305W        W38186  28.111  20.624  13.027
68306W        W38187  41.818  29.146  12.362
68307W        W38188  42.839  11.144   3.186
68308W        W38189  18.704   2.817  10.977
68309W        W38190  38.566  27.459   3.369
68310W        W38191  40.363  38.332   2.867
68311W        W38192  14.282   5.299   4.765
68312W        W38193  11.129  37.569   1.372
68313W        W38194  40.817  14.214  10.467
68314W        W38195  12.732   2.885  12.492
68315W        W38196   6.717  39.820  11.387
68316W        W38197  44.386  28.021   4.638
68317W        W38198  19.558   4.909   3.341
68318W        W38199  25.483   2.330   0.370
68319W        W38200  26.974  33.022  14.372
68320W        W38201  21.022   8.790  11.930
68321W        W38202  34.086  33.913   2.756
68322W        W38203  24.140   5.362  12.043
68323W        W38204  18.687  17.168  10.407
68324W        W38205  18.763  24.500   0.278
68325W        W38206  31.961   0.907   4.834
68326W        W38207  44.974   7.251  13.820
68327W        W38208  19.104  12.652  10.485
68328W        W38209   6.839  24.078  11.483
68329W        W38210  30.507  34.096   0.366
68330W        W38211  42.508  36.902   2.331
68331W        W38212  10.149  23.088   4.352
68332W        W38213  34.960  14.609  14.470
68333W        W38214  33.537  37.058   4.675
68334W        W38215  31.002   6.325  14.321
68335W        W38216  44.931  14.307  11.440
68336W        W38217  21.696  14.796  12.571
68337W        W38218  16.129  19.622  14.896
68338W        W38219  11.824  24.195   4.236
68339W        W38220   7.231  17.565  13.386
68340W        W38221  24.105   4.416  13.486
68341W        W38222  10.717   7.388  10.453
68342W        W38223  35.364   3.913  14.818
68343W        W38224  32.052  34.476  12.492
68344W        W38225  27.092  40.011  12.969
68345W        W38226  36.446   7.727  11.452
68346W        W38227  14.681  36.067  14.024
68347W        W38228  25.127  19.686   0.328
68348W        W38229  28.120   9.293  10.943
68349W        W38230   1.891   1.289   3.181
68350W        W38231  44.811  39.445   2.316
68351W        W38232  27.604  21.707   1.828
68352W        W38233  32.114  22.059  14.791
68353W        W38234   0.400  42.353  11.117
68354W        W38235   0.811  16.652   3.147
68355W        W38236   0.376   1.385   1.228
68356W        W38237  31.929  17.621  11.069
68357W        W38238   8.816  26.127   1.341
68358W        W38239  25.177  32.946   4.213
68359W        W38240  27.509  27.641   3.856
68360W        W38241  34.923  29.114   4.227
68361W        W38242   9.801  16.751  11.515
68362W        W38243  33.427  30.565   4.148
68363W        W38244  39.898  16.809   4.346
68364W        W38245   1.256  40.529   3.351
68365W        W38246  14.820  38.945   5.719
68366W        W38247   4.765   8.654  13.518
68367W        W38248  23.669  20.657   1.286
68368W        W38249  21.648  41.519   5.286
68369W        W38250  10.193  35.009  12.357
68370W        W38251  36.455  19.680  11.966
68371W        W38252  28.576   9.728   4.652
68372W        W38253   6.215  13.298  14.010
68373W        W38254  28.506  37.532   4.231
68374W        W38255  15.722  36.355  14.377
68375W        W38256  37.457   0.303   0.364
68376W        W38257  37.949  29.034   4.332
68377W        W38258  31.450  40.537  14.807
68378W        W38259   7.254  21.134   2.846
68379W        W38260  39.871  24.065  12.436
68380W        W38261  16.775  19.222  12.833
68381W        W38262  29.939  13.339  12.495
68382W        W38263  41.396   7.695   4.671
68383W        W38264  39.319  16.119  13.977
68384W        W38265  13.715  42.009  13.337
68385W        W38266   3.897  19.746  12.934
68386W        W38267  44.374  21.564   1.285
68387W        W38268   2.937  28.649   0.381
68388W        W38269  39.356   4.742   3.210
68389W        W38270  28.152  38.471   4.190
68390W        W38271  39.469  18.597   2.769
68391W        W38272  18.717  34.460  11.382
68392W        W38273  30.917  28.943   2.698
68393W        W38274   5.324  33.521  10.948
68394W        W38275  15.173  44.504   0.376
68395W        W38276  38.480   9.815   4.182
68396W        W38277  29.480  21.717   0.940
68397W        W38278   0.750   1.482   4.232
68398W        W38279  35.088  22.165   1.270
68399W        W38280  35.587  26.656  14.404
68400W        W38281  22.645  34.413  14.423
68401W        W38282   5.803  38.570   4.271
68402W        W38283  35.057  34.884   1.344
68403W        W38284  40.805   1.422   0.772
68404W        W38285  43.385   5.728   0.341
68405W        W38286   7.746  42.342   2.230
68406W        W38287  15.624  34.078  13.357
68407W        W38288  13.175  36.453   0.262
68408W        W38289  43.404  17.205  14.955
68409W        W38290  25.575   2.302  13.521
68410W        W38291  31.044   1.918   3.270
68411W        W38292   4.313   8.783   3.358
68412W        W38293  42.011  39.368   3.790
68413W        W38294  14.652   1.825  12.828
68414W        W38295  21.187  33.403   1.922
68415W        W38296   7.860  44.948  11.416
68416W        W38297  23.518  31.985  11.591
68417W        W38298  38.891  43.499  10.414
68418W        W38299  20.069  24.141   0.405
68419W        W38300  43.482  21.557   0.924
68420W        W38301  11.368   6.874   2.405
68421W        W38302  18.183  17.711  11.419
68422W        W38303   2.245  15.772   0.467
68423W        W38304  32.063  43.326  10.543
68424W        W38305  39.348  20.716   3.341
68425W        W38306  37.404  38.014  10.404
68426W        W38307  16.592   1.976   4.674
68427W        W38308  11.717  25.620   0.362
68428W        W38309  30.633  34.583  10.590
68429W        W38310  14.705  31.614  12.848
68430W        W38311  21.551  11.682  13.532
68431W        W38312  27.169  30.064   3.176
68432W        W38313   2.342  12.276   4.812
68433W        W38314  37.501  13.687   4.204
68434W        W38315   3.317  39.408  14.862
68435W        W38316  34.558  29.133  13.497
68436W        W38317  23.177   8.837   0.323
68437W        W38318   8.392  26.657  13.864
68438W        W38319  36.917   5.264  12.348
68439W        W38320  17.101  12.633  12.492
68440W        W38321  37.917  10.643  11.108
68441W        W38322   3.914  32.470  12.873
68442W        W38323  14.756  19.083   2.863
68443W        W38324  43.918   0.429  13.803
68444W        W38325   6.830  40.049  13.346
68445W        W38326  21.591  44.835   0.398
68446W        W38327  41.861   0.471   4.293
68447W        W38328   7.213  22.736   1.824
68448W        W38329   9.669  44.944   1.781
68449W        W38330  18.173  31.077   0.806
68450W        W38331   2.885  37.409  10.911
68451W        W38332  41.939  28.501   4.682
68452W        W38333  12.273  35.591  11.399
68453W        W38334  39.918   4.423  12.868
68454W        W38335   9.839  30.063  11.052
68455W        W38336  20.036   7.276   5.270
68456W        W38337  43.966  28.148   0.835
68457W        W38338  23.065   3.229  10.966
68458W        W38339  30.093  39.552   0.284
68459W        W38340   7.797   8.793   1.220
68460W        W38341  31.935  29.076  10.110
68461W        W38342  41.435  10.674  13.498
68462W        W38343  11.723  28.560   4.809
68463W        W38344  17.616  36.379   1.921
68464W        W38345   5.420  44.431   2.397
68465W        W38346   1.940   5.866   3.224
68466W        W38347   8.853  10.369   0.964
68467W        W38348  16.290  20.103   0.859
68468W        W38349  26.629  13.656  12.087
68469W        W38350  24.706  35.909  13.872
68470W        W38351   0.948  15.121   2.857
68471W        W38352  17.733  27.988   1.211
68472W        W38353  37.068  26.051  10.967
68473W        W38354  20.246  44.381  11.019
68474W        W38355  23.115  29.953   3.324
68475W        W38356  35.012   2.232  10.615
68476W        W38357  31.129  38.893  13.455
68477W        W38358  24.619  19.063  12.058
68478W        W38359  43.948   2.812   0.853
68479W        W38360  11.148  14.175   3.184
68480W        W38361   5.323  28.515  12.436
68481W        W38362  21.746  25.126   0.931
68482W        W38363  21.192  36.574  14.790
68483W        W38364  34.107  43.862   4.732
68484W        W38365  35.869  40.988  14.315
68485W        W38366   4.743  27.547  14.498
68486W        W38367  37.915  24.159  11.100
68487W        W38368  17.301   4.900   4.771
68488W        W38369  43.415  38.339  10.459
68489W        W38370  26.477  20.703   0.359
68490W        W38371  38.829  27.061  12.422
68491W        W38372  34.606  32.629   0.461
68492W        W38373  35.548  29.627   0.936
68493W        W38374  10.173   5.728   4.313
68494W        W38375  35.930  41.373  13.034
68495W        W38376   4.367  42.408  13.988
68496W        W38377  31.631  17.304  10.427
68497W        W38378  42.807   3.883   5.203
68498W        W38379  10.653  31.106   4.744
68499W        W38380  27.177   6.877  12.011
68500W        W38381  37.523  23.214  13.476
68501W        W38382  36.854  19.066   2.271
68502W        W38383   6.678  40.457   4.340
68503W        W38384   5.781   7.871   0.856
68504W        W38385  28.110  10.739   1.235
68505W        W38386  15.718   5.753   1.791
68506W        W38387  39.026  19.618   1.404
68507W        W38388  27.615  32.609  11.947
68508W        W38389   0.452  10.696  10.965
68509W        W38390  15.327  40.544  12.413
68510W        W38391  32.616  31.938  13.044
68511W        W38392  21.643  18.169   3.760
68512W        W38393  16.577   3.947   3.180
68513W        W38394  32.398   4.207  13.831
68514W        W38395   9.377   2.853  11.893
68515W        W38396   6.373  28.601   0.433
68516W        W38397  14.743   9.764  13.002
68517W        W38398  39.931  17.706   4.186
68518W        W38399  40.934  22.663   0.789
68519W        W38400  37.071  37.943  12.008
68520W        W38401  30.940  17.135   3.675
68521W        W38402  21.171   5.405   4.635
68522W        W38403  31.905  12.291  12.912
68523W        W38404   9.652  36.512   0.808
68524W        W38405  16.279  21.100   0.911
68525W        W38406  12.295  23.630  13.056
68526W        W38407  25.088  15.695  11.085
68527W        W38408  22.126  23.111   0.437
68528W        W38409  19.780   9.274  11.464
68529W        W38410  30.537  31.466  14.759
68530W        W38411  42.783  27.161  12.887
68531W        W38412   6.678   2.364  13.426
68532W        W38413   1.397  13.338  14.460
68533W        W38414  21.747  14.766  13.819
68534W        W38415  23.565  22.077  14.874
68535W        W38416  17.729   1.903  13.000
68536W        W38417  11.629  13.780  12.914
68537W        W38418  42.319  25.698  12.089
68538W        W38419  20.035   5.841   1.934
68539W        W38420  26.143  39.843   0.922
68540W        W38421  31.624  38.949  12.010
68541W        W38422  33.972   0.771  11.095
68542W        W38423  28.534  14.117  13.405
68543W        W38424  27.662  14.300   3.315
68544W        W38425  19.197  18.749  14.953
68545W        W38426  13.128  15.620   1.814
68546W        W38427  33.625  44.774   3.357
68547W        W38428  10.752  28.053   2.406
68548W        W38429  22.540   6.419  11.124
68549W        W38430   2.380  19.138   1.412
68550W        W38431  35.588  37.014   0.441
68551W        W38432   3.362  32.886   1.763
68552W        W38433   2.311  17.106   3.168
68553W        W38434  26.525   0.453   4.794
68554W        W38435  28.550  13.319   4.600
68555W        W38436  43.318   0.261   1.421
68556W        W38437  19.070  20.534  13.436
68557W        W38438   2.823  21.046  13.387
68558W        W38439  26.985   2.402   3.742
68559W        W38440   1.431  11.249   3.385
68560W        W38441  37.374  42.868   4.819
68561W        W38442  16.580  41.901   3.675
68562W        W38443  26.471  21.078   0.728
68563W        W38444   1.428  27.174   3.643
68564W        W38445  37.846  34.483  14.775
68565W        W38446   0.362   0.782  13.341
68566W        W38447  13.348  15.138  14.325
68567W        W38448  15.597  27.094  13.459
68568W        W38449  18.272  18.237   4.772
68569W        W38450   3.215  15.682   4.124
68570W        W38451  37.999   5.740   1.333
68571W        W38452  11.236  24.228   4.715
68572W        W38453  24.548  21.553  13.478
68573W        W38454  16.256  17.164   2.789
68574W        W38455  37.461  27.535   0.285
68575W        W38456  42.408  38.070   3.712
68576W        W38457   3.375  40.904  11.946
68577W        W38458  17.128   3.423  10.017
68578W        W38459  38.861   0.861   0.850
68579W        W38460  44.439  26.636  11.085
68580W        W38461  32.044  24.595  14.407
68581W        W38462  30.511   0.250   3.757
68582W        W38463  35.404  14.297  10.953
68583W        W38464  25.067   0.972  12.829
68584W        W38465  40.347  33.971  11.966
68585W        W38466  32.996   0.851   3.828
68586W        W38467  12.269  37.937   0.755
68587W        W38468  24.510   0.428   1.357
68588W        W38469  35.501   9.773  12.886
68589W        W38470  44.861  38.839   3.741
68590W        W38471  25.062  15.669   3.751
68591W        W38472  35.526   8.232  11.998
68592W        W38473  25.572   3.324   1.764
68593W        W38474  14.695  27.062   3.786
68594W        W38475   8.770  30.557   1.427
68595W        W38476  10.211  42.438  12.358
68596W        W38477  22.527  36.041   2.253
68597W        W38478  22.119  41.452   4.219
68598W        W38479  23.512  23.139  11.401
68599W        W38480  33.522  23.694   0.741
68600W        W38481  44.977  16.304  14.485
68601W        W38482   0.838   2.303  12.910
68602W        W38483  21.603  25.157  11.483
68603W        W38484  41.330  39.006  13.399
68604W        W38485  25.159  25.219   4.235
68605W        W38486   3.427   4.816   3.825
68606W        W38487  13.760  27.595   2.794
68607W        W38488   0.335  15.762   1.749
68608W        W38489  38.946   9.850  14.914
68609W        W38490   4.865  44.471  13.818
68610W        W38491   4.916   5.206   2.857
68611W        W38492  20.634  10.183   4.253
68612W        W38493  28.157  30.571   1.893
68613W        W38494  11.262   7.279   4.162
68614W        W38495  27.143  31.949   3.803
68615W        W38496  19.582  29.048  10.489
68616W        W38497   7.257  36.593  13.460
68617W        W38498  11.218  19.194   4.750
68618W        W38499  36.590  24.661   3.358
68619W        W38500   2.462  33.932  12.007
68620W        W38501  33.548  41.864  11.069
68621W        W38502  37.555  14.662   5.250
68622W        W38503  44.994   5.267   0.812
68623W        W38504  19.629  14.753   0.427
68624W        W38505  15.130  29.132  13.390
68625W        W38506  18.087  12.619   4.680
68626W        W38507  10.244  26.071   2.828
68627W        W38508  39.958  18.717   1.223
68628W        W38509  11.325  30.096   0.843
68629W        W38510   6.676  33.470  12.951
68630W        W38511  16.214  40.413   4.788
68631W        W38512  40.873  17.564  14.934
68632W        W38513  19.561  19.224  12.396
68633W        W38514  40.826  41.450   2.391
68634W        W38515  16.590  40.380   1.258
68635W        W38516  10.207  38.014   5.264
68636W        W38517  33.026  12.298   2.286
68637W        W38518  37.439  29.155   2.398
68638W        W38519   5.805  41.010   4.306
68639W        W38520  28.609  38.494   4.702
68640W        W38521   3.243  14.277   3.791
68641W        W38522   4.779  11.245  11.528
68642W        W38523  20.139   4.788  10.415
68643W        W38524  22.084   5.317  13.057
68644W        W38525   4.438  29.635   2.411
68645W        W38526   8.205  23.196  14.470
68646W        W38527  40.982  18.166   1.709
68647W        W38528  38.925  30.975  13.467
68648W        W38529  37.050  22.695   0.926
68649W        W38530   5.903   5.852   4.709
68650W        W38531  30.609  22.616  14.353
68651W        W38532   9.890   1.944  12.950
68652W        W38533  22.153  15.603   0.938
68653W        W38534  30.521  28.574  14.900
68654W        W38535   7.770  30.992   0.789
68655W        W38536  10.705  24.989  12.399
68656W        W38537  28.675  30.605  12.403
68657W        W38538  11.665  28.510   1.261
68658W        W38539  18.778  12.139  12.972
68659W        W38540   2.731   0.920   3.870
68660W        W38541  42.991  42.364  10.578
68661W        W38542  26.592  15.629   5.095
68662W        W38543  35.451  41.985  13.023
68663W        W38544  27.606  30.991  13.814
68664W        W38545  40.338   8.883   2.822
68665W        W38546  28.487   9.341   3.858
68666W        W38547  31.987  13.189   4.152
68667W        W38548  20.594  27.506   4.254
68668W        W38549  25.141  27.645   0.765
68669W        W38550  32.082  26.036   2.885
68670W        W38551  13.681   7.174  14.894
68671W        W38552  29.114  39.844  13.416
68672W        W38553  28.117  42.933   4.674
68673W        W38554  23.572  43.395   3.834
68674W        W38555  32.588  20.709   1.228
68675W        W38556   5.777  35.928   4.248
68676W        W38557   7.402  14.273  11.088
68677W        W38558  33.008  32.964  14.790
68678W        W38559  12.730  23.018  10.925
68679W        W38560   1.377   6.415   1.440
68680W        W38561  19.251  41.514  13.502
68681W        W38562  39.410  10.374   2.735
68682W        W38563  34.518  25.219  10.492
68683W        W38564  18.103   1.296  14.376
68684W        W38565  23.044  24.206  13.835
68685W        W38566  38.387   3.931   4.635
68686W        W38567  20.048  43.516  11.960
68687W        W38568   2.947  28.589  14.790
68688W        W38569  26.650   4.819   0.796
68689W        W38570  33.931  16.160   4.750
68690W        W38571  43.444   6.807  11.056
68691W        W38572  35.437  17.158  12.560
68692W        W38573  35.966   0.326   2.721
68693W        W38574   6.278  37.928  11.415
68694W        W38575  16.186  42.431  13.452
68695W        W38576  43.980  24.699  14.971
68696W        W38577  22.647  40.363   0.866
68697W        W38578  17.137   5.221  11.881
68698W        W38579  31.536  11.152  12.573
68699W        W38580  20.572   9.216  11.894
68700W        W38581  14.825  19.708   4.681
68701W        W38582  12.178  21.159   4.626
68702W        W38583  26.613  22.230   2.711
68703W        W38584   9.377  16.128   3.833
68704W        W38585  17.707   0.486  12.479
68705W        W38586  27.491  30.621   2.692
68706W        W38587  17.093  34.024   2.903
68707W        W38588   4.388   8.384   0.784
68708W        W38589  43.802  44.430   4.333
68709W        W38590  10.308  29.156   0.386
68710W        W38591  19.764  34.065  13.435
68711W        W38592   2.794   7.825  13.474
68712W        W38593  28.119  17.613  13.372
68713W        W38594  29.044  40.341   3.385
68714W        W38595  33.124  15.680   3.799
68715W        W38596  38.524  26.521   3.752
68716W        W38597  26.102   9.227  10.526
68717W        W38598  14.296  38.438  12.902
68718W        W38599  41.516  27.645   4.339
68719W        W38600   4.219  24.546   2.804
68720W        W38601  39.502  32.131  12.428
68721W        W38602  31.072  22.648  13.048
68722W        W38603   6.800  29.488  10.608
68723W        W38604  19.731   1.810   2.362
68724W        W38605  44.758  11.841   1.751
68725W        W38606  42.958   5.722   0.394
68726W        W38607   1.459  20.203  11.538
68727W        W38608  42.015  32.928  13.908
68728W        W38609  16.652  16.773   4.185
68729W        W38610  34.930  36.973  13.360
68730W        W38611  25.544  22.050   2.890
68731W        W38612   6.351  28.094  14.763
68732W        W38613  21.108  19.059   4.266
68733W        W38614  28.960  30.087   1.342
68734W        W38615  37.083  42.523  14.442
68735W        W38616  38.355  24.001   1.892
68736W        W38617   4.424  11.757  14.797
68737W        W38618  31.415  10.687  14.031
68738W        W38619  42.328   3.348  12.946
68739W        W38620  11.627  20.701  10.421
68740W        W38621  11.714  13.680  12.520
68741W        W38622   5.879  23.073  14.496
68742W        W38623   6.273  36.916  11.501
68743W        W38624  10.675  19.211  12.998
68744W        W38625  29.153  11.348  14.014
68745W        W38626  40.803  32.894   4.234
68746W        W38627   9.367  13.842  12.578
68747W        W38628  32.072   7.177  13.020
68748W        W38629  32.490   9.394   1.392
68749W        W38630  10.221   5.350  11.040
68750W        W38631  31.606   4.826   2.847
68751W        W38632  25.060  11.306  14.506
68752W        W38633  43.822  33.469   1.310
68753W        W38634   0.382  39.871   2.355
68754W        W38635  11.132  18.557  11.457
68755W        W38636  18.120  25.071  14.850
68756W        W38637  42.492  41.442   4.122
68757W        W38638   9.392  23.177  12.363
68758W        W38639  42.481  12.139   4.611
68759W        W38640  43.865  21.243   4.830
68760W        W38641  34.097   5.922   3.322
68761W        W38642   9.730   9.835  12.069
68762W        W38643  38.397  43.875   2.681
68763W        W38644  18.784  37.472   1.353
68764W        W38645  28.147  20.589  14.866
68765W        W38646  26.502  25.510   0.779
68766W        W38647  20.160   4.771   1.839
68767W        W38648  25.062  40.418   2.244
68768W        W38649  32.470  27.996   3.192
68769W        W38650  31.426  27.143   4.200
68770W        W38651  40.460  42.470  10.427
68771W        W38652  25.020  38.427  14.385
68772W        W38653  36.450  22.090  14.872
68773W        W38654  10.865  12.118  10.440
68774W        W38655  15.219  12.633  12.013
68775W        W38656  16.666   9.846  10.532
68776W        W38657  19.593  21.748   1.716
68777W        W38658  12.791   6.205  11.427
68778W        W38659  31.070  30.615  10.572
68779W        W38660  40.408  44.288  10.566
68780W        W38661   2.434  31.547   2.373
68781W        W38662  18.648  20.162   4.352
68782W        W38663  16.256  24.594   3.688
68783W        W38664  41.409  40.420  11.982
68784W        W38665   4.824  10.338   5.180
68785W        W38666  32.472  16.205   4.256
68786W        W38667  11.188  13.819   2.298
68787W        W38668  22.099   7.859   4.697
68788W        W38669  24.706  22.532   3.266
68789W        W38670  41.039  43.449   0.417
68790W        W38671  25.966   5.316  10.941
68791W        W38672  17.090   0.869   0.737
68792W        W38673  16.687  30.162   0.281
68793W        W38674  12.337  15.215  11.568
68794W        W38675  14.733  37.893  10.915
68795W        W38676  10.853   3.947  13.839
68796W        W38677  35.383  43.368   3.638
68797W        W38678  11.127  13.628  13.519
68798W        W38679  28.504  33.091   4.751
68799W        W38680   9.245  13.742  11.916
68800W        W38681  39.365  39.370  13.488
68801W        W38682   5.773  12.180  12.480
68802W        W38683  27.487  21.029   0.298
68803W        W38684   8.308  31.927  12.542
68804W        W38685   4.415  20.274  10.457
68805W        W38686  11.291  28.671   9.943
68806W        W38687  23.160  37.343  11.961
68807W        W38688  30.930  16.794  12.990
68808W        W38689  12.843  37.491  10.058
68809W        W38690  37.887   0.362  13.951
68810W        W38691  11.294   3.298   4.211
68811W        W38692   6.907   0.260  11.117
68812W        W38693  19.537  31.967   3.263
68813W        W38694   2.284  15.701   1.774
68814W        W38695  12.355  15.705  13.335
68815W        W38696  44.477  41.852   2.868
68816W        W38697  17.802  37.574  12.439
68817W        W38698   4.857  23.013  10.906
68818W        W38699  20.666   4.353   4.269
68819W        W38700   3.332  13.134   2.251
68820W        W38701  26.658  31.452  11.516
68821W        W38702  20.266  35.410  10.974
68822W        W38703  40.800  31.431   3.700
68823W        W38704  40.907  34.491  12.951
68824W        W38705   0.341   5.899  11.920
68825W        W38706  34.593   7.822   2.300
68826W        W38707  23.688  17.651  14.018
68827W        W38708  19.754  16.735   0.957
68828W        W38709  16.199  20.102   0.411
68829W        W38710  11.831  35.919  12.529
68830W        W38711   1.851  30.608   4.615
68831W        W38712  17.083  34.879  14.944
68832W        W38713  38.017  31.539  13.792
68833W        W38714  36.936  35.379  11.985
68834W        W38715  38.025  17.621   2.838
68835W        W38716  26.498  21.673  13.823
68836W        W38717   3.914   6.288  11.521
68837W        W38718  17.157  14.193   0.279
68838W        W38719  32.003   6.393   1.905
68839W        W38720  26.092  11.361   4.720
68840W        W38721  23.588  39.374  11.864
68841W        W38722  11.746  34.605  13.890
68842W        W38723  33.885  11.623   1.211
68843W        W38724  36.046   1.449  10.060
68844W        W38725  41.482  16.233  12.558
68845W        W38726  22.238  33.578   0.360
68846W        W38727  29.487  15.639  13.433
68847W        W38728  41.320  36.400  11.081
68848W        W38729  37.904  28.163  11.452
68849W        W38730  24.197  37.524  11.393
68850W        W38731   5.746  41.804   2.664
68851W        W38732  35.087  14.239   3.751
68852W        W38733  22.734  14.622   0.451
68853W        W38734  42.303  31.560  10.899
68854W        W38735  26.509  33.100   0.263
68855W        W38736  31.472  38.357   1.243
68856W        W38737  34.918  26.478  13.479
68857W        W38738  41.350  12.174  13.403
68858W        W38739  32.972  23.234  12.021
68859W        W38740  44.487  20.612   4.686
68860W        W38741  39.338  38.441  13.326
68861W        W38742  24.195  28.004   2.180
68862W        W38743  32.418  38.020   2.720
68863W        W38744  32.941  14.638   4.297
68864W        W38745  36.949   9.228   0.814
68865W        W38746  20.262  31.144  12.982
68866W        W38747   6.696  12.832   1.248
68867W        W38748  34.593  35.403   4.207
68868W        W38749  18.181  33.043   4.184
68869W        W38750  38.931  19.160  12.381
68870W        W38751  41.830  27.466   4.644
68871W        W38752  29.099  44.977  12.485
68872W        W38753   2.313   3.945   3.360
68873W        W38754  23.635   3.386  12.428
68874W        W38755  21.670  25.508   1.757
68875W        W38756  42.523  35.889   3.745
68876W        W38757  38.376  20.532   1.798
68877W        W38758  39.442  37.081   2.897
68878W        W38759  18.598   9.671  13.541
68879W        W38760  24.219   9.170   0.894
68880W        W38761  28.083  30.929  10.980
68881W        W38762  16.314   9.293   3.651
68882W        W38763  36.057   3.872  11.034
68883W        W38764  33.040   6.313  12.425
68884W        W38765  17.561  43.810  13.452
68885W        W38766   1.262  31.903   1.793
68886W        W38767  33.509  28.041   4.253
68887W        W38768  34.532  12.166  12.966
68888W        W38769  40.356   0.355  14.860
68889W        W38770  33.064  20.260   3.700
68890W        W38771  43.506  28.497   4.698
68891W        W38772  18.630  41.421  12.921
68892W        W38773  10.653  36.550  14.998
68893W        W38774  19.774   6.883  11.378
68894W        W38775  12.684   1.251  10.499
68895W        W38776  24.042  41.832  13.381
68896W        W38777   9.286  15.278  14.823
68897W        W38778  26.476  42.478   0.456
68898W        W38779  19.618  44.784  14.368
68899W        W38780  20.072  37.412   2.846
68900W        W38781  37.869   1.372   1.425
68901W        W38782  17.733  42.951  10.497
68902W        W38783  39.393  34.445   4.134
68903W        W38784  24.201  10.182   3.226
68904W        W38785  43.278  25.109  11.031
68905W        W38786  17.691   9.877  10.563
68906W        W38787   5.195  22.666   2.300
68907W        W38788  23.176  13.784   3.683
68908W        W38789  13.209  19.685  13.920
68909W        W38790  36.586  24.196  12.074
68910W        W38791  36.371  36.505   2.409
68911W        W38792  15.289  33.120   1.426
68912W        W38793  40.923  27.992  13.548
68913W        W38794  28.069  18.065  14.873
68914W        W38795  44.845  19.676  14.510
68915W        W38796  44.890  29.143   3.773
68916W        W38797  37.338  29.056  11.100
68917W        W38798  10.752  13.648  13.033
68918W        W38799  43.856  41.879   3.313
68919W        W38800  34.464  44.271   2.395
68920W        W38801  42.967   6.838   3.717
68921W        W38802  14.792  38.030  13.954
68922W        W38803  42.833  13.812  11.518
68923W        W38804  39.343  21.120  11.508
68924W        W38805  34.900  10.177  13.936
68925W        W38806  43.792  33.553   3.738
68926W        W38807  40.907  27.476   1.345
68927W        W38808   1.783  27.678  11.036
68928W        W38809  28.456  27.666  13.451
68929W        W38810   8.230  18.260  11.108
68930W        W38811  29.934  20.100   2.181
68931W        W38812  34.410  13.784   1.908
68932W        W38813   5.209  28.163   2.749
68933W        W38814  22.195   0.438   4.765
68934W        W38815   9.317  39.822   4.821
68935W        W38816  41.405  21.731  14.823
68936W        W38817  37.464  44.788   2.391
68937W        W38818   7.202  34.869   3.295
68938W        W38819  13.772  24.071  12.355
68939W        W38820  24.998  15.219   4.300
68940W        W38821  28.119  33.124  14.490
68941W        W38822  28.098  40.825  14.837
68942W        W38823  25.038  29.513  13.026
68943W        W38824  11.248  11.735   0.339
68944W        W38825   4.371  20.059   3.759
68945W        W38826  10.314  14.244   3.806
68946W        W38827   4.758  30.523   1.223
68947W        W38828  35.362  22.032  12.551
68948W        W38829  21.094  19.757   0.960
68949W        W38830  11.225  12.653   1.355
68950W        W38831  21.205  16.173  11.890
68951W        W38832  44.285   9.837   1.758
68952W        W38833  41.858  29.524   1.344
68953W        W38834  33.042  13.325  13.911
68954W        W38835  32.104  22.639   4.151
68955W        W38836   3.789  30.478   1.335
68956W        W38837  36.351  40.031   3.694
68957W        W38838  35.072   8.846  11.861
68958W        W38839   0.969  30.512   4.686
68959W        W38840   3.842  10.180   0.250
68960W        W38841  31.585  14.591   3.783
68961W        W38842  38.400   0.854  13.893
68962W        W38843  33.066  40.823   2.671
68963W        W38844   6.258  23.046  10.613
68964W        W38845   7.841  37.992   0.830
68965W        W38846  23.692  28.504  13.017
68966W        W38847  44.379   0.771   2.823
68967W        W38848  35.893  19.535   0.767
68968W        W38849  40.824  42.903  12.987
68969W        W38850  14.590  35.416   3.247
68970W        W38851  33.984   8.268   4.157
68971W        W38852  41.469  40.922  10.989
68972W        W38853  10.357  29.569  13.394
68973W        W38854  19.066  18.730   2.214
68974W        W38855  43.418  21.553  13.520
68975W        W38856  13.174  31.129   0.412
68976W        W38857  20.270  21.024   2.764
68977W        W38858  28.654  32.909  11.909
68978W        W38859   0.982  43.501   3.242
68979W        W38860   7.777   4.264   0.443
68980W        W38861  19.666  42.916  12.915
68981W        W38862  16.298  11.329   4.303
68982W        W38863   2.950  28.950  11.457
68983W        W38864   4.774  29.119  13.007
68984W        W38865  32.945   9.738   3.340
68985W        W38866  27.042  26.147  11.588
68986W        W38867  41.797  33.394   9.998
68987W        W38868   4.941  40.509   4.143
68988W        W38869  32.021  38.882   3.830
68989W        W38870   7.302  20.252  12.880
68990W        W38871  17.579  33.407   4.635
68991W        W38872   5.356   6.223   4.652
68992W        W38873  25.216  32.939  12.058
68993W        W38874  21.075  31.585  12.024
68994W        W38875  19.740   1.890   3.243
68995W        W38876  35.895  25.598   2.225
68996W        W38877  44.814   7.812  11.085
68997W        W38878  27.633  34.577   0.423
68998W        W38879   4.736  40.521  13.452
68999W        W38880  26.168  15.620   3.777
69000W        W38881  37.457  20.663   1.291
69001W        W38882   5.418   7.290   0.445
69002W        W38883  21.700   2.339  11.999
69003W        W38884   5.346  13.719   1.750
69004W        W38885   8.817  19.597  13.859
69005W        W38886  37.878  34.582  13.994
69006W        W38887  31.508  39.523   4.632
69007W        W38888  29.470   1.822  11.128
69008W        W38889  18.584  10.292   4.223
69009W        W38890  16.700  15.249  14.797
69010W        W38891  41.406   7.351  12.919
69011W        W38892  34.516  20.704   0.883
69012W        W38893  15.722  41.005  13.426
69013W        W38894  15.187  31.595   1.850
69014W        W38895  43.919  16.163  14.782
69015W        W38896  32.574  33.878   0.430
69016W        W38897  21.631  36.493   3.269
69017W        W38898  12.788  40.929  12.558
69018W        W38899  20.663  12.742  13.964
69019W        W38900  19.697  15.152   3.312
69020W        W38901  32.978   1.468  11.416
69021W        W38902   5.725  25.126  13.821
69022W        W38903  24.093  19.159  11.474
69023W        W38904  13.193  22.572   2.892
69024W        W38905  30.908   7.360   4.243
69025W        W38906  26.643  23.190   1.912
69026W        W38907  21.048   6.771  13.521
69027W        W38908  26.035   0.825  12.932
69028W        W38909  20.696  27.682  10.020
69029W        W38910  42.410  37.565  14.916
69030W        W38911   8.798  14.591  11.609
69031W        W38912  37.466  38.437   2.743
69032W        W38913  21.620  39.364   2.782
69033W        W38914   9.822  43.419  14.878
69034W        W38915  18.591  33.596   4.326
69035W        W38916   1.798  40.387   3.861
69036W        W38917  13.645  32.908   4.617
69037W        W38918  28.073  39.493   0.392
69038W        W38919  17.678  26.578  10.470
69039W        W38920  36.508  33.555  10.138
69040W        W38921   2.388   0.450   4.816
69041W        W38922  43.969  13.626  13.378
69042W        W38923  18.740  10.728   3.331
69043W        W38924  29.928   4.733  10.643
69044W        W38925  37.021  18.761   4.837
69045W        W38926  20.148  44.930  11.094
69046W        W38927   2.751  25.603   3.847
69047W        W38928  40.355  18.284   1.732
69048W        W38929  34.379  24.676   2.416
69049W        W38930  32.090  31.478  11.397
69050W        W38931  18.216  19.633  14.769
69051W        W38932  44.482  12.208  14.878
69052W        W38933  26.677   0.443  14.302
69053W        W38934   3.218  41.937   0.839
69054W        W38935  29.459  26.098  12.953
69055W        W38936  30.496  21.595   2.794
69056W        W38937   0.408   3.894  11.485
69057W        W38938  12.832  29.141  13.977
69058W        W38939  24.976  10.312   5.109
69059W        W38940  41.813  37.875   2.859
69060W        W38941  10.311  18.292  13.839
69061W        W38942  19.592   7.215   3.696
69062W        W38943  40.944  33.063  12.535
69063W        W38944   7.274   5.807  14.901
69064W        W38945  10.763  10.150  11.029
69065W        W38946  36.023  29.469  14.469
69066W        W38947   6.346  28.619  12.406
69067W        W38948  20.093  42.928   3.817
69068W        W38949  17.669  35.433  14.414
69069W        W38950  41.991  18.252   1.290
69070W        W38951  14.823   9.348   0.807
69071W        W38952   9.318  39.389  13.394
69072W        W38953  19.656   7.818   0.387
69073W        W38954  11.779  35.095  11.372
69074W        W38955  30.473  40.414   0.894
69075W        W38956  17.704  36.920   4.654
69076W        W38957  44.385  22.195  11.102
69077W        W38958  11.832   1.781   4.116
69078W        W38959   5.745  39.936   2.355
69079W        W38960  30.155   8.167  11.046
69080W        W38961  32.573  34.051   4.653
69081W        W38962   4.837  21.226   2.680
69082W        W38963   8.847  30.461   3.665
69083W        W38964  24.536  21.722   3.823
69084W        W38965  30.134   0.776   0.871
69085W        W38966  26.971  42.782  11.397
69086W        W38967  12.773  10.837  10.924
69087W        W38968  29.628  41.297  14.910
69088W        W38969  38.424  15.810   3.780
69089W        W38970  31.128  42.780  13.830
69090W        W38971  39.864  30.076   2.239
69091W        W38972  23.210  36.378   1.263
69092W        W38973  14.179  39.525   5.195
69093W        W38974   5.439  31.075   4.717
69094W        W38975  11.227  18.761   1.746
69095W        W38976  32.481  34.440   4.273
69096W        W38977  13.334  36.987  11.952
69097W        W38978  26.958  22.145  13.404
69098W        W38979  29.606  43.839   4.272
69099W        W38980  37.524  15.621  11.966
69100W        W38981  22.052   8.699  13.945
69101W        W38982   3.912   1.426  11.441
69102W        W38983  27.982  21.205   2.712
69103W        W38984  27.082  30.988  12.431
69104W        W38985  28.133  37.566   2.664
69105W        W38986  31.532  22.607   0.940
69106W        W38987  28.629   3.805  11.924
69107W        W38988   6.250  32.101   4.752
69108W        W38989  22.219  40.365   2.284
69109W        W38990   3.461  34.892   5.309
69110W        W38991  18.077  22.732   4.741
69111W        W38992  33.913   2.889  11.528
69112W        W38993   1.329  14.214   4.766
69113W        W38994   6.834  32.890   1.344
69114W        W38995  29.044  31.099   2.327
69115W        W38996  38.410  23.582  14.511
69116W        W38997  43.875  28.663   3.350
69117W        W38998  16.272   7.682  10.489
69118W        W38999  19.607  28.152   3.342
69119W        W39000  18.070  12.176  14.381
69120W        W39001   6.389  24.704  12.933
69121W        W39002  30.092  20.625   2.336
69122W        W39003  43.431   4.927   0.245
69123W        W39004  37.866  23.064  13.371
69124W        W39005   4.771  38.484   3.796
69125W        W39006  35.889  33.064  14.854
69126W        W39007  41.387  18.161   1.400
69127W        W39008  36.369  42.444  12.072
69128W        W39009   4.411  37.024   3.165
69129W        W39010  30.468  10.693  13.319
69130W        W39011  18.655   6.680  11.434
69131W        W39012   7.267  11.313   4.807
69132W        W39013   5.391   9.157  11.501
69133W        W39014   2.738  44.433   0.349
69134W        W39015  31.469   5.701   2.717
69135W        W39016  34.932  30.542  13.388
69136W        W39017  28.147   5.763  12.529
69137W        W39018  10.869  41.786  13.861
69138W        W39019  31.919  11.261  10.644
69139W        W39020  12.854  32.920   3.228
69140W        W39021  26.124   6.677  14.343
69141W        W39022  39.444  36.534   4.676
69142W        W39023   7.845  17.712  12.045
69143W        W39024   7.720  36.578  10.921
69144W        W39025  36.023  44.370   4.311
69145W        W39026  31.530  17.617   1.373
69146W        W39027  23.148  17.570   5.203
69147W        W39028  41.528  44.396  10.974
69148W        W39029   3.800  40.476  12.464
69149W        W39030  21.158   7.759  12.528
69150W        W39031  16.796  31.004   1.758
69151W        W39032   5.363   4.746   0.341
69152W        W39033  39.014  19.142  13.872
69153W        W39034  34.488  24.646  10.939
69154W        W39035   4.410  29.940  11.021
69155W        W39036  13.326  36.419   1.829
69156W        W39037  44.797  16.589   2.747
69157W        W39038  13.621   5.748  13.013
69158W        W39039  38.389   9.714  12.069
69159W        W39040  21.655  32.077   0.332
69160W        W39041  15.097  43.785   2.735
69161W        W39042  39.525  44.264   2.262
69162W        W39043  37.347  36.886   2.900
69163W        W39044  11.716  14.790  13.402
69164W        W39045  21.057   9.700   0.458
69165W        W39046   7.259  40.348   0.347
69166W        W39047  36.476  37.830  13.863
69167W        W39048  11.345  36.406  11.017
69168W        W39049  44.765   0.390  12.909
69169W        W39050  34.098  22.545   1.886
69170W        W39051  43.786  38.435   3.181
69171W        W39052   3.299  18.205  12.030
69172W        W39053  17.659  16.766   4.252
69173W        W39054  31.422  14.176   4.635
69174W        W39055  40.367  32.013  13.032
69175W        W39056   6.308  42.477  11.481
69176W        W39057  38.519  42.341   0.430
69177W        W39058  44.008   9.258  13.917
69178W        W39059   1.319  16.195  14.771
69179W        W39060   0.490  19.239  14.295
69180W        W39061  10.234  34.889  12.993
69181W        W39062  39.052   1.439   0.276
69182W        W39063   7.682  28.033  13.409
69183W        W39064  22.532  18.558   2.310
69184W        W39065   5.778  31.599   0.274
69185W        W39066  23.711   7.731  11.946
69186W        W39067   1.755  30.002  11.868
69187W        W39068  44.912  13.200  12.520
69188W        W39069  30.633  16.174   4.710
69189W        W39070  31.412  12.183   2.793
69190W        W39071  43.884  36.367   2.696
69191W        W39072  34.089  44.011  12.878
69192W        W39073  15.752  26.540  11.874
69193W        W39074   5.862   4.930  11.961
69194W        W39075  40.329  30.992   0.399
69195W        W39076   0.784   3.920  11.942
69196W        W39077  14.100  42.367  11.517
69197W        W39078  12.857  28.514  12.880
69198W        W39079  26.181  18.600   0.847
69199W        W39080  33.989   3.280  12.871
69200W        W39081  13.196  14.119  14.383
69201W        W39082   1.855  35.436   0.400
69202W        W39083  15.804  14.162  11.609
69203W        W39084  22.607  29.119  13.539
69204W        W39085  25.640   5.360  12.540
69205W        W39086  18.595  24.193   3.221
69206W        W39087  26.199   0.799   1.334
69207W        W39088  14.778  23.637  14.336
69208W        W39089   8.718  15.132   3.181
69209W        W39090  14.595   4.317   0.742
69210W        W39091  36.913  29.555  11.119
69211W        W39092  11.822  14.664  14.931
69212W        W39093  26.020  20.141   3.158
69213W        W39094   5.864  13.139  12.471
69214W        W39095  11.681  38.504   2.704
69215W        W39096  42.375  42.321  14.462
69216W        W39097  41.528  11.300  10.436
69217W        W39098  18.729   2.234  12.480
69218W        W39099  30.560  13.154  11.087
69219W        W39100  16.166  26.641  14.868
69220W        W39101  21.244  10.154   0.299
69221W        W39102  27.027  18.106   4.677
69222W        W39103  14.720  28.535  14.853
69223W        W39104  31.063  32.902   3.152
69224W        W39105  30.916  20.155  12.481
69225W        W39106  15.737  22.025  14.958
69226W        W39107  42.475  12.853   1.240
69227W        W39108  42.922  25.104  12.911
69228W        W39109   1.883   1.478   0.380
69229W        W39110  22.735  30.597  10.495
69230W        W39111  30.508   8.337   2.850
69231W        W39112  33.399  34.539  12.453
69232W        W39113  35.505  38.365  12.544
69233W        W39114   5.752  28.584  13.022
69234W        W39115  40.950  13.254  10.630
69235W        W39116   0.420  36.944  13.415
69236W        W39117   2.967  11.349   4.247
69237W        W39118   5.430  14.332   0.341
69238W        W39119   7.726  25.208   4.835
69239W        W39120  40.433  28.443   2.788
69240W        W39121   9.851  24.533   1.414
69241W        W39122  38.929  43.994   0.809
69242W        W39123  18.262  23.085  14.334
69243W        W39124  26.994  17.703   0.376
69244W        W39125   4.703  26.055   1.720
69245W        W39126   3.927   9.759   0.924
69246W        W39127  41.390  39.465  10.496
69247W        W39128  19.726  43.990   0.293
69248W        W39129  11.764   1.447  12.365
69249W        W39130  33.490  16.790   0.246
69250W        W39131  37.422  26.140  13.839
69251W        W39132  22.576  32.974  10.559
69252W        W39133  30.427  39.830   4.838
69253W        W39134  21.119  24.018  14.344
69254W        W39135  42.511  28.110   4.240
69255W        W39136  43.434  43.846   3.183
69256W        W39137  13.141  29.126  14.407
69257W        W39138  43.956  15.189   4.298
69258W        W39139   4.896  34.382  11.478
69259W        W39140  34.402  24.113  13.341
69260W        W39141  26.180  30.032   2.691
69261W        W39142  21.564  25.132   4.230
69262W        W39143  25.095   8.872  11.120
69263W        W39144  23.642  25.096  10.561
69264W        W39145   7.396  39.938   3.157
69265W        W39146  42.288  42.914  12.928
69266W        W39147  37.465  28.080  11.430
69267W        W39148  28.544  33.454  11.527
69268W        W39149   4.922   7.821  11.434
69269W        W39150  24.696  31.966   0.250
69270W        W39151   7.704  44.424   2.246
69271W        W39152   4.815  37.541  12.067
69272W        W39153  34.942  44.484   0.282
69273W        W39154  23.990  18.711   5.249
69274W        W39155  31.520   2.887  13.893
69275W        W39156  13.345  13.758  14.823
69276W        W39157  10.875  10.372  14.296
69277W        W39158   5.220  31.925   1.893
69278W        W39159  35.021  13.693  12.350
69279W        W39160  29.472  27.682   4.812
69280W        W39161  34.543  12.318   4.686
69281W        W39162  36.032  14.687  14.364
69282W        W39163  11.352  35.447  12.542
69283W        W39164  42.387  38.946   1.749
69284W        W39165   8.699  28.046   3.793
69285W        W39166  37.568   4.826  14.939
69286W        W39167   3.271  18.073   2.681
69287W        W39168   6.298  22.522  10.452
69288W        W39169  10.653  10.692   3.826
69289W        W39170   1.956   9.333   2.285
69290W        W39171  21.136  31.998   3.697
69291W        W39172   0.316  35.389  11.125
69292W        W39173   2.325  25.214   0.326
69293W        W39174  40.834  19.117   4.248
69294W        W39175   0.888  23.209   1.303
69295W        W39176   8.736   4.345   2.865
69296W        W39177  38.875  38.948   0.325
69297W        W39178  38.330  13.249   0.859
69298W        W39179  11.228  33.048   4.805
69299W        W39180  14.651  31.010  12.034
69300W        W39181  16.732  12.746  12.445
69301W        W39182  21.748  38.325  13.886
69302W        W39183  19.680   2.855   3.146
69303W        W39184  24.518   3.799  14.932
69304W        W39185  36.898  41.397  12.577
69305W        W39186   4.262  27.560   4.263
69306W        W39187   7.279  31.081   3.788
69307W        W39188   2.749  33.949   0.945
69308W        W39189   2.348  18.725   0.756
69309W        W39190  39.372   1.291  12.945
69310W        W39191  44.984   7.718   3.743
69311W        W39192   7.397   6.224  14.957
69312W        W39193  22.240  25.468  14.866
69313W        W39194  15.206  22.095   3.380
69314W        W39195   2.858  39.462   4.778
69315W        W39196  13.121  25.585   4.329
69316W        W39197   4.873  39.531  11.868
69317W        W39198  19.097   6.724   1.828
69318W        W39199  23.227  18.787   1.710
69319W        W39200  20.135  18.086  11.876
69320W        W39201   5.381  28.502   0.777
69321W        W39202  41.883   0.473  14.997
69322W        W39203  15.219  24.508  12.998
69323W        W39204  43.882  42.942   4.123
69324W        W39205  41.861  37.343  13.384
69325W        W39206  44.897   6.853  12.973
69326W        W39207  25.694  30.652   5.151
69327W        W39208  17.775  42.309   3.147
69328W        W39209  39.420  42.397   0.343
69329W        W39210  44.835   3.304  11.078
69330W        W39211  26.197   3.328   1.321
69331W        W39212  43.814  33.571   1.761
69332W        W39213  41.503  10.734  14.507
69333W        W39214  20.648   0.490   4.214
69334W        W39215   2.308   4.223  13.346
69335W        W39216  26.537  40.435   4.627
69336W        W39217  39.379  20.257   1.802
69337W        W39218  15.805  15.093  13.323
69338W        W39219  13.249  43.466  10.564
69339W        W39220   8.314  29.139  11.376
69340W        W39221   5.859   6.350  11.478
69341W        W39222  36.581  41.427   2.285
69342W        W39223   8.694   2.361  11.029
69343W        W39224   8.721  19.579  14.951
69344W        W39225   3.901  19.145   2.844
69345W        W39226  17.115   7.820   4.202
69346W        W39227  42.783  30.023  12.424
69347W        W39228  25.182  18.125  10.949
69348W        W39229  14.650  10.161   1.321
69349W        W39230  40.477   2.309   1.828
69350W        W39231  27.125  41.943  10.938
69351W        W39232   6.752  41.310  11.517
69352W        W39233  30.927  33.516  14.775
69353W        W39234   4.739  14.666  14.772
69354W        W39235  30.953  32.579   3.213
69355W        W39236  35.429  26.575  14.885
69356W        W39237  41.430  25.508  13.463
69357W        W39238  14.244  28.093   0.838
69358W        W39239   1.290  35.903   1.918
69359W        W39240   8.300  36.072  10.630
69360W        W39241   1.409  36.366   3.223
69361W        W39242   0.986  42.450  13.957
69362W        W39243  28.995  23.093   2.686
69363W        W39244  23.494  44.878  13.930
69364W        W39245  29.939   4.436  12.070
69365W        W39246   8.207   4.273   0.833
69366W        W39247  44.841   7.199   3.757
69367W        W39248   0.780   0.307   1.279
69368W        W39249  13.613  37.574  13.326
69369W        W39250  22.631  38.394   2.691
69370W        W39251  19.081  28.673   1.246
69371W        W39252  38.396  22.126  11.100
69372W        W39253  19.756  15.188  12.966
69373W        W39254  28.628  24.544  11.031
69374W        W39255  24.572  16.072  14.299
69375W        W39256   9.700  37.868   0.894
69376W        W39257   7.898   7.209   1.236
69377W        W39258  19.236  34.041  14.291
69378W        W39259   0.398  39.002   3.358
69379W        W39260  35.107   1.846   2.362
69380W        W39261  12.784  27.129  13.902
69381W        W39262  18.607  15.579   1.752
69382W        W39263  34.868   6.901   1.291
69383W        W39264  31.533  16.231  14.944
69384W        W39265  35.395  21.189   4.270
69385W        W39266  34.598   1.425   4.340
69386W        W39267  35.904  33.876  12.518
69387W        W39268   0.838  29.462  14.409
69388W        W39269   6.808   5.916   4.697
69389W        W39270  17.307  30.966  12.085
69390W        W39271  10.302  29.442   1.231
69391W        W39272  20.735  44.411  14.507
69392W        W39273  10.722  26.952  14.836
69393W        W39274  39.955  36.980  11.459
69394W        W39275  35.908  14.151   4.838
69395W        W39276  38.533  26.567  12.479
69396W        W39277  14.740  24.003  13.479
69397W        W39278   0.962   0.301  12.080
69398W        W39279  15.329  21.046   0.475
69399W        W39280  24.216  43.904   3.293
69400W        W39281  43.429  24.693  11.544
69401W        W39282  37.376  21.733  11.550
69402W        W39283  16.599  13.687  11.533
69403W        W39284  36.529  23.657   0.896
69404W        W39285   5.688   2.286   1.444
69405W        W39286   1.458  40.894   2.373
69406W        W39287   6.427   8.360   4.759
69407W        W39288  27.640   9.201   4.218
69408W        W39289  32.419  43.302   3.279
69409W        W39290  15.093  19.194  13.954
69410W        W39291  20.206  30.010   4.626
69411W        W39292  24.208  43.294   2.293
69412W        W39293  27.078  34.889  14.507
69413W        W39294  17.653  11.711  14.470
69414W        W39295  37.061  13.279  12.353
69415W        W39296  24.134   4.286   1.741
69416W        W39297  29.586  22.632   5.143
69417W        W39298  19.078  17.163   3.228
69418W        W39299   0.269  14.225  11.950
69419W        W39300  42.368  10.170  12.915
69420W        W39301  38.356  24.593  13.984
69421W        W39302  14.711   9.204   3.645
69422W        W39303  15.104   6.214   4.160
69423W        W39304  13.808   8.689   4.697
69424W        W39305   7.750   8.339  11.028
69425W        W39306  31.646  44.989   1.444
69426W        W39307  30.653  26.603  13.458
69427W        W39308   2.962   9.762   1.908
69428W        W39309   5.321  30.121   3.147
69429W        W39310  40.539  10.640   4.655
69430W        W39311  43.016  12.855   3.847
69431W        W39312  43.379  27.044  13.986
69432W        W39313   9.254  28.507  14.471
69433W        W39314  38.450   1.474   4.269
69434W        W39315  17.680  29.463  12.386
69435W        W39316  40.994   0.466  11.458
69436W        W39317  31.110  34.402  14.318
69437W        W39318  26.037  41.527  13.044
69438W        W39319  21.516   0.369  11.072
69439W        W39320  17.079  21.573  12.365
69440W        W39321   6.835  44.276   2.245
69441W        W39322  16.716  12.131  12.873
69442W        W39323  36.073  11.659  10.462
69443W        W39324  37.882   1.827   1.251
69444W        W39325  13.290  15.778   0.933
69445W        W39326  19.729  27.485   2.324
69446W        W39327  10.243   0.408  13.795
69447W        W39328  27.080  31.108   4.229
69448W        W39329  21.081  31.008  14.819
69449W        W39330  21.245  20.611   1.221
69450W        W39331  36.561  39.982  14.830
69451W        W39332  16.680  31.063  14.897
69452W        W39333  40.443   8.174  14.870
69453W        W39334  15.195  26.460   4.703
69454W        W39335   2.322  24.569  12.971
69455W        W39336  42.320   8.371   4.261
69456W        W39337  15.589   3.342  12.438
69457W        W39338   6.793  41.019   4.120
69458W        W39339  38.404  19.555   2.221
69459W        W39340  20.584   7.854   0.783
69460W        W39341  34.432  24.119   1.857
69461W        W39342  18.239  21.197  12.501
69462W        W39343  20.138  26.631   0.408
69463W        W39344  14.828  20.638   4.789
69464W        W39345  34.885  26.061  13.370
69465W        W39346  23.716  25.118   3.841
69466W        W39347  34.593  13.187  14.946
69467W        W39348  36.393  19.574  10.090
69468W        W39349  10.256  15.773  13.955
69469W        W39350  28.177  13.227   0.751
69470W        W39351  32.064  24.681  11.006
69471W        W39352  33.053  38.525  14.017
69472W        W39353  41.535  18.065   0.931
69473W        W39354  11.195  26.697   3.385
69474W        W39355  20.147  13.671   1.900
69475W        W39356  38.384  11.326  10.568
69476W        W39357  17.624  31.591  14.298
69477W        W39358  29.137   3.865  12.445
69478W        W39359  44.354  43.484  13.382
69479W        W39360  35.543  30.941   0.931
69480W        W39361   8.883   7.368  10.405
69481W        W39362  14.119  14.114  11.589
69482W        W39363  37.893  31.921   0.947
69483W        W39364  36.940  29.086   0.876
69484W        W39365  24.042  21.593  11.427
69485W        W39366   2.441  26.025   1.702
69486W        W39367  43.874  40.987   1.794
69487W        W39368  32.101  34.600   1.287
69488W        W39369  29.976   9.755  14.830
69489W        W39370  17.711  29.056   2.193
69490W        W39371  17.664   7.379  14.769
69491W        W39372  26.560  32.531   1.763
69492W        W39373  24.647  28.087   2.717
69493W        W39374  44.862  42.514   3.295
69494W        W39375  27.522   6.832   4.673
69495W        W39376  28.962  33.067  11.500
69496W        W39377  15.274  26.604  14.425
69497W        W39378   9.231  32.624  11.886
69498W        W39379   8.204  19.285   3.203
69499W        W39380  26.676  31.536   0.800
69500W        W39381  24.193   9.862   4.210
69501W        W39382  26.692  14.110  14.814
69502W        W39383  44.838  37.523  13.369
69503W        W39384  32.918  41.989  12.054
69504W        W39385   9.756   3.859   1.295
69505W        W39386   1.774  44.873  13.340
69506W        W39387  32.914  16.812   2.871
69507W        W39388  32.943  10.785  12.472
69508W        W39389  11.717   5.377  14.349
69509W        W39390   9.361  24.976   1.934
69510W        W39391  28.530  28.162   1.747
69511W        W39392  13.329  18.092  11.550
69512W        W39393  18.171  40.978  13.466
69513W        W39394   0.870  18.069   2.253
69514W        W39395  40.513   5.329   2.315
69515W        W39396   9.167  17.779   2.179
69516W        W39397  38.884  28.074   1.733
69517W        W39398  28.940  32.004  14.864
69518W        W39399  24.522  39.952   4.139
69519W        W39400  31.987  37.916   4.150
69520W        W39401  42.487  15.714   0.312
69521W        W39402  43.437  44.335   1.874
69522W        W39403   9.824  16.090   3.341
69523W        W39404   0.306  25.614  12.853
69524W        W39405  38.890  22.093   5.179
69525W        W39406  26.681  33.429  10.947
69526W        W39407  18.211   4.401   0.764
69527W        W39408  23.545   4.740  11.931
69528W        W39409   2.426  30.520  12.871
69529W        W39410  18.552  16.720   0.375
69530W        W39411  35.372  39.932   0.288
69531W        W39412  25.562  18.089  10.010
69532W        W39413  20.140  32.097  10.407
69533W        W39414  33.386   4.313   3.771
69534W        W39415  24.544  23.106   2.776
69535W        W39416  23.517  44.361  12.837
69536W        W39417   2.399  13.645  10.636
69537W        W39418  17.194  33.404  13.899
69538W        W39419  22.716   6.334   1.437
69539W        W39420  10.845  19.537  12.473
69540W        W39421   0.804  37.844   3.754
69541W        W39422  40.337  17.264  11.507
69542W        W39423  17.269  34.382  14.929
69543W        W39424  19.127  26.193  13.817
69544W        W39425  43.421  38.913  13.368
69545W        W39426  27.118  15.672   4.734
69546W        W39427  27.017  13.115  10.933
69547W        W39428  16.705  36.418  12.512
69548W        W39429  13.247  11.184  10.900
69549W        W39430  10.187  17.632  11.914
69550W        W39431   2.306  14.659   0.730
69551W        W39432  12.211   2.444  12.421
69552W        W39433   0.849  30.126  13.542
69553W        W39434   6.728   9.385   1.219
69554W        W39435  34.462  40.033   4.349
69555W        W39436  25.121   6.690   1.212
69556W        W39437  32.022  38.864   2.810
69557W        W39438  39.964   3.294  13.426
69558W        W39439  42.432  18.205  13.312
69559W        W39440  28.540   1.238   2.212
69560W        W39441  44.293  30.087   3.820
69561W        W39442  43.962  41.333   2.821
69562W        W39443   9.683  26.686   1.860
69563W        W39444  41.845   2.283   4.197
69564W        W39445  44.285  12.276  10.961
69565W        W39446   9.156  38.936  10.520
69566W        W39447  10.341  10.329  14.857
69567W        W39448  28.972  25.591   4.208
69568W        W39449  41.530  12.706  12.022
69569W        W39450  35.953   2.816  10.621
69570W        W39451  33.483  39.353   3.325
69571W        W39452   5.912   8.326  10.424
69572W        W39453  27.624   0.896   2.335
69573W        W39454  29.568   4.345  11.030
69574W        W39455   2.899  41.409  11.979
69575W        W39456  21.101  24.527   4.345
69576W        W39457   2.377  30.593  10.130
69577W        W39458   1.942  39.935  11.866
69578W        W39459  39.058   9.226   0.798
69579W        W39460  39.492   2.388  14.784
69580W        W39461  21.716  20.743   4.233
69581W        W39462  22.012   5.848  12.430
69582W        W39463  30.033   2.774  10.895
69583W        W39464  38.465  44.478  12.539
69584W        W39465  16.808  21.692   1.323
69585W        W39466  15.252  26.045  11.385
69586W        W39467  41.485  32.991   1.295
69587W        W39468  14.797  24.493   1.372
69588W        W39469   3.309  17.080   5.304
69589W        W39470  14.710  23.712   5.251
69590W        W39471  20.604  17.732   1.841
69591W        W39472   1.885  42.395  12.829
69592W        W39473  44.434  14.746   4.242
69593W        W39474   2.339  16.619   3.813
69594W        W39475  20.741  26.588  14.773
69595W        W39476   5.798  17.713  14.914
69596W        W39477  12.691  27.009  11.584
69597W        W39478  41.018  34.043  14.821
69598W        W39479  28.644  20.539  14.834
69599W        W39480  12.208  33.884   0.252
69600W        W39481  43.010  36.866  14.516
69601W        W39482  13.645  25.503   4.164
69602W        W39483   3.872  21.708   2.680
69603W        W39484   2.386  34.971   1.284
69604W        W39485  36.441  35.864   1.239
69605W        W39486  28.614  40.044   4.257
69606W        W39487  28.084  18.786  11.478
69607W        W39488  43.316  20.583  14.843
69608W        W39489   9.882  21.029  10.524
69609W        W39490  25.174  44.889  11.117
69610W        W39491  29.553  24.491  11.517
69611W        W39492  35.948  40.950  12.401
69612W        W39493  34.010  41.489   0.792
69613W        W39494  30.102  39.838  12.370
69614W        W39495  43.448  38.359  14.778
69615W        W39496  38.068  10.773   3.866
69616W        W39497  18.049  28.025  10.599
69617W        W39498  39.424  35.515  14.922
69618W        W39499  39.354  17.660   2.674
69619W        W39500  20.674  37.904   3.329
69620W        W39501  10.811  15.620   4.811
69621W        W39502   2.248  17.124   0.842
69622W        W39503  34.490   5.772   3.651
69623W        W39504  14.230   7.899   4.191
69624W        W39505  38.892   6.324   4.327
69625W        W39506  16.220  43.988  13.004
69626W        W39507  40.810   9.177  11.506
69627W        W39508  43.956  26.620   0.792
69628W        W39509   4.892  11.346   4.770
69629W        W39510  38.906  27.619   2.899
69630W        W39511  43.513  18.590  11.466
69631W        W39512  27.447  21.623   4.182
69632W        W39513  33.055  32.572   3.844
69633W        W39514  42.500  24.639   2.419
69634W        W39515  36.422  30.523  10.036
69635W        W39516  26.471  29.100   1.444
69636W        W39517  18.145  34.924   3.168
69637W        W39518   5.709  24.588  11.919
69638W        W39519  30.048  43.819   3.695
69639W        W39520  37.563  19.071  13.400
69640W        W39521  31.018   7.300   3.330
69641W        W39522  36.397  33.903  12.999
69642W        W39523  30.601  24.687  14.495
69643W        W39524  23.032  23.074  13.956
69644W        W39525  18.560  25.159   3.203
69645W        W39526   3.445  16.276   3.693
69646W        W39527  28.075  41.966  12.871
69647W        W39528  26.493  21.512   2.399
69648W        W39529  21.742  18.275   0.357
69649W        W39530  13.293   6.193  13.950
69650W        W39531  38.510   8.330  12.392
69651W        W39532   4.315  40.438  14.982
69652W        W39533  33.080   4.936  11.064
69653W        W39534  43.353  36.352   3.670
69654W        W39535  39.042  19.220  13.006
69655W        W39536   8.293  33.910   4.723
69656W        W39537  14.184  20.643   3.230
69657W        W39538  27.149   8.378  12.856
69658W        W39539  40.823  43.012   0.442
69659W        W39540  15.774  12.651   0.778
69660W        W39541  29.148   4.396  13.383
69661W        W39542  11.203  43.013   4.241
69662W        W39543  32.392  32.903   2.335
69663W        W39544  26.171  40.910  11.883
69664W        W39545   7.823  32.140  12.523
69665W        W39546  18.172  37.492   2.715
69666W        W39547   1.457   9.239  14.286
69667W        W39548  33.989   7.391  11.876
69668W        W39549  13.219  37.048  12.580
69669W        W39550  23.074  29.542   1.825
69670W        W39551  33.471  41.872   1.828
69671W        W39552  41.296  28.467   0.868
69672W        W39553  30.937  36.462   2.697
69673W        W39554   2.943   5.439   0.726
69674W        W39555  21.070   8.387   2.810
69675W        W39556  43.812  40.471  12.970
69676W        W39557  11.216  44.414   0.965
69677W        W39558  15.750  37.079  14.922
69678W        W39559  11.856  31.009   0.920
69679W        W39560  18.060  21.561  12.030
69680W        W39561   8.241  35.593  13.548
69681W        W39562  28.662  43.821  11.051
69682W        W39563  30.111   4.895   4.730
69683W        W39564  11.735  44.453  14.887
69684W        W39565  11.299  30.130  14.853
69685W        W39566  25.968   1.249   3.232
69686W        W39567  42.304   5.199   1.772
69687W        W39568  32.566  23.991   2.328
69688W        W39569   9.864  26.638  11.987
69689W        W39570  18.183   8.672   4.142
69690W        W39571  40.486  31.483   0.460
69691W        W39572  25.042  32.460  13.524
69692W        W39573   3.393   2.430  12.568
69693W        W39574  35.453  17.783  13.910
69694W        W39575  13.246  14.594   1.766
69695W        W39576   0.798  36.492   3.853
69696W        W39577  33.111  39.856  11.051
69697W        W39578  31.135  26.614  12.968
69698W        W39579  30.527   9.314   2.272
69699W        W39580  41.431  26.975   4.724
69700W        W39581  29.151  25.488  14.499
69701W        W39582  22.524  33.955   3.374
69702W        W39583  14.677  44.352  11.864
69703W        W39584  18.216   3.324  12.451
69704W        W39585  33.585   0.467  14.447
69705W        W39586  40.512  34.380  14.302
69706W        W39587   5.356  40.434  13.478
69707W        W39588  36.425  40.039   0.906
69708W        W39589  36.371  26.092  11.932
69709W        W39590  27.652  21.174  11.955
69710W        W39591  13.224  16.076  12.898
69711W        W39592  33.129   1.246  10.565
69712W        W39593  10.200  24.142  12.544
69713W        W39594  40.870   7.333   1.272
69714W        W39595  19.754  22.164   0.280
69715W        W39596  44.403  34.892   5.309
69716W        W39597   7.359  28.087  10.963
69717W        W39598  28.547  17.732   3.819
69718W        W39599  31.578  28.517  10.480
69719W        W39600  29.152  41.961   4.202
69720W        W39601  34.586  40.319  12.071
69721W        W39602  38.890  31.615   5.200
69722W        W39603   2.943   1.828   3.258
69723W        W39604  20.126   9.173   4.177
69724W        W39605  19.571  25.640   3.160
69725W        W39606  26.472  35.108   1.835
69726W        W39607  15.234  12.706  11.418
69727W        W39608  34.477  33.058  13.961
69728W        W39609   1.759  35.545   1.403
69729W        W39610  33.485  19.744   3.650
69730W        W39611  18.251  39.929  14.436
69731W        W39612  36.963  18.744  12.035
69732W        W39613  44.403  31.973   0.352
69733W        W39614  12.841   0.426  14.996
69734W        W39615  22.605   5.276   4.228
69735W        W39616  34.924  35.571   4.665
69736W        W39617  12.637  38.340   4.235
69737W        W39618  25.515  34.968  12.509
69738W        W39619  25.072  13.260  11.001
69739W        W39620  10.739  33.483   4.765
69740W        W39621   8.795  17.258  12.441
69741W        W39622  13.193  36.892  14.828
69742W        W39623  29.005   9.284  11.961
69743W        W39624  27.066  16.641  14.431
69744W        W39625  20.233  12.639  12.014
69745W        W39626  28.553   0.442   0.761
69746W        W39627  13.754  16.614   3.362
69747W        W39628  42.404  34.103  11.950
69748W        W39629  43.353   4.376   4.329
69749W        W39630   2.788   5.730  12.494
69750W        W39631  44.426  29.435   3.240
69751W        W39632  13.720   1.377   0.770
69752W        W39633  14.203  44.477   3.348
69753W        W39634  44.439  20.039  12.919
69754W        W39635  30.129  40.901   2.901
69755W        W39636  33.625  30.481   3.196
69756W        W39637  23.539  43.873  10.579
69757W        W39638  10.646  16.236  12.384
69758W        W39639  14.680  36.440  13.023
69759W        W39640  12.294  15.644   1.786
69760W        W39641   5.297  29.987   1.251
69761W        W39642   5.820  43.976  12.939
69762W        W39643  34.863  30.964   4.285
69763W        W39644  13.608  32.915   1.417
69764W        W39645   6.363   9.761  10.445
69765W        W39646  12.677  14.135  11.479
69766W        W39647  11.699  42.390  11.406
69767W        W39648  31.598   8.250   4.643
69768W        W39649  33.379  20.109   4.833
69769W        W39650   3.742  30.131   4.748
69770W        W39651   2.459   2.764  12.970
69771W        W39652  26.504  42.329  11.477
69772W        W39653  44.935  41.527  13.423
69773W        W39654  14.247  32.974   1.281
69774W        W39655  12.819  35.415   0.799
69775W        W39656   1.315   0.950   4.733
69776W        W39657  11.134  19.283   5.178
69777W        W39658   3.928  42.824   3.692
69778W        W39659  19.054  31.011   5.582
69779W        W39660  30.508  15.096   2.193
69780W        W39661  10.807  14.241  14.397
69781W        W39662  14.639  26.161  10.596
69782W        W39663  20.222  17.234   0.353
69783W        W39664   5.802   4.250  11.881
69784W        W39665  17.155  37.428  13.486
69785W        W39666  12.166   0.924  11.877
69786W        W39667  13.757   6.381   1.376
69787W        W39668  27.565  34.591  12.862
69788W        W39669  20.744   0.276   5.256
69789W        W39670  24.591  39.053  10.440
69790W        W39671  18.084  35.473  13.911
69791W        W39672  38.423  33.004  12.092
69792W        W39673  37.008  36.032  11.594
69793W        W39674  20.689  21.196   3.852
69794W        W39675   5.932   6.247   4.696
69795W        W39676   0.417  16.664   1.436
69796W        W39677  12.717  39.513   1.298
69797W        W39678  36.068  18.752   0.388
69798W        W39679  13.144  30.131   1.765
69799W        W39680  26.618  24.083  10.964
69800W        W39681   6.313  19.187   3.288
69801W        W39682  15.146   1.330   3.856
69802W        W39683   3.898   2.848   2.663
69803W        W39684  12.731  13.838  12.886
69804W        W39685   7.874   9.299   3.727
69805W        W39686   1.901  24.189   0.276
69806W        W39687   3.955  24.142   0.272
69807W        W39688  35.946   2.912  11.944
69808W        W39689  22.714  21.718   2.310
69809W        W39690  19.050   9.876  14.795
69810W        W39691   2.318  33.885   2.215
69811W        W39692   1.332  20.143   4.799
69812W        W39693  43.333   0.256  12.448
69813W        W39694  22.560  13.259  10.889
69814W        W39695  17.184  14.744  12.522
69815W        W39696  30.131   5.791  14.406
69816W        W39697  17.667   0.485  11.585
69817W        W39698  43.772  36.373  11.867
69818W        W39699   5.264  18.163  11.101
69819W        W39700  42.494  23.690  13.326
69820W        W39701  33.510  32.104   0.843
69821W        W39702  33.967  10.293   0.806
69822W        W39703  27.116  26.149  10.414
69823W        W39704  34.409  19.221  10.481
69824W        W39705   4.704   4.419   4.221
69825W        W39706   4.852  19.725   1.885
69826W        W39707  34.953  37.407  13.434
69827W        W39708  11.711  38.541  11.966
69828W        W39709   5.403  18.544   0.798
69829W        W39710  40.547  27.171   0.286
69830W        W39711  19.213  15.095   1.407
69831W        W39712  14.603   4.739   1.288
69832W        W39713  31.514  25.612  13.970
69833W        W39714  37.919   6.411   1.749
69834W        W39715  32.933  41.455  13.036
69835W        W39716   8.682  12.247   4.180
69836W        W39717  12.741  43.439  12.512
69837W        W39718  10.143  23.720  12.913
69838W        W39719   7.300  42.518  14.467
69839W        W39720   0.746  44.455   0.247
69840W        W39721  18.698  35.028  13.484
69841W        W39722  23.548  35.508   3.260
69842W        W39723  25.984  22.010   0.348
69843W        W39724  31.520   4.221  10.597
69844W        W39725  21.237  13.297  10.482
69845W        W39726  36.554  27.192  12.344
69846W        W39727  31.554   6.730   9.651
69847W        W39728  24.557  18.255  11.128
69848W        W39729  33.046  17.268   0.779
69849W        W39730  42.779   4.809  13.947
69850W        W39731   9.734  23.606  14.954
69851W        W39732  42.955   3.419  12.838
69852W        W39733  12.312  43.416   3.223
69853W        W39734  41.977  15.250   1.228
69854W        W39735  19.736   0.858   1.755
69855W        W39736  10.319  18.155   0.463
69856W        W39737  36.347  37.984   2.296
69857W        W39738  23.068  25.484   0.481
69858W        W39739   3.232  14.194  12.349
69859W        W39740  39.360  18.264  12.497
69860W        W39741   3.339  43.287   4.770
69861W        W39742   9.834  22.700   3.253
69862W        W39743  13.724  29.094  10.645
69863W        W39744  29.516  34.063  13.519
69864W        W39745  42.337  37.949   1.915
69865W        W39746  43.367  11.648   0.787
69866W        W39747  39.055   2.942  12.845
69867W        W39748  41.964   6.788   4.191
69868W        W39749  34.889  18.777  14.927
69869W        W39750  22.586  27.039  14.469
69870W        W39751  15.635   0.324  14.907
69871W        W39752   0.833  17.260   4.244
69872W        W39753  37.967  18.766   3.805
69873W        W39754  20.655  35.526  11.601
69874W        W39755   3.778  30.057  13.459
69875W        W39756  36.043   0.299   3.867
69876W        W39757  34.028  31.507  11.612
69877W        W39758  44.309  42.305   4.676
69878W        W39759   8.899  20.067  14.967
69879W        W39760  27.027   2.394  14.760
69880W        W39761  22.743  35.980  13.890
69881W        W39762   6.891  36.955  10.492
69882W        W39763  13.138  30.079   2.837
69883W        W39764  35.071  23.495  13.954
69884W        W39765  42.972  23.561   0.337
69885W        W39766  28.142  10.722  12.341
69886W        W39767  39.883  29.997  14.027
69887W        W39768  36.391  11.269  10.609
69888W        W39769  23.026  10.675   0.813
69889W        W39770  31.946  14.289   2.418
69890W        W39771  39.946  22.239   3.814
69891W        W39772   7.306  13.621   0.390
69892W        W39773  16.106  16.756  11.963
69893W        W39774  41.346  25.629   3.386
69894W        W39775  43.498  29.065   2.827
69895W        W39776  43.506  36.427   0.935
69896W        W39777   9.374  33.084  11.375
69897W        W39778  41.503  23.659   0.301
69898W        W39779  14.624  39.526  10.063
69899W        W39780  28.148  37.909  11.509
69900W        W39781  33.957  33.894   0.463
69901W        W39782  11.233  19.757   1.425
69902W        W39783  22.619  37.401   0.402
69903W        W39784  41.882  10.270   3.176
69904W        W39785  38.326   5.364  11.874
69905W        W39786  35.908  40.015  14.389
69906W        W39787  23.494  19.184   4.753
69907W        W39788  23.595  25.992  14.842
69908W        W39789  38.571  12.774  13.947
69909W        W39790  14.594  20.195   3.197
69910W        W39791  34.956  14.261   0.277
69911W        W39792  30.602  36.376  12.006
69912W        W39793  41.011  19.072  13.997
69913W        W39794  28.501  41.333  14.987
69914W        W39795  10.321  16.157   3.743
69915W        W39796  21.238  40.479  11.546
69916W        W39797  17.711  32.563   3.167
69917W        W39798  11.332  21.061   3.209
69918W        W39799  30.441  33.036   4.132
69919W        W39800  16.169  23.683  11.873
69920W        W39801  32.904  32.538  10.476
69921W        W39802  15.095  22.114   0.924
69922W        W39803  32.973  26.194  13.049
69923W        W39804   5.707  14.643  14.464
69924W        W39805  11.171  41.482  14.811
69925W        W39806  25.493   2.330   3.837
69926W        W39807  18.280  40.990   1.703
69927W        W39808  10.341  11.803   2.246
69928W        W39809   1.381  16.289   4.234
69929W        W39810  29.022  20.697  14.285
69930W        W39811  12.676  35.921   3.181
69931W        W39812  39.346  31.925   4.688
69932W        W39813  11.224  39.013  11.596
69933W        W39814  17.124  18.562   4.166
69934W        W39815  22.098  44.403  12.927
69935W        W39816  25.573   0.382  11.414
69936W        W39817  22.672  34.580   4.736
69937W        W39818  21.539  44.453  12.522
69938W        W39819   8.773  10.710  14.350
69939W        W39820  33.447  42.782   4.259
69940W        W39821   3.904   4.245  14.326
69941W        W39822   7.734  21.611   1.876
69942W        W39823   9.180  24.640   0.427
69943W        W39824  26.060  18.118   0.948
69944W        W39825   0.317  25.600   1.350
69945W        W39826   9.754  11.192   2.190
69946W        W39827  23.711   2.293   3.226
69947W        W39828  43.423  30.656  13.414
69948W        W39829  39.897  44.891   1.234
69949W        W39830  24.034   6.195  13.931
69950W        W39831  20.715   6.744  13.357
69951W        W39832  17.773  41.369  11.072
69952W        W39833  24.507  14.773  12.481
69953W        W39834  32.485   9.736   4.812
69954W        W39835  11.781  35.586   3.277
69955W        W39836   4.437  17.579   1.853
69956W        W39837   5.807  11.225  10.596
69957W        W39838  20.218   4.896   4.295
69958W        W39839  20.212  38.377   3.712
69959W        W39840  28.997  41.961   0.381
69960W        W39841  34.500  41.871  14.505
69961W        W39842   1.955  17.152   4.790
69962W        W39843  18.206  15.639   1.258
69963W        W39844  41.864  24.675  13.512
69964W        W39845  32.526  17.735   3.639
69965W        W39846   3.935  16.271   2.805
69966W        W39847   1.466  31.522   4.689
69967W        W39848  35.539   9.389   2.829
69968W        W39849  29.475  23.021   3.172
69969W        W39850  27.176  21.058   0.346
69970W        W39851  41.003   7.250  13.340
69971W        W39852   7.402  30.982   4.195
69972W        W39853  21.595   5.869   3.206
69973W        W39854   1.951  21.173   4.743
69974W        W39855  25.681  35.445  13.898
69975W        W39856  32.401  43.957  11.009
69976W        W39857  12.694  21.186   0.844
69977W        W39858  34.530  20.270   4.248
69978W        W39859   7.266  25.673   3.165
69979W        W39860  22.110  28.935   1.856
69980W        W39861  44.896  31.076   2.244
69981W        W39862  42.318   4.940   0.840
69982W        W39863  27.953  14.628  12.918
69983W        W39864  14.641  37.464  14.392
69984W        W39865  32.435  25.202   0.277
69985W        W39866  34.490  17.579   1.910
69986W        W39867  37.974  41.930   2.316
69987W        W39868  12.150  12.247   1.279
69988W        W39869  21.700  44.269  14.409
69989W        W39870  14.627  28.534  10.453
69990W        W39871  31.065  40.878  11.046
69991W        W39872  40.858  29.460  14.391
69992W        W39873  43.328  35.854   3.348
69993W        W39874   5.760  30.506  14.947
69994W        W39875  36.934  32.477  11.069
69995W        W39876  22.108  22.014   1.867
69996W        W39877  32.018  19.235  12.406
69997W        W39878  12.777  20.620   0.831
69998W        W39879  25.973  22.120   2.324
69999W        W39880  24.161  16.762   3.295
70000W        W39881  24.009  17.699   1.824
70001W        W39882   4.783  43.496   1.277
70002W        W39883  20.067  35.021  11.892
70003W        W39884  22.202  37.937  11.972
70004W        W39885  13.286  25.602   1.306
70005W        W39886  16.713  22.043   2.811
70006W        W39887  19.054  27.059  13.393
70007W        W39888  23.004  12.229   3.183
70008W        W39889  28.119  34.900  10.989
70009W        W39890  17.622  35.993  14.315
70010W        W39891  34.948  17.747   1.792
70011W        W39892   5.294  23.216  10.504
70012W        W39893  15.586  23.181   4.342
70013W        W39894  19.237   5.742  12.472
70014W        W39895  35.979  31.415  14.328
70015W        W39896  33.575   7.209   1.286
70016W        W39897  41.393  32.626   0.815
70017W        W39898  32.535  41.852   2.218
70018W        W39899  15.783  17.267   4.153
70019W        W39900  12.181  15.190   1.287
70020W        W39901   4.433  40.444  10.916
70021W        W39902   8.189  16.256   3.640
70022W        W39903  42.810  34.966  14.393
70023W        W39904  35.602  14.802  13.919
70024W        W39905  20.740   9.287  12.436
70025W        W39906  15.639  36.942  14.303
70026W        W39907  11.676  33.593   0.364
70027W        W39908   0.391   2.390  11.464
70028W        W39909  13.721  23.589  13.876
70029W        W39910  36.476   1.750   1.770
70030W        W39911  11.669   1.403   0.785
70031W        W39912   8.790  37.072   1.253
70032W        W39913  10.384   0.343  14.295
70033W        W39914  27.613  31.008   4.709
70034W        W39915  35.579   6.249  12.440
70035W        W39916  19.722  31.898  10.599
70036W        W39917   6.705  25.508  14.954
70037W        W39918  44.346  17.262   4.199
70038W        W39919  43.894  25.081   2.701
70039W        W39920  19.619  36.981   0.425
70040W        W39921  19.196  43.998   0.755
70041W        W39922   3.944  32.523   1.757
70042W        W39923  24.522  33.905  11.902
70043W        W39924  38.370  38.885  14.335
70044W        W39925  39.411  44.883  11.502
70045W        W39926  42.842  44.438   4.117
70046W        W39927   5.845  30.115  10.975
70047W        W39928  11.671  15.612   3.778
70048W        W39929  23.028  10.168   4.200
70049W        W39930  30.150  12.170   3.209
70050W        W39931  31.424  16.667  14.939
70051W        W39932   7.199  30.567  11.857
70052W        W39933  11.354  13.240  10.985
70053W        W39934  11.684   2.245   2.180
70054W        W39935  28.955  12.359   3.263
70055W        W39936   5.296  15.172  12.926
70056W        W39937  12.617  30.008  11.488
70057W        W39938   9.823  10.687   4.779
70058W        W39939  14.752  35.394   0.252
70059W        W39940   4.806  37.475  14.979
70060W        W39941  34.585   1.272  11.119
70061W        W39942   9.667   5.418  12.575
70062W        W39943  32.558  28.603   0.933
70063W        W39944  36.987   9.678   2.196
70064W        W39945   6.791  44.309  10.450
70065W        W39946  26.054   0.340  10.413
70066W        W39947  32.013  38.362  11.474
70067W        W39948   7.771  25.973  10.484
70068W        W39949   0.387   4.942  12.532
70069W        W39950  41.404  29.059   4.206
70070W        W39951  26.527  20.735   4.603
70071W        W39952  42.802  25.007  10.465
70072W        W39953  41.440  28.975  14.772
70073W        W39954  44.422  12.638  13.316
70074W        W39955  18.057  26.103   0.927
70075W        W39956  25.486  35.468   0.794
70076W        W39957  31.531  24.043   4.190
70077W        W39958  31.444  33.057  13.505
70078W        W39959  13.617  31.022  14.477
70079W        W39960  17.742  34.031  12.513
70080W        W39961  15.784  41.343  10.461
70081W        W39962  17.718  18.634  11.899
70082W        W39963  42.470  32.543  13.792
70083W        W39964   5.389   8.824   3.242
70084W        W39965  13.774  40.424   2.755
70085W        W39966  24.632  15.732  12.009
70086W        W39967  22.612  37.902   3.330
70087W        W39968   7.791  17.575   4.169
70088W        W39969  19.538   9.258  12.888
70089W        W39970  10.249  10.258  13.954
70090W        W39971   9.214  30.149   4.828
70091W        W39972  20.754  20.121  13.898
70092W        W39973  42.937  38.465  10.128
70093W        W39974  40.863  37.926  11.015
70094W        W39975   2.938  35.437  13.815
70095W        W39976   1.834   0.913  11.501
70096W        W39977  29.095   0.288   1.391
70097W        W39978   9.881  16.595   4.279
70098W        W39979  43.507  11.650  13.333
70099W        W39980   6.287  15.325   2.772
70100W        W39981   7.714   2.747   1.826
70101W        W39982   1.424  31.645  14.916
70102W        W39983  32.037  44.331   4.343
70103W        W39984  26.107  10.232  11.582
70104W        W39985  28.541  39.482  11.431
70105W        W39986  28.517  39.974   3.765
70106W        W39987  33.072  31.121  10.912
70107W        W39988  25.492   8.330   1.903
70108W        W39989  35.040   5.402   2.860
70109W        W39990   3.922  28.018  13.520
70110W        W39991  26.700  31.594   2.339
70111W        W39992  19.154  10.325  12.047
70112W        W39993  40.408  19.130  12.576
70113W        W39994  10.167   4.325  12.410
70114W        W39995  35.985  12.720  12.928
70115W        W39996  39.434   3.216  10.609
70116W        W39997  12.150   0.949   2.286
70117W        W39998  20.162   8.403  14.819
70118W        W39999  29.610  31.576  11.030
70119W        W40000  41.419  24.200   5.227
70120W        W40001  11.645  24.721  14.918
70121W        W40002  10.185  16.777  10.408
70122W        W40003  36.943  33.119  14.358
70123W        W40004  23.589   5.778   1.792
70124W        W40005  11.169  43.445   0.362
70125W        W40006  36.914  13.292   1.417
70126W        W40007   9.748  39.376   2.399
70127W        W40008  30.413   2.331   0.750
70128W        W40009  35.590  31.104  12.958
70129W        W40010  42.946   9.232  12.033
70130W        W40011   7.207  13.231  10.513
70131W        W40012  17.243  16.203   0.854
70132W        W40013  28.121  30.019   3.237
70133W        W40014  16.792  12.334  12.011
70134W        W40015  37.967  14.818  12.527
70135W        W40016  15.739  29.645   5.138
70136W        W40017  44.865   1.879   3.768
70137W        W40018  23.572  41.367  14.800
70138W        W40019  20.687   6.856   3.383
70139W        W40020  24.518  31.485   2.408
70140W        W40021  32.063   3.320  14.896
70141W        W40022  40.882  29.669  11.005
70142W        W40023   2.431   8.830  12.858
70143W        W40024   1.330  27.110   4.787
70144W        W40025  26.169  31.943   0.351
70145W        W40026   8.372  16.737  14.365
70146W        W40027   5.431  33.492   2.720
70147W        W40028  10.356  19.537  14.299
70148W        W40029  31.099  24.047  11.418
70149W        W40030  33.530  39.421  12.423
70150W        W40031  41.462  39.915  14.784
70151W        W40032  28.529  15.807  12.028
70152W        W40033  35.863  18.631  14.451
70153W        W40034  10.794  38.523   3.338
70154W        W40035  13.707  29.035   2.712
70155W        W40036  37.411  36.842   0.925
70156W        W40037  42.831   5.838   1.871
70157W        W40038   7.861  35.453   0.849
70158W        W40039  33.487   2.269   0.933
70159W        W40040  13.155  12.616   4.121
70160W        W40041  24.202  23.089  11.003
70161W        W40042  18.249  21.602   4.762
70162W        W40043  27.656  22.538  13.802
70163W        W40044  42.017  25.078   4.141
70164W        W40045   4.875  20.565  13.807
70165W        W40046  19.138  39.542   3.355
70166W        W40047  36.531  23.036  12.349
70167W        W40048  33.626  39.063  12.472
70168W        W40049  41.390  42.300  11.058
70169W        W40050  11.803   2.282   2.824
70170W        W40051   9.280  16.689  13.056
70171W        W40052   5.757  33.986  13.406
70172W        W40053  11.722   6.323   0.963
70173W        W40054  25.470  39.886   4.245
70174W        W40055  34.930  43.812   3.826
70175W        W40056   0.247   8.175  10.552
70176W        W40057  40.402  22.744  10.432
70177W        W40058  13.611   1.872   2.667
70178W        W40059  39.832   4.816  11.395
70179W        W40060  26.493  44.428  13.010
70180W        W40061   0.414  18.130  12.979
70181W        W40062   0.792  12.150  10.470
70182W        W40063  15.690  16.263   0.259
70183W        W40064  39.851   7.909  13.852
70184W        W40065   0.910  11.668  10.079
70185W        W40066  44.289  27.102  14.470
70186W        W40067  10.371  44.008   4.636
70187W        W40068   6.884  23.181  13.367
70188W        W40069  32.458  18.580   1.257
70189W        W40070  13.303  25.205   5.202
70190W        W40071  32.608  34.437  14.390
70191W        W40072   2.460   3.738  12.954
70192W        W40073  21.527  24.115   3.204
70193W        W40074   0.888  28.107  10.993
70194W        W40075   8.662   1.966   3.230
70195W        W40076  44.415   4.766  10.139
70196W        W40077  42.491  32.391  13.493
70197W        W40078  29.056  12.219  11.493
70198W        W40079  27.477  35.596  13.001
70199W        W40080  38.007  17.069  13.440
70200W        W40081  35.433  11.322   1.246
70201W        W40082  39.048  37.395   1.232
70202W        W40083  44.771  23.123  11.472
70203W        W40084   9.197  16.753   3.645
70204W        W40085   5.760  12.701   2.865
70205W        W40086  23.526  10.230   4.654
70206W        W40087  24.608  41.037  13.799
70207W        W40088  36.996  27.148   1.795
70208W        W40089  42.864  43.815  10.989
70209W        W40090  17.793   8.862   3.248
70210W        W40091  26.016   8.174   4.196
70211W        W40092  43.926  15.225   4.630
70212W        W40093  15.122  30.470   3.355
70213W        W40094  33.412   4.734  14.850
70214W        W40095  21.171   0.442   0.461
70215W        W40096  25.989   1.761   0.960
70216W        W40097  25.473   0.982  10.159
70217W        W40098   1.483  16.797   3.363
70218W        W40099  25.100  39.941  11.011
70219W        W40100  34.465  33.518   2.311
70220W        W40101   4.739   7.880  12.430
70221W        W40102   9.781  25.173  10.644
70222W        W40103  42.468  20.038   0.871
70223W        W40104  23.053  39.342   0.797
70224W        W40105   2.255  26.166   4.817
70225W        W40106  16.221  35.916   3.254
70226W        W40107  40.029   8.812  11.452
70227W        W40108   5.371   7.271  12.951
70228W        W40109  30.059  16.232   4.800
70229W        W40110  24.570   3.356   2.836
70230W        W40111  13.265  20.533  12.901
70231W        W40112  13.779   6.699   3.665
70232W        W40113   5.827  30.926   0.446
70233W        W40114   2.913  15.184  11.464
70234W        W40115  40.018  40.544  11.100
70235W        W40116  11.160   6.209  14.337
70236W        W40117   2.878   1.930  14.389
70237W        W40118  44.860   5.434  11.498
70238W        W40119  16.257  33.441  11.587
70239W        W40120   0.899  21.527  12.345
70240W        W40121  26.010  34.583   0.944
70241W        W40122  34.028   2.863   0.920
70242W        W40123   4.325  16.675   1.444
70243W        W40124  30.626  35.524   3.210
70244W        W40125  23.231  20.145   4.334
70245W        W40126  12.755  40.329  14.927
70246W        W40127  18.753   1.923   2.894
70247W        W40128  29.550  21.108   1.341
70248W        W40129  21.579  16.614   3.298
70249W        W40130  43.377  37.053  14.512
70250W        W40131   9.749  44.819   1.216
70251W        W40132  23.626  33.533  10.962
70252W        W40133  43.839  24.695  12.409
70253W        W40134  29.990   0.363   1.225
70254W        W40135  20.699   8.160   0.359
70255W        W40136   1.316  41.494  13.415
70256W        W40137  40.399   2.739  14.354
70257W        W40138  24.523  29.594  11.951
70258W        W40139  12.184  12.137  14.870
70259W        W40140  20.132  20.569   4.212
70260W        W40141  25.048   3.899  13.007
70261W        W40142  40.501  39.957   4.735
70262W        W40143  27.499  26.208   0.921
70263W        W40144  22.123   8.714  10.550
70264W        W40145  38.866  40.053   3.774
70265W        W40146  19.715  29.484   1.252
70266W        W40147   6.392  29.488  11.998
70267W        W40148   6.336  24.588   4.659
70268W        W40149  33.453  29.977  11.573
70269W        W40150  34.071  21.163   3.246
70270W        W40151  39.560  22.179  11.891
70271W        W40152  38.939  28.979   0.819
70272W        W40153   2.458  16.641   2.667
70273W        W40154  34.604   4.331   1.434
70274W        W40155   5.908  33.031  11.926
70275W        W40156  20.158  24.126  11.959
70276W        W40157   4.392  37.351   4.246
70277W        W40158   1.243   2.795  11.127
70278W        W40159  39.945   6.312   3.253
70279W        W40160  30.115  36.957   2.241
70280W        W40161  15.277   5.226  10.996
70281W        W40162  39.024  23.594   4.711
70282W        W40163  17.215  38.505   0.898
70283W        W40164   2.863  19.058   1.804
70284W        W40165  24.673  14.632  14.877
70285W        W40166  19.204   1.859   1.885
70286W        W40167  32.578   3.231  14.431
70287W        W40168  42.321  33.598   0.801
70288W        W40169  32.609  14.807   3.851
70289W        W40170  35.528  20.135   0.738
70290W        W40171  32.529  36.561  12.429
70291W        W40172  24.704  41.435  10.622
70292W        W40173  42.376  18.641  13.028
70293W        W40174  29.630  35.859   0.927
70294W        W40175  10.186  40.422   0.915
70295W        W40176  33.091   3.283   4.719
70296W        W40177  23.585  11.737   4.345
70297W        W40178   2.803  18.173  13.021
70298W        W40179   7.176  41.385  14.006
70299W        W40180   4.254   1.764   4.800
70300W        W40181  19.724   1.420   0.455
70301W        W40182  28.477  42.306   2.282
70302W        W40183  26.984  17.221  12.534
70303W        W40184  42.449  42.841   2.781
70304W        W40185   6.197  21.229   2.823
70305W        W40186  33.972   6.890   0.322
70306W        W40187  20.598   9.211   1.778
70307W        W40188  44.385  23.711  14.027
70308W        W40189  21.169  20.081   1.888
70309W        W40190  11.239  29.594  11.050
70310W        W40191  29.952   9.751   4.808
70311W        W40192  34.379   4.860  14.000
70312W        W40193  25.616  26.610   3.750
70313W        W40194  38.064  22.047  12.029
70314W        W40195  15.147  42.935  10.644
70315W        W40196   6.806  25.996  14.849
70316W        W40197  44.838  43.945   4.835
70317W        W40198   8.722  12.220  14.439
70318W        W40199   9.180  15.640   0.336
70319W        W40200  20.629  19.671  12.537
70320W        W40201   4.357   7.182   3.358
70321W        W40202  44.786   8.758   4.651
70322W        W40203  27.010   8.300  11.884
70323W        W40204  17.234  32.492   0.841
70324W        W40205  42.981  21.224  13.514
70325W        W40206   5.846  32.538  12.916
70326W        W40207   6.221  13.323   4.806
70327W        W40208  34.079   4.274   2.865
70328W        W40209  14.610  44.343   3.220
70329W        W40210  18.620  13.695  11.984
70330W        W40211   9.324   5.314  10.897
70331W        W40212   8.714   1.341   0.400
70332W        W40213  37.345  12.268  10.914
70333W        W40214  23.133  35.105  13.837
70334W        W40215   4.856   4.300   2.289
70335W        W40216   8.683  42.947   4.755
70336W        W40217  27.549  33.527  11.505
70337W        W40218  20.093  13.801   3.806
70338W        W40219   6.198  25.152   3.259
70339W        W40220  34.093  35.433  14.338
70340W        W40221   4.229  37.890  10.590
70341W        W40222   7.190  25.026  12.498
70342W        W40223  42.019  38.845  10.891
70343W        W40224  27.530  13.297   4.650
70344W        W40225  27.585  39.479   3.703
70345W        W40226  17.229  22.547  14.357
70346W        W40227  18.597  30.922  11.023
70347W        W40228  41.970  16.728  10.525
70348W        W40229  17.206  40.460   1.867
70349W        W40230  31.123   0.790  10.423
70350W        W40231   9.681   5.385  11.584
70351W        W40232  37.450  40.457   1.240
70352W        W40233  29.657   8.716  12.943
70353W        W40234  28.660   8.178   1.408
70354W        W40235  44.422  30.434   0.454
70355W        W40236   5.780  17.738   0.377
70356W        W40237  13.672  30.556  12.452
70357W        W40238  20.092  14.750   0.910
70358W        W40239  30.438   0.879  14.004
70359W        W40240   1.975  19.238  11.442
70360W        W40241  44.847  19.236   2.298
70361W        W40242  30.534  16.653   4.158
70362W        W40243   6.306  16.236   0.834
70363W        W40244  12.756  40.852   3.323
70364W        W40245  18.220  41.396  14.926
70365W        W40246  13.135   0.818  13.442
70366W        W40247  26.645  28.113   3.159
70367W        W40248  25.004  30.016   3.671
70368W        W40249  18.203  37.574   0.772
70369W        W40250  23.526  20.059  13.845
70370W        W40251  30.497  25.546   0.832
70371W        W40252   1.272   4.929  11.419
70372W        W40253   9.764  39.943   3.774
70373W        W40254  12.727  34.490  12.013
70374W        W40255  43.787  37.041   0.730
70375W        W40256  24.711  25.193  12.538
70376W        W40257  15.228  39.430   5.587
70377W        W40258  17.180  33.950  11.030
70378W        W40259  33.970  40.489   4.244
70379W        W40260  39.008  34.073   4.300
70380W        W40261   8.296  38.548   2.770
70381W        W40262  21.019  44.263   3.629
70382W        W40263   0.474  16.633   1.897
70383W        W40264  19.557   4.825  12.950
70384W        W40265  19.762  20.709  10.491
70385W        W40266  19.245  19.569  10.591
70386W        W40267  12.805  37.427  13.403
70387W        W40268   3.796   4.835   2.889
70388W        W40269  10.869  29.542   0.303
70389W        W40270  35.970  16.667  11.485
70390W        W40271  22.698   1.281  11.545
70391W        W40272  35.865  33.124  13.479
70392W        W40273  29.977  10.201   1.829
70393W        W40274  27.486  33.008  13.007
70394W        W40275  19.584   7.908  10.891
70395W        W40276  34.048  13.249  14.032
70396W        W40277  36.492  15.142  13.427
70397W        W40278   6.696  23.134   2.822
70398W        W40279  31.403  37.874  13.352
70399W        W40280  41.376  12.175  14.926
70400W        W40281  44.340  17.697  10.515
70401W        W40282  26.969   0.877   0.286
70402W        W40283  16.640  39.833   4.778
70403W        W40284  18.730   8.169   3.660
70404W        W40285  37.533  11.669   2.861
70405W        W40286  30.082  28.502   4.816
70406W        W40287   2.749  31.497  12.824
70407W        W40288  43.768   3.900  13.522
70408W        W40289  29.142  37.006   1.741
70409W        W40290  40.474   1.838  12.045
70410W        W40291  39.373  37.031   0.245
70411W        W40292  41.394  12.740   2.312
70412W        W40293  29.122  44.977   4.760
70413W        W40294  24.150  36.067  12.939
70414W        W40295  24.188  38.024  11.427
70415W        W40296   5.406  33.457  11.898
70416W        W40297  40.335  11.222   0.422
70417W        W40298  37.010  19.197  13.501
70418W        W40299  18.110   0.317   0.429
70419W        W40300  28.578  25.593   0.281
70420W        W40301   2.761  10.731  10.476
70421W        W40302  18.770  26.047  13.037
70422W        W40303  34.548  41.820   2.779
70423W        W40304   6.206  19.108   0.476
70424W        W40305  39.544  39.856  11.420
70425W        W40306  40.011  19.158  13.841
70426W        W40307   9.253  35.399   3.657
70427W        W40308  19.275  24.492  10.965
70428W        W40309  36.428   9.374   4.254
70429W        W40310  40.461  17.155   2.291
70430W        W40311  38.970  16.658  13.006
70431W        W40312  12.295  18.278   0.924
70432W        W40313  29.116  34.374  11.414
70433W        W40314  22.168  39.879  12.911
70434W        W40315  30.545   9.840  10.520
70435W        W40316  33.067  34.432   1.917
70436W        W40317  11.175  13.121   4.837
70437W        W40318  22.609   1.810  12.991
70438W        W40319  22.213  22.204  14.972
70439W        W40320  31.073  37.998   4.128
70440W        W40321  15.118  19.170  10.921
70441W        W40322  38.358  32.466   2.244
70442W        W40323  23.136  21.529  14.963
70443W        W40324  14.796  11.351   2.674
70444W        W40325  36.862  15.138  12.093
70445W        W40326  11.740  35.879   2.848
70446W        W40327   5.236  34.596  13.376
70447W        W40328  43.825  22.507  13.351
70448W        W40329  24.531  39.530   4.692
70449W        W40330  26.161  16.803  11.499
70450W        W40331  29.086  42.024   1.889
70451W        W40332  37.462   3.854   4.610
70452W        W40333  17.079  28.050   3.806
70453W        W40334   0.787  36.969  13.993
70454W        W40335  33.016  25.045  10.463
70455W        W40336  41.914  40.047  10.454
70456W        W40337  27.141  19.639   3.221
70457W        W40338  15.649  35.861   0.727
70458W        W40339  34.946  11.205   3.793
70459W        W40340  18.243  42.820  14.379
70460W        W40341  12.277  39.446   2.308
70461W        W40342  40.000  20.169  10.920
70462W        W40343  19.092  20.119  14.288
70463W        W40344  14.261  36.849   5.603
70464W        W40345   9.209  40.306  10.529
70465W        W40346  16.313  44.864   1.868
70466W        W40347  31.972  27.172   1.419
70467W        W40348   9.731  21.225   1.234
70468W        W40349  25.682   7.910   0.766
70469W        W40350  44.964  24.089   1.742
70470W        W40351  42.873  15.240  12.054
70471W        W40352  34.000   1.904   4.218
70472W        W40353  34.098  10.222  12.096
70473W        W40354  20.667  12.358  13.062
70474W        W40355   4.714  21.166   1.843
70475W        W40356  25.095  37.085   2.387
70476W        W40357  33.391  27.073   3.672
70477W        W40358  11.176  12.346  12.043
70478W        W40359   3.417   5.386  11.606
70479W        W40360   8.807  30.551  11.445
70480W        W40361  29.161  16.610  13.016
70481W        W40362  43.929  27.669  12.874
70482W        W40363  28.512  44.922   2.694
70483W        W40364  28.993  12.243   0.406
70484W        W40365  34.429  10.849  10.986
70485W        W40366   9.755   1.445   4.285
70486W        W40367  26.967   6.228   0.397
70487W        W40368  13.695  18.232  13.527
70488W        W40369  16.658  36.500   3.168
70489W        W40370  43.022   8.825  14.427
70490W        W40371  40.474  17.632  14.931
70491W        W40372  28.568  36.451  12.368
70492W        W40373  42.328  43.341  13.527
70493W        W40374  32.971  31.580   0.960
70494W        W40375  40.987  12.823   0.272
70495W        W40376  36.947  28.068   1.218
70496W        W40377  21.099   3.888  12.561
70497W        W40378  24.179  34.945   1.283
70498W        W40379  34.440  24.583   1.904
70499W        W40380   3.243  30.477   4.653
70500W        W40381   5.913  17.066   3.221
70501W        W40382  27.943  36.962  14.839
70502W        W40383  24.075   3.806   0.922
70503W        W40384  29.986  23.211  14.873
70504W        W40385   2.810  14.159  10.616
70505W        W40386  40.951  10.874   4.291
70506W        W40387  34.945  25.137  13.926
70507W        W40388  12.151  43.415  12.922
70508W        W40389   7.223  41.498   2.731
70509W        W40390  18.667  25.185   3.682
70510W        W40391  33.481  16.650   2.704
70511W        W40392  18.206  44.757  11.390
70512W        W40393  34.021  21.025  14.385
70513W        W40394   3.353  39.451  12.923
70514W        W40395   6.365   4.858  11.067
70515W        W40396  14.809  28.947  10.538
70516W        W40397  42.398  20.639  13.308
70517W        W40398  43.363   4.415   2.890
70518W        W40399  39.418  44.435   4.676
70519W        W40400   9.886  19.657  12.463
70520W        W40401   8.874  42.395   2.258
70521W        W40402  24.482  31.151   1.277
70522W        W40403   1.455  36.454   1.355
70523W        W40404  33.598  26.587   3.837
70524W        W40405   7.785  41.436   3.211
70525W        W40406  17.113  44.450   3.245
70526W        W40407  26.522  28.090  10.976
70527W        W40408   7.218  41.348   2.275
70528W        W40409  29.938  25.013  12.502
70529W        W40410  33.121  39.847   4.136
70530W        W40411  29.634   3.273   2.242
70531W        W40412   3.935  34.391  14.387
70532W        W40413   6.241  42.947  10.009
70533W        W40414  39.967  18.086   4.616
70534W        W40415  42.293  13.214  14.804
70535W        W40416  42.967  40.527  14.005
70536W        W40417   9.387   4.362  14.327
70537W        W40418  38.467  18.219   2.301
70538W        W40419  14.755  38.032  10.482
70539W        W40420  41.522  23.043  14.902
70540W        W40421  12.813  41.520   0.919
70541W        W40422  21.629  31.442   2.836
70542W        W40423  32.490  12.334  10.457
70543W        W40424   7.791  32.552  13.535
70544W        W40425  40.037  14.150   3.835
70545W        W40426  12.227  11.329   1.816
70546W        W40427  28.159  25.116   0.343
70547W        W40428  33.937  34.511   0.377
70548W        W40429  39.529  32.923   1.755
70549W        W40430  30.063  30.104   4.123
70550W        W40431  44.982  14.291  10.431
70551W        W40432  23.622   0.400  13.530
70552W        W40433  30.990  19.634  12.469
70553W        W40434  33.503   5.318  10.159
70554W        W40435  11.258  23.019   1.738
70555W        W40436   4.760  12.630   4.824
70556W        W40437   7.191  12.835  10.492
70557W        W40438  26.013  14.702   0.839
70558W        W40439   8.740  23.527  13.063
70559W        W40440  24.217  21.203  11.958
70560W        W40441   4.446  43.847   2.409
70561W        W40442   8.253   7.180  11.505
70562W        W40443   0.973  31.921  12.968
70563W        W40444   2.836  11.653  14.860
70564W        W40445  42.426   8.722   3.323
70565W        W40446   5.236  40.391   2.672
70566W        W40447   2.232  18.233   3.648
70567W        W40448  39.885  38.824  13.377
70568W        W40449   2.818  40.381  14.914
70569W        W40450  37.038  16.294  12.040
70570W        W40451   4.411  23.690  11.111
70571W        W40452  14.314   6.886  11.497
70572W        W40453  34.546  20.676  10.557
70573W        W40454  21.168   1.778  13.020
70574W        W40455  24.499  36.039  13.464
70575W        W40456  20.272  18.090   5.082
70576W        W40457  14.211   9.263  11.050
70577W        W40458  39.020  40.815  12.834
70578W        W40459  41.792  20.706  12.963
70579W        W40460  44.464  14.151  10.026
70580W        W40461   1.756  27.485   1.403
70581W        W40462   9.316  32.507  12.966
70582W        W40463  13.813  34.875   1.790
70583W        W40464  38.501  28.476  12.985
70584W        W40465  15.636   7.372   9.999
70585W        W40466   6.834  30.455  13.454
70586W        W40467  24.717  24.191  10.505
70587W        W40468   9.201  17.116   2.396
70588W        W40469  17.592  32.091   0.956
70589W        W40470  22.191   6.373  11.066
70590W        W40471   8.685  14.183   3.862
70591W        W40472  34.555   2.251  12.580
70592W        W40473  27.524  19.691  12.409
70593W        W40474  15.293   7.317   0.257
70594W        W40475   4.242  37.000   3.830
70595W        W40476  39.852  25.700   3.696
70596W        W40477  23.112  33.618  10.422
70597W        W40478  18.202  35.937   1.867
70598W        W40479  12.649  41.805   0.862
70599W        W40480  22.512   9.844  13.995
70600W        W40481  26.126   7.333   0.791
70601W        W40482  33.052  12.810  11.460
70602W        W40483  39.447  44.271   3.856
70603W        W40484  32.484   5.432   1.273
70604W        W40485  41.043  30.987   2.704
70605W        W40486  42.909  24.138   1.731
70606W        W40487   8.791  31.090  14.815
70607W        W40488  26.598  19.160   1.288
70608W        W40489  30.474  12.125  13.848
70609W        W40490  14.265  24.596  13.310
70610W        W40491  26.495  15.779  11.963
70611W        W40492  26.672   4.297  10.911
70612W        W40493  34.110  40.927  12.921
70613W        W40494  27.002  32.409  11.586
70614W        W40495  24.525   6.789   1.320
70615W        W40496  16.238  37.862   2.321
70616W        W40497  22.730  12.663  13.861
70617W        W40498   2.335  26.700   4.809
70618W        W40499  37.969  27.590   4.257
70619W        W40500  38.959  25.644  11.589
70620W        W40501  12.737  24.526   3.303
70621W        W40502  15.589   6.716  13.814
70622W        W40503  33.035  45.000   1.908
70623W        W40504  22.690  19.143  12.392
70624W        W40505  12.164   5.348  14.765
70625W        W40506  34.877  23.112  13.522
70626W        W40507   0.901  20.262   4.739
70627W        W40508  28.586  12.831   2.232
70628W        W40509   5.326  38.859  13.377
70629W        W40510  20.210  29.113   2.373
70630W        W40511  29.093  38.862   3.847
70631W        W40512   1.475  24.050   3.148
70632W        W40513  25.590  22.558  10.460
70633W        W40514  41.792  32.444   2.801
70634W        W40515   1.977  31.613  14.357
70635W        W40516  12.236  32.013   0.269
70636W        W40517  11.153  27.169  11.533
70637W        W40518  34.883  11.707   3.177
70638W        W40519   7.769   3.436  12.953
70639W        W40520   7.364  14.141   2.847
70640W        W40521  11.649   8.724  13.889
70641W        W40522   1.465  16.688   4.753
70642W        W40523  27.065   9.386  11.056
70643W        W40524  30.516  32.063   4.352
70644W        W40525  10.741  23.080  11.965
70645W        W40526  23.034   2.913  10.944
70646W        W40527  10.328   8.397   4.315
70647W        W40528  24.040  12.687   3.292
70648W        W40529  24.535  36.396   3.370
70649W        W40530  38.057  35.486   4.354
70650W        W40531  27.116  37.007  12.083
70651W        W40532  44.399  12.308   3.163
70652W        W40533   7.911   6.427   3.198
70653W        W40534  44.814  39.954  13.368
70654W        W40535  40.494  11.229  14.426
70655W        W40536   6.294   3.854   1.332
70656W        W40537  25.703   9.293  10.645
70657W        W40538  30.424   0.881  11.001
70658W        W40539  33.437  25.551  12.373
70659W        W40540  35.941  41.365   1.245
70660W        W40541  39.834  17.153  10.607
70661W        W40542  11.684  26.565  12.859
70662W        W40543  31.486  31.955  12.044
70663W        W40544  18.552   0.769   4.828
70664W        W40545  22.128  14.695   2.900
70665W        W40546   6.348  40.500  12.395
70666W        W40547  37.549  42.322   4.341
70667W        W40548  43.372   5.842   2.335
70668W        W40549   3.795   6.788   3.354
70669W        W40550   2.776  10.777   0.914
70670W        W40551  23.184  16.289   4.702
70671W        W40552  17.634   1.260   4.806
70672W        W40553  42.427   1.842  10.630
70673W        W40554   7.217   7.332   4.793
70674W        W40555  26.580  17.767   2.762
70675W        W40556  25.005   0.285  14.792
70676W        W40557  28.520   1.445  11.461
70677W        W40558  31.425  16.244  13.394
70678W        W40559   7.308  23.489   3.217
70679W        W40560   4.744  42.370   4.159
70680W        W40561  31.536  39.517   1.227
70681W        W40562  15.319  36.892   0.894
70682W        W40563  21.168  29.453  13.469
70683W        W40564  12.742  10.151   1.816
70684W        W40565  16.618  27.689  12.912
70685W        W40566  21.158   7.300  13.383
70686W        W40567  23.550  19.056  14.372
70687W        W40568  10.825  14.708   0.758
70688W        W40569   1.791  39.959   4.749
70689W        W40570  11.864  43.383   4.277
70690W        W40571  32.617  20.685  11.523
70691W        W40572  14.142  29.603  11.867
70692W        W40573   8.679  44.884   0.745
70693W        W40574  23.623   5.272   1.255
70694W        W40575  31.049  22.682   3.223
70695W        W40576  38.340  15.755  14.905
70696W        W40577  39.887   4.931  12.434
70697W        W40578  36.435  13.685  12.921
70698W        W40579   8.358  15.170   3.322
70699W        W40580   2.396  32.581  12.552
70700W        W40581   4.766   0.318   2.301
70701W        W40582  23.681   1.247   2.901
70702W        W40583  10.234  25.587   3.328
70703W        W40584  11.218  19.099  14.827
70704W        W40585  27.185   8.678   3.368
70705W        W40586  36.868  37.392  12.992
70706W        W40587  42.398   9.718   2.206
70707W        W40588  29.946  21.096  12.876
70708W        W40589  18.149   7.776   0.273
70709W        W40590  10.820  33.442  11.099
70710W        W40591  43.840   6.229  14.970
70711W        W40592  25.476  42.399   2.316
70712W        W40593  22.118  27.128   0.850
70713W        W40594  40.480  18.168   1.353
70714W        W40595  23.549  21.526   4.690
70715W        W40596  32.973  30.070   1.849
70716W        W40597   4.338  35.944  13.381
70717W        W40598  43.491   6.857   0.755
70718W        W40599  29.000   5.719  13.482
70719W        W40600  32.394  38.845   0.454
70720W        W40601  22.561  38.854   3.333
70721W        W40602  11.157  37.914   2.794
70722W        W40603  44.976  20.609  11.562
70723W        W40604  37.930  35.976   3.252
70724W        W40605  11.715  23.203   1.889
70725W        W40606  18.591  39.939   3.244
70726W        W40607  20.553  29.649   3.759
70727W        W40608  33.426   2.325   1.776
70728W        W40609   5.222  41.861   1.792
70729W        W40610  44.454  40.304   4.297
70730W        W40611  31.944  14.669  10.573
70731W        W40612  14.623   4.291   1.248
70732W        W40613  11.863  10.274   2.755
70733W        W40614  24.564  41.926  13.418
70734W        W40615   4.904  38.528   4.241
70735W        W40616  12.701  23.028  11.595
70736W        W40617  37.991  19.113  12.422
70737W        W40618  44.490   4.926   3.195
70738W        W40619  31.943  15.203  11.501
70739W        W40620  36.859  13.278   2.852
70740W        W40621   3.421  23.104   4.160
70741W        W40622  21.518  44.315  11.530
70742W        W40623  41.822  42.815   5.163
70743W        W40624  24.079  29.475   4.666
70744W        W40625  11.632  27.030   3.154
70745W        W40626  24.052  10.795  13.402
70746W        W40627   3.778   9.791   1.715
70747W        W40628  34.514  39.418  14.964
70748W        W40629  29.985  36.410  11.451
70749W        W40630  18.757   2.446  12.943
70750W        W40631  23.638   0.469  12.909
70751W        W40632  31.613  27.448   0.345
70752W        W40633  15.626   8.702  11.872
70753W        W40634  21.752   0.920  14.851
70754W        W40635  20.696   5.248  11.885
70755W        W40636   2.245  20.663  13.864
70756W        W40637  41.839  28.606   3.253
70757W        W40638  39.990  27.186  14.828
70758W        W40639  41.385  11.301  13.542
70759W        W40640  30.157  18.263  14.470
70760W        W40641  35.516  13.740  11.374
70761W        W40642   5.706  15.325   1.354
70762W        W40643   1.330  23.521  10.989
70763W        W40644  12.181  35.963   2.337
70764W        W40645   6.781  12.229  13.502
70765W        W40646  19.707  31.425  10.641
70766W        W40647  32.484  42.391   3.361
70767W        W40648  19.210   6.888   0.923
70768W        W40649  39.935  43.289  11.469
70769W        W40650  12.137  19.543   2.731
70770W        W40651   4.251  21.555  13.320
70771W        W40652  35.557   6.301  14.512
70772W        W40653  15.111  36.042   3.857
70773W        W40654  11.202  12.302  10.944
70774W        W40655  15.297  39.391   0.729
70775W        W40656  32.532  40.995  14.825
70776W        W40657  10.329  27.112  12.495
70777W        W40658  39.422  37.023  11.412
70778W        W40659   9.291  19.060   1.848
70779W        W40660  33.610  40.317   3.786
70780W        W40661  35.893  17.133   1.777
70781W        W40662  30.425   4.836   3.258
70782W        W40663  40.399   6.360   3.812
70783W        W40664  10.222   5.832  13.485
70784W        W40665  33.034  41.344  13.421
70785W        W40666  10.194  32.025  14.983
70786W        W40667   3.393  39.936  13.503
70787W        W40668  37.342  30.921   0.310
70788W        W40669  38.424  44.878   0.295
70789W        W40670  21.649  36.082  12.846
70790W        W40671  10.648  24.621  11.901
70791W        W40672  38.331  32.143  10.051
70792W        W40673  10.643   7.772  10.612
70793W        W40674  25.020  29.433  14.483
70794W        W40675  15.601  40.304   0.242
70795W        W40676   8.796  29.110   3.180
70796W        W40677  39.027  17.130  12.399
70797W        W40678  19.650  21.131  13.792
70798W        W40679   0.349  34.412  14.383
70799W        W40680  20.194  32.093   4.352
70800W        W40681  34.592   4.722   2.855
70801W        W40682   9.785  17.601  12.981
70802W        W40683  43.437   4.727  11.417
70803W        W40684   5.260  33.067  14.365
70804W        W40685  40.990  44.353   4.323
70805W        W40686  19.598  42.806  13.473
70806W        W40687  37.953  21.204  14.328
70807W        W40688   7.751   6.201  12.994
70808W        W40689  13.752  28.077  12.036
70809W        W40690  29.165   2.260   2.789
70810W        W40691  24.533  12.654   2.680
70811W        W40692  40.518  35.589   3.315
70812W        W40693  20.259  44.298   1.713
70813W        W40694  38.525  20.606  12.444
70814W        W40695  38.416   3.436  11.447
70815W        W40696  44.830  41.948  14.905
70816W        W40697   0.452  38.437   2.871
70817W        W40698  37.870   9.189  14.278
70818W        W40699  43.428  23.037   2.901
70819W        W40700  35.545  37.929   1.747
70820W        W40701  16.692  22.535  14.364
70821W        W40702  44.451  36.526  12.540
70822W        W40703  11.801  30.129   2.223
70823W        W40704  28.496  22.565   0.914
70824W        W40705  22.101  10.775  10.963
70825W        W40706  32.617  23.073   3.743
70826W        W40707  15.199   0.265  10.457
70827W        W40708  15.614  15.238  12.907
70828W        W40709  23.998  22.569  12.987
70829W        W40710   0.975  28.956   5.114
70830W        W40711   8.769   1.303  11.531
70831W        W40712  23.216  25.171   0.928
70832W        W40713   6.776  10.832   2.729
70833W        W40714   5.782  11.280   1.715
70834W        W40715  36.047  35.891   2.325
70835W        W40716  30.105  22.613  11.529
70836W        W40717  11.297   1.897   2.806
70837W        W40718   1.791  44.801   2.674
70838W        W40719   4.419  13.764   4.837
70839W        W40720  24.657  24.673   0.265
70840W        W40721  39.509   7.768   4.344
70841W        W40722  42.810  44.500  12.017
70842W        W40723  43.013  35.034  13.877
70843W        W40724  15.283  25.712   2.670
70844W        W40725  10.256  34.591   3.151
70845W        W40726  18.545  35.361   4.622
70846W        W40727  34.055  38.486  14.005
70847W        W40728  42.820  10.828  11.975
70848W        W40729  29.173  20.144   2.890
70849W        W40730  23.039  36.056  11.551
70850W        W40731  42.790  34.992  11.019
70851W        W40732  43.475  33.999  12.877
70852W        W40733  38.354  30.626  12.843
70853W        W40734  24.626  43.803  14.437
70854W        W40735   1.288  10.384   3.756
70855W        W40736  30.075  18.638  12.956
70856W        W40737   7.249  28.052  12.564
70857W        W40738  17.706  28.007  14.005
70858W        W40739  36.991  18.052  11.944
70859W        W40740   5.908  43.485  12.569
70860W        W40741  43.805  40.867   2.354
70861W        W40742  21.750  26.461   1.451
70862W        W40743  20.670  28.175   1.413
70863W        W40744   0.842  16.712  12.039
70864W        W40745  27.563  29.952  10.544
70865W        W40746  29.956  29.135  12.013
70866W        W40747   8.207  35.563   4.309
70867W        W40748  30.014  44.295   0.333
70868W        W40749  11.818  40.446   4.195
70869W        W40750  23.554  33.584   0.855
70870W        W40751  31.490   3.367  14.852
70871W        W40752  13.122  13.664   0.916
70872W        W40753  18.233  26.997   1.741
70873W        W40754  16.764   0.342  10.908
70874W        W40755  23.679   6.298   3.869
70875W        W40756  11.164  28.540  14.767
70876W        W40757  33.529  16.809  12.941
70877W        W40758  14.240  19.104   0.378
70878W        W40759  15.322  42.863   3.842
70879W        W40760  34.571  15.802  11.001
70880W        W40761   9.795  37.515  12.930
70881W        W40762  25.543  29.081  12.483
70882W        W40763  28.989   8.394  14.475
70883W        W40764  28.132   7.365   9.921
70884W        W40765  40.358   5.854   3.650
70885W        W40766  34.901  18.690   2.903
70886W        W40767  35.390  23.649  10.627
70887W        W40768  11.141  43.985   4.826
70888W        W40769  21.600  11.708   2.716
70889W        W40770  11.804   5.848  13.824
70890W        W40771  42.351  29.987   0.965
70891W        W40772  13.133   6.353  12.459
70892W        W40773  38.478  34.370  14.834
70893W        W40774  27.559  11.305  13.852
70894W        W40775  43.858  23.527  12.096
70895W        W40776  23.609  39.372   4.231
70896W        W40777  23.086  34.564   1.934
70897W        W40778  24.220  15.109   4.737
70898W        W40779   6.697  31.453   2.233
70899W        W40780  34.577  24.191   3.640
70900W        W40781   5.362  16.211  13.852
70901W        W40782  34.882  22.131  13.320
70902W        W40783  10.828  33.530   2.340
70903W        W40784  11.833  27.618   5.689
70904W        W40785  13.215  31.547  12.431
70905W        W40786  19.764  32.582  12.091
70906W        W40787  28.991  22.134   1.771
70907W        W40788   2.905   4.713   0.853
70908W        W40789   5.438  35.860  11.406
70909W        W40790  42.306  12.724   1.724
70910W        W40791   5.699  29.604   1.760
70911W        W40792  33.966  14.781   2.756
70912W        W40793  37.946  38.932   4.160
70913W        W40794  29.630  19.680   4.705
70914W        W40795   6.870  29.423   4.782
70915W        W40796  43.004  29.496   1.869
70916W        W40797  14.139  42.453  11.040
70917W        W40798  37.076  33.043  11.465
70918W        W40799   0.899   1.804   1.916
70919W        W40800  12.205   4.878   0.354
70920W        W40801  37.421  35.094  12.527
70921W        W40802  19.191  11.638   4.281
70922W        W40803  16.661  37.982   3.761
70923W        W40804  26.008  21.213   1.715
70924W        W40805  40.911  16.122  12.397
70925W        W40806  33.958  24.018  11.558
70926W        W40807  17.689  43.973  10.894
70927W        W40808  32.131   5.738  12.024
70928W        W40809  17.654  16.293   3.650
70929W        W40810  30.120   3.388   2.715
70930W        W40811  44.354  35.375  12.571
70931W        W40812  22.056  15.794  11.383
70932W        W40813   8.829  23.538   2.762
70933W        W40814  39.413  33.898  14.843
70934W        W40815   2.307   2.314   2.851
70935W        W40816  12.163   7.870   0.315
70936W        W40817  33.128  22.533  10.539
70937W        W40818  23.683  20.747   0.259
70938W        W40819  19.594  22.723   0.911
70939W        W40820  39.466  40.011  12.864
70940W        W40821   3.392  33.956  11.049
70941W        W40822  13.789  26.103  14.865
70942W        W40823  40.989   4.755   0.434
70943W        W40824  39.834  12.189  13.043
70944W        W40825  25.195  31.533   2.708
70945W        W40826  25.536  24.587  13.882
70946W        W40827  44.868  29.172   4.305
70947W        W40828  33.496  16.073   1.813
70948W        W40829  43.809  32.460   2.346
70949W        W40830  24.560   4.838   0.403
70950W        W40831  43.770   8.807  14.514
70951W        W40832   6.290  29.590   3.724
70952W        W40833   1.246   3.446   1.727
70953W        W40834  37.910   0.278   5.289
70954W        W40835  31.610   7.827  14.298
70955W        W40836  42.982   0.942  12.543
70956W        W40837  15.759  11.131   1.301
70957W        W40838  35.555  43.874   4.114
70958W        W40839   4.771  17.150   5.129
70959W        W40840   4.395  30.140  11.992
70960W        W40841  17.253  40.484   4.148
70961W        W40842  25.030  20.607  13.852
70962W        W40843  13.633  31.586  14.485
70963W        W40844  42.779  32.103  14.310
70964W        W40845  24.580  34.464   0.413
70965W        W40846  44.444  12.644   0.436
70966W        W40847   1.943   4.418  10.571
70967W        W40848  26.121   6.687   2.719
70968W        W40849  35.500  36.854  11.562
70969W        W40850  25.060  23.088   1.444
70970W        W40851  20.171  18.610   1.844
70971W        W40852  42.881   1.796  10.423
70972W        W40853  13.146   1.811   2.225
70973W        W40854   1.952  12.359  11.593
70974W        W40855  42.958  23.635   2.879
70975W        W40856   8.288  10.262   2.878
70976W        W40857   4.825  23.611   1.760
70977W        W40858   9.313   5.916  12.993
70978W        W40859  23.006  25.088  14.329
70979W        W40860  28.454  13.836   3.713
70980W        W40861  27.186  33.470  10.498
70981W        W40862  25.963  13.661  13.929
70982W        W40863  10.348  10.753   1.859
70983W        W40864   2.462  33.542  14.917
70984W        W40865   6.734  27.187  11.506
70985W        W40866   1.450  30.433  12.404
70986W        W40867   5.924   2.736  11.382
70987W        W40868  33.585  15.199   0.333
70988W        W40869  42.993  19.283  12.082
70989W        W40870   5.319  20.567  13.896
70990W        W40871   9.786  12.150  12.970
70991W        W40872  42.467  20.141   1.297
70992W        W40873   8.797  25.544  13.027
70993W        W40874  37.429   1.856   1.763
70994W        W40875  22.656  32.132   3.335
70995W        W40876  13.759   0.458   1.396
70996W        W40877  40.437  17.113  14.892
70997W        W40878  23.598  18.730   0.764
70998W        W40879  24.987  14.144  14.968
70999W        W40880  16.302  20.261  14.983
71000W        W40881  13.117  30.962   0.950
71001W        W40882  18.225  15.768   4.778
71002W        W40883  32.625  11.702  12.906
71003W        W40884  24.725  28.004   4.821
71004W        W40885  32.611  33.518  11.428
71005W        W40886  35.004  19.179   4.759
71006W        W40887  20.182  16.598   1.284
71007W        W40888   8.165  33.422  14.889
71008W        W40889  37.377  22.143  14.275
71009W        W40890  32.428  25.590   3.735
71010W        W40891  11.163  38.354  12.458
71011W        W40892  39.428  34.510  11.929
71012W        W40893  43.423  32.890   3.775
71013W        W40894  31.001  30.496   4.327
71014W        W40895  35.060  17.561  12.391
71015W        W40896   6.780  26.141  12.055
71016W        W40897  43.990  12.746   1.333
71017W        W40898  39.344   9.773   3.262
71018W        W40899  21.252   2.767  11.377
71019W        W40900   7.761  33.466   3.697
71020W        W40901  40.425  33.468   1.814
71021W        W40902  10.239   6.336  12.932
71022W        W40903  33.084  25.994  13.428
71023W        W40904  28.050   5.811   5.084
71024W        W40905  21.110   6.313   0.731
71025W        W40906  26.680  24.520   4.809
71026W        W40907  25.476  23.199   1.382
71027W        W40908  27.090  14.823   2.364
71028W        W40909  27.093  28.636   0.855
71029W        W40910  32.552  19.630  12.568
71030W        W40911  31.150  22.713   4.258
71031W        W40912  17.770   5.763  10.609
71032W        W40913  41.410  39.814   4.733
71033W        W40914  32.971   4.225   4.604
71034W        W40915  38.560   6.831  13.819
71035W        W40916   4.399  27.989  13.968
71036W        W40917  32.985  21.710  12.395
71037W        W40918  30.448  32.473  11.397
71038W        W40919  20.195  43.899  12.480
71039W        W40920  37.456  19.595  14.022
71040W        W40921  22.528   6.348   3.339
71041W        W40922  43.866  23.534  14.439
71042W        W40923  14.119  16.247   0.250
71043W        W40924  44.807  12.130  13.374
71044W        W40925  41.363  44.814  11.485
71045W        W40926  28.054  44.765  12.839
71046W        W40927   1.256  10.372  12.520
71047W        W40928   0.343  33.906   3.171
71048W        W40929  25.468   1.471   3.827
71049W        W40930  38.440  12.635  11.040
71050W        W40931  14.211  25.152   4.746
71051W        W40932  39.542   2.286   2.372
71052W        W40933  29.151  20.558  13.515
71053W        W40934   9.649  37.061   1.445
71054W        W40935  37.548  23.542   3.798
71055W        W40936   7.260  34.934   0.800
71056W        W40937   4.751   3.269   2.386
71057W        W40938  43.505  42.503   1.414
71058W        W40939   7.336  11.242  12.521
71059W        W40940  31.472   8.888   0.913
71060W        W40941  10.693  40.458  11.425
71061W        W40942  39.494  24.123  10.619
71062W        W40943  14.248  31.499  13.345
71063W        W40944   4.297   1.876  12.056
71064W        W40945   9.223  37.066  12.541
71065W        W40946  29.920  18.731   3.792
71066W        W40947  27.187  10.681   0.400
71067W        W40948  26.016  15.687  11.500
71068W        W40949  29.172  39.479   2.354
71069W        W40950  35.071  18.277   4.826
71070W        W40951  12.783  16.632   3.774
71071W        W40952  32.526   4.770  13.505
71072W        W40953  31.057   1.415  10.441
71073W        W40954  42.436   6.874   4.184
71074W        W40955  22.055  30.501   2.806
71075W        W40956  25.188  10.276   1.445
71076W        W40957  17.671  31.042   3.255
71077W        W40958  12.826  17.744  13.521
71078W        W40959  25.033  34.005   1.820
71079W        W40960   7.860  41.303   0.917
71080W        W40961  25.036   9.695  14.864
71081W        W40962  10.367  35.362   1.287
71082W        W40963  24.039  43.501  14.303
71083W        W40964  40.906   0.290   4.706
71084W        W40965  25.543  15.817   5.292
71085W        W40966  36.965   3.739  13.039
71086W        W40967  31.404   6.782   4.281
71087W        W40968   4.880   0.879  12.994
71088W        W40969  42.969  39.473   4.612
71089W        W40970  10.752   0.872   0.244
71090W        W40971  37.373  27.638   4.136
71091W        W40972  44.428  32.446  12.045
71092W        W40973   6.854  14.125   2.397
71093W        W40974  12.173  12.155  10.922
71094W        W40975  14.728   2.262   2.669
71095W        W40976   7.378  44.986  11.076
71096W        W40977  24.481  37.484   1.265
71097W        W40978  10.660  29.170   0.900
71098W        W40979  28.469  11.822  13.010
71099W        W40980  40.347  33.081  12.950
71100W        W40981  20.759  43.375  11.916
71101W        W40982  44.427  11.697   4.283
71102W        W40983  16.207  11.667   4.120
71103W        W40984  14.225  11.646   4.183
71104W        W40985  29.456  26.091   3.671
71105W        W40986  15.819  18.231  10.519
71106W        W40987  35.515   1.861   2.223
71107W        W40988  15.102  44.795   1.414
71108W        W40989  38.000  10.642   3.366
71109W        W40990   9.331  10.326  10.929
71110W        W40991  10.670  26.152   3.154
71111W        W40992  10.675   6.196  13.482
71112W        W40993  38.022   2.423  14.819
71113W        W40994  18.632  33.929   4.302
71114W        W40995  13.257  11.311   3.719
71115W        W40996  16.606   5.386   2.383
71116W        W40997   2.288  20.618  12.576
71117W        W40998  20.723   5.868  13.494
71118W        W40999   0.806  43.431  13.432
71119W        W41000  26.045  27.183   1.418
71120W        W41001   0.928  36.438  13.883
71121W        W41002  27.018  39.550  11.041
71122W        W41003  42.500   2.323  13.036
71123W        W41004  38.487  11.190  12.554
71124W        W41005  34.599   1.479  12.858
71125W        W41006   5.430  31.496  11.987
71126W        W41007   6.815   5.297  12.435
71127W        W41008  41.417  12.309   0.454
71128W        W41009   0.936  33.120  12.857
71129W        W41010  13.746  38.555   2.839
71130W        W41011  10.154  24.168  10.559
71131W        W41012  43.273  38.419   3.868
71132W        W41013  18.607  39.914  11.057
71133W        W41014  44.362  20.620   1.431
71134W        W41015  17.591  44.948   4.787
71135W        W41016  42.868  26.160   1.389
71136W        W41017  43.324  36.421  12.534
71137W        W41018  10.641  33.518  11.408
71138W        W41019  43.345  24.010   0.351
71139W        W41020  23.632  34.954   3.229
71140W        W41021  20.669  13.619   0.247
71141W        W41022  11.203  38.461  14.009
71142W        W41023   3.799  11.186   0.334
71143W        W41024  24.514  16.269   0.402
71144W        W41025  33.095  12.221   0.946
71145W        W41026  27.482   3.851  12.050
71146W        W41027  11.334   7.902   1.830
71147W        W41028   5.743  25.494  11.552
71148W        W41029   4.790  23.986   5.230
71149W        W41030  10.656  36.450  11.920
71150W        W41031  41.460   7.899   1.840
71151W        W41032   8.223  10.384  11.429
71152W        W41033  35.106  19.756  13.021
71153W        W41034  26.630   6.712  11.560
71154W        W41035  33.512  30.997  14.363
71155W        W41036  11.288   8.866   2.413
71156W        W41037   8.354   2.804   1.778
71157W        W41038  40.909  17.296   1.270
71158W        W41039  19.740  11.794  14.763
71159W        W41040  19.058  34.884  11.524
71160W        W41041  13.787  22.252   4.689
71161W        W41042  12.263  41.422   1.280
71162W        W41043  11.805  24.717  10.626
71163W        W41044  39.826  26.461  11.417
71164W        W41045   8.195  21.755   2.362
71165W        W41046  36.889  38.412   1.701
71166W        W41047  26.590   4.387   2.732
71167W        W41048  32.086  33.509  11.568
71168W        W41049  24.561  12.209  13.490
71169W        W41050  40.865  25.159  12.506
71170W        W41051  10.368   0.351   1.281
71171W        W41052  30.135  27.545   3.312
71172W        W41053  33.069  34.966   0.770
71173W        W41054  26.035  41.804  12.017
71174W        W41055   6.796   4.854   2.836
71175W        W41056  17.772  42.802   4.780
71176W        W41057  34.898  27.172  12.990
71177W        W41058  39.403   7.742   3.801
71178W        W41059  41.949  22.248  12.029
71179W        W41060  39.402  44.967   2.804
71180W        W41061  43.897  27.060  12.576
71181W        W41062  12.845  17.691   0.876
71182W        W41063  18.083  24.615  14.852
71183W        W41064  10.158  30.487  14.985
71184W        W41065  25.617  12.336  14.775
71185W        W41066  39.455  38.027  14.505
71186W        W41067  44.757  28.521   4.115
71187W        W41068   4.894  19.039   3.306
71188W        W41069  13.773   1.312  14.774
71189W        W41070  40.857  42.290  13.342
71190W        W41071  27.572   6.909   3.775
71191W        W41072  30.146  20.537   3.723
71192W        W41073   0.354  22.234  12.519
71193W        W41074  32.471   3.293  13.014
71194W        W41075  41.987  30.962  14.798
71195W        W41076  21.062   8.349   1.919
71196W        W41077  15.676  19.274  13.393
71197W        W41078  31.073  29.497   0.829
71198W        W41079  11.757  30.966   2.829
71199W        W41080   7.732  44.831   0.791
71200W        W41081  33.588  16.658  11.066
71201W        W41082  23.187  41.854  13.989
71202W        W41083   0.805  33.408   1.789
71203W        W41084  41.972   2.854  12.951
71204W        W41085   1.949  32.898   4.701
71205W        W41086  40.803   9.160   3.661
71206W        W41087   6.755   9.217   4.271
71207W        W41088  35.416  40.877  14.908
71208W        W41089   1.930  18.203   0.443
71209W        W41090  24.620  17.218   5.154
71210W        W41091  25.681  12.306  12.339
71211W        W41092  21.089  41.396   2.744
71212W        W41093  38.515  44.813  12.027
71213W        W41094  43.308  44.281   1.381
71214W        W41095   0.788   7.322   1.707
71215W        W41096   4.815  29.150   4.785
71216W        W41097  16.282  33.543   0.325
71217W        W41098   1.343  28.586  11.404
71218W        W41099  43.926  36.070  12.879
71219W        W41100  18.207   1.457   3.651
71220W        W41101   3.802  28.593  12.986
71221W        W41102  20.605   4.232   3.659
71222W        W41103  15.226  22.185  14.833
71223W        W41104  29.153  41.315   4.678
71224W        W41105   8.240   4.402  11.047
71225W        W41106  18.775  18.770   1.425
71226W        W41107  26.032  28.444  12.376
71227W        W41108  38.356  23.500  11.538
71228W        W41109  12.238  16.768  13.484
71229W        W41110  40.962   9.334  13.458
71230W        W41111  44.461  44.808  13.021
71231W        W41112  26.998  31.494   3.854
71232W        W41113  38.875   1.924  10.467
71233W        W41114  17.128  30.606   4.625
71234W        W41115  36.053  11.773   4.277
71235W        W41116  41.846  27.119  14.817
71236W        W41117  16.075  40.459  12.559
71237W        W41118  37.499   3.391  11.098
71238W        W41119  12.670  42.820  13.448
71239W        W41120  22.045  23.176  12.832
71240W        W41121  32.963  25.628  12.365
71241W        W41122  42.778  10.689  12.981
71242W        W41123  40.392  24.552  13.383
71243W        W41124  12.794  32.482   3.298
71244W        W41125  18.171  36.532   0.758
71245W        W41126  36.425   8.783  12.364
71246W        W41127  35.014   1.400   0.842
71247W        W41128  37.948   1.238   2.681
71248W        W41129   0.478  12.331  10.593
71249W        W41130  15.730   9.833   4.300
71250W        W41131  27.604  29.966   0.870
71251W        W41132  12.349   7.798  12.479
71252W        W41133  25.097  17.061   0.250
71253W        W41134  32.013  27.482  11.867
71254W        W41135  15.607  27.598   4.835
71255W        W41136  37.943  29.429  13.880
71256W        W41137  15.727  32.524   1.318
71257W        W41138   2.802  34.058   2.822
71258W        W41139  38.360   4.723  11.398
71259W        W41140  11.198   0.864   1.388
71260W        W41141  37.530  25.548   2.828
71261W        W41142  39.405  40.311  14.886
71262W        W41143  18.641  31.945   4.622
71263W        W41144   0.916  31.957  11.374
71264W        W41145  23.149  10.828   4.701
71265W        W41146  12.123  32.020  14.908
71266W        W41147   8.678  24.705  12.501
71267W        W41148  27.095   3.904   1.283
71268W        W41149  17.113  40.801  11.863
71269W        W41150  32.978  12.659   3.783
71270W        W41151  28.122   7.280   2.339
71271W        W41152  27.658  37.994   3.767
71272W        W41153  11.211  42.968   1.369
71273W        W41154  20.059   4.771  14.344
71274W        W41155  12.712  35.397   3.176
71275W        W41156   3.725  37.469   2.762
71276W        W41157  21.636  40.440   1.879
71277W        W41158  44.465  43.928   4.263
71278W        W41159  30.582  24.541   0.368
71279W        W41160  24.037  11.148  10.104
71280W        W41161  29.540  28.969  11.886
71281W        W41162  25.999  28.981   0.412
71282W        W41163  28.000   6.785   3.706
71283W        W41164  17.756   8.163   4.817
71284W        W41165  33.530  23.230   0.766
71285W        W41166   7.191  18.580   3.318
71286W        W41167  29.465   6.765   1.753
71287W        W41168   3.284  34.864   4.322
71288W        W41169  22.642  39.541   1.753
71289W        W41170  13.235  29.104  10.102
71290W        W41171   9.231  13.817  12.862
71291W        W41172  30.461   1.402  13.843
71292W        W41173  27.132  12.233  14.802
71293W        W41174   2.946  32.568  11.402
71294W        W41175  33.432  33.093   4.347
71295W        W41176   3.415  30.916   2.286
71296W        W41177  11.657  41.973  12.413
71297W        W41178  10.166   3.381   2.346
71298W        W41179  10.256  15.622  14.382
71299W        W41180  16.088   0.341   3.381
71300W        W41181  18.589  26.571   0.406
71301W        W41182  21.216  30.124  12.993
71302W        W41183  31.602  24.533   0.962
71303W        W41184  22.116  34.938   3.352
71304W        W41185  31.415  37.540  14.843
71305W        W41186  14.813  43.446  11.876
71306W        W41187  31.547   2.459   0.848
71307W        W41188  17.149  32.054   0.288
71308W        W41189  31.030   0.362  11.549
71309W        W41190  18.716   9.188   2.321
71310W        W41191  31.909  33.492  12.834
71311W        W41192  35.462  37.477   3.288
71312W        W41193  26.620  13.805   3.856
71313W        W41194  31.603  35.998  11.468
71314W        W41195   7.877  25.014  14.904
71315W        W41196   2.289  14.720  10.888
71316W        W41197   0.487   1.750   4.607
71317W        W41198  18.115  19.254  11.410
71318W        W41199  41.916   0.494  10.582
71319W        W41200  42.911  44.899   4.684
71320W        W41201  14.218  28.160   2.192
71321W        W41202  24.724  10.221   1.921
71322W        W41203  23.098  24.723  13.536
71323W        W41204   2.875  29.498  11.603
71324W        W41205  15.165  13.796   3.253
71325W        W41206  23.703  11.234  14.359
71326W        W41207  39.920  30.548   2.284
71327W        W41208  16.570  26.077   3.786
71328W        W41209  12.157  25.619  10.547
71329W        W41210   4.703  19.773  12.411
71330W        W41211  39.848   0.917  11.453
71331W        W41212  25.056  34.567   0.310
71332W        W41213  29.989  40.438   0.422
71333W        W41214  43.455   1.249   2.230
71334W        W41215  30.637  13.743  10.639
71335W        W41216  24.003  14.120   2.685
71336W        W41217  34.520   9.857  13.347
71337W        W41218  10.818  16.172  11.424
71338W        W41219  41.525  37.014  11.511
71339W        W41220  38.486  31.103   0.441
71340W        W41221  31.000  43.860   1.216
71341W        W41222  14.808  35.924   2.395
71342W        W41223  15.802  35.415   0.263
71343W        W41224  36.511  14.299   3.685
71344W        W41225   2.231  38.533   1.798
71345W        W41226   5.918  26.603  10.411
71346W        W41227  32.952  26.570   2.682
71347W        W41228  16.208  13.233   0.370
71348W        W41229  26.520  12.669  11.609
71349W        W41230   4.242  11.303   4.837
71350W        W41231  43.014   2.876   4.256
71351W        W41232  36.459   3.430   3.167
71352W        W41233  26.524  32.462  14.339
71353W        W41234   8.205   4.281   3.771
71354W        W41235  20.091  15.318  12.909
71355W        W41236  43.978   6.822  14.435
71356W        W41237  15.758  17.599  10.600
71357W        W41238  15.091  28.453  10.511
71358W        W41239  35.954  35.892   4.636
71359W        W41240  36.998  39.393  13.916
71360W        W41241  11.656  20.219   4.761
71361W        W41242  17.664  43.961  12.345
71362W        W41243   5.308  20.164  11.578
71363W        W41244  23.617   5.915  12.824
71364W        W41245  36.389  34.494   0.863
71365W        W41246   3.309  32.932   2.349
71366W        W41247  24.487  30.051   2.239
71367W        W41248  35.878  10.378   0.400
71368W        W41249   1.420  31.519   4.243
71369W        W41250  27.038  37.848   1.737
71370W        W41251  30.464  15.136  13.853
71371W        W41252   8.890  41.322  14.814
71372W        W41253  10.848  40.900  13.330
71373W        W41254  30.078   8.829  14.031
71374W        W41255  20.160  39.519  10.502
71375W        W41256  10.277  19.648   4.166
71376W        W41257  27.057   7.367  13.028
71377W        W41258  28.053   8.315  11.055
71378W        W41259  39.368  10.752  11.373
71379W        W41260  19.145  30.015  14.357
71380W        W41261  11.657  11.739   4.613
71381W        W41262  11.231  16.224   4.334
71382W        W41263   7.818   4.933   5.262
71383W        W41264  22.196  18.763  14.348
71384W        W41265  22.248  16.626  13.810
71385W        W41266   7.870  42.025   1.727
71386W        W41267  28.639  20.117   0.766
71387W        W41268  18.780  32.995  13.838
71388W        W41269  25.513  41.845   4.234
71389W        W41270  19.046  20.132  14.933
71390W        W41271  31.627   5.775   3.858
71391W        W41272  21.518   1.457   3.823
71392W        W41273   0.385  14.331   1.706
71393W        W41274   0.401  28.085   3.268
71394W        W41275  25.995   9.312   0.852
71395W        W41276   4.206  17.103   1.332
71396W        W41277  33.906  22.592   1.247
71397W        W41278  33.037   5.908  13.468
71398W        W41279  16.225  12.167  10.434
71399W        W41280  18.666  10.772  14.954
71400W        W41281  12.336   1.349  11.855
71401W        W41282  17.654   7.860  12.034
71402W        W41283  31.137  17.646  13.876
71403W        W41284  35.956  23.033  14.341
71404W        W41285  17.220  18.272   2.865
71405W        W41286   6.369  13.208  11.511
71406W        W41287  44.784   6.830  12.568
71407W        W41288  27.588  42.453  13.449
71408W        W41289   0.792  24.202   0.453
71409W        W41290  34.912   3.890  11.901
71410W        W41291  15.111  18.744   3.158
71411W        W41292  24.480  26.166   1.381
71412W        W41293   7.850  36.507  14.003
71413W        W41294  12.174   4.220  12.846
71414W        W41295  29.488  29.619   0.841
71415W        W41296   1.767  38.541  13.030
71416W        W41297  25.531  19.572  10.005
71417W        W41298  40.896  31.033  10.465
71418W        W41299  25.128   8.308   2.412
71419W        W41300  37.557  30.086   4.692
71420W        W41301  44.326  20.729   0.451
71421W        W41302  23.048  42.975  10.628
71422W        W41303  23.499  16.135   0.814
71423W        W41304  20.759  14.208  14.332
71424W        W41305  25.095   1.933   3.299
71425W        W41306  12.147  17.758  11.418
71426W        W41307  43.380  11.806   4.290
71427W        W41308  24.145  28.549  14.977
71428W        W41309  24.158  44.440   2.803
71429W        W41310  17.602  11.218   0.856
71430W        W41311  42.976  39.422   3.642
71431W        W41312   7.378  28.448   0.963
71432W        W41313  40.470  24.031   1.233
71433W        W41314  13.744  37.068   9.941
71434W        W41315  20.193  31.435  13.970
71435W        W41316   4.358   0.280   1.726
71436W        W41317   3.788  15.784   2.842
71437W        W41318  32.598  29.633  11.103
71438W        W41319  31.028  25.708   4.239
71439W        W41320  40.866  40.359  13.413
71440W        W41321  40.479   9.170  12.891
71441W        W41322  13.814  40.014   2.674
71442W        W41323  11.193   7.813   4.607
71443W        W41324  30.432  36.861   3.674
71444W        W41325  10.260  22.588  10.639
71445W        W41326  26.466  32.123   1.717
71446W        W41327  39.532  15.249  11.024
71447W        W41328  30.556  16.237   4.227
71448W        W41329  39.559   7.413  13.796
71449W        W41330  32.411  20.605   2.819
71450W        W41331   8.844  38.558   4.321
71451W        W41332  25.543  33.389  12.997
71452W        W41333  40.827  20.203   2.236
71453W        W41334  34.563  21.565  11.089
71454W        W41335  36.438   3.735   2.416
71455W        W41336  24.523   5.370   4.290
71456W        W41337  11.703  38.933  13.025
71457W        W41338  35.939  24.576   3.718
71458W        W41339  36.566   2.793  13.860
71459W        W41340   9.665  15.776   3.865
71460W        W41341  11.863  33.481   2.226
71461W        W41342  14.731  13.195  14.900
71462W        W41343  31.979  35.021   3.197
71463W        W41344   5.822  36.530  14.967
71464W        W41345  31.978  20.110   1.387
71465W        W41346  39.368  38.525  11.372
71466W        W41347  32.947  36.970   3.212
71467W        W41348  39.988  36.962  12.430
71468W        W41349  34.959  17.602   3.871
71469W        W41350  42.928  26.456  12.901
71470W        W41351   1.847  14.320   2.206
71471W        W41352   0.468  28.635  12.094
71472W        W41353   2.266   5.414  14.810
71473W        W41354  27.548   2.333  13.360
71474W        W41355  15.822  34.608   1.732
71475W        W41356  10.243  42.434  11.914
71476W        W41357  20.157  21.245  12.473
71477W        W41358   8.221  28.147  11.539
71478W        W41359  19.237  38.879   2.353
71479W        W41360  26.665  43.308  11.994
71480W        W41361  25.065  31.947  12.826
71481W        W41362  26.028   8.254   0.850
71482W        W41363   7.870  20.592   3.194
71483W        W41364   4.793  25.968  10.541
71484W        W41365  34.482  21.756   1.301
71485W        W41366  30.541  26.495  14.281
71486W        W41367   2.243  15.173  10.974
71487W        W41368  39.943   4.337   1.389
71488W        W41369  29.149  17.118   4.178
71489W        W41370  19.533  24.106   3.830
71490W        W41371  43.310   9.167  10.564
71491W        W41372   6.189   0.423   2.329
71492W        W41373  26.657   7.267  12.014
71493W        W41374  35.906  41.466   0.390
71494W        W41375   5.347  39.523  14.930
71495W        W41376  13.693   6.719   4.667
71496W        W41377  23.093  23.689   3.338
71497W        W41378  18.731  32.598  11.089
71498W        W41379  21.570  35.981   1.391
71499W        W41380   3.922  36.880  11.951
71500W        W41381  21.624   9.790  10.600
71501W        W41382   9.692   6.827  11.922
71502W        W41383  22.520  31.059   2.833
71503W        W41384  27.154  20.715   2.406
71504W        W41385  42.308  25.132  10.940
71505W        W41386   4.244  16.780  14.991
71506W        W41387  38.048   9.237   1.712
71507W        W41388  29.504  10.161   5.266
71508W        W41389  15.710  41.510  11.573
71509W        W41390   5.251   3.910   3.639
71510W        W41391  29.667  29.446   4.660
71511W        W41392  13.322  40.914   4.336
71512W        W41393  27.114  43.305  10.976
71513W        W41394  42.825  13.753   0.871
71514W        W41395  31.436  36.430   0.811
71515W        W41396  22.047  40.362   2.801
71516W        W41397   3.911  14.824  14.775
71517W        W41398  42.496  12.762  13.439
71518W        W41399  36.875   1.382   2.263
71519W        W41400   7.190  39.905  12.924
71520W        W41401  30.986   5.395   1.906
71521W        W41402  25.079  35.024   0.470
71522W        W41403  33.948   9.643  10.551
71523W        W41404  20.691  24.074   1.932
71524W        W41405  40.867  22.670   3.802
71525W        W41406  27.172   6.709  14.898
71526W        W41407  38.942  42.986  14.788
71527W        W41408   6.393  10.644  14.332
71528W        W41409   5.726  16.099  11.081
71529W        W41410   8.250  44.360  13.478
71530W        W41411  26.622  18.738  13.499
71531W        W41412  10.833  12.669   1.355
71532W        W41413   3.367   0.854  14.462
71533W        W41414  24.106  25.042  10.079
71534W        W41415   7.373  19.699   1.336
71535W        W41416   4.745  26.087   3.265
71536W        W41417   1.803   3.318   4.136
71537W        W41418  21.693  15.309  13.038
71538W        W41419  24.713  16.698   3.249
71539W        W41420   0.939  41.941   2.671
71540W        W41421  24.107  35.561   1.262
71541W        W41422  10.344  31.566  14.820
71542W        W41423   4.734  23.154  11.568
71543W        W41424  37.511  27.526   1.431
71544W        W41425  36.927  44.270   4.324
71545W        W41426  20.243  13.631  11.871
71546W        W41427   2.372  40.323  10.541
71547W        W41428  35.554   6.905   0.409
71548W        W41429  37.956  25.199   1.217
71549W        W41430   1.877   3.458   3.823
71550W        W41431  35.935   2.809  13.927
71551W        W41432  14.817   5.255  10.940
71552W        W41433  40.848   2.346   4.633
71553W        W41434  30.446   7.729  11.891
71554W        W41435  26.129  15.232   4.602
71555W        W41436  28.172   1.870   4.609
71556W        W41437  27.510  36.989   4.767
71557W        W41438  35.975  18.138   2.322
71558W        W41439  44.941  24.698   4.816
71559W        W41440  35.043  20.670   1.416
71560W        W41441  31.015  36.064   1.754
71561W        W41442  15.295   9.330   1.796
71562W        W41443  25.563  21.182  14.770
71563W        W41444  25.052   3.290  11.037
71564W        W41445  12.339  14.250   1.717
71565W        W41446  36.858  43.337   0.323
71566W        W41447  27.554  25.122   1.741
71567W        W41448  42.301   0.786  10.463
71568W        W41449  16.154  13.708  12.875
71569W        W41450  41.373  34.440  12.046
71570W        W41451  40.390  36.022  12.545
71571W        W41452  19.560  38.038   2.293
71572W        W41453  33.952  28.031   2.417
71573W        W41454  41.325  26.511   2.375
71574W        W41455  39.916   6.793  11.045
71575W        W41456  33.499  23.698  10.924
71576W        W41457   3.812  27.510   4.709
71577W        W41458  20.130   5.276  12.959
71578W        W41459  17.146   1.329   1.223
71579W        W41460  18.690  11.792   2.389
71580W        W41461  33.909  25.050  13.347
71581W        W41462  22.211  36.419   1.389
71582W        W41463  36.471  35.102  13.805
71583W        W41464   2.408  23.640   0.850
71584W        W41465  21.104  13.264   2.768
71585W        W41466  35.905   3.715   3.751
71586W        W41467   7.670  14.804   1.391
71587W        W41468  15.741  16.221  14.901
71588W        W41469  44.965  24.661  12.970
71589W        W41470  25.507   6.910  13.452
71590W        W41471  13.344   2.805   4.303
71591W        W41472   3.292  37.992   5.198
71592W        W41473   4.861   3.823  10.113
71593W        W41474  28.047   1.267   2.779
71594W        W41475  40.470   5.914   1.889
71595W        W41476   2.894  26.086   1.756
71596W        W41477  34.384  36.063   4.337
71597W        W41478  31.532  44.792  14.827
71598W        W41479   0.760   4.443   3.179
71599W        W41480  36.933  36.553   0.887
71600W        W41481  21.195  14.754   0.279
71601W        W41482  43.849  38.511   1.852
71602W        W41483  32.429   0.272  11.488
71603W        W41484  32.921  33.458   1.787
71604W        W41485  35.452  19.604   1.796
71605W        W41486  30.961  37.352  12.058
71606W        W41487   3.393  40.808  10.922
71607W        W41488  30.078  35.888  12.868
71608W        W41489  42.359  39.861   0.245
71609W        W41490  34.984  10.156  10.632
71610W        W41491  18.668  32.907  14.924
71611W        W41492  18.106  30.605  13.836
71612W        W41493  14.198  41.380  10.985
71613W        W41494   1.930  40.878  14.370
71614W        W41495  12.793   1.280   0.403
71615W        W41496  29.597  37.504   3.815
71616W        W41497   8.812   4.329  12.906
71617W        W41498  26.620  10.839  11.606
71618W        W41499  25.109   2.721  10.415
71619W        W41500  25.545   4.414  13.848
71620W        W41501   3.459  12.322  11.062
71621W        W41502  13.312  12.663   9.969
71622W        W41503  39.433  37.457   4.820
71623W        W41504  35.875  20.715   0.421
71624W        W41505  32.074  15.110   3.698
71625W        W41506  28.071  26.665  11.407
71626W        W41507   4.283   7.264  10.485
71627W        W41508  41.817  39.406   0.329
71628W        W41509  22.706   0.785   0.911
71629W        W41510  43.842   8.679  10.406
71630W        W41511  10.779  30.127  13.324
71631W        W41512   2.299  34.584   2.404
71632W        W41513  29.462  41.488  10.134
71633W        W41514  32.109  42.985  12.068
71634W        W41515  20.764  26.092  14.773
71635W        W41516  15.210  32.450  12.966
71636W        W41517  12.791   0.474  12.555
71637W        W41518   5.410  19.541   3.857
71638W        W41519  32.935   1.271  12.081
71639W        W41520  34.094  36.865   2.188
71640W        W41521   9.645   9.760   1.400
71641W        W41522   9.393  44.879   1.216
71642W        W41523  23.012  19.691   0.888
71643W        W41524  34.080   5.326   4.679
71644W        W41525  28.023  38.006  14.352
71645W        W41526  22.052  11.692   2.666
71646W        W41527  36.519  20.700  12.345
71647W        W41528   0.940  38.898   0.387
71648W        W41529  22.532  30.649  11.016
71649W        W41530   6.876   3.786  11.978
71650W        W41531  12.301  35.895   3.824
71651W        W41532   8.688  42.785  14.803
71652W        W41533  11.338  16.713   3.152
71653W        W41534  44.289  15.322  13.015
71654W        W41535  13.267  37.511  14.836
71655W        W41536  10.864  11.148   4.137
71656W        W41537   8.781   5.800   2.885
71657W        W41538  22.658   6.308   2.898
71658W        W41539  41.795  31.602  13.898
71659W        W41540   1.865  11.169   1.336
71660W        W41541   9.169   8.290  14.826
71661W        W41542  16.691  19.600   1.912
71662W        W41543  35.860  18.247   3.661
71663W        W41544  30.562  29.129  14.509
71664W        W41545  32.498  23.119   4.747
71665W        W41546  38.502  40.482   4.275
71666W        W41547  44.992   1.481   1.697
71667W        W41548  22.615  41.487  14.491
71668W        W41549  11.744  13.809   4.216
71669W        W41550  31.988  31.560   4.619
71670W        W41551  14.283  38.032   2.884
71671W        W41552  23.670   6.715  13.411
71672W        W41553  33.113  26.059   2.190
71673W        W41554  37.367  32.009   4.685
71674W        W41555   4.913  17.613   4.300
71675W        W41556  13.722  25.208  10.633
71676W        W41557  36.080  10.262   2.732
71677W        W41558  22.178  36.856   0.412
71678W        W41559   9.311  29.040  10.481
71679W        W41560  11.858  40.936  10.437
71680W        W41561  18.182  15.693  11.895
71681W        W41562  38.491  41.972  12.857
71682W        W41563   6.878  26.620   3.183
71683W        W41564  28.987  37.071   2.396
71684W        W41565   2.257  17.284   1.222
71685W        W41566  32.455   3.798  10.566
71686W        W41567  29.617  39.450  12.505
71687W        W41568  37.055  43.843  14.391
71688W        W41569  23.592  39.830   4.240
71689W        W41570   2.842  43.451  14.004
71690W        W41571   3.358  15.287   2.376
71691W        W41572   5.894   8.320  11.485
71692W        W41573  29.487  29.636  14.806
71693W        W41574  21.185  10.673   3.261
71694W        W41575   3.314  39.478   2.791
71695W        W41576   8.761  19.257   4.262
71696W        W41577  11.637  27.973  14.309
71697W        W41578  22.553  40.870   3.657
71698W        W41579  28.594   3.782  10.975
71699W        W41580   4.818   0.249  14.514
71700W        W41581  12.312   5.376   4.618
71701W        W41582   9.371  22.673  10.115
71702W        W41583  23.685  21.120  13.796
71703W        W41584  23.003  38.875   4.723
71704W        W41585  35.485  17.629  10.421
71705W        W41586  42.316  21.713   1.770
71706W        W41587   6.763  10.201   0.844
71707W        W41588   7.407  25.142   5.157
71708W        W41589  36.489  29.930  13.426
71709W        W41590   8.807  13.122   0.375
71710W        W41591  19.720   1.246  13.415
71711W        W41592  24.201  32.605  14.901
71712W        W41593  44.829  12.247  14.920
71713W        W41594   5.805   6.681  12.425
71714W        W41595  39.362  39.869   1.801
71715W        W41596   9.796  17.133   2.314
71716W        W41597  14.694   8.195  14.424
71717W        W41598   5.839  37.346  12.931
71718W        W41599  22.215  32.530   0.899
71719W        W41600   0.750  34.557  13.907
71720W        W41601  43.366  11.295  14.392
71721W        W41602  29.474  42.410   2.670
71722W        W41603   5.798   5.873  11.971
71723W        W41604   4.372  38.339   2.200
71724W        W41605  40.372  23.572  10.911
71725W        W41606  41.008   2.952  10.910
71726W        W41607  32.887  27.555  13.416
71727W        W41608  33.018  40.347  13.817
71728W        W41609  28.106  22.088  14.914
71729W        W41610  27.050  26.607  13.423
71730W        W41611  34.896  15.223   2.252
71731W        W41612   4.421  37.358   1.711
71732W        W41613  36.941  35.554  12.883
71733W        W41614  28.465   2.930   2.240
71734W        W41615  31.463  11.851  12.997
71735W        W41616  26.035  13.324   0.813
71736W        W41617  18.726   9.333   0.436
71737W        W41618  43.913  15.292  12.861
71738W        W41619   1.837  41.817   3.650
71739W        W41620   0.816   7.847   1.357
71740W        W41621  21.703   3.429   0.815
71741W        W41622  33.063   4.427   0.749
71742W        W41623  13.746  21.177  12.415
71743W        W41624  22.684  38.360   0.831
71744W        W41625  29.918  14.692   3.382
71745W        W41626  20.242   3.426   5.198
71746W        W41627  37.449  10.643   3.380
71747W        W41628  35.034  20.137   2.359
71748W        W41629   0.981  44.806  14.466
71749W        W41630  33.594  40.040  14.372
71750W        W41631  24.657  40.454   2.288
71751W        W41632   5.705  41.441  12.046
71752W        W41633   3.851  12.836  14.372
71753W        W41634  13.347   6.358   1.740
71754W        W41635  24.170   5.822   2.200
71755W        W41636   5.891  23.029   1.926
71756W        W41637   4.362  36.360   4.233
71757W        W41638  40.011  17.577   4.704
71758W        W41639   5.325  40.447   3.326
71759W        W41640   7.674  20.660   3.734
71760W        W41641  18.677  43.504  14.880
71761W        W41642   8.848  19.167   4.744
71762W        W41643   6.371   6.328  14.343
71763W        W41644  34.556  44.007   3.702
71764W        W41645  34.961   3.715   0.423
71765W        W41646   2.434  20.093   3.254
71766W        W41647  24.634   8.722   2.208
71767W        W41648  32.469  28.110  13.450
71768W        W41649  19.766  21.754   4.741
71769W        W41650   8.896  31.427  13.820
71770W        W41651  20.537  32.056   0.803
71771W        W41652  41.872  12.660   0.909
71772W        W41653  25.986   9.213   1.440
71773W        W41654  16.710  44.423  10.560
71774W        W41655   5.788  20.106  13.005
71775W        W41656  38.011  39.891  11.595
71776W        W41657  35.467  10.163   3.687
71777W        W41658  35.591  17.176  10.503
71778W        W41659  22.186  20.224  12.061
71779W        W41660   1.359  14.188   0.765
71780W        W41661  43.953  11.623  13.424
71781W        W41662  10.816  21.066  12.014
71782W        W41663   0.819   4.736  10.947
71783W        W41664   2.889   7.754  13.807
71784W        W41665   3.236  26.541  12.030
71785W        W41666  36.981   4.219  13.942
71786W        W41667   8.742  25.098   1.828
71787W        W41668  39.439  31.931  12.888
71788W        W41669  39.492  40.028  11.857
71789W        W41670   9.168  23.547  10.442
71790W        W41671  37.965  44.444  11.980
71791W        W41672  30.636   6.913  11.386
71792W        W41673  27.079  35.436  13.868
71793W        W41674  23.719  35.088  11.526
71794W        W41675   2.329  11.287   0.804
71795W        W41676  23.079  15.099   4.225
71796W        W41677  28.602  32.498  10.492
71797W        W41678  23.726  25.539  14.860
71798W        W41679   3.365  28.625  12.374
71799W        W41680  22.055  26.702  11.970
71800W        W41681  40.950  42.409   2.722
71801W        W41682  14.781  24.017  13.908
71802W        W41683  39.926  10.343  13.042
71803W        W41684   3.846  26.601  12.836
71804W        W41685   3.916   6.420   3.656
71805W        W41686  35.994  22.061  13.969
71806W        W41687  14.658   6.347   2.695
71807W        W41688   1.922  16.692   3.195
71808W        W41689   9.317  43.372   0.261
71809W        W41690   6.363  35.569  12.545
71810W        W41691  33.042  41.972  12.361
71811W        W41692  39.497  24.618   4.149
71812W        W41693  18.291  32.046  11.408
71813W        W41694  33.625   5.911   2.723
71814W        W41695  40.834   0.470  12.885
71815W        W41696   9.757  37.963  11.916
71816W        W41697  10.320  20.687  10.629
71817W        W41698  25.002  24.017  11.906
71818W        W41699  17.764  44.462   0.803
71819W        W41700  35.391   4.241   0.819
71820W        W41701   9.689  36.911   4.241
71821W        W41702   1.454   2.352  13.921
71822W        W41703  24.656  14.794  11.394
71823W        W41704  13.340  16.755  12.021
71824W        W41705  24.569  24.152   1.718
71825W        W41706  29.135   6.271  10.999
71826W        W41707  44.267  42.932  13.390
71827W        W41708   0.955  16.196   4.132
71828W        W41709  27.623  39.815   0.295
71829W        W41710   9.353  28.530  11.407
71830W        W41711  10.282  35.522  11.901
71831W        W41712  38.024  15.737  11.039
71832W        W41713  18.674   2.323   4.261
71833W        W41714  42.013  38.944   2.896
71834W        W41715  23.013   1.917   4.752
71835W        W41716   3.221  33.616   0.284
71836W        W41717  25.515  44.993   4.317
71837W        W41718  40.507  32.481   0.964
71838W        W41719  27.102  41.475   3.235
71839W        W41720  11.728  21.655  12.556
71840W        W41721  19.745   4.309   3.674
71841W        W41722  20.548  16.251  13.827
71842W        W41723   1.418  37.478   1.929
71843W        W41724   1.264  13.685   1.933
71844W        W41725   4.432  15.783  12.503
71845W        W41726  12.844  28.541   1.891
71846W        W41727   8.396   9.164   1.709
71847W        W41728  43.993  43.510   2.781
71848W        W41729  14.690  23.219   1.391
71849W        W41730  22.178  21.051  14.872
71850W        W41731  37.026  31.539  14.998
71851W        W41732  13.249  19.208   0.752
71852W        W41733  13.727  24.066  11.488
71853W        W41734   3.858  39.555  14.774
71854W        W41735  13.165  25.082   0.319
71855W        W41736  43.999   0.294  14.358
71856W        W41737  12.143  35.578  14.288
71857W        W41738  37.945  41.390  10.581
71858W        W41739  10.749   8.396  14.403
71859W        W41740  13.156   3.948  13.813
71860W        W41741  37.954  24.512  11.957
71861W        W41742   3.809   6.297   1.413
71862W        W41743  36.427  39.426  14.909
71863W        W41744  36.868   7.289   2.822
71864W        W41745  31.045  25.489  12.049
71865W        W41746  38.459  12.330   4.295
71866W        W41747  17.137  20.218   3.218
71867W        W41748  42.820   2.404  10.552
71868W        W41749   3.306  21.588  12.831
71869W        W41750  10.710  44.879   3.275
71870W        W41751  34.897  36.434  10.917
71871W        W41752  15.319  43.000  12.048
71872W        W41753  37.058   1.926  14.453
71873W        W41754   1.814   4.319  14.385
71874W        W41755   2.878  43.795  14.996
71875W        W41756  16.223   1.735   0.290
71876W        W41757  26.592   1.477  12.405
71877W        W41758   9.295  11.725  13.921
71878W        W41759  17.240   8.866   2.761
71879W        W41760  35.366   6.232  11.997
71880W        W41761   4.303   5.713  13.020
71881W        W41762  26.969   5.407  12.891
71882W        W41763   6.819  14.608   4.778
71883W        W41764  37.839  24.021   3.232
71884W        W41765  15.587   4.248  10.496
71885W        W41766  29.453  14.184   2.770
71886W        W41767   7.793   5.217   3.359
71887W        W41768   0.436   3.855  11.911
71888W        W41769   7.724  17.211  11.469
71889W        W41770   6.691  28.958  12.491
71890W        W41771  10.360  32.472   4.297
71891W        W41772  17.564  32.573  12.923
71892W        W41773   7.719  14.133   5.103
71893W        W41774  11.361  20.214  13.023
71894W        W41775  18.683  26.119  13.486
71895W        W41776  39.866  44.328  11.566
71896W        W41777  35.598  43.484  14.484
71897W        W41778   0.295  16.217  14.974
71898W        W41779   4.259   8.358  13.058
71899W        W41780  35.413   6.325   0.304
71900W        W41781  39.058  37.567   0.913
71901W        W41782  32.484   4.864   2.386
71902W        W41783   1.731  41.378  11.442
71903W        W41784   9.228   2.924   1.701
71904W        W41785  30.471   9.365   0.885
71905W        W41786   9.746  20.060  14.806
71906W        W41787  20.712  19.625   1.900
71907W        W41788  23.064  33.998   0.943
71908W        W41789   0.391  41.487  13.317
71909W        W41790  37.038  20.533   1.378
71910W        W41791   2.949  27.131  11.481
71911W        W41792  18.567  18.175   1.856
71912W        W41793  33.963  30.423   1.404
71913W        W41794  37.339  19.636  14.357
71914W        W41795  30.990  38.970   4.792
71915W        W41796  10.715  38.421  11.916
71916W        W41797   6.696  37.544  10.938
71917W        W41798   5.380  24.029   4.254
71918W        W41799  20.712  34.965   2.725
71919W        W41800   9.213  31.569  13.832
71920W        W41801  25.962  38.447   1.788
71921W        W41802  32.023   8.232   4.211
71922W        W41803   0.494  17.304   1.301
71923W        W41804  40.897  34.463  11.434
71924W        W41805  32.112   6.305   0.726
71925W        W41806  14.190  16.104  13.837
71926W        W41807  35.412  23.124  12.068
71927W        W41808  34.547  43.986   1.253
71928W        W41809  35.523  13.304  14.877
71929W        W41810   7.248  12.264   0.860
71930W        W41811   6.316  36.412   0.886
71931W        W41812   5.697  17.685  11.004
71932W        W41813  43.879  17.742  13.909
71933W        W41814  18.550  10.345  11.483
71934W        W41815  15.174  42.368  13.921
71935W        W41816  33.030   0.846   1.307
71936W        W41817   2.356  28.970  14.849
71937W        W41818  17.764   2.830   1.840
71938W        W41819  44.977  23.219   4.321
71939W        W41820  21.714   0.467   0.284
71940W        W41821  16.747  42.414  13.358
71941W        W41822  29.661  31.414  14.762
71942W        W41823   5.809  20.232   2.363
71943W        W41824  37.007  17.715  12.426
71944W        W41825  20.186  18.585  14.954
71945W        W41826  33.623  38.555  13.798
71946W        W41827  12.741  12.610   2.379
71947W        W41828  16.643  22.147  10.443
71948W        W41829   8.281  34.374  12.051
71949W        W41830  17.116  22.189   3.230
71950W        W41831  14.246  28.946   1.232
71951W        W41832  26.550   6.357  12.031
71952W        W41833  44.756  30.078   0.250
71953W        W41834  20.108   0.347  13.920
71954W        W41835  27.167  17.292  10.018
71955W        W41836  35.539  16.312   4.174
71956W        W41837   9.778  26.988   0.430
71957W        W41838  43.769  44.830   0.409
71958W        W41839   7.221  16.073  11.114
71959W        W41840  10.183  33.892  10.415
71960W        W41841  34.970  34.605  12.997
71961W        W41842  22.644   7.890  13.890
71962W        W41843  14.638  35.492  10.575
71963W        W41844  43.418  33.044   1.272
71964W        W41845  44.271   1.402   1.378
71965W        W41846  39.010   6.790   4.741
71966W        W41847   5.431   9.765   1.364
71967W        W41848  12.718   4.293   3.202
71968W        W41849  24.124  33.599  10.439
71969W        W41850   3.304  26.580   2.819
71970W        W41851  12.267  44.310  12.507
71971W        W41852  29.061   7.401  14.920
71972W        W41853  42.383  11.712   3.714
71973W        W41854  20.143  23.111   3.343
71974W        W41855  22.530   6.895   3.281
71975W        W41856  28.559  39.889  13.816
71976W        W41857  44.954  30.613  10.492
71977W        W41858  20.253   2.470  14.370
71978W        W41859   6.305  19.542  14.400
71979W        W41860  36.515  35.434   2.205
71980W        W41861  21.716   6.746  10.944
71981W        W41862  15.818  43.376   3.303
71982W        W41863  35.463  28.942  13.525
71983W        W41864  43.789  29.482   2.359
71984W        W41865  19.280   9.728  13.867
71985W        W41866  29.626  42.370   4.701
71986W        W41867  25.482   5.400  10.433
71987W        W41868  40.312  22.231  11.059
71988W        W41869  36.841  31.636   0.753
71989W        W41870  38.334  22.042   1.357
71990W        W41871  27.953  20.703  14.341
71991W        W41872  17.271  30.460   1.875
71992W        W41873  11.298  25.502   0.739
71993W        W41874   1.413  10.669   2.789
71994W        W41875  37.911  18.701  10.644
71995W        W41876  39.823  15.145  13.345
71996W        W41877   2.867  25.966   4.131
71997W        W41878   1.847  35.547  10.453
71998W        W41879  21.253  16.780   1.437
71999W        W41880  27.001  27.068   2.245
72000W        W41881  40.414  21.628   2.681
72001W        W41882  43.795   5.929   0.878
72002W        W41883   6.337  36.062  14.378
72003W        W41884  44.461  28.950   2.253
72004W        W41885  21.107  15.634   4.690
72005W        W41886  16.280  10.289   4.172
72006W        W41887  13.621  29.941  12.850
72007W        W41888  34.975  42.388  12.939
72008W        W41889   5.694  27.455  12.580
72009W        W41890  16.805   1.357   2.844
72010W        W41891  35.516  24.673   3.847
72011W        W41892  19.087   0.479  14.447
72012W        W41893  30.554  42.315  14.777
72013W        W41894   2.786  15.742   0.943
72014W        W41895  28.612  16.212  14.870
72015W        W41896   4.874  31.020   0.270
72016W        W41897   6.368  36.088   3.245
72017W        W41898  32.436  15.287  14.499
72018W        W41899  41.530  26.067   4.744
72019W        W41900  40.040   1.867  13.425
72020W        W41901  12.124   6.244  13.970
72021W        W41902  29.609   2.447  14.767
72022W        W41903  16.702  32.517  12.867
72023W        W41904  44.368   0.787  14.386
72024W        W41905  12.286  38.398   4.633
72025W        W41906  29.939  14.674   1.754
72026W        W41907  43.387  24.126   0.906
72027W        W41908  36.526  18.784  14.996
72028W        W41909  41.449   3.853  14.027
72029W        W41910  37.492  42.470   3.234
72030W        W41911  28.472   1.480   2.749
72031W        W41912   8.358  36.036   3.799
72032W        W41913  19.178  22.019   1.898
72033W        W41914   5.195  41.335   3.771
72034W        W41915  12.235   2.378   3.181
72035W        W41916   0.802  11.787   1.304
72036W        W41917  31.958  16.117   3.749
72037W        W41918  30.553  24.993   4.222
72038W        W41919  37.935  15.115  14.286
72039W        W41920  26.583  26.953  14.315
72040W        W41921  11.136  43.797   3.202
72041W        W41922  44.842   0.254   0.345
72042W        W41923  43.457  20.247  14.838
72043W        W41924  39.419  30.520  11.413
72044W        W41925  10.157  39.869   4.281
72045W        W41926  30.070  24.190  12.479
72046W        W41927  23.568   3.726   2.837
72047W        W41928  41.877  33.441   3.275
72048W        W41929  15.205   3.319  10.535
72049W        W41930  12.701  35.996   4.808
72050W        W41931   2.801  23.586   4.215
72051W        W41932  18.597  10.263   3.653
72052W        W41933  38.857  10.703  14.944
72053W        W41934  39.940   9.194  11.991
72054W        W41935  12.839  31.134   0.295
72055W        W41936  39.320  12.340   4.168
72056W        W41937   1.468  27.964   1.427
72057W        W41938  32.505   4.931  10.511
72058W        W41939  44.309  39.525   3.354
72059W        W41940  32.889  36.591   4.805
72060W        W41941  14.210  10.280  11.023
72061W        W41942  16.701  40.016   2.848
72062W        W41943  37.501  30.974   2.178
72063W        W41944  30.938  31.143  13.453
72064W        W41945  17.273   8.731  10.021
72065W        W41946  14.224   8.392   3.273
72066W        W41947  41.506  29.998   1.842
72067W        W41948  34.459   1.790   1.244
72068W        W41949  34.572  21.676  14.421
72069W        W41950  15.694  23.527   3.785
72070W        W41951  41.839  30.567  14.871
72071W        W41952   1.799  12.192   4.608
72072W        W41953  30.068  26.009   0.731
72073W        W41954  35.920  37.486   2.376
72074W        W41955  42.521  38.378  10.548
72075W        W41956  13.184   7.357  13.388
72076W        W41957  11.254  11.129  14.811
72077W        W41958  29.428  40.807  12.960
72078W        W41959  26.204  26.511   3.653
72079W        W41960  14.815  28.638   1.843
72080W        W41961   0.308  10.869   0.330
72081W        W41962  28.530  19.614  13.423
72082W        W41963  22.049   1.731   3.870
72083W        W41964  42.370  11.314   3.259
72084W        W41965  39.523  12.170  14.009
72085W        W41966  11.341   4.208   1.274
72086W        W41967  19.098  21.590  10.497
72087W        W41968  21.050  16.169  11.499
72088W        W41969  36.359   2.793   0.278
72089W        W41970  41.863  10.177   3.800
72090W        W41971  35.415  36.934   4.162
72091W        W41972  12.798   3.711  13.366
72092W        W41973  32.994   0.420   3.724
72093W        W41974  11.268  20.235  11.058
72094W        W41975  16.672  26.492   3.657
72095W        W41976  10.298  20.247  11.470
72096W        W41977  15.750  20.109  10.925
72097W        W41978   1.314   8.813  11.516
72098W        W41979   5.245  21.631   3.689
72099W        W41980  36.981  42.026   4.161
72100W        W41981  43.474  30.002  14.498
72101W        W41982  19.657  36.966  14.302
72102W        W41983   5.281  31.103  12.535
72103W        W41984  28.094  36.049   2.667
72104W        W41985  14.182  20.029  13.818
72105W        W41986  11.338   6.366   4.211
72106W        W41987  24.655  30.033   1.745
72107W        W41988  36.575  18.781  13.034
72108W        W41989   9.806  11.305   1.769
72109W        W41990  35.866  36.545  13.908
72110W        W41991  42.486  33.536   1.916
72111W        W41992  32.599  34.413  10.569
72112W        W41993   6.277  15.743   0.387
72113W        W41994  38.847  44.283   3.728
72114W        W41995  27.502  17.143  10.458
72115W        W41996  40.990   1.827   1.414
72116W        W41997  32.530  41.537  12.845
72117W        W41998   3.391  26.541   9.978
72118W        W41999  44.826  34.041  11.583
72119W        W42000  15.174  18.692   3.822
72120W        W42001  22.088   0.902  14.480
72121W        W42002  14.591  18.706   0.315
72122W        W42003  38.015  43.323   1.291
72123W        W42004  37.067  14.818  11.980
72124W        W42005  23.633  26.642  14.367
72125W        W42006   1.973   3.252  12.559
72126W        W42007   6.778  20.122   1.431
72127W        W42008  12.249  23.643   1.334
72128W        W42009  24.546  44.814  12.517
72129W        W42010  12.311  10.315  10.919
72130W        W42011  40.508   6.892  12.004
72131W        W42012  42.935  27.452  13.521
72132W        W42013  39.319  26.039   2.815
72133W        W42014  29.065  25.101  14.306
72134W        W42015  11.353  35.464  10.501
72135W        W42016   2.774  43.373   2.826
72136W        W42017  16.632   0.800  10.586
72137W        W42018  36.548  37.551   4.235
72138W        W42019   2.383  42.319  11.922
72139W        W42020  15.578  36.394   1.249
72140W        W42021  35.916  15.714  10.405
72141W        W42022   6.724   3.315  10.455
72142W        W42023  27.619  33.989  14.481
72143W        W42024  28.446  13.639  11.061
72144W        W42025  21.533   2.286   0.297
72145W        W42026  30.550  25.038   0.474
72146W        W42027  28.509  33.056   0.930
72147W        W42028   7.770  16.101   2.703
72148W        W42029   4.727  10.701   2.313
72149W        W42030   3.825  39.892  13.875
72150W        W42031  19.105  39.487   1.211
72151W        W42032  30.094  28.496   2.211
72152W        W42033  38.511   7.875   4.152
72153W        W42034   3.709  27.608   4.138
72154W        W42035  26.518  41.941   4.290
72155W        W42036  23.161   2.228  10.460
72156W        W42037  14.339  39.976   0.449
72157W        W42038  40.985  39.363  12.882
72158W        W42039   0.963   5.697  14.439
72159W        W42040  43.379  17.795   1.764
72160W        W42041   9.153   5.429   4.791
72161W        W42042  16.212  29.498  14.885
72162W        W42043  23.014  25.003   2.312
72163W        W42044  18.590  19.772  11.990
72164W        W42045  20.658  25.612  10.492
72165W        W42046  10.864  40.382   4.821
72166W        W42047  33.886   2.447  11.127
72167W        W42048  32.517   0.778  14.474
72168W        W42049  20.591   8.757   4.749
72169W        W42050  19.080   7.264  13.951
72170W        W42051  33.942  18.719   3.756
72171W        W42052  12.670  23.528   3.256
72172W        W42053  28.571   3.448   4.233
72173W        W42054   6.680  13.322   2.359
72174W        W42055  10.698  22.534  11.411
72175W        W42056   7.882  21.029   2.331
72176W        W42057  34.465  36.467   1.311
72177W        W42058   2.351  15.264   1.889
72178W        W42059  18.706   6.913   2.407
72179W        W42060  16.654  31.421   0.356
72180W        W42061  16.198  26.088  13.408
72181W        W42062  13.630  13.109  14.988
72182W        W42063  24.973  35.402  12.926
72183W        W42064  27.107  15.627  14.945
72184W        W42065   2.440   5.377  12.400
72185W        W42066  20.263  21.147  13.033
72186W        W42067  10.380   3.299  12.477
72187W        W42068  15.182  28.647   2.834
72188W        W42069  39.041   0.949   4.223
72189W        W42070  43.784  42.454   3.362
72190W        W42071  29.091   2.840   3.818
72191W        W42072  27.119  26.070   9.587
72192W        W42073  18.686  29.015  10.476
72193W        W42074  41.999   1.469   4.602
72194W        W42075   5.322  33.013  10.901
72195W        W42076  44.972   7.268  13.049
72196W        W42077  27.550  33.897  12.024
72197W        W42078  40.866   6.281   2.183
72198W        W42079  36.842  30.481   2.662
72199W        W42080   7.888  23.059  11.384
72200W        W42081  29.143   8.299  12.451
72201W        W42082   9.809  39.877  11.012
72202W        W42083  20.689  19.182  13.532
72203W        W42084  11.127  14.242   4.828
72204W        W42085   7.809  10.141   4.321
72205W        W42086  22.248  34.994   1.374
72206W        W42087  15.763  44.333   0.414
72207W        W42088  35.963  39.326   3.637
72208W        W42089   4.761  42.369  13.879
72209W        W42090  41.954  25.703  11.595
72210W        W42091  10.382   4.262  12.084
72211W        W42092  29.969  31.622  13.529
72212W        W42093  41.379  19.602  12.959
72213W        W42094  26.084  24.049  11.071
72214W        W42095   1.274   1.795  11.090
72215W        W42096  22.166   2.268  12.548
72216W        W42097   5.239  11.809  10.114
72217W        W42098  44.421  23.710  11.609
72218W        W42099  11.740  32.446   2.898
72219W        W42100  20.766  36.930   1.755
72220W        W42101   6.246  20.032  12.009
72221W        W42102  23.607  15.608   3.764
72222W        W42103  20.242  31.917   3.634
72223W        W42104  17.603   7.353   2.244
72224W        W42105  40.054  36.099  12.827
72225W        W42106  26.555  32.444   4.673
72226W        W42107  43.811   9.393   3.732
72227W        W42108  35.050  20.148   3.779
72228W        W42109  31.579  21.643   4.241
72229W        W42110   7.279  42.828   2.754
72230W        W42111  13.642  33.913   2.807
72231W        W42112   7.811   1.318  12.044
72232W        W42113  18.162  44.314  11.566
72233W        W42114  29.503  23.154   0.454
72234W        W42115   7.696  39.326   0.481
72235W        W42116  23.148  41.004  11.600
72236W        W42117  26.511  16.197   2.276
72237W        W42118   3.886  23.115   3.844
72238W        W42119  18.657  43.516   4.347
72239W        W42120   3.420  20.692   0.954
72240W        W42121  13.296  35.002   3.346
72241W        W42122   4.736  19.118  14.935
72242W        W42123  39.522  40.934   4.826
72243W        W42124  28.133   4.336   2.211
72244W        W42125  27.089  40.975   3.355
72245W        W42126  21.519   8.783  14.983
72246W        W42127  11.667  39.847  12.464
72247W        W42128  26.588  39.924  12.556
72248W        W42129   6.313  30.055   2.862
72249W        W42130  29.945   1.365  11.585
72250W        W42131  20.524  17.631  12.389
72251W        W42132  30.478  20.097   4.605
72252W        W42133  41.391  42.859   2.815
72253W        W42134   7.763  38.897   2.835
72254W        W42135  30.930  40.816  12.423
72255W        W42136  37.904  40.888   1.701
72256W        W42137  18.763  11.624  13.059
72257W        W42138  34.425  12.150  11.968
72258W        W42139  24.038  17.712   0.276
72259W        W42140  20.168  35.086  11.083
72260W        W42141  39.976   0.429   4.640
72261W        W42142   8.364   8.294   3.753
72262W        W42143  21.615  39.384  10.470
72263W        W42144  22.249  24.122  13.382
72264W        W42145  36.933  13.251   3.687
72265W        W42146   1.957  25.522   3.686
72266W        W42147  17.127  38.894   0.905
72267W        W42148  15.641  14.112  13.547
72268W        W42149  30.147   1.952   3.200
72269W        W42150  20.059  29.557   1.739
72270W        W42151  40.860  20.550  13.871
72271W        W42152   8.820  34.048   1.317
72272W        W42153   7.826  37.036  13.915
72273W        W42154  32.459   8.707   1.775
72274W        W42155  25.581  30.024   2.212
72275W        W42156   9.252  13.225  11.992
72276W        W42157  16.247  18.679   0.432
72277W        W42158  10.251  23.152   0.315
72278W        W42159  26.125  43.391   3.693
72279W        W42160  40.894  23.236   0.350
72280W        W42161  26.530  37.498  11.898
72281W        W42162  23.002  21.245  11.383
72282W        W42163  22.707  21.662  11.998
72283W        W42164  16.674  27.045  13.871
72284W        W42165   0.329  35.050  11.564
72285W        W42166  38.472  34.473   0.831
72286W        W42167   7.781  19.594   3.744
72287W        W42168  20.056  29.610  12.022
72288W        W42169  12.232  17.170  11.965
72289W        W42170  20.139  14.729   4.249
72290W        W42171  19.075  44.768   9.592
72291W        W42172  42.519  31.454   2.872
72292W        W42173  37.957  10.366  10.507
72293W        W42174  24.029  40.317   0.448
72294W        W42175   4.292  14.288  14.288
72295W        W42176  30.540  10.686   4.754
72296W        W42177  25.115  35.003   4.266
72297W        W42178   7.741   4.755   1.893
72298W        W42179  24.563   0.294  13.915
72299W        W42180  27.009  44.776   4.149
72300W        W42181  37.993  30.499  11.399
72301W        W42182  41.330   6.252  10.523
72302W        W42183  26.602  37.016  12.846
72303W        W42184  21.603  41.365   4.335
72304W        W42185  26.651  12.717  12.907
72305W        W42186  43.842  21.078   4.280
72306W        W42187   2.262  21.133  14.407
72307W        W42188  25.690  44.902  13.480
72308W        W42189  18.733  29.520  12.411
72309W        W42190  17.220  39.338  14.953
72310W        W42191  38.025  32.501  10.995
72311W        W42192   9.850  32.946   4.139
72312W        W42193  10.384   2.950   1.791
72313W        W42194  38.366  42.314  10.953
72314W        W42195  21.051   4.833   0.279
72315W        W42196   4.299  22.036   4.829
72316W        W42197   1.449  26.693   4.225
72317W        W42198   8.327  41.036  10.995
72318W        W42199  34.508  24.586  11.550
72319W        W42200  28.483  29.149  14.998
72320W        W42201  15.757   8.782  12.517
72321W        W42202   6.310  28.081  11.873
72322W        W42203   3.915   6.326   2.210
72323W        W42204  37.965  13.334  11.860
72324W        W42205   5.411  20.713  10.561
72325W        W42206  25.072  44.919   3.236
72326W        W42207  24.515  10.198  11.383
72327W        W42208  17.780  40.525   2.249
72328W        W42209   0.987  22.648  11.483
72329W        W42210  19.239  30.101  14.950
72330W        W42211   1.820  14.201  13.030
72331W        W42212  24.219   1.943   1.343
72332W        W42213  18.143   3.453  10.639
72333W        W42214   8.693   2.899  11.606
72334W        W42215  27.512   3.812   3.768
72335W        W42216  36.851  31.017   1.810
72336W        W42217  12.234  11.142   4.164
72337W        W42218   5.425   0.276  14.861
72338W        W42219  25.467   0.282  13.903
72339W        W42220  38.449   6.200  14.862
72340W        W42221  24.144  19.114  11.116
72341W        W42222  19.696  19.750   4.657
72342W        W42223   7.353  12.801  12.433
72343W        W42224   6.381  32.468   3.746
72344W        W42225  19.750  31.015   0.451
72345W        W42226  29.531  10.809  13.524
72346W        W42227   8.871  24.998  13.502
72347W        W42228  37.020  26.087   0.932
72348W        W42229  12.685  41.301  13.418
72349W        W42230  30.981  42.454   3.632
72350W        W42231  26.198   2.814  14.432
72351W        W42232   7.694  42.336  12.967
72352W        W42233   7.262   6.196  11.077
72353W        W42234  19.206   8.886  13.908
72354W        W42235  41.977  17.137  11.942
72355W        W42236  12.626  14.236   0.317
72356W        W42237  36.967  12.755  14.784
72357W        W42238  37.449  20.755  10.944
72358W        W42239  32.590  30.604   4.727
72359W        W42240  15.817  16.627   4.228
72360W        W42241   2.274  34.460   3.217
72361W        W42242   1.862  19.154   2.211
72362W        W42243   8.702   4.928   5.177
72363W        W42244  28.177  42.432  11.905
72364W        W42245  12.679   2.407   0.480
72365W        W42246  24.042  23.637  11.445
72366W        W42247  42.014  30.658  12.055
72367W        W42248   2.928  15.155   4.219
72368W        W42249  22.016  16.219  12.559
72369W        W42250   1.915  42.385  12.563
72370W        W42251  30.092   2.452   0.256
72371W        W42252  19.711  39.467   2.759
72372W        W42253  34.581   1.366  11.463
72373W        W42254  43.805  15.232   3.714
72374W        W42255  27.134  25.142   0.263
72375W        W42256  16.297  24.015  14.413
72376W        W42257   2.966  14.207   0.403
72377W        W42258  23.104  26.068   0.431
72378W        W42259   7.787  28.094  11.474
72379W        W42260  22.745   7.196  13.370
72380W        W42261  41.932  22.125   2.277
72381W        W42262  14.664   7.858   4.260
72382W        W42263  41.298  42.983   3.350
72383W        W42264  16.780  32.563  11.461
72384W        W42265  28.675  14.699   0.755
72385W        W42266  42.426   4.276  11.899
72386W        W42267  32.422  20.738  14.286
72387W        W42268  38.334  42.489   4.312
72388W        W42269   6.283  31.093   4.190
72389W        W42270  17.094   4.378   1.767
72390W        W42271   2.431   3.949  14.910
72391W        W42272   7.272  44.953  10.628
72392W        W42273  16.138  18.172   4.648
72393W        W42274   7.223  27.043   4.790
72394W        W42275   7.175  33.512   3.290
72395W        W42276  42.352  12.626   4.802
72396W        W42277   6.391   0.400   1.246
72397W        W42278  27.085  40.445   4.752
72398W        W42279  38.357  41.522   3.199
72399W        W42280   8.232  25.967   3.272
72400W        W42281  17.587  21.153  10.897
72401W        W42282  19.623  21.636   3.291
72402W        W42283   3.443  34.585  10.105
72403W        W42284  36.035   6.781   0.910
72404W        W42285  11.177  24.196  14.370
72405W        W42286   0.858   5.743   0.243
72406W        W42287  29.118  17.653  11.939
72407W        W42288  31.442  13.165  10.543
72408W        W42289  38.930  13.135  11.087
72409W        W42290  42.511   4.860   3.317
72410W        W42291  27.651   2.958   3.781
72411W        W42292   8.898  28.184   0.870
72412W        W42293  32.531   4.886   0.466
72413W        W42294   6.303  33.103   4.637
72414W        W42295  12.132   9.860   1.775
72415W        W42296  10.795  43.286  13.513
72416W        W42297  10.730   2.886  12.459
72417W        W42298  18.075   6.882  12.928
72418W        W42299  13.733  26.556   2.370
72419W        W42300  34.454  30.537   2.337
72420W        W42301  43.392  37.548  12.061
72421W        W42302  15.737  11.628  11.440
72422W        W42303  32.410  17.633   5.153
72423W        W42304  42.968   8.728   2.219
72424W        W42305  35.062  31.504   1.736
72425W        W42306  15.679  36.477  12.897
72426W        W42307  38.395  19.555  13.377
72427W        W42308   5.827  39.975   0.824
72428W        W42309  23.021  30.522   1.272
72429W        W42310  17.235  37.072   1.728
72430W        W42311   1.820   6.707   1.338
72431W        W42312  12.797   4.874   0.243
72432W        W42313  39.395  27.194   2.248
72433W        W42314  13.674  18.598  11.001
72434W        W42315  19.658  31.057   5.734
72435W        W42316  30.012  38.841   2.812
72436W        W42317  14.626  22.240  14.889
72437W        W42318  14.632   6.242   1.365
72438W        W42319   6.206  22.729  10.088
72439W        W42320   2.417  16.146   1.262
72440W        W42321  33.507  38.438   0.341
72441W        W42322   8.838  35.906   2.249
72442W        W42323  23.601  27.126  13.046
72443W        W42324   5.716  12.314   4.258
72444W        W42325  32.129  25.508   4.195
72445W        W42326  13.669  36.073  13.006
72446W        W42327  31.526  18.707  14.990
72447W        W42328  17.746  39.489   3.799
72448W        W42329   0.861  33.126   4.726
72449W        W42330  20.647  20.087   0.733
72450W        W42331  26.607  21.190  13.967
72451W        W42332   4.350  23.730  12.410
72452W        W42333  30.626  22.009   0.774
72453W        W42334  22.704   8.845   2.683
72454W        W42335  19.669  13.326  11.077
72455W        W42336  31.431  15.318   3.656
72456W        W42337  21.166  15.755   9.988
72457W        W42338  41.336  39.972   2.868
72458W        W42339  25.475  29.481   0.445
72459W        W42340   6.379  44.337  10.516
72460W        W42341   0.348   5.878   4.308
72461W        W42342  38.388  26.514   4.229
72462W        W42343  39.380  24.160  14.330
72463W        W42344  19.743   0.446  13.958
72464W        W42345  10.709  34.013   3.256
72465W        W42346  39.316  13.692   2.785
72466W        W42347  19.080  44.889  13.316
72467W        W42348  38.040  14.129   0.927
72468W        W42349  33.401   6.351  13.039
72469W        W42350   9.184  23.555  14.770
72470W        W42351  39.929  30.444   4.353
72471W        W42352  18.170  31.543  10.528
72472W        W42353   5.857  22.112   3.747
72473W        W42354  15.097  22.639   1.786
72474W        W42355  14.212  39.880  13.445
72475W        W42356  41.531  29.923   2.697
72476W        W42357  19.612  36.559  12.397
72477W        W42358   9.314  40.875  13.386
72478W        W42359  15.775  22.664   0.957
72479W        W42360   7.674   8.680   3.328
72480W        W42361  23.536  14.627   0.844
72481W        W42362  32.393  34.612  11.386
72482W        W42363  26.673  37.024  14.387
72483W        W42364  16.583  32.440   1.240
72484W        W42365   5.731  21.590   3.309
72485W        W42366  41.799  15.651  11.889
72486W        W42367  18.273  21.724  10.922
72487W        W42368  35.052  28.089  12.889
72488W        W42369  29.002   9.310  10.920
72489W        W42370   7.286  31.994   1.364
72490W        W42371  24.493  29.958  14.828
72491W        W42372  36.856  36.078   0.312
72492W        W42373  26.066  41.373   1.829
72493W        W42374  30.923  16.233   0.289
72494W        W42375   8.323  38.331   3.268
72495W        W42376  26.536  33.896  12.407
72496W        W42377  13.257   0.773   2.796
72497W        W42378   5.422  24.632  11.065
72498W        W42379  17.670  43.310  11.397
72499W        W42380  30.470  36.428   4.662
72500W        W42381  43.016  31.613   3.805
72501W        W42382  34.000  43.942   2.799
72502W        W42383   2.448   1.346  12.874
72503W        W42384   0.815  30.635   5.090
72504W        W42385  12.742  17.132   1.902
72505W        W42386  34.544  40.029  12.378
72506W        W42387  38.435  30.089   4.226
72507W        W42388  22.237  21.017   4.323
72508W        W42389  21.639   6.708   1.823
72509W        W42390   2.247  33.050  11.953
72510W        W42391   0.406  23.727   4.192
72511W        W42392  27.149  21.078  12.992
72512W        W42393  43.356   1.746  10.986
72513W        W42394  25.135  37.413  14.495
72514W        W42395  44.789  27.972  12.555
72515W        W42396  39.327   8.883  14.868
72516W        W42397  13.728   8.319   4.722
72517W        W42398  26.205  41.917  14.911
72518W        W42399   2.255  33.473   1.361
72519W        W42400  10.195  18.066   2.269
72520W        W42401  17.273  19.133  14.320
72521W        W42402  30.037  14.293  13.508
72522W        W42403  23.077  31.477   0.268
72523W        W42404   9.328  26.135   3.683
72524W        W42405  15.744  41.987  13.354
72525W        W42406   0.452  35.862   0.837
72526W        W42407  13.608  40.801   2.665
72527W        W42408   7.214  14.732   2.342
72528W        W42409  31.897  16.267   2.829
72529W        W42410   8.868  43.813   1.862
72530W        W42411  44.308   7.910  14.314
72531W        W42412  40.969   3.305   1.699
72532W        W42413  30.585  38.405   4.354
72533W        W42414  14.122  40.858   0.849
72534W        W42415  18.674  21.148   0.476
72535W        W42416  31.466   4.910   2.313
72536W        W42417  10.715  11.219  13.533
72537W        W42418   9.211   7.876  13.476
72538W        W42419  15.814  29.989  13.808
72539W        W42420  23.125  23.710  14.794
72540W        W42421  25.628  20.052   3.816
72541W        W42422  26.526   0.881   4.186
72542W        W42423  36.412  26.554   1.781
72543W        W42424   2.835  44.482   2.304
72544W        W42425  35.911  37.052   3.365
72545W        W42426   7.849  31.088   2.688
72546W        W42427  25.492  30.592   0.274
72547W        W42428  40.486  22.635  13.954
72548W        W42429  22.727  29.636   0.269
72549W        W42430  17.157  39.396   2.891
72550W        W42431   8.758  14.717   0.381
72551W        W42432   5.890  40.842  12.024
72552W        W42433  11.724  27.524  14.912
72553W        W42434  28.092   2.889   3.165
72554W        W42435  27.473   7.842   0.903
72555W        W42436  33.407  24.591   4.676
72556W        W42437  22.232  40.492   4.175
72557W        W42438  21.568  21.106  14.472
72558W        W42439  14.590  23.089   4.812
72559W        W42440   5.410   4.415  13.938
72560W        W42441  31.022   2.783  12.913
72561W        W42442  22.197  39.896  14.012
72562W        W42443   0.470   5.400  12.410
72563W        W42444   1.743  38.910   3.210
72564W        W42445   7.365   2.314   4.284
72565W        W42446   4.712  21.618   3.751
72566W        W42447  38.371  10.306   1.319
72567W        W42448  19.589  23.500  12.956
72568W        W42449  14.159  25.081   4.340
72569W        W42450  42.921  33.916  10.642
72570W        W42451  18.094   0.301   4.648
72571W        W42452  23.192  40.526   1.779
72572W        W42453   4.255  28.934   1.231
72573W        W42454  22.648  26.982   0.329
72574W        W42455   0.934  12.637  11.947
72575W        W42456  41.828  24.492   0.309
72576W        W42457   9.181  15.199  13.513
72577W        W42458  36.919  14.738   2.707
72578W        W42459  20.732  40.420  14.803
72579W        W42460  27.084   0.806  14.022
72580W        W42461  22.551  29.550  13.924
72581W        W42462   0.933   4.269  10.634
72582W        W42463   4.324   3.348  14.020
72583W        W42464  15.727  36.930   4.137
72584W        W42465   4.706  37.496  10.895
72585W        W42466  33.962  15.747  10.552
72586W        W42467  37.873  24.096   4.777
72587W        W42468   8.363  39.926   2.272
72588W        W42469  38.559  42.392   2.818
72589W        W42470  41.899   6.870   4.627
72590W        W42471  38.544  44.462   2.682
72591W        W42472   7.717  14.812   4.324
72592W        W42473  27.030  10.633  13.945
72593W        W42474  38.905  14.668  12.538
72594W        W42475  19.173  29.429   0.358
72595W        W42476  26.483   5.769  13.952
72596W        W42477  22.162  17.240   3.824
72597W        W42478  19.731  41.909  13.873
72598W        W42479  26.065   9.875   3.774
72599W        W42480  16.751  36.015   3.242
72600W        W42481  22.713  28.002  10.101
72601W        W42482  36.360  17.633  13.311
72602W        W42483   4.215  16.250   4.242
72603W        W42484  42.791  40.002  14.416
72604W        W42485  29.539  22.557  10.629
72605W        W42486  28.176  19.065   4.622
72606W        W42487  21.538  11.229   1.832
72607W        W42488  19.053  18.622   4.622
72608W        W42489   2.906  38.460  13.879
72609W        W42490  10.713   1.377   4.188
72610W        W42491  22.133   8.768  10.914
72611W        W42492  14.817  28.572   2.793
72612W        W42493  10.792  15.104   0.911
72613W        W42494  34.958  40.901  11.939
72614W        W42495   0.421   4.435   4.637
72615W        W42496  44.793  13.142  14.874
72616W        W42497   1.973  16.569  14.798
72617W        W42498  33.544   2.313   4.684
72618W        W42499  20.600  24.484  10.544
72619W        W42500  31.564   3.855  14.937
72620W        W42501   4.903  34.499   3.336
72621W        W42502   9.693  22.514   2.253
72622W        W42503  13.279  20.203   1.222
72623W        W42504  30.116  17.204   5.246
72624W        W42505  36.407  37.341  10.470
72625W        W42506  25.637  30.077   4.627
72626W        W42507  19.561   9.842   4.332
72627W        W42508   6.793  41.878  11.929
72628W        W42509  10.377  32.931   4.319
72629W        W42510  29.613   3.832  14.403
72630W        W42511  41.872  43.013  12.404
72631W        W42512  10.639  25.493  11.453
72632W        W42513   9.887  26.675   0.411
72633W        W42514   7.253  42.915  11.497
72634W        W42515  15.818  32.514  12.475
72635W        W42516  22.677   9.847   2.224
72636W        W42517  27.034  43.945  13.486
72637W        W42518  24.544  44.861   4.270
72638W        W42519  26.577  40.047  14.794
72639W        W42520  32.614   9.155   3.187
72640W        W42521  41.863   0.980   3.265
72641W        W42522  12.732  21.169   1.293
72642W        W42523  43.977  27.654  12.433
72643W        W42524  36.916   6.349  13.039
72644W        W42525  20.206   0.879   4.603
72645W        W42526  16.687  13.642   1.437
72646W        W42527  37.870  42.964   2.213
72647W        W42528  44.296  31.977  12.564
72648W        W42529   0.936   8.880  11.059
72649W        W42530  43.388  22.190   1.324
72650W        W42531  32.024  19.553  13.316
72651W        W42532  25.558  15.195   3.382
72652W        W42533  32.425  39.821  14.791
72653W        W42534   4.755  20.746   2.262
72654W        W42535  24.535  19.163   1.380
72655W        W42536  16.714   2.457  12.826
72656W        W42537  32.425  31.460   4.741
72657W        W42538  18.655  19.616  12.949
72658W        W42539  10.354   3.400   1.236
72659W        W42540  25.653  27.064  14.283
72660W        W42541   1.959  23.596   3.832
72661W        W42542  23.508  13.674   4.192
72662W        W42543  10.241  40.878  14.296
72663W        W42544  35.912   7.866   1.837
72664W        W42545  14.610  29.065  13.390
72665W        W42546  15.162  40.530   0.780
72666W        W42547  44.300   0.316   0.389
72667W        W42548  40.525  22.018  13.530
72668W        W42549  20.120  34.446   4.295
72669W        W42550  24.141  10.336  11.567
72670W        W42551  16.166  13.171   0.861
72671W        W42552  37.520  28.634   0.470
72672W        W42553  26.585  28.547  14.889
72673W        W42554   7.843   1.461   3.348
72674W        W42555   7.192  23.584  14.953
72675W        W42556   1.346  34.903   0.819
72676W        W42557  33.611  30.640  12.940
72677W        W42558  11.319  21.711   3.824
72678W        W42559  13.296  28.667   2.408
72679W        W42560  14.702  30.494   3.829
72680W        W42561  33.931  39.955  10.468
72681W        W42562  24.225   0.873  10.455
72682W        W42563   2.886   9.741   3.201
72683W        W42564  44.801  40.410   3.695
72684W        W42565  41.440  29.522  11.073
72685W        W42566   9.334  43.415  11.578
72686W        W42567   4.824  41.362  13.966
72687W        W42568  25.714   5.323  14.885
72688W        W42569   2.286  38.967   2.364
72689W        W42570  24.585  14.594   0.322
72690W        W42571   4.898  44.355   2.204
72691W        W42572  30.093  16.187  13.507
72692W        W42573  31.633  32.120   3.356
72693W        W42574  37.426  19.080  11.543
72694W        W42575  42.337   9.252  13.044
72695W        W42576  43.350  24.047   2.316
72696W        W42577  35.537  19.205   4.228
72697W        W42578  17.239  31.574   1.423
72698W        W42579   1.857  35.901   3.294
72699W        W42580   8.678  36.419  10.636
72700W        W42581  21.050  17.662  14.799
72701W        W42582   0.988  25.069  13.403
72702W        W42583  43.378  17.742  12.388
72703W        W42584  31.966   3.448   0.847
72704W        W42585  27.952  35.511   3.240
72705W        W42586   7.777  31.623  10.422
72706W        W42587   0.748   4.921  12.960
72707W        W42588  20.175  27.497   4.223
72708W        W42589  39.461  12.777  13.318
72709W        W42590  31.444  25.493  10.493
72710W        W42591  27.571  37.527  13.510
72711W        W42592  11.182  42.988   0.752
72712W        W42593  20.638  23.554  13.035
72713W        W42594  30.631  30.058   4.608
72714W        W42595  12.698  15.189   2.261
72715W        W42596   6.329  42.996   3.195
72716W        W42597  14.287   2.415   4.699
72717W        W42598  10.205  18.742   0.384
72718W        W42599  14.117  23.157   1.771
72719W        W42600   4.438   1.866   1.880
72720W        W42601  36.037  32.964   1.861
72721W        W42602  24.114  25.049   2.824
72722W        W42603  25.661  35.955  13.362
72723W        W42604  43.934   1.921   1.856
72724W        W42605  37.989  43.339  11.929
72725W        W42606   3.219  12.739  10.124
72726W        W42607   0.754  32.555   2.372
72727W        W42608   8.382  36.047   0.331
72728W        W42609   7.862  23.073  14.880
72729W        W42610  14.697  14.684  11.612
72730W        W42611  33.472  30.514   2.797
72731W        W42612  20.238  29.986   0.269
72732W        W42613  32.987  18.748  12.007
72733W        W42614  10.793  13.135  12.573
72734W        W42615  22.095  17.720  13.427
72735W        W42616   9.283  33.450  12.441
72736W        W42617  11.708  18.256   2.834
72737W        W42618   8.402  11.733   0.875
72738W        W42619  36.435  24.653  13.040
72739W        W42620  35.568  20.525  11.566
72740W        W42621  29.111   7.210   1.708
72741W        W42622  34.447  26.013  14.963
72742W        W42623  43.501   2.789  12.559
72743W        W42624  24.519  21.038  11.869
72744W        W42625  41.956  29.077  10.946
72745W        W42626   3.827  27.166   4.768
72746W        W42627   2.232  30.026  12.064
72747W        W42628  31.935  11.638  12.858
72748W        W42629   7.386   8.368  10.527
72749W        W42630   2.282  10.718  13.374
72750W        W42631   1.440  23.217   4.324
72751W        W42632  20.528  16.214   2.863
72752W        W42633  40.996  32.105   1.853
72753W        W42634  20.099   9.647  11.457
72754W        W42635  35.597  40.539  14.312
72755W        W42636  37.057   1.475   2.896
72756W        W42637  11.319  37.018   1.800
72757W        W42638  26.468   0.418  10.410
72758W        W42639  26.596   1.956  14.333
72759W        W42640  30.442  33.497  13.895
72760W        W42641  18.169  42.893  11.003
72761W        W42642   4.768  29.611   0.479
72762W        W42643  32.417  10.762   4.293
72763W        W42644  24.003  17.297   5.647
72764W        W42645  32.616  22.247  11.080
72765W        W42646  14.217  17.208  10.557
72766W        W42647  17.690  18.071  12.503
72767W        W42648  39.513  12.742   3.632
72768W        W42649  28.182  29.598   0.357
72769W        W42650  32.543  29.016   0.787
72770W        W42651  20.677  35.967   2.840
72771W        W42652  41.500  12.115   4.795
72772W        W42653  26.178  34.878  11.997
72773W        W42654  11.318   6.311   1.232
72774W        W42655  22.597   5.379   1.317
72775W        W42656  34.986  18.157  13.321
72776W        W42657  30.039  26.967   1.424
72777W        W42658   2.274  22.995  12.566
72778W        W42659  31.988  23.673   2.873
72779W        W42660  21.254   6.756   3.382
72780W        W42661  11.259   1.788  11.541
72781W        W42662  12.797  37.013  11.409
72782W        W42663  10.228  20.741  12.349
72783W        W42664  42.505  26.663  13.408
72784W        W42665  37.062   8.668   3.668
72785W        W42666  13.748   2.384  14.854
72786W        W42667  42.027  12.739   5.244
72787W        W42668  40.538  24.167   3.156
72788W        W42669   6.765  43.834   3.758
72789W        W42670  30.949  21.745   2.685
72790W        W42671  43.861   9.730   3.147
72791W        W42672  25.611   6.419   1.895
72792W        W42673  38.875  12.277  12.495
72793W        W42674  19.572   1.409  11.013
72794W        W42675  21.660  44.323  10.418
72795W        W42676   9.322  19.132  10.925
72796W        W42677  28.632  12.197  14.950
72797W        W42678  35.102  25.666   1.323
72798W        W42679  26.048  18.609   3.710
72799W        W42680  44.318   0.835  13.834
72800W        W42681  35.366   8.271  11.019
72801W        W42682  28.606  12.812   2.662
72802W        W42683  44.825   4.802  10.503
72803W        W42684  42.367   4.927   3.724
72804W        W42685  18.741  19.224   0.934
72805W        W42686  27.582  24.710   4.147
72806W        W42687  12.670   9.816   1.220
72807W        W42688  23.132   2.307   4.258
72808W        W42689  32.037  28.110  14.985
72809W        W42690  27.068   7.345   0.841
72810W        W42691  37.341  18.247   0.929
72811W        W42692  17.127  39.943  14.879
72812W        W42693  42.385   4.766  12.399
72813W        W42694   3.454  38.498  12.483
72814W        W42695  25.609  44.345  14.386
72815W        W42696   0.382   7.416   2.178
72816W        W42697  30.107  18.225  13.410
72817W        W42698   7.756   9.837   2.201
72818W        W42699  20.734  43.960  12.543
72819W        W42700  15.161  20.051   0.833
72820W        W42701  13.231  18.773   3.773
72821W        W42702  31.534   6.363   3.756
72822W        W42703  28.105  39.527   1.716
72823W        W42704   0.987  16.704   1.738
72824W        W42705  18.145  16.203  12.465
72825W        W42706  38.414  33.527  12.058
72826W        W42707   3.233  35.460   4.648
72827W        W42708  29.525  21.245  12.854
72828W        W42709  40.994  43.917  10.983
72829W        W42710   5.276  12.750  14.390
72830W        W42711  36.541   1.761   2.218
72831W        W42712  41.912  42.788   2.305
72832W        W42713  38.560  25.510   2.888
72833W        W42714  21.700  30.008  10.890
72834W        W42715  15.596  12.218   0.894
72835W        W42716  14.187  42.397  12.831
72836W        W42717  17.084   6.257  10.615
72837W        W42718   9.373  26.540  12.926
72838W        W42719  28.515  15.191  14.866
72839W        W42720  21.746  37.980  12.077
72840W        W42721  22.649  25.178   4.202
72841W        W42722  38.819  13.291   1.360
72842W        W42723   5.849   3.782   0.901
72843W        W42724  18.562  40.919   4.609
72844W        W42725  28.605  43.488   1.745
72845W        W42726  29.443  41.538  14.436
72846W        W42727   7.389  43.970   3.795
72847W        W42728   3.293  33.882  11.587
72848W        W42729  38.057   9.857  11.427
72849W        W42730  11.334  36.520  11.859
72850W        W42731  23.704   4.768   9.964
72851W        W42732  17.794  11.367   4.279
72852W        W42733   0.852  23.731  11.388
72853W        W42734  38.021  43.304   2.690
72854W        W42735   0.866  28.020  14.026
72855W        W42736  15.242  19.579  11.958
72856W        W42737   4.892  35.508   0.401
72857W        W42738  31.153  13.649  12.405
72858W        W42739  43.397   8.868  13.318
72859W        W42740  13.620  39.396   5.103
72860W        W42741  14.323  15.637  14.308
72861W        W42742  38.838  11.315  12.499
72862W        W42743   1.321   1.916   4.325
72863W        W42744  30.098   6.341   2.896
72864W        W42745  41.827  32.459   0.264
72865W        W42746  39.864  42.031  11.393
72866W        W42747   1.748   7.788   4.827
72867W        W42748   5.364  36.908   2.879
72868W        W42749  44.475  40.805  14.797
72869W        W42750  17.639  36.845   1.338
72870W        W42751  34.941  43.347  12.848
72871W        W42752  11.805  16.252  10.569
72872W        W42753  34.920  38.031  11.509
72873W        W42754  16.808  28.073   4.247
72874W        W42755  26.070  38.028  13.910
72875W        W42756  22.061   1.765  14.766
72876W        W42757   5.843  15.719  13.366
72877W        W42758  27.061   3.219   4.150
72878W        W42759   9.651  40.895   2.707
72879W        W42760  38.543   4.443  14.892
72880W        W42761  36.054   6.278   2.744
72881W        W42762  24.224  21.250  11.565
72882W        W42763  41.363   9.702   2.664
72883W        W42764  31.128  37.949   4.600
72884W        W42765  40.944  11.684  14.351
72885W        W42766  12.122  31.148   3.329
72886W        W42767  40.961  43.841   4.311
72887W        W42768  38.383  43.814   3.784
72888W        W42769  16.181   8.719  10.553
72889W        W42770  35.533   1.445   3.158
72890W        W42771  15.198  31.027   2.318
72891W        W42772   5.192  31.052  10.554
72892W        W42773  37.995   3.801   1.697
72893W        W42774  40.489  28.481  14.433
72894W        W42775  22.503  27.536   0.846
72895W        W42776  26.663  28.092  14.437
72896W        W42777  19.255  16.296  14.763
72897W        W42778  19.110  13.222   0.341
72898W        W42779  26.057  10.331  14.276
72899W        W42780  33.971  27.599  12.854
72900W        W42781  39.855   1.290  11.093
72901W        W42782  19.280  31.551   4.193
72902W        W42783   0.797  16.798  13.857
72903W        W42784   7.746  39.404   1.280
72904W        W42785  23.091  35.583  11.026
72905W        W42786   1.835  16.122   4.301
72906W        W42787  34.589  11.268  13.995
72907W        W42788   4.819  27.459   4.271
72908W        W42789  27.067  30.458   2.668
72909W        W42790   4.249   2.857   3.384
72910W        W42791  25.585   2.749   4.344
72911W        W42792  24.044  36.393   4.827
72912W        W42793  18.273  20.195  11.008
72913W        W42794  32.947  10.293   1.353
72914W        W42795  11.133  18.633   1.368
72915W        W42796   8.772  28.471  11.891
72916W        W42797  42.959  30.974  13.877
72917W        W42798  31.131  29.648   4.696
72918W        W42799  29.011   0.479   4.287
72919W        W42800  15.156  43.310   3.739
72920W        W42801  33.002  38.519   4.259
72921W        W42802  35.585  29.465   0.429
72922W        W42803  28.180  19.628   4.780
72923W        W42804  44.845  14.608  14.920
72924W        W42805  30.569  29.658  14.359
72925W        W42806   8.684  16.207   1.779
72926W        W42807  38.838  42.490   4.269
72927W        W42808   1.321  19.638   3.332
72928W        W42809  17.254  15.605  12.394
72929W        W42810  12.241  15.607   0.255
72930W        W42811   5.781   1.289   0.395
72931W        W42812   9.705  13.627   4.811
72932W        W42813  11.709  33.432  13.403
72933W        W42814  28.614  33.536  11.868
72934W        W42815   3.250  14.680   4.739
72935W        W42816  33.427   0.414  10.080
72936W        W42817  32.589  29.586   2.322
72937W        W42818  11.686  37.930   4.243
72938W        W42819  22.523  35.462   4.697
72939W        W42820  32.031  43.305   0.850
72940W        W42821   3.775   6.770   0.843
72941W        W42822  29.001  31.974   4.662
72942W        W42823  29.502   0.255  13.988
72943W        W42824   5.353  10.785   1.238
72944W        W42825  24.215  43.875  13.366
72945W        W42826  33.619  27.560  11.102
72946W        W42827  28.056  19.698  11.379
72947W        W42828   3.774   0.322  10.448
72948W        W42829  17.787  20.605   3.753
72949W        W42830  39.915   9.349  14.810
72950W        W42831  14.732  12.227  14.358
72951W        W42832  11.201  32.493   3.672
72952W        W42833  20.563   1.293  13.973
72953W        W42834  18.675   7.839   0.889
72954W        W42835  15.740  35.503   1.788
72955W        W42836  40.890  29.996   4.759
72956W        W42837  35.407   4.932  11.027
72957W        W42838  19.134  41.351  13.023
72958W        W42839  17.725  37.985   4.716
72959W        W42840   5.883  33.123  12.934
72960W        W42841  12.664  24.094   2.200
72961W        W42842  12.800   9.704   0.242
72962W        W42843  18.707   2.396   0.900
72963W        W42844  21.205  44.453   2.855
72964W        W42845  36.527  14.252  11.980
72965W        W42846  37.530   9.246   3.373
72966W        W42847   2.341  10.348   0.925
72967W        W42848  22.125   5.391   3.799
72968W        W42849  27.007   5.256  11.016
72969W        W42850  18.275   5.292  14.443
72970W        W42851  34.415  16.787   1.868
72971W        W42852  37.463  32.483   1.254
72972W        W42853  13.670  15.191  14.281
72973W        W42854  21.525  35.077   1.364
72974W        W42855   5.800  32.480   4.173
72975W        W42856  29.429  40.929   3.203
72976W        W42857  29.963  42.349   2.244
72977W        W42858  39.399  12.703   4.802
72978W        W42859  16.790   4.909   0.962
72979W        W42860  22.113  33.593  10.540
72980W        W42861  41.501  26.626   0.726
72981W        W42862  23.542  28.119   0.924
72982W        W42863  24.108  25.639  12.546
72983W        W42864  41.837  40.942   1.252
72984W        W42865  18.054  24.036   1.222
72985W        W42866  20.754  15.297   0.441
72986W        W42867  39.828  10.702   1.366
72987W        W42868  40.807   4.736   2.882
72988W        W42869   1.313   6.914  12.559
72989W        W42870  43.500  41.854  10.953
72990W        W42871  36.933  44.848   2.272
72991W        W42872  37.420  44.292  14.984
72992W        W42873  24.195  30.494   3.689
72993W        W42874  21.695  32.062  11.956
72994W        W42875  37.906  23.196  14.819
72995W        W42876   7.252  14.213  13.966
72996W        W42877  29.159  25.205   0.426
72997W        W42878  41.480  12.772   0.247
72998W        W42879  24.659  23.088   1.326
72999W        W42880  14.631  21.148   0.306
73000W        W42881  16.691  10.711  12.449
73001W        W42882  24.088  10.709   4.658
73002W        W42883  44.812  31.022  12.523
73003W        W42884  13.333  10.833  11.994
73004W        W42885  10.259  28.542   5.099
73005W        W42886   7.173  39.944   0.728
73006W        W42887  23.523  36.450   3.631
73007W        W42888  24.228  12.634  14.891
73008W        W42889  41.385  36.887   0.293
73009W        W42890   7.274   1.867  11.382
73010W        W42891  39.326  11.830  11.861
73011W        W42892  11.289  39.893   1.223
73012W        W42893  20.540  42.820   3.699
73013W        W42894   1.977  13.336   0.467
73014W        W42895  26.180  24.700   5.199
73015W        W42896  22.511   3.948   2.222
73016W        W42897  14.640  16.567   1.750
73017W        W42898  22.676   7.807  14.988
73018W        W42899  19.690  42.799   0.374
73019W        W42900  24.553   9.731   0.355
73020W        W42901  36.425  35.925  10.059
73021W        W42902  38.353  15.818  13.373
73022W        W42903  28.518  28.119  12.525
73023W        W42904  43.477  43.897   2.666
73024W        W42905   0.459  31.404   4.334
73025W        W42906  28.933  11.196   0.400
73026W        W42907   4.287   1.890  13.037
73027W        W42908  32.572  38.915   9.962
73028W        W42909   8.810  28.090   2.345
73029W        W42910  42.863  30.092   3.271
73030W        W42911  22.188  35.899   2.883
73031W        W42912  17.728  43.396  13.519
73032W        W42913  17.107   1.254  11.104
73033W        W42914  42.352   3.880   0.939
73034W        W42915   0.299  41.484   0.322
73035W        W42916  20.129   4.373   0.254
73036W        W42917  21.030  23.594  14.959
73037W        W42918  26.189  22.649  11.587
73038W        W42919  39.455   9.702  12.896
73039W        W42920  28.657  22.134   0.953
73040W        W42921  12.649  31.947  13.343
73041W        W42922  40.361  39.836   2.836
73042W        W42923  42.778  42.365  12.394
73043W        W42924  33.385  34.883   2.893
73044W        W42925  36.500  25.070   3.635
73045W        W42926  38.827   2.949   3.204
73046W        W42927  19.673  44.356   4.749
73047W        W42928  41.946  37.377   3.379
73048W        W42929  42.953  24.693   1.714
73049W        W42930  34.403  42.931  10.467
73050W        W42931  44.772   2.890  12.420
73051W        W42932  31.634  35.393   2.236
73052W        W42933  38.515   2.820  12.944
73053W        W42934  18.754   9.781   3.818
73054W        W42935   7.396  28.059   2.831
73055W        W42936  36.974  28.605   4.256
73056W        W42937   7.718  38.883  10.978
73057W        W42938  39.358   3.348   0.962
73058W        W42939  11.770   2.338   0.903
73059W        W42940  44.985  22.643   0.407
73060W        W42941  34.085   7.842  11.569
73061W        W42942  37.446  42.998   3.778
73062W        W42943   8.379  29.568   2.208
73063W        W42944  18.263  24.685   0.792
73064W        W42945  38.066  29.080  10.098
73065W        W42946   5.716  26.662  11.524
73066W        W42947  25.065  25.481   0.314
73067W        W42948   0.957  42.384  13.531
73068W        W42949  28.626   4.412  13.895
73069W        W42950  25.159   5.719  12.907
73070W        W42951  40.928  17.779  12.566
73071W        W42952  30.599  10.283  12.855
73072W        W42953  15.209   7.735  13.985
73073W        W42954  41.528  34.083   2.274
73074W        W42955   6.848  17.682   4.749
73075W        W42956  43.426  26.514   5.208
73076W        W42957  25.137  17.743   1.296
73077W        W42958  38.870  39.421  10.466
73078W        W42959  43.915  17.306   2.275
73079W        W42960   4.257  41.993   2.901
73080W        W42961  30.563  21.120   2.858
73081W        W42962  15.632  29.638   0.245
73082W        W42963  33.497  17.663  12.995
73083W        W42964  41.015  43.819   4.638
73084W        W42965  20.160  34.441   3.305
73085W        W42966  44.916  37.961  11.999
73086W        W42967  11.237  44.415  13.797
73087W        W42968  29.164  29.474   2.865
73088W        W42969  11.752   8.258  11.968
73089W        W42970   5.784  17.167  11.556
73090W        W42971  34.415  29.091   4.605
73091W        W42972  16.252  34.405   3.261
73092W        W42973   1.966  30.097   1.247
73093W        W42974  28.503  38.863  10.427
73094W        W42975  15.650  27.183  10.643
73095W        W42976  19.183   8.400  10.548
73096W        W42977  14.753  30.629  12.922
73097W        W42978   9.801  32.536  14.355
73098W        W42979  15.290  26.461   5.172
73099W        W42980  23.094  31.913  11.472
73100W        W42981  35.410  26.139   3.210
73101W        W42982   5.403  17.620   2.696
73102W        W42983  16.290  21.121   1.832
73103W        W42984   8.770  44.327  10.562
73104W        W42985  37.394  39.365   1.794
73105W        W42986  18.564   0.844   2.716
73106W        W42987  18.627  24.688  10.406
73107W        W42988  33.967  43.817   0.811
73108W        W42989  19.613   6.382  12.509
73109W        W42990  42.952  21.551   0.293
73110W        W42991  25.549   8.829   1.366
73111W        W42992  32.936   9.838  13.336
73112W        W42993  27.982  33.069   2.672
73113W        W42994   9.226  21.555   0.363
73114W        W42995  14.714  17.783   1.280
73115W        W42996  19.059  40.940  13.444
73116W        W42997   2.448   1.970  13.353
73117W        W42998  14.108  38.911   0.342
73118W        W42999  11.779  40.364   0.247
73119W        W43000   3.840  12.260  11.126
73120W        W43001   9.175  27.588  11.495
73121W        W43002  40.858  21.106   3.714
73122W        W43003   5.239  43.477   4.259
73123W        W43004   2.721  36.865   2.775
73124W        W43005  22.060   2.766  14.950
73125W        W43006  22.109  29.162   0.928
73126W        W43007  23.708  31.424  14.962
73127W        W43008  29.933  40.055  14.351
73128W        W43009  11.140  17.646   1.237
73129W        W43010   6.757  33.599   0.331
73130W        W43011   3.436   7.304   2.415
73131W        W43012  31.082  18.545  13.546
73132W        W43013  12.765  25.622  11.067
73133W        W43014  26.025  33.129  14.839
73134W        W43015  37.570  32.950  13.517
73135W        W43016  10.316  40.992   0.949
73136W        W43017   6.329  23.100  12.953
73137W        W43018  10.176  21.187  11.102
73138W        W43019   5.741   5.279  14.983
73139W        W43020  17.193   6.695  14.313
73140W        W43021   6.252  11.738   4.123
73141W        W43022  19.568  35.362  13.042
73142W        W43023  33.472  43.321  14.977
73143W        W43024  44.867   8.351  11.569
73144W        W43025   7.674  40.922  13.994
73145W        W43026  42.405  34.067  13.030
73146W        W43027  40.937   4.426   2.185
73147W        W43028  34.550  11.206  12.012
73148W        W43029  15.817  33.992   3.361
73149W        W43030  33.552  10.219   3.755
73150W        W43031  24.702  14.782   2.300
73151W        W43032   1.804  40.514  14.911
73152W        W43033  26.130  40.431   1.275
73153W        W43034  19.737  33.528  12.920
73154W        W43035  25.706  32.569  11.394
73155W        W43036   3.942  42.522   3.633
73156W        W43037  42.307  23.643   2.220
73157W        W43038  39.437  13.332  10.539
73158W        W43039  33.881  33.456   9.976
73159W        W43040  41.970  35.873  14.440
73160W        W43041   2.727  29.443  11.929
73161W        W43042  18.173  21.669   4.292
73162W        W43043  18.631  31.137   0.775
73163W        W43044  16.088  17.611  14.934
73164W        W43045   5.285  10.275   2.752
73165W        W43046  31.559  27.496   2.283
73166W        W43047   1.864  21.576  11.991
73167W        W43048   2.771  33.453  12.371
73168W        W43049   4.301  44.455  13.011
73169W        W43050  33.555  22.243  14.769
73170W        W43051   6.835  35.974  13.991
73171W        W43052  11.361   4.268   3.183
73172W        W43053  38.497  40.402   3.713
73173W        W43054   9.769  36.517  14.508
73174W        W43055  30.011  11.234  13.824
73175W        W43056  21.053   7.353   3.242
73176W        W43057  18.563  41.345  11.873
73177W        W43058  37.397  40.003  14.803
73178W        W43059  19.259   4.877  12.486
73179W        W43060  27.460  13.814   0.462
73180W        W43061  30.109   5.924  11.083
73181W        W43062   1.340  11.320  10.502
73182W        W43063  19.243  33.523  12.399
73183W        W43064  17.295  19.048  11.952
73184W        W43065  12.672  34.102  12.023
73185W        W43066  34.929  31.530  13.878
73186W        W43067  42.867  15.248  14.895
73187W        W43068  21.588  26.663  13.437
73188W        W43069  21.125  26.703   2.299
73189W        W43070  19.259   7.182   3.212
73190W        W43071  12.792   6.323  12.476
73191W        W43072   5.790  39.934  14.494
73192W        W43073  33.104  29.109   3.216
73193W        W43074  15.785   4.287  12.962
73194W        W43075  19.092  22.145  13.986
73195W        W43076  39.405  33.457  14.369
73196W        W43077  36.363  17.619   3.657
73197W        W43078  39.482  44.798  14.496
73198W        W43079  19.645  41.921   2.741
73199W        W43080  43.497  34.570   5.220
73200W        W43081   2.371  29.547   4.796
73201W        W43082  10.138  32.548   3.254
73202W        W43083   2.763  37.980   1.882
73203W        W43084  25.477  42.925   5.167
73204W        W43085  26.100  26.072   2.270
73205W        W43086  41.296  37.847   0.737
73206W        W43087  39.394  41.536   4.670
73207W        W43088  13.188  32.417  10.927
73208W        W43089   6.863  27.473   1.844
73209W        W43090  27.674  39.454   4.248
73210W        W43091  15.765  15.684   9.972
73211W        W43092   0.262  35.437   0.835
73212W        W43093  37.379  30.451   2.314
73213W        W43094  24.492   4.766   4.305
73214W        W43095  22.227  27.078  11.951
73215W        W43096  40.355  39.901   4.251
73216W        W43097   4.863  18.244   9.947
73217W        W43098  42.784   0.897   0.760
73218W        W43099   3.914  21.512  11.937
73219W        W43100  35.486  33.045   1.820
73220W        W43101  29.990   2.256   1.212
73221W        W43102  22.723   1.940  14.904
73222W        W43103  28.572  23.036  11.091
73223W        W43104   3.305   9.713  12.888
73224W        W43105   0.805   0.884   2.377
73225W        W43106   6.280   8.304  14.775
73226W        W43107  32.060  23.614   1.316
73227W        W43108  25.058  28.578  11.934
73228W        W43109  41.997  41.416  10.906
73229W        W43110  19.780  35.976  10.475
73230W        W43111  30.932   4.805  14.790
73231W        W43112  41.529  44.279   0.842
73232W        W43113  12.330  40.422   1.758
73233W        W43114  21.117  24.060   4.640
73234W        W43115  30.577  12.736  13.443
73235W        W43116  15.659   8.281   3.201
73236W        W43117  11.667  44.006   0.360
73237W        W43118  23.026  42.436   1.427
73238W        W43119  15.819  18.259   0.288
73239W        W43120  21.706  10.765   3.214
73240W        W43121  28.008  41.522  12.351
73241W        W43122  32.890  39.934   1.924
73242W        W43123   2.861  22.590   3.782
73243W        W43124  28.619  16.183  13.974
73244W        W43125   0.396  43.900  10.411
73245W        W43126  33.392  29.075  13.400
73246W        W43127  16.226   0.863  11.572
73247W        W43128  39.495  25.207   4.326
73248W        W43129  34.516  26.558   0.470
73249W        W43130   9.176   1.475  10.403
73250W        W43131   7.806   5.357   4.346
73251W        W43132  33.460  14.800   0.397
73252W        W43133   3.956  23.062  10.911
73253W        W43134  27.182  37.374   4.677
73254W        W43135   4.274  28.950  11.380
73255W        W43136  36.013  40.809   3.660
73256W        W43137  44.989  17.147   0.742
73257W        W43138  33.543  42.856   3.836
73258W        W43139  18.714  43.399  12.502
73259W        W43140  40.475   9.200  11.933
73260W        W43141  29.040  43.016  13.530
73261W        W43142  39.500  17.582   4.741
73262W        W43143  28.580  42.792  12.471
73263W        W43144  25.525  10.844  14.863
73264W        W43145   7.779  26.983   2.327
73265W        W43146  34.956  30.442   5.270
73266W        W43147  28.464  33.574   1.336
73267W        W43148  28.992  28.647  14.002
73268W        W43149  43.953   3.419  11.966
73269W        W43150  21.131  25.702  13.540
73270W        W43151  20.035  26.523   3.375
73271W        W43152   3.838  10.642  14.394
73272W        W43153  28.148  22.626   3.867
73273W        W43154  17.100  26.031  13.826
73274W        W43155  43.470  20.541   1.700
73275W        W43156  41.477  24.010   2.727
73276W        W43157  26.492  35.022   1.424
73277W        W43158  35.067   2.449  12.377
73278W        W43159  41.467   9.210  14.322
73279W        W43160   2.404  31.602  11.574
73280W        W43161  32.904  19.152  11.416
73281W        W43162  30.148  34.412  13.433
73282W        W43163  38.570  25.219   3.146
73283W        W43164   5.933   9.263  11.069
73284W        W43165   5.902  37.844  14.381
73285W        W43166   0.480  20.582   1.851
73286W        W43167   8.376  30.594   1.273
73287W        W43168  36.060  37.515  14.806
73288W        W43169  39.446  44.505  14.456
73289W        W43170  22.670   7.888   0.870
73290W        W43171  39.956  24.545  12.061
73291W        W43172  11.345  11.317  14.513
73292W        W43173   7.885  24.170  13.002
73293W        W43174  13.673  43.952   0.763
73294W        W43175  25.978  35.980   1.708
73295W        W43176  13.335  21.118  12.553
73296W        W43177  38.914   4.293  12.479
73297W        W43178  15.590  36.052  13.934
73298W        W43179  22.225   4.709   3.686
73299W        W43180  32.494  37.497   3.349
73300W        W43181  34.607  39.925  11.895
73301W        W43182  15.753  22.529   1.416
73302W        W43183  32.001  33.544   1.747
73303W        W43184  10.223   8.706  10.088
73304W        W43185   6.315  21.035  11.476
73305W        W43186   5.730  10.316   4.814
73306W        W43187  31.094  29.660   1.764
73307W        W43188  40.381  30.487   4.824
73308W        W43189  38.998   3.445  13.957
73309W        W43190  15.689   4.909  13.983
73310W        W43191  28.183  14.820   0.392
73311W        W43192  37.074  37.892  11.406
73312W        W43193  11.275  42.372  12.075
73313W        W43194  10.662  44.895  10.500
73314W        W43195  43.021  29.120  10.409
73315W        W43196  29.092  34.547   2.295
73316W        W43197  39.840   7.223   4.133
73317W        W43198  21.017   2.417  14.451
73318W        W43199  30.652  32.063  12.847
73319W        W43200  25.573  24.031   1.840
73320W        W43201  44.335  37.038  11.942
73321W        W43202   1.313  34.370   0.790
73322W        W43203   1.748  19.659  10.618
73323W        W43204  29.539   1.327  11.424
73324W        W43205  24.980   8.282   0.767
73325W        W43206  20.058   2.237   1.385
73326W        W43207  28.596  23.682  14.972
73327W        W43208   7.885  30.500   0.447
73328W        W43209  43.965   4.265   1.811
73329W        W43210  28.994  21.554   0.337
73330W        W43211  36.462  26.205  13.537
73331W        W43212   9.874  43.897  12.953
73332W        W43213  30.146  33.019  11.442
73333W        W43214  18.560  29.158   2.366
73334W        W43215   3.388  18.621  13.995
73335W        W43216   3.795  37.872   3.782
73336W        W43217   8.847  29.979  11.890
73337W        W43218  16.712  21.088  10.949
73338W        W43219  15.695   8.880   1.800
73339W        W43220  34.974  40.032  14.936
73340W        W43221  41.486  18.289   2.274
73341W        W43222  32.625  22.111  11.607
73342W        W43223  42.412  32.032  12.356
73343W        W43224  10.825   2.342  10.585
73344W        W43225  20.753   1.974   4.629
73345W        W43226  32.941  41.991   4.648
73346W        W43227  27.941  20.103   3.869
73347W        W43228  21.236   1.442   4.698
73348W        W43229   7.246  44.338  14.917
73349W        W43230  31.946  22.736  10.609
73350W        W43231  32.409  23.576   3.757
73351W        W43232   3.920   5.778  14.507
73352W        W43233   7.221  30.544   2.826
73353W        W43234  43.342  14.684   1.763
73354W        W43235   2.296  13.776   1.823
73355W        W43236  36.094   2.284  10.604
73356W        W43237  25.662  30.916  14.763
73357W        W43238  29.576  42.883  14.352
73358W        W43239  26.582  21.586  12.411
73359W        W43240  10.301  17.556  13.845
73360W        W43241  20.542  35.988   2.190
73361W        W43242  44.377  34.038  14.380
73362W        W43243  31.133   8.307  11.924
73363W        W43244  15.271  20.722   2.265
73364W        W43245  23.577   5.272  13.523
73365W        W43246  26.075  30.973   3.730
73366W        W43247  26.506  40.329   0.726
73367W        W43248  12.127  40.872   3.386
73368W        W43249   6.746  39.527  10.958
73369W        W43250  27.499   5.738  12.358
73370W        W43251   3.347  32.558   0.461
73371W        W43252   9.162  39.061   4.793
73372W        W43253  38.065  31.478   1.396
73373W        W43254  31.077  24.520   2.726
73374W        W43255   3.760  29.628  11.020
73375W        W43256  21.700  17.751  11.572
73376W        W43257  39.967  26.635  13.009
73377W        W43258  17.705  31.036  14.855
73378W        W43259  23.511  34.902   2.363
73379W        W43260  41.801  27.958   2.363
73380W        W43261  36.362   7.847   4.351
73381W        W43262   1.773  39.347   3.347
73382W        W43263  22.086  20.215   3.835
73383W        W43264  30.150  36.581   0.789
73384W        W43265  36.427  41.364   4.612
73385W        W43266  11.832   1.934  12.951
73386W        W43267  24.124  42.420   2.740
73387W        W43268  13.119  32.445  14.356
73388W        W43269  15.662  42.330  10.599
73389W        W43270   2.799  16.082  13.044
73390W        W43271   5.289  16.784   4.716
73391W        W43272  32.412   0.290   0.783
73392W        W43273  37.905  37.368   2.248
73393W        W43274  44.373  41.877   1.313
73394W        W43275  41.324  11.278  11.900
73395W        W43276   1.407  33.968  14.964
73396W        W43277  22.659  36.923  11.554
73397W        W43278   5.916  36.569   0.393
73398W        W43279  36.920  19.696  12.447
73399W        W43280  39.945  26.134  12.022
73400W        W43281  22.084  40.895  12.048
73401W        W43282  13.280  34.967  13.019
73402W        W43283  25.565  34.040   0.824
73403W        W43284  20.253  39.809   1.325
73404W        W43285  31.439  27.619   1.902
73405W        W43286  28.065   3.431   0.799
73406W        W43287  10.366  14.146  11.109
73407W        W43288  12.336  18.076  11.981
73408W        W43289  12.228  33.402  14.852
73409W        W43290  34.381  13.159   4.692
73410W        W43291  15.284  40.501   1.786
73411W        W43292   7.860  32.969   1.868
73412W        W43293   1.797   2.780   0.315
73413W        W43294  14.154  29.655   4.766
73414W        W43295  24.644   5.852   2.348
73415W        W43296   0.784  41.009  12.876
73416W        W43297  29.661  18.134   1.401
73417W        W43298  27.526   9.177  11.434
73418W        W43299  11.669   6.701   3.266
73419W        W43300  31.471  21.590  10.462
73420W        W43301  23.695   4.939   4.824
73421W        W43302  25.551  40.858   3.705
73422W        W43303  41.987  20.653   2.890
73423W        W43304  15.633  37.007  10.939
73424W        W43305  32.053  25.991   2.310
73425W        W43306   7.746  38.437   3.687
73426W        W43307  11.664  31.449   2.771
73427W        W43308  24.027  36.559  10.939
73428W        W43309  21.035   4.820   1.256
73429W        W43310  31.043  28.647   4.189
73430W        W43311  14.794   7.213  11.984
73431W        W43312  34.905  14.163  14.843
73432W        W43313  23.032   4.442  12.825
73433W        W43314   2.314  21.086  11.495
73434W        W43315  25.117  15.682   0.749
73435W        W43316   9.304  35.587  13.814
73436W        W43317  34.034  35.005  11.988
73437W        W43318  37.543  17.210  10.527
73438W        W43319   9.871  21.044   4.220
73439W        W43320  19.098   8.804  11.899
73440W        W43321  10.257  24.516  12.889
73441W        W43322  41.999  42.004   2.209
73442W        W43323  31.133  10.814   0.257
73443W        W43324  15.589  30.916   3.684
73444W        W43325   5.707  38.010   0.733
73445W        W43326  13.338  35.421  12.895
73446W        W43327  23.204  24.691  11.055
73447W        W43328  27.501  41.992  12.567
73448W        W43329  30.579  43.858  12.381
73449W        W43330  26.081  30.549   1.300
73450W        W43331  40.365  10.727   1.711
73451W        W43332   7.392  44.857  14.902
73452W        W43333  44.361   5.741  14.336
73453W        W43334  41.042  29.471  13.316
73454W        W43335  33.937  17.295  10.608
73455W        W43336  20.043  35.536  13.334
73456W        W43337  10.745   8.175  10.627
73457W        W43338  35.869  26.096  12.947
73458W        W43339  10.640  32.535   4.709
73459W        W43340   6.350   9.186   0.364
73460W        W43341  30.975   3.947   4.163
73461W        W43342  40.036  19.081   0.883
73462W        W43343  34.573   2.455   3.637
73463W        W43344  43.880  26.147   0.923
73464W        W43345  32.122  32.540   1.297
73465W        W43346  40.866   9.756  14.968
73466W        W43347  31.478   5.834   2.184
73467W        W43348  25.633  33.578  12.339
73468W        W43349  13.664   0.879  14.890
73469W        W43350  26.521  37.054  11.484
73470W        W43351  32.114  37.353  10.046
73471W        W43352   0.430  33.605   3.804
73472W        W43353  29.594  10.374   1.850
73473W        W43354  44.005  38.444  11.582
73474W        W43355  17.282   3.334   2.203
73475W        W43356  33.113  11.701  13.921
73476W        W43357  36.869  16.184   1.429
73477W        W43358   7.356  33.568  11.077
73478W        W43359  27.580  38.947  13.438
73479W        W43360  43.335  32.531   3.646
73480W        W43361  38.451  20.523   2.212
73481W        W43362  15.196  25.543  11.395
73482W        W43363  17.089  13.685   1.919
73483W        W43364   9.725  36.905   2.710
73484W        W43365  15.652  16.163   3.759
73485W        W43366  22.644   5.321   2.246
73486W        W43367  25.986   2.807   3.634
73487W        W43368  14.783  40.304  11.994
73488W        W43369   4.413  13.754   1.264
73489W        W43370  22.602  13.693  14.006
73490W        W43371   5.804   5.773   3.727
73491W        W43372  27.626   0.754   4.813
73492W        W43373  31.551  34.593   1.231
73493W        W43374  43.403   0.309  11.942
73494W        W43375  18.562  42.927   0.453
73495W        W43376  24.609  42.913  10.970
73496W        W43377  14.190  25.209  13.482
73497W        W43378  19.171  19.769  13.860
73498W        W43379  42.827   1.809   1.711
73499W        W43380  16.099  43.891  11.067
73500W        W43381  34.038  12.190   0.966
73501W        W43382   3.738  27.572   3.302
73502W        W43383  40.852  42.983  11.548
73503W        W43384  17.084   3.438  13.475
73504W        W43385  25.468   5.344   3.318
73505W        W43386  20.679  25.066  13.916
73506W        W43387  27.940   5.784  12.905
73507W        W43388   5.797  35.065   0.948
73508W        W43389  42.515  12.826   0.375
73509W        W43390  41.909   5.749  14.796
73510W        W43391   6.707  32.025  10.970
73511W        W43392  38.999  14.642  12.989
73512W        W43393  10.695  40.513   0.870
73513W        W43394   9.708   9.773   4.333
73514W        W43395   7.711  32.009   5.212
73515W        W43396   5.816   5.205   1.853
73516W        W43397  36.009  16.230   2.341
73517W        W43398   3.714  23.112   0.266
73518W        W43399  42.489  15.700  13.951
73519W        W43400  25.512  30.978  14.375
73520W        W43401  41.528  42.281   0.861
73521W        W43402  28.475  19.718  14.490
73522W        W43403  22.211  35.508   1.316
73523W        W43404  34.941   2.723   0.787
73524W        W43405  23.531  27.965  10.605
73525W        W43406  12.205   3.835   2.208
73526W        W43407  28.993  40.874   3.155
73527W        W43408   4.708  32.631  13.022
73528W        W43409   7.881  31.125  13.036
73529W        W43410  20.046  39.534   3.752
73530W        W43411  38.992  38.423   3.317
73531W        W43412  28.489  31.919  14.839
73532W        W43413   3.443  10.652   1.746
73533W        W43414  35.591  15.665   3.823
73534W        W43415  10.148   8.772  11.556
73535W        W43416  43.278  21.748  10.426
73536W        W43417  15.592   7.798   5.130
73537W        W43418  25.059   0.476   1.765
73538W        W43419  19.717  18.728   1.448
73539W        W43420  34.610   4.854   3.208
73540W        W43421   4.405   2.260  14.475
73541W        W43422  11.289  43.512   0.816
73542W        W43423  23.636  41.949   0.750
73543W        W43424   2.822  13.108  10.945
73544W        W43425   3.352  25.077  11.864
73545W        W43426  26.112  43.363  14.298
73546W        W43427  40.306  24.204  12.992
73547W        W43428  12.246  19.260   4.761
73548W        W43429  10.269  33.389  14.383
73549W        W43430   8.691  41.360  12.957
73550W        W43431  28.076  24.518   3.763
73551W        W43432  17.141   5.905   1.793
73552W        W43433  39.043  24.580  13.344
73553W        W43434  25.163  25.554   4.696
73554W        W43435  37.440  23.709   1.213
73555W        W43436   0.312  16.585  14.360
73556W        W43437   3.951  29.021  11.378
73557W        W43438  22.063   2.417   3.764
73558W        W43439  15.676  26.046   2.369
73559W        W43440  29.432  13.187  11.975
73560W        W43441  36.411  13.804   0.263
73561W        W43442  14.609  14.108   1.881
73562W        W43443  39.036  25.542   0.334
73563W        W43444  34.013  18.142  14.444
73564W        W43445  41.301  26.185   4.264
73565W        W43446  35.365  35.991  14.292
73566W        W43447  43.998   4.337  12.527
73567W        W43448  31.109  30.008  11.065
73568W        W43449  35.995   1.416   0.387
73569W        W43450  15.182  24.613   1.797
73570W        W43451  24.090  36.557  13.830
73571W        W43452   8.758  24.704  13.536
73572W        W43453  39.981   9.714   2.181
73573W        W43454  25.088  27.632   0.389
73574W        W43455  17.785   2.951   2.264
73575W        W43456  12.674  18.137  12.036
73576W        W43457   5.244  21.549   4.791
73577W        W43458  26.013  43.500  11.961
73578W        W43459  30.088   5.323  10.582
73579W        W43460  36.093   9.273  11.042
73580W        W43461  25.638  27.053   2.262
73581W        W43462  27.010  18.685  12.983
73582W        W43463  20.550  16.208  12.095
73583W        W43464  21.197  11.341  12.884
73584W        W43465   7.205   9.153  11.996
73585W        W43466  17.598  20.614  14.293
73586W        W43467  19.658  19.231  14.399
73587W        W43468  17.223   7.298   0.304
73588W        W43469  14.735  42.818  12.489
73589W        W43470  38.358  24.052  13.024
73590W        W43471  14.650  17.794  12.963
73591W        W43472   9.736  29.446   3.808
73592W        W43473  10.668   5.914  11.583
73593W        W43474  20.150  33.903  13.966
73594W        W43475  33.026  41.321   2.902
73595W        W43476   2.817  16.121   1.390
73596W        W43477  36.865  14.759  12.960
73597W        W43478   7.250  11.825  12.507
73598W        W43479   4.239  30.126   1.303
73599W        W43480  12.190   2.906  13.952
73600W        W43481  27.100   5.317  13.333
73601W        W43482  17.725  29.008   3.206
73602W        W43483  38.977  37.460  11.892
73603W        W43484  19.254   8.214   1.882
73604W        W43485  22.104  34.994   2.806
73605W        W43486  22.115   2.941   1.758
73606W        W43487  37.551   4.711   5.119
73607W        W43488   4.704  40.494  12.984
73608W        W43489  44.293  30.431  12.029
73609W        W43490  41.431  23.736  10.615
73610W        W43491  10.158   2.439   3.309
73611W        W43492   2.468   2.828  11.938
73612W        W43493  28.160   5.869  11.455
73613W        W43494  10.280   0.931   3.196
73614W        W43495   2.904  41.341   0.813
73615W        W43496  40.335  30.912   3.359
73616W        W43497  29.023   8.172   1.860
73617W        W43498  43.861   7.369   0.371
73618W        W43499  25.043  25.075   2.342
73619W        W43500  17.713  39.522   0.466
73620W        W43501  23.224  19.650   4.144
73621W        W43502  18.785   3.431  12.986
73622W        W43503  42.879  23.100  12.511
73623W        W43504  30.577  38.024  10.953
73624W        W43505  12.668  18.645   4.629
73625W        W43506   5.781  14.703   1.776
73626W        W43507   8.276  23.693   4.601
73627W        W43508  23.670  39.883   0.886
73628W        W43509  20.644  17.249   0.253
73629W        W43510  27.593  32.446  12.853
73630W        W43511  26.674  18.102  10.471
73631W        W43512  41.043   1.350  12.460
73632W        W43513  16.670  13.729  10.581
73633W        W43514   8.864  20.713  10.462
73634W        W43515  15.167   6.330  14.467
73635W        W43516  16.072  23.701  14.350
73636W        W43517  31.558  38.548  11.490
73637W        W43518  11.308  32.138  12.430
73638W        W43519   3.754   7.677   2.818
73639W        W43520  37.377  17.243  11.564
73640W        W43521  24.528  26.546  12.440
73641W        W43522  35.595  17.142  10.942
73642W        W43523  17.695   4.361   2.895
73643W        W43524  29.485  21.202  11.933
73644W        W43525  38.842  33.958   1.790
73645W        W43526  17.619  44.480  13.907
73646W        W43527  43.312  25.111  13.368
73647W        W43528   0.854  24.524  14.808
73648W        W43529  36.451  22.584  10.492
73649W        W43530  21.232  20.701  12.911
73650W        W43531  44.267  30.603  11.476
73651W        W43532  37.532  29.666   3.854
73652W        W43533  37.535  36.869   1.745
73653W        W43534   2.264  36.892  10.640
73654W        W43535   6.778  29.973   0.366
73655W        W43536  33.603  11.682   0.364
73656W        W43537  11.328  11.688   2.310
73657W        W43538  38.941   8.817   4.759
73658W        W43539  34.033   0.744  11.922
73659W        W43540  25.145  13.660   0.836
73660W        W43541  16.126   5.806  10.411
73661W        W43542   0.352  12.209   0.958
73662W        W43543  18.757   1.855   1.219
73663W        W43544  12.155  12.823  10.977
73664W        W43545  31.935  42.407   0.480
73665W        W43546  38.532  14.815   1.243
73666W        W43547  32.430  29.983  14.480
73667W        W43548   1.885  23.159   2.712
73668W        W43549  11.864  34.021   2.799
73669W        W43550  35.465   9.292   3.162
73670W        W43551  16.221  24.019   2.323
73671W        W43552  38.052  13.756   0.967
73672W        W43553   2.447   0.429   2.377
73673W        W43554  18.584  16.703  14.979
73674W        W43555  37.949   3.409  12.496
73675W        W43556  18.739  28.476  14.884
73676W        W43557  32.994  22.223  12.886
73677W        W43558  36.510  29.452   3.152
73678W        W43559  24.632  12.844   4.298
73679W        W43560  36.593   8.753   0.447
73680W        W43561   3.259  11.754  13.885
73681W        W43562  27.485  32.468   1.405
73682W        W43563  12.241  40.528  13.927
73683W        W43564  41.482  21.233  13.977
73684W        W43565  38.420  34.402  11.099
73685W        W43566  14.247  21.075   4.271
73686W        W43567   6.860  40.807  10.574
73687W        W43568  32.489   0.758  11.862
73688W        W43569  24.557   2.874  13.029
73689W        W43570  13.732  28.989  12.991
73690W        W43571   0.304   6.883   3.780
73691W        W43572  43.306   2.446  10.973
73692W        W43573   2.358  19.215  14.767
73693W        W43574   0.986  10.789  10.007
73694W        W43575  27.048  32.580   4.289
73695W        W43576  32.437  18.725  12.901
73696W        W43577   2.356  35.044   4.149
73697W        W43578  13.825  14.790   3.696
73698W        W43579  35.436  33.561   1.292
73699W        W43580  22.246  14.674  12.032
73700W        W43581  15.659  11.757   4.602
73701W        W43582  28.966  36.398  12.989
73702W        W43583  16.147  12.848   0.731
73703W        W43584  11.174  27.524   3.262
73704W        W43585  24.007  23.597   4.208
73705W        W43586  22.213  34.956  10.555
73706W        W43587  34.034   0.977  10.418
73707W        W43588   7.795  32.142   3.711
73708W        W43589   8.301  28.001   4.631
73709W        W43590  15.082  24.707   3.849
73710W        W43591  38.008  12.263   0.337
73711W        W43592  41.890  44.897  11.016
73712W        W43593  24.707  30.622  13.054
73713W        W43594  44.793   5.388   1.355
73714W        W43595  15.276  28.073  13.999
73715W        W43596  41.394  22.107   2.235
73716W        W43597  22.613  11.357   1.729
73717W        W43598  10.822  42.465   4.270
73718W        W43599  31.110  43.856  12.024
73719W        W43600  38.866  24.692  11.021
73720W        W43601   5.439  26.475  11.903
73721W        W43602  29.430  41.823  12.363
73722W        W43603  12.660   2.407   0.827
73723W        W43604  34.055  21.228  11.475
73724W        W43605  25.693  32.473  10.474
73725W        W43606  25.016  26.632   2.813
73726W        W43607   9.683  23.664   2.805
73727W        W43608  32.078  22.086  10.632
73728W        W43609  12.228  34.927  14.896
73729W        W43610   2.292   0.892   1.830
73730W        W43611  38.399  27.000  14.990
73731W        W43612  41.020   1.781   4.641
73732W        W43613  19.068  25.490  14.354
73733W        W43614   5.898  34.912   3.236
73734W        W43615  39.975  16.311   3.689
73735W        W43616  36.058  41.789  12.876
73736W        W43617  17.115  30.984   2.891
73737W        W43618  10.689  25.019  14.953
73738W        W43619   3.858  18.547  10.954
73739W        W43620  39.496  44.786   3.694
73740W        W43621   7.803  25.089   0.823
73741W        W43622  34.558  39.325   1.703
73742W        W43623  42.002  11.322   4.691
73743W        W43624  39.053   3.252   3.356
73744W        W43625  34.917  33.385   1.429
73745W        W43626  37.479  14.280   3.666
73746W        W43627  16.283  15.670   2.698
73747W        W43628  17.610   1.831   4.732
73748W        W43629  19.214  20.764  14.976
73749W        W43630  26.077  39.907   2.812
73750W        W43631  38.949  22.179  14.831
73751W        W43632  10.807  22.150   0.359
73752W        W43633  26.046   3.753   1.403
73753W        W43634  24.693   6.250   0.768
73754W        W43635  28.495  12.793  13.420
73755W        W43636  14.798   9.681   4.237
73756W        W43637  30.588  28.504   1.876
73757W        W43638  32.118   8.875   4.787
73758W        W43639   4.281  32.886  12.352
73759W        W43640  39.866  20.214  11.424
73760W        W43641  41.994   6.314   2.378
73761W        W43642  14.745   4.832  14.281
73762W        W43643  31.571  26.016  11.024
73763W        W43644  38.898  37.013   4.325
73764W        W43645  21.529  16.248  13.532
73765W        W43646  25.654  13.829   0.391
73766W        W43647   0.426  23.162  14.976
73767W        W43648  41.417  12.258  10.496
73768W        W43649  36.861  43.490   4.318
73769W        W43650  22.103   7.860  14.012
73770W        W43651  10.814  38.930   3.698
73771W        W43652  12.741  25.515   2.737
73772W        W43653  34.989  37.845  13.958
73773W        W43654  31.018  34.961   1.265
73774W        W43655  27.013   6.356   3.180
73775W        W43656  27.585  39.547   1.237
73776W        W43657   8.898  35.053  14.868
73777W        W43658  33.580  12.827   0.268
73778W        W43659  15.739  44.820  13.520
73779W        W43660   0.366  22.154  12.885
73780W        W43661  29.467  24.212   4.630
73781W        W43662  21.149  23.613  10.159
73782W        W43663  29.509  40.329  14.275
73783W        W43664  29.638  29.439   4.161
73784W        W43665   9.711  18.264   2.845
73785W        W43666  26.203  35.899  14.014
73786W        W43667  22.999  14.750  12.483
73787W        W43668  42.998  38.388  13.312
73788W        W43669  38.851  41.382  13.307
73789W        W43670  44.290  23.690   2.416
73790W        W43671  34.582  14.690  11.069
73791W        W43672  12.678  30.006  11.993
73792W        W43673  29.604  24.670   3.192
73793W        W43674  40.955  26.006  14.388
73794W        W43675   6.229  22.583   1.386
73795W        W43676  10.825  24.142  12.550
73796W        W43677   0.368  28.125   4.190
73797W        W43678   9.837   1.823   4.735
73798W        W43679  31.922   9.149   1.424
73799W        W43680  15.122  29.434  10.569
73800W        W43681  20.258  38.989   0.731
73801W        W43682  38.426  37.447   2.331
73802W        W43683  17.191  17.641  14.369
73803W        W43684  31.610   1.373  12.575
73804W        W43685   9.288  21.756  14.437
73805W        W43686  29.940  32.544   1.344
73806W        W43687  28.551  33.111  11.490
73807W        W43688   8.182   4.345  12.033
73808W        W43689  33.010  31.430   3.806
73809W        W43690  38.328  42.359  14.403
73810W        W43691  37.378  19.578   2.228
73811W        W43692  12.173  30.512   5.204
73812W        W43693   4.920  10.198  12.455
73813W        W43694   6.346  30.071  14.963
73814W        W43695   4.894  22.131   3.644
73815W        W43696   4.373  21.597  11.381
73816W        W43697  19.117  36.415  11.009
73817W        W43698  17.125  35.886   4.811
73818W        W43699  42.451  10.242   3.681
73819W        W43700  10.839  25.628  14.447
73820W        W43701   5.690  37.392   2.875
73821W        W43702  21.091  11.331  10.145
73822W        W43703  29.124  25.074   2.663
73823W        W43704  37.444  23.524   0.433
73824W        W43705  21.624  41.970   3.848
73825W        W43706  16.777   3.271   0.466
73826W        W43707  25.630  38.569  14.949
73827W        W43708  11.153  36.037   3.692
73828W        W43709  35.885  22.007  14.849
73829W        W43710  12.737   6.364   4.249
73830W        W43711   9.858   8.273   3.718
73831W        W43712  39.475  40.982   2.188
73832W        W43713  38.941  13.202  14.448
73833W        W43714   8.228  36.500   0.752
73834W        W43715  37.884   1.915  13.439
73835W        W43716  28.138  23.724  11.407
73836W        W43717  16.667  32.554  14.462
73837W        W43718  44.276   1.265  11.384
73838W        W43719  39.839  11.816   1.850
73839W        W43720  14.293  39.923  13.964
73840W        W43721   6.890  23.533  12.911
73841W        W43722  39.336  14.681  14.906
73842W        W43723  18.608   3.743  14.452
73843W        W43724   9.274  21.697  10.629
73844W        W43725  37.014   6.921  13.927
73845W        W43726  18.785   8.870  10.505
73846W        W43727   0.956  27.082  11.127
73847W        W43728  30.601  20.731   4.185
73848W        W43729   8.200   7.877  12.942
73849W        W43730  12.616  32.981  10.437
73850W        W43731  22.502  36.094   4.302
73851W        W43732  16.094  28.508   0.338
73852W        W43733  22.182   5.808   2.295
73853W        W43734  35.878  29.425   2.871
73854W        W43735  26.125  42.831  11.594
73855W        W43736  37.038  14.672  12.384
73856W        W43737   2.417   3.888   0.931
73857W        W43738  38.917  43.318  13.802
73858W        W43739  22.537  41.345  12.949
73859W        W43740  29.589  11.699  14.329
73860W        W43741  29.534  15.087  13.349
73861W        W43742  38.956  16.290  10.930
73862W        W43743  17.751  15.649  13.906
73863W        W43744  11.255   9.246   2.183
73864W        W43745  26.106  40.547   0.373
73865W        W43746   1.370  35.992  11.960
73866W        W43747   2.281  39.988   0.444
73867W        W43748   6.229  22.587  14.961
73868W        W43749  19.541  17.182   4.747
73869W        W43750  27.074  36.455   1.868
73870W        W43751   7.855  16.192  11.047
73871W        W43752  10.866  15.598   9.998
73872W        W43753  35.081   4.826  11.501
73873W        W43754  17.565  41.969  12.570
73874W        W43755  27.484   0.790   0.275
73875W        W43756  22.210  27.684   0.286
73876W        W43757  21.155  43.979   2.400
73877W        W43758  35.363   3.402  11.059
73878W        W43759  43.783  30.936  13.503
73879W        W43760  43.942  27.158  14.956
73880W        W43761  32.037   9.733  12.368
73881W        W43762   4.274   0.352  12.434
73882W        W43763  37.428  18.184  11.107
73883W        W43764  15.691  44.980  11.927
73884W        W43765   1.930   9.368  14.414
73885W        W43766  28.543  28.986   4.823
73886W        W43767  25.185   4.944   3.652
73887W        W43768  21.174  43.895   9.933
73888W        W43769   7.417  24.090   4.249
73889W        W43770  44.260  10.189   3.289
73890W        W43771  34.022  16.251   2.193
73891W        W43772  11.315  16.304  12.000
73892W        W43773  33.570  24.704  11.122
73893W        W43774   7.850  22.190  12.390
73894W        W43775   5.217  42.886   2.834
73895W        W43776  19.244  31.109   4.822
73896W        W43777  22.059   4.767  13.991
73897W        W43778  23.711  41.840  13.413
73898W        W43779   2.878  12.702   1.395
73899W        W43780   9.168  27.629   1.300
73900W        W43781  11.622  38.446  10.573
73901W        W43782  41.887  16.262  11.408
73902W        W43783   8.228  23.564   1.402
73903W        W43784  43.896   5.920  13.043
73904W        W43785  11.795   8.772   1.732
73905W        W43786  30.058  38.360  11.486
73906W        W43787  31.147  23.620  12.509
73907W        W43788  31.053  24.681  14.829
73908W        W43789  18.549  33.568   3.749
73909W        W43790  37.340  28.060   5.258
73910W        W43791  35.854  36.900  14.923
73911W        W43792   6.805  23.573   4.266
73912W        W43793  14.743  19.168  10.982
73913W        W43794  14.199  32.567  11.098
73914W        W43795  38.061  19.146  14.845
73915W        W43796  12.616  44.882  13.411
73916W        W43797   2.385   7.706  11.496
73917W        W43798  26.014  34.462   1.900
73918W        W43799   1.305   8.860  10.596
73919W        W43800  33.530  11.165   3.868
73920W        W43801  18.252  39.340  12.555
73921W        W43802  16.609  13.330   0.949
73922W        W43803  31.581  30.610  12.882
73923W        W43804  19.558  41.432   0.312
73924W        W43805  15.091  26.578   0.448
73925W        W43806  20.251  16.101   0.775
73926W        W43807  19.273  23.618   2.827
73927W        W43808   2.241   9.231  11.112
73928W        W43809  41.349  27.970  12.039
73929W        W43810   1.323  14.133  13.497
73930W        W43811  20.029  25.541   1.387
73931W        W43812   7.874   2.938  14.415
73932W        W43813  26.184  44.437  10.582
73933W        W43814  21.607  16.197   0.396
73934W        W43815  40.859  34.915  12.544
73935W        W43816  27.127  25.984   1.300
73936W        W43817  38.526  39.016   4.201
73937W        W43818  41.044  18.090   3.862
73938W        W43819   4.272  26.473  11.388
73939W        W43820  44.799  17.253  11.907
73940W        W43821  27.562  15.789   3.384
73941W        W43822   3.329  26.065  14.355
73942W        W43823   6.684   9.884   1.288
73943W        W43824  17.650   2.882   3.653
73944W        W43825  44.866  44.303   0.406
73945W        W43826  30.515  27.681   0.336
73946W        W43827  35.045  26.623  11.907
73947W        W43828  40.308  20.155  12.051
73948W        W43829  15.812   5.198  14.337
73949W        W43830  21.184   6.852  12.879
73950W        W43831  31.600  22.525   4.301
73951W        W43832  34.951   2.861  11.612
73952W        W43833  43.421  15.682  13.342
73953W        W43834   3.449  24.515   3.675
73954W        W43835   9.755   1.873  10.603
73955W        W43836   5.408  26.107   1.819
73956W        W43837  39.503  35.366  13.044
73957W        W43838  16.197  36.916   1.390
73958W        W43839  13.783  16.170  13.544
73959W        W43840  29.018  43.282   0.393
73960W        W43841  14.277   6.680   0.778
73961W        W43842  32.026  44.471   1.234
73962W        W43843   8.223  34.495   3.307
73963W        W43844  23.732  22.535   1.423
73964W        W43845  11.326   9.377  12.000
73965W        W43846   3.298  33.961  12.575
73966W        W43847  44.977  36.955   0.881
73967W        W43848  25.190  33.611  13.526
73968W        W43849  34.991  24.116   3.348
73969W        W43850  36.389  25.143  14.911
73970W        W43851  36.898  28.959   4.626
73971W        W43852   6.360  31.073   3.689
73972W        W43853   4.835   2.934  14.396
73973W        W43854   3.336  11.629   2.888
73974W        W43855  13.185  15.180   1.898
73975W        W43856  41.859  36.999   2.775
73976W        W43857  19.244  25.175  13.329
73977W        W43858  32.459  29.070  14.978
73978W        W43859  30.030  34.986   4.115
73979W        W43860  21.758  14.704  10.639
73980W        W43861  12.754  27.620   0.438
73981W        W43862  30.131  41.439   1.434
73982W        W43863   1.904  44.853   0.271
73983W        W43864  40.436   0.394   0.820
73984W        W43865  18.546  37.520  13.369
73985W        W43866  11.630  34.081   1.782
73986W        W43867  14.722   3.228  13.858
73987W        W43868  15.611  24.032  13.045
73988W        W43869  36.935  21.651  13.888
73989W        W43870  18.639  42.934  11.988
73990W        W43871  43.363  21.246   0.245
73991W        W43872   9.883  32.048   2.877
73992W        W43873  34.069  19.736   0.833
73993W        W43874  28.531  38.370  13.350
73994W        W43875   6.735  20.598  11.403
73995W        W43876   7.229  16.155  14.358
73996W        W43877  34.922  23.100   2.745
73997W        W43878   0.898  15.586   4.208
73998W        W43879   8.699   3.392  10.480
73999W        W43880  11.846  39.318   1.301
74000W        W43881  44.776  28.156   4.663
74001W        W43882  17.596  31.910   2.672
74002W        W43883  16.580  13.115  14.426
74003W        W43884   4.867  42.954   1.861
74004W        W43885   7.789  13.714   2.410
74005W        W43886  19.121  15.625   0.295
74006W        W43887  32.045   1.758  11.068
74007W        W43888   9.838  20.163   0.252
74008W        W43889   2.902  29.558   0.908
74009W        W43890  32.479  14.210  14.879
74010W        W43891  26.700  12.746   5.250
74011W        W43892  39.830   9.160   1.817
74012W        W43893  10.638  43.355   1.917
74013W        W43894  44.765   7.176  14.357
74014W        W43895  19.238  11.798   2.896
74015W        W43896  16.208  20.602  11.048
74016W        W43897  40.504  23.231   4.124
74017W        W43898  38.332  44.419  11.438
74018W        W43899   7.198   9.246  11.446
74019W        W43900  14.166   4.845   3.159
74020W        W43901   1.866  18.602   0.927
74021W        W43902  28.567   3.306  13.307
74022W        W43903  32.931  28.526   2.861
74023W        W43904  42.487  36.866  12.831
74024W        W43905  35.011  22.675   2.756
74025W        W43906  17.648  28.171   4.186
74026W        W43907   6.365  16.673  13.471
74027W        W43908   4.932  43.976   1.336
74028W        W43909  21.086  24.075  13.868
74029W        W43910  13.192  29.952   0.300
74030W        W43911  40.968  44.006   3.360
74031W        W43912  17.110  29.540   3.238
74032W        W43913  21.083  36.058  10.923
74033W        W43914  41.821  14.096  12.037
74034W        W43915  15.225  44.862  11.536
74035W        W43916  32.530  19.054   1.703
74036W        W43917  42.336   8.813   1.858
74037W        W43918  42.873  41.817   0.461
74038W        W43919   8.310  22.547   3.358
74039W        W43920  35.393   8.290  11.499
74040W        W43921  14.692  29.173  11.545
74041W        W43922  10.851   4.358   2.778
74042W        W43923  12.291  13.790  14.007
74043W        W43924   9.173  30.956   0.417
74044W        W43925   9.768  13.108  12.919
74045W        W43926  35.018  11.839   2.332
74046W        W43927  18.292   2.950  14.396
74047W        W43928  27.123  15.806   4.344
74048W        W43929  15.623  10.800  13.918
74049W        W43930  27.990  20.091   4.189
74050W        W43931  17.195  34.896   3.251
74051W        W43932  25.514  28.062  10.093
74052W        W43933  39.815  31.118  13.425
74053W        W43934  14.226   0.826  11.423
74054W        W43935  13.224  12.348  10.428
74055W        W43936   1.300  42.791  11.081
74056W        W43937  20.696  19.190  14.864
74057W        W43938  30.053  11.825   1.869
74058W        W43939  33.096  41.983  11.596
74059W        W43940  14.151  26.113  13.057
74060W        W43941   7.231  41.485  14.476
74061W        W43942  19.084  33.541   4.254
74062W        W43943  29.645  21.157   2.768
74063W        W43944  20.614  32.886   4.213
74064W        W43945  21.698  32.081  11.111
74065W        W43946  12.775  37.361  14.943
74066W        W43947  28.054  13.320  12.988
74067W        W43948  22.610  42.284   2.211
74068W        W43949  21.255   2.248   4.226
74069W        W43950  22.241   5.210  10.543
74070W        W43951   0.322   5.344   2.182
74071W        W43952  42.287  31.617  13.859
74072W        W43953   9.275  23.523  12.440
74073W        W43954  30.118  30.611   1.229
74074W        W43955  27.476  33.381  10.928
74075W        W43956  13.124   8.891   4.715
74076W        W43957  21.626  39.881   3.694
74077W        W43958  43.403  41.474  12.532
74078W        W43959  38.958  36.008  10.534
74079W        W43960  43.457  21.209  10.977
74080W        W43961  41.973  10.336   0.300
74081W        W43962  10.790  14.133   4.794
74082W        W43963  30.101  22.576   4.239
74083W        W43964  33.122  38.469  11.474
74084W        W43965   5.731  16.796  13.960
74085W        W43966  34.394  12.281   4.185
74086W        W43967  20.657  35.105  14.337
74087W        W43968  35.054  43.949   1.210
74088W        W43969  37.396  42.345   1.212
74089W        W43970  13.238  40.510  11.108
74090W        W43971  35.574   1.942   1.404
74091W        W43972   6.826  35.971   0.393
74092W        W43973   3.402  35.063   2.286
74093W        W43974  26.201  23.180   3.344
74094W        W43975  33.573  20.547   0.809
74095W        W43976  40.323  26.532   1.703
74096W        W43977  25.490  31.986  11.056
74097W        W43978   3.892  43.478   4.705
74098W        W43979  35.857   9.272  13.923
74099W        W43980  17.699  24.573   4.230
74100W        W43981  11.333  13.799  14.801
74101W        W43982  37.930  35.430  14.449
74102W        W43983   0.813   2.442  11.942
74103W        W43984   3.897  14.704  14.323
74104W        W43985  23.041   7.761  14.822
74105W        W43986  37.989   0.929   4.294
74106W        W43987  42.463  32.015  10.901
74107W        W43988   5.922  42.999   1.844
74108W        W43989  42.424  31.028   0.953
74109W        W43990   4.400  32.128  11.467
74110W        W43991  38.336   7.773   4.648
74111W        W43992  24.488  34.891  13.989
74112W        W43993   4.758   2.381  10.532
74113W        W43994  12.803  39.435  13.818
74114W        W43995   0.799  27.047  14.915
74115W        W43996   3.458  43.929  11.588
74116W        W43997  38.932  40.869   3.744
74117W        W43998  27.448  22.642  11.058
74118W        W43999  19.539  12.322   0.731
74119W        W44000  25.664  36.961   0.826
74120W        W44001  40.976  37.506   1.837
74121W        W44002  30.485  24.179  11.864
74122W        W44003  34.968   7.749   3.774
74123W        W44004  34.028   2.774   1.858
74124W        W44005  34.540   1.925   3.857
74125W        W44006  34.909  10.641   4.616
74126W        W44007  29.037   9.778   1.322
74127W        W44008  11.178  13.156  14.826
74128W        W44009  38.342  10.270   3.642
74129W        W44010  26.207  28.594  10.940
74130W        W44011  11.631  18.634   2.276
74131W        W44012  14.732   5.877   4.137
74132W        W44013  19.746  27.975  13.365
74133W        W44014   1.330  23.642  12.005
74134W        W44015   6.339  39.958   3.163
74135W        W44016  33.960  28.149  12.025
74136W        W44017  21.615  13.756  12.893
74137W        W44018  39.541  29.445  12.402
74138W        W44019  25.608  38.431   3.834
74139W        W44020  24.626   1.739   2.273
74140W        W44021  15.790  43.451   2.786
74141W        W44022  27.514  42.974  10.417
74142W        W44023  35.860   1.315  14.853
74143W        W44024  37.959  13.182   2.401
74144W        W44025  35.444  20.560   2.667
74145W        W44026  29.522   1.799  12.949
74146W        W44027  14.800  33.408   2.882
74147W        W44028  34.609  18.053   1.358
74148W        W44029  27.639  33.413   4.266
74149W        W44030  28.950  30.488   2.715
74150W        W44031  22.560  44.362  11.597
74151W        W44032  39.868  42.891  10.463
74152W        W44033  19.172  30.022  12.491
74153W        W44034  43.992  25.668   1.245
74154W        W44035  35.974  38.413   4.630
74155W        W44036  32.961  11.732  12.002
74156W        W44037  19.239   5.308  13.418
74157W        W44038  12.326  32.587   2.417
74158W        W44039   0.952  26.987   2.765
74159W        W44040  26.652  19.545  13.818
74160W        W44041  28.111  20.135   0.435
74161W        W44042   9.794   5.231  12.886
74162W        W44043  11.772  42.854  14.384
74163W        W44044  18.682  37.489   3.243
74164W        W44045  31.130  13.685   2.400
74165W        W44046  15.613  40.026  10.034
74166W        W44047  32.490  13.235  14.883
74167W        W44048  31.423  37.000   4.150
74168W        W44049  16.086  17.600  10.578
74169W        W44050  31.604  41.322  12.461
74170W        W44051  29.966  23.073  10.987
74171W        W44052  22.248  17.635   2.219
74172W        W44053   7.200  42.872  12.449
74173W        W44054   4.898  32.477  11.485
74174W        W44055  42.926   2.303   0.773
74175W        W44056  12.227  41.793   3.209
74176W        W44057  34.549  31.012   2.355
74177W        W44058  18.132  17.589  11.886
74178W        W44059   2.767   7.178   2.784
74179W        W44060  28.614  17.099  11.903
74180W        W44061  38.349   9.243  12.406
74181W        W44062  17.208   4.847   2.255
74182W        W44063  17.685   3.244  14.923
74183W        W44064  30.456  39.828  14.924
74184W        W44065  13.196   8.327   3.778
74185W        W44066  20.533  27.165  14.924
74186W        W44067  41.041   5.689  11.064
74187W        W44068   3.939  37.006   1.318
74188W        W44069   3.240  30.007  11.096
74189W        W44070  11.186  10.335  13.043
74190W        W44071   4.740  31.626  11.919
74191W        W44072  39.878   4.784  11.018
74192W        W44073  40.367   8.372   1.444
74193W        W44074  24.012  16.579   1.918
74194W        W44075   0.450  11.686  14.452
74195W        W44076  21.072  42.476   3.161
74196W        W44077   1.251  29.126   1.804
74197W        W44078  39.489  20.041   3.216
74198W        W44079   1.795   3.433  13.019
74199W        W44080  32.393  23.241   1.911
74200W        W44081  21.645  28.047   1.919
74201W        W44082   9.725  13.631   1.919
74202W        W44083  12.215  17.584   3.333
74203W        W44084  28.132  12.728   3.342
74204W        W44085  24.549  29.927  13.524
74205W        W44086  14.329  10.175  13.894
74206W        W44087  12.718  10.380  14.366
74207W        W44088  11.783  10.288  13.812
74208W        W44089  43.493  42.343   2.849
74209W        W44090  10.659  43.935   3.642
74210W        W44091  20.228  13.346  13.343
74211W        W44092  34.919  37.338  12.855
74212W        W44093   0.248  35.517  12.042
74213W        W44094   4.810  11.146  12.006
74214W        W44095  29.936  33.991  10.925
74215W        W44096  40.438   3.437   0.757
74216W        W44097   9.870  28.610   4.262
74217W        W44098  25.670  35.064   1.332
74218W        W44099  12.191  32.467   1.698
74219W        W44100  28.023  40.852  12.833
74220W        W44101  32.961  31.979   3.798
74221W        W44102  15.720   3.953   1.267
74222W        W44103  30.468   0.744  12.049
74223W        W44104   4.230  25.205  10.900
74224W        W44105  15.177  38.004   2.413
74225W        W44106  33.531  15.678  11.586
74226W        W44107  28.509  28.581  14.982
74227W        W44108  27.127  29.949  14.955
74228W        W44109  36.542  42.953  11.559
74229W        W44110  30.482   2.958   3.377
74230W        W44111  40.008  32.530   0.267
74231W        W44112  37.496  33.407  11.864
74232W        W44113  24.012  23.153  13.981
74233W        W44114   4.728   5.690   3.335
74234W        W44115  31.468  26.207  13.536
74235W        W44116  26.655  43.419  12.579
74236W        W44117   2.810   5.233   4.162
74237W        W44118  41.369  35.562  13.801
74238W        W44119  29.930  30.060  10.470
74239W        W44120  19.654  29.995   0.379
74240W        W44121  33.528  31.635  14.986
74241W        W44122  14.648  44.437  14.495
74242W        W44123   9.323  43.309   2.407
74243W        W44124  33.467  35.559   0.449
74244W        W44125  29.064  32.473   4.695
74245W        W44126  25.684   5.790  12.471
74246W        W44127  19.742  38.950  12.851
74247W        W44128  17.253  36.893  12.538
74248W        W44129  21.084  24.215  12.506
74249W        W44130   3.397  26.032   4.729
74250W        W44131  15.112   2.345  10.946
74251W        W44132   2.418   1.928  11.451
74252W        W44133  42.912  11.194  14.014
74253W        W44134   2.846  13.346   2.181
74254W        W44135  11.671  41.505   2.716
74255W        W44136  28.161   3.309  14.790
74256W        W44137  13.172  44.422   4.277
74257W        W44138  37.034  25.518  11.116
74258W        W44139  24.043  14.218   1.388
74259W        W44140  12.184  21.716   4.735
74260W        W44141  16.257  43.905  12.055
74261W        W44142  14.259  42.358   3.358
74262W        W44143   8.872  31.942  11.425
74263W        W44144   4.428  26.461   0.746
74264W        W44145   3.940  14.300   5.152
74265W        W44146  15.278  10.181   3.860
74266W        W44147  32.468  40.421  12.496
74267W        W44148  16.233  35.458  12.411
74268W        W44149  34.053  35.090  10.615
74269W        W44150  35.886   7.853  12.029
74270W        W44151  38.356  26.028   1.299
74271W        W44152  17.086  39.475  14.392
74272W        W44153  19.615   4.211  13.392
74273W        W44154   4.324  31.468   1.919
74274W        W44155   9.195  14.763  11.437
74275W        W44156  31.096  23.639   2.242
74276W        W44157  24.188  33.044  14.013
74277W        W44158  30.069  33.591  12.522
74278W        W44159  30.933  31.122   0.938
74279W        W44160  31.601  30.141   2.691
74280W        W44161  12.668  43.295  14.423
74281W        W44162  15.820  12.686   4.145
74282W        W44163  20.105  21.631  13.812
74283W        W44164  25.638  34.975   2.780
74284W        W44165  36.029  15.651  12.907
74285W        W44166  28.142  15.719  13.940
74286W        W44167  35.490  30.542   4.792
74287W        W44168  26.579  20.601  12.882
74288W        W44169   4.263  18.789  13.846
74289W        W44170   1.269  42.406  11.568
74290W        W44171  43.339  18.677  14.321
74291W        W44172  19.265  39.454   3.640
74292W        W44173  25.644  19.140   1.333
74293W        W44174   1.907  15.105  13.447
74294W        W44175  32.414   8.403   0.392
74295W        W44176  21.142  21.531  13.022
74296W        W44177  13.784   5.230  14.828
74297W        W44178  27.467  37.844  13.945
74298W        W44179  27.478   6.735  10.895
74299W        W44180  16.193   8.866  12.075
74300W        W44181  37.039   3.452  14.962
74301W        W44182  37.418  26.038   3.741
74302W        W44183  43.855   7.705  11.996
74303W        W44184  17.129  21.601  13.859
74304W        W44185  32.892   6.359   2.353
74305W        W44186  41.930  23.517  12.829
74306W        W44187  18.731  14.119   0.465
74307W        W44188  40.454   3.939  14.823
74308W        W44189  20.540  30.082   9.956
74309W        W44190  20.565  33.048  11.076
74310W        W44191   3.933  35.086  10.496
74311W        W44192  41.041   9.236   1.702
74312W        W44193  20.247  15.775  12.422
74313W        W44194   5.829  32.415   0.746
74314W        W44195  38.978  11.772  11.945
74315W        W44196   2.841  23.660  11.604
74316W        W44197  40.386  23.527  10.609
74317W        W44198  36.578   1.327  13.541
74318W        W44199  42.358  43.919   4.633
74319W        W44200  15.176  44.482  13.373
74320W        W44201   2.242  12.646   0.842
74321W        W44202   9.784   1.946   2.410
74322W        W44203  10.677  32.485  10.416
74323W        W44204  26.578  24.222  14.835
74324W        W44205  24.487  35.499  10.410
74325W        W44206  11.687  37.369  14.794
74326W        W44207   1.913  29.932   3.825
74327W        W44208  16.754   0.922   1.821
74328W        W44209  27.122  44.461   0.388
74329W        W44210  40.969   3.264   0.911
74330W        W44211  40.900  33.411  12.434
74331W        W44212  28.614  17.610   4.779
74332W        W44213  23.523  22.099  11.377
74333W        W44214  22.557   5.878  14.875
74334W        W44215  19.722  33.620  10.415
74335W        W44216  39.502  39.354  12.482
74336W        W44217  23.694   3.758  13.059
74337W        W44218  16.130   4.282   2.767
74338W        W44219  34.953  40.375   3.162
74339W        W44220   2.325   3.814   4.352
74340W        W44221  43.859  18.127  11.491
74341W        W44222  41.878  28.642  11.058
74342W        W44223  19.225   1.779   4.278
74343W        W44224   1.849  43.886  14.333
74344W        W44225  28.977   7.874   0.834
74345W        W44226  35.995  37.498  12.343
74346W        W44227  19.255  13.194   2.239
74347W        W44228  38.521  27.073   2.380
74348W        W44229  32.046   8.791  11.884
74349W        W44230  42.307  40.392  11.521
74350W        W44231   1.863  25.605  12.466
74351W        W44232   0.427   9.743   0.404
74352W        W44233  26.602  30.014   3.221
74353W        W44234  26.975  33.444   0.806
74354W        W44235  35.053   8.332  13.805
74355W        W44236  21.181  33.107  10.092
74356W        W44237   7.857  27.605   3.345
74357W        W44238  24.697  38.399   3.221
74358W        W44239   2.301  32.536   1.734
74359W        W44240  14.316  15.795   1.229
74360W        W44241   9.687   9.812   4.770
74361W        W44242  12.329   2.400   1.890
74362W        W44243  39.026  33.087  11.048
74363W        W44244  31.958   1.261  14.782
74364W        W44245  11.363  33.575  12.026
74365W        W44246   6.224  34.568  14.919
74366W        W44247  28.438   5.341   1.838
74367W        W44248  35.471  11.644  14.278
74368W        W44249  31.538   7.371  13.538
74369W        W44250  27.516  29.525   1.740
74370W        W44251  37.399  21.166   2.307
74371W        W44252   4.220   9.277   1.299
74372W        W44253  39.876  25.150  12.555
74373W        W44254  25.578   9.374  14.902
74374W        W44255   5.385   6.800   0.927
74375W        W44256  28.596   1.923  13.899
74376W        W44257  34.011  34.883  11.490
74377W        W44258  15.676   1.865  12.470
74378W        W44259  13.339  36.372   4.723
74379W        W44260  34.434  38.465  13.329
74380W        W44261  32.549  17.787   1.248
74381W        W44262  21.178  19.248  12.002
74382W        W44263   2.957  17.789  13.315
74383W        W44264  12.325  25.972  12.514
74384W        W44265  32.403  41.787  12.542
74385W        W44266  40.452  15.759  12.506
74386W        W44267   5.844   1.341   2.194
74387W        W44268  22.636  35.914   5.223
74388W        W44269  29.474  39.545  11.980
74389W        W44270  28.016  26.667  13.029
74390W        W44271  22.007  41.466   3.220
74391W        W44272   3.382   9.235   4.259
74392W        W44273  14.822  15.326  10.446
74393W        W44274  40.442   4.932   4.599
74394W        W44275   0.804  14.335  13.522
74395W        W44276  36.415   9.737  10.635
74396W        W44277  26.657  38.493  13.466
74397W        W44278  43.308  38.473   4.751
74398W        W44279  41.293  24.116   3.220
74399W        W44280  41.356  35.481   0.956
74400W        W44281  11.146  39.063  11.907
74401W        W44282   0.251  41.901  11.943
74402W        W44283   1.833   7.363   4.722
74403W        W44284  42.983  11.782  10.421
74404W        W44285  26.006  11.725   4.739
74405W        W44286   6.196  13.280  14.417
74406W        W44287  16.079  42.444   4.695
74407W        W44288  43.310  34.501  12.070
74408W        W44289  31.131  35.901   4.213
74409W        W44290  18.227   5.265   0.853
74410W        W44291  26.477  26.561   1.300
74411W        W44292   5.294   2.768  14.296
74412W        W44293  20.591   2.375  10.918
74413W        W44294   3.892   9.843   4.820
74414W        W44295  22.076  38.928   4.354
74415W        W44296  14.205  39.901  11.020
74416W        W44297  41.535  43.901   4.767
74417W        W44298  42.435  12.668   3.656
74418W        W44299   6.299  32.939  11.055
74419W        W44300  10.797  13.179  11.072
74420W        W44301  35.503  33.403  13.855
74421W        W44302  10.737   1.920   3.654
74422W        W44303  40.346  34.407  11.981
74423W        W44304  38.528  36.995  11.035
74424W        W44305  11.170   9.342  13.874
74425W        W44306  25.530   3.337   2.414
74426W        W44307  18.249  21.195  13.320
74427W        W44308  24.617  16.566   5.112
74428W        W44309  32.941  18.589   4.115
74429W        W44310  42.025  13.841  11.950
74430W        W44311  44.933  32.124  12.930
74431W        W44312  43.453  37.930   3.803
74432W        W44313  11.206  31.517   0.757
74433W        W44314  31.133  41.970  11.574
74434W        W44315  16.198  32.546   3.287
74435W        W44316  15.227  24.178   4.687
74436W        W44317  26.485  42.478  13.394
74437W        W44318   4.838   9.224  12.343
74438W        W44319  17.592  35.561   2.667
74439W        W44320   7.318  12.171   0.451
74440W        W44321  28.943  40.995   2.685
74441W        W44322  33.054  23.560   2.748
74442W        W44323  27.047  27.007   4.790
74443W        W44324  13.779  25.501  13.827
74444W        W44325  23.059  10.150   1.391
74445W        W44326  11.834   2.813  13.420
74446W        W44327  10.295  12.322  12.561
74447W        W44328  22.995  38.017   2.402
74448W        W44329  26.961  38.362   3.226
74449W        W44330  26.470  39.329  12.837
74450W        W44331  22.054  32.134   2.334
74451W        W44332  44.977  18.783   0.332
74452W        W44333  14.150  18.736  11.081
74453W        W44334  36.580  29.470   2.245
74454W        W44335   3.324  32.137   3.710
74455W        W44336  26.564  41.885   3.723
74456W        W44337  36.349  31.001  11.611
74457W        W44338  44.874  14.121  12.377
74458W        W44339   8.877   9.792   2.387
74459W        W44340  32.890  44.423   0.859
74460W        W44341  18.721   4.265  14.436
74461W        W44342  41.016  15.121   3.745
74462W        W44343  24.636  33.926   0.405
74463W        W44344  10.842  35.938  10.930
74464W        W44345  33.422  16.268  14.777
74465W        W44346  41.977  40.445   2.715
74466W        W44347  36.050  30.090  10.450
74467W        W44348  22.084  13.808   2.676
74468W        W44349   1.333   2.372   2.726
74469W        W44350   8.789  13.109   2.323
74470W        W44351  27.692  42.873   3.361
74471W        W44352  11.355  36.923  10.629
74472W        W44353   5.433  34.377   4.235
74473W        W44354  19.564  25.039  13.404
74474W        W44355  12.183  26.008  13.506
74475W        W44356  15.303  18.238   0.251
74476W        W44357  13.630  36.893   3.251
74477W        W44358  16.767  34.439  10.519
74478W        W44359   0.840  33.091  13.499
74479W        W44360  30.964  10.358   0.947
74480W        W44361  14.752   0.476   2.700
74481W        W44362  15.742  11.786  12.473
74482W        W44363   8.322  17.303  12.355
74483W        W44364  43.994  14.172  11.543
74484W        W44365  30.494  36.476   3.783
74485W        W44366  40.983  12.356   4.278
74486W        W44367  42.904   3.803   1.312
74487W        W44368  11.833  44.961   2.708
74488W        W44369  14.765  11.717   1.923
74489W        W44370  30.511   7.789   4.296
74490W        W44371  22.512  13.626  11.494
74491W        W44372   6.407  26.517  12.452
74492W        W44373  36.430  22.513   1.272
74493W        W44374  24.623  17.765   3.238
74494W        W44375  11.328  39.002   2.317
74495W        W44376  30.070  43.322   4.684
74496W        W44377  18.561  35.866   1.797
74497W        W44378  30.001  33.417   1.718
74498W        W44379  25.145   2.874   3.693
74499W        W44380  28.130  34.907  13.893
74500W        W44381  40.484  34.901   2.803
74501W        W44382  21.017  15.679  12.420
74502W        W44383   8.171  14.234  13.357
74503W        W44384  44.761  30.424  12.564
74504W        W44385  21.020  39.380  12.900
74505W        W44386  28.466   8.326   0.288
74506W        W44387  10.821  15.226   0.265
74507W        W44388  32.606  33.619   0.739
74508W        W44389  23.203  19.042   0.268
74509W        W44390  15.592   2.894  12.911
74510W        W44391   5.692  13.662   0.730
74511W        W44392   3.930  13.757  11.906
74512W        W44393  28.100   6.192   2.672
74513W        W44394   2.334   1.852  11.974
74514W        W44395   0.801  37.955   3.305
74515W        W44396  33.012  15.761   2.835
74516W        W44397   0.356  39.949   2.773
74517W        W44398   4.215  29.656  11.962
74518W        W44399  11.273  33.541  12.566
74519W        W44400  39.485  42.956  14.355
74520W        W44401  10.212  25.168  11.431
74521W        W44402  27.973   6.779   4.663
74522W        W44403   1.279  18.264   0.244
74523W        W44404  15.751  33.881   1.253
74524W        W44405  34.878  41.366  12.413
74525W        W44406  39.967   0.988  14.767
74526W        W44407   7.909  23.031   3.289
74527W        W44408  15.589  32.964   3.706
74528W        W44409  10.828  19.267   3.168
74529W        W44410   8.881   4.227   3.846
74530W        W44411  26.992   7.271  11.480
74531W        W44412  13.754  25.040   5.224
74532W        W44413  15.258  16.737  11.528
74533W        W44414   9.240   5.240   1.773
74534W        W44415  13.144  37.975   2.779
74535W        W44416   6.707  15.311   4.778
74536W        W44417   9.260  25.180  10.491
74537W        W44418  29.622  19.654   1.287
74538W        W44419  28.516   7.908   1.430
74539W        W44420  13.823  18.061   0.458
74540W        W44421  28.580  28.606  10.933
74541W        W44422  32.473  16.086   2.284
74542W        W44423  23.040  35.015   4.271
74543W        W44424   2.862   5.256  14.001
74544W        W44425  38.367  11.645  14.275
74545W        W44426  25.528  15.661   0.250
74546W        W44427  37.546  14.155  12.055
74547W        W44428  34.534   2.417  13.372
74548W        W44429  13.755  33.916  11.936
74549W        W44430  36.037   7.400  12.880
74550W        W44431  27.685  28.680  10.436
74551W        W44432   4.306  32.529   1.875
74552W        W44433  25.155   5.276   2.318
74553W        W44434   4.360   0.471  13.474
74554W        W44435  26.510  30.528   1.403
74555W        W44436  44.842  29.041  10.602
74556W        W44437  25.563  17.751   1.855
74557W        W44438   5.398  40.818  10.629
74558W        W44439  27.194   9.790  11.465
74559W        W44440  36.546  25.705   1.305
74560W        W44441  32.110   3.300   2.720
74561W        W44442  35.046  36.546   0.737
74562W        W44443  41.460  12.711   4.224
74563W        W44444  25.056  16.089   0.342
74564W        W44445   7.681  15.254  13.898
74565W        W44446  23.072   0.395  14.308
74566W        W44447   9.386  19.282   0.469
74567W        W44448  44.260  27.029   3.649
74568W        W44449  37.480  12.167   1.398
74569W        W44450  44.476  31.969  11.449
74570W        W44451  39.043  34.412  11.425
74571W        W44452  30.492  22.040   2.676
74572W        W44453  32.534  40.512   4.187
74573W        W44454  44.995  32.472  10.556
74574W        W44455  31.597  14.668  13.855
74575W        W44456  11.643   0.822  12.000
74576W        W44457  44.807   9.160   0.914
74577W        W44458  22.241  15.137   0.399
74578W        W44459  31.624  39.029  11.438
74579W        W44460  27.553  38.426  14.816
74580W        W44461  11.212   6.703   4.280
74581W        W44462   6.312   0.812  13.947
74582W        W44463  18.236  30.611   4.813
74583W        W44464  39.319  20.727  11.391
74584W        W44465  15.202  41.368   3.372
74585W        W44466  24.644  12.359  13.838
74586W        W44467   1.790  15.651  13.820
74587W        W44468  35.521  13.285   1.786
74588W        W44469   6.863  17.266   4.206
74589W        W44470  23.202  30.126  13.841
74590W        W44471   6.236  14.611   1.888
74591W        W44472  28.482  41.972   3.248
74592W        W44473  22.503   4.909   0.469
74593W        W44474   5.256   4.417   2.324
74594W        W44475  44.372  10.683  11.904
74595W        W44476  18.146  23.990  12.009
74596W        W44477   1.282  44.492   3.360
74597W        W44478  11.677   8.670  13.060
74598W        W44479   8.349  14.639   2.809
74599W        W44480  33.901   2.938   4.173
74600W        W44481  15.268  16.672   3.847
74601W        W44482  39.898  30.527  10.544
74602W        W44483  21.094  11.648   3.247
74603W        W44484  35.578  23.596   1.237
74604W        W44485  35.406   2.459   0.469
74605W        W44486  29.063  28.566   1.364
74606W        W44487   6.289  28.672  14.864
74607W        W44488  30.929   1.920  13.013
74608W        W44489   1.887   1.936   4.138
74609W        W44490  32.503  16.298  12.980
74610W        W44491  44.412  33.408   2.839
74611W        W44492  21.559  42.806   0.297
74612W        W44493  41.472   8.746   4.290
74613W        W44494  43.781  38.429  14.973
74614W        W44495  33.034   6.749   1.257
74615W        W44496  41.865  28.022  13.813
74616W        W44497  36.538   8.196  13.946
74617W        W44498  34.537  29.015   2.360
74618W        W44499   7.676   2.777  14.793
74619W        W44500  26.540  21.093  14.496
74620W        W44501  16.675  30.095   1.895
74621W        W44502  33.109  19.688   4.204
74622W        W44503  12.643  14.663   5.099
74623W        W44504   4.289  43.930   4.236
74624W        W44505  22.117  33.496  12.910
74625W        W44506  40.825   6.789  14.838
74626W        W44507  31.029  11.653  11.373
74627W        W44508  18.132  26.140  14.881
74628W        W44509  16.158  11.673  14.018
74629W        W44510  13.291  31.095   9.966
74630W        W44511   5.704  42.284   2.380
74631W        W44512   3.777  25.655   3.157
74632W        W44513  24.158  22.616   3.372
74633W        W44514  17.577  22.195  11.113
74634W        W44515  26.616  10.271  11.093
74635W        W44516  11.738  14.153   2.705
74636W        W44517  18.758  12.171  12.497
74637W        W44518  13.750  42.498  13.406
74638W        W44519   2.293  40.971  13.006
74639W        W44520  27.466  26.129  11.030
74640W        W44521   0.404  40.382   0.796
74641W        W44522  42.846  44.900   2.884
74642W        W44523  12.125   5.193   0.756
74643W        W44524   0.462  24.667   0.480
74644W        W44525   4.815  27.005  10.420
74645W        W44526  22.674  34.998   0.445
74646W        W44527  30.457  20.643  14.952
74647W        W44528  11.780  12.668   5.271
74648W        W44529  18.698  28.014  13.517
74649W        W44530  23.184  25.634  11.071
74650W        W44531  22.015  15.634  13.509
74651W        W44532  35.993   4.277  12.379
74652W        W44533   6.678  26.981   2.266
74653W        W44534   5.816  42.377   1.223
74654W        W44535  43.349  11.208   3.832
74655W        W44536  29.069  27.498  14.314
74656W        W44537  13.837  16.659  10.525
74657W        W44538  13.328  11.160   4.284
74658W        W44539  38.423  41.831  14.375
74659W        W44540  24.192  42.448   3.215
74660W        W44541  35.018   4.213   0.793
74661W        W44542  23.688  36.527   2.809
74662W        W44543  11.319  11.211  10.973
74663W        W44544  27.501  17.305   1.300
74664W        W44545  41.908   7.265   4.353
74665W        W44546  33.927  20.054  14.346
74666W        W44547  33.951   7.698  13.933
74667W        W44548  23.541  27.683   4.607
74668W        W44549  39.384  40.409  12.005
74669W        W44550  37.948  15.309  11.595
74670W        W44551  36.080  33.081   1.294
74671W        W44552   4.342  12.759   0.901
74672W        W44553  22.704  19.649  12.942
74673W        W44554  31.952   5.827   1.896
74674W        W44555  15.616  38.533  10.079
74675W        W44556  38.502  12.823   4.736
74676W        W44557  38.544  35.464   1.804
74677W        W44558  40.372  20.601   3.227
74678W        W44559  21.258  11.333   3.185
74679W        W44560  38.917   1.405   1.895
74680W        W44561  42.861   7.251  11.600
74681W        W44562  29.940  37.470   4.831
74682W        W44563  38.068  27.197   2.220
74683W        W44564  20.148   6.844  11.430
74684W        W44565  24.075   8.752   4.308
74685W        W44566  24.091  26.098   1.761
74686W        W44567   8.244  28.508   1.423
74687W        W44568  35.956  11.797   0.302
74688W        W44569  30.158  18.642   4.816
74689W        W44570  18.682  42.301  11.548
74690W        W44571  39.961  11.773   4.830
74691W        W44572   0.897  21.054  13.039
74692W        W44573  33.075  12.200   0.434
74693W        W44574  31.998  27.661   4.149
74694W        W44575  28.450  16.685   1.815
74695W        W44576  10.262   9.194  10.956
74696W        W44577  20.045  12.161   0.461
74697W        W44578  34.948  32.062  13.882
74698W        W44579  13.647  32.039  12.087
74699W        W44580  32.008  21.163  10.566
74700W        W44581  34.104   5.699  14.899
74701W        W44582  13.270   6.902   0.413
74702W        W44583  20.106  25.615   4.297
74703W        W44584  39.990  43.837   1.705
74704W        W44585  31.598   9.210  12.025
74705W        W44586  39.990  17.299  11.941
74706W        W44587   8.757   7.237   1.725
74707W        W44588  17.293   0.468   4.138
74708W        W44589  29.135   1.957   0.269
74709W        W44590  42.891   2.403   0.393
74710W        W44591  32.443  22.183  14.969
74711W        W44592  17.295  38.984  14.437
74712W        W44593   1.294  10.844  14.298
74713W        W44594  42.944   1.859  14.847
74714W        W44595  14.232  19.718  13.333
74715W        W44596  27.002  41.342  11.913
74716W        W44597  25.514  19.145  12.500
74717W        W44598  36.578  27.972  14.894
74718W        W44599  15.701  39.962  14.474
74719W        W44600  41.015  25.048  12.021
74720W        W44601  40.803  32.039   2.289
74721W        W44602   6.811  35.543   4.136
74722W        W44603  30.458   1.460  12.847
74723W        W44604  11.706  32.889   3.288
74724W        W44605  43.013  11.201   1.230
74725W        W44606  35.093   5.281  14.964
74726W        W44607   3.432  44.919   3.812
74727W        W44608  23.147  27.154  12.548
74728W        W44609  19.754  37.956   0.282
74729W        W44610  11.677  24.583   2.691
74730W        W44611   4.873  23.728   4.165
74731W        W44612  41.804  38.871  13.845
74732W        W44613  30.526  44.852  14.391
74733W        W44614   5.858  43.903   2.691
74734W        W44615  42.866  17.293   5.143
74735W        W44616  13.147  44.809  14.775
74736W        W44617  11.223  34.509  11.487
74737W        W44618  34.075  10.211  13.795
74738W        W44619  26.953  11.209  13.427
74739W        W44620  11.770   6.367  12.398
74740W        W44621  21.634   4.818  12.955
74741W        W44622  40.337  39.930   3.299
74742W        W44623  13.308   9.231   0.772
74743W        W44624  10.280  36.976   2.387
74744W        W44625  36.952  13.731  10.988
74745W        W44626  44.480   3.287   1.791
74746W        W44627   7.713  29.962  13.419
74747W        W44628  18.259  17.674   4.166
74748W        W44629  34.929  40.969  13.425
74749W        W44630   5.884   7.706   1.402
74750W        W44631  38.974   4.867   3.288
74751W        W44632  44.442  24.980   0.879
74752W        W44633  20.142  24.718   0.452
74753W        W44634  16.237  15.729  14.456
74754W        W44635  19.103  33.933  14.765
74755W        W44636  14.778  23.143  14.432
74756W        W44637  44.836  11.759   2.691
74757W        W44638  14.662  11.631  11.523
74758W        W44639  28.665   6.317   5.127
74759W        W44640   0.365  33.915   1.285
74760W        W44641   3.282  15.210  13.523
74761W        W44642  14.194  32.014   4.675
74762W        W44643   0.745  24.116   4.213
74763W        W44644  17.236  31.036   1.902
74764W        W44645  15.700  34.482   0.931
74765W        W44646  16.154  15.647  14.984
74766W        W44647  11.254  27.954  10.925
74767W        W44648  37.041  15.083  14.823
74768W        W44649   1.314   6.307  10.551
74769W        W44650  23.123  18.214  12.572
74770W        W44651  19.124  39.463  12.901
74771W        W44652  20.081  22.532   4.778
74772W        W44653  23.101  15.176  12.402
74773W        W44654  25.072  15.808  11.406
74774W        W44655  11.712   5.710  11.049
74775W        W44656  15.739  10.230  11.508
74776W        W44657   2.860   2.896   3.851
74777W        W44658  10.875  36.986  12.007
74778W        W44659  17.772   8.301   4.232
74779W        W44660  12.341  39.316  14.414
74780W        W44661   9.760   7.724  14.941
74781W        W44662  23.124  23.512   1.310
74782W        W44663  10.742  18.119   0.384
74783W        W44664   1.740   4.835   3.151
74784W        W44665  29.054   4.738   2.370
74785W        W44666  14.633   9.322  11.482
74786W        W44667  40.451  31.075  11.905
74787W        W44668  40.384  42.959  13.839
74788W        W44669  22.655  35.457   3.697
74789W        W44670  36.357   7.730  13.543
74790W        W44671  25.682   0.259   2.692
74791W        W44672  19.125  31.579   0.931
74792W        W44673  30.659  41.470  10.529
74793W        W44674  42.514  33.432  14.490
74794W        W44675  20.711   8.786  14.398
74795W        W44676  28.050  21.160   3.753
74796W        W44677   8.394  44.005  10.621
74797W        W44678  22.646  13.679   2.711
74798W        W44679  14.272  25.587  12.426
74799W        W44680  26.055  14.760  12.875
74800W        W44681  28.038  12.702   1.418
74801W        W44682  44.476  29.144  12.868
74802W        W44683  32.562  27.629   4.734
74803W        W44684   0.943  34.409  13.327
74804W        W44685  37.366  28.954   0.480
74805W        W44686  15.796  41.865  12.025
74806W        W44687   7.776  19.715   4.658
74807W        W44688  40.944  15.604  13.832
74808W        W44689  34.399   7.804  13.983
74809W        W44690  35.068   5.845  12.950
74810W        W44691  16.664   4.238   1.714
74811W        W44692  22.024  18.746   1.859
74812W        W44693  31.424  39.811   0.871
74813W        W44694  31.480  18.060  13.370
74814W        W44695  16.283  41.025   4.137
74815W        W44696  25.556  32.997   0.416
74816W        W44697   9.657  31.617   3.257
74817W        W44698  25.646  31.548   1.749
74818W        W44699  42.830  11.340  10.638
74819W        W44700  13.844  11.848   3.334
74820W        W44701  13.836  31.902   4.812
74821W        W44702   1.919  42.958  12.986
74822W        W44703  17.164  31.487  13.883
74823W        W44704  11.148  39.491   2.723
74824W        W44705  44.489  27.569   1.862
74825W        W44706   3.375  15.203  12.370
74826W        W44707  30.964  16.135  12.872
74827W        W44708  32.597  40.306   2.269
74828W        W44709  16.637  38.919   2.178
74829W        W44710   1.926  38.005  14.441
74830W        W44711  33.620  23.619  10.472
74831W        W44712  10.705   4.366   0.281
74832W        W44713  19.053  38.011  14.763
74833W        W44714   5.866  24.647  14.435
74834W        W44715   2.406   4.274  12.509
74835W        W44716  17.752   3.832  10.899
74836W        W44717   6.871  14.126   0.894
74837W        W44718  10.205  29.633  14.945
74838W        W44719   9.329  11.239  10.467
74839W        W44720  13.710   0.266   4.327
74840W        W44721  34.106  27.970  12.341
74841W        W44722  40.859   5.762   3.707
74842W        W44723  28.544  11.244  11.470
74843W        W44724  24.673  37.981  13.515
74844W        W44725  20.753  27.599   2.884
74845W        W44726  35.013  35.004   2.819
74846W        W44727  34.001  29.927  14.491
74847W        W44728  42.491  38.378   1.249
74848W        W44729  13.120  10.725   4.316
74849W        W44730  19.222  41.854   4.626
74850W        W44731  17.749  28.459   0.278
74851W        W44732  32.093   0.284   3.637
74852W        W44733   8.795  26.691  10.956
74853W        W44734  41.824  11.655   3.152
74854W        W44735   5.222  12.188   4.115
74855W        W44736  37.992  36.868   3.208
74856W        W44737  22.150  15.739   3.665
74857W        W44738  16.279   4.774   0.270
74858W        W44739  19.745  31.549   0.784
74859W        W44740  39.540  11.650   2.876
74860W        W44741  10.319  44.904  14.869
74861W        W44742  25.964  36.018   4.211
74862W        W44743  23.705   9.267  10.502
74863W        W44744  38.483   0.749  12.077
74864W        W44745  21.091  33.005  13.511
74865W        W44746   3.806  26.686   3.300
74866W        W44747  38.035  30.937   1.438
74867W        W44748  40.000   0.302  13.947
74868W        W44749  28.654  26.696  10.565
74869W        W44750  28.600  18.659  13.370
74870W        W44751  26.957  21.024   3.791
74871W        W44752  25.124  29.531  11.590
74872W        W44753  13.107  18.631   2.664
74873W        W44754  21.226   1.473   9.490
74874W        W44755  13.845  42.287   2.303
74875W        W44756  30.956  31.936  11.079
74876W        W44757   6.214  13.204   3.730
74877W        W44758  26.100   6.282  10.920
74878W        W44759  26.569   6.741  13.328
74879W        W44760   1.369  31.632  11.486
74880W        W44761  31.491  43.472   4.293
74881W        W44762  32.601  13.255  11.472
74882W        W44763  44.806  42.032  11.034
74883W        W44764  23.682  17.690  13.468
74884W        W44765  22.225  12.355  12.456
74885W        W44766  17.697  38.049  12.012
74886W        W44767  19.168  25.652   0.473
74887W        W44768  42.459  26.560  13.998
74888W        W44769  22.089  42.953   0.400
74889W        W44770  16.114   6.383  11.528
74890W        W44771  39.421  31.565  14.776
74891W        W44772  27.685  18.137  14.988
74892W        W44773  21.720  20.232  11.478
74893W        W44774  39.525  14.712   4.168
74894W        W44775  26.616  16.699   0.874
74895W        W44776  23.585  26.178   3.815
74896W        W44777   1.417   5.783  11.611
74897W        W44778   4.369   7.225   2.852
74898W        W44779  26.035  12.658  14.949
74899W        W44780  36.522  26.201   2.870
74900W        W44781   4.872   3.225   0.468
74901W        W44782  19.586  21.179   5.239
74902W        W44783  13.170  31.633  11.608
74903W        W44784  18.583   2.726  12.852
74904W        W44785  20.588  43.288  12.353
74905W        W44786   3.784   4.731   1.406
74906W        W44787  10.303  21.696  14.466
74907W        W44788  42.325  33.084   0.774
74908W        W44789  20.057  29.431  10.426
74909W        W44790  29.426  43.853  11.928
74910W        W44791  27.128  13.714   4.338
74911W        W44792  22.603  27.624   3.317
74912W        W44793  34.426  32.501  13.836
74913W        W44794  29.000  37.946   0.885
74914W        W44795  30.425  35.938  12.014
74915W        W44796  28.559  30.157  11.055
74916W        W44797  17.644  10.163   3.302
74917W        W44798   9.295  27.947   2.734
74918W        W44799   8.777  16.164  10.582
74919W        W44800   7.775   6.752  13.519
74920W        W44801  38.325  41.297  11.101
74921W        W44802   3.874  25.151   0.262
74922W        W44803  21.136  40.011   3.316
74923W        W44804  35.934  42.858  10.994
74924W        W44805  35.537  22.180   0.476
74925W        W44806  18.197  31.618   1.298
74926W        W44807  40.019   5.920   3.833
74927W        W44808  26.496   8.271  14.991
74928W        W44809  21.058  30.549   1.446
74929W        W44810  41.514   5.293  13.006
74930W        W44811  28.439  13.729   4.260
74931W        W44812   2.902   0.913  11.966
74932W        W44813   5.231  26.634  12.871
74933W        W44814  25.620  11.710  14.373
74934W        W44815  18.262  17.796   1.262
74935W        W44816  31.946  14.248   1.851
74936W        W44817  35.062  25.050   0.774
74937W        W44818  22.192  32.530  14.787
74938W        W44819  14.205  28.968  10.127
74939W        W44820  17.602  43.369  12.965
74940W        W44821  30.970  26.023   2.696
74941W        W44822  40.549   2.882  13.803
74942W        W44823   7.679  31.484  14.289
74943W        W44824  44.828  12.824   0.868
74944W        W44825   1.871   8.871   4.150
74945W        W44826  14.199  40.938   4.783
74946W        W44827  29.992  11.864   3.162
74947W        W44828  15.253   9.767  10.599
74948W        W44829  35.906  18.217  13.887
74949W        W44830  36.926  12.235   3.311
74950W        W44831  18.238  29.612  10.113
74951W        W44832  42.883  27.153   1.345
74952W        W44833  21.182  27.573  13.341
74953W        W44834   1.273   9.266   1.372
74954W        W44835   8.654  30.911  13.870
74955W        W44836  35.097  22.705  14.336
74956W        W44837  13.768  31.127  14.908
74957W        W44838   6.239  22.033   4.278
74958W        W44839  43.290   6.194  12.032
74959W        W44840  17.628   7.232   4.656
74960W        W44841  13.606  33.604   3.653
74961W        W44842  18.684   6.391   4.702
74962W        W44843  40.498  44.869   0.782
74963W        W44844  29.086  26.111  13.818
74964W        W44845  38.831  27.518  11.546
74965W        W44846   0.461  26.548   0.955
74966W        W44847  18.691  35.560  12.542
74967W        W44848  43.511  25.141  13.805
74968W        W44849   5.926   6.781   0.775
74969W        W44850  15.176  14.234   3.251
74970W        W44851  34.942  42.944   1.238
74971W        W44852  43.834  24.085   4.658
74972W        W44853  37.516   9.699   1.334
74973W        W44854  11.201  20.047  11.973
74974W        W44855  15.758   5.295   3.198
74975W        W44856   5.913   7.774   1.750
74976W        W44857  16.226   4.783  13.355
74977W        W44858  38.550  20.586   0.948
74978W        W44859  31.552  18.051  12.474
74979W        W44860  33.521  21.669  14.996
74980W        W44861  35.093  23.511   1.823
74981W        W44862  32.073  18.593   5.314
74982W        W44863  26.152  44.368   1.752
74983W        W44864  18.587  16.170   1.301
74984W        W44865  23.652  30.596   4.122
74985W        W44866  15.742  25.612   0.391
74986W        W44867  37.830  29.002   1.801
74987W        W44868   8.879  30.469  11.884
74988W        W44869   0.443  19.716  11.568
74989W        W44870  14.134  22.078  11.526
74990W        W44871  18.600  11.736   3.838
74991W        W44872  35.014   0.850  12.513
74992W        W44873  15.120  31.950   4.725
74993W        W44874  43.510   1.456   0.366
74994W        W44875  43.849   1.884  13.532
74995W        W44876  40.043  20.541  10.575
74996W        W44877  42.413   5.705   2.403
74997W        W44878  10.773  31.012  12.458
74998W        W44879  28.098  19.236   0.903
74999W        W44880  26.076  39.920  12.862
75000W        W44881  36.001  44.410   3.245
75001W        W44882  39.985  11.696  10.405
75002W        W44883  29.614  39.398   4.253
75003W        W44884   6.352   7.709   3.184
75004W        W44885  13.799  37.375   3.193
75005W        W44886  23.125  38.011  10.436
75006W        W44887  26.552   1.480   3.298
75007W        W44888  30.037  19.279   4.629
75008W        W44889   1.826  18.616  12.507
75009W        W44890  40.388  21.699   1.430
75010W        W44891  33.891  21.701  12.833
75011W        W44892  35.422  15.122   2.404
75012W        W44893  16.661  37.939  10.430
75013W        W44894   8.709   1.419   1.379
75014W        W44895  11.662  42.010  13.061
75015W        W44896  19.664  40.404  13.062
75016W        W44897  18.254   6.270   3.253
75017W        W44898  37.464  38.516  14.327
75018W        W44899  39.900  33.493  12.576
75019W        W44900  36.576  26.464   1.450
75020W        W44901   3.278  18.278  10.959
75021W        W44902  20.690  26.128  12.005
75022W        W44903   4.304  12.774  13.909
75023W        W44904   3.816  36.432  10.424
75024W        W44905   1.463   0.254   1.842
75025W        W44906  37.540   9.255   0.925
75026W        W44907  30.474  13.309  10.455
75027W        W44908  40.340  40.352  12.379
75028W        W44909   5.212  42.489  13.794
75029W        W44910  43.270  25.009   3.178
75030W        W44911  30.608   3.798  14.377
75031W        W44912  11.739  26.666  11.490
75032W        W44913  18.655  19.635   5.197
75033W        W44914  31.412  41.404   0.741
75034W        W44915  15.090  27.193   2.400
75035W        W44916  23.152  37.445  14.763
75036W        W44917   0.410   5.879   0.359
75037W        W44918  22.740  34.430  11.091
75038W        W44919  20.214  29.980  10.542
75039W        W44920  19.213  27.470  11.932
75040W        W44921   8.306  31.016   3.359
75041W        W44922  33.946  13.791  12.483
75042W        W44923  19.614  23.595  11.535
75043W        W44924  40.035   6.904  14.924
75044W        W44925   0.830  43.297   0.898
75045W        W44926  35.856  43.937  12.396
75046W        W44927  19.149  11.623   4.708
75047W        W44928  14.227   5.888  11.569
75048W        W44929  23.030  44.793   4.137
75049W        W44930  14.223   0.254   4.807
75050W        W44931  26.701   2.812   4.674
75051W        W44932  21.125   4.404  10.416
75052W        W44933   2.934   1.310   2.780
75053W        W44934  29.102   3.340  11.997
75054W        W44935  14.760  38.855  13.385
75055W        W44936  36.444  44.926  11.445
75056W        W44937  40.488  28.535  12.340
75057W        W44938  36.065  13.109   1.810
75058W        W44939  31.612  39.946  10.466
75059W        W44940  20.604  10.343  13.977
75060W        W44941   8.405  41.873   1.889
75061W        W44942  20.223  10.259   2.807
75062W        W44943  27.940   6.840   9.932
75063W        W44944  40.045  11.752   4.168
75064W        W44945  28.616  25.018   2.672
75065W        W44946  19.055  29.919  11.417
75066W        W44947  18.676  17.612   4.138
75067W        W44948  33.112  37.985  11.587
75068W        W44949  42.455   7.728   0.302
75069W        W44950  30.483  32.927   0.820
75070W        W44951  33.404   5.717  12.843
75071W        W44952  37.534  19.256   4.655
75072W        W44953  20.688  22.548  11.057
75073W        W44954  32.936  43.947  13.405
75074W        W44955  38.927   0.284   0.261
75075W        W44956  12.324  30.480  12.341
75076W        W44957  28.669   2.732   4.657
75077W        W44958   4.285  41.836  11.399
75078W        W44959  37.515  23.627  14.451
75079W        W44960  35.557  37.515  13.517
75080W        W44961  25.517   9.751  13.945
75081W        W44962  21.160  39.883  12.904
75082W        W44963  19.757  24.498   2.838
75083W        W44964   4.443   8.332   1.926
75084W        W44965  40.430  42.333   4.776
75085W        W44966  42.405  28.612   2.827
75086W        W44967  23.198   3.810   1.278
75087W        W44968  18.754  26.694  11.528
75088W        W44969  10.300  43.792  10.913
75089W        W44970   6.335  18.154   3.850
75090W        W44971   0.250  27.959  13.986
75091W        W44972  28.068  34.463  13.888
75092W        W44973  35.564  25.651  10.425
75093W        W44974  15.217  35.875  12.857
75094W        W44975  34.015  33.424  12.368
75095W        W44976  35.078   3.378  13.879
75096W        W44977   5.374  38.336   0.432
75097W        W44978   5.232  39.918   0.791
75098W        W44979  32.035  18.641   2.261
75099W        W44980   7.878  36.037  14.315
75100W        W44981  12.717  14.227  13.980
75101W        W44982  44.316  26.489   0.295
75102W        W44983  11.704  14.278  10.134
75103W        W44984   1.943   2.793   1.721
75104W        W44985  12.834  30.114  14.373
75105W        W44986   9.164  17.678   4.171
75106W        W44987  13.211  40.853  10.464
75107W        W44988  13.646  18.102  11.457
75108W        W44989  16.108   2.319   2.299
75109W        W44990  21.127  11.177  14.347
75110W        W44991  12.719   8.247  12.520
75111W        W44992  20.703  27.519  14.500
75112W        W44993  27.452  32.073   3.861
75113W        W44994   3.447  19.044   2.862
75114W        W44995  30.437  22.181  12.996
75115W        W44996   7.687   5.864   4.160
75116W        W44997  28.010  38.490  14.884
75117W        W44998  38.561  27.572  12.969
75118W        W44999  10.315   4.883   4.172
75119W        W45000  13.329  29.435   0.382
75120W        W45001  11.668  26.132  12.578
75121W        W45002  32.969   6.780  12.078
75122W        W45003  32.970  23.024  13.307
75123W        W45004  14.756   7.389   3.224
75124W        W45005  32.064  38.374   4.769
75125W        W45006  33.109  16.150   0.832
75126W        W45007   6.426  24.140   3.297
75127W        W45008  16.666  25.516   3.198
75128W        W45009  43.885   3.222  11.014
75129W        W45010  25.542  38.435  14.363
75130W        W45011  26.574  33.613  14.986
75131W        W45012  12.816  20.143   1.253
75132W        W45013  13.144  44.987   4.720
75133W        W45014  15.702  15.263   0.327
75134W        W45015  33.914  26.967  12.386
75135W        W45016  20.743   4.286  10.569
75136W        W45017  42.429  27.545  12.494
75137W        W45018  26.985  40.485  11.430
75138W        W45019  27.961  33.972  13.443
75139W        W45020   7.911  32.056  11.047
75140W        W45021  11.867  12.611   3.272
75141W        W45022  26.597   9.296   1.711
75142W        W45023  38.003  31.915   3.311
75143W        W45024  10.224  44.906  11.559
75144W        W45025  37.991  18.704   0.266
75145W        W45026  40.869  40.510  12.473
75146W        W45027  37.492  39.997   3.147
75147W        W45028  38.994  30.099   0.329
75148W        W45029  40.362  40.883   0.399
75149W        W45030  32.588  38.541   4.339
75150W        W45031  27.611  42.884   2.186
75151W        W45032  22.209  44.939   2.253
75152W        W45033  18.164  40.547   2.871
75153W        W45034  31.451  32.965  11.475
75154W        W45035  37.418  38.830   0.413
75155W        W45036  37.087  19.542   2.210
75156W        W45037   2.817   7.327  12.008
75157W        W45038  38.369   9.759   0.942
75158W        W45039  24.485   6.357   3.759
75159W        W45040   5.428  15.758  11.057
75160W        W45041  33.932  37.998  13.820
75161W        W45042  26.472   1.458   0.731
75162W        W45043  15.279  34.940   0.370
75163W        W45044  38.541  39.486   4.700
75164W        W45045   7.229  12.344  11.487
75165W        W45046  30.413  28.452  11.951
75166W        W45047  15.630  24.651  14.493
75167W        W45048  38.036   0.391   4.614
75168W        W45049  38.472  44.992  12.439
75169W        W45050  21.712  37.562  10.587
75170W        W45051  28.450  43.329  11.895
75171W        W45052  26.099  40.878   4.316
75172W        W45053  41.371   8.893  12.376
75173W        W45054  32.473  21.051   0.908
75174W        W45055  36.051  19.745  12.027
75175W        W45056  21.072  13.843   4.199
75176W        W45057   7.877  33.069   0.271
75177W        W45058  19.127   4.813  14.931
75178W        W45059   2.834  44.411  12.080
75179W        W45060  17.635   9.183   1.368
75180W        W45061  29.535  41.017  10.977
75181W        W45062  26.691  12.750  13.493
75182W        W45063  20.260  42.004  13.417
75183W        W45064  14.141  13.157  11.969
75184W        W45065  39.048  28.003  12.088
75185W        W45066  17.164   6.820   0.922
75186W        W45067  17.080  30.422  10.082
75187W        W45068  23.219  44.932  13.951
75188W        W45069  25.029  29.088   2.815
75189W        W45070  35.468  10.728  14.784
75190W        W45071  21.203  20.591  14.346
75191W        W45072  13.796  16.696  12.564
75192W        W45073  43.833  38.859   3.801
75193W        W45074  24.981  23.072  10.552
75194W        W45075  35.968  40.388  14.379
75195W        W45076  22.113  37.577  12.878
75196W        W45077  42.966  22.217  10.500
75197W        W45078  16.625  21.178   3.358
75198W        W45079  19.602  20.255   4.659
75199W        W45080  36.056  30.109  14.882
75200W        W45081  24.667  36.868   1.395
75201W        W45082  40.528   5.924   2.330
75202W        W45083   3.725  23.612   2.861
75203W        W45084  18.115  37.923   3.857
75204W        W45085  34.988   1.385   2.417
75205W        W45086   2.881  29.614  11.108
75206W        W45087  30.536  28.174  10.464
75207W        W45088  25.164  34.607  10.924
75208W        W45089  31.637  16.211   0.425
75209W        W45090  41.465   1.478   0.958
75210W        W45091  40.963   1.912  13.315
75211W        W45092  39.462  43.304  10.896
75212W        W45093  15.223  38.936   0.921
75213W        W45094   3.793  42.420  11.939
75214W        W45095  44.878  36.061  10.610
75215W        W45096  33.057  26.473   0.940
75216W        W45097  19.674  10.712  13.357
75217W        W45098  24.527  10.821  13.802
75218W        W45099  16.594  33.937   3.217
75219W        W45100  26.698  39.341  13.429
75220W        W45101  23.728  32.105  10.550
75221W        W45102  30.129  26.549  14.784
75222W        W45103   5.437  37.986   0.929
75223W        W45104   2.270  25.036   2.261
75224W        W45105  23.694  10.377   0.423
75225W        W45106  37.551   6.749   1.271
75226W        W45107  41.811   2.422   2.299
75227W        W45108  16.620  15.325   3.234
75228W        W45109   1.848   6.679  11.508
75229W        W45110  19.218  44.929  13.887
75230W        W45111  30.013  26.521   2.834
75231W        W45112   3.217  42.497  12.001
75232W        W45113  38.961  41.309   0.906
75233W        W45114  31.966   2.944  11.548
75234W        W45115  24.974   3.927  10.417
75235W        W45116  27.592  37.942   4.197
75236W        W45117  19.126  20.700   2.693
75237W        W45118  21.040  37.883   0.249
75238W        W45119  42.308  28.034   0.464
75239W        W45120  25.213  16.261  12.402
75240W        W45121   9.852   3.863   2.388
75241W        W45122  33.089  10.678  11.011
75242W        W45123   4.729  26.621  14.288
75243W        W45124  31.136  14.309   3.307
75244W        W45125   5.274   9.658   4.656
75245W        W45126  17.130  24.030   2.196
75246W        W45127  13.220   7.294   2.337
75247W        W45128  40.354  11.369  12.076
75248W        W45129  27.112  37.371  12.482
75249W        W45130  29.594  35.071  10.064
75250W        W45131   8.751  35.449  13.485
75251W        W45132  35.543  41.030   0.387
75252W        W45133  22.672  35.110   5.292
75253W        W45134  43.402  24.209  13.931
75254W        W45135  26.506  44.438   2.776
75255W        W45136  34.973  18.278  14.445
75256W        W45137  25.520  22.722   1.271
75257W        W45138  36.915   1.481  12.883
75258W        W45139  37.500   0.327  13.852
75259W        W45140   7.711  39.400   1.925
75260W        W45141  10.166  33.626   5.127
75261W        W45142   8.253  17.225  13.916
75262W        W45143  16.288  43.978   0.459
75263W        W45144   2.292  14.678   2.186
75264W        W45145  31.498  34.493  14.955
75265W        W45146  12.349  37.528   4.674
75266W        W45147  43.881  25.658   0.964
75267W        W45148   8.849   0.348   1.777
75268W        W45149  35.047  30.032   3.631
75269W        W45150   3.753  20.563  10.983
75270W        W45151  31.138   0.982  12.931
75271W        W45152  22.218  32.128   3.742
75272W        W45153  21.083  22.683   2.759
75273W        W45154  21.050  23.185  13.945
75274W        W45155  14.614  41.867  12.904
75275W        W45156   1.362  29.584   2.241
75276W        W45157   7.791  22.621   2.870
75277W        W45158  18.710  32.629  10.427
75278W        W45159  21.049   5.691  14.334
75279W        W45160   8.287  10.306  10.120
75280W        W45161  39.513   9.303  14.995
75281W        W45162   7.196  16.167  12.542
75282W        W45163  26.470  34.928  12.023
75283W        W45164  16.735  35.451   1.712
75284W        W45165  19.230  14.225   2.826
75285W        W45166  13.840  40.546  13.016
75286W        W45167   3.320   5.416  14.481
75287W        W45168  12.716  17.766   4.674
75288W        W45169   5.298   2.463  14.885
75289W        W45170  43.404  18.728   0.341
75290W        W45171   9.813   9.680  11.498
75291W        W45172  21.109  31.941   4.756
75292W        W45173   2.299  31.944   4.698
75293W        W45174  34.451  31.963   1.383
75294W        W45175  19.232  42.440   4.274
75295W        W45176  17.739  33.973   0.348
75296W        W45177  43.920  25.668   4.341
75297W        W45178  37.010   1.452  10.106
75298W        W45179  18.127  24.202  12.352
75299W        W45180   0.359  44.831  11.105
75300W        W45181  15.185  32.601   2.791
75301W        W45182  40.918  10.733   2.196
75302W        W45183  32.603  29.984   0.252
75303W        W45184  35.385  33.999   4.214
75304W        W45185  16.761  26.953   3.733
75305W        W45186  10.823   5.841  13.345
75306W        W45187  41.040  20.085  12.561
75307W        W45188  18.704  22.536   1.443
75308W        W45189  30.086  30.967   0.322
75309W        W45190   1.379  32.486   2.799
75310W        W45191  24.684   6.804   3.809
75311W        W45192  28.636   0.954  10.468
75312W        W45193  29.174   9.708   0.410
75313W        W45194  33.963  16.126  13.519
75314W        W45195  15.821  33.939   4.729
75315W        W45196  15.796  27.993   4.632
75316W        W45197  29.600   5.268  14.472
75317W        W45198  41.997  40.846   3.691
75318W        W45199  44.979  28.186  12.011
75319W        W45200  25.030  21.573   4.331
75320W        W45201   2.423  35.542  14.936
75321W        W45202  13.811  40.817   1.304
75322W        W45203  44.839   7.780   2.724
75323W        W45204  22.150  21.594   2.850
75324W        W45205  41.845  16.149  12.045
75325W        W45206  32.604  33.548  11.041
75326W        W45207  13.285  40.318   4.202
75327W        W45208   0.276  36.477   2.202
75328W        W45209  22.617  21.092   1.753
75329W        W45210  19.042  44.422   1.917
75330W        W45211  32.461  40.347   1.930
75331W        W45212   4.740  39.991   3.214
75332W        W45213  19.721  31.129   3.305
75333W        W45214   5.804  43.387   3.273
75334W        W45215  10.869   1.753  14.905
75335W        W45216  42.367  32.057  13.312
75336W        W45217  41.474  15.761   0.756
75337W        W45218   8.167   1.320  12.534
75338W        W45219   5.702  37.526   3.800
75339W        W45220  18.690  17.276  11.395
75340W        W45221   0.413  42.417  10.442
75341W        W45222   8.224  26.087   2.244
75342W        W45223  31.900  38.368   0.361
75343W        W45224   1.912  32.962   0.858
75344W        W45225  19.725  17.779   3.769
75345W        W45226  23.154  30.638  10.478
75346W        W45227  17.660   5.886   4.290
75347W        W45228  22.731   3.426   1.274
75348W        W45229  31.979  30.527   0.964
75349W        W45230  22.524  40.049   2.679
75350W        W45231  33.518  12.185  14.295
75351W        W45232  41.998  12.308   3.831
75352W        W45233  22.683   0.857  12.396
75353W        W45234  30.155   0.325  14.803
75354W        W45235  31.584  10.238  10.899
75355W        W45236  31.916  17.092  14.817
75356W        W45237   0.408  21.174  12.536
75357W        W45238   7.252  16.795   2.289
75358W        W45239  43.325  40.365   0.963
75359W        W45240  15.666  29.424  10.466
75360W        W45241  14.152  29.440   3.713
75361W        W45242  18.775  32.903  13.461
75362W        W45243   8.355  32.904  14.875
75363W        W45244   2.730  11.822   0.737
75364W        W45245  43.881  44.369  12.964
75365W        W45246  44.762  10.719  13.335
75366W        W45247  10.204  27.609   2.775
75367W        W45248  33.434  33.884  12.351
75368W        W45249   4.762   4.838   2.215
75369W        W45250  42.392   4.855   1.914
75370W        W45251  31.921   5.306  14.880
75371W        W45252  19.549   7.862   1.901
75372W        W45253  10.183   0.773  12.840
75373W        W45254  31.145  31.034  11.392
75374W        W45255  18.066   8.824  13.035
75375W        W45256  37.936  15.694   0.815
75376W        W45257  30.946  25.112  13.058
75377W        W45258  11.303  14.197  13.403
75378W        W45259  18.130  42.929   2.306
75379W        W45260  41.037  16.129  13.970
75380W        W45261  10.339  23.080  13.864
75381W        W45262  23.644   0.301   2.786
75382W        W45263  19.096  11.299  14.850
75383W        W45264  22.021  16.697   3.638
75384W        W45265  27.004   1.311   4.234
75385W        W45266   2.731  27.119   2.304
75386W        W45267  26.657  26.056   3.662
75387W        W45268   0.464  13.126   3.354
75388W        W45269  12.846  12.255  13.394
75389W        W45270  40.306  21.142   1.815
75390W        W45271  13.614  25.977   0.774
75391W        W45272   8.796  17.168   0.481
75392W        W45273   6.855  15.269   2.321
75393W        W45274   3.790  41.026  13.937
75394W        W45275  26.525  23.110  10.519
75395W        W45276  24.219  21.591   4.687
75396W        W45277  42.289  36.066  14.287
75397W        W45278  14.617   1.780   4.339
75398W        W45279  30.965  29.565   2.732
75399W        W45280   0.781  22.569   4.692
75400W        W45281  44.273  39.008  11.500
75401W        W45282  33.026   1.383   3.844
75402W        W45283  23.104  23.137  12.462
75403W        W45284  16.183  42.824   3.194
75404W        W45285  33.005  44.760   3.369
75405W        W45286  41.467  28.657  11.381
75406W        W45287  32.492  27.159  14.861
75407W        W45288  36.922   6.186  12.421
75408W        W45289  12.287  31.077   5.696
75409W        W45290   3.219  43.379  14.763
75410W        W45291  11.809   9.841   0.455
75411W        W45292   2.460  21.651   0.378
75412W        W45293  19.607   4.308  14.969
75413W        W45294  16.303   9.695   4.266
75414W        W45295  43.771   3.955   0.946
75415W        W45296  38.491   5.931  11.953
75416W        W45297  43.791  40.030   1.340
75417W        W45298  25.690  14.729  14.991
75418W        W45299   6.741   2.934  12.513
75419W        W45300  44.423  18.764  11.481
75420W        W45301  24.184   8.800   5.293
75421W        W45302  31.608   6.752  12.387
75422W        W45303   6.390  25.508   4.323
75423W        W45304  43.912  43.893  13.980
75424W        W45305  40.471  34.038   2.296
75425W        W45306   0.896  19.111   3.302
75426W        W45307  28.611   5.244   1.277
75427W        W45308  43.436   5.704   4.713
75428W        W45309  25.585  29.036  13.011
75429W        W45310   8.766  17.649   2.365
75430W        W45311  33.489  34.487  13.450
75431W        W45312  44.777   2.285   3.747
75432W        W45313   6.279   6.706  13.520
75433W        W45314  42.890  44.947   0.285
75434W        W45315   9.707  42.513   2.323
75435W        W45316  21.045  36.399   1.914
75436W        W45317  17.219  27.555   3.741
75437W        W45318  26.051  43.929   2.770
75438W        W45319  26.965  24.153  11.037
75439W        W45320   2.252  29.531  10.558
75440W        W45321  31.605  34.589  12.525
75441W        W45322  20.534   1.370  14.376
75442W        W45323  18.602  40.538   5.317
75443W        W45324  43.010  40.050  13.545
75444W        W45325  23.716  17.719   3.174
75445W        W45326  41.970  23.201   2.382
75446W        W45327  38.982  18.710   2.738
75447W        W45328  13.185   0.364  14.477
75448W        W45329  27.448   2.793  10.599
75449W        W45330  20.201  44.307  12.860
75450W        W45331  32.614   5.861   4.663
75451W        W45332  17.717  44.778  14.295
75452W        W45333  40.005  27.954   0.863
75453W        W45334  11.639   0.881  12.904
75454W        W45335   6.804  38.409  14.778
75455W        W45336  15.204   0.912  12.979
75456W        W45337   6.390  29.641   0.393
75457W        W45338  30.993   2.422  12.022
75458W        W45339  36.012   0.930   2.240
75459W        W45340  40.358  11.208  12.552
75460W        W45341  27.609  14.193  10.532
75461W        W45342  35.068  31.104   2.768
75462W        W45343  28.544  36.514  13.353
75463W        W45344   1.826  26.659  11.971
75464W        W45345  12.316   1.813  13.373
75465W        W45346  30.161  26.032  10.487
75466W        W45347   6.227  18.770   2.387
75467W        W45348  31.644  17.063   5.313
75468W        W45349   1.260  33.613  11.430
75469W        W45350  30.924  39.047  12.932
75470W        W45351  34.484  14.591  11.384
75471W        W45352  42.333  20.591   3.745
75472W        W45353   6.387  40.868   3.795
75473W        W45354  37.926  33.033  14.775
75474W        W45355  38.889   6.776   3.858
75475W        W45356  15.631  23.131  12.001
75476W        W45357  43.886  16.666  13.005
75477W        W45358  34.369  10.199   3.317
75478W        W45359  43.771  13.307  13.969
75479W        W45360  17.280   9.727   3.636
75480W        W45361  10.200  43.919  11.391
75481W        W45362  41.534   0.884   3.350
75482W        W45363  41.428   3.248  12.481
75483W        W45364  15.259  23.735  14.448
75484W        W45365  32.623  33.056   3.270
75485W        W45366  11.331  28.182   5.806
75486W        W45367   5.249  16.780  11.863
75487W        W45368   6.422  13.613   2.893
75488W        W45369  38.353   4.433  11.375
75489W        W45370   6.281  22.658   4.687
75490W        W45371  21.163  25.967   1.884
75491W        W45372  30.103  33.965  11.596
75492W        W45373  30.651  40.362  10.944
75493W        W45374  31.472  14.818   1.403
75494W        W45375  23.134  25.202  11.037
75495W        W45376  43.838   8.894   1.781
75496W        W45377  18.666   7.337   1.234
75497W        W45378  31.579  29.565   0.395
75498W        W45379  35.527  36.056   1.781
75499W        W45380  26.145  43.488  13.953
75500W        W45381  24.570  34.441   3.152
75501W        W45382  37.543  43.966  11.377
75502W        W45383  36.842  38.434   0.304
75503W        W45384   6.408   0.382  13.809
75504W        W45385  41.944   3.857  14.846
75505W        W45386   4.782   1.471   0.416
75506W        W45387  10.145  40.854   3.676
75507W        W45388  42.824  35.441  14.966
75508W        W45389  18.139  35.990  14.029
75509W        W45390  23.235   3.804  14.323
75510W        W45391  16.566  35.450  12.935
75511W        W45392  35.053  16.275  11.041
75512W        W45393   1.331  40.408  14.350
75513W        W45394  38.503  41.805   0.377
75514W        W45395  41.455   1.796  14.391
75515W        W45396   6.805  12.828  10.970
75516W        W45397  29.037  16.773   3.841
75517W        W45398  19.066   8.190   4.203
75518W        W45399  28.677  43.816  13.026
75519W        W45400  15.273  36.938   0.319
75520W        W45401   9.799  29.652   3.367
75521W        W45402  41.474  28.978  11.497
75522W        W45403  33.951  14.619  14.903
75523W        W45404  22.551  27.972   2.325
75524W        W45405  37.373   9.888  11.078
75525W        W45406  13.239   8.239   0.729
75526W        W45407  39.010  11.734   0.919
75527W        W45408  14.638  39.982  13.044
75528W        W45409   4.236  10.772  10.906
75529W        W45410  22.726  13.247  14.795
75530W        W45411  10.187  13.257  10.574
75531W        W45412  19.217  11.373   3.787
75532W        W45413  43.494  10.172  10.015
75533W        W45414  37.435  25.133   4.692
75534W        W45415  14.711  22.545  14.438
75535W        W45416   6.262  23.682   4.222
75536W        W45417   7.683   8.246  10.606
75537W        W45418  36.094  25.481   4.760
75538W        W45419  26.510  17.146   4.154
75539W        W45420  34.947  43.431  11.126
75540W        W45421  10.636  42.396  11.586
75541W        W45422  43.981  41.909   3.822
75542W        W45423  32.431   4.944  11.429
75543W        W45424  11.829   9.304  13.879
75544W        W45425  44.952  27.184   0.781
75545W        W45426  34.427  36.379  11.410
75546W        W45427  43.329  32.561  12.878
75547W        W45428  21.211   9.827  12.452
75548W        W45429  38.000  36.538  14.841
75549W        W45430  14.132  18.555   2.785
75550W        W45431  19.713  41.978  12.085
75551W        W45432   9.769  32.098   4.283
75552W        W45433  30.127  13.321   0.311
75553W        W45434  17.765  17.128  13.358
75554W        W45435  17.160  35.474   2.288
75555W        W45436  44.897  43.765  10.952
75556W        W45437  11.861  26.133   4.301
75557W        W45438   0.935  41.403   5.300
75558W        W45439  14.662  43.968   4.230
75559W        W45440  13.623  31.537   2.419
75560W        W45441  19.237  24.650  13.806
75561W        W45442  13.258  10.766  10.525
75562W        W45443  37.516  22.040  13.488
75563W        W45444  37.874  14.811   3.160
75564W        W45445  13.723  10.655   0.838
75565W        W45446  36.434  28.504   2.341
75566W        W45447  35.935  18.658   1.294
75567W        W45448  17.591  29.032  14.954
75568W        W45449  23.067  13.758   4.347
75569W        W45450  33.953  15.617   0.429
75570W        W45451  43.892  41.878   0.852
75571W        W45452  19.244  15.733  14.862
75572W        W45453   0.290  21.686   3.383
75573W        W45454  31.548  44.340   3.291
75574W        W45455  21.579   9.205   3.845
75575W        W45456  25.532  20.116  14.476
75576W        W45457   0.785   8.276  12.078
75577W        W45458  43.848  16.241   2.742
75578W        W45459  39.452  24.658  11.933
75579W        W45460  39.815  19.188  14.425
75580W        W45461  12.272  38.414   2.856
75581W        W45462  34.443  13.180  11.083
75582W        W45463  20.655  31.489  14.326
75583W        W45464  25.967  29.062  12.962
75584W        W45465  16.258  32.930   3.370
75585W        W45466  43.489  25.627   3.766
75586W        W45467  29.943  17.297  14.945
75587W        W45468  13.671  15.251   1.829
75588W        W45469  41.461  34.958   3.631
75589W        W45470  14.704  13.277  11.018
75590W        W45471  28.619   7.810  12.476
75591W        W45472  39.375  44.462   0.436
75592W        W45473  42.978  33.031  11.607
75593W        W45474  26.513  12.651  14.887
75594W        W45475  42.355  39.339  13.470
75595W        W45476  40.815  26.013   2.194
75596W        W45477  16.300  17.687   1.245
75597W        W45478  28.577   9.178   2.783
75598W        W45479  26.952  20.185   4.658
75599W        W45480  14.132   4.296   0.824
75600W        W45481  25.216  18.251   0.464
75601W        W45482  36.921  27.061   1.404
75602W        W45483   3.723  26.199   0.440
75603W        W45484  10.222  27.973   2.406
75604W        W45485  17.631  15.605   0.428
75605W        W45486  17.598   5.909  11.566
75606W        W45487  30.540   5.413  14.847
75607W        W45488  29.524  26.495  10.101
75608W        W45489  17.264  12.665  11.995
75609W        W45490  26.009  27.151  13.060
75610W        W45491  36.010  44.887  10.151
75611W        W45492  39.535  17.295  10.533
75612W        W45493  16.775   1.450   2.192
75613W        W45494  29.017  31.574  12.952
75614W        W45495   2.723  38.444   4.826
75615W        W45496  33.614  10.862   2.809
75616W        W45497  40.329  36.583  14.484
75617W        W45498  27.142  43.494   3.368
75618W        W45499  20.654  13.210   2.258
75619W        W45500   7.369  37.415   0.345
75620W        W45501  15.324  34.468   1.229
75621W        W45502  18.198   9.362   4.643
75622W        W45503  20.071  41.339   4.305
75623W        W45504  41.882  21.103   4.214
75624W        W45505   9.699  39.931   1.819
75625W        W45506  42.300   8.882  13.512
75626W        W45507  27.555  32.134   0.477
75627W        W45508   4.364  40.422  11.515
75628W        W45509  36.853  39.846  14.384
75629W        W45510  13.610   3.440  12.895
75630W        W45511   6.200   9.331  13.021
75631W        W45512  16.211  34.596   0.961
75632W        W45513   5.802   1.355   1.886
75633W        W45514   0.286  15.771   4.329
75634W        W45515   3.428  25.213  12.489
75635W        W45516   4.840   5.269   4.653
75636W        W45517   3.750  13.813   4.636
75637W        W45518   0.810  27.565  13.333
75638W        W45519  28.594   7.746   1.935
75639W        W45520  10.204  19.071  13.055
75640W        W45521  37.448  12.674   3.301
75641W        W45522   2.796  35.035  10.584
75642W        W45523  11.725  27.003   4.321
75643W        W45524  24.187  41.002  14.982
75644W        W45525   1.358  30.427   4.200
75645W        W45526  42.004  24.139   2.855
75646W        W45527  25.626  10.768  13.440
75647W        W45528   5.309  19.095   1.255
75648W        W45529  42.439  18.621   0.435
75649W        W45530  23.032  22.624   3.220
75650W        W45531  22.101  12.276  12.891
75651W        W45532   6.267  35.960  11.115
75652W        W45533  39.334  18.739   2.275
75653W        W45534  28.562  28.633   0.315
75654W        W45535   7.191  37.958  10.601
75655W        W45536  43.301  21.134  13.454
75656W        W45537  14.187  37.913  13.995
75657W        W45538  18.648   0.472  14.004
75658W        W45539  11.838   1.282  13.415
75659W        W45540   6.390   3.434   0.245
75660W        W45541   1.340  44.891  13.399
75661W        W45542   9.699  26.647   4.182
75662W        W45543  37.559  37.970   3.221
75663W        W45544  38.542  28.656   2.418
75664W        W45545  31.079  29.471  11.403
75665W        W45546   3.450  22.630   1.229
75666W        W45547  28.650  29.433   4.145
75667W        W45548  18.188  16.155   2.702
75668W        W45549  44.502   0.885  10.533
75669W        W45550  18.280  14.618   4.614
75670W        W45551  27.565  19.639   1.290
75671W        W45552  16.194  35.431   2.391
75672W        W45553  43.830  21.160   3.208
75673W        W45554  18.136  28.991  10.461
75674W        W45555  41.025  25.134   0.416
75675W        W45556  17.761  31.588   0.793
75676W        W45557  37.399  32.547   2.373
75677W        W45558  44.868  37.422   0.910
75678W        W45559  18.241  39.435   4.809
75679W        W45560  36.868  28.440  13.525
75680W        W45561  35.402   1.335   3.680
75681W        W45562  18.582  10.311   3.315
75682W        W45563  22.727  17.259   1.367
75683W        W45564  17.123   6.722   4.795
75684W        W45565  38.413  13.752   3.251
75685W        W45566  20.210  24.486  12.036
75686W        W45567  40.538  35.937   4.796
75687W        W45568   0.297  32.475   3.741
75688W        W45569  35.876  32.004  11.880
75689W        W45570   1.813  14.780  13.938
75690W        W45571  35.596  19.652   3.769
75691W        W45572   1.364  30.514  11.388
75692W        W45573  30.534  17.575   5.207
75693W        W45574  10.820  17.276   2.364
75694W        W45575  25.193  44.970  10.436
75695W        W45576  38.864  43.894   4.216
75696W        W45577   1.904  23.135  13.927
75697W        W45578  25.542   4.731   0.265
75698W        W45579  37.373  36.952  14.383
75699W        W45580   6.914  25.703  14.393
75700W        W45581  33.950  22.111   3.658
75701W        W45582  22.143   8.784  12.033
75702W        W45583  16.724  42.503  14.401
75703W        W45584  30.911  22.514  14.490
75704W        W45585  31.050  35.097  12.060
75705W        W45586  10.193  11.849  13.064
75706W        W45587  35.500  11.773   2.750
75707W        W45588  35.923  42.377   0.367
75708W        W45589  26.199  30.496   2.825
75709W        W45590  33.076  11.726  13.337
75710W        W45591  21.222  22.174  13.907
75711W        W45592  40.987  31.102  11.577
75712W        W45593  39.937  14.723  11.416
75713W        W45594  11.730  40.004   2.358
75714W        W45595  31.048  10.221   1.769
75715W        W45596  20.083  28.006  14.383
75716W        W45597  18.695   7.784  12.011
75717W        W45598  41.497  23.158   2.205
75718W        W45599  21.172  37.039  11.440
75719W        W45600  35.453  34.116   0.265
75720W        W45601  24.579  29.014   2.689
75721W        W45602  15.266  27.007   3.210
75722W        W45603  37.041  35.428   3.231
75723W        W45604  43.389   1.242   1.282
75724W        W45605   6.260  18.113  11.898
75725W        W45606  35.512  13.744   3.159
75726W        W45607  24.066  33.956   1.909
75727W        W45608  34.067   2.761  12.989
75728W        W45609  40.850  23.643   0.765
75729W        W45610   0.350  37.387   0.342
75730W        W45611   9.757  18.675   1.722
75731W        W45612   5.304   4.242  11.930
75732W        W45613  12.363  27.591   9.937
75733W        W45614  24.645  11.645  10.495
75734W        W45615  35.600  12.786   1.821
75735W        W45616   5.880  28.988   2.297
75736W        W45617  23.490   5.309   3.797
75737W        W45618   5.279  36.954  11.423
75738W        W45619   8.272   5.391  14.426
75739W        W45620  16.271  16.134  13.923
75740W        W45621  15.660   7.836   4.311
75741W        W45622   9.285  27.106   3.698
75742W        W45623  13.718  33.624  13.504
75743W        W45624  26.025  14.727   3.776
75744W        W45625   0.343   3.334   3.178
75745W        W45626  35.935  28.975  10.605
75746W        W45627   8.849  39.950  14.918
75747W        W45628  34.907  30.141   1.840
75748W        W45629  36.445  37.488  12.828
75749W        W45630  26.692  36.366   2.763
75750W        W45631  19.081   8.741  12.399
75751W        W45632  37.564   1.270   2.793
75752W        W45633  13.188  42.347   1.762
75753W        W45634  12.714  31.530   3.673
75754W        W45635  40.533  27.493  10.443
75755W        W45636  16.612  16.779  12.366
75756W        W45637  20.621  15.658  11.493
75757W        W45638  31.554  24.556  12.396
75758W        W45639  44.286  17.617   4.734
75759W        W45640  15.707  25.075   2.399
75760W        W45641  22.518  33.968  13.416
75761W        W45642  24.141  27.594   1.348
75762W        W45643  41.442  26.566  11.987
75763W        W45644  19.137  31.018  13.529
75764W        W45645   1.419  19.688   4.657
75765W        W45646  39.422  19.220   3.864
75766W        W45647  30.999  24.169  12.532
75767W        W45648  28.550  15.180   1.217
75768W        W45649   4.323  21.645  11.938
75769W        W45650  34.028  27.494   0.877
75770W        W45651  27.496  12.646  13.371
75771W        W45652   2.280   0.385   4.151
75772W        W45653  20.058   7.869   0.885
75773W        W45654  24.126  21.063   3.722
75774W        W45655  41.956  22.028   4.787
75775W        W45656  21.520  29.961  13.312
75776W        W45657   2.236  39.516   2.417
75777W        W45658  44.884  41.036   3.758
75778W        W45659  33.440  23.092  11.377
75779W        W45660  17.747   3.358   2.827
75780W        W45661   8.160  21.657  14.465
75781W        W45662  26.061   6.232  12.433
75782W        W45663  15.164  36.522   4.284
75783W        W45664   6.816  19.644   2.832
75784W        W45665  22.163  24.197  11.575
75785W        W45666  14.241  44.769   2.209
75786W        W45667   4.723  15.125  13.984
75787W        W45668  21.660  33.520  13.996
75788W        W45669   9.854  10.143  11.961
75789W        W45670  14.626  23.604  11.489
75790W        W45671  29.606  24.539  12.556
75791W        W45672  24.132  43.838   4.764
75792W        W45673  25.215  33.047   4.605
75793W        W45674  17.206  29.607  10.471
75794W        W45675  31.621   3.342   4.649
75795W        W45676  23.651   3.263   1.839
75796W        W45677  37.924  19.106   1.252
75797W        W45678   2.923  35.527  12.878
75798W        W45679  29.493  21.246  10.085
75799W        W45680  22.508   2.793  10.584
75800W        W45681  35.972  10.777  11.024
75801W        W45682  13.165   2.409  10.590
75802W        W45683  21.514  14.115  11.587
75803W        W45684  33.498  15.712  10.960
75804W        W45685  16.604  31.020   0.426
75805W        W45686   5.323  32.014   2.854
75806W        W45687  24.121  27.165  11.429
75807W        W45688   1.374  40.999  11.590
75808W        W45689  15.654   6.909  11.412
75809W        W45690  37.537  40.357   0.272
75810W        W45691  28.951  32.434   2.879
75811W        W45692   8.696   4.863  14.867
75812W        W45693  35.933  28.651  13.902
75813W        W45694  20.180  15.586  14.021
75814W        W45695  17.140  16.232   4.181
75815W        W45696  15.588  17.134   2.268
75816W        W45697  43.513   4.270   1.857
75817W        W45698  22.006  43.406   0.818
75818W        W45699  41.018  16.266  12.025
75819W        W45700  19.713  15.724  12.086
75820W        W45701  12.270  42.478  11.876
75821W        W45702  44.265   3.808   1.395
75822W        W45703  39.486  33.999  10.451
75823W        W45704  27.656  18.181   0.736
75824W        W45705   0.939  44.951   1.929
75825W        W45706  34.072  28.048  10.977
75826W        W45707   7.234  34.580   4.160
75827W        W45708  44.796  34.479   0.315
75828W        W45709  36.502  13.690  11.117
75829W        W45710  17.103  35.088   4.805
75830W        W45711  39.365  35.905   0.273
75831W        W45712  19.583  29.617   0.316
75832W        W45713  44.981  44.273   2.842
75833W        W45714  13.277  38.483   9.984
75834W        W45715  16.800   7.297  11.003
75835W        W45716  31.412  34.885   0.456
75836W        W45717  38.011  32.395   1.752
75837W        W45718  32.550  18.685   0.811
75838W        W45719  44.754  11.671  10.530
75839W        W45720  20.578  17.306   0.929
75840W        W45721   9.321  23.108  14.790
75841W        W45722  30.544  42.485   4.331
75842W        W45723   0.876   4.351   4.819
75843W        W45724  33.515  15.600   2.373
75844W        W45725  34.531  21.076   2.720
75845W        W45726  13.214  33.606   1.880
75846W        W45727  22.665  23.026  14.403
75847W        W45728  13.733  33.128  13.060
75848W        W45729  20.717  25.572  14.429
75849W        W45730  27.606  23.497  11.888
75850W        W45731  10.831  19.081   2.678
75851W        W45732  19.726   9.164   1.760
75852W        W45733  35.891  39.399  13.487
75853W        W45734  23.657  18.164   1.261
75854W        W45735  12.136  21.632   3.282
75855W        W45736  31.912  10.383   0.762
75856W        W45737  41.875  13.665   4.232
75857W        W45738  20.205  41.471   3.704
75858W        W45739  19.062  35.584  12.087
75859W        W45740  27.583  30.573  12.905
75860W        W45741  37.968  25.577   1.758
75861W        W45742   6.263   0.944   5.262
75862W        W45743  22.523  34.552  12.419
75863W        W45744   9.255  41.512   3.717
75864W        W45745  19.250  30.653   2.344
75865W        W45746   6.859  42.890   2.697
75866W        W45747   6.287  38.414   1.870
75867W        W45748  16.248   6.718   4.146
75868W        W45749  15.084   9.869  13.319
75869W        W45750  32.400  14.125  14.494
75870W        W45751   7.903  24.108   0.766
75871W        W45752   1.358  41.466   2.419
75872W        W45753   0.867  30.107  13.799
75873W        W45754  17.636  27.690  11.058
75874W        W45755  36.994  14.592  13.909
75875W        W45756  29.984  13.256   1.697
75876W        W45757   5.265  18.614  11.382
75877W        W45758  41.524  20.092  14.811
75878W        W45759  14.593  20.626  10.423
75879W        W45760  11.256  15.284   3.654
75880W        W45761   8.654   7.890   3.267
75881W        W45762   9.673  33.548   1.922
75882W        W45763  39.918  38.428  12.497
75883W        W45764  34.463  20.761  11.527
75884W        W45765  30.586  33.452   3.869
75885W        W45766  43.275  38.326   0.866
75886W        W45767  29.057   5.230  13.854
75887W        W45768  31.129   3.898  13.873
75888W        W45769  33.894  39.374   1.715
75889W        W45770  23.010  26.997   0.405
75890W        W45771  38.004  14.189   4.289
75891W        W45772   2.331   6.784  14.818
75892W        W45773  38.548  28.639  14.810
75893W        W45774  24.229   6.894  14.809
75894W        W45775   4.723  13.241  10.970
75895W        W45776  38.541  31.580   2.787
75896W        W45777  29.138   5.788  12.943
75897W        W45778  18.722  33.435  13.935
75898W        W45779  43.821  40.864   4.725
75899W        W45780   9.835  15.809  14.941
75900W        W45781  14.216  29.107  11.891
75901W        W45782  44.399  24.998  11.873
75902W        W45783   4.276   1.770  13.876
75903W        W45784  35.070   8.256   3.305
75904W        W45785  25.092   5.236  11.446
75905W        W45786  39.387  25.123   5.221
75906W        W45787  36.859  10.709  13.495
75907W        W45788  14.234  27.690   1.224
75908W        W45789   7.704  39.908  11.941
75909W        W45790  37.042   8.735  14.435
75910W        W45791   2.887   9.674   2.333
75911W        W45792   1.415  32.117   1.303
75912W        W45793  24.682  42.895  11.981
75913W        W45794   1.294  22.080  14.764
75914W        W45795   6.769  35.037  14.793
75915W        W45796  24.088  35.881  11.571
75916W        W45797  44.914  29.028  13.442
75917W        W45798  28.085  25.606  10.582
75918W        W45799   8.722   2.260   1.448
75919W        W45800  40.040  11.264  14.874
75920W        W45801  34.476  12.676  14.969
75921W        W45802  31.920  21.661   0.465
75922W        W45803  10.213  16.621   2.219
75923W        W45804  12.359  36.413  13.436
75924W        W45805  44.323  21.107   2.363
75925W        W45806  40.832  22.644   4.299
75926W        W45807   4.244  38.421  10.626
75927W        W45808  31.039  38.530   2.803
75928W        W45809   8.689  21.640  13.346
75929W        W45810  36.853  41.965  13.995
75930W        W45811  11.868  21.200  14.798
75931W        W45812  32.124   0.353  10.418
75932W        W45813  21.022  18.265   3.869
75933W        W45814   8.667  18.696   1.865
75934W        W45815   8.176  29.106  14.343
75935W        W45816  38.852  33.014   0.866
75936W        W45817  14.282   8.213   2.879
75937W        W45818  15.618   2.757  10.983
75938W        W45819  43.291  24.122  13.027
75939W        W45820  13.785  28.165  14.326
75940W        W45821  15.804  12.117   1.848
75941W        W45822  38.055   9.165  13.480
75942W        W45823  26.482  27.472  11.423
75943W        W45824  18.238  38.838   4.344
75944W        W45825  26.616  29.123   3.175
75945W        W45826  20.172  14.260  12.059
75946W        W45827  24.680  11.360   2.723
75947W        W45828   1.426  38.347   2.866
75948W        W45829  38.566   8.866   0.264
75949W        W45830  44.432  41.423  11.101
75950W        W45831  40.459  29.482   0.932
75951W        W45832  23.076   9.391   2.366
75952W        W45833  12.215  34.482  11.430
75953W        W45834   3.851   0.492  14.468
75954W        W45835  35.907  21.662  14.358
75955W        W45836  38.563   6.888   1.337
75956W        W45837  29.481  44.938  13.883
75957W        W45838  20.106  33.482   2.763
75958W        W45839  26.988  38.892  12.561
75959W        W45840  39.380  32.141  10.946
75960W        W45841  13.330  23.184   4.205
75961W        W45842   1.810  31.991   2.241
75962W        W45843  37.001  26.621   4.745
75963W        W45844  33.985   1.419  10.405
75964W        W45845  38.497  42.872  13.954
75965W        W45846  26.667  22.110   3.797
75966W        W45847  37.579  13.694   0.367
75967W        W45848  31.116   7.296  14.929
75968W        W45849  19.557  41.901   0.255
75969W        W45850  11.165   0.357   1.928
75970W        W45851   2.880  19.062  12.856
75971W        W45852  13.148   4.446   3.357
75972W        W45853  33.998  34.436  10.586
75973W        W45854  38.907  31.514   0.395
75974W        W45855   2.730  39.393   2.304
75975W        W45856  39.973  22.070  11.437
75976W        W45857  42.940  36.440   1.270
75977W        W45858  41.316   2.269   1.255
75978W        W45859  17.223  11.798  14.009
75979W        W45860   0.377  40.042  12.472
75980W        W45861   3.329  16.078   1.910
75981W        W45862   9.784  33.101   1.217
75982W        W45863  18.729  23.006  11.555
75983W        W45864  44.332  32.110   3.255
75984W        W45865  18.262  35.938  11.549
75985W        W45866  28.572  11.249  12.399
75986W        W45867   1.829  25.521   2.813
75987W        W45868   6.864  10.344  11.890
75988W        W45869  43.870  38.550   4.250
75989W        W45870  39.482  36.919  13.879
75990W        W45871  40.016  37.000  13.810
75991W        W45872  35.995  13.735   4.312
75992W        W45873  16.082  37.338  13.532
75993W        W45874   2.425  33.551   0.343
75994W        W45875  16.264  20.669  13.530
75995W        W45876  22.697   6.682  12.520
75996W        W45877  25.210   0.768   0.815
75997W        W45878  12.296  35.424   4.815
75998W        W45879  20.673  17.578  11.582
75999W        W45880   4.435   7.342  12.538
76000W        W45881   7.252  21.259   0.733
76001W        W45882  42.507  28.665  10.421
76002W        W45883   3.323  14.733  11.495
76003W        W45884  29.974   6.858   2.252
76004W        W45885  26.012   3.890   4.834
76005W        W45886  34.985  15.095  13.937
76006W        W45887  24.551   0.318   4.222
76007W        W45888  31.019   7.797   0.883
76008W        W45889   5.906  30.155  12.863
76009W        W45890  40.042  44.884  11.940
76010W        W45891  24.042  11.321   3.743
76011W        W45892  37.067   3.922  14.809
76012W        W45893  23.210  10.158   4.678
76013W        W45894  44.281  18.255  14.761
76014W        W45895  43.868   0.250   4.749
76015W        W45896  14.195  23.547   4.207
76016W        W45897  43.973  15.646   2.693
76017W        W45898   1.389  38.472  10.569
76018W        W45899  14.592   7.809   5.149
76019W        W45900   5.411  23.602   4.810
76020W        W45901  32.091   4.295  10.964
76021W        W45902  27.070  18.747  11.522
76022W        W45903  21.212  26.461  10.966
76023W        W45904  22.242  16.662   5.116
76024W        W45905  12.147  22.563  13.903
76025W        W45906  25.964  11.727  14.404
76026W        W45907   4.883   8.688   0.332
76027W        W45908   8.826  26.063   3.855
76028W        W45909  33.480  20.073   4.289
76029W        W45910  28.597  32.053  12.578
76030W        W45911  33.983  27.971  11.548
76031W        W45912  23.711  43.363  11.075
76032W        W45913  15.601   7.290   0.455
76033W        W45914  43.001   6.756  13.520
76034W        W45915  39.510   9.340  14.298
76035W        W45916  38.836   2.341  13.540
76036W        W45917   2.287  11.175   2.213
76037W        W45918  22.513   9.887  14.281
76038W        W45919  39.837  25.551   0.816
76039W        W45920  13.303  39.335  13.030
76040W        W45921  34.599   7.401  12.849
76041W        W45922  37.365  12.622  13.041
76042W        W45923  26.584   0.388   0.411
76043W        W45924  39.040  38.876   3.279
76044W        W45925  16.123  32.547   0.943
76045W        W45926  30.026   6.353  14.454
76046W        W45927  37.857  11.148   2.835
76047W        W45928  28.969  25.158  14.930
76048W        W45929  44.943   1.938  13.411
76049W        W45930   2.844  17.561  11.046
76050W        W45931  28.983  16.732  11.530
76051W        W45932  43.328   3.715  10.563
76052W        W45933  26.146  16.647  13.448
76053W        W45934   1.278  44.439  10.603
76054W        W45935  14.765  13.755  13.483
76055W        W45936  14.649  20.205  12.040
76056W        W45937  16.750  41.329  14.927
76057W        W45938  35.412  21.711  10.534
76058W        W45939  27.686   5.924   0.898
76059W        W45940  30.001  40.380  13.488
76060W        W45941  42.955  40.524   5.255
76061W        W45942   0.429   5.871   2.683
76062W        W45943  15.305  32.536  13.972
76063W        W45944  16.165  41.794  14.278
76064W        W45945  28.134  34.073   2.402
76065W        W45946  19.168  23.163   4.187
76066W        W45947  41.991  19.133   0.397
76067W        W45948  29.655   6.694  14.984
76068W        W45949  16.683  28.036   3.309
76069W        W45950  22.066  31.032  10.913
76070W        W45951  42.029  12.302   0.428
76071W        W45952  33.562  22.040  11.075
76072W        W45953   4.324  32.411   3.764
76073W        W45954  40.336   9.228  10.432
76074W        W45955  32.453  33.064   1.349
76075W        W45956  10.217  30.632   1.889
76076W        W45957  42.021   9.223  14.799
76077W        W45958  19.662  16.136  11.971
76078W        W45959   2.856  43.904  12.966
76079W        W45960   2.264  30.165   0.891
76080W        W45961   4.845  27.036  13.527
76081W        W45962  29.568   8.715  14.492
76082W        W45963  34.376  25.474   0.871
76083W        W45964  16.136   4.422   4.273
76084W        W45965  28.134   7.411  12.088
76085W        W45966   1.456  27.144   3.225
76086W        W45967  37.883  19.759   4.827
76087W        W45968  30.447  35.517   0.747
76088W        W45969  37.013  38.877  11.113
76089W        W45970  19.619  35.391   1.353
76090W        W45971  23.053  34.000  10.601
76091W        W45972  29.448  20.044  14.850
76092W        W45973  37.862  38.569   4.230
76093W        W45974   5.889  14.592  11.495
76094W        W45975  44.848  28.038   2.287
76095W        W45976   3.909   9.853  13.491
76096W        W45977  32.899  28.633   1.237
76097W        W45978  18.093   9.189  10.578
76098W        W45979  39.349  41.313   2.226
76099W        W45980   6.923  25.996   3.206
76100W        W45981  19.068  26.524  10.484
76101W        W45982  15.102  15.795  12.849
76102W        W45983   3.282  27.143   4.621
76103W        W45984   1.880  26.199  11.447
76104W        W45985  32.454  19.126  10.898
76105W        W45986   8.376   9.349  13.987
76106W        W45987  15.101  18.113   1.397
76107W        W45988  24.704   9.309   2.685
76108W        W45989  33.883  35.568   3.356
76109W        W45990   1.237  33.566  10.580
76110W        W45991   8.828   1.350   2.341
76111W        W45992  28.154   3.803  10.939
76112W        W45993   9.873  36.536   0.424
76113W        W45994  26.588  33.085  12.003
76114W        W45995  35.980  13.120   0.316
76115W        W45996  27.460  44.413  13.804
76116W        W45997  40.544  16.169  12.951
76117W        W45998  13.747  25.546  12.388
76118W        W45999   6.922  10.667  14.297
76119W        W46000  37.083  41.389  11.869
76120W        W46001   0.335  20.729   3.785
76121W        W46002  18.092  14.675  12.927
76122W        W46003  35.949  28.044  13.483
76123W        W46004  10.851  38.490   2.760
76124W        W46005  33.593  27.186   1.440
76125W        W46006   6.355  14.697  14.450
76126W        W46007  19.194  32.544   1.903
76127W        W46008  43.016   0.884   0.483
76128W        W46009  29.991  39.045   1.885
76129W        W46010   5.723  14.312  11.474
76130W        W46011  19.064   9.870   2.841
76131W        W46012  19.053  12.829   2.288
76132W        W46013  40.030  37.401  13.903
76133W        W46014  35.456   6.769   4.704
76134W        W46015  37.045  18.718  13.021
76135W        W46016  26.570  40.007  11.479
76136W        W46017  31.072  33.579   2.686
76137W        W46018  28.180   8.289  13.330
76138W        W46019   6.725   4.767  11.873
76139W        W46020  44.883  19.107  14.768
76140W        W46021  21.043   3.275   4.737
76141W        W46022  21.043  34.388   3.304
76142W        W46023  22.622  24.032   3.247
76143W        W46024  43.947  41.437   0.807
76144W        W46025   8.292  14.172  10.634
76145W        W46026  32.060   2.278   3.207
76146W        W46027  15.660  17.667  13.028
76147W        W46028  21.136  30.909   3.769
76148W        W46029   1.872   6.294  10.591
76149W        W46030  44.881  27.964   3.366
76150W        W46031  39.925  11.634  12.827
76151W        W46032  17.222  39.026  13.497
76152W        W46033   6.414  14.694  12.347
76153W        W46034  12.353   9.773   0.816
76154W        W46035   4.707  27.954   2.774
76155W        W46036   8.896  40.976   0.744
76156W        W46037  34.552  28.491  13.936
76157W        W46038  32.428  17.608   3.180
76158W        W46039  39.492  34.472  13.348
76159W        W46040   1.290   3.382   2.882
76160W        W46041  42.518  28.662  11.955
76161W        W46042   7.685   2.341   0.396
76162W        W46043   1.319   5.812   3.275
76163W        W46044  41.866  35.448  12.438
76164W        W46045  11.864  36.065  12.030
76165W        W46046  22.737  11.730  13.954
76166W        W46047  16.103  15.581  11.575
76167W        W46048  41.878  34.928  10.484
76168W        W46049  38.494   8.875  14.798
76169W        W46050  14.679   9.175  10.445
76170W        W46051   3.246  14.167   4.682
76171W        W46052  17.603  17.657   2.875
76172W        W46053  10.795  42.521   2.205
76173W        W46054   5.766  44.907  10.956
76174W        W46055  22.134  40.516  14.851
76175W        W46056  14.285  16.175   1.837
76176W        W46057  22.116  26.058   0.251
76177W        W46058  21.693  37.339   5.134
76178W        W46059  37.339  40.978   3.834
76179W        W46060  24.560  11.770   1.212
76180W        W46061  37.479  43.793   3.344
76181W        W46062  41.425  19.274  11.940
76182W        W46063  39.367  21.658   1.907
76183W        W46064  34.095  37.991  11.455
76184W        W46065  13.302   0.348  10.403
76185W        W46066  23.188   7.406  10.945
76186W        W46067  33.590  26.952  10.567
76187W        W46068  16.744  39.010   0.252
76188W        W46069  23.128  28.606  10.940
76189W        W46070  31.546   7.701  14.022
76190W        W46071  43.276  27.455  13.321
76191W        W46072  18.159  29.483  10.899
76192W        W46073  23.209  12.242  10.538
76193W        W46074  23.497  41.446   1.792
76194W        W46075  20.258  40.358   4.352
76195W        W46076  25.710  36.393   0.475
76196W        W46077  33.539  14.222  13.356
76197W        W46078  17.753  11.157   4.716
76198W        W46079  28.062  18.610  10.973
76199W        W46080   8.190   2.248   4.652
76200W        W46081   8.876  28.016   0.319
76201W        W46082  15.245  32.130  13.010
76202W        W46083  18.757  35.093  14.447
76203W        W46084   6.375  22.639   0.783
76204W        W46085   9.291  38.962  10.953
76205W        W46086   6.217  12.829  12.058
76206W        W46087  10.681  33.568  12.879
76207W        W46088  13.333  34.483  14.459
76208W        W46089  32.497  27.485  13.423
76209W        W46090  31.060  10.208   5.188
76210W        W46091  11.803  30.084   2.759
76211W        W46092  19.599  32.993   4.330
76212W        W46093  37.338  14.726  13.947
76213W        W46094  35.389  33.569   0.295
76214W        W46095   5.825  24.985  11.468
76215W        W46096  38.841  39.941  11.011
76216W        W46097  16.114  28.436   2.258
76217W        W46098  38.977   0.339   5.189
76218W        W46099  27.615  39.849  14.966
76219W        W46100  17.124  40.855   1.853
76220W        W46101   6.281  20.219   3.288
76221W        W46102   5.912  25.653  13.398
76222W        W46103  13.200   9.884   3.175
76223W        W46104  15.601  20.614  10.409
76224W        W46105  20.530  44.892   4.789
76225W        W46106  20.742  34.398  12.431
76226W        W46107   1.964   1.361  12.941
76227W        W46108  37.429   3.764   0.820
76228W        W46109  44.467   7.343   1.897
76229W        W46110  12.812  32.429  10.949
76230W        W46111  22.544  39.336   4.127
76231W        W46112   0.276  22.522  10.637
76232W        W46113  27.020  33.582   2.782
76233W        W46114  27.115  17.630  14.328
76234W        W46115   1.951  11.143   2.728
76235W        W46116  23.556  18.598  12.366
76236W        W46117  28.034  37.339   1.265
76237W        W46118  24.066   4.442  10.609
76238W        W46119  13.823  12.728  13.042
76239W        W46120  41.305  38.856   1.433
76240W        W46121   2.298  26.979  11.517
76241W        W46122  22.569  31.924   1.332
76242W        W46123  31.448   4.796  12.076
76243W        W46124  25.587  33.980   1.897
76244W        W46125  25.985   9.160  12.903
76245W        W46126  13.745   6.752   3.316
76246W        W46127  37.912   9.723   3.265
76247W        W46128   1.312   7.324  11.478
76248W        W46129  39.983   8.892   1.364
76249W        W46130  27.154  36.416  13.844
76250W        W46131   7.802  37.940   2.844
76251W        W46132  11.670   8.777   4.126
76252W        W46133  44.295  37.064  11.078
76253W        W46134  24.157  25.215   1.793
76254W        W46135  41.887  12.761  10.120
76255W        W46136  28.177   3.713   4.337
76256W        W46137   7.740  11.235  13.823
76257W        W46138  40.991  13.311   4.294
76258W        W46139   0.294   0.276   4.809
76259W        W46140  21.167  27.188   0.431
76260W        W46141  29.512  11.796   3.847
76261W        W46142  24.553  37.871  12.906
76262W        W46143   9.195  44.906   0.801
76263W        W46144  36.078  29.481  13.009
76264W        W46145  36.461  18.708   1.425
76265W        W46146  20.152  38.009   4.669
76266W        W46147  12.209   7.779   4.315
76267W        W46148  21.530  10.253  12.345
76268W        W46149  13.692  31.107   3.714
76269W        W46150   3.857   8.202  11.096
76270W        W46151  28.649  25.084   1.303
76271W        W46152  32.575  39.055   4.638
76272W        W46153  42.777  22.224   2.239
76273W        W46154  25.523  11.260   0.734
76274W        W46155  38.983   8.894   3.759
76275W        W46156   6.825  16.709  14.859
76276W        W46157  34.063  18.279  11.063
76277W        W46158  39.059  31.588   3.683
76278W        W46159   3.761   5.379  13.359
76279W        W46160  11.631  37.076   4.793
76280W        W46161  30.614   9.202   3.365
76281W        W46162  11.210  31.900   1.808
76282W        W46163  37.581  12.802  14.368
76283W        W46164  31.484   9.823   2.695
76284W        W46165  14.744  22.644  10.030
76285W        W46166  13.796  19.277   2.235
76286W        W46167  21.236   3.438   3.717
76287W        W46168  14.652  18.052  12.028
76288W        W46169  24.596  19.694   1.762
76289W        W46170   4.834  31.448  13.819
76290W        W46171  30.997  11.722   3.203
76291W        W46172  38.967  12.762   3.146
76292W        W46173  10.763  12.807   4.117
76293W        W46174  19.097  22.057   2.868
76294W        W46175   1.770   9.797   3.712
76295W        W46176   8.277  30.623   3.752
76296W        W46177  22.087  39.064   3.845
76297W        W46178   4.222  42.002   4.136
76298W        W46179  29.603  28.147   4.815
76299W        W46180  12.358  38.046   4.323
76300W        W46181  25.054   5.409   0.847
76301W        W46182  40.852   9.329  14.939
76302W        W46183  33.008   2.965  10.524
76303W        W46184  15.820  36.061  11.382
76304W        W46185   5.332  23.601  12.420
76305W        W46186  22.691   4.414  11.891
76306W        W46187  11.624  15.150  10.603
76307W        W46188  13.760  36.454   0.773
76308W        W46189  11.730  33.566  10.996
76309W        W46190  37.341  35.880   3.341
76310W        W46191   4.834   9.192   1.910
76311W        W46192   0.805  11.684  12.553
76312W        W46193  29.534  35.569  13.502
76313W        W46194  39.925   4.874   2.183
76314W        W46195  17.664  16.253   0.342
76315W        W46196  15.784  33.082  13.447
76316W        W46197  43.422  13.169  10.554
76317W        W46198  24.025  28.460  12.846
76318W        W46199  18.076   8.308  10.513
76319W        W46200  41.435   4.409   0.336
76320W        W46201  37.859   8.351  13.385
76321W        W46202  18.740  15.692   2.663
76322W        W46203  44.434  25.516   2.289
76323W        W46204  29.645   1.289   2.251
76324W        W46205  15.816  39.065   3.168
76325W        W46206  19.538  11.765   0.394
76326W        W46207  20.726  21.218  10.906
76327W        W46208  35.411   2.395   4.312
76328W        W46209  23.526   8.748   1.846
76329W        W46210  26.473   9.245   3.204
76330W        W46211  24.527   3.319  11.559
76331W        W46212  20.546  19.253  10.896
76332W        W46213   2.398  35.881   1.247
76333W        W46214  39.453  30.570  14.785
76334W        W46215  22.181  18.169  14.965
76335W        W46216  31.433  29.927  12.510
76336W        W46217  20.041   3.331   0.841
76337W        W46218  40.422  29.574  14.449
76338W        W46219   8.822   5.731  14.797
76339W        W46220   8.178  34.369  11.079
76340W        W46221   6.735  12.620  12.903
76341W        W46222  12.287  37.458   0.343
76342W        W46223  20.158  39.964   1.791
76343W        W46224  19.155  23.572   1.898
76344W        W46225  44.265  24.596  10.922
76345W        W46226   2.228  33.896  11.547
76346W        W46227  15.603   3.419  12.839
76347W        W46228  18.753  14.606  13.367
76348W        W46229  15.585  19.219   3.359
76349W        W46230  12.674  23.698  13.060
76350W        W46231  31.056  38.556   0.728
76351W        W46232   4.853   5.294   4.221
76352W        W46233  40.009   4.790   0.874
76353W        W46234  42.436   3.223   3.808
76354W        W46235  16.264   3.780  11.999
76355W        W46236  39.332  10.640   0.381
76356W        W46237  12.840   2.412  13.818
76357W        W46238   3.232  43.774   1.356
76358W        W46239  39.062  23.543   3.246
76359W        W46240  15.131  22.737  13.841
76360W        W46241  28.472  44.460   4.821
76361W        W46242  39.855   6.857  10.449
76362W        W46243  33.584  19.088  10.945
76363W        W46244  17.656  44.375  13.356
76364W        W46245  23.184  23.052   2.378
76365W        W46246  13.314  17.300  14.875
76366W        W46247  16.590  10.245  13.480
76367W        W46248   9.195  23.492   4.235
76368W        W46249   9.674   3.877  11.578
76369W        W46250  12.294  15.673   3.829
76370W        W46251  42.799  43.919   2.763
76371W        W46252  16.619  26.676  11.372
76372W        W46253   4.702  43.306   3.764
76373W        W46254  32.497  18.556  13.861
76374W        W46255  21.633  27.969  14.440
76375W        W46256  17.285   0.885   1.450
76376W        W46257  39.554  21.132   3.368
76377W        W46258  25.683  17.245   2.345
76378W        W46259  39.809  38.426  10.614
76379W        W46260  12.639  12.157   2.859
76380W        W46261   8.727  25.709   1.305
76381W        W46262  35.894  43.823  13.057
76382W        W46263   6.387  32.026  10.041
76383W        W46264  24.678  33.423   0.917
76384W        W46265   7.831  25.583  12.026
76385W        W46266  13.804  29.472   2.672
76386W        W46267  25.696  10.713   4.350
76387W        W46268  34.554  40.397  12.351
76388W        W46269  29.518  42.009  13.949
76389W        W46270   4.433  10.633  13.503
76390W        W46271  42.945   3.357   0.738
76391W        W46272  36.010  18.659   3.836
76392W        W46273  35.555  14.165  14.499
76393W        W46274  40.359  44.889   1.225
76394W        W46275  34.120  21.713   0.875
76395W        W46276  22.121   1.416   3.310
76396W        W46277   9.241  12.312  12.438
76397W        W46278   5.724  44.874   0.462
76398W        W46279   8.196  38.361   4.147
76399W        W46280  26.206  21.023   4.670
76400W        W46281  30.920  18.704  11.937
76401W        W46282  15.735   1.812   2.361
76402W        W46283   8.378  13.152   0.388
76403W        W46284  23.069   3.839  11.587
76404W        W46285  12.169  25.061  14.913
76405W        W46286   4.735  17.637  12.083
76406W        W46287  28.151   9.806   1.325
76407W        W46288   1.772  30.555  11.499
76408W        W46289   2.465   9.199   3.262
76409W        W46290   3.322  43.855  12.942
76410W        W46291  41.011   9.676   0.277
76411W        W46292  17.712  39.459   4.351
76412W        W46293  42.364  30.957   1.251
76413W        W46294  39.937  36.916   3.199
76414W        W46295  27.673  41.323   1.868
76415W        W46296  10.731  25.196  11.887
76416W        W46297  24.692  24.597   3.259
76417W        W46298  19.234  17.230  11.913
76418W        W46299   5.728   2.815  11.106
76419W        W46300  14.680   8.810   3.862
76420W        W46301  18.659  20.529   1.894
76421W        W46302   8.182  19.087  13.901
76422W        W46303   7.826  35.465   2.710
76423W        W46304   4.845  38.389  13.901
76424W        W46305   3.798  44.300  11.478
76425W        W46306  20.663  20.731  12.560
76426W        W46307  43.301  38.950   3.319
76427W        W46308  10.833  32.396  12.827
76428W        W46309  18.759  29.100  13.404
76429W        W46310  18.720  38.050  13.524
76430W        W46311  29.488  29.528   2.183
76431W        W46312   4.784   8.891   4.751
76432W        W46313  37.887  40.823   1.286
76433W        W46314  39.557  30.109  14.856
76434W        W46315  32.445   0.875   0.338
76435W        W46316  38.494  35.422  13.889
76436W        W46317  40.503  36.038   2.678
76437W        W46318  15.219  34.060  11.378
76438W        W46319  13.826   1.800  14.816
76439W        W46320  22.718  36.947  14.813
76440W        W46321  31.044  42.795   2.877
76441W        W46322  21.066  31.454  14.413
76442W        W46323  36.967  36.476  12.061
76443W        W46324   1.828  28.635  14.947
76444W        W46325   2.820  13.677  12.081
76445W        W46326   7.273  42.427  13.532
76446W        W46327  11.744  10.682  12.969
76447W        W46328   2.235  22.534   3.790
76448W        W46329  32.454  14.127  11.040
76449W        W46330   5.343  33.096  11.588
76450W        W46331  27.465  31.058   0.760
76451W        W46332   1.784  35.026   4.113
76452W        W46333  37.395   8.813   5.313
76453W        W46334  28.659  34.400  10.528
76454W        W46335  34.369  38.516   4.738
76455W        W46336  38.434  41.413  14.813
76456W        W46337   5.824  29.958   0.779
76457W        W46338   4.388   1.297  13.953
76458W        W46339  36.393  39.066  11.427
76459W        W46340  32.942  35.986  13.477
76460W        W46341  19.607  38.832   1.821
76461W        W46342   6.832  26.952   4.729
76462W        W46343  28.451  31.438   0.893
76463W        W46344  10.362   7.884   0.298
76464W        W46345  30.504  40.935   3.805
76465W        W46346   2.752  23.165   0.863
76466W        W46347  31.989  10.231  13.473
76467W        W46348  16.287   5.291  13.447
76468W        W46349  15.154  41.790   0.431
76469W        W46350  41.507  21.264  12.467
76470W        W46351  21.030  25.206  14.952
76471W        W46352  16.293  39.386   4.264
76472W        W46353   3.277  34.049   2.811
76473W        W46354  13.114  40.898  12.373
76474W        W46355  37.452   9.255   0.375
76475W        W46356   1.820  10.789   0.282
76476W        W46357  37.885  31.071  12.374
76477W        W46358  13.277   9.340  11.603
76478W        W46359  44.989  39.961   2.820
76479W        W46360  40.894  34.534  13.996
76480W        W46361  32.060  11.334   2.755
76481W        W46362  23.998  26.029   4.334
76482W        W46363  18.650  15.758   4.320
76483W        W46364  20.155  41.998  14.443
76484W        W46365  44.937  22.153   4.168
76485W        W46366   5.266   3.873  10.992
76486W        W46367  18.120   3.355  11.395
76487W        W46368  30.934  25.067   0.439
76488W        W46369  41.854   1.481  13.316
76489W        W46370  22.646  25.604   4.737
76490W        W46371  30.956  22.060   3.821
76491W        W46372  24.992   1.753  12.449
76492W        W46373  39.496   2.445   0.893
76493W        W46374  28.083  21.029  12.847
76494W        W46375  36.562  41.916   3.232
76495W        W46376   5.806   5.814   1.331
76496W        W46377   0.264  25.164   3.792
76497W        W46378  35.377   0.316  12.858
76498W        W46379   3.857   4.796  14.934
76499W        W46380  34.526  15.668  12.064
76500W        W46381  23.566  12.117  10.964
76501W        W46382  32.944   9.159   1.219
76502W        W46383  19.547  40.936   2.202
76503W        W46384  28.031   2.415   2.411
76504W        W46385  26.535  41.346   3.694
76505W        W46386  35.867  26.955  14.433
76506W        W46387  34.580  35.927  11.902
76507W        W46388   7.823  31.141   4.140
76508W        W46389   1.400   6.878  14.347
76509W        W46390  41.496  13.799   1.746
76510W        W46391  22.231  15.178  14.318
76511W        W46392  42.944  10.782  12.411
76512W        W46393  38.881   2.388   4.599
76513W        W46394   6.377  37.858  14.814
76514W        W46395   9.876  43.438   4.696
76515W        W46396   8.701  16.309  14.486
76516W        W46397  24.197   9.207  10.458
76517W        W46398  11.159  40.374   0.317
76518W        W46399  19.236   3.886  10.989
76519W        W46400  13.675   0.972  11.921
76520W        W46401  42.480  30.108   4.244
76521W        W46402  39.064  28.449   1.416
76522W        W46403  29.977   9.719   0.378
76523W        W46404  26.986  12.164   2.326
76524W        W46405  40.475  38.401  12.359
76525W        W46406   8.768  42.890  10.480
76526W        W46407  29.036  44.784   3.780
76527W        W46408   7.199   5.377  14.761
76528W        W46409   5.840  12.334   2.715
76529W        W46410  43.977  18.564   3.159
76530W        W46411  36.905  10.375   3.154
76531W        W46412  22.174  26.473  13.545
76532W        W46413  39.942  44.400   4.318
76533W        W46414  16.623   7.853  14.960
76534W        W46415  21.514  13.815  10.593
76535W        W46416  30.917  31.588  12.058
76536W        W46417  18.118  36.475  12.094
76537W        W46418  39.821  16.224  13.044
76538W        W46419  21.551   2.442   1.442
76539W        W46420  41.386   7.196   1.303
76540W        W46421  30.031  30.452  10.475
76541W        W46422   4.303   0.841  13.818
76542W        W46423  11.637  25.211   3.255
76543W        W46424  30.457  33.571   2.673
76544W        W46425  23.006   5.376  12.835
76545W        W46426  25.098  25.607  11.599
76546W        W46427  15.128   2.861   1.284
76547W        W46428  16.730  15.154  11.924
76548W        W46429  14.690   6.285  13.805
76549W        W46430   9.303   5.213  11.884
76550W        W46431  18.763  43.828  11.509
76551W        W46432  28.142  30.622  14.501
76552W        W46433  32.615  28.611   3.745
76553W        W46434  14.806  42.990   2.860
76554W        W46435   3.918  44.314   2.780
76555W        W46436  15.296  17.710   2.303
76556W        W46437   0.306   1.245   1.718
76557W        W46438  22.013  31.452   0.392
76558W        W46439  40.803   3.740   0.832
76559W        W46440  10.709  39.994   0.370
76560W        W46441  29.141  16.681   1.249
76561W        W46442  28.092  33.574  12.056
76562W        W46443  18.157  10.270  14.464
76563W        W46444  42.418  14.654  12.461
76564W        W46445  12.756  43.382   4.166
76565W        W46446  43.376  17.663  13.037
76566W        W46447  27.493  32.531  13.848
76567W        W46448  40.931   7.703   1.877
76568W        W46449  11.777  44.885  12.572
76569W        W46450  34.498  39.385  11.428
76570W        W46451  32.558   5.759  11.580
76571W        W46452  11.276  27.085  12.855
76572W        W46453  38.940  12.305   1.726
76573W        W46454  31.479   8.655   2.882
76574W        W46455  30.418  36.428  12.470
76575W        W46456  39.453  11.372   4.718
76576W        W46457  35.074  39.024  12.985
76577W        W46458  37.473  12.693   1.247
76578W        W46459  33.385   5.211   0.845
76579W        W46460  21.256  39.365  14.405
76580W        W46461  10.758  30.618   4.271
76581W        W46462   1.812  31.420  11.412
76582W        W46463  34.055   6.698   1.917
76583W        W46464   1.471  44.791  11.041
76584W        W46465  43.487  33.957   4.187
76585W        W46466  33.382  43.881   4.250
76586W        W46467  22.251  10.316   0.379
76587W        W46468   2.928   0.895  13.967
76588W        W46469  27.681  35.585  13.904
76589W        W46470  21.725  28.617  14.487
76590W        W46471  21.704  41.996  14.472
76591W        W46472  14.198  39.502  13.959
76592W        W46473  43.823  24.722  13.306
76593W        W46474  33.413  41.821   0.425
76594W        W46475  32.427  33.106  13.040
76595W        W46476  30.072   9.274  14.796
76596W        W46477  21.258   0.920   1.744
76597W        W46478  14.690  19.779   5.140
76598W        W46479  13.262   9.229   2.821
76599W        W46480  24.107  10.810   3.336
76600W        W46481   8.812  37.548  14.964
76601W        W46482  15.229   0.472  14.408
76602W        W46483  17.226  21.256  10.522
76603W        W46484  28.153  25.661  12.986
76604W        W46485  38.033   9.711  14.914
76605W        W46486  30.042  35.955   1.760
76606W        W46487   1.429  24.567  13.494
76607W        W46488   8.307  43.992   1.724
76608W        W46489  11.809  31.612  14.769
76609W        W46490  35.592   8.181  12.874
76610W        W46491  41.507  22.669   1.917
76611W        W46492  38.563  25.583   2.387
76612W        W46493  13.208  34.106  14.767
76613W        W46494  15.803   6.409   1.440
76614W        W46495  22.182   5.312   2.325
76615W        W46496  32.589   6.372   1.733
76616W        W46497   3.360  44.454  12.547
76617W        W46498  41.842  38.056   3.183
76618W        W46499  18.581   4.818   3.347
76619W        W46500   1.348  36.528   2.685
76620W        W46501  44.283  12.728   2.671
76621W        W46502  30.506   6.744   4.266
76622W        W46503  31.030  22.526  11.907
76623W        W46504   5.211  41.790   4.787
76624W        W46505   0.750  37.526  14.459
76625W        W46506  17.676  16.240   2.216
76626W        W46507  15.128  15.148   1.769
76627W        W46508  41.474  38.567  12.002
76628W        W46509   8.845  10.772   2.785
76629W        W46510  28.989  23.238  12.937
76630W        W46511  44.501  35.415   1.872
76631W        W46512  38.535  32.041   0.770
76632W        W46513  24.217   2.253   0.911
76633W        W46514  36.396  34.442   2.179
76634W        W46515  40.015  39.984   0.438
76635W        W46516  41.025  17.709   4.260
76636W        W46517  44.390  24.065   1.264
76637W        W46518  27.118   5.350  10.448
76638W        W46519  21.644  33.074   4.670
76639W        W46520   9.237  28.150  14.834
76640W        W46521   7.397   5.714  13.015
76641W        W46522  24.714  23.567   3.637
76642W        W46523  38.927   8.169  14.807
76643W        W46524  38.407  37.947   3.677
76644W        W46525  18.125  37.944  14.904
76645W        W46526  10.237   9.840   1.760
76646W        W46527   3.866  16.109   4.134
76647W        W46528  18.105  13.115   4.191
76648W        W46529  11.775  11.659   3.244
76649W        W46530  35.000  30.158  11.538
76650W        W46531  28.580  43.295   4.128
76651W        W46532   8.828  38.063  13.973
76652W        W46533   4.436  22.705   1.378
76653W        W46534  28.062  26.678   1.870
76654W        W46535  28.568  35.382   4.684
76655W        W46536   6.363   1.298  13.860
76656W        W46537  35.538  44.401  12.552
76657W        W46538  36.071  28.538   2.840
76658W        W46539  18.598   7.278  11.032
76659W        W46540  17.604  36.010   0.831
76660W        W46541  21.223  14.756  11.010
76661W        W46542   5.934  17.123   4.336
76662W        W46543   0.250   3.260   2.248
76663W        W46544  36.005  34.558   3.322
76664W        W46545  18.605  17.722  12.984
76665W        W46546  11.661  10.232  10.511
76666W        W46547   9.340  25.187   3.843
76667W        W46548  18.104  12.241  12.481
76668W        W46549   2.875   5.223  10.980
76669W        W46550  40.420   3.911   4.631
76670W        W46551  14.258  21.573   3.726
76671W        W46552   4.226  11.301   2.267
76672W        W46553   2.885  29.985   1.275
76673W        W46554  35.468   5.732  14.356
76674W        W46555  29.636  26.204  12.552
76675W        W46556  37.411  30.603   2.867
76676W        W46557  18.710  14.329  12.879
76677W        W46558  44.435  17.262   1.336
76678W        W46559  14.146  17.221   3.146
76679W        W46560  14.692  10.785   4.631
76680W        W46561   3.392  13.317   3.846
76681W        W46562   5.880  19.230  10.480
76682W        W46563  24.553  24.586  14.778
76683W        W46564  36.523  12.343  11.012
76684W        W46565  10.328  12.610  10.590
76685W        W46566  16.600   3.253  13.003
76686W        W46567  41.910  15.580  11.008
76687W        W46568  11.322  40.434   1.295
76688W        W46569   9.281   9.649   0.933
76689W        W46570  15.260  37.946   4.340
76690W        W46571   1.919   5.715  12.350
76691W        W46572  20.063   7.416  14.307
76692W        W46573   5.733  16.216  13.470
76693W        W46574  20.128  28.537  13.938
76694W        W46575  42.786   5.847   2.269
76695W        W46576   7.739   9.236   3.235
76696W        W46577  44.791  29.475   4.801
76697W        W46578  13.705  25.000   4.785
76698W        W46579  20.148   1.470   0.467
76699W        W46580  12.362  19.624  12.969
76700W        W46581  33.889  35.380  13.331
76701W        W46582  21.168  26.095   0.848
76702W        W46583  37.474   7.413   0.747
76703W        W46584  23.070   0.342  12.842
76704W        W46585  36.023  39.522   0.314
76705W        W46586  22.016  34.084  12.409
76706W        W46587  14.306  28.058  11.590
76707W        W46588  21.047  14.197  11.982
76708W        W46589  17.750  44.853  13.933
76709W        W46590  34.889  10.308   2.228
76710W        W46591  14.136  34.989  11.443
76711W        W46592   4.229  43.330  13.913
76712W        W46593  37.894  43.316   3.319
76713W        W46594   9.261  19.264   2.738
76714W        W46595   3.324   1.932  13.015
76715W        W46596   4.273  19.218  12.915
76716W        W46597  28.517  44.010   3.257
76717W        W46598  17.558  14.763  12.376
76718W        W46599   7.882  34.892  11.907
76719W        W46600  14.259   1.302   0.456
76720W        W46601  26.578  21.033  11.551
76721W        W46602   5.304  34.509  14.799
76722W        W46603   0.855  17.709  13.032
76723W        W46604  42.524  13.746   0.780
76724W        W46605   7.885  41.445   1.315
76725W        W46606  17.632  26.461  13.385
76726W        W46607  33.451  15.128  13.943
76727W        W46608   5.913  44.291   3.241
76728W        W46609  21.215  11.662   1.444
76729W        W46610  18.589  19.223  14.332
76730W        W46611  18.115  26.071   2.745
76731W        W46612  16.267  17.214  12.900
76732W        W46613  38.004  14.138  12.086
76733W        W46614  10.179  11.712   0.251
76734W        W46615  40.405  19.746   1.793
76735W        W46616  17.593  37.459  13.914
76736W        W46617  13.599  28.498   2.789
76737W        W46618  37.431  34.562   4.335
76738W        W46619  44.827  20.044  12.346
76739W        W46620   4.897  18.550   1.852
76740W        W46621   8.323  42.779   0.245
76741W        W46622  40.807   6.403  13.315
76742W        W46623  41.463   5.304  14.464
76743W        W46624   0.807  17.620  12.014
76744W        W46625   7.757  41.989  12.947
76745W        W46626  15.308  24.983  10.584
76746W        W46627  41.903   6.198  14.495
76747W        W46628  18.772   6.710   1.435
76748W        W46629  30.435  30.992   2.348
76749W        W46630  31.987  43.839  11.884
76750W        W46631  28.589   6.256  11.500
76751W        W46632  36.497  14.292  13.446
76752W        W46633  31.044  26.029   4.299
76753W        W46634  14.833  32.423  14.424
76754W        W46635   1.793   9.173  11.042
76755W        W46636  18.569  38.821  10.623
76756W        W46637   3.392  36.349  12.890
76757W        W46638   5.861  29.648  14.997
76758W        W46639  32.424  22.706   3.168
76759W        W46640  16.310  28.632   0.922
76760W        W46641   3.358  14.200  13.528
76761W        W46642  37.953  24.595  14.770
76762W        W46643  15.791  33.942   3.710
76763W        W46644  11.291  17.593   4.817
76764W        W46645  18.143  11.665   3.855
76765W        W46646   3.716  35.920   1.694
76766W        W46647  25.986   7.206   4.738
76767W        W46648  40.820  19.550  14.791
76768W        W46649   9.814  20.527   0.288
76769W        W46650   6.340  19.671  12.353
76770W        W46651  18.169  17.617  13.856
76771W        W46652   2.456   7.342  11.024
76772W        W46653  18.283  26.063   1.248
76773W        W46654  39.552  16.078  12.875
76774W        W46655   5.404  26.500   0.926
76775W        W46656  13.690  32.052   1.712
76776W        W46657  28.584  18.636   3.319
76777W        W46658  43.443  26.130   3.847
76778W        W46659  16.164  36.073  14.982
76779W        W46660  14.596  44.964   0.748
76780W        W46661  32.409  14.175  11.924
76781W        W46662  28.490   9.815   2.242
76782W        W46663  43.285  14.671  11.041
76783W        W46664  26.097  16.103   2.347
76784W        W46665  15.260  14.800   1.863
76785W        W46666  27.531  42.308   4.690
76786W        W46667  24.588   2.274   1.794
76787W        W46668  27.015  16.240  12.410
76788W        W46669  33.422  40.886   4.758
76789W        W46670  10.680  31.629   4.693
76790W        W46671  39.500  10.789  12.539
76791W        W46672  12.178  29.661  12.859
76792W        W46673  22.031  34.110  13.011
76793W        W46674  32.040   3.347   1.323
76794W        W46675   6.341  34.961   0.300
76795W        W46676  27.006  34.073   3.310
76796W        W46677  39.021  40.873  13.947
76797W        W46678  31.145   8.790   2.219
76798W        W46679   0.916  31.932   1.796
76799W        W46680  22.038  24.492   0.435
76800W        W46681   3.793  26.191  14.803
76801W        W46682   6.351  16.280   1.721
76802W        W46683  25.553   1.926  11.941
76803W        W46684  23.659  10.873  13.909
76804W        W46685  40.496  14.634   2.222
76805W        W46686  33.392  44.502   2.732
76806W        W46687  43.792   3.906   2.847
76807W        W46688  33.113  39.467   4.702
76808W        W46689  42.423  34.941  11.065
76809W        W46690  10.174  12.827  13.864
76810W        W46691   4.856  28.935  14.392
76811W        W46692  36.957  28.994   2.303
76812W        W46693   8.753   2.890   3.819
76813W        W46694  12.838  38.048  12.386
76814W        W46695  22.175  36.396  13.901
76815W        W46696  25.479  16.263  13.456
76816W        W46697   3.227  38.426  11.578
76817W        W46698  34.034  19.639  11.593
76818W        W46699   6.267  36.445   4.165
76819W        W46700  43.805  37.479   0.909
76820W        W46701  44.265  28.677   4.342
76821W        W46702  18.631  19.684   2.812
76822W        W46703  44.348  13.147  14.957
76823W        W46704  41.830  38.886   1.315
76824W        W46705  43.367   4.831  10.460
76825W        W46706  22.546  32.035   1.774
76826W        W46707  23.506  32.898   4.805
76827W        W46708   6.422  18.562   0.309
76828W        W46709   8.753  19.277  10.493
76829W        W46710  15.787  21.035  14.378
76830W        W46711  14.270  36.844   3.753
76831W        W46712  36.396  40.314   2.681
76832W        W46713  44.928  25.629   1.930
76833W        W46714   0.476   4.924  11.938
76834W        W46715   7.704   3.841   4.161
76835W        W46716  11.365  15.148  13.521
76836W        W46717  13.679  32.005  12.448
76837W        W46718  10.753  16.263   1.701
76838W        W46719  35.516  42.789  14.490
76839W        W46720  26.542  15.251  14.389
76840W        W46721  40.430   2.953   4.614
76841W        W46722   6.366  34.409  11.565
76842W        W46723  41.879  15.587   0.393
76843W        W46724  14.140  33.880   0.782
76844W        W46725  28.098   8.676   4.287
76845W        W46726  35.064  21.639  10.565
76846W        W46727  24.200  18.050  13.494
76847W        W46728  36.959  38.334   0.827
76848W        W46729  36.062  14.193  13.468
76849W        W46730  18.707   4.893   3.686
76850W        W46731  19.266   2.400   0.900
76851W        W46732  25.173  34.113   2.403
76852W        W46733  33.002  42.812  14.026
76853W        W46734   2.290  22.646  10.101
76854W        W46735  37.474  34.979   3.668
76855W        W46736   5.280  39.873  12.416
76856W        W46737  19.606   3.849   0.749
76857W        W46738  31.450  44.415  11.491
76858W        W46739  24.547  35.046  10.421
76859W        W46740  18.073  21.615   3.687
76860W        W46741  22.032  27.592  12.547
76861W        W46742  25.484  32.129  12.343
76862W        W46743  30.948   2.922   4.670
76863W        W46744  30.562  43.900  13.053
76864W        W46745  39.443  41.311   2.862
76865W        W46746  40.334  28.000   2.710
76866W        W46747   2.396   4.861   0.790
76867W        W46748  34.078   5.340  14.499
76868W        W46749  43.916  44.781   1.821
76869W        W46750  15.166  32.932  11.515
76870W        W46751   0.396  43.903  11.459
76871W        W46752  41.528  41.481   1.740
76872W        W46753   1.268  40.874   0.733
76873W        W46754   5.438  42.809  10.974
76874W        W46755  24.037  36.032   5.264
76875W        W46756  40.472  25.130   1.802
76876W        W46757  37.073  25.097   0.420
76877W        W46758  23.234  22.529   2.318
76878W        W46759  31.142  19.091  13.892
76879W        W46760  44.795   2.372   4.134
76880W        W46761  32.073   3.760   2.764
76881W        W46762  36.047  43.488  12.011
76882W        W46763  44.869   6.912  11.008
76883W        W46764  23.196  44.457  14.426
76884W        W46765  19.061  30.441   1.249
76885W        W46766   8.194  22.163   3.367
76886W        W46767  10.755  43.279  11.376
76887W        W46768  33.432  33.942   0.375
76888W        W46769  36.002   9.222   3.293
76889W        W46770  15.665  38.492  12.386
76890W        W46771  43.373   9.654   3.251
76891W        W46772  18.596  15.644   5.205
76892W        W46773  39.044  38.344  14.772
76893W        W46774  36.527   4.737  12.944
76894W        W46775  41.370  20.545  11.953
76895W        W46776  43.832  30.637   0.369
76896W        W46777  31.977  44.823  11.015
76897W        W46778  12.680  24.078   1.711
76898W        W46779  11.189   7.257  10.527
76899W        W46780  11.705   0.783   1.265
76900W        W46781  43.889  36.885  12.555
76901W        W46782  12.173  23.703   1.820
76902W        W46783  33.986  35.371   0.321
76903W        W46784   0.807  17.616  14.495
76904W        W46785  11.787  27.605   2.745
76905W        W46786   4.220  24.600   0.726
76906W        W46787  38.495  34.468  14.436
76907W        W46788  14.229  38.380  10.105
76908W        W46789  30.050  26.126  13.901
76909W        W46790  23.171  13.646  12.069
76910W        W46791   9.197  32.070   1.315
76911W        W46792  31.049  30.644   3.856
76912W        W46793   3.780  37.364  12.097
76913W        W46794  31.058   0.397   3.227
76914W        W46795  43.803   5.396  11.025
76915W        W46796  19.533   9.273   2.885
76916W        W46797  23.113  37.384   3.220
76917W        W46798   8.250  13.787   4.671
76918W        W46799  36.460  32.408   4.716
76919W        W46800  15.182   7.687   4.204
76920W        W46801  16.202   2.915   2.317
76921W        W46802  42.922  33.477   3.714
76922W        W46803  26.676  24.554   9.971
76923W        W46804  38.374   4.239  13.016
76924W        W46805   8.882  17.740  10.523
76925W        W46806  12.696   6.361   2.309
76926W        W46807   4.917  36.364   4.123
76927W        W46808  18.141  11.801  12.389
76928W        W46809  30.964  20.614  10.587
76929W        W46810   7.876  37.863   4.216
76930W        W46811  28.160  34.577  14.796
76931W        W46812  23.659  37.491   1.271
76932W        W46813   9.812  28.145   0.744
76933W        W46814   5.356  17.305  12.923
76934W        W46815  34.397  41.378   1.234
76935W        W46816  40.979  20.134  10.418
76936W        W46817  22.244  25.010  12.005
76937W        W46818  34.613  27.012  13.985
76938W        W46819  24.560  13.839  13.463
76939W        W46820  36.944  15.760   4.792
76940W        W46821  13.830  38.842  14.475
76941W        W46822   3.872  14.657   1.246
76942W        W46823  43.453  43.972   0.924
76943W        W46824  10.285   8.388   2.756
76944W        W46825  35.604  42.891   5.163
76945W        W46826  37.432  18.212   4.247
76946W        W46827   4.210  33.384  13.369
76947W        W46828   9.384  32.479   0.830
76948W        W46829   9.662  30.637   0.394
76949W        W46830  21.657  33.534  11.375
76950W        W46831  43.850  32.009  11.856
76951W        W46832  23.195   8.349  11.075
76952W        W46833  33.613  19.101  13.910
76953W        W46834  44.803  30.599   5.283
76954W        W46835   3.451  39.995   2.709
76955W        W46836  19.550   8.345   2.401
76956W        W46837  39.363  43.924  14.401
76957W        W46838   8.833  34.541   1.302
76958W        W46839  20.147  39.322   2.334
76959W        W46840  26.647  28.461  12.573
76960W        W46841  14.630  16.725  12.890
76961W        W46842  36.510   4.773  11.890
76962W        W46843  22.047  15.806  12.993
76963W        W46844  40.852  19.628   1.848
76964W        W46845  13.637  11.350   1.905
76965W        W46846  30.024  14.170  14.793
76966W        W46847  27.083   0.955  12.965
76967W        W46848  25.088  18.102   3.779
76968W        W46849  13.175  27.579   2.785
76969W        W46850   0.861  40.904  11.047
76970W        W46851   3.449   7.388  14.876
76971W        W46852  18.171  35.947  10.475
76972W        W46853  12.235  17.065  10.554
76973W        W46854  32.450  13.185   2.411
76974W        W46855   7.298  25.491   1.768
76975W        W46856   8.896  39.403  13.501
76976W        W46857   7.729  27.964   5.253
76977W        W46858  36.973  19.274   3.814
76978W        W46859  16.313  27.086  11.954
76979W        W46860  21.070  40.490  14.346
76980W        W46861  20.172  18.739  12.578
76981W        W46862  41.920  18.215  12.827
76982W        W46863  25.162  38.444   3.238
76983W        W46864   7.227  24.687   4.724
76984W        W46865   7.906  15.277   4.684
76985W        W46866  33.525  42.386   1.449
76986W        W46867   0.316  17.080  11.600
76987W        W46868  42.015  42.808  13.889
76988W        W46869  24.549  41.882   2.727
76989W        W46870   5.225  13.263   4.820
76990W        W46871  11.643  23.009  13.507
76991W        W46872  10.777  37.557  12.891
76992W        W46873  35.865  23.610  13.358
76993W        W46874   4.728  24.561  11.431
76994W        W46875   9.208  29.042   0.269
76995W        W46876  25.589  30.466   1.809
76996W        W46877  24.070  32.888   2.316
76997W        W46878  38.514  12.362   3.672
76998W        W46879  44.497  37.916  13.417
76999W        W46880  42.947  34.088  14.497
77000W        W46881  41.986   0.807   5.216
77001W        W46882   7.396  32.037  13.471
77002W        W46883  20.111  36.450  12.941
77003W        W46884  31.581  40.920  13.531
77004W        W46885   5.845  37.481   1.870
77005W        W46886  23.670  31.958   4.144
77006W        W46887  41.359  37.984  12.902
77007W        W46888  18.704  14.607   2.245
77008W        W46889  32.471  37.851   4.607
77009W        W46890   7.390  22.502  12.439
77010W        W46891   1.415  14.330   2.807
77011W        W46892  26.981  18.143  14.953
77012W        W46893   5.689  11.193   0.434
77013W        W46894  22.150   3.823   1.875
77014W        W46895  38.998   9.348   3.831
77015W        W46896  11.786   5.910   1.215
77016W        W46897  13.262  10.221   2.670
77017W        W46898  33.512  21.710  12.450
77018W        W46899   6.676  27.506  10.496
77019W        W46900  12.683   2.290  14.496
77020W        W46901  36.853  43.393   2.375
77021W        W46902  27.453  41.005  10.517
77022W        W46903  31.546   2.923  13.368
77023W        W46904   6.339  20.644   1.755
77024W        W46905  41.926   9.300  12.900
77025W        W46906  16.257  10.678  12.892
77026W        W46907  44.259  39.532   1.865
77027W        W46908   9.266  12.173   2.272
77028W        W46909  29.046  29.997   2.179
77029W        W46910  42.891  44.837   1.240
77030W        W46911  29.565  22.580   4.230
77031W        W46912  24.979  21.251   3.168
77032W        W46913   8.891  20.541  14.822
77033W        W46914  25.160   2.301  10.446
77034W        W46915  11.342  22.177  14.382
77035W        W46916  44.478   5.879   2.400
77036W        W46917  21.208  12.781   2.245
77037W        W46918   5.836  30.603   1.335
77038W        W46919  12.344  14.246   0.900
77039W        W46920  25.694   3.903  13.312
77040W        W46921  33.487  44.009   4.665
77041W        W46922  10.633  42.849  10.974
77042W        W46923  33.021  41.034   2.343
77043W        W46924  38.044  23.186  10.533
77044W        W46925  35.535  15.800  12.500
77045W        W46926  27.148   4.436   3.256
77046W        W46927  39.468  42.343  10.534
77047W        W46928   5.896  26.630  12.967
77048W        W46929  12.693  19.579   4.252
77049W        W46930  20.688  28.459   4.775
77050W        W46931  18.719   1.959  12.891
77051W        W46932  31.899  20.604   4.836
77052W        W46933  10.204  34.382   2.213
77053W        W46934   4.320   1.844  11.425
77054W        W46935   7.840  36.030  10.614
77055W        W46936  44.415  28.010  12.438
77056W        W46937   4.755  44.378   0.414
77057W        W46938  18.051  19.578   1.435
77058W        W46939  27.064  23.156   1.414
77059W        W46940  17.770   2.763   0.780
77060W        W46941  10.297  19.590   2.310
77061W        W46942  23.491  33.419   2.870
77062W        W46943  28.973  40.351  14.458
77063W        W46944  33.463  35.890  12.419
77064W        W46945  29.492  12.697   2.871
77065W        W46946  21.097  21.186   5.185
77066W        W46947  14.802  11.284  14.836
77067W        W46948   0.404  25.090  12.083
77068W        W46949  30.028  16.311   2.379
77069W        W46950   9.792  16.088   1.354
77070W        W46951   2.959  24.487   2.798
77071W        W46952  21.666  19.676   5.225
77072W        W46953  19.129  34.975  12.061
77073W        W46954  22.517  36.422   1.719
77074W        W46955  20.139  20.741   0.840
77075W        W46956  10.162  23.584   4.287
77076W        W46957  29.096  43.482  13.541
77077W        W46958  21.705  30.054   0.303
77078W        W46959  14.708  12.851   0.339
77079W        W46960   1.738  12.834  11.082
77080W        W46961  12.646   3.294   1.783
77081W        W46962  17.722   9.868  14.337
77082W        W46963  10.277   1.361  14.910
77083W        W46964   4.890   3.338   0.898
77084W        W46965  34.886   6.697  13.980
77085W        W46966   1.242  19.144  14.388
77086W        W46967  14.196  43.932   3.719
77087W        W46968   2.368   0.783  10.476
77088W        W46969   9.186  33.105  11.930
77089W        W46970  23.591   4.753   2.670
77090W        W46971  19.285  41.512  13.931
77091W        W46972  29.149  42.029   0.801
77092W        W46973  10.735  11.349   1.754
77093W        W46974  34.939  17.722   4.686
77094W        W46975  11.849   7.350   3.690
77095W        W46976   1.428  25.180   3.630
77096W        W46977  31.042   2.851   0.767
77097W        W46978  26.530   4.840  11.053
77098W        W46979   5.430   2.730   3.321
77099W        W46980  19.082  25.674  10.916
77100W        W46981  29.134  30.645   2.375
77101W        W46982   6.220  18.103  10.602
77102W        W46983  39.341  14.321   3.772
77103W        W46984  30.457  20.701   4.743
77104W        W46985   1.771  11.648  14.308
77105W        W46986  40.893  39.324  11.001
77106W        W46987  32.995  40.812   0.833
77107W        W46988  14.762   2.330  11.942
77108W        W46989  43.489  17.256  11.405
77109W        W46990  12.689  39.342   3.663
77110W        W46991  19.708  43.864   0.778
77111W        W46992  21.017  34.899   0.243
77112W        W46993  43.500  34.986   3.345
77113W        W46994  31.007  41.927   4.625
77114W        W46995  32.507  30.489   2.282
77115W        W46996  31.604  19.142  11.470
77116W        W46997  11.207  17.307  14.391
77117W        W46998  17.107  11.335  12.037
77118W        W46999  12.152  26.536  12.404
77119W        W47000  20.146   7.399  10.004
77120W        W47001   7.744  36.047  13.794
77121W        W47002   1.769   6.709   3.221
77122W        W47003  44.373  38.993   3.276
77123W        W47004   7.686  11.246   1.305
77124W        W47005  43.777  21.245  13.876
77125W        W47006   6.373  39.865   9.956
77126W        W47007  40.901  30.491  13.812
77127W        W47008  23.094  12.238   0.841
77128W        W47009  24.017   4.700  12.960
77129W        W47010  13.283  18.195  12.430
77130W        W47011   1.377  16.689  13.368
77131W        W47012  41.836  42.887   1.210
77132W        W47013  24.619  35.597   2.887
77133W        W47014  43.933  24.178   1.270
77134W        W47015  28.667   7.673   5.696
77135W        W47016  33.405   2.324   5.216
77136W        W47017  29.459  44.461   2.685
77137W        W47018  15.814  42.317   4.656
77138W        W47019  16.685  36.097  11.493
77139W        W47020  18.714  21.180  12.546
77140W        W47021  39.414  30.947  11.591
77141W        W47022  17.596   8.373  12.044
77142W        W47023  21.756   6.907  14.878
77143W        W47024  13.336  42.790   0.887
77144W        W47025  36.532   9.182   0.937
77145W        W47026  42.943  44.772  13.904
77146W        W47027  11.804  34.501  14.487
77147W        W47028   3.267   6.422   1.447
77148W        W47029  19.079  44.981   0.835
77149W        W47030  34.118  16.312  14.868
77150W        W47031  17.074  29.170   1.380
77151W        W47032  10.771  29.948   1.449
77152W        W47033  44.467  17.062  12.571
77153W        W47034  28.006  40.345   0.855
77154W        W47035  25.114   8.305  14.380
77155W        W47036  22.657   0.779   0.471
77156W        W47037  31.504  20.129  14.432
77157W        W47038  21.569   5.904  14.308
77158W        W47039  13.216  27.049  14.340
77159W        W47040  36.964  24.049   0.805
77160W        W47041  32.418  10.334   2.386
77161W        W47042  25.609  42.845  10.450
77162W        W47043  43.381  16.118  13.457
77163W        W47044   6.688   2.849   3.633
77164W        W47045  34.608  28.111   2.762
77165W        W47046  16.111   1.821  14.291
77166W        W47047  10.702  35.428   1.412
77167W        W47048  42.286   4.293   2.843
77168W        W47049  22.074  38.453  11.926
77169W        W47050   9.389  26.133   2.876
77170W        W47051  23.656   5.227  12.007
77171W        W47052  43.818  12.225  14.937
77172W        W47053   7.885  34.896   3.166
77173W        W47054  22.575  16.771   5.096
77174W        W47055  32.920  44.454   3.688
77175W        W47056  30.538  39.064   9.979
77176W        W47057  24.620  21.655  13.891
77177W        W47058   8.809  24.069   1.819
77178W        W47059  22.620  33.931  11.081
77179W        W47060  31.552  20.160   0.286
77180W        W47061  25.983  32.075   0.797
77181W        W47062  44.784  44.765   0.940
77182W        W47063   0.849  24.977   1.746
77183W        W47064  40.472   7.284   4.614
77184W        W47065   5.382  40.451   2.332
77185W        W47066  30.119   1.453   2.719
77186W        W47067  39.399  17.305  11.440
77187W        W47068  14.599  38.382   4.120
77188W        W47069  30.646  14.610   3.706
77189W        W47070   1.294  28.081  11.470
77190W        W47071   7.400   8.729  14.827
77191W        W47072  21.662  12.787   4.115
77192W        W47073  31.092  33.049  13.318
77193W        W47074   5.869  16.082  10.541
77194W        W47075  31.550  32.904  11.105
77195W        W47076  22.217  31.423  12.829
77196W        W47077  35.975  20.658  12.427
77197W        W47078  43.423  17.597  10.595
77198W        W47079  29.097  32.951   4.812
77199W        W47080   7.182  20.617   2.180
77200W        W47081  32.544  22.563   2.210
77201W        W47082  25.069   7.312  10.038
77202W        W47083  40.447  25.204  10.055
77203W        W47084   9.335  31.985   3.369
77204W        W47085   7.834  16.110  12.353
77205W        W47086   7.225  39.424   1.339
77206W        W47087  23.139   5.717   2.258
77207W        W47088  37.582  23.172   2.723
77208W        W47089   6.238  26.679  13.031
77209W        W47090  23.708  12.776   1.285
77210W        W47091  10.766  44.454  12.035
77211W        W47092  11.231  12.691  13.915
77212W        W47093  31.026  31.432  13.860
77213W        W47094  18.600   4.796   0.814
77214W        W47095  43.287  33.419  10.102
77215W        W47096  35.567  17.644  12.094
77216W        W47097  19.263  29.666  12.033
77217W        W47098  24.591  16.112  12.035
77218W        W47099  43.958  22.667   1.394
77219W        W47100  36.359  18.146  14.296
77220W        W47101  20.583  28.030  10.913
77221W        W47102  40.326  12.639  14.477
77222W        W47103   1.378  35.942   1.415
77223W        W47104  18.653  41.995  12.389
77224W        W47105  11.767  21.025  12.015
77225W        W47106  18.123   8.759  12.578
77226W        W47107  11.163  16.768  11.907
77227W        W47108  11.863  29.619   5.206
77228W        W47109  40.467   5.795  13.060
77229W        W47110  13.610  43.299  10.928
77230W        W47111  31.542  20.104  13.060
77231W        W47112  38.046  31.092  11.535
77232W        W47113   6.317  34.970  12.968
77233W        W47114  41.944   6.375  14.840
77234W        W47115  32.906  28.110   4.736
77235W        W47116  10.244  17.756   5.665
77236W        W47117  40.818  29.627   3.305
77237W        W47118  20.625  10.216  11.539
77238W        W47119   5.812   3.774   1.732
77239W        W47120  35.876  10.317   2.324
77240W        W47121  22.164   6.802  14.282
77241W        W47122  15.226  19.107   2.782
77242W        W47123   6.859   4.208  14.383
77243W        W47124   5.284  21.098   4.199
77244W        W47125  44.449  34.002   2.379
77245W        W47126  42.845  36.938   3.831
77246W        W47127   4.309  14.264   2.294
77247W        W47128  18.134  40.026   4.282
77248W        W47129  15.145  36.552  11.088
77249W        W47130  32.079  28.500   1.270
77250W        W47131  37.006  35.585  13.464
77251W        W47132   5.396  16.673  11.414
77252W        W47133  37.991  27.055  11.990
77253W        W47134  28.998  10.837   0.752
77254W        W47135  23.615  31.469  12.848
77255W        W47136   5.793   9.158  11.501
77256W        W47137   5.785   0.889  10.611
77257W        W47138  23.011  24.068   3.256
77258W        W47139  32.017  16.089  14.017
77259W        W47140  31.990   1.307   1.742
77260W        W47141  18.567  44.400  10.613
77261W        W47142   5.285   0.929  10.573
77262W        W47143  34.561  31.504   1.253
77263W        W47144  11.343  40.493   3.645
77264W        W47145  23.625  11.646   1.337
77265W        W47146  13.836  41.964   2.667
77266W        W47147  27.134  28.936  10.550
77267W        W47148   3.794  44.392   1.760
77268W        W47149  38.392  33.920  12.468
77269W        W47150  37.492   0.956   3.841
77270W        W47151  44.920  34.030   2.721
77271W        W47152   3.261  21.040  11.935
77272W        W47153  12.166  41.453   1.709
77273W        W47154  23.497  29.957   1.278
77274W        W47155  31.936  40.810   1.780
77275W        W47156  28.460  23.568  12.931
77276W        W47157  10.698   4.899  12.027
77277W        W47158   7.819  20.666   1.237
77278W        W47159   6.785  22.623  11.035
77279W        W47160  32.908   8.316   4.247
77280W        W47161  16.226   3.342   5.260
77281W        W47162  37.872  31.629  11.977
77282W        W47163  22.138   0.305   9.940
77283W        W47164  12.210  15.108  12.903
77284W        W47165  15.627  16.263   1.442
77285W        W47166  43.295  17.771  13.523
77286W        W47167   1.479  42.788  14.951
77287W        W47168  17.678  28.045   2.875
77288W        W47169  24.989   1.449   3.867
77289W        W47170   2.344   4.305   0.374
77290W        W47171  24.105  40.003  12.446
77291W        W47172  30.525   0.465  14.328
77292W        W47173   8.862   7.277   0.450
77293W        W47174  36.011  42.943   4.680
77294W        W47175  38.481  19.235   1.793
77295W        W47176  11.248  13.203  12.341
77296W        W47177  14.611  15.777  12.890
77297W        W47178  26.191  15.277  13.533
77298W        W47179  16.253  32.989  14.346
77299W        W47180  11.219  24.125  11.435
77300W        W47181  43.338  19.610   4.814
77301W        W47182  33.115  25.580   1.751
77302W        W47183  30.474  21.136   3.201
77303W        W47184  38.556   1.930   0.919
77304W        W47185   8.759  37.942  12.552
77305W        W47186  15.312  37.479  13.995
77306W        W47187  31.152  14.139   3.665
77307W        W47188  15.101  20.636   4.708
77308W        W47189  14.631   6.347  12.029
77309W        W47190  11.271  37.978   3.261
77310W        W47191   5.217  42.826   0.910
77311W        W47192  19.264  17.216   3.762
77312W        W47193   0.773  31.495  12.934
77313W        W47194   0.904   3.233  10.458
77314W        W47195  30.119  34.102  13.513
77315W        W47196  34.085  26.590  12.986
77316W        W47197   5.346  39.313   0.944
77317W        W47198  33.095  37.039  11.071
77318W        W47199  44.349  38.841   2.680
77319W        W47200   5.244   2.837   1.332
77320W        W47201  22.703  31.049   0.383
77321W        W47202  25.569  23.663   2.668
77322W        W47203  21.663   6.303  10.890
77323W        W47204  39.841   5.903  11.414
77324W        W47205   7.737   7.363  10.567
77325W        W47206   7.910  10.811   3.196
77326W        W47207  15.614   2.760   0.380
77327W        W47208   9.334  25.674   4.177
77328W        W47209  39.909  43.831  13.982
77329W        W47210  27.647   8.377   3.343
77330W        W47211   5.287   6.877   2.217
77331W        W47212  21.695   0.432  14.792
77332W        W47213  33.105  30.469  10.451
77333W        W47214  39.400  10.160  14.786
77334W        W47215  15.798  30.484   1.338
77335W        W47216  37.429  15.635   2.683
77336W        W47217  34.044  35.966  10.419
77337W        W47218  22.572   9.770   2.831
77338W        W47219   0.842  24.197  14.850
77339W        W47220  20.686   7.276   2.870
77340W        W47221  41.462  10.231   0.737
77341W        W47222  38.439  34.870  14.414
77342W        W47223   8.216  21.262   2.815
77343W        W47224  12.623  34.554   0.476
77344W        W47225  26.569  40.967  14.292
77345W        W47226  39.016  14.304  12.915
77346W        W47227  35.061   7.195   2.239
77347W        W47228   9.270   2.799  10.981
77348W        W47229  23.112   4.265  11.034
77349W        W47230  17.681  30.909  11.488
77350W        W47231   2.257  16.631   3.196
77351W        W47232  33.915   6.288  13.799
77352W        W47233  24.526   3.871  11.597
77353W        W47234  24.639  31.535   1.318
77354W        W47235   2.949   4.333  14.277
77355W        W47236   7.283  38.840   3.364
77356W        W47237  43.872   7.225  14.360
77357W        W47238   2.334   2.757   1.787
77358W        W47239  19.272  10.163   0.909
77359W        W47240  28.625   9.317   0.309
77360W        W47241  11.197  17.095  14.945
77361W        W47242  26.091  33.518  12.369
77362W        W47243  42.979  14.138  14.906
77363W        W47244  14.773  13.796  12.526
77364W        W47245   1.403  39.438   1.332
77365W        W47246   2.266   9.832  12.469
77366W        W47247   2.882  17.086   3.248
77367W        W47248  33.074  18.586  14.909
77368W        W47249  12.773   4.273  12.882
77369W        W47250  35.506  43.479  13.012
77370W        W47251  35.980   6.884   1.296
77371W        W47252   6.321  17.124   5.182
77372W        W47253  18.680  33.016   0.420
77373W        W47254  10.146  33.379   3.310
77374W        W47255  20.536  15.661  11.016
77375W        W47256  35.539  25.635  11.887
77376W        W47257  27.129  43.015   0.869
77377W        W47258  24.718   4.223  11.384
77378W        W47259   9.167  22.088   2.711
77379W        W47260  37.936  37.459   1.315
77380W        W47261  13.296  15.615   3.321
77381W        W47262  12.611  29.015  11.902
77382W        W47263  20.175  10.747   2.302
77383W        W47264   5.752   0.263   1.730
77384W        W47265  43.411  16.600  11.468
77385W        W47266   8.860  35.493  12.015
77386W        W47267  10.674  16.657  11.452
77387W        W47268   4.206  10.865   0.760
77388W        W47269   0.796  28.509  11.111
77389W        W47270  21.584  33.389  14.330
77390W        W47271  38.387  37.578   3.255
77391W        W47272  18.738  31.525   0.245
77392W        W47273   8.362   0.371  14.831
77393W        W47274  37.555  34.381   0.440
77394W        W47275  33.472  19.631   0.763
77395W        W47276  16.705   7.871  11.377
77396W        W47277  21.539   4.205  10.585
77397W        W47278   0.389  40.987  11.477
77398W        W47279  30.444   2.736  10.907
77399W        W47280  33.431   4.261   2.289
77400W        W47281  43.368  19.240   0.908
77401W        W47282  19.592  17.183  12.858
77402W        W47283  13.620  32.110   0.948
77403W        W47284  42.804   5.346   1.731
77404W        W47285   2.463  11.194   3.664
77405W        W47286  22.705   0.834   1.730
77406W        W47287   2.447   6.802  13.978
77407W        W47288  28.638  38.951  13.903
77408W        W47289  16.695   6.749  13.891
77409W        W47290  13.195   7.725  11.403
77410W        W47291  17.179  38.833  10.017
77411W        W47292  24.539  25.569  10.456
77412W        W47293   7.274  15.130   3.236
77413W        W47294   7.322  21.719   4.341
77414W        W47295  17.615   0.976  13.500
77415W        W47296   0.925  18.647  11.975
77416W        W47297   4.300  30.009  10.486
77417W        W47298  12.233  19.704   1.307
77418W        W47299  39.026  30.952   3.343
77419W        W47300   6.224   8.214  12.428
77420W        W47301  12.667  36.449  12.390
77421W        W47302   4.390  19.084   2.215
77422W        W47303  18.212   5.749  14.501
77423W        W47304  12.132   3.712  13.831
77424W        W47305  27.604  16.625   1.329
77425W        W47306  25.065  13.749   4.775
77426W        W47307  30.091  37.872   4.228
77427W        W47308  34.075  30.471  12.534
77428W        W47309  29.615  37.567   2.710
77429W        W47310  15.770  42.838   4.246
77430W        W47311  11.854   4.826  13.478
77431W        W47312  23.225  42.313   0.828
77432W        W47313   4.286   7.816   1.387
77433W        W47314  26.526  18.740   0.359
77434W        W47315  10.678  13.822  11.857
77435W        W47316  39.840  29.562   4.617
77436W        W47317  17.201  13.796   0.442
77437W        W47318  14.136  19.609  14.484
77438W        W47319  13.339  33.441   3.657
77439W        W47320  39.008  35.916  14.923
77440W        W47321  20.063  20.127  12.862
77441W        W47322   9.329  39.409   3.283
77442W        W47323   2.461   6.892  10.457
77443W        W47324  32.138  22.008   1.856
77444W        W47325  22.681  41.311   4.696
77445W        W47326  39.439  12.215  12.088
77446W        W47327   9.320   9.365  13.859
77447W        W47328  12.702  14.129   2.262
77448W        W47329  32.141  26.077   0.357
77449W        W47330  11.643  25.160   0.753
77450W        W47331  43.815  41.026  14.381
77451W        W47332  17.712  14.635   2.223
77452W        W47333   8.199  13.747  14.999
77453W        W47334  34.612  40.330   2.672
77454W        W47335   7.801  29.168  12.888
77455W        W47336  31.104  15.317  13.943
77456W        W47337  13.833   6.293  12.057
77457W        W47338  44.881  10.791   1.377
77458W        W47339  12.644  10.243  13.026
77459W        W47340   6.812  30.483  11.976
77460W        W47341  33.931   6.335  11.041
77461W        W47342  28.655  44.984   4.256
77462W        W47343  30.137  13.235  11.450
77463W        W47344  19.539  25.498  11.895
77464W        W47345  22.658  42.906   4.210
77465W        W47346  33.108   9.368  10.604
77466W        W47347  14.649  35.929  14.399
77467W        W47348  23.698  33.972   1.838
77468W        W47349  40.542  25.549   1.714
77469W        W47350   9.348  13.187  14.790
77470W        W47351  15.808  10.746   4.729
77471W        W47352   8.322  17.253   0.247
77472W        W47353  16.197   4.362  14.886
77473W        W47354  35.042  26.571   0.314
77474W        W47355   5.333  43.914   1.845
77475W        W47356  35.527  22.564   1.928
77476W        W47357   8.746  17.267   2.820
77477W        W47358   5.814  35.089   1.748
77478W        W47359  44.843  38.360  13.543
77479W        W47360  26.055  30.563  11.451
77480W        W47361  28.187  31.120   3.183
77481W        W47362  38.980  44.370   0.452
77482W        W47363  11.238   1.856   0.409
77483W        W47364  29.932   5.783  10.504
77484W        W47365  36.407  15.310   3.196
77485W        W47366  36.461  31.910  13.374
77486W        W47367  40.331  10.806  11.961
77487W        W47368  28.021  38.984   0.292
77488W        W47369  31.031  26.546  11.571
77489W        W47370   5.929  27.196  14.493
77490W        W47371   3.792  35.415   4.796
77491W        W47372  20.252   9.306  13.327
77492W        W47373  30.919  33.513   1.715
77493W        W47374   6.784  33.083   3.297
77494W        W47375  36.893  21.625  12.893
77495W        W47376  19.221   3.395   4.201
77496W        W47377  34.447  22.185  12.390
77497W        W47378  34.482  22.611   0.450
77498W        W47379  38.415  44.382   0.324
77499W        W47380  39.976  31.531   2.729
77500W        W47381  35.965   5.906  10.530
77501W        W47382   2.368   2.444  13.037
77502W        W47383  39.024  17.649   0.360
77503W        W47384  25.555  23.729   4.178
77504W        W47385  35.500  18.643   1.800
77505W        W47386   6.238   6.399   3.865
77506W        W47387  39.915  36.480  10.635
77507W        W47388  28.079   1.344  10.947
77508W        W47389   2.879  19.245   4.311
77509W        W47390  32.122  26.996  12.974
77510W        W47391  11.323  28.134   9.436
77511W        W47392  18.716  43.362  10.974
77512W        W47393  38.552  17.178  11.100
77513W        W47394  11.716   7.886   4.838
77514W        W47395   3.922  27.563   2.189
77515W        W47396  30.507   4.846  14.383
77516W        W47397  28.173  33.580   3.853
77517W        W47398  44.770   0.394  12.495
77518W        W47399  22.166   2.338   2.322
77519W        W47400  36.943  13.130  14.276
77520W        W47401   5.277  13.807   2.377
77521W        W47402   3.244  28.555  10.492
77522W        W47403  40.335  42.992  13.396
77523W        W47404   5.751  43.316   0.821
77524W        W47405  17.765  40.390   4.216
77525W        W47406  19.772  35.898  10.899
77526W        W47407  36.844  19.739   0.348
77527W        W47408  38.925  27.061  11.539
77528W        W47409  38.524   7.296   2.825
77529W        W47410  16.189  37.023  13.441
77530W        W47411   7.283  37.493  13.032
77531W        W47412  31.001  20.081   4.772
77532W        W47413  35.980   5.203   3.194
77533W        W47414  40.918  28.973   4.214
77534W        W47415  44.902   2.392  10.629
77535W        W47416  28.168  38.419   1.751
77536W        W47417  32.487  32.109   1.717
77537W        W47418  35.938  11.758  11.503
77538W        W47419  13.146  36.390  14.360
77539W        W47420   7.204  10.731   1.338
77540W        W47421  43.910   3.455   0.398
77541W        W47422  44.382  31.603  12.058
77542W        W47423  19.710  39.045  13.527
77543W        W47424  18.565   0.253   2.271
77544W        W47425  34.962  32.390   3.268
77545W        W47426  15.623   2.725  14.887
77546W        W47427   1.878   3.282   1.886
77547W        W47428  18.661  31.138   3.206
77548W        W47429   0.893   0.460   4.770
77549W        W47430  22.630   5.907  11.927
77550W        W47431  12.692   1.751   0.398
77551W        W47432  20.046   7.335  12.906
77552W        W47433  35.007  19.144  12.034
77553W        W47434  27.190   3.956  14.379
77554W        W47435   8.786  23.099   2.338
77555W        W47436  44.442  37.339   9.957
77556W        W47437  36.963  29.638   3.379
77557W        W47438  19.143  12.245   1.257
77558W        W47439  27.113   9.251  14.319
77559W        W47440  31.514  24.049  10.597
77560W        W47441  38.047  19.703   0.432
77561W        W47442  32.578   6.316   4.141
77562W        W47443  11.294  29.065  10.930
77563W        W47444  42.818  29.590   4.156
77564W        W47445  20.258  21.747   2.866
77565W        W47446  11.306  13.692  14.280
77566W        W47447  41.806   5.697   0.852
77567W        W47448  15.619  41.454  12.040
77568W        W47449  38.050  34.477   5.177
77569W        W47450  17.270   5.333  11.424
77570W        W47451  17.638  44.500   1.234
77571W        W47452   3.341  27.079  12.488
77572W        W47453  15.635  33.021  10.567
77573W        W47454  18.694  37.081   1.803
77574W        W47455  34.572   8.854   2.849
77575W        W47456  36.872   0.974   0.777
77576W        W47457  10.273  21.213  13.797
77577W        W47458  23.553  20.143   4.683
77578W        W47459  11.833   0.878   0.823
77579W        W47460  13.296  41.463  13.328
77580W        W47461   2.937  17.165  13.338
77581W        W47462  39.347  26.457  13.544
77582W        W47463  11.163  41.504   0.403
77583W        W47464  44.478  15.116   2.377
77584W        W47465   5.254  28.174   3.219
77585W        W47466  28.936  17.727   3.174
77586W        W47467  31.423  21.230  11.531
77587W        W47468  22.705  17.224  14.846
77588W        W47469   7.194   7.248  14.893
77589W        W47470  27.555  32.073   1.280
77590W        W47471  32.964  34.429  13.396
77591W        W47472  16.794  36.927  11.567
77592W        W47473  28.170  12.314   0.317
77593W        W47474  12.645  34.592   2.243
77594W        W47475  29.137  14.775   4.774
77595W        W47476   7.687  43.462   1.272
77596W        W47477  37.864  10.234   0.736
77597W        W47478   4.705  42.808   4.713
77598W        W47479   3.855  20.122  12.464
77599W        W47480  35.103  43.410   3.847
77600W        W47481   1.340  31.514  13.800
77601W        W47482   5.820  27.125  11.017
77602W        W47483  28.578  22.657  14.373
77603W        W47484  44.973  14.590  10.504
77604W        W47485   5.746  33.409  14.388
77605W        W47486  10.351   0.877   4.665
77606W        W47487  38.898   1.736  10.969
77607W        W47488   1.795  41.039   1.881
77608W        W47489  41.789  29.046  11.573
77609W        W47490  24.995   2.959  14.815
77610W        W47491   2.298  40.399   5.254
77611W        W47492  30.642  44.930   4.190
77612W        W47493  27.993  17.589  14.495
77613W        W47494  26.111  12.657   0.460
77614W        W47495   0.390  22.724   3.251
77615W        W47496   3.864  35.868   3.725
77616W        W47497  26.503  10.757  14.895
77617W        W47498   0.468  15.174  12.499
77618W        W47499  39.952  44.830   2.742
77619W        W47500  31.978  42.789   0.261
77620W        W47501  37.509   9.205  10.598
77621W        W47502  33.437  36.466  12.542
77622W        W47503  23.692   1.479  12.989
77623W        W47504  21.141  26.487   0.266
77624W        W47505  12.712  30.602  10.927
77625W        W47506  35.526  10.370  13.831
77626W        W47507  24.030  39.012  11.477
77627W        W47508  32.539   1.425  13.998
77628W        W47509  32.890  37.579  13.904
77629W        W47510  19.725  31.609   1.364
77630W        W47511  23.592  41.467  14.419
77631W        W47512   2.366  27.676   1.360
77632W        W47513  15.140  26.107   3.830
77633W        W47514  36.396   4.882   0.861
77634W        W47515  13.709  24.118   4.793
77635W        W47516  32.987  27.066  14.381
77636W        W47517  23.136  44.785   4.694
77637W        W47518  15.663  30.500  12.903
77638W        W47519  14.310  39.558   1.756
77639W        W47520  36.480  41.356  14.939
77640W        W47521  42.936   6.837   1.440
77641W        W47522  23.139  43.890   1.304
77642W        W47523  21.145  22.540  14.856
77643W        W47524   8.762  35.556   2.786
77644W        W47525  23.527  40.370   1.789
77645W        W47526  36.361  18.145  14.817
77646W        W47527  33.472  25.153  11.495
77647W        W47528  37.391   6.347   5.197
77648W        W47529   3.450  21.139   0.932
77649W        W47530  12.803  41.924  12.390
77650W        W47531  27.588  31.936   2.879
77651W        W47532  31.105  38.382  12.454
77652W        W47533  34.083   8.264  14.354
77653W        W47534   2.249  42.783   1.927
77654W        W47535  14.589  27.481   1.890
77655W        W47536  35.438  32.497   0.879
77656W        W47537  37.542   9.796  12.523
77657W        W47538  29.568  28.982  13.843
77658W        W47539   6.907  17.583   1.435
77659W        W47540   8.741  14.118   0.472
77660W        W47541  17.596  27.115  14.310
77661W        W47542   3.766  38.433  10.933
77662W        W47543  37.436  10.176   1.372
77663W        W47544  21.115  25.165  10.120
77664W        W47545  20.729  36.569   3.667
77665W        W47546  31.003  43.956  11.455
77666W        W47547   7.897   5.697  11.864
77667W        W47548  25.647  35.024   3.236
77668W        W47549   1.430  15.637  12.544
77669W        W47550  20.575  11.735   2.180
77670W        W47551   6.861   7.389   4.219
77671W        W47552   8.734  29.137   2.769
77672W        W47553  36.014   0.490  13.321
77673W        W47554  41.477  21.226   0.285
77674W        W47555  33.389  28.028   1.410
77675W        W47556   0.749  41.891   4.826
77676W        W47557  22.645  16.098   4.598
77677W        W47558  15.213   3.450   9.958
77678W        W47559  10.148  44.002   0.835
77679W        W47560  28.112  11.672   4.608
77680W        W47561   4.944  27.094  12.482
77681W        W47562   2.261  20.077   0.958
77682W        W47563  30.434  22.209   2.376
77683W        W47564  33.108  32.607  12.826
77684W        W47565  40.385  36.065  11.011
77685W        W47566  23.167  42.312  11.581
77686W        W47567  36.020  41.851   3.172
77687W        W47568   1.977  27.599  12.091
77688W        W47569  31.907   6.900   4.180
77689W        W47570  30.910  20.753   3.828
77690W        W47571  20.727   2.918  13.994
77691W        W47572  37.399  29.077   4.713
77692W        W47573   9.282  25.510  13.543
77693W        W47574  23.159   7.327   4.233
77694W        W47575  43.838  25.667  12.452
77695W        W47576  18.551   5.798   3.251
77696W        W47577   2.739  12.841  10.564
77697W        W47578  39.880  40.911  12.057
77698W        W47579  10.329  38.450   4.726
77699W        W47580   3.771   7.742   3.280
77700W        W47581  17.290  16.136  10.948
77701W        W47582  23.140  39.872   4.246
77702W        W47583  26.590   2.806  12.496
77703W        W47584  30.009  37.983  10.455
77704W        W47585  12.724  42.418   2.761
77705W        W47586  35.107  44.271   0.920
77706W        W47587  27.572  19.096   2.285
77707W        W47588   2.446  42.332  14.512
77708W        W47589  15.636   3.332  14.322
77709W        W47590   6.241  24.492  13.988
77710W        W47591  40.329  17.699   4.153
77711W        W47592  20.093   1.308   3.714
77712W        W47593  26.015   0.332  11.956
77713W        W47594  39.491  12.695   3.269
77714W        W47595  41.491  13.228  12.486
77715W        W47596   6.781  21.540  12.885
77716W        W47597  35.075  40.487  12.881
77717W        W47598  13.245  20.662  10.891
77718W        W47599   5.775  25.597  13.012
77719W        W47600   5.925  40.456   1.735
77720W        W47601   0.900  43.958   1.350
77721W        W47602  43.795  18.129  10.497
77722W        W47603  25.708  22.190   1.435
77723W        W47604   6.307   9.790  11.448
77724W        W47605  21.549   8.233  14.357
77725W        W47606  38.437  17.063   4.765
77726W        W47607  10.334  32.396   0.251
77727W        W47608  39.042  25.148   9.986
77728W        W47609  32.635  27.071   0.351
77729W        W47610  28.078  38.842   4.702
77730W        W47611   8.378  25.681  12.999
77731W        W47612  15.641  29.920  13.497
77732W        W47613  21.116  37.406   2.835
77733W        W47614   0.806  39.820  13.451
77734W        W47615  20.567  16.811   4.204
77735W        W47616  37.505   9.272  11.405
77736W        W47617  43.350  18.145  10.620
77737W        W47618  19.055  13.612   0.441
77738W        W47619  33.908  42.950   4.120
77739W        W47620   6.838  20.578   1.822
77740W        W47621   3.901  27.571  13.340
77741W        W47622  13.176  11.696  10.042
77742W        W47623  18.665   9.667   4.755
77743W        W47624   2.270  26.463   4.126
77744W        W47625  14.748  39.894   3.289
77745W        W47626  37.943   5.764  13.989
77746W        W47627   1.443   0.823  14.488
77747W        W47628  27.674  23.150   4.625
77748W        W47629  40.818  16.237  13.329
77749W        W47630  39.428  31.937  13.467
77750W        W47631  26.017  21.520  13.799
77751W        W47632   8.405  16.744  13.948
77752W        W47633  19.671  13.304  14.980
77753W        W47634  15.664  29.455  12.569
77754W        W47635  31.989   8.383   3.201
77755W        W47636  20.043  17.730   3.367
77756W        W47637  14.720   1.314   4.262
77757W        W47638  17.257  38.370  12.464
77758W        W47639   2.935   5.866   0.424
77759W        W47640   0.286   7.745   1.261
77760W        W47641  13.823  34.369   2.322
77761W        W47642   8.188   1.970   3.640
77762W        W47643   5.906  28.466   1.746
77763W        W47644  39.047  16.800  14.287
77764W        W47645  34.538  18.603   1.334
77765W        W47646  14.098  33.027   1.732
77766W        W47647  18.608  30.514  12.013
77767W        W47648  25.164  12.275  12.374
77768W        W47649  26.123  31.483   2.720
77769W        W47650   7.897  20.088   4.808
77770W        W47651  25.621  16.249  14.310
77771W        W47652  19.107  12.208   0.763
77772W        W47653   8.834  27.059  12.842
77773W        W47654  39.931  16.695  11.537
77774W        W47655  35.027   5.903   3.749
77775W        W47656  34.936  36.397   3.232
77776W        W47657  14.324  13.679   0.350
77777W        W47658  15.106  20.146   4.268
77778W        W47659  38.858  16.079   4.138
77779W        W47660  16.136  18.283  13.830
77780W        W47661  33.454  26.529   4.706
77781W        W47662  24.650   3.811  10.439
77782W        W47663  17.076  12.152   2.665
77783W        W47664   0.382  13.304  13.950
77784W        W47665  20.229  22.008  13.824
77785W        W47666  40.467  17.592   2.246
77786W        W47667   5.691  23.609   1.275
77787W        W47668   5.729  35.554   1.789
77788W        W47669  20.158   2.815   4.695
77789W        W47670  43.444  40.006  13.038
77790W        W47671  14.808  39.948   9.996
77791W        W47672  13.824  44.900   0.849
77792W        W47673   4.297  31.505  11.378
77793W        W47674   4.919  33.969  11.487
77794W        W47675   4.298  20.186   3.302
77795W        W47676  20.673  24.130  12.491
77796W        W47677   7.248  43.783   4.643
77797W        W47678  10.743   8.197   2.281
77798W        W47679  30.544  14.835   1.790
77799W        W47680  29.441  33.465  11.984
77800W        W47681  18.544  18.549   1.882
77801W        W47682  21.067   5.244  13.870
77802W        W47683  29.072  36.378   1.773
77803W        W47684  44.303  20.128  11.534
77804W        W47685  20.593  11.811   1.267
77805W        W47686  16.241  25.110   4.255
77806W        W47687  30.511   4.775  10.645
77807W        W47688  38.368  39.521   3.279
77808W        W47689  13.177   6.678  11.965
77809W        W47690  36.872   7.308  11.056
77810W        W47691  44.971  39.814   0.330
77811W        W47692  35.898  30.500  10.641
77812W        W47693  12.188  22.170   1.932
77813W        W47694   6.766  38.826  14.758
77814W        W47695  13.300  21.216  14.762
77815W        W47696  38.957  39.450  10.982
77816W        W47697  24.681  11.246   1.385
77817W        W47698  21.749  42.470  13.802
77818W        W47699  33.574  15.707  13.367
77819W        W47700   3.242  13.167  12.385
77820W        W47701  12.851  16.596   5.193
77821W        W47702  42.446  22.664   3.774
77822W        W47703  12.311   9.172   0.858
77823W        W47704  30.659  35.450   2.216
77824W        W47705  25.554  11.838  14.864
77825W        W47706   5.857  22.655   1.728
77826W        W47707  35.960  37.078  10.990
77827W        W47708  43.328  38.928   1.383
77828W        W47709  36.918   0.256  10.075
77829W        W47710  35.086  16.257  12.833
77830W        W47711   4.795  23.154   1.238
77831W        W47712   0.420  25.001   3.183
77832W        W47713   8.177  27.602  14.410
77833W        W47714   9.834  38.866  13.853
77834W        W47715  29.434  30.090   1.320
77835W        W47716   3.238  23.040  13.040
77836W        W47717  36.491  41.914  12.957
77837W        W47718  37.839  39.388   2.322
77838W        W47719  15.712   6.794   1.223
77839W        W47720  19.173  21.103   3.780
77840W        W47721  20.273  33.562   0.804
77841W        W47722  41.359  35.898   4.150
77842W        W47723  20.652   9.882  13.907
77843W        W47724  15.091   9.753   2.755
77844W        W47725   4.733  43.457  12.444
77845W        W47726   3.377   2.392  11.377
77846W        W47727  26.163  35.969  10.574
77847W        W47728  23.662  19.548  12.950
77848W        W47729  10.775  18.181  11.008
77849W        W47730  18.634  35.855   0.862
77850W        W47731  44.414   9.698  13.842
77851W        W47732  25.622  17.176  13.011
77852W        W47733  13.774   2.769  14.794
77853W        W47734   9.698  33.058   1.827
77854W        W47735   4.700  32.964   4.758
77855W        W47736   1.266  26.026  14.988
77856W        W47737  43.340  31.910   3.354
77857W        W47738  32.467  18.613   4.677
77858W        W47739  15.654  10.384  11.889
77859W        W47740  32.965  26.554  10.541
77860W        W47741  33.049  42.498  14.826
77861W        W47742  19.202  43.297  10.420
77862W        W47743  21.218  29.029  12.949
77863W        W47744  30.028  13.812   0.864
77864W        W47745   5.886  24.042   1.307
77865W        W47746  13.661  30.603  13.962
77866W        W47747  43.442  24.215  13.400
77867W        W47748  36.853  39.457   2.191
77868W        W47749  33.963  14.201   4.732
77869W        W47750   2.763  44.937   3.340
77870W        W47751  26.203   6.874   1.854
77871W        W47752   2.818  13.231   3.736
77872W        W47753  43.436  18.117   4.291
77873W        W47754  33.587  39.036   0.341
77874W        W47755  26.147  10.142   2.278
77875W        W47756  14.813  43.398   0.753
77876W        W47757  43.411  42.813   9.938
77877W        W47758  18.230  27.687  11.582
77878W        W47759  43.985  13.800  12.539
77879W        W47760  19.673  41.937  10.939
77880W        W47761  30.432  16.792   1.266
77881W        W47762   5.197   6.295  11.922
77882W        W47763  40.386  26.080   3.381
77883W        W47764  22.583  31.001   3.207
77884W        W47765  32.075  35.571   0.769
77885W        W47766  13.160  34.460  12.524
77886W        W47767   7.804   1.242  14.286
77887W        W47768  24.530  10.164   2.414
77888W        W47769   4.893  39.377  14.464
77889W        W47770  18.215  27.985   4.627
77890W        W47771  33.959  20.677   3.216
77891W        W47772  14.795  19.231   4.300
77892W        W47773  32.948  17.635  13.034
77893W        W47774  18.208  14.320   3.183
77894W        W47775  39.995  15.813   0.420
77895W        W47776  14.288   0.782  11.985
77896W        W47777  11.209  19.653  14.435
77897W        W47778  40.474  15.764   2.804
77898W        W47779  41.845  34.373   3.685
77899W        W47780  38.948  38.006   3.301
77900W        W47781  14.222  12.313   2.671
77901W        W47782  37.848   5.288   3.370
77902W        W47783   9.380   4.336   2.388
77903W        W47784  38.996  41.448   5.187
77904W        W47785  23.229  29.109   1.890
77905W        W47786  42.856   4.891   1.726
77906W        W47787  21.612  21.044  12.397
77907W        W47788  19.559   8.716   0.884
77908W        W47789  27.091   3.379   2.414
77909W        W47790  38.945   8.181   3.169
77910W        W47791  29.513  20.560   4.209
77911W        W47792  10.361  13.294  11.923
77912W        W47793  32.087  39.455  11.926
77913W        W47794  11.803  41.491  13.512
77914W        W47795  28.476  39.028   0.872
77915W        W47796  22.507  40.455  11.051
77916W        W47797   2.739  39.467  13.817
77917W        W47798  41.826  25.183  12.005
77918W        W47799  12.781  10.868   2.409
77919W        W47800  17.619  19.571   4.147
77920W        W47801  34.587   8.304   4.635
77921W        W47802  13.717  38.354   1.286
77922W        W47803  37.418  18.119   0.437
77923W        W47804  30.037  40.364  11.095
77924W        W47805  37.977  11.698   3.319
77925W        W47806  10.726  42.471  13.794
77926W        W47807  23.213   1.409  13.387
77927W        W47808  35.438  31.414   0.347
77928W        W47809  33.594  12.805   2.781
77929W        W47810  21.658   3.440  11.409
77930W        W47811  16.607  16.166   2.870
77931W        W47812  26.965  35.893   1.820
77932W        W47813   0.821  16.641   1.235
77933W        W47814  24.047  37.064  12.411
77934W        W47815  17.107   2.321   2.720
77935W        W47816   0.898   9.161   1.864
77936W        W47817  36.521  29.623  10.955
77937W        W47818  10.256  19.619   3.809
77938W        W47819  36.903  16.290  10.592
77939W        W47820  20.665  17.683  12.033
77940W        W47821  36.474   1.794  14.025
77941W        W47822   9.227  31.589  10.978
77942W        W47823  20.573  12.279   4.764
77943W        W47824  21.257  34.480  10.970
77944W        W47825  22.568   4.888  13.478
77945W        W47826  30.515  24.604  12.350
77946W        W47827  16.694  19.584  10.521
77947W        W47828  33.429  15.097   1.409
77948W        W47829  34.601  36.541   2.181
77949W        W47830   9.369  35.975   3.359
77950W        W47831  17.236  40.873   4.150
77951W        W47832   1.828  37.863   4.313
77952W        W47833   7.318  43.425  12.454
77953W        W47834  18.292  41.798   1.887
77954W        W47835   7.331  44.388   0.762
77955W        W47836  20.570   1.872   3.356
77956W        W47837  13.185   5.227  12.382
77957W        W47838  21.657  33.549  10.534
77958W        W47839  12.711  27.002   2.367
77959W        W47840  33.063  44.984  10.496
77960W        W47841  18.759  31.580  13.501
77961W        W47842  34.062  10.783   1.411
77962W        W47843   1.732  11.668   4.184
77963W        W47844  38.935  18.194  10.018
77964W        W47845   1.242  38.835  13.407
77965W        W47846  26.580  32.121   4.267
77966W        W47847   8.740  22.181   4.180
77967W        W47848  27.966  39.377   2.193
77968W        W47849   5.368  23.095  14.280
77969W        W47850  16.768  18.242   2.345
77970W        W47851  36.530   8.738  11.415
77971W        W47852  12.679  25.971   4.234
77972W        W47853  18.653  18.689  13.418
77973W        W47854  33.984  14.806   1.382
77974W        W47855  36.455  18.646  14.347
77975W        W47856  10.768  17.088   4.614
77976W        W47857  19.124  40.913  12.924
77977W        W47858  44.912   4.755   4.204
77978W        W47859  25.207  19.764   0.911
77979W        W47860  23.173  43.414   0.463
77980W        W47861  34.081   3.847   3.153
77981W        W47862  34.075   7.339  14.857
77982W        W47863  22.113  31.595  11.122
77983W        W47864   7.889  14.669   2.853
77984W        W47865  35.364  40.442  11.087
77985W        W47866  38.458  13.630   2.891
77986W        W47867   7.336  24.590  12.543
77987W        W47868   4.382   6.222   0.366
77988W        W47869  33.517  26.500   4.264
77989W        W47870  23.140   5.302   3.174
77990W        W47871   5.271  29.102   0.876
77991W        W47872  44.875   0.407   3.149
77992W        W47873  12.761  37.449  12.035
77993W        W47874  41.895  11.350   2.728
77994W        W47875  35.485  43.285  13.439
77995W        W47876   3.295  30.080   0.259
77996W        W47877  40.328  35.883  11.988
77997W        W47878   1.262  12.307   0.453
77998W        W47879  21.046  40.514  10.499
77999W        W47880  11.796  31.084   3.705
78000W        W47881  29.161  23.168  14.340
78001W        W47882  17.159  19.063  14.880
78002W        W47883  43.335   1.416   3.778
78003W        W47884  35.439  43.470   4.795
78004W        W47885   4.769  42.908  11.939
78005W        W47886  35.924  17.091  11.456
78006W        W47887  22.224   8.333  12.357
78007W        W47888  34.467  39.551   0.340
78008W        W47889  36.511   1.324   2.182
78009W        W47890  31.997  17.272  13.500
78010W        W47891  15.255  44.435   4.261
78011W        W47892   8.703  35.501   0.964
78012W        W47893  35.419  20.039  13.011
78013W        W47894  10.730  27.640   4.274
78014W        W47895   9.766  21.242   2.192
78015W        W47896  40.441  30.486   3.345
78016W        W47897   6.348   9.738  10.919
78017W        W47898   5.840   2.826  14.828
78018W        W47899  29.080  20.533  11.541
78019W        W47900  36.583  24.585   4.132
78020W        W47901  16.667  20.745   4.739
78021W        W47902  21.191  25.602   0.345
78022W        W47903  10.313  19.089   3.325
78023W        W47904  36.519   6.408   1.847
78024W        W47905   5.308  41.412  11.127
78025W        W47906   1.816  39.352  13.022
78026W        W47907   2.874  24.147   2.706
78027W        W47908  41.848  44.398   5.233
78028W        W47909  27.518  42.385  11.072
78029W        W47910   7.876   4.857  13.336
78030W        W47911  23.106   8.403  13.927
78031W        W47912  41.303  24.705   0.784
78032W        W47913  20.253  43.879   2.809
78033W        W47914  38.946  33.893  11.434
78034W        W47915  27.054  31.412   0.249
78035W        W47916  16.785  13.779   3.342
78036W        W47917  23.606  34.864  14.345
78037W        W47918  15.734  23.098  12.838
78038W        W47919   8.318  32.016  11.862
78039W        W47920  22.700  11.140  14.317
78040W        W47921   2.472  41.800   1.817
78041W        W47922  12.642   0.394   4.689
78042W        W47923   4.735   1.977  12.393
78043W        W47924  39.904  23.509  14.300
78044W        W47925  42.835  42.300   1.795
78045W        W47926  18.199   9.887  13.411
78046W        W47927  22.583  39.066   5.151
78047W        W47928  42.830  37.512  14.426
78048W        W47929  24.625  28.165  12.079
78049W        W47930  27.651  25.585   2.701
78050W        W47931  38.893  36.434   3.800
78051W        W47932  15.111  14.722  12.949
78052W        W47933  36.861  29.578  13.533
78053W        W47934  18.567  11.224  14.795
78054W        W47935  36.967   1.805   0.902
78055W        W47936  13.318  32.976   2.336
78056W        W47937  25.547  11.206   4.704
78057W        W47938  22.069   3.251  14.020
78058W        W47939  29.636  33.945  11.576
78059W        W47940  38.987  14.655   4.137
78060W        W47941   4.942  16.582  13.437
78061W        W47942  36.004   0.410  10.942
78062W        W47943  32.565  41.983  13.019
78063W        W47944  28.161  18.637  14.942
78064W        W47945  23.000  35.006   4.732
78065W        W47946   1.742  10.216   4.350
78066W        W47947  40.930  11.837   4.139
78067W        W47948  30.441  30.650   0.427
78068W        W47949  26.613   4.889   5.198
78069W        W47950  12.238  42.983  12.943
78070W        W47951  25.128  14.227   3.844
78071W        W47952  35.421   6.387   2.412
78072W        W47953  17.090  24.675   0.403
78073W        W47954   8.314   5.831  10.947
78074W        W47955   2.329  39.892  12.090
78075W        W47956   6.819  22.214   2.886
78076W        W47957   5.371  13.610  10.528
78077W        W47958  44.797  32.532   3.704
78078W        W47959  14.654  20.748   2.275
78079W        W47960  37.071   1.376  13.877
78080W        W47961  44.399   4.421  13.525
78081W        W47962  26.196  24.176   3.348
78082W        W47963  37.926  10.266   1.879
78083W        W47964  25.176  37.490  12.982
78084W        W47965  35.450   7.828  13.450
78085W        W47966  27.055  11.696   4.196
78086W        W47967  23.676   9.684   0.398
78087W        W47968  25.617  24.707  14.470
78088W        W47969   5.322  27.966   0.367
78089W        W47970  19.687  15.279   3.715
78090W        W47971  18.562  37.530  11.093
78091W        W47972  14.606  24.115  14.341
78092W        W47973  41.788  19.746   0.307
78093W        W47974  42.512  11.775  14.839
78094W        W47975  36.018  23.170   4.800
78095W        W47976   9.712  36.477   3.243
78096W        W47977  25.160   5.385   1.824
78097W        W47978  42.506  41.325   2.202
78098W        W47979  19.278  32.520  14.388
78099W        W47980  30.996  28.030   2.901
78100W        W47981   2.272  23.653   4.709
78101W        W47982  30.154  36.865  14.936
78102W        W47983  27.663   8.361   1.743
78103W        W47984   6.339  16.648  10.019
78104W        W47985  24.042   8.177   4.711
78105W        W47986  18.214  37.392  14.348
78106W        W47987  44.293  11.677  11.390
78107W        W47988  14.277  41.470  14.331
78108W        W47989  17.243  27.598   1.888
78109W        W47990   0.359  12.810   4.775
78110W        W47991  24.184   4.811   2.331
78111W        W47992  10.659  44.326  12.920
78112W        W47993   3.906   9.275   1.214
78113W        W47994   3.727  44.011  13.985
78114W        W47995  15.131   6.294   2.838
78115W        W47996   3.799  24.672   0.940
78116W        W47997   1.942  18.236  12.572
78117W        W47998  44.894  41.426   4.216
78118W        W47999  40.438  20.663   3.713
78119W        W48000  44.762   0.346  13.991
78120W        W48001  37.063  44.402  11.435
78121W        W48002  26.477  19.249   0.268
78122W        W48003   8.815  42.883   3.173
78123W        W48004  35.961  43.497  11.127
78124W        W48005  38.945  26.465   3.198
78125W        W48006  10.689   6.688   1.908
78126W        W48007   4.351   5.735   4.827
78127W        W48008  24.608  13.107   4.731
78128W        W48009   3.428  29.066   4.271
78129W        W48010  29.453  26.045   3.329
78130W        W48011  34.937  29.035  13.883
78131W        W48012  43.892   8.212   2.257
78132W        W48013  39.953  20.605   0.366
78133W        W48014  20.658  11.837   0.396
78134W        W48015  16.165  25.661  14.383
78135W        W48016   7.825  21.552   2.390
78136W        W48017  23.060  33.619  11.039
78137W        W48018  20.574   1.850   0.861
78138W        W48019  31.903  43.370   2.731
78139W        W48020  44.389  13.254   3.764
78140W        W48021  13.799  42.281   1.441
78141W        W48022  18.156  20.713   0.959
78142W        W48023  28.546   1.962  11.525
78143W        W48024  25.684  18.619   3.359
78144W        W48025  21.241   2.242   3.681
78145W        W48026  34.870  33.124   0.800
78146W        W48027  27.106  13.684   0.328
78147W        W48028  21.619  11.347  13.942
78148W        W48029  43.418  16.591  12.033
78149W        W48030  42.456  31.517  14.960
78150W        W48031  18.700  13.305  14.378
78151W        W48032  26.964  16.645  14.901
78152W        W48033  36.856   1.771   9.932
78153W        W48034   6.865  35.544   4.780
78154W        W48035  36.357  29.638  14.275
78155W        W48036   5.749  11.353  14.027
78156W        W48037   1.777  14.135  13.457
78157W        W48038  10.179  28.068  10.956
78158W        W48039  22.137  40.423  13.841
78159W        W48040  16.625  30.110  11.593
78160W        W48041  37.047  12.732  14.456
78161W        W48042  28.119   0.868  14.825
78162W        W48043  18.291  12.144   1.232
78163W        W48044  43.944  22.704  12.481
78164W        W48045  15.110  39.362  10.038
78165W        W48046  31.054  27.639  12.984
78166W        W48047  39.933  23.023  13.951
78167W        W48048  41.401  28.185  14.284
78168W        W48049  18.682  27.952  12.836
78169W        W48050   2.876  27.468  11.048
78170W        W48051  40.398  25.964  12.574
78171W        W48052  30.622  39.358  12.341
78172W        W48053  40.482  28.097  12.559
78173W        W48054   4.864  11.726   1.275
78174W        W48055  36.955  29.081  14.319
78175W        W48056  28.930  29.147  14.354
78176W        W48057  26.090  20.091  12.411
78177W        W48058  35.505  44.010   0.801
78178W        W48059  40.036   2.831  14.925
78179W        W48060  37.489  14.149   0.392
78180W        W48061  29.460  21.067  13.937
78181W        W48062   1.362   1.477  11.531
78182W        W48063  12.344  27.591   1.415
78183W        W48064  20.051  28.466   4.738
78184W        W48065  33.561   2.367  14.428
78185W        W48066  37.061  26.558  12.880
78186W        W48067  41.816  25.624  12.505
78187W        W48068  29.478   8.862   0.903
78188W        W48069  26.521   7.778  12.957
78189W        W48070  20.525  12.150   1.364
78190W        W48071  44.778  40.330   2.754
78191W        W48072  15.787  33.079   9.946
78192W        W48073  27.066  10.300   1.749
78193W        W48074  23.568  18.137  12.091
78194W        W48075  28.520  25.618   4.152
78195W        W48076  18.263  20.053  12.087
78196W        W48077  14.285  17.106   3.678
78197W        W48078   1.447   9.237  11.595
78198W        W48079  39.837  43.482   2.286
78199W        W48080   2.376  16.192  12.079
78200W        W48081  44.353   2.854   3.309
78201W        W48082  14.104   8.766  11.434
78202W        W48083   5.903   1.474   4.675
78203W        W48084  30.485  16.583  12.451
78204W        W48085  43.313   8.850  10.430
78205W        W48086  35.040   2.833  10.439
78206W        W48087  10.652  33.923  12.030
78207W        W48088  22.009  23.049   3.344
78208W        W48089   9.700  37.432   0.878
78209W        W48090  43.935   3.336   0.904
78210W        W48091  23.153  22.223   2.202
78211W        W48092  16.733  27.128  12.395
78212W        W48093   8.663  28.996   1.292
78213W        W48094  32.586  36.562   3.345
78214W        W48095  41.451  12.244   0.761
78215W        W48096  27.612  30.050   3.353
78216W        W48097  43.796   0.258  14.867
78217W        W48098  38.982  17.587   4.777
78218W        W48099  42.337  38.459   4.625
78219W        W48100  17.277  22.151  11.889
78220W        W48101   4.924  39.548   3.159
78221W        W48102  32.544  20.750  11.936
78222W        W48103  19.143  30.549  11.407
78223W        W48104  25.063  34.607  13.806
78224W        W48105  23.568   2.280  14.406
78225W        W48106  24.188  33.541   1.801
78226W        W48107   3.455  28.946  10.538
78227W        W48108   6.690  32.593  13.422
78228W        W48109  13.206  28.662   0.331
78229W        W48110   9.770   1.348  13.542
78230W        W48111  14.267  28.143   0.274
78231W        W48112  34.532  31.959  11.490
78232W        W48113  37.075  35.031  11.879
78233W        W48114  23.990  23.631  10.127
78234W        W48115  26.532  29.600   4.145
78235W        W48116   3.304   7.704  13.439
78236W        W48117  24.508  37.937   3.782
78237W        W48118   7.268  34.604  10.517
78238W        W48119  11.712  31.924  13.809
78239W        W48120   0.412  33.407  13.369
78240W        W48121  44.812  37.475   4.612
78241W        W48122  41.502   2.409  11.921
78242W        W48123  33.433   1.467   4.719
78243W        W48124  33.990  23.521   4.640
78244W        W48125   4.369  36.491   4.731
78245W        W48126  32.034  33.905   0.331
78246W        W48127  36.527  30.946   3.234
78247W        W48128  16.223  18.787   3.371
78248W        W48129  13.119  29.607  12.561
78249W        W48130   9.279  17.133  12.372
78250W        W48131  20.180  26.123  10.499
78251W        W48132  38.520  27.564  14.284
78252W        W48133  40.489  17.574   0.279
78253W        W48134  14.747  23.703  12.833
78254W        W48135  10.321  38.980  10.414
78255W        W48136  14.164  35.004  14.379
78256W        W48137  37.500  20.625   3.260
78257W        W48138  38.016  12.310   2.898
78258W        W48139  38.077  35.935   1.310
78259W        W48140  26.651  21.138  12.993
78260W        W48141  30.015  19.093   0.948
78261W        W48142  12.335  24.214   2.851
78262W        W48143  42.779  25.142  10.983
78263W        W48144  39.966  28.606   1.893
78264W        W48145  12.774  34.071   3.220
78265W        W48146  35.484   8.888   0.461
78266W        W48147   9.799  23.604   4.128
78267W        W48148  35.103  40.931  12.550
78268W        W48149  25.507  33.946  13.502
78269W        W48150  10.807  38.338  13.428
78270W        W48151  20.188  24.983   5.246
78271W        W48152  21.723  31.129   1.909
78272W        W48153  13.795   7.404   2.383
78273W        W48154  16.281  41.842   1.287
78274W        W48155  17.776   0.408   3.313
78275W        W48156   1.886  14.306   0.766
78276W        W48157   0.479  30.442   1.300
78277W        W48158  29.487  26.660   2.219
78278W        W48159  28.980  42.886  12.539
78279W        W48160  38.057  34.590  11.062
78280W        W48161  10.231  22.011  10.525
78281W        W48162   2.283   4.257   2.244
78282W        W48163  29.996   5.357   2.190
78283W        W48164  18.630  37.508   2.770
78284W        W48165  32.398  32.061   0.821
78285W        W48166  28.075  30.533  13.802
78286W        W48167  38.548  41.461  13.370
78287W        W48168  38.910  31.006  14.482
78288W        W48169  14.589   1.404  11.922
78289W        W48170  17.194   6.425   0.454
78290W        W48171  29.993  20.723  14.875
78291W        W48172  17.729  17.669   0.963
78292W        W48173  36.995   7.372  12.984
78293W        W48174  22.101  41.397  13.428
78294W        W48175  20.525   7.411  11.404
78295W        W48176   2.227   8.833   4.628
78296W        W48177  23.154  16.807   2.263
78297W        W48178  12.134  10.761  11.915
78298W        W48179  20.246  36.571   3.634
78299W        W48180  30.916  13.607  13.990
78300W        W48181  41.920  10.220   0.822
78301W        W48182  34.419  33.993   4.722
78302W        W48183  37.537  43.894   2.328
78303W        W48184  17.087  39.930   0.399
78304W        W48185  29.036  27.597   4.695
78305W        W48186  42.308   0.430   2.259
78306W        W48187  15.746  24.214   0.362
78307W        W48188  17.800   5.267   1.757
78308W        W48189  27.105  31.000   0.454
78309W        W48190  41.410  28.059  13.518
78310W        W48191   5.788  29.043   0.410
78311W        W48192   3.384   3.930   0.882
78312W        W48193  18.160  24.635  11.095
78313W        W48194   4.805  31.620   2.690
78314W        W48195  19.570  14.221  14.297
78315W        W48196   3.356   5.780  12.960
78316W        W48197  39.549  10.278   1.787
78317W        W48198  40.926  27.091  14.457
78318W        W48199  23.224   0.369   4.216
78319W        W48200  31.016   8.864  14.481
78320W        W48201  26.187  34.911  14.995
78321W        W48202  43.766  27.607   2.713
78322W        W48203  25.102  40.997   0.338
78323W        W48204  31.081  19.156  11.484
78324W        W48205   1.263  10.839  11.497
78325W        W48206  31.933  43.838  14.298
78326W        W48207  43.947  34.578  12.572
78327W        W48208   6.836  40.814   2.864
78328W        W48209  43.890  16.620  10.616
78329W        W48210   1.422   4.911  12.918
78330W        W48211  12.196   7.282  11.935
78331W        W48212  29.012   1.753   4.172
78332W        W48213  31.544  40.041  12.390
78333W        W48214  23.560  12.682  12.364
78334W        W48215  11.274  33.895   1.431
78335W        W48216   6.750   8.774   4.798
78336W        W48217  27.618  39.978   3.367
78337W        W48218  16.645  40.908  13.514
78338W        W48219  17.246  25.067   1.816
78339W        W48220  11.809  24.000  10.623
78340W        W48221   9.849  31.593   4.151
78341W        W48222  13.708  38.485  14.834
78342W        W48223  10.148  31.989  11.486
78343W        W48224  23.635  36.587  13.870
78344W        W48225  29.582  43.469  14.849
78345W        W48226   6.893  42.346   3.344
78346W        W48227  12.808   2.955   1.220
78347W        W48228  18.588  37.015   4.255
78348W        W48229   8.320   0.885   2.857
78349W        W48230  19.217  38.864   4.205
78350W        W48231  43.444  34.964   0.890
78351W        W48232  31.480  35.954   0.364
78352W        W48233  23.198  40.548   2.798
78353W        W48234  39.507  40.333  13.396
78354W        W48235  27.516  39.973  11.577
78355W        W48236  24.543  32.939   3.750
78356W        W48237  44.854  37.421  12.912
78357W        W48238  16.187  27.065  13.007
78358W        W48239   4.418  34.089  11.422
78359W        W48240  43.442  25.639  12.551
78360W        W48241  23.018   7.740  14.291
78361W        W48242  23.089  15.259   2.794
78362W        W48243  18.589   5.418  13.857
78363W        W48244  31.413  12.261   3.837
78364W        W48245  31.915  21.135   4.351
78365W        W48246  37.866  41.472  12.421
78366W        W48247  15.328  44.458   3.865
78367W        W48248   5.920  37.841  11.480
78368W        W48249  25.593  31.423   4.703
78369W        W48250  15.777  39.970   0.384
78370W        W48251  39.358  41.023  13.992
78371W        W48252  43.973  37.412   1.913
78372W        W48253  22.562   8.392  14.876
78373W        W48254  14.188   2.782   3.234
78374W        W48255  35.024   7.184  11.487
78375W        W48256  16.714  26.981  11.422
78376W        W48257   9.382   9.821  12.488
78377W        W48258   5.917  27.469   3.767
78378W        W48259  29.443  33.993  13.909
78379W        W48260   7.904  12.631  13.378
78380W        W48261   6.218  41.523  14.897
78381W        W48262  23.071  16.723   5.256
78382W        W48263  37.463  20.552   2.695
78383W        W48264  27.623  44.484  13.307
78384W        W48265  21.246   9.343  13.399
78385W        W48266   6.228   4.320   3.321
78386W        W48267  33.388  20.553   2.812
78387W        W48268  30.138  22.040   1.271
78388W        W48269   9.362  14.189  11.529
78389W        W48270  33.440  34.381   1.286
78390W        W48271  11.805  44.939  14.476
78391W        W48272   4.286  19.197   4.685
78392W        W48273  32.141  27.580   0.870
78393W        W48274  16.185  35.874  12.970
78394W        W48275  27.976  23.646   4.161
78395W        W48276  19.692   9.822   0.908
78396W        W48277   6.288  35.592  14.779
78397W        W48278  41.908  24.192  14.986
78398W        W48279  32.454  18.270  11.502
78399W        W48280  44.410  36.547   4.343
78400W        W48281  34.981  39.843   1.376
78401W        W48282   5.817  11.158  14.819
78402W        W48283  18.550   3.359   3.729
78403W        W48284  25.710  26.012   4.131
78404W        W48285  13.783   7.188  12.472
78405W        W48286  39.402  19.654   1.704
78406W        W48287  39.452  26.089   0.370
78407W        W48288  21.090  10.324  11.412
78408W        W48289  31.499  21.140  11.943
78409W        W48290  29.001  43.895   0.771
78410W        W48291  15.728  35.045   1.928
78411W        W48292  28.128  37.022  11.374
78412W        W48293  35.410  43.402  14.889
78413W        W48294  34.049   9.237   0.909
78414W        W48295  40.311  22.160  14.897
78415W        W48296  20.132   0.475   4.239
78416W        W48297  43.433  21.609   0.425
78417W        W48298  15.302  10.782   0.748
78418W        W48299  11.806  36.432  14.863
78419W        W48300   5.918   5.206   1.425
78420W        W48301   6.905  33.048   4.834
78421W        W48302  11.280   8.761   0.888
78422W        W48303  32.523  43.452   3.726
78423W        W48304   9.803  39.346   0.901
78424W        W48305  32.517  31.430  12.989
78425W        W48306  33.092  44.798  13.418
78426W        W48307   0.445  21.707   0.898
78427W        W48308  28.002  28.970   2.876
78428W        W48309   9.657  32.464   4.806
78429W        W48310  13.751  32.623   3.296
78430W        W48311  22.158  39.864  14.832
78431W        W48312  21.584   4.422   1.896
78432W        W48313   4.839  16.082  11.459
78433W        W48314  10.307  36.422   0.339
78434W        W48315  31.121  35.359  10.415
78435W        W48316  19.079  16.786  10.640
78436W        W48317  23.066  24.700   4.639
78437W        W48318  29.941  25.612  11.863
78438W        W48319  29.951  21.715   1.819
78439W        W48320  11.743  29.665   3.787
78440W        W48321  33.452  16.642   3.281
78441W        W48322  24.599   6.339  12.393
78442W        W48323   2.254  43.313  14.335
78443W        W48324  26.699  41.954   1.325
78444W        W48325  40.805  27.459   0.800
78445W        W48326  43.795  44.950  12.073
78446W        W48327  33.082  26.655  10.923
78447W        W48328   8.687  11.143  14.341
78448W        W48329  41.922  31.562   3.364
78449W        W48330   4.886  35.533  14.999
78450W        W48331   8.339  36.409   0.316
78451W        W48332   3.881  31.474  12.882
78452W        W48333  38.387   7.759  13.857
78453W        W48334  11.646  40.347   2.332
78454W        W48335  39.833  32.609   4.740
78455W        W48336  29.060  10.308   3.200
78456W        W48337  33.002   0.324   4.709
78457W        W48338  12.797  39.443  14.989
78458W        W48339  40.376   8.670  14.825
78459W        W48340   9.384  18.279   0.852
78460W        W48341  14.714   9.211  13.525
78461W        W48342  26.012  37.079   2.187
78462W        W48343   0.836  29.640  14.799
78463W        W48344  40.862  23.641   0.261
78464W        W48345  20.172   7.362  11.505
78465W        W48346  33.448  32.024  14.995
78466W        W48347  29.084  30.615   3.694
78467W        W48348  18.719   3.350   4.654
78468W        W48349   0.344  21.537  14.803
78469W        W48350  17.736  24.097  10.577
78470W        W48351  22.039  14.597  12.469
78471W        W48352   0.941  41.815   3.774
78472W        W48353  15.671  32.944  11.603
78473W        W48354   2.819  39.000   3.259
78474W        W48355  22.564  32.618  14.373
78475W        W48356   3.275  37.387   1.695
78476W        W48357  12.643  29.041  10.495
78477W        W48358  15.602  36.045   2.266
78478W        W48359  42.928  38.836  14.894
78479W        W48360   9.793  21.242   3.759
78480W        W48361   2.782  28.147  12.934
78481W        W48362   7.265   9.161   3.266
78482W        W48363  17.281  43.279  10.948
78483W        W48364  11.733  19.583   1.717
78484W        W48365  14.826  27.589  11.463
78485W        W48366  37.032  33.114   0.756
78486W        W48367  20.142  21.207  13.801
78487W        W48368  30.418  27.066  11.420
78488W        W48369  29.064  33.105   3.190
78489W        W48370  12.736  30.084   1.228
78490W        W48371   2.806  27.528  12.900
78491W        W48372  37.502  38.982  11.938
78492W        W48373  36.852  42.389   2.305
78493W        W48374  17.148   0.396  10.577
78494W        W48375   9.315  22.654  12.965
78495W        W48376  31.564   6.777   1.879
78496W        W48377  31.118  28.655   2.320
78497W        W48378  11.175  40.540  11.389
78498W        W48379   0.906  28.168   0.733
78499W        W48380  43.923  34.028  13.805
78500W        W48381  12.614  29.992   4.348
78501W        W48382  40.842   0.261  14.890
78502W        W48383   6.763  37.975   1.796
78503W        W48384   5.871   9.678   2.356
78504W        W48385   9.249  41.523  11.580
78505W        W48386  17.294   0.454  14.781
78506W        W48387  21.717  41.888  11.000
78507W        W48388   4.844  41.010  11.091
78508W        W48389   7.292  34.571   3.785
78509W        W48390  16.715  41.515   4.346
78510W        W48391   5.421   8.383  13.415
78511W        W48392  11.147  42.322   1.906
78512W        W48393  29.561  38.874  10.111
78513W        W48394  27.658  41.439  12.008
78514W        W48395   5.894  15.766   0.286
78515W        W48396  15.185  40.449   4.812
78516W        W48397  26.548  37.571  13.022
78517W        W48398  37.392  14.601   2.395
78518W        W48399   4.312  28.987  12.039
78519W        W48400  30.949   3.347   3.162
78520W        W48401  31.067  31.439   3.632
78521W        W48402   9.821  17.254  14.800
78522W        W48403   6.406  10.788   3.310
78523W        W48404  31.144  22.720   0.826
78524W        W48405  11.293   2.388   4.342
78525W        W48406  41.883  32.112  13.411
78526W        W48407   9.390  21.045  10.458
78527W        W48408  27.992  25.689   1.221
78528W        W48409  32.996  30.455  13.962
78529W        W48410  37.983   2.370   3.725
78530W        W48411   9.794  14.677  11.377
78531W        W48412  34.908   0.825   3.763
78532W        W48413  43.316   1.799  14.505
78533W        W48414  24.559  33.975   3.737
78534W        W48415  36.096  27.588  10.527
78535W        W48416  20.754  23.695   3.764
78536W        W48417  22.577  16.609  10.417
78537W        W48418  36.584  17.308   1.215
78538W        W48419  22.251   0.415  12.060
78539W        W48420   8.662   7.294   2.216
78540W        W48421  10.153  16.599   2.826
78541W        W48422  20.206   5.404   2.284
78542W        W48423  31.967  35.367  12.872
78543W        W48424  13.741  17.164  11.951
78544W        W48425  39.865   5.924   3.369
78545W        W48426   7.798  14.763   3.175
78546W        W48427  19.599  23.529   1.234
78547W        W48428  26.553   5.239  14.447
78548W        W48429  37.416   7.267  12.047
78549W        W48430  32.089   1.316  10.913
78550W        W48431   2.732  37.908   2.903
78551W        W48432   2.460  39.534  13.983
78552W        W48433  30.644  27.664   2.715
78553W        W48434  32.038  31.106   1.327
78554W        W48435   6.416  17.652  12.961
78555W        W48436  14.319  43.471   4.306
78556W        W48437  44.407   9.257  13.984
78557W        W48438  16.752  13.671   1.765
78558W        W48439  33.583  40.048  10.982
78559W        W48440   7.795  12.834  10.544
78560W        W48441   0.810  32.057  10.033
78561W        W48442  30.443  15.127  11.115
78562W        W48443  32.391  15.726  13.818
78563W        W48444   3.250   6.410  11.084
78564W        W48445   5.273  10.161  11.026
78565W        W48446  31.442  10.643  10.531
78566W        W48447  41.339   6.845  12.381
78567W        W48448  38.909  20.716  14.380
78568W        W48449  30.993  43.474  14.935
78569W        W48450  38.492  43.980  10.613
78570W        W48451  33.475  38.544  11.539
78571W        W48452  39.050   5.257   0.377
78572W        W48453   7.273  16.779  11.950
78573W        W48454  26.542  33.008  10.906
78574W        W48455   6.319  18.650   0.957
78575W        W48456  24.569  22.008  12.045
78576W        W48457  31.464  42.406  14.387
78577W        W48458   1.290   7.411   2.294
78578W        W48459  22.110  38.956  13.311
78579W        W48460  30.127   3.226   2.195
78580W        W48461   2.440   1.278   2.410
78581W        W48462  42.910  44.337  13.526
78582W        W48463  15.144  16.277  13.443
78583W        W48464  31.013  14.741  13.986
78584W        W48465   8.329  35.976  11.594
78585W        W48466  34.408   1.941  14.319
78586W        W48467  29.096  30.518  12.434
78587W        W48468  41.357  42.994   2.224
78588W        W48469  11.819  37.077  12.574
78589W        W48470  10.329  41.873   2.265
78590W        W48471  27.166  22.742  10.523
78591W        W48472  25.707  21.575   3.223
78592W        W48473   0.742   2.350   4.769
78593W        W48474  15.093  19.162  10.525
78594W        W48475  12.158  40.957  13.952
78595W        W48476  14.745  14.169   2.369
78596W        W48477   6.308   2.437  13.537
78597W        W48478  41.849  29.514   4.625
78598W        W48479  29.639   2.281   4.306
78599W        W48480  24.617   4.710   0.771
78600W        W48481  33.393  29.526  12.026
78601W        W48482  28.674  39.518   0.875
78602W        W48483  10.832  18.073   3.186
78603W        W48484   2.871  40.504  13.055
78604W        W48485  31.956  26.459  10.579
78605W        W48486   5.711   3.303   2.227
78606W        W48487   5.231  29.055  10.468
78607W        W48488   0.777   9.327  13.020
78608W        W48489  10.335  28.473   3.243
78609W        W48490  35.911   5.386   4.233
78610W        W48491   7.391  40.460  13.974
78611W        W48492  28.938  21.634  11.856
78612W        W48493  30.611  44.861   4.713
78613W        W48494  42.501  21.636  13.036
78614W        W48495   1.734  39.958  12.447
78615W        W48496  20.037  11.350  12.344
78616W        W48497   2.428   5.265   0.347
78617W        W48498   2.919  18.648  11.957
78618W        W48499  34.490  41.359   3.671
78619W        W48500  43.809  10.146  11.460
78620W        W48501  34.090  14.266  14.917
78621W        W48502  27.000  18.163   9.931
78622W        W48503  29.145   7.211  14.291
78623W        W48504   0.966  16.278   0.419
78624W        W48505   6.278  28.974   1.725
78625W        W48506  41.493  34.867  13.477
78626W        W48507  32.019  40.921  13.360
78627W        W48508  14.302  13.739   4.737
78628W        W48509   1.922   5.701   3.811
78629W        W48510  32.061   8.710  14.815
78630W        W48511  32.496  12.745   3.281
78631W        W48512  10.754   9.200  10.473
78632W        W48513   0.746  15.795   0.887
78633W        W48514  18.120  36.911  10.922
78634W        W48515   6.304  18.183   4.694
78635W        W48516  35.413  31.432  11.033
78636W        W48517  37.557  28.989  13.381
78637W        W48518  42.320  40.024  14.959
78638W        W48519  20.236  15.100   4.657
78639W        W48520   9.394   8.751  11.426
78640W        W48521   9.287  36.062   0.855
78641W        W48522  13.703   0.415  11.075
78642W        W48523  11.162  30.961   5.116
78643W        W48524  34.602   2.382   4.190
78644W        W48525   6.304  27.025   2.199
78645W        W48526  40.955   9.886   1.310
78646W        W48527   8.162  18.104   2.714
78647W        W48528   8.685  34.441  11.450
78648W        W48529  17.158  40.954  14.870
78649W        W48530  28.115  16.166  10.577
78650W        W48531  33.522  27.600   3.672
78651W        W48532  23.550  19.743  13.430
78652W        W48533  20.551  20.683  11.900
78653W        W48534  40.870  38.920   4.838
78654W        W48535  43.814   5.398  12.438
78655W        W48536   1.921  10.645  11.995
78656W        W48537   2.964  43.981   2.415
78657W        W48538  38.952  23.711   4.171
78658W        W48539   4.881  35.897  13.425
78659W        W48540   9.859   0.426  12.005
78660W        W48541  11.314  22.152   2.212
78661W        W48542   2.780  17.567   2.192
78662W        W48543  36.474  12.857   0.316
78663W        W48544  12.693  31.107   2.379
78664W        W48545  24.018  11.628  14.853
78665W        W48546  29.036  29.998  10.623
78666W        W48547  41.452  37.059  12.923
78667W        W48548   6.902  11.179   1.721
78668W        W48549  13.817  24.030  14.514
78669W        W48550  28.546   8.357  11.409
78670W        W48551  30.140  37.974  14.410
78671W        W48552  27.549  25.115   2.754
78672W        W48553  29.014  39.413  14.433
78673W        W48554  20.716  31.907  14.962
78674W        W48555  23.659   8.851  10.544
78675W        W48556  13.613  23.184   0.267
78676W        W48557  15.605   1.900  14.378
78677W        W48558   5.275   4.738   1.393
78678W        W48559  26.647  30.547  11.024
78679W        W48560   9.678   4.428  11.921
78680W        W48561  30.543  29.650   0.302
78681W        W48562  18.146  32.021   2.189
78682W        W48563   8.337  44.813   1.715
78683W        W48564  35.882  16.136   0.914
78684W        W48565  37.067  40.332   4.830
78685W        W48566  10.817  41.969   1.210
78686W        W48567  18.636   7.403  10.104
78687W        W48568  22.672  24.596   1.704
78688W        W48569  17.608   9.863   3.224
78689W        W48570  14.216   5.405  11.385
78690W        W48571  21.712  31.035   2.342
78691W        W48572  10.765  12.806   0.405
78692W        W48573   0.259  34.586   2.737
78693W        W48574  40.446   0.831  10.567
78694W        W48575  31.003  42.348   2.749
78695W        W48576  15.322  16.623  11.990
78696W        W48577  42.414  35.879   3.229
78697W        W48578  28.493  14.155   2.662
78698W        W48579   7.730   9.850   0.946
78699W        W48580  11.152  43.865   4.168
78700W        W48581  33.934   6.249  11.947
78701W        W48582   5.859   6.421  14.425
78702W        W48583  27.662  28.479  11.377
78703W        W48584  17.248  39.525   1.211
78704W        W48585   8.343  22.706   2.295
78705W        W48586  42.970  41.881   1.445
78706W        W48587  24.198  19.650  14.904
78707W        W48588  21.755   5.340  12.573
78708W        W48589  11.787   9.352   1.931
78709W        W48590  15.277  27.977  11.868
78710W        W48591  38.476  16.103   2.753
78711W        W48592  40.544  27.094   3.695
78712W        W48593  27.579  24.154   2.283
78713W        W48594   3.938   1.386   4.320
78714W        W48595   0.257  10.719  12.013
78715W        W48596  40.481  39.426  12.023
78716W        W48597  43.771   9.678  13.394
78717W        W48598  28.955  10.315   0.304
78718W        W48599   5.696  16.776  12.498
78719W        W48600  24.630  41.013  14.388
78720W        W48601  38.929  18.286   0.726
78721W        W48602  24.114   5.882  14.343
78722W        W48603  38.432  32.450  13.958
78723W        W48604  20.065  20.523  12.454
78724W        W48605  39.005  40.438   3.271
78725W        W48606  15.710  40.512   3.175
78726W        W48607  19.682   0.758   4.277
78727W        W48608   4.749  22.023   0.958
78728W        W48609  40.823  34.463  14.362
78729W        W48610  18.270   5.243  12.340
78730W        W48611  26.543  41.351  11.875
78731W        W48612  42.487  37.963   4.291
78732W        W48613  27.183  44.992   3.268
78733W        W48614  19.165  38.409   2.707
78734W        W48615  31.562  18.757  11.937
78735W        W48616  20.705   5.753   4.671
78736W        W48617  29.922  37.426  13.455
78737W        W48618   5.208   1.806   4.742
78738W        W48619   2.365   5.753   3.828
78739W        W48620  21.693  14.313   0.894
78740W        W48621  41.918  27.177  11.897
78741W        W48622  43.275  39.445  13.940
78742W        W48623   9.374   5.405   0.751
78743W        W48624  27.521  36.933  12.041
78744W        W48625   3.261  42.789  13.537
78745W        W48626  22.103  18.253  13.491
78746W        W48627  37.467  32.526   3.353
78747W        W48628  29.950  27.046   4.298
78748W        W48629  19.593  38.376   2.197
78749W        W48630  31.646  31.448   4.816
78750W        W48631  30.510  25.174  14.445
78751W        W48632  27.030  27.102   1.214
78752W        W48633  33.612  10.236   1.932
78753W        W48634  17.261  28.991  10.991
78754W        W48635  29.083  33.972  11.554
78755W        W48636  16.121  38.393  13.835
78756W        W48637  17.786  21.516  11.072
78757W        W48638  17.797  18.780   0.751
78758W        W48639   0.418   3.240   4.250
78759W        W48640   2.426  21.244  13.393
78760W        W48641  28.003  44.298   3.176
78761W        W48642  43.278   6.191   4.283
78762W        W48643  19.638  36.540   4.809
78763W        W48644   2.291  18.166   0.866
78764W        W48645  12.622   3.748   3.798
78765W        W48646  41.798  12.203  11.506
78766W        W48647   2.442   0.979  11.074
78767W        W48648  17.256  22.138  10.612
78768W        W48649   8.697  21.635   1.373
78769W        W48650  13.326  34.590   3.853
78770W        W48651  22.660   8.361   1.750
78771W        W48652  26.150  14.255   3.857
78772W        W48653  16.802  39.373  12.878
78773W        W48654   0.386  16.636   3.854
78774W        W48655  24.228  28.052   9.949
78775W        W48656  27.452  44.790   4.683
78776W        W48657  17.717   8.276   2.281
78777W        W48658   0.827  35.957   4.271
78778W        W48659  43.415  30.915   2.860
78779W        W48660  13.209   5.208   0.844
78780W        W48661  11.132   5.924   2.302
78781W        W48662  31.416  29.026   1.818
78782W        W48663  13.821  11.822  13.418
78783W        W48664   2.290  23.240  10.894
78784W        W48665   8.316  44.914  12.085
78785W        W48666   0.364   4.337  10.976
78786W        W48667  27.181  44.846  12.510
78787W        W48668  16.237  12.203   2.852
78788W        W48669  17.124   7.279  14.978
78789W        W48670  39.011   7.710   2.370
78790W        W48671  28.074   5.856  11.895
78791W        W48672  35.484  30.003  14.293
78792W        W48673  40.543  29.030  13.434
78793W        W48674   6.743  21.602   1.429
78794W        W48675  21.167  25.713   4.150
78795W        W48676  38.058  42.794   4.354
78796W        W48677   1.458  44.320   4.674
78797W        W48678  30.451  28.978  12.878
78798W        W48679   5.717  17.627   4.770
78799W        W48680  28.531  15.269   4.299
78800W        W48681  26.071  25.514   0.405
78801W        W48682  10.258  15.689   1.272
78802W        W48683  11.858   6.386  10.991
78803W        W48684   7.364  24.114   0.246
78804W        W48685  17.250  27.984   4.707
78805W        W48686  43.945  41.449  14.956
78806W        W48687  37.865  12.152  12.438
78807W        W48688  26.154  15.321  14.906
78808W        W48689  16.174  10.655  11.915
78809W        W48690  40.513  34.906  13.865
78810W        W48691  40.375  38.379   4.191
78811W        W48692  21.608  15.164   1.715
78812W        W48693   8.214  34.962  11.426
78813W        W48694  30.117  34.562  13.015
78814W        W48695   6.275  28.533  13.929
78815W        W48696  16.739  30.040   2.244
78816W        W48697   3.900  14.640   0.438
78817W        W48698   4.883  40.485  14.877
78818W        W48699  41.928  10.197   2.355
78819W        W48700  15.268  20.668  10.996
78820W        W48701  43.421  42.488   2.390
78821W        W48702  27.463   5.777   3.798
78822W        W48703  12.745  19.694  14.286
78823W        W48704  40.449   9.790   3.782
78824W        W48705  20.701  27.972   2.821
78825W        W48706  29.510  30.018   1.851
78826W        W48707  38.036  20.639  13.330
78827W        W48708  39.829  11.172   0.891
78828W        W48709   2.846   2.241  13.839
78829W        W48710  10.846   4.802  11.557
78830W        W48711  33.940  12.257  14.317
78831W        W48712  10.874  36.419   0.730
78832W        W48713   4.327   9.814  11.891
78833W        W48714  42.447  44.374  14.967
78834W        W48715  21.632  27.079   3.870
78835W        W48716  20.251  27.513  12.874
78836W        W48717   0.870   0.913   4.778
78837W        W48718   1.259   9.819   1.826
78838W        W48719  37.437  40.431   4.714
78839W        W48720  21.098  31.566  10.519
78840W        W48721  41.802  36.423   3.694
78841W        W48722   2.766  36.424   4.189
78842W        W48723   1.297  10.676   3.195
78843W        W48724  27.579  25.651   4.222
78844W        W48725  34.104  38.039   4.293
78845W        W48726  28.981   0.315  13.828
78846W        W48727   4.850   1.238   4.264
78847W        W48728  34.992  19.744  14.002
78848W        W48729  21.542  27.688   1.396
78849W        W48730  16.096  26.079  12.026
78850W        W48731  38.419  30.976   4.762
78851W        W48732  29.556  11.811   2.716
78852W        W48733  28.520  20.165  12.027
78853W        W48734  39.473   2.837   4.740
78854W        W48735  14.317  25.592   1.396
78855W        W48736  13.333   6.689   1.903
78856W        W48737  33.986   7.715   2.900
78857W        W48738  16.313  39.008  10.889
78858W        W48739   7.274  29.110   1.398
78859W        W48740  26.170  14.246   4.740
78860W        W48741  31.637  37.950  10.599
78861W        W48742  33.077  20.648   4.331
78862W        W48743   5.213  34.955  10.495
78863W        W48744  31.146  21.718  11.944
78864W        W48745   1.877  36.449  10.952
78865W        W48746   6.366  42.832  12.862
78866W        W48747  29.942   8.263  13.362
78867W        W48748   1.883  38.369   3.156
78868W        W48749   0.302   8.238   1.928
78869W        W48750   4.360  28.509  13.447
78870W        W48751  30.560  39.916  10.980
78871W        W48752  18.152  44.781  10.898
78872W        W48753  17.298  42.284  14.305
78873W        W48754  20.266  27.040   1.336
78874W        W48755  44.889  18.294  11.491
78875W        W48756  26.999  40.034   1.752
78876W        W48757  30.448  42.345   4.732
78877W        W48758   6.907  24.562   3.762
78878W        W48759  35.868  18.719   2.833
78879W        W48760  29.520  35.575  12.031
78880W        W48761  27.603  12.777  10.604
78881W        W48762   1.742  25.071  11.080
78882W        W48763  15.609  44.390   3.193
78883W        W48764  15.218   7.345  14.927
78884W        W48765  23.167  34.465  11.468
78885W        W48766  30.148  25.546  10.975
78886W        W48767   7.830  32.926  13.800
78887W        W48768  28.982  25.051  11.063
78888W        W48769  10.287   4.830   5.122
78889W        W48770  17.080  18.059   1.326
78890W        W48771  43.980   6.728   4.159
78891W        W48772  12.308  22.694   0.426
78892W        W48773  36.030  41.498   1.917
78893W        W48774  12.170  41.042  13.518
78894W        W48775   1.852  29.111   1.243
78895W        W48776  41.429   1.934   3.236
78896W        W48777  23.989  23.056   4.132
78897W        W48778  44.384  42.798  12.568
78898W        W48779   9.389  30.558  12.924
78899W        W48780  12.216  32.928  14.375
78900W        W48781  13.291  19.709   1.389
78901W        W48782   6.742  10.770  12.460
78902W        W48783  12.662  20.716  12.904
78903W        W48784   9.762  13.765  11.496
78904W        W48785  19.081  36.499   1.874
78905W        W48786  11.371  29.969   3.189
78906W        W48787  43.466  42.884   0.381
78907W        W48788   3.308  15.708  13.986
78908W        W48789  25.056  44.351  14.799
78909W        W48790  44.911  24.103   1.336
78910W        W48791  32.890  10.215  11.942
78911W        W48792   7.345  17.168   0.403
78912W        W48793  19.053  33.940   0.881
78913W        W48794  27.946  19.698   3.160
78914W        W48795  25.090  21.251  14.391
78915W        W48796  42.894  28.546  13.445
78916W        W48797  29.513   2.763   1.332
78917W        W48798  35.933   9.889   4.221
78918W        W48799  21.550   4.210  14.787
78919W        W48800   3.277  10.858   4.193
78920W        W48801  35.494  28.548   4.818
78921W        W48802  25.074   6.205  12.340
78922W        W48803  25.190  29.549   3.756
78923W        W48804  40.453  30.468  14.439
78924W        W48805  37.402  11.787   0.953
78925W        W48806   9.644  37.869  12.939
78926W        W48807  26.498  44.797  11.452
78927W        W48808   9.801  28.127  11.969
78928W        W48809  24.218  24.480  11.506
78929W        W48810  23.597  15.719  11.378
78930W        W48811  36.052  42.017   2.768
78931W        W48812   5.800   6.377  13.842
78932W        W48813  43.837  28.985   2.846
78933W        W48814  33.455   2.798  11.998
78934W        W48815  36.031   1.358   5.241
78935W        W48816  26.589   2.316  11.935
78936W        W48817   7.186  40.929   0.953
78937W        W48818  30.155   7.254   2.234
78938W        W48819   4.934   8.855   3.766
78939W        W48820  33.384   9.873  14.977
78940W        W48821   2.880  40.544  10.908
78941W        W48822  35.483  19.767  12.354
78942W        W48823  14.669   0.492  10.105
78943W        W48824  39.045   4.423   1.247
78944W        W48825   0.373  28.620   4.628
78945W        W48826  40.369  25.978  12.899
78946W        W48827   5.789  41.520   3.838
78947W        W48828   9.270  32.544   2.784
78948W        W48829   1.859  21.655   4.626
78949W        W48830  41.943  37.982  14.792
78950W        W48831  32.522   2.447  10.478
78951W        W48832  25.108  43.343  13.017
78952W        W48833  10.183  12.845   1.427
78953W        W48834  44.377  14.691  10.458
78954W        W48835  28.104  20.160   3.379
78955W        W48836  43.460  26.113  11.867
78956W        W48837   5.815  15.183  11.066
78957W        W48838  39.428  42.892  13.793
78958W        W48839  19.190  11.288   4.183
78959W        W48840  35.530   4.313   3.320
78960W        W48841  29.982  20.120  12.423
78961W        W48842  33.421  20.034  14.467
78962W        W48843  37.892  34.615   0.809
78963W        W48844  40.311   7.688   1.425
78964W        W48845  20.242  11.322  13.468
78965W        W48846  14.739  26.963   1.218
78966W        W48847  20.538   1.435  13.312
78967W        W48848  25.680  11.248   3.787
78968W        W48849   3.713  37.970   4.632
78969W        W48850  16.644  43.478  14.314
78970W        W48851  24.086  19.685  13.937
78971W        W48852  21.676  25.206  14.983
78972W        W48853   7.181  43.474   3.257
78973W        W48854  12.291  35.580  13.451
78974W        W48855  17.257  29.121  13.917
78975W        W48856  23.636  16.100   1.270
78976W        W48857  19.708  14.758   0.736
78977W        W48858  12.297   3.452  13.058
78978W        W48859  18.619  10.820   1.352
78979W        W48860  11.195  15.592   0.937
78980W        W48861  32.635  39.521   3.381
78981W        W48862  27.195  41.030   2.241
78982W        W48863  12.757  19.043   0.742
78983W        W48864   0.451   0.427   0.381
78984W        W48865  34.573  36.384   4.810
78985W        W48866   4.876   4.298   3.799
78986W        W48867  42.018  12.637   3.688
78987W        W48868  17.226  18.769   0.430
78988W        W48869  20.146   2.966  11.496
78989W        W48870  38.374  23.655   1.848
78990W        W48871  36.069  21.176   1.422
78991W        W48872  35.569  13.123  13.984
78992W        W48873  29.156  21.258   0.916
78993W        W48874  30.066  38.342   2.862
78994W        W48875  19.042  30.624   1.918
78995W        W48876   4.846  26.544  13.891
78996W        W48877   4.715  15.824   3.713
78997W        W48878  22.034   7.406  13.876
78998W        W48879  11.786  12.771   4.805
78999W        W48880  30.909  33.527   9.953
79000W        W48881  30.475  40.388   1.354
79001W        W48882  37.913  36.497   4.329
79002W        W48883   3.850  16.095  12.519
79003W        W48884  39.052  10.724   0.291
79004W        W48885   9.204  23.673   3.829
79005W        W48886  42.926  41.513   0.735
79006W        W48887  31.593  28.929   4.291
79007W        W48888  18.633  21.045  11.487
79008W        W48889   7.804  33.402  14.021
79009W        W48890   4.940  30.466  13.008
79010W        W48891  30.912  21.614   4.722
79011W        W48892  40.422  38.913   0.324
79012W        W48893  18.671  26.461  10.921
79013W        W48894   0.763  24.507   4.307
79014W        W48895  30.050   3.739  14.904
79015W        W48896   2.290   4.358  14.400
79016W        W48897  28.437   8.675   2.286
79017W        W48898  35.456  33.506  12.032
79018W        W48899   1.970   9.705  10.511
79019W        W48900  23.676  30.038   3.678
79020W        W48901  38.419  38.488   3.306
79021W        W48902  13.167  43.447  10.933
79022W        W48903   7.182  15.105  11.599
79023W        W48904  13.225  36.363   3.822
79024W        W48905  37.484   3.949  11.497
79025W        W48906  43.948  28.992   3.864
79026W        W48907  31.997   9.158   5.104
79027W        W48908  18.673  24.209  11.061
79028W        W48909  41.393  33.978   4.274
79029W        W48910  20.680  16.619  13.936
79030W        W48911   4.214  28.094  10.551
79031W        W48912  28.171  39.490   1.218
79032W        W48913  36.012  28.151  11.005
79033W        W48914  22.509  10.158   4.143
79034W        W48915  24.504  23.517  14.282
79035W        W48916  16.106  12.790   5.167
79036W        W48917  32.084  12.758  11.056
79037W        W48918  15.245   1.310   2.234
79038W        W48919  36.089   9.319   2.762
79039W        W48920  37.367   7.791   4.321
79040W        W48921  24.523  31.610  11.979
79041W        W48922  18.715  40.486  11.126
79042W        W48923  12.293  14.697   0.939
79043W        W48924  28.610   6.734   4.213
79044W        W48925   9.683  10.844  11.064
79045W        W48926   9.685  17.619  11.880
79046W        W48927   0.976  32.393   3.861
79047W        W48928  41.029  44.938   4.610
79048W        W48929  13.178  23.491   2.216
79049W        W48930  31.632  32.465  14.796
79050W        W48931  42.783  35.030   2.229
79051W        W48932  38.397  12.770  12.472
79052W        W48933  43.474  36.521  14.455
79053W        W48934  36.375  32.076   1.820
79054W        W48935  26.490  38.366   3.634
79055W        W48936   4.786  13.181   0.267
79056W        W48937  35.031  24.696  11.379
79057W        W48938  36.856  44.902  13.877
79058W        W48939   1.368   8.381  11.878
79059W        W48940  19.209  32.105  13.942
79060W        W48941  17.741   4.344   1.336
79061W        W48942  14.761  32.013  10.408
79062W        W48943  11.165  26.952  11.021
79063W        W48944  22.134  43.789  14.787
79064W        W48945  27.996  28.522  14.762
79065W        W48946  26.122   2.943   1.759
79066W        W48947  42.032  41.934  12.906
79067W        W48948  26.541  30.631  14.290
79068W        W48949   4.868  35.954  14.819
79069W        W48950  30.155   6.741   4.158
79070W        W48951  16.660  30.961   3.644
79071W        W48952  23.014  31.492   1.870
79072W        W48953   4.811  10.196   1.904
79073W        W48954  44.779  29.141   0.728
79074W        W48955  14.704   8.659   4.343
79075W        W48956  17.722   6.369  12.910
79076W        W48957  29.070  17.638  13.844
79077W        W48958  44.828  24.606   2.209
79078W        W48959  40.916  36.926   4.742
79079W        W48960  25.086  19.198  10.996
79080W        W48961   7.893  20.180   4.207
79081W        W48962  26.149  32.106  13.016
79082W        W48963  38.075  21.540  11.085
79083W        W48964  38.422  18.704   2.875
79084W        W48965  32.030  13.294  12.915
79085W        W48966  37.981  10.247  12.919
79086W        W48967  33.047  31.402   2.841
79087W        W48968   7.310  23.689  11.929
79088W        W48969  41.366  39.044  10.924
79089W        W48970  34.904  28.132  10.050
79090W        W48971   1.432   8.797  12.368
79091W        W48972  44.807  41.887  13.457
79092W        W48973  13.805  26.697  10.504
79093W        W48974  30.445  25.109  13.531
79094W        W48975  13.636  19.182  14.279
79095W        W48976  33.386  23.734   4.717
79096W        W48977  32.979  31.086   1.423
79097W        W48978  42.782  13.105   1.350
79098W        W48979  34.612   0.462  13.352
79099W        W48980  11.834  43.828  12.521
79100W        W48981   8.654   2.827   4.650
79101W        W48982  20.090   1.931   3.666
79102W        W48983  34.026  35.591  14.784
79103W        W48984  35.853  24.071   0.967
79104W        W48985  13.171   2.950   4.644
79105W        W48986  32.118   2.247   2.880
79106W        W48987  18.587  42.483  11.896
79107W        W48988   7.290  18.222  14.858
79108W        W48989   7.874  33.499  12.462
79109W        W48990  42.926  12.834   1.354
79110W        W48991  31.544  42.390  11.540
79111W        W48992  30.493  25.577  11.106
79112W        W48993  29.670  26.077   1.326
79113W        W48994  40.316  26.053   4.725
79114W        W48995  35.393   1.954   4.287
79115W        W48996  35.570  32.895   2.804
79116W        W48997  30.440  27.652   3.342
79117W        W48998  19.118  30.617   5.775
79118W        W48999  10.634  15.112  12.354
79119W        W49000   8.663  26.167   1.809
79120W        W49001  25.209  14.189   0.734
79121W        W49002  12.851  36.554   4.727
79122W        W49003  10.208  10.775   0.462
79123W        W49004  14.808  15.206   1.758
79124W        W49005  12.249  18.163  14.383
79125W        W49006  27.667  30.990  12.435
79126W        W49007  30.029  40.515   3.240
79127W        W49008  40.877  23.590  11.560
79128W        W49009   5.315   3.319   1.814
79129W        W49010   2.472  37.872  12.954
79130W        W49011  27.121  40.440  10.444
79131W        W49012  13.344  36.990   4.187
79132W        W49013   8.302  42.801   1.844
79133W        W49014  34.072  10.739   4.254
79134W        W49015  40.026  24.085   2.850
79135W        W49016  14.708  40.848  13.904
79136W        W49017  27.455  40.950   4.831
79137W        W49018   3.949  17.066  14.450
79138W        W49019  13.702  33.979  14.377
79139W        W49020  22.065  39.006   3.223
79140W        W49021  18.211  26.560  11.880
79141W        W49022   2.270  22.210  10.897
79142W        W49023  31.575   2.939   3.151
79143W        W49024  11.128  39.484   4.241
79144W        W49025   9.800   2.252  12.925
79145W        W49026  15.824  21.511  12.569
79146W        W49027   5.333   2.302   1.711
79147W        W49028  13.288   1.879  14.460
79148W        W49029  25.567  37.833   0.731
79149W        W49030  24.180  40.412   5.118
79150W        W49031  35.853  18.600   2.354
79151W        W49032   1.965  27.502  14.030
79152W        W49033  23.138   7.357   4.628
79153W        W49034  38.961   9.818   1.364
79154W        W49035  43.996  21.738   0.783
79155W        W49036  42.518  22.554  12.890
79156W        W49037  10.772  44.847   1.888
79157W        W49038  43.512  13.130  13.933
79158W        W49039  40.849  44.331  14.300
79159W        W49040  27.122  13.134  13.536
79160W        W49041  28.600  32.459  12.948
79161W        W49042  27.671  36.580  10.461
79162W        W49043  23.718   9.672   0.756
79163W        W49044  17.651  18.098   2.901
79164W        W49045   5.731  19.729  14.030
79165W        W49046   3.262   4.757   2.308
79166W        W49047  12.267  33.571   2.417
79167W        W49048  30.639   8.733   0.262
79168W        W49049   8.785  15.297  14.327
79169W        W49050  11.278  16.273   2.775
79170W        W49051  37.407   9.846  14.458
79171W        W49052  43.980  34.589   2.838
79172W        W49053  42.476  12.298  13.356
79173W        W49054   0.813  19.088   3.760
79174W        W49055   8.746   8.843  11.397
79175W        W49056  11.281  19.608   3.238
79176W        W49057   9.165   9.847  14.438
79177W        W49058  40.016   2.334   4.119
79178W        W49059   6.887  32.089   3.738
79179W        W49060   3.261  34.602   3.681
79180W        W49061  33.933  17.210  12.468
79181W        W49062  10.876  20.740  13.333
79182W        W49063  36.918   8.303   0.256
79183W        W49064  22.620  14.757   3.793
79184W        W49065  21.593  41.376  14.382
79185W        W49066  19.082  14.610  12.842
79186W        W49067  21.571   4.386   2.711
79187W        W49068  37.538  17.602   1.415
79188W        W49069   5.810  34.450   1.709
79189W        W49070  38.985   8.250  11.454
79190W        W49071   0.919  20.098   2.831
79191W        W49072  35.053  10.253  10.924
79192W        W49073  25.104  37.866  13.528
79193W        W49074  12.843   9.754   1.841
79194W        W49075  32.952  42.461  12.860
79195W        W49076  38.452  17.102  14.897
79196W        W49077  20.203  30.598   0.752
79197W        W49078   9.870  35.858   1.357
79198W        W49079  27.453   8.331   2.316
79199W        W49080  16.234  23.121  13.038
79200W        W49081   6.800  28.007  11.463
79201W        W49082  31.449  16.139   3.350
79202W        W49083  18.785  10.383  13.417
79203W        W49084  30.658  23.645  11.373
79204W        W49085  10.296  12.219   3.302
79205W        W49086  44.007  22.653   0.910
79206W        W49087  34.987  13.129   0.839
79207W        W49088  38.371  20.258  11.918
79208W        W49089  27.036  36.918   1.875
79209W        W49090   7.229   3.341   0.262
79210W        W49091  18.233  20.231   2.408
79211W        W49092  15.202  38.924  10.129
79212W        W49093  31.135   4.898   1.403
79213W        W49094  11.841   9.299  13.528
79214W        W49095   8.394  39.990  13.423
79215W        W49096   5.853  29.125  13.410
79216W        W49097   9.805   0.911  10.450
79217W        W49098   2.848  24.675   0.828
79218W        W49099  26.164  21.632   2.267
79219W        W49100  18.623   1.950  12.078
79220W        W49101   4.304  32.903  13.845
79221W        W49102  21.227  19.563  12.535
79222W        W49103  19.106  33.929   4.337
79223W        W49104   7.892  29.999  14.471
79224W        W49105  37.870  20.657  14.358
79225W        W49106  38.338  14.170  11.117
79226W        W49107  11.816   5.330   0.907
79227W        W49108  22.703  19.648   3.276
79228W        W49109   2.879   2.425   0.921
79229W        W49110  43.959   0.479  11.890
79230W        W49111  27.148  13.117   0.863
79231W        W49112  29.129   9.872  14.764
79232W        W49113  13.829  23.123   1.858
79233W        W49114  29.075  29.029   3.263
79234W        W49115  41.472  19.274  13.428
79235W        W49116  33.887  35.020  14.884
79236W        W49117   1.946   5.817  14.460
79237W        W49118  21.051  22.208   4.649
79238W        W49119   3.933   6.713   1.286
79239W        W49120   0.271   6.722  14.762
79240W        W49121  17.095  30.027   2.801
79241W        W49122  27.534  19.129   0.759
79242W        W49123   1.810  15.321   4.177
79243W        W49124  19.053  32.977   2.204
79244W        W49125  22.234  14.270   4.288
79245W        W49126  26.126   1.837  14.852
79246W        W49127  14.270  19.739  10.640
79247W        W49128  10.680  10.240   1.824
79248W        W49129  27.605   2.418  12.862
79249W        W49130  11.715  30.157  11.574
79250W        W49131  30.991   6.355  13.990
79251W        W49132   3.410  19.130  12.978
79252W        W49133  27.082  31.913  12.365
79253W        W49134   2.353   4.249  12.857
79254W        W49135  12.146  22.231   4.262
79255W        W49136  30.474   0.453  13.339
79256W        W49137  17.086  23.603  13.543
79257W        W49138  22.109  36.390   1.886
79258W        W49139  14.181  18.110  11.017
79259W        W49140  40.892   0.758   4.170
79260W        W49141   8.795   0.931  11.402
79261W        W49142  27.041  16.076   2.774
79262W        W49143  23.568  17.153  13.800
79263W        W49144   3.256  35.861   1.887
79264W        W49145   6.810  21.074   1.354
79265W        W49146  22.738  38.393   9.934
79266W        W49147  20.041  18.559  13.332
79267W        W49148  26.020  22.622  11.894
79268W        W49149  38.927  18.097   4.326
79269W        W49150  12.121  28.658  14.775
79270W        W49151  43.824  36.981   2.373
79271W        W49152   9.378  42.850   0.792
79272W        W49153   5.914  39.935  12.893
79273W        W49154  33.477  28.479   0.775
79274W        W49155  32.615   8.300  11.981
79275W        W49156  36.356  26.016  14.316
79276W        W49157  32.407  20.587  10.411
79277W        W49158  29.632  26.699   5.249
79278W        W49159  15.666   5.206   3.722
79279W        W49160   7.397  35.912  12.524
79280W        W49161  14.623  12.631  13.828
79281W        W49162  10.280  36.353  10.576
79282W        W49163  43.784  34.895   3.236
79283W        W49164  41.441   3.241  14.817
79284W        W49165  10.325  11.337   1.397
79285W        W49166  19.109  34.417   1.315
79286W        W49167   2.827  14.644  11.041
79287W        W49168  29.636  27.671   3.372
79288W        W49169  22.219  21.079   3.646
79289W        W49170  17.067  34.074  14.488
79290W        W49171  27.598  17.183   4.712
79291W        W49172   9.707  26.017   2.310
79292W        W49173  17.770  34.867   0.818
79293W        W49174  27.042  14.597   1.308
79294W        W49175   6.854  35.432  13.061
79295W        W49176  20.686   6.390  14.761
79296W        W49177  40.854  27.470   3.782
79297W        W49178  26.533   0.974  14.992
79298W        W49179  20.555  10.657   3.666
79299W        W49180  25.469  27.656  12.515
79300W        W49181   9.149  17.792  13.010
79301W        W49182  29.474  26.469  10.955
79302W        W49183  26.194  21.082  14.806
79303W        W49184  33.981  35.107   1.328
79304W        W49185  38.064  11.663   4.752
79305W        W49186  27.451  24.190   0.394
79306W        W49187   0.300  24.687   3.208
79307W        W49188   9.820   0.452   0.791
79308W        W49189  14.792  36.534   4.322
79309W        W49190  39.524  19.212   3.292
79310W        W49191  37.861   8.276  14.934
79311W        W49192  42.019   0.969  11.997
79312W        W49193  29.084   6.782  10.606
79313W        W49194  31.898   2.847   3.340
79314W        W49195  44.388  39.526  14.428
79315W        W49196  35.421   2.866   0.775
79316W        W49197   9.648  12.267   3.163
79317W        W49198   5.206  41.451  14.440
79318W        W49199  20.175  22.205   3.703
79319W        W49200  26.659  32.009   5.206
79320W        W49201  11.336  27.475  11.462
79321W        W49202  16.153  18.569   2.683
79322W        W49203   0.349  19.262  11.966
79323W        W49204  26.657  36.986  13.368
79324W        W49205  24.657  16.642  12.425
79325W        W49206  38.426   8.834   5.149
79326W        W49207  17.256   9.816   1.874
79327W        W49208   3.894  16.129  12.951
79328W        W49209  13.746  17.590  12.012
79329W        W49210   8.245  34.957  10.520
79330W        W49211   4.364  35.013   4.194
79331W        W49212  32.036  12.213   1.730
79332W        W49213   7.696  20.075   1.278
79333W        W49214  37.370   6.417   4.334
79334W        W49215  35.106   5.245   0.758
79335W        W49216  40.868  25.107   2.670
79336W        W49217  36.561  10.334   9.923
79337W        W49218  42.964  22.067   0.271
79338W        W49219   5.204  39.968   4.695
79339W        W49220  28.451   1.283  14.882
79340W        W49221  26.674  13.119   4.215
79341W        W49222  13.729  25.526   0.328
79342W        W49223  11.254   6.740   2.797
79343W        W49224   1.900   6.350   3.803
79344W        W49225  34.376  17.157  11.918
79345W        W49226  39.321  44.485  13.880
79346W        W49227   3.238  33.481  12.555
79347W        W49228  15.791  20.611  11.567
79348W        W49229   3.824  36.049   4.275
79349W        W49230  39.449   4.428  12.885
79350W        W49231   9.193  37.466   2.311
79351W        W49232  41.475   4.382   4.791
79352W        W49233  17.293   3.820  14.338
79353W        W49234  34.093  38.342  10.509
79354W        W49235  25.176  38.569   1.812
79355W        W49236   9.855  18.110  11.516
79356W        W49237  27.943   0.351  10.103
79357W        W49238   4.906  30.434   0.245
79358W        W49239  23.153  22.695  11.905
79359W        W49240  28.112  36.018   0.432
79360W        W49241  10.751  34.487   0.741
79361W        W49242  27.009  34.085  13.793
79362W        W49243  44.997   0.905  12.888
79363W        W49244  22.163  43.449   0.279
79364W        W49245  41.863  25.020  12.383
79365W        W49246   4.824  20.225   4.126
79366W        W49247  22.675  10.791  14.306
79367W        W49248  25.072  25.217   1.763
79368W        W49249  31.131  23.120   1.790
79369W        W49250   6.846   3.316  13.501
79370W        W49251  19.775  39.889  13.921
79371W        W49252  27.643  26.042   5.779
79372W        W49253  22.086  44.780   4.643
79373W        W49254   5.703  15.231   1.724
79374W        W49255  22.588  12.811   3.164
79375W        W49256   7.818  27.125   4.198
79376W        W49257  13.340   3.894   3.709
79377W        W49258  12.224  36.440  12.897
79378W        W49259  10.776  33.918   0.909
79379W        W49260  33.616  42.821   3.360
79380W        W49261  13.336  30.522   5.113
79381W        W49262  40.031   4.341   3.791
79382W        W49263  39.049  34.418   4.767
79383W        W49264  19.211  23.097  13.884
79384W        W49265   8.777  13.614  11.565
79385W        W49266  28.128  37.389   2.190
79386W        W49267  22.667  26.491  14.827
79387W        W49268   8.828  38.903  12.982
79388W        W49269  28.596  24.150   1.872
79389W        W49270  30.534   1.243  13.344
79390W        W49271  26.565  23.654  10.466
79391W        W49272  24.630  26.483   0.471
79392W        W49273  29.966  41.901  14.447
79393W        W49274  18.170  39.496  11.437
79394W        W49275  37.484  43.400   2.772
79395W        W49276  33.487   5.321  10.897
79396W        W49277  39.050  38.832  11.097
79397W        W49278  20.738  36.062   3.810
79398W        W49279  23.606  18.127  13.876
79399W        W49280  40.819  41.814  11.421
79400W        W49281   6.365  22.731  14.447
79401W        W49282   9.313  39.894  14.502
79402W        W49283  23.187  11.671  11.610
79403W        W49284  27.148  29.160  10.920
79404W        W49285   7.281  19.140  10.511
79405W        W49286   3.333  14.337   0.373
79406W        W49287   3.386  30.067  12.471
79407W        W49288  22.661   0.957   2.706
79408W        W49289  36.977   2.725  10.898
79409W        W49290   1.841  22.202   4.824
79410W        W49291   1.732   4.941  12.575
79411W        W49292  29.427  30.958   0.869
79412W        W49293   9.240  28.065  10.091
79413W        W49294  32.472   1.471   3.757
79414W        W49295  20.602  33.024  14.316
79415W        W49296  23.994  15.653   0.853
79416W        W49297  13.171  24.212  12.085
79417W        W49298  39.409  29.018   4.613
79418W        W49299   6.679  32.449  12.029
79419W        W49300   6.222   0.829  12.024
79420W        W49301   3.300  22.618   4.215
79421W        W49302   6.228  35.049   3.172
79422W        W49303  10.278  30.615  13.873
79423W        W49304   1.328  38.367  11.969
79424W        W49305  33.108  27.012   3.749
79425W        W49306  33.974  37.839  14.983
79426W        W49307  29.015  10.744   4.704
79427W        W49308  26.703  37.337   4.623
79428W        W49309   6.817  28.468   2.280
79429W        W49310  17.797   3.243  14.464
79430W        W49311  11.211  18.581  10.542
79431W        W49312   4.824  17.141  10.438
79432W        W49313  21.209  11.244  14.962
79433W        W49314   2.851  30.046  10.603
79434W        W49315  42.379   3.845  14.943
79435W        W49316  18.271  14.263   2.882
79436W        W49317  24.640   3.822  11.990
79437W        W49318  33.896   7.899   2.240
79438W        W49319  38.071  41.913  11.398
79439W        W49320  26.703  22.659   3.696
79440W        W49321  30.064  43.333  11.861
79441W        W49322  32.429  27.474  11.094
79442W        W49323  24.571  17.183  12.364
79443W        W49324  31.017   0.485  14.942
79444W        W49325  11.718  16.622  14.484
79445W        W49326   3.878  24.567  11.503
79446W        W49327  12.246  26.490  10.984
79447W        W49328  18.784  18.227   2.321
79448W        W49329   8.822   8.839   1.298
79449W        W49330  40.846   4.298   3.175
79450W        W49331  28.978  22.017   0.303
79451W        W49332   7.751  34.518   2.677
79452W        W49333  37.040  22.645  11.955
79453W        W49334  20.602  25.063  10.640
79454W        W49335  18.584  26.671   4.254
79455W        W49336  27.686  26.608  10.610
79456W        W49337  14.132  33.106   3.340
79457W        W49338   3.842  28.951   2.416
79458W        W49339  26.681  24.188  10.542
79459W        W49340  28.163  26.991  10.581
79460W        W49341  43.856  13.729   2.224
79461W        W49342  44.813  17.760   1.794
79462W        W49343  39.321   3.791   3.806
79463W        W49344   9.745  23.998  14.854
79464W        W49345  10.364   6.716   5.322
79465W        W49346   2.399   1.455  14.483
79466W        W49347   6.718  43.310   0.278
79467W        W49348   0.758  41.981  12.853
79468W        W49349   1.267   8.175   0.375
79469W        W49350  13.707  40.549  13.458
79470W        W49351   5.224  41.992   0.890
79471W        W49352  33.457  14.341   0.466
79472W        W49353   3.435  11.372   0.960
79473W        W49354  32.497  42.423   1.232
79474W        W49355  40.321  15.706   3.760
79475W        W49356  27.686  18.704   1.391
79476W        W49357   6.744  27.600  12.082
79477W        W49358  28.527  15.190   0.963
79478W        W49359  29.602   7.835  13.958
79479W        W49360   3.887  17.582   2.901
79480W        W49361   4.802  20.244  10.106
79481W        W49362   9.800  12.848   0.827
79482W        W49363   2.288  21.536   4.321
79483W        W49364   2.841  10.306  14.428
79484W        W49365   7.296  31.529   1.904
79485W        W49366   3.356  12.120   3.221
79486W        W49367  36.402  25.178  12.046
79487W        W49368  20.156  44.918  12.974
79488W        W49369   7.367  22.736   4.303
79489W        W49370  35.028   3.216   3.775
79490W        W49371  38.542  39.463  11.568
79491W        W49372  26.472  24.644  10.486
79492W        W49373  27.527  26.963   5.316
79493W        W49374   4.853   5.324   2.308
79494W        W49375  31.448  21.567  13.999
79495W        W49376  16.279   6.913   0.369
79496W        W49377  43.306   4.212   4.801
79497W        W49378   5.902  15.166  12.552
79498W        W49379   8.878  27.495  12.862
79499W        W49380  10.169  32.913   3.253
79500W        W49381  24.029  31.947   0.308
79501W        W49382  19.604   2.944  10.494
79502W        W49383  11.248  28.941  13.533
79503W        W49384  35.050  32.599  14.340
79504W        W49385  37.965  20.075   0.850
79505W        W49386  26.499  19.691   4.322
79506W        W49387   9.257  44.413  13.854
79507W        W49388  35.514  24.168  12.542
79508W        W49389   8.728  36.079  11.517
79509W        W49390  13.349   1.834   1.829
79510W        W49391  26.951  13.639  11.406
79511W        W49392   2.906  37.519  14.799
79512W        W49393  30.567  12.284   1.909
79513W        W49394  16.575  38.484   1.274
79514W        W49395  20.708  34.107   1.892
79515W        W49396  13.711  17.097   2.878
79516W        W49397  35.909  22.527  14.329
79517W        W49398  35.435  14.249  10.596
79518W        W49399  21.681   1.289   1.822
79519W        W49400   8.376  10.694  10.535
79520W        W49401  38.388  35.890  14.499
79521W        W49402  14.257  15.255   2.335
79522W        W49403  34.928  24.230   0.946
79523W        W49404   6.341  10.190  12.546
79524W        W49405  34.578  22.152   3.718
79525W        W49406  41.868  14.767   2.784
79526W        W49407   3.252   1.335   1.450
79527W        W49408  36.922  20.199   2.790
79528W        W49409  17.592  10.382  14.932
79529W        W49410  27.090  38.933  10.458
79530W        W49411  36.525  41.844   3.817
79531W        W49412  11.829  41.299  14.824
79532W        W49413  29.556  36.074   0.284
79533W        W49414  26.492  11.129   3.655
79534W        W49415   5.415  36.403   4.118
79535W        W49416   2.854  38.533  12.474
79536W        W49417  18.599  14.187  13.390
79537W        W49418  15.134  12.199   2.357
79538W        W49419  16.644  30.556   0.460
79539W        W49420   5.212  13.126   1.935
79540W        W49421  24.058  22.729  13.467
79541W        W49422   9.318  14.167  12.036
79542W        W49423  18.292  12.641  12.835
79543W        W49424  39.417   8.726   0.424
79544W        W49425   9.198  36.576  11.024
79545W        W49426   9.647  30.081   4.828
79546W        W49427  25.541  18.059   0.937
79547W        W49428  14.679  42.862   0.280
79548W        W49429  10.272   9.852   1.292
79549W        W49430   5.327  20.152   0.320
79550W        W49431  30.637   6.384   3.226
79551W        W49432  31.980  41.444  14.441
79552W        W49433  33.971  19.091  13.923
79553W        W49434  32.043  15.635   4.305
79554W        W49435  37.068  11.857  10.577
79555W        W49436  24.041  40.962   4.794
79556W        W49437  16.266  12.750  14.977
79557W        W49438  27.661   9.765   3.694
79558W        W49439   1.266  43.015  10.578
79559W        W49440  28.037  17.106  10.153
79560W        W49441  31.450  25.974  11.390
79561W        W49442  30.574   0.408   2.362
79562W        W49443   1.942  43.310   2.852
79563W        W49444  38.963  10.214  13.984
79564W        W49445  38.871  10.659   4.662
79565W        W49446  37.970  27.974  14.760
79566W        W49447  26.110  10.684   1.284
79567W        W49448   1.785  41.900  12.903
79568W        W49449  11.809  29.492  13.471
79569W        W49450  15.741  17.750  10.943
79570W        W49451  12.193  23.566  11.954
79571W        W49452  10.680  19.136   4.739
79572W        W49453  22.691  31.534  14.898
79573W        W49454  13.252  21.716  13.541
79574W        W49455  27.950  19.686  14.980
79575W        W49456  28.082  17.728   1.918
79576W        W49457   6.773  42.805  13.969
79577W        W49458  30.601  42.497   0.807
79578W        W49459   6.252  10.730   1.428
79579W        W49460  24.659  23.672   1.852
79580W        W49461  34.915  27.971  14.979
79581W        W49462  34.085  25.647   2.239
79582W        W49463  27.140   5.847  14.819
79583W        W49464  16.604  23.632   4.305
79584W        W49465  23.683  30.465  14.500
79585W        W49466  11.184  10.763   0.890
79586W        W49467  40.422  30.052  14.850
79587W        W49468  36.983  23.583  11.937
79588W        W49469  19.641  17.749   4.834
79589W        W49470  44.342   3.412   2.750
79590W        W49471   0.361  19.260   1.342
79591W        W49472  24.014   3.448  12.556
79592W        W49473  40.348   9.307  12.457
79593W        W49474  21.755  37.991   2.357
79594W        W49475  25.964  16.106  14.836
79595W        W49476  24.024  27.624  10.426
79596W        W49477  20.695  43.800  10.067
79597W        W49478  41.509  32.037   2.898
79598W        W49479   5.307  19.677   2.770
79599W        W49480   7.272  41.030   2.266
79600W        W49481  34.971   4.836  10.012
79601W        W49482  30.654   2.826   4.796
79602W        W49483  26.164  18.772  11.089
79603W        W49484  35.915  16.799   1.784
79604W        W49485  32.039  26.092  11.529
79605W        W49486  21.643   2.348   2.379
79606W        W49487  40.373   2.245  11.094
79607W        W49488  14.154  16.220  14.442
79608W        W49489  35.521  16.746   3.822
79609W        W49490   9.754   0.966   2.371
79610W        W49491   8.855  38.415   2.791
79611W        W49492  26.558  35.893   2.728
79612W        W49493  34.404  37.037  12.988
79613W        W49494  12.646  15.747   3.787
79614W        W49495  33.958  13.603   3.736
79615W        W49496   9.764  32.051  12.368
79616W        W49497  19.236  35.556  11.022
79617W        W49498  43.452   2.340   2.386
79618W        W49499   2.726  23.650   3.248
79619W        W49500  15.694   3.279   3.291
79620W        W49501  32.952  32.562   1.409
79621W        W49502   2.369  11.278   1.930
79622W        W49503   9.340  25.162  12.482
79623W        W49504  23.713   9.818   4.663
79624W        W49505  19.704  28.453  10.918
79625W        W49506   8.867  10.166  13.319
79626W        W49507  22.715   1.314   0.811
79627W        W49508  28.064  20.205  13.001
79628W        W49509  35.866  44.871   2.673
79629W        W49510   9.329   4.882   2.890
79630W        W49511   9.788  21.567  11.545
79631W        W49512  35.863  15.740  11.447
79632W        W49513  27.465  29.111   2.272
79633W        W49514  31.413   6.677  14.357
79634W        W49515  37.949  34.047  13.472
79635W        W49516   7.824  28.494   1.332
79636W        W49517  25.989  18.166   3.844
79637W        W49518  43.773  41.534   2.373
79638W        W49519   1.425  17.076  14.940
79639W        W49520  15.317   7.408   2.871
79640W        W49521  28.958  17.248   1.351
79641W        W49522  26.180  22.202  12.918
79642W        W49523  19.747  14.603  11.386
79643W        W49524  39.440  23.151  13.316
79644W        W49525  38.027  44.362  10.518
79645W        W49526  16.662   7.278  12.887
79646W        W49527   5.907   5.934  10.425
79647W        W49528   3.322  21.183  14.964
79648W        W49529  25.492  35.528   2.672
79649W        W49530  25.122   9.153  13.854
79650W        W49531  15.762  26.458   3.868
79651W        W49532  35.524  18.746   4.820
79652W        W49533  44.302  40.040  11.384
79653W        W49534  35.585  42.813   1.822
79654W        W49535  38.882  15.156   1.836
79655W        W49536   8.346  36.894  11.102
79656W        W49537  13.746  20.127  13.410
79657W        W49538  39.448  18.147   0.376
79658W        W49539  11.784  24.042  11.025
79659W        W49540  21.118  11.333  13.859
79660W        W49541  14.832   5.798  11.452
79661W        W49542  18.068  19.262  12.877
79662W        W49543  44.286  21.717   3.383
79663W        W49544  31.937  26.526   4.636
79664W        W49545  18.706  20.118   4.813
79665W        W49546  40.510  17.290  14.290
79666W        W49547  19.154  12.649   1.246
79667W        W49548  33.928  15.698   1.243
79668W        W49549  37.981  30.094   4.240
79669W        W49550  30.530  33.392  10.541
79670W        W49551   3.756  23.043   4.797
79671W        W49552   5.829  39.918  11.960
79672W        W49553   5.725   4.321   0.858
79673W        W49554  14.157   8.703  12.838
79674W        W49555  10.697  27.002  12.354
79675W        W49556  34.041   3.748  11.939
79676W        W49557   3.784  15.819   1.800
79677W        W49558  15.583  14.293  10.461
79678W        W49559  34.062  15.132  13.949
79679W        W49560   7.320   9.804   3.843
79680W        W49561  11.131   1.974  14.762
79681W        W49562   9.162  16.628  11.938
79682W        W49563  12.226  33.912   1.305
79683W        W49564   5.927  25.060   4.782
79684W        W49565  38.007  37.549  11.862
79685W        W49566   8.684   5.729   0.813
79686W        W49567  34.912  14.755   1.803
79687W        W49568   0.432   8.209   2.266
79688W        W49569  28.450  23.993  14.470
79689W        W49570  19.147  21.085  13.411
79690W        W49571   3.232  41.918   0.461
79691W        W49572  29.554  14.809   3.641
79692W        W49573  35.987   7.323  10.897
79693W        W49574   8.668  39.931   4.273
79694W        W49575   3.771  37.529  11.009
79695W        W49576  15.100  31.432  11.563
79696W        W49577  33.575  16.106  11.973
79697W        W49578  41.907  24.497  11.567
79698W        W49579  25.691  19.734   5.274
79699W        W49580  26.161   9.750  14.865
79700W        W49581   6.822  30.984  14.829
79701W        W49582  13.764  43.417   4.348
79702W        W49583  25.994  19.632  13.057
79703W        W49584  39.056  33.501  13.883
79704W        W49585  33.455   0.907   3.332
79705W        W49586  39.946  40.009   1.846
79706W        W49587  20.134  27.171   4.679
79707W        W49588  30.021  20.119  11.961
79708W        W49589  28.484  28.052  13.931
79709W        W49590   5.710   3.764   1.298
79710W        W49591  12.322   8.884   2.373
79711W        W49592  34.542   7.701  12.843
79712W        W49593  40.896  42.394  14.999
79713W        W49594  27.523  18.594  12.854
79714W        W49595  16.727  28.673  11.535
79715W        W49596  15.774  24.479  12.928
79716W        W49597  23.163  36.497   3.859
79717W        W49598  36.453  42.394   0.249
79718W        W49599  13.692   4.239   3.837
79719W        W49600  13.292  39.903   1.815
79720W        W49601  33.507  11.687  14.895
79721W        W49602  41.508  11.130  12.393
79722W        W49603   3.280  33.546  14.026
79723W        W49604   4.404  14.170   1.848
79724W        W49605   6.400  39.531  14.441
79725W        W49606  12.277  13.686   4.830
79726W        W49607   2.245  27.550   0.865
79727W        W49608  33.560   9.197   0.884
79728W        W49609  31.115  25.479   3.229
79729W        W49610  20.656  22.231   4.794
79730W        W49611  32.991  34.048  14.912
79731W        W49612  39.946  22.096   1.441
79732W        W49613   1.319  41.849   0.869
79733W        W49614   7.782  21.516  10.441
79734W        W49615   2.909  19.728  11.526
79735W        W49616  44.390  43.996  13.868
79736W        W49617   3.273  18.703   0.744
79737W        W49618  29.544  20.158  13.485
79738W        W49619  34.447   3.359  13.794
79739W        W49620  27.130  17.136  13.986
79740W        W49621  38.456  17.156   2.730
79741W        W49622  33.485   4.897   4.618
79742W        W49623  13.803  40.533  10.405
79743W        W49624  13.842  21.032   3.828
79744W        W49625  23.730   2.427  12.994
79745W        W49626  14.616  29.025   0.868
79746W        W49627  40.327  40.442  14.871
79747W        W49628   1.357  15.806   2.892
79748W        W49629  34.040  44.878  13.029
79749W        W49630   1.911  21.685  14.841
79750W        W49631   2.251   0.417   0.297
79751W        W49632  27.479  35.542   3.193
79752W        W49633   7.294  39.915   4.658
79753W        W49634  31.104  10.844   4.706
79754W        W49635  38.333  17.303   3.692
79755W        W49636  14.750  33.020   0.776
79756W        W49637  32.925  38.450  12.465
79757W        W49638  18.052  44.906  13.958
79758W        W49639  26.667  36.449   4.261
79759W        W49640   7.340  22.630  14.883
79760W        W49641  23.653  31.457   1.292
79761W        W49642  29.017  21.738   1.394
79762W        W49643  18.637  15.107   4.312
79763W        W49644  29.157  34.402   4.723
79764W        W49645  33.405  26.542  10.159
79765W        W49646   6.834  43.895  10.610
79766W        W49647   7.384  36.382   1.269
79767W        W49648  37.871  43.948  12.385
79768W        W49649  28.132  21.645  13.358
79769W        W49650  22.501  21.189  13.346
79770W        W49651   3.284  31.978   1.813
79771W        W49652  35.913   2.761  13.048
79772W        W49653  19.272  33.099  14.791
79773W        W49654  16.681   1.444  10.599
79774W        W49655  20.147  43.422  14.776
79775W        W49656   3.224  27.480   1.826
79776W        W49657  23.531   9.376   4.608
79777W        W49658  18.600  21.654  13.523
79778W        W49659  12.168   5.348  13.053
79779W        W49660   6.732  34.901   4.167
79780W        W49661  31.146  26.192  12.040
79781W        W49662  37.438  17.801   4.197
79782W        W49663  16.114   0.444   3.743
79783W        W49664  39.966  18.759   0.379
79784W        W49665  33.535  19.104   3.229
79785W        W49666   7.892  20.760  14.509
79786W        W49667  19.214   5.903  13.016
79787W        W49668  20.246  36.357  14.492
79788W        W49669  17.270   2.294  12.851
79789W        W49670  43.485  38.485   2.687
79790W        W49671  18.698  34.045  10.525
79791W        W49672  13.206  39.436  10.110
79792W        W49673  37.000  37.373  10.592
79793W        W49674  16.639  20.249   4.772
79794W        W49675  20.106  40.411  11.957
79795W        W49676   6.216  38.388   0.859
79796W        W49677   3.405  27.020   0.480
79797W        W49678  37.406  33.541   1.389
79798W        W49679  11.864  27.608  12.077
79799W        W49680  18.633  39.849   1.273
79800W        W49681  30.911  19.702  11.548
79801W        W49682  42.395  33.571   3.640
79802W        W49683  14.608   6.398   1.783
79803W        W49684  40.395   5.253  10.922
79804W        W49685  40.940  27.624   4.351
79805W        W49686  37.410  14.819   0.328
79806W        W49687   3.720  10.651   2.828
79807W        W49688  20.574  22.608   3.195
79808W        W49689  29.443  21.184   4.172
79809W        W49690   9.703  12.214  14.479
79810W        W49691  10.143   9.163   3.716
79811W        W49692   9.715  26.638   2.713
79812W        W49693  39.388   7.415  10.957
79813W        W49694  16.316  13.843   0.879
79814W        W49695  15.739  23.490  12.882
79815W        W49696  41.863  17.098   3.307
79816W        W49697  27.575   0.473  11.548
79817W        W49698   5.347  31.559  13.796
79818W        W49699   9.709  33.428   3.319
79819W        W49700   4.841  34.380  10.475
79820W        W49701  35.554  25.626   3.844
79821W        W49702  31.437  13.287  12.078
79822W        W49703  16.715  43.918  13.857
79823W        W49704  11.159  27.471   1.341
79824W        W49705   1.781  41.978  12.532
79825W        W49706  24.681  32.923  13.526
79826W        W49707  13.656   1.914  13.038
79827W        W49708  31.904  22.664  12.040
79828W        W49709   6.744  19.067  13.804
79829W        W49710  40.540  29.532  13.430
79830W        W49711  17.174  44.327   4.214
79831W        W49712  18.583   7.830  10.973
79832W        W49713  12.270  31.414   0.362
79833W        W49714  10.789   0.483   4.786
79834W        W49715   6.697  23.174   4.817
79835W        W49716  20.092  11.190   0.453
79836W        W49717  32.090   5.910   3.679
79837W        W49718  29.464  25.702  14.011
79838W        W49719   7.729  11.288  14.982
79839W        W49720   9.177  20.197  12.960
79840W        W49721  25.976  30.996   4.231
79841W        W49722  42.926  34.516   0.810
79842W        W49723  31.599  17.702  14.885
79843W        W49724  20.243  41.415  11.444
79844W        W49725  26.502  37.921   2.794
79845W        W49726  17.287  25.707  12.560
79846W        W49727   4.837  38.826  13.537
79847W        W49728  24.229  28.549   2.875
79848W        W49729  36.923  44.389  12.506
79849W        W49730   1.415  25.483   4.351
79850W        W49731  22.147  19.562   2.885
79851W        W49732  39.941  33.882   1.722
79852W        W49733  17.620  23.635  12.548
79853W        W49734  33.941   1.323  12.482
79854W        W49735  35.971  30.555  12.413
79855W        W49736  35.029  29.116   3.761
79856W        W49737  44.818   6.836   2.345
79857W        W49738  44.829   0.769   0.873
79858W        W49739   4.789  39.406  13.044
79859W        W49740   5.786  32.526  12.574
79860W        W49741  44.846  21.083   3.367
79861W        W49742  11.847  11.681   4.325
79862W        W49743  31.928  18.759  10.501
79863W        W49744  18.616   8.287   0.311
79864W        W49745  28.577  23.668   1.357
79865W        W49746   1.815  28.150   4.722
79866W        W49747  42.457   9.382  11.478
79867W        W49748  20.064   5.220   0.384
79868W        W49749  39.061  43.952   2.376
79869W        W49750  41.366  23.169  11.572
79870W        W49751  13.174  26.598   1.836
79871W        W49752  11.804  16.305   0.857
79872W        W49753  27.186  11.750   2.255
79873W        W49754  28.993  21.591  14.905
79874W        W49755  13.115   8.331   1.755
79875W        W49756  14.208  44.285  12.945
79876W        W49757  16.302  21.599   2.249
79877W        W49758   7.825  19.607   0.745
79878W        W49759  12.353   5.326   3.346
79879W        W49760  11.325  36.578   1.778
79880W        W49761  11.343   0.940   1.753
79881W        W49762   9.690  42.801   4.252
79882W        W49763  16.204  33.956   1.359
79883W        W49764  17.174  22.630   9.960
79884W        W49765  24.616  21.099   2.276
79885W        W49766   7.217   3.364   3.714
79886W        W49767  33.547  24.980  11.060
79887W        W49768   3.747   9.735   1.328
79888W        W49769  38.072  13.833  14.779
79889W        W49770  44.799  21.738   4.826
79890W        W49771  20.733   6.331   2.849
79891W        W49772  22.585   4.204  12.890
79892W        W49773  44.487  21.198   0.819
79893W        W49774  14.136   5.818  14.818
79894W        W49775   7.241  19.710  10.427
79895W        W49776   1.768  32.554  14.888
79896W        W49777  36.519  41.835  11.917
79897W        W49778  26.080  25.629  13.811
79898W        W49779  40.340  43.361   0.252
79899W        W49780  23.057   1.419   3.310
79900W        W49781  33.965  18.069  14.027
79901W        W49782  38.409  43.396  11.009
79902W        W49783  37.520   0.893  10.513
79903W        W49784   4.216  12.693   3.324
79904W        W49785  23.502  26.198   0.749
79905W        W49786   2.720  22.708   1.815
79906W        W49787  10.831  44.847   0.944
79907W        W49788  20.756  29.640   0.390
79908W        W49789  28.082   1.373   0.272
79909W        W49790  22.232   5.305  11.128
79910W        W49791  36.009  37.887   4.136
79911W        W49792  31.599  32.427   0.474
79912W        W49793  40.354   9.365  13.955
79913W        W49794  44.378   4.359  10.996
79914W        W49795  43.870  37.040  14.483
79915W        W49796  33.588   3.336   3.332
79916W        W49797  31.541  29.985   0.933
79917W        W49798  18.060  11.261  13.020
79918W        W49799  35.025  33.456   1.709
79919W        W49800  29.972  14.218   1.256
79920W        W49801   5.823  25.163   2.872
79921W        W49802  35.862  42.400   3.337
79922W        W49803  40.385  37.572  13.825
79923W        W49804   7.406  41.391   4.315
79924W        W49805  31.014  30.998   1.847
79925W        W49806  27.625  37.383  12.837
79926W        W49807  26.602   0.751   2.680
79927W        W49808  38.335  16.251  14.405
79928W        W49809   3.235  44.445  14.787
79929W        W49810  23.498  22.073   2.702
79930W        W49811  38.372  24.117  11.055
79931W        W49812  30.499  17.617  10.918
79932W        W49813  22.061  43.921  13.378
79933W        W49814  18.787  20.760   3.345
79934W        W49815  31.421  36.996  14.816
79935W        W49816   7.787  13.800  12.007
79936W        W49817  18.159  38.933  10.906
79937W        W49818  13.804  43.514   2.754
79938W        W49819  23.548   4.758   3.769
79939W        W49820   4.824  25.167  11.048
79940W        W49821   0.918  32.609  13.529
79941W        W49822  38.545  10.234  13.419
79942W        W49823  21.095  40.901   3.182
79943W        W49824  12.227  28.548  12.414
79944W        W49825  14.202   9.786   3.745
79945W        W49826  25.195   9.866   1.252
79946W        W49827  13.214  28.123   5.234
79947W        W49828   6.698  14.811  12.870
79948W        W49829  14.711  20.038  12.484
79949W        W49830  42.357  42.431   1.253
79950W        W49831  10.866   8.350  11.608
79951W        W49832  15.101  22.196   0.460
79952W        W49833  40.038   2.410  10.983
79953W        W49834   4.885  11.674  12.494
79954W        W49835   5.738  20.191  14.387
79955W        W49836  27.051  31.029  11.413
79956W        W49837  12.694  18.081   3.179
79957W        W49838  30.923   3.422   2.669
79958W        W49839  18.070  14.331  14.366
79959W        W49840  32.394   4.770  14.290
79960W        W49841  21.618  32.095   0.860
79961W        W49842  19.222  22.617  14.494
79962W        W49843  35.944   0.946  11.531
79963W        W49844   5.202  44.839   0.878
79964W        W49845  12.754  10.184  14.843
79965W        W49846   0.412  18.273  14.318
79966W        W49847  29.061   4.773   4.649
79967W        W49848   5.218   0.823   2.362
79968W        W49849  40.420  38.914   5.254
79969W        W49850  40.012  22.732  11.546
79970W        W49851  12.244  24.652   1.887
79971W        W49852  42.030  35.369  11.433
79972W        W49853  26.111  25.540  12.481
79973W        W49854  42.340  16.074  11.092
79974W        W49855  39.510  10.334  10.643
79975W        W49856   9.352   4.278   1.445
79976W        W49857   4.319   7.366   4.182
79977W        W49858  44.299  22.016  13.023
79978W        W49859   9.798  16.635   0.414
79979W        W49860  36.969  27.093   0.303
79980W        W49861  19.565   2.271   0.932
79981W        W49862   1.770  23.063  10.553
79982W        W49863   5.691  28.669   3.214
79983W        W49864  19.742   5.346  13.346
79984W        W49865   8.760  19.681   3.321
79985W        W49866  43.830  26.493  10.611
79986W        W49867  35.989   9.206   1.922
79987W        W49868  35.070  41.918   4.190
79988W        W49869   7.687  40.399   0.823
79989W        W49870  22.674   1.819  14.507
79990W        W49871  40.895   0.261  12.057
79991W        W49872  32.404   7.713   3.719
79992W        W49873  41.801  37.862  10.889
79993W        W49874  29.922  11.767   4.131
79994W        W49875  24.086  29.490  14.410
79995W        W49876  27.034  26.614  14.316
79996W        W49877  18.102  15.812  14.322
79997W        W49878  37.489  38.514  10.934
79998W        W49879  25.171  30.157  13.988
79999W        W49880  29.969   7.676  12.909
80000W        W49881  29.642  27.093  13.856
80001W        W49882  23.148  16.285   2.846
80002W        W49883  19.646  21.101   1.753
80003W        W49884  37.531  34.433   1.282
80004W        W49885  30.570  19.146   1.698
80005W        W49886  30.022  17.242   1.825
80006W        W49887  21.091  36.921  12.950
80007W        W49888  35.901  18.112   4.723
80008W        W49889  44.853  43.365  14.385
80009W        W49890   0.413  10.171   0.373
80010W        W49891  41.835  35.062   4.815
80011W        W49892  44.447   0.299  12.514
80012W        W49893  30.138   2.966   3.773
80013W        W49894   8.719  36.077   1.329
80014W        W49895  37.378  39.000   4.699
80015W        W49896  25.981  41.959   4.674
80016W        W49897   9.693  16.640  13.433
80017W        W49898   9.251  40.371  13.439
80018W        W49899  30.162  44.899  12.056
80019W        W49900  14.219   8.802   3.305
80020W        W49901  39.340  41.855  10.489
80021W        W49902  39.956  28.936  13.868
80022W        W49903  23.157  39.510   1.897
80023W        W49904   4.700   8.307   3.651
80024W        W49905   6.768  10.818   0.889
80025W        W49906  38.020  19.042  14.014
80026W        W49907  15.275  35.532   1.306
80027W        W49908  19.593  13.671   4.247
80028W        W49909   1.972  23.519  11.587
80029W        W49910  20.045  11.332   2.249
80030W        W49911  36.552  16.313  11.031
80031W        W49912  20.168  31.125   1.389
80032W        W49913  27.156  18.647  12.019
80033W        W49914   8.317   2.797  13.500
80034W        W49915  39.488  39.382  13.898
80035W        W49916   7.354  28.530   1.844
80036W        W49917  16.113  13.837   4.186
80037W        W49918  14.105   9.788  13.017
80038W        W49919  38.460  31.020  14.489
80039W        W49920  13.285  32.415   2.848
80040W        W49921  26.136  11.731   4.184
80041W        W49922  16.714  14.153  12.052
80042W        W49923   1.917   8.174  13.484
80043W        W49924   4.856  29.137   0.956
80044W        W49925  10.795   2.352  11.602
80045W        W49926   7.757   3.834   2.837
80046W        W49927  36.919  14.668   2.318
80047W        W49928  19.641  16.316  13.540
80048W        W49929  11.793  19.284   2.418
80049W        W49930  15.704  24.528   4.207
80050W        W49931   7.770  40.950  12.960
80051W        W49932  29.615  41.815  12.914
80052W        W49933  30.095  36.870   4.150
80053W        W49934  13.105  14.799   4.768
80054W        W49935  32.556  27.558  12.387
80055W        W49936  20.759  36.574  12.527
80056W        W49937   0.897  17.199   1.351
80057W        W49938  29.551  14.599  12.857
80058W        W49939  33.396   8.784   2.861
80059W        W49940  10.866  21.064  12.854
80060W        W49941  20.762  27.169   1.882
80061W        W49942  33.881   4.400  12.505
80062W        W49943  30.082  11.327   2.767
80063W        W49944  39.037  38.470   2.779
80064W        W49945  39.022  12.292   1.431
80065W        W49946   3.773  38.855  13.001
80066W        W49947   6.376   5.315   2.329
80067W        W49948   5.272   1.365   4.197
80068W        W49949  26.590  40.927   1.865
80069W        W49950   7.211   2.852  11.048
80070W        W49951  22.507  35.548  12.988
80071W        W49952  29.547  36.960  14.330
80072W        W49953  24.713  22.160  14.001
80073W        W49954  34.077  28.079  13.426
80074W        W49955  40.847  43.429   4.609
80075W        W49956  34.921  20.199  14.815
80076W        W49957   4.257   5.221  11.587
80077W        W49958  44.862  17.598  13.030
80078W        W49959  32.578  27.565  10.624
80079W        W49960  27.965   5.432   2.668
80080W        W49961  31.999  34.101   1.292
80081W        W49962  27.184  39.438   0.945
80082W        W49963  28.948  10.363  14.488
80083W        W49964   4.844  44.403  12.064
80084W        W49965  23.639  26.024  14.390
80085W        W49966  11.304   5.888   1.803
80086W        W49967   6.713  20.589   2.768
80087W        W49968  27.663  34.395   1.750
80088W        W49969  21.189  15.181   3.866
80089W        W49970   7.894  16.579  11.531
80090W        W49971  28.599   3.723  11.372
80091W        W49972  24.145  13.228  12.925
80092W        W49973  21.038  44.262   1.357
80093W        W49974  22.591  33.121   3.715
80094W        W49975  39.398  27.510  10.957
80095W        W49976   3.237   6.222   3.820
80096W        W49977  23.223  10.308   3.241
80097W        W49978  18.789  31.635  12.418
80098W        W49979   6.807   4.307   2.285
80099W        W49980  32.005  21.679   3.187
80100W        W49981  31.028  32.619   3.696
80101W        W49982   2.889  32.413  10.979
80102W        W49983  40.314   7.697  14.840
80103W        W49984  14.224  36.000  14.867
80104W        W49985   7.388  19.760  11.931
80105W        W49986   1.337  42.018  11.999
80106W        W49987   8.860   3.294  14.501
80107W        W49988   4.822  14.766  13.037
80108W        W49989  13.243  40.013   4.606
80109W        W49990  42.933  39.383   2.366
80110W        W49991  38.919  13.760   1.237
80111W        W49992  11.860  32.426   1.825
80112W        W49993  17.663  43.783   4.123
80113W        W49994  12.853  19.543   1.342
80114W        W49995  40.527  13.637   4.264
80115W        W49996  32.543  14.159  12.829
80116W        W49997  32.887  25.550  14.864
80117W        W49998  42.865  40.328  11.447
80118W        W49999  27.178   4.840   0.820
80119W        W50000  38.360   1.848   2.346
80120W        W50001  38.473  24.696   0.440
80121W        W50002   1.465  27.632  14.945
80122W        W50003  18.551  14.305  13.912
80123W        W50004   6.386  23.589   3.356
80124W        W50005  24.984  18.645  10.467
80125W        W50006  17.157  26.132   2.808
80126W        W50007  24.133   9.753  14.412
80127W        W50008  24.678  39.936   3.309
80128W        W50009  23.109  30.148   1.271
80129W        W50010  20.567  40.011  11.526
80130W        W50011  44.001  30.445  11.939
80131W        W50012  35.876  20.122  14.429
80132W        W50013  26.088  40.346  10.573
80133W        W50014  19.185  27.027  10.447
80134W        W50015  12.784  33.929   1.338
80135W        W50016  30.495   6.210   4.704
80136W        W50017  43.012  11.237  12.916
80137W        W50018  21.086  15.193   0.866
80138W        W50019   6.855  16.156  12.461
80139W        W50020   5.399  36.412   1.436
80140W        W50021   5.276   5.362   0.757
80141W        W50022  44.264  34.956  12.965
80142W        W50023  18.562  17.160   1.816
80143W        W50024   5.342  17.640   4.702
80144W        W50025  44.364  35.978  14.912
80145W        W50026  41.991  30.907   2.863
80146W        W50027  43.854  33.581  11.583
80147W        W50028   7.677  23.595   4.152
80148W        W50029   1.738  44.999   2.197
80149W        W50030  29.641   5.733   5.209
80150W        W50031  27.683  25.036   9.971
80151W        W50032  40.466   4.854  10.430
80152W        W50033  42.495  31.952   2.403
80153W        W50034  11.129  25.627  13.879
80154W        W50035   5.727  15.236  11.602
80155W        W50036  39.866   7.262  13.426
80156W        W50037  34.038  21.205  12.846
80157W        W50038  41.930  31.909  14.848
80158W        W50039  29.451   9.295  11.087
80159W        W50040  29.573   6.311  10.602
80160W        W50041  34.029   3.718   3.850
80161W        W50042  18.706  32.552  11.497
80162W        W50043   6.743  16.201  13.385
80163W        W50044   6.259   3.886  14.997
80164W        W50045   8.866   5.788   2.321
80165W        W50046  30.100  43.992  10.573
80166W        W50047  11.698  39.544  13.413
80167W        W50048  18.154  33.888   2.323
80168W        W50049   3.383  39.528  11.569
80169W        W50050  37.920  25.173   4.180
80170W        W50051  11.166  11.834   3.307
80171W        W50052  44.489  10.868   0.390
80172W        W50053  27.035  30.020  11.486
80173W        W50054  37.833  18.778   4.323
80174W        W50055  28.553  18.258   1.242
80175W        W50056  13.603  21.565  11.887
80176W        W50057  12.130  40.349  10.499
80177W        W50058  34.033  32.409   4.643
80178W        W50059   2.332  35.561   0.330
80179W        W50060  32.920  19.207  13.043
80180W        W50061  39.354  16.574  11.080
80181W        W50062  21.083   1.330  11.031
80182W        W50063  30.450  25.622   3.250
80183W        W50064  35.090  28.178  13.424
80184W        W50065   9.846  41.412   4.813
80185W        W50066  44.277  28.519   3.788
80186W        W50067  15.301  41.443   2.762
80187W        W50068  14.291   0.928   0.291
80188W        W50069  33.460  13.604   1.414
80189W        W50070   0.912  37.525   4.271
80190W        W50071  39.382  39.831   0.770
80191W        W50072  24.526   7.315  12.359
80192W        W50073  26.517  44.313  14.366
80193W        W50074   4.377  15.821  14.829
80194W        W50075  26.491  42.328   0.872
80195W        W50076  37.950  35.446   1.311
80196W        W50077  12.207  32.410   0.417
80197W        W50078  33.579  33.532   1.842
80198W        W50079  30.455   6.887  13.021
80199W        W50080   8.327  41.946  12.574
80200W        W50081  31.129   5.690  12.045
80201W        W50082   2.408  39.990  11.014
80202W        W50083  44.769   3.279   5.090
80203W        W50084  14.119  30.963   1.725
80204W        W50085  18.676  42.032  10.498
80205W        W50086  15.230  12.651   2.744
80206W        W50087  27.484  15.107  14.481
80207W        W50088  31.968  18.548   2.858
80208W        W50089  25.202   0.944  14.767
80209W        W50090  18.720   7.226   4.654
80210W        W50091  17.182  11.244  10.433
80211W        W50092   4.897  41.485   3.632
80212W        W50093  28.113  16.240   0.483
80213W        W50094  37.459  29.938   1.883
80214W        W50095  15.148  30.933   1.722
80215W        W50096  30.141  31.905   2.344
80216W        W50097   2.395  27.146   4.130
80217W        W50098  40.435  41.457  13.883
80218W        W50099  19.533  10.373   2.308
80219W        W50100  41.332   2.375  10.988
80220W        W50101  10.227  19.182  14.305
80221W        W50102  40.976   7.698  10.617
80222W        W50103  13.300  43.461  11.464
80223W        W50104   6.902   9.278   4.773
80224W        W50105   1.398   4.836   3.154
80225W        W50106  32.999  41.937   3.289
80226W        W50107  42.834   3.242   2.693
80227W        W50108  11.300  11.261   1.873
80228W        W50109  23.618   2.947   1.414
80229W        W50110  41.313  41.023   0.781
80230W        W50111   0.437  22.537   1.698
80231W        W50112  25.092   8.320   4.603
80232W        W50113  17.718  14.688  14.480
80233W        W50114  20.092   7.368  12.475
80234W        W50115  39.053  20.157   4.238
80235W        W50116  43.970  29.067   1.838
80236W        W50117  31.137  25.032   9.981
80237W        W50118   3.934  41.989  12.428
80238W        W50119  40.425  23.115  10.978
80239W        W50120  22.631  17.756   2.678
80240W        W50121  44.900  32.565   0.920
80241W        W50122   7.829  27.045  14.392
80242W        W50123  13.224   6.368   3.356
80243W        W50124  29.968   2.874   4.275
80244W        W50125  44.930  44.331  11.016
80245W        W50126  17.593  27.579  12.393
80246W        W50127  10.661   9.775  10.485
80247W        W50128  32.495   1.855  13.982
80248W        W50129   4.854  23.607  10.541
80249W        W50130  37.483  35.409   0.950
80250W        W50131   2.377  36.863  12.007
80251W        W50132  23.715  37.526  14.889
80252W        W50133  12.757  12.166  10.916
80253W        W50134  34.948   9.168  13.458
80254W        W50135  13.697  35.065  14.805
80255W        W50136  26.458   9.677  10.433
80256W        W50137  16.270  28.186   4.326
80257W        W50138  19.561  27.536  14.875
80258W        W50139  22.065  28.999  14.350
80259W        W50140   8.394  40.868   2.760
80260W        W50141  27.668  24.507   1.926
80261W        W50142  34.479   4.816   4.236
80262W        W50143  32.496   8.870   4.118
80263W        W50144   6.344  30.442   3.709
80264W        W50145  36.871  25.173  10.985
80265W        W50146  25.174   1.899   1.863
80266W        W50147  20.626   6.314  12.519
80267W        W50148  20.224  29.076  14.994
80268W        W50149  36.384  31.140  13.957
80269W        W50150  42.363   9.792  13.512
80270W        W50151  21.626  39.513   4.328
80271W        W50152  10.278  33.074   1.724
80272W        W50153  15.189  29.075   1.799
80273W        W50154  31.029  27.051  10.591
80274W        W50155  10.355  42.471   2.314
80275W        W50156   2.752  40.500   3.833
80276W        W50157  23.674  20.549  14.910
80277W        W50158  12.695  24.064  13.829
80278W        W50159  37.502  21.238   1.395
80279W        W50160  25.135  31.491  10.911
80280W        W50161  34.990  21.749   0.443
80281W        W50162  37.833  29.504   3.176
80282W        W50163   7.735  43.859  13.804
80283W        W50164   9.793  43.863   2.893
80284W        W50165   0.287  25.566  14.465
80285W        W50166  20.586  11.287   2.780
80286W        W50167   2.391  13.767  13.480
80287W        W50168  27.471  27.183   9.982
80288W        W50169  44.956  24.016  14.467
80289W        W50170  39.876   1.894   0.757
80290W        W50171  42.949  44.761   3.787
80291W        W50172  19.227  37.454   3.267
80292W        W50173   1.309  40.884   4.294
80293W        W50174   8.781  36.426   3.630
80294W        W50175   6.338   5.228   0.481
80295W        W50176  36.529  27.957  12.872
80296W        W50177  18.161  19.159  14.843
80297W        W50178  24.699   9.667   0.772
80298W        W50179   4.923  33.949  13.477
80299W        W50180  36.092  27.609   2.369
80300W        W50181   3.800  17.097  13.446
80301W        W50182  23.113  20.094  10.946
80302W        W50183  33.526  20.535  11.859
80303W        W50184  11.129  31.427   3.358
80304W        W50185   2.254  15.604  14.505
80305W        W50186   1.802  40.809  12.062
80306W        W50187  16.302  19.066   0.952
80307W        W50188  20.163  26.015   4.667
80308W        W50189  40.845  15.713  13.346
80309W        W50190  43.767  27.059   0.824
80310W        W50191  44.772  21.256   2.718
80311W        W50192  44.982  12.805  13.324
80312W        W50193   2.858  44.753   4.237
80313W        W50194  13.637  11.259   4.298
80314W        W50195  18.262  15.174  14.008
80315W        W50196  24.607   6.778   4.167
80316W        W50197  44.933  30.953   4.196
80317W        W50198  39.530  17.764  12.439
80318W        W50199   0.934  42.439   2.865
80319W        W50200  28.106  31.067  12.050
80320W        W50201  44.831  26.582   2.255
80321W        W50202  23.157  43.333   0.892
80322W        W50203  39.550  34.069  12.487
80323W        W50204   2.325  20.059   1.700
80324W        W50205  15.114  29.986  11.471
80325W        W50206  10.818   1.441  11.883
80326W        W50207  37.901   2.773  14.028
80327W        W50208  40.504  12.825  13.923
80328W        W50209  17.706   7.192  10.549
80329W        W50210  11.185   3.729  11.108
80330W        W50211  27.473   8.774  14.366
80331W        W50212  18.185  42.434   4.728
80332W        W50213  15.603   8.743   3.845
80333W        W50214  25.200  39.047   2.386
80334W        W50215  35.912  34.954   1.311
80335W        W50216  26.542  14.168  13.879
80336W        W50217   8.354  14.676   2.221
80337W        W50218  10.703  39.403  14.380
80338W        W50219   3.852  41.446   0.810
80339W        W50220  25.067  30.498  14.924
80340W        W50221   4.253  26.536  13.937
80341W        W50222  42.483  19.551   2.691
80342W        W50223  25.195   1.777   0.936
80343W        W50224  40.377   0.458   3.149
80344W        W50225  34.096  38.402   0.960
80345W        W50226  41.321  14.133   4.739
80346W        W50227  14.590  36.567  11.049
80347W        W50228  25.208  25.217   4.687
80348W        W50229  34.595  17.115   4.180
80349W        W50230  22.164  29.425  10.991
80350W        W50231  35.560  11.277   4.742
80351W        W50232  38.888   2.902  10.611
80352W        W50233  36.410  25.485   2.744
80353W        W50234  17.204  37.445   5.275
80354W        W50235  17.779  33.469   1.270
80355W        W50236  40.446  16.259  10.473
80356W        W50237  14.097   8.757   0.425
80357W        W50238   9.886  24.024   0.346
80358W        W50239  10.283  27.088   2.372
80359W        W50240  28.460  28.978   3.241
80360W        W50241  15.620  23.007  10.916
80361W        W50242  29.920  44.450   4.258
80362W        W50243  40.312   4.806   2.902
80363W        W50244  28.538  20.666  10.484
80364W        W50245  22.563   3.709   0.843
80365W        W50246   8.172   1.905   2.277
80366W        W50247  32.608  42.437   3.868
80367W        W50248  14.252  39.478  12.351
80368W        W50249   3.244  35.540  11.015
80369W        W50250   0.319  12.234   2.252
80370W        W50251  40.916  32.954   1.413
80371W        W50252  41.399   1.443   1.447
80372W        W50253  19.564  40.309   4.765
80373W        W50254  32.968  29.447  12.074
80374W        W50255  24.096  17.714  12.018
80375W        W50256  41.037  14.620   1.790
80376W        W50257   9.720   4.735  12.376
80377W        W50258  17.701  17.156   0.926
80378W        W50259   2.242   1.858  14.829
80379W        W50260  13.696   0.418  12.881
80380W        W50261  18.090   4.414  10.522
80381W        W50262  24.121  36.895   1.921
80382W        W50263  40.941  34.033   4.790
80383W        W50264  40.006  22.164   1.739
80384W        W50265  17.159  41.473  12.406
80385W        W50266   6.299  36.048   4.707
80386W        W50267   9.749  22.548  12.999
80387W        W50268  33.041   3.752   4.227
80388W        W50269  36.451   8.311  14.773
80389W        W50270  19.764  25.180  13.952
80390W        W50271  39.446  27.614   1.431
80391W        W50272  25.065  40.839   1.296
80392W        W50273  35.924  18.605  12.966
80393W        W50274   3.256  24.149   2.712
80394W        W50275  26.527  25.214   5.170
80395W        W50276   2.332  21.109  12.557
80396W        W50277  19.139  33.563  11.978
80397W        W50278  35.565  27.027  14.996
80398W        W50279  39.060  33.489   1.237
80399W        W50280  15.684  38.956   4.136
80400W        W50281  40.388  43.403  13.463
80401W        W50282  42.332  30.103  11.936
80402W        W50283  42.018   7.192  13.019
80403W        W50284  19.724  15.285  10.603
80404W        W50285   9.718  22.708  12.395
80405W        W50286  41.898   4.826   0.445
80406W        W50287  38.018   4.241   1.242
80407W        W50288  26.649  29.971  12.944
80408W        W50289  18.142  43.493  12.559
80409W        W50290  37.376  34.943  13.359
80410W        W50291  11.276  27.469   1.869
80411W        W50292  27.143  32.109  12.961
80412W        W50293  37.424  16.765  14.310
80413W        W50294   2.366  34.902  12.075
80414W        W50295  29.135  31.428   4.333
80415W        W50296  12.297  18.206   0.385
80416W        W50297  33.564  41.506   0.472
80417W        W50298  38.432  30.914  13.884
80418W        W50299  41.833   4.826  10.538
80419W        W50300  28.976   3.752  13.816
80420W        W50301  30.957  37.369   3.250
80421W        W50302  25.563   9.824  10.497
80422W        W50303  37.401  17.795  14.347
80423W        W50304  24.077  33.480  13.350
80424W        W50305   9.851  32.457   3.678
80425W        W50306   3.459  33.620   5.303
80426W        W50307  32.539  32.632  11.064
80427W        W50308  10.183  29.172  14.490
80428W        W50309  20.687  11.655  13.331
80429W        W50310   2.301  17.714  13.365
80430W        W50311  23.997  18.754   3.219
80431W        W50312  10.789  32.579   1.312
80432W        W50313  15.311  11.628   0.374
80433W        W50314  12.657  41.520   2.213
80434W        W50315  25.016  32.081   4.682
80435W        W50316  26.659  24.708   0.889
80436W        W50317  28.674   0.253  11.434
80437W        W50318  41.856  23.730   3.786
80438W        W50319  31.483  21.085   1.769
80439W        W50320  20.632  28.437   2.409
80440W        W50321  11.809  37.498   5.081
80441W        W50322  37.378  16.167  12.903
80442W        W50323  18.652  25.523   3.718
80443W        W50324  40.844  29.993  14.952
80444W        W50325   5.300  31.055   4.205
80445W        W50326   0.910   3.266   0.950
80446W        W50327  10.314  41.843   4.243
80447W        W50328   4.377  17.681   3.816
80448W        W50329   7.319  28.522  11.876
80449W        W50330  30.478  26.014   4.803
80450W        W50331   3.429  14.189   2.205
80451W        W50332  23.732  43.412   2.711
80452W        W50333  19.264  31.094   0.955
80453W        W50334  27.147  17.641   3.664
80454W        W50335  19.198  38.335  11.042
80455W        W50336   4.301  39.364  11.582
80456W        W50337  29.628  23.162  14.406
80457W        W50338   6.722  29.987   1.298
80458W        W50339  42.877  20.186  11.403
80459W        W50340  22.039  20.698  10.922
80460W        W50341  32.040  12.662   4.819
80461W        W50342  43.371  11.323  14.844
80462W        W50343  29.059  31.137  14.440
80463W        W50344  44.322   8.778  14.759
80464W        W50345   2.881  29.122  13.834
80465W        W50346  32.545  38.369   1.279
80466W        W50347   6.757   5.750  14.934
80467W        W50348  22.044   2.273   4.219
80468W        W50349  37.400  31.079   2.812
80469W        W50350  11.855  39.975   3.276
80470W        W50351  19.196  41.435  11.088
80471W        W50352   4.415  11.855   2.343
80472W        W50353  17.086  32.472   0.255
80473W        W50354  23.133   8.213  10.619
80474W        W50355   3.264  29.613  12.889
80475W        W50356  21.686  38.991   0.294
80476W        W50357  10.642  18.201   4.792
80477W        W50358  39.336   0.428   1.437
80478W        W50359  40.878  19.553  13.874
80479W        W50360   4.241   8.704  13.936
80480W        W50361  22.674  41.298   0.342
80481W        W50362  19.768  29.605  13.060
80482W        W50363   8.299  29.488   1.911
80483W        W50364  26.534  19.147   2.387
80484W        W50365   5.816   0.866   1.434
80485W        W50366  18.178   4.211  14.460
80486W        W50367  12.275  13.633   0.891
80487W        W50368  42.825  26.610   0.868
80488W        W50369  22.231  18.647   5.253
80489W        W50370   1.832  15.107   2.728
80490W        W50371  26.989  23.578  10.630
80491W        W50372  32.471  40.944   3.339
80492W        W50373   2.724  42.839  12.895
80493W        W50374  44.911   6.221  14.860
80494W        W50375  32.057  34.895  11.016
80495W        W50376  34.453  43.469   4.122
80496W        W50377  33.626  18.727   0.298
80497W        W50378  21.148  20.214   2.736
80498W        W50379  22.580   9.389   3.284
80499W        W50380   5.347   5.379  10.982
80500W        W50381  41.379  22.743   4.832
80501W        W50382   4.397  25.078   5.306
80502W        W50383  25.110   0.917  10.894
80503W        W50384  16.290  16.783  12.961
80504W        W50385  33.570  34.057  11.464
80505W        W50386  35.088   3.765   1.844
80506W        W50387  39.435  41.982  11.423
80507W        W50388   1.865  15.747  14.283
80508W        W50389  12.813   4.742  14.315
80509W        W50390   0.978   5.829   4.624
80510W        W50391  11.671   9.774   3.204
80511W        W50392  17.264  23.172  12.007
80512W        W50393  32.934  30.959   2.288
80513W        W50394  12.818   0.800   2.726
80514W        W50395  12.285  33.597  11.411
80515W        W50396   1.409   5.277  11.101
80516W        W50397  35.524  12.806   4.292
80517W        W50398   1.744  37.369   4.129
80518W        W50399  25.191  17.086   1.384
80519W        W50400  11.366  16.190   2.375
80520W        W50401   1.476  35.561  14.482
80521W        W50402  41.319  16.129   4.142
80522W        W50403  20.610  19.680  11.930
80523W        W50404  14.740   8.673  14.349
80524W        W50405   2.389  11.686  10.113
80525W        W50406  17.111   8.366   3.350
80526W        W50407   9.156  11.213  14.276
80527W        W50408  24.627  35.394  14.390
80528W        W50409  19.643   1.360   2.694
80529W        W50410  42.859  18.694   2.849
80530W        W50411   4.740  13.758  10.604
80531W        W50412  37.017  14.178   1.890
80532W        W50413  44.296   3.946  14.997
80533W        W50414  19.266  31.545  11.374
80534W        W50415  36.022   3.218  12.445
80535W        W50416  27.115  27.165  12.899
80536W        W50417   0.251  35.958   3.319
80537W        W50418  35.911  44.439  13.043
80538W        W50419  29.938  23.673   2.832
80539W        W50420  26.137  18.754  13.046
80540W        W50421  25.607   7.748  11.387
80541W        W50422  37.976  36.090   4.677
80542W        W50423  13.172  30.112   5.291
80543W        W50424  12.198  36.529  13.879
80544W        W50425  14.610  40.937   1.738
80545W        W50426  42.910  13.156   3.291
80546W        W50427  24.189  17.188   9.508
80547W        W50428  35.397  41.836   4.700
80548W        W50429   9.310   4.340   2.688
80549W        W50430  33.037   0.833  14.364
80550W        W50431  16.194  28.486   2.773
80551W        W50432  18.094  12.763  10.404
80552W        W50433   3.401  37.959   1.334
80553W        W50434  42.815  23.701  13.335
80554W        W50435  27.034  14.735  14.856
80555W        W50436   8.250   1.474   4.353
80556W        W50437  28.997  18.559   0.727
80557W        W50438  12.754  13.182  14.357
80558W        W50439  33.981  28.596  13.901
80559W        W50440   3.348   6.770  12.491
80560W        W50441  15.593  36.538   0.813
80561W        W50442  14.143   3.752   0.843
80562W        W50443  37.575  20.270  14.918
80563W        W50444   7.912  17.697   4.817
80564W        W50445  29.927  29.121  12.556
80565W        W50446  25.580  28.529   2.367
80566W        W50447  13.142  40.029   2.799
80567W        W50448   6.908  37.416   2.379
80568W        W50449  22.012   1.284  14.367
80569W        W50450   5.755  13.200   2.746
80570W        W50451  37.412  12.152  12.992
80571W        W50452  44.302  22.214  13.472
80572W        W50453  24.167  15.693   4.688
80573W        W50454  32.530  30.108   4.232
80574W        W50455   7.355  38.324  14.965
80575W        W50456  40.338  24.172  13.436
80576W        W50457  29.666   9.876  11.007
80577W        W50458  22.068  23.010  11.111
80578W        W50459  17.562  24.180  11.511
80579W        W50460  20.090  37.913  11.932
80580W        W50461  44.970  12.645   2.830
80581W        W50462   1.339  34.007  13.409
80582W        W50463  19.721  42.961  12.059
80583W        W50464  36.532  39.447  11.867
80584W        W50465  18.270  23.660   3.745
80585W        W50466  21.127  16.261   4.833
80586W        W50467  30.967   8.217   5.126
80587W        W50468  43.506  34.575  10.928
80588W        W50469  12.739  32.004   3.161
80589W        W50470  34.471  15.258   1.277
80590W        W50471   2.929  17.736  12.920
80591W        W50472  31.127  24.193  11.940
80592W        W50473  16.258  17.684  12.059
80593W        W50474  25.470  28.136   3.698
80594W        W50475  44.936   4.720   2.681
80595W        W50476   1.310  23.002  12.352
80596W        W50477  16.303  27.480  14.326
80597W        W50478  21.527  34.069  11.913
80598W        W50479  36.589  31.047  13.462
80599W        W50480  23.636   1.876   1.712
80600W        W50481  30.161  33.594  13.500
80601W        W50482   9.670  37.998  13.547
80602W        W50483   9.149  26.509   1.226
80603W        W50484  17.282  32.964   3.817
80604W        W50485  16.305  22.176   3.845
80605W        W50486  12.831  18.694  14.502
80606W        W50487   6.392  38.895  11.113
80607W        W50488  36.436  24.058   0.430
80608W        W50489  38.518  10.325  12.839
80609W        W50490  33.466  41.869   3.733
80610W        W50491  41.454   1.778  12.078
80611W        W50492  35.974  10.854   3.804
80612W        W50493  40.523  18.726   4.170
80613W        W50494  44.940  30.425  14.967
80614W        W50495  33.380   6.221  10.592
80615W        W50496  37.455  25.706  14.765
80616W        W50497  39.053  12.745  12.469
80617W        W50498  37.864   6.418  11.976
80618W        W50499   0.837  28.097   1.928
80619W        W50500  43.812  21.163  13.516
80620W        W50501  21.584  14.710   3.275
80621W        W50502  35.998  30.118  12.035
80622W        W50503  23.624  19.677   4.603
80623W        W50504  39.904  32.473  12.865
80624W        W50505  18.285  17.173   4.702
80625W        W50506  22.234  38.569   3.838
80626W        W50507  19.221  20.713   3.630
80627W        W50508  35.909  15.821   2.772
80628W        W50509  33.553  11.657  14.333
80629W        W50510  21.243  19.225   5.137
80630W        W50511  36.353  41.342   0.283
80631W        W50512  43.324  21.259   0.823
80632W        W50513  16.649  15.099  10.640
80633W        W50514  25.964   0.795  13.906
80634W        W50515   7.718  20.553  11.566
80635W        W50516  35.074   1.433   1.328
80636W        W50517  25.537  21.162   2.296
80637W        W50518  13.213  43.849  11.508
80638W        W50519  12.130  27.577  14.924
80639W        W50520  13.138   1.261  14.957
80640W        W50521   8.249  14.828  11.416
80641W        W50522  34.496  30.572  11.572
80642W        W50523   5.222  10.699  11.959
80643W        W50524  27.481   2.862  13.394
80644W        W50525   3.364  20.215   1.761
80645W        W50526  31.144  29.617  14.787
80646W        W50527  34.443  38.434   2.262
80647W        W50528   4.867  26.104  12.867
80648W        W50529   2.859   1.795  11.110
80649W        W50530  29.158  23.171  13.354
80650W        W50531  14.244  34.023  14.411
80651W        W50532  32.546  42.813   1.767
80652W        W50533  39.836  14.123   4.706
80653W        W50534  43.397   7.183   2.758
80654W        W50535  28.515  21.599   0.840
80655W        W50536  10.160  30.130  14.484
80656W        W50537  39.986   5.409  14.905
80657W        W50538  39.409  44.461  11.927
80658W        W50539  16.109   7.882   0.350
80659W        W50540  25.083  22.637  13.998
80660W        W50541  40.479  31.423   2.234
80661W        W50542  17.632  25.560   3.296
80662W        W50543  37.346   5.889   0.342
80663W        W50544  16.282  36.996  11.962
80664W        W50545  41.404  14.714  14.948
80665W        W50546  37.016  29.572   1.317
80666W        W50547  10.742  20.112  12.008
80667W        W50548  37.908  21.686   3.658
80668W        W50549  13.635  43.478   3.180
80669W        W50550  27.450   0.281   2.243
80670W        W50551   7.387  37.053   0.412
80671W        W50552   9.766   5.913  12.508
80672W        W50553  18.160  33.393  13.481
80673W        W50554  22.177  17.180  10.429
80674W        W50555  27.083   2.293   2.692
80675W        W50556  37.540  19.088   4.193
80676W        W50557  10.311  28.948  13.043
80677W        W50558  31.114   8.347   0.399
80678W        W50559  21.616  22.147   2.847
80679W        W50560  11.197   7.729   4.199
80680W        W50561  12.172  16.663   0.340
80681W        W50562  22.243  40.399   0.851
80682W        W50563  23.171  32.524   4.781
80683W        W50564  42.395  11.137   1.286
80684W        W50565  20.036  22.169   2.181
80685W        W50566  21.040  38.407   5.128
80686W        W50567  34.927  24.001   1.437
80687W        W50568  22.246  29.024  12.015
80688W        W50569  38.460  22.246  10.592
80689W        W50570  39.827  42.310   1.758
80690W        W50571  11.269  31.516  11.073
80691W        W50572  12.283   5.730   3.358
80692W        W50573   8.328  30.925   1.319
80693W        W50574  41.953   4.309  10.972
80694W        W50575  17.229  39.941   1.760
80695W        W50576  38.471  13.158   4.163
80696W        W50577  38.827   0.416  10.123
80697W        W50578  41.862   1.742   4.659
80698W        W50579   3.954  39.528  12.984
80699W        W50580  20.731  22.079   1.242
80700W        W50581  28.527  39.877   3.257
80701W        W50582  23.984   1.415  12.912
80702W        W50583  19.042  32.953   0.421
80703W        W50584  21.656   0.260  13.907
80704W        W50585  25.178   7.387   4.762
80705W        W50586  31.471  41.402   3.851
80706W        W50587   9.210  19.718  10.144
80707W        W50588   8.178  23.126  14.898
80708W        W50589  18.668   5.753  14.855
80709W        W50590  20.093  15.226   2.668
80710W        W50591  11.134  22.213   0.923
80711W        W50592  20.142  22.135  14.980
80712W        W50593  12.270  15.800   2.324
80713W        W50594  22.733  38.900  13.945
80714W        W50595  34.998  43.765   1.696
80715W        W50596  30.098  12.840   0.292
80716W        W50597   7.779  35.986  14.833
80717W        W50598  24.994   7.705   0.832
80718W        W50599  35.513   2.906  12.487
80719W        W50600  28.099   0.461   0.463
80720W        W50601  44.758   8.230  14.353
80721W        W50602  27.960  27.014   5.292
80722W        W50603  28.580   1.916   2.785
80723W        W50604  25.519  31.980  12.905
80724W        W50605  43.886  43.469  11.027
80725W        W50606  19.264  36.994  13.404
80726W        W50607  44.845   2.411  12.924
80727W        W50608  31.036  10.777   2.868
80728W        W50609  26.481   7.836   4.261
80729W        W50610  23.678  27.136  11.401
80730W        W50611  31.425  35.380   2.694
80731W        W50612  14.823  24.050   1.865
80732W        W50613  39.980   9.776   3.711
80733W        W50614   6.767  29.609  13.442
80734W        W50615  10.710   6.727   3.717
80735W        W50616  15.137   3.345   0.832
80736W        W50617  32.933  28.010  13.835
80737W        W50618  32.438  14.639  14.829
80738W        W50619  17.170   4.205  10.574
80739W        W50620   7.805   8.330  12.080
80740W        W50621  44.839  44.899   1.728
80741W        W50622   5.723   7.704   4.771
80742W        W50623  14.312  17.767   3.222
80743W        W50624   0.351  22.224   0.886
80744W        W50625  27.457  41.465   3.382
80745W        W50626  43.923  42.354  13.013
80746W        W50627  14.216  21.232   5.125
80747W        W50628   1.308  13.231  11.447
80748W        W50629  20.245   6.913  13.898
80749W        W50630  14.251  34.461  11.543
80750W        W50631  20.765  43.934   1.897
80751W        W50632  15.773  32.559   2.766
80752W        W50633  26.187  15.724   0.772
80753W        W50634  29.041  16.197   0.861
80754W        W50635  37.073  35.905  10.913
80755W        W50636  40.850  25.014  11.463
80756W        W50637   6.689  33.462   1.844
80757W        W50638  42.414  27.528  13.858
80758W        W50639  27.680  13.232  14.431
80759W        W50640  33.000  13.250   1.276
80760W        W50641  33.905  36.460   4.821
80761W        W50642  36.351   3.416  14.939
80762W        W50643  37.430  10.270  11.934
80763W        W50644  24.613  11.349   0.450
80764W        W50645  40.980   6.200   4.145
80765W        W50646  11.816  17.208  11.457
80766W        W50647  32.404  42.788   2.686
80767W        W50648  34.608  39.846  12.913
80768W        W50649  37.956   5.370   1.315
80769W        W50650  14.159   2.733   2.200
80770W        W50651   3.249   1.365  12.937
80771W        W50652  40.318  29.060  12.438
80772W        W50653  22.746  24.141  13.484
80773W        W50654  36.911  36.456  13.050
80774W        W50655   3.319  27.629   4.269
80775W        W50656   9.742   2.442   1.844
80776W        W50657  24.157  44.315   5.306
80777W        W50658  19.186  31.997   2.767
80778W        W50659  38.877  22.248   9.956
80779W        W50660  28.443   6.721  13.444
80780W        W50661  33.498  38.354   1.851
80781W        W50662  16.082  35.405   0.765
80782W        W50663   9.786  17.593   0.363
80783W        W50664  22.222  16.294   0.472
80784W        W50665  18.584  35.516  11.977
80785W        W50666  13.192   4.219  12.444
80786W        W50667  21.192  24.618   4.631
80787W        W50668   1.417  20.257   1.361
80788W        W50669  31.921  22.076  14.506
80789W        W50670   8.311  30.125  13.791
80790W        W50671  27.650  20.768   1.741
80791W        W50672  38.434   8.842  12.896
80792W        W50673   8.238  27.572   2.844
80793W        W50674   4.824  37.835  11.117
80794W        W50675   7.277  32.068   3.658
80795W        W50676  41.464  40.518  14.858
80796W        W50677  32.019  32.575   5.267
80797W        W50678  32.108  13.195   2.781
80798W        W50679   3.327  36.996   3.738
80799W        W50680  22.161  36.488   0.341
80800W        W50681  20.160  40.528   4.743
80801W        W50682  12.835  25.973   3.224
80802W        W50683  12.821  31.616   3.265
80803W        W50684  36.087  30.446  11.072
80804W        W50685  26.652  27.512   0.449
80805W        W50686  26.171  41.349   0.842
80806W        W50687   3.247  17.130   2.669
80807W        W50688  31.612  40.988   2.862
80808W        W50689  28.128  28.598  11.512
80809W        W50690  32.515  15.740   3.837
80810W        W50691  43.991  18.680   2.872
80811W        W50692  10.370  15.614   3.769
80812W        W50693  15.097  37.421  14.427
80813W        W50694  13.650   2.830   1.310
80814W        W50695   7.287  26.686   4.674
80815W        W50696  12.616   5.808  11.399
80816W        W50697  38.897  24.126   1.358
80817W        W50698  24.619  21.564  14.930
80818W        W50699  15.239  12.650  10.612
80819W        W50700  42.464   2.428  11.881
80820W        W50701  35.009   4.714   5.128
80821W        W50702  39.417   6.255   0.740
80822W        W50703  39.482  35.087   3.331
80823W        W50704  32.011  16.090  10.575
80824W        W50705  12.129  10.654  12.916
80825W        W50706  33.015  31.424   1.240
80826W        W50707  42.442  35.365  11.411
80827W        W50708   9.350  14.292   3.292
80828W        W50709  40.922  27.016   2.820
80829W        W50710  16.254  28.054  10.000
80830W        W50711  28.015   7.771  13.990
80831W        W50712  25.184  26.594   1.402
80832W        W50713  38.505  17.683   2.843
80833W        W50714  19.071   9.255  14.016
80834W        W50715  20.171  36.066  10.593
80835W        W50716   6.262  39.488  12.903
80836W        W50717  38.063  14.214  14.959
80837W        W50718  22.205   1.919  11.374
80838W        W50719  41.968  35.414   0.408
80839W        W50720  34.894  22.133  13.010
80840W        W50721  21.048   0.953  13.048
80841W        W50722  43.370  31.628  14.281
80842W        W50723  13.603  18.284   2.795
80843W        W50724  12.130  17.101  14.500
80844W        W50725   6.723  17.775  11.090
80845W        W50726   5.837  41.469  12.480
80846W        W50727  21.567   5.275  13.330
80847W        W50728  39.019   5.725   3.643
80848W        W50729  15.655  31.623  14.942
80849W        W50730  18.181  41.461  11.564
80850W        W50731  20.552  22.678   0.819
80851W        W50732  20.125  33.435   0.308
80852W        W50733  23.137   5.713   2.797
80853W        W50734  27.062  22.147  10.590
80854W        W50735   4.751  20.242  12.560
80855W        W50736   5.784  42.868  13.046
80856W        W50737  19.054   4.885   2.379
80857W        W50738  13.610  26.040   2.883
80858W        W50739  44.788  38.337   0.290
80859W        W50740  37.483  21.626   3.810
80860W        W50741  30.527  21.623   3.258
80861W        W50742  29.085  40.417   0.734
80862W        W50743   2.796  26.598   0.789
80863W        W50744  41.520  12.279  12.490
80864W        W50745  36.874  43.500   3.256
80865W        W50746  27.484  18.609  10.989
80866W        W50747  32.972  19.575   3.373
80867W        W50748  35.377  41.303  14.921
80868W        W50749  43.003  29.519   1.447
80869W        W50750  14.690  19.283  10.487
80870W        W50751  38.550  23.571  10.487
80871W        W50752  28.104  30.024  12.839
80872W        W50753  39.927  12.646   4.211
80873W        W50754  15.092  10.275   0.861
80874W        W50755  31.565   1.846   1.891
80875W        W50756  19.105  17.125  13.916
80876W        W50757  28.935   9.674  10.446
80877W        W50758   7.342  12.655   3.798
80878W        W50759  31.126  44.895  10.906
80879W        W50760  31.148  34.081   0.350
80880W        W50761  30.025  28.021  13.458
80881W        W50762  17.113  16.090  12.049
80882W        W50763  21.594  25.690   0.889
80883W        W50764  12.758  31.038  12.027
80884W        W50765  32.420   9.768  12.402
80885W        W50766  15.319  40.547   2.309
80886W        W50767  29.641   0.831  13.913
80887W        W50768  14.736   0.784   1.763
80888W        W50769  33.522  35.534  11.413
80889W        W50770  31.479  20.738  13.523
80890W        W50771  10.737   8.744  13.392
80891W        W50772  11.778  38.456   4.185
80892W        W50773   8.382  31.567   1.234
80893W        W50774  20.574  10.857   1.764
80894W        W50775  38.962  33.498   2.231
80895W        W50776   9.331  17.194  11.583
80896W        W50777   7.866  16.682   1.812
80897W        W50778  15.327  23.656  11.449
80898W        W50779  23.603   4.377   1.815
80899W        W50780  36.874   1.838   3.744
80900W        W50781  26.528  41.861  14.462
80901W        W50782  30.158   1.832  12.071
80902W        W50783   2.372  29.155   4.353
80903W        W50784  12.160  41.418  12.538
80904W        W50785  22.554  24.721   2.397
80905W        W50786  36.572  35.107  12.406
80906W        W50787  16.806   0.856   4.304
80907W        W50788  10.237   6.363  14.867
80908W        W50789   9.774  35.039  12.893
80909W        W50790  34.979   1.368  12.500
80910W        W50791  41.808  17.071  14.874
80911W        W50792  19.692  24.609   3.380
80912W        W50793  39.401  43.808   0.373
80913W        W50794  31.555  28.572  10.920
80914W        W50795  39.399  13.232  11.465
80915W        W50796   9.328   5.834   2.726
80916W        W50797   0.747  32.486  13.009
80917W        W50798  41.505  26.620   4.153
80918W        W50799  19.556  37.859   2.672
80919W        W50800   5.766   2.822   0.344
80920W        W50801  41.977  32.952  13.061
80921W        W50802   5.720  34.027   3.856
80922W        W50803  24.024  24.068  13.406
80923W        W50804  35.088  37.469  13.848
80924W        W50805  16.183  21.521  10.578
80925W        W50806  27.475  42.918   4.239
80926W        W50807  18.716   2.288  13.336
80927W        W50808  27.633   6.339   0.851
80928W        W50809  43.274  43.804  10.630
80929W        W50810   9.359  19.080  14.433
80930W        W50811  22.071   3.751  12.831
80931W        W50812  39.329   0.283   3.842
80932W        W50813  38.370  32.918  14.444
80933W        W50814  41.503  31.937  13.346
80934W        W50815  44.496  33.589   3.851
80935W        W50816  42.920  30.643   0.441
80936W        W50817  14.228  10.238   4.727
80937W        W50818  30.653   2.333   2.878
80938W        W50819  24.596  17.087   5.687
80939W        W50820  39.492  28.483   2.318
80940W        W50821  18.754   0.366   5.282
80941W        W50822  28.172   6.758   1.441
80942W        W50823   8.783   8.734   2.863
80943W        W50824  17.277  11.341   3.282
80944W        W50825   6.816  36.905  14.425
80945W        W50826  42.287  12.340   1.863
80946W        W50827  28.163  44.276   1.933
80947W        W50828  35.937  21.711   3.810
80948W        W50829  39.947  28.961   1.923
80949W        W50830  17.092   2.819  10.502
80950W        W50831  38.434  18.130   0.804
80951W        W50832  21.102  32.077  10.160
80952W        W50833  41.887   9.394  11.426
80953W        W50834  21.672  42.997  10.480
80954W        W50835   2.278  11.312  12.032
80955W        W50836  10.710   0.492   3.753
80956W        W50837  34.013  18.739  13.934
80957W        W50838  42.913  21.681  14.932
80958W        W50839  42.780  21.752  13.966
80959W        W50840  16.217   6.701  10.427
80960W        W50841  35.984   6.245  10.990
80961W        W50842   0.826  26.563   2.733
80962W        W50843  17.133  21.257   0.311
80963W        W50844  29.670   1.256  12.071
80964W        W50845  18.236  20.569  12.493
80965W        W50846  12.146   9.216  10.624
80966W        W50847   7.308   1.336   4.136
80967W        W50848  43.279  41.382  11.061
80968W        W50849  39.452   0.922  12.393
80969W        W50850   0.329  38.895   4.259
80970W        W50851  16.092  30.598   4.255
80971W        W50852  22.023  26.692   2.185
80972W        W50853  33.888  31.084   3.354
80973W        W50854  10.799  13.669  14.338
80974W        W50855  41.968  15.666   1.358
80975W        W50856  37.907   2.780  14.948
80976W        W50857  11.347  11.166   4.159
80977W        W50858  35.481  33.022  12.384
80978W        W50859   9.785  39.926  11.483
80979W        W50860  30.932  17.274   1.786
80980W        W50861  25.573  25.039  13.998
80981W        W50862  43.314  44.873  13.913
80982W        W50863  11.811  25.699   3.369
80983W        W50864   5.197  10.784  14.993
80984W        W50865  41.338  36.488   1.699
80985W        W50866  12.151   0.482  12.043
80986W        W50867   2.269  15.328  10.618
80987W        W50868  42.285   7.260  12.003
80988W        W50869  15.594  21.177  10.083
80989W        W50870  30.162  42.902  10.566
80990W        W50871  21.739  11.670   9.961
80991W        W50872   7.853  30.908   0.435
80992W        W50873   9.371  30.908  13.467
80993W        W50874  24.190  17.182  11.875
80994W        W50875   6.259   6.918   1.889
80995W        W50876  19.039  21.653  11.064
80996W        W50877   0.743  31.562   3.725
80997W        W50878  29.561  35.460  12.888
80998W        W50879  39.400  19.154  14.927
80999W        W50880  21.534  41.806   0.730
81000W        W50881  10.699  30.641  12.918
81001W        W50882  18.710   2.813   0.792
81002W        W50883  19.039  43.478   2.712
81003W        W50884  11.257  34.120   4.764
81004W        W50885  13.606  31.557   1.432
81005W        W50886  31.973  17.706   2.856
81006W        W50887  11.138  43.367   4.722
81007W        W50888  21.158  12.723  13.317
81008W        W50889  33.960  21.145   0.330
81009W        W50890  20.625   0.973  14.786
81010W        W50891  15.730  12.821   3.345
81011W        W50892  10.378   7.309  11.401
81012W        W50893  33.920   2.352   3.358
81013W        W50894  30.148  18.578   4.290
81014W        W50895  41.933  30.632  12.866
81015W        W50896  11.150  23.731   0.866
81016W        W50897  12.791   9.224  13.903
81017W        W50898  12.826  10.765  14.514
81018W        W50899  17.141  18.182  12.002
81019W        W50900  17.700  31.521   4.709
81020W        W50901  35.557   9.672  13.468
81021W        W50902  36.012  38.483   0.457
81022W        W50903  22.633  33.893  10.017
81023W        W50904  22.098  39.871   1.788
81024W        W50905   1.952  18.201  10.932
81025W        W50906  16.613   7.202  13.872
81026W        W50907  29.961  15.747   1.885
81027W        W50908   2.387  32.923  11.107
81028W        W50909  38.510  32.886  14.962
81029W        W50910   0.872  16.139  10.552
81030W        W50911  43.001   4.908   2.269
81031W        W50912  10.220   0.940  14.460
81032W        W50913  23.566  42.891   0.807
81033W        W50914  42.032  20.203  12.965
81034W        W50915  42.422  10.859  13.994
81035W        W50916  17.224  20.751   3.799
81036W        W50917  12.816  14.788  13.423
81037W        W50918  12.798  33.484   3.290
81038W        W50919  28.580  29.044  13.412
81039W        W50920  43.373  14.763  14.011
81040W        W50921  16.728  23.025  12.579
81041W        W50922  17.604  11.849  12.074
81042W        W50923  29.437   0.877   2.725
81043W        W50924   2.827  13.131   4.248
81044W        W50925  19.253  11.221   1.352
81045W        W50926   6.681   0.291   3.801
81046W        W50927  14.293  36.856   0.937
81047W        W50928  10.257  13.602  10.561
81048W        W50929   3.804  19.629   4.298
81049W        W50930  24.092  11.789  12.897
81050W        W50931  29.585  11.230  12.384
81051W        W50932  21.644  25.667   3.653
81052W        W50933  12.356  10.170  10.098
81053W        W50934  42.391  30.651   2.352
81054W        W50935   7.668   2.875  13.341
81055W        W50936   6.906  38.561  14.310
81056W        W50937  33.997  24.661  13.344
81057W        W50938  36.017  40.348   3.675
81058W        W50939  34.059  19.682  13.535
81059W        W50940  24.693  23.105  10.424
81060W        W50941  27.984  18.093   3.669
81061W        W50942   3.855  41.425   1.238
81062W        W50943  21.226  14.256  10.123
81063W        W50944  23.523  36.060   1.276
81064W        W50945  21.019  10.201   2.300
81065W        W50946  32.559   5.692   4.281
81066W        W50947  19.777  43.456  13.503
81067W        W50948  43.982   2.345   1.385
81068W        W50949  26.136   0.475  14.300
81069W        W50950  14.728  39.853   4.629
81070W        W50951  23.186   4.296  11.454
81071W        W50952   6.408  35.094  14.450
81072W        W50953  11.698  20.239   1.776
81073W        W50954   3.726  17.652   1.246
81074W        W50955  36.485  30.914  14.462
81075W        W50956  11.289  16.306  13.502
81076W        W50957   6.371  17.681   1.385
81077W        W50958  12.214  29.518   2.853
81078W        W50959  13.163  44.969   3.867
81079W        W50960  14.274  30.653  12.004
81080W        W50961   8.701  24.542   4.775
81081W        W50962  23.122  15.604  14.885
81082W        W50963  43.788  40.038  13.049
81083W        W50964  18.766   5.230   3.766
81084W        W50965  21.637  41.790   1.418
81085W        W50966  12.135  16.163  12.435
81086W        W50967  19.162   9.644   1.415
81087W        W50968   1.389   7.221   3.381
81088W        W50969  14.160  33.079  14.880
81089W        W50970  22.645   4.346   0.286
81090W        W50971   6.743  16.654  13.977
81091W        W50972  19.051  32.624   0.365
81092W        W50973  22.085   5.741  10.956
81093W        W50974  19.556  14.735   4.624
81094W        W50975  42.964  44.944  12.409
81095W        W50976  44.889  24.993   3.861
81096W        W50977  41.437  38.444   4.154
81097W        W50978  43.006  29.123   1.726
81098W        W50979   7.296   6.779  12.457
81099W        W50980  42.288  29.170   0.359
81100W        W50981  31.489  28.934   0.481
81101W        W50982  43.808  32.415   0.472
81102W        W50983  28.090   1.786  11.540
81103W        W50984  44.784  42.457   4.150
81104W        W50985  14.632  41.011   3.693
81105W        W50986  39.473  26.584  13.890
81106W        W50987   3.402  17.787  14.010
81107W        W50988  37.373  24.515   4.346
81108W        W50989  40.512   8.666   1.864
81109W        W50990   3.404   0.445   2.410
81110W        W50991  41.328   4.842   4.330
81111W        W50992  36.514  16.166   4.202
81112W        W50993  10.859   1.751   1.752
81113W        W50994   1.861   0.469   3.236
81114W        W50995  13.671   3.343   3.346
81115W        W50996  35.952   1.900  14.833
81116W        W50997  18.722  32.889  14.389
81117W        W50998  26.208  11.307   4.127
81118W        W50999  32.605  38.914   1.270
81119W        W51000  39.861  23.089  14.799
81120W        W51001  24.614  34.478   2.859
81121W        W51002  28.537   7.707  13.429
81122W        W51003  13.777  25.094  13.924
81123W        W51004  29.480  38.904  13.448
81124W        W51005  39.842  27.692   3.150
81125W        W51006  21.538  40.838   0.866
81126W        W51007  11.731  14.124  13.542
81127W        W51008  20.682   9.772   0.865
81128W        W51009   2.312  14.249  11.521
81129W        W51010  44.932   4.706  13.999
81130W        W51011  39.404  32.578  14.441
81131W        W51012  43.478  37.533   9.935
81132W        W51013   4.219  11.857   0.963
81133W        W51014  37.355   2.792   2.416
81134W        W51015  14.648  35.082  12.973
81135W        W51016   1.782  41.880   0.855
81136W        W51017  19.172  29.132  13.465
81137W        W51018   4.275  38.486   4.646
81138W        W51019   8.219  20.660   4.211
81139W        W51020  36.883   9.835   0.924
81140W        W51021  34.090   9.304   1.331
81141W        W51022  25.556  36.967  10.950
81142W        W51023  41.999   2.467  14.382
81143W        W51024  34.596  14.724   2.855
81144W        W51025   1.891  40.531  11.990
81145W        W51026   5.232  27.614  11.108
81146W        W51027  16.074   6.861   1.834
81147W        W51028  21.241  40.505   0.321
81148W        W51029  29.964   6.248  13.521
81149W        W51030  11.233  13.808   3.289
81150W        W51031   4.883  26.056   4.618
81151W        W51032  39.038  10.313  11.106
81152W        W51033   2.965  11.252  11.986
81153W        W51034   8.364  36.909  13.007
81154W        W51035  22.046  25.076   2.731
81155W        W51036  30.074   2.901   0.242
81156W        W51037  12.210  12.136  12.503
81157W        W51038  18.750  40.928  12.371
81158W        W51039  14.663  32.017   2.707
81159W        W51040  43.010  43.952   1.864
81160W        W51041   0.257   1.400  13.041
81161W        W51042  33.913  10.313   4.662
81162W        W51043  19.610   7.697   0.813
81163W        W51044  42.958  36.398   1.811
81164W        W51045  28.484  13.256   3.360
81165W        W51046  17.586  39.358  10.489
81166W        W51047   6.242   1.478  11.913
81167W        W51048  36.938   0.912  13.340
81168W        W51049  32.962  10.873   2.744
81169W        W51050  40.495  38.034   2.238
81170W        W51051  25.198  18.695  13.518
81171W        W51052   9.652   4.831  14.411
81172W        W51053   7.401   1.863  14.459
81173W        W51054  35.379  20.691  11.891
81174W        W51055   9.851  25.013  14.952
81175W        W51056  26.126  17.078  10.506
81176W        W51057  26.025  30.946  12.368
81177W        W51058  19.756  16.786   4.810
81178W        W51059  29.132  40.438   2.334
81179W        W51060  25.981  21.751  11.386
81180W        W51061  21.138  32.431  12.082
81181W        W51062  17.274  10.331  13.847
81182W        W51063  38.479  23.634   1.295
81183W        W51064  15.647  12.232   5.167
81184W        W51065  15.155  13.278  12.376
81185W        W51066   5.368  44.300  11.949
81186W        W51067   1.349  30.550   0.319
81187W        W51068  24.991  30.093   0.456
81188W        W51069  14.646   8.191  11.960
81189W        W51070  26.619  13.834   1.406
81190W        W51071   8.378   2.817  10.433
81191W        W51072  21.024  18.736   1.367
81192W        W51073  23.222  26.000   4.160
81193W        W51074  18.195  30.087  10.420
81194W        W51075   5.428  26.682  13.364
81195W        W51076  15.143  29.964   1.896
81196W        W51077  34.374  21.130   1.351
81197W        W51078  37.851  39.984   4.630
81198W        W51079  11.765  29.516  10.483
81199W        W51080  33.542  31.511   0.864
81200W        W51081  37.001  14.314  10.958
81201W        W51082  43.360  14.234  11.855
81202W        W51083  13.798  22.037   1.902
81203W        W51084  20.042   5.901   0.311
81204W        W51085  34.075  29.969   4.206
81205W        W51086  29.010  10.740  14.815
81206W        W51087  26.600  37.372   2.864
81207W        W51088  30.003  25.640  14.418
81208W        W51089   9.808  22.077  13.041
81209W        W51090  44.424  44.799  13.471
81210W        W51091   3.832  39.851  10.545
81211W        W51092   5.713  15.640  11.044
81212W        W51093  33.942  41.855  11.943
81213W        W51094  11.684  12.694   0.751
81214W        W51095  17.230  28.117   1.800
81215W        W51096   1.247   9.713  10.573
81216W        W51097  44.485  41.365   1.879
81217W        W51098  18.150   7.847   1.868
81218W        W51099  39.039  20.260  14.323
81219W        W51100   1.409  22.706  12.846
81220W        W51101  16.757   6.695  14.502
81221W        W51102  41.303  23.178  11.960
81222W        W51103  12.348  17.123   3.798
81223W        W51104  15.285  24.636  11.908
81224W        W51105  29.076  15.784   4.707
81225W        W51106   5.257   7.770  12.344
81226W        W51107  20.085  31.449  12.403
81227W        W51108  23.731   3.284   3.277
81228W        W51109  17.229  13.172  11.395
81229W        W51110  12.116   6.917   1.707
81230W        W51111   5.365  13.669   0.873
81231W        W51112  30.424  26.171  14.819
81232W        W51113  37.945  36.348   0.283
81233W        W51114  16.220   5.248   1.330
81234W        W51115  37.989  38.408  11.892
81235W        W51116  21.087  37.978   2.738
81236W        W51117  43.848  24.026   0.323
81237W        W51118  19.641  33.073   2.775
81238W        W51119  27.661  33.968   1.245
81239W        W51120  20.227  44.421  13.318
81240W        W51121  38.920  41.822  10.105
81241W        W51122   0.417  42.896   4.252
81242W        W51123  24.619  17.658  13.310
81243W        W51124  43.871  10.847   4.767
81244W        W51125   6.816  15.140   3.241
81245W        W51126  17.654  27.943  14.312
81246W        W51127  15.815   8.400  12.833
81247W        W51128  24.479  31.065  12.462
81248W        W51129  33.538  16.644  11.405
81249W        W51130  10.257  25.684  10.442
81250W        W51131  36.587   6.815  12.006
81251W        W51132  33.476  22.528  12.345
81252W        W51133  29.529  31.072  12.939
81253W        W51134  12.126  31.986  12.993
81254W        W51135   5.237  24.500  10.406
81255W        W51136  39.031  13.648   0.849
81256W        W51137  21.751  24.615   0.797
81257W        W51138  12.771  16.787  11.898
81258W        W51139  13.689   5.292   3.244
81259W        W51140  35.457  17.223   1.859
81260W        W51141  29.608  11.203  11.609
81261W        W51142  34.416  37.990   3.239
81262W        W51143  19.673  27.473  10.608
81263W        W51144  43.502  39.446   3.214
81264W        W51145  14.737  32.603  10.944
81265W        W51146  14.219  28.019   5.098
81266W        W51147  20.178  37.527   1.436
81267W        W51148  15.165  22.240   1.314
81268W        W51149  29.132  36.922   3.214
81269W        W51150   3.785  15.132   1.263
81270W        W51151   1.940  21.675   0.952
81271W        W51152  16.571   2.787   1.783
81272W        W51153  24.612  35.876   3.644
81273W        W51154  23.548  21.211  11.547
81274W        W51155   2.338   3.320   4.292
81275W        W51156   4.419  20.150  11.594
81276W        W51157  19.682   9.789  13.369
81277W        W51158  32.116  43.511   4.806
81278W        W51159  41.025  23.198  13.031
81279W        W51160  43.964  24.188  14.501
81280W        W51161  10.875  25.998   2.749
81281W        W51162  27.469  33.118   1.388
81282W        W51163  30.606   2.895   0.284
81283W        W51164  16.234  17.741  13.450
81284W        W51165  32.100  41.981  10.463
81285W        W51166  24.012  37.515  13.331
81286W        W51167  29.129  44.777   2.345
81287W        W51168  28.528  23.155   4.784
81288W        W51169  13.165  16.255  12.490
81289W        W51170  24.523  23.224   3.851
81290W        W51171   4.894  11.318  12.472
81291W        W51172   3.286  34.404   0.268
81292W        W51173   5.847  34.103   1.850
81293W        W51174  17.152  31.555  10.100
81294W        W51175  19.641   7.796  12.579
81295W        W51176  35.513   7.852   4.117
81296W        W51177   5.321  14.194   4.671
81297W        W51178  24.015  35.562  12.339
81298W        W51179  39.460  11.171  12.479
81299W        W51180  20.224   9.230   0.787
81300W        W51181  40.391  27.609  12.409
81301W        W51182  18.130  13.301   4.657
81302W        W51183  25.100  31.980  12.503
81303W        W51184  10.335  16.582  14.927
81304W        W51185   8.284  13.700   2.194
81305W        W51186  28.549  22.059  12.902
81306W        W51187  20.080   9.765  10.412
81307W        W51188  39.547  41.988   2.796
81308W        W51189  10.190  28.100  10.497
81309W        W51190   6.835  38.379   3.694
81310W        W51191  23.694  36.434  11.425
81311W        W51192  35.996  25.590   3.632
81312W        W51193  28.101  35.539  14.516
81313W        W51194  35.384  34.921  14.838
81314W        W51195   5.387  30.659   2.824
81315W        W51196  11.194  19.094  13.391
81316W        W51197  22.093  44.924   2.672
81317W        W51198  36.019  43.450  12.402
81318W        W51199  17.238  37.035  13.330
81319W        W51200   8.263   8.783  13.983
81320W        W51201  29.643  33.967   2.776
81321W        W51202  38.514  44.970   0.751
81322W        W51203  14.822  22.644   3.387
81323W        W51204  27.975   8.236   4.201
81324W        W51205  15.133  35.939   4.824
81325W        W51206   6.349  23.992   0.909
81326W        W51207  33.445  40.936  14.801
81327W        W51208  34.448  25.686   4.710
81328W        W51209  21.163  35.603  11.086
81329W        W51210  33.130   0.252  13.865
81330W        W51211   6.740  36.985   1.268
81331W        W51212  43.924  41.891  12.828
81332W        W51213  28.049  11.682   2.804
81333W        W51214  20.564  34.030  12.048
81334W        W51215  27.116  37.019   4.121
81335W        W51216  18.688  18.158   0.381
81336W        W51217  18.773  29.597  14.401
81337W        W51218   9.212   6.231  14.002
81338W        W51219  32.142  40.936  11.460
81339W        W51220  19.610   6.840  11.075
81340W        W51221   4.289  11.682   3.152
81341W        W51222  22.110  26.992  12.429
81342W        W51223   4.262   3.396   3.242
81343W        W51224  16.136  21.201  14.284
81344W        W51225  40.967   6.419   0.886
81345W        W51226  22.102  25.533  14.509
81346W        W51227   5.713  36.401  12.460
81347W        W51228  41.887  29.931   0.362
81348W        W51229   5.282  24.154  13.832
81349W        W51230  31.480  36.503  14.780
81350W        W51231   1.239  12.846  13.423
81351W        W51232   6.836  37.436  13.474
81352W        W51233  17.594  40.938   0.923
81353W        W51234  41.350  44.405  13.533
81354W        W51235  16.592  34.108  12.935
81355W        W51236  13.773  20.639   1.329
81356W        W51237  11.164  10.872  10.525
81357W        W51238  16.716  29.941   3.870
81358W        W51239  24.482   2.962  13.449
81359W        W51240   1.954  30.994  13.535
81360W        W51241   4.786   0.981  10.536
81361W        W51242  24.635  36.497  10.492
81362W        W51243  27.186   1.425  10.551
81363W        W51244  28.929  28.571  11.056
81364W        W51245  22.062  33.127   3.332
81365W        W51246  25.628   5.806   1.837
81366W        W51247  10.687  19.534  10.594
81367W        W51248  12.124   7.264   2.828
81368W        W51249  37.916   5.733   2.769
81369W        W51250   3.373  14.765   2.278
81370W        W51251  32.981  21.660   2.813
81371W        W51252  21.069  23.129   1.848
81372W        W51253  14.310  27.002   1.221
81373W        W51254  25.631  24.709   3.351
81374W        W51255  28.442   6.296   4.770
81375W        W51256   4.811   7.679  14.782
81376W        W51257   2.775  30.554   4.297
81377W        W51258  42.024  41.804  13.375
81378W        W51259  38.862  12.131  10.035
81379W        W51260   0.910  43.841  11.575
81380W        W51261  24.638  41.840   0.858
81381W        W51262  43.286   8.895   1.883
81382W        W51263  25.996  38.896  14.864
81383W        W51264   7.329  29.651   4.611
81384W        W51265   2.228  44.758   1.347
81385W        W51266  35.071  24.080  10.910
81386W        W51267  17.781  17.650  14.328
81387W        W51268  17.268  44.756   4.225
81388W        W51269  11.255  29.074   0.751
81389W        W51270  17.088  38.033  11.517
81390W        W51271  43.863   3.794   4.606
81391W        W51272  10.379  27.020  12.087
81392W        W51273  28.011   2.316  14.844
81393W        W51274   1.857   7.859   1.230
81394W        W51275  32.101   8.175   1.341
81395W        W51276  25.714  25.164   5.240
81396W        W51277  24.666  44.388   2.693
81397W        W51278  40.967  41.436  12.961
81398W        W51279  23.538   7.406   4.694
81399W        W51280  44.976  27.972  13.351
81400W        W51281  17.233   1.376   0.921
81401W        W51282  43.271  32.460   3.369
81402W        W51283  31.030  14.691   0.465
81403W        W51284  21.612   8.735   0.833
81404W        W51285  37.871   4.422  13.037
81405W        W51286   0.980  40.856   0.778
81406W        W51287  27.148  44.354   2.673
81407W        W51288   3.941   4.310   4.833
81408W        W51289  19.673   6.879  13.036
81409W        W51290   8.725   4.738   4.321
81410W        W51291  28.077  18.654  10.468
81411W        W51292  38.937  36.859  12.829
81412W        W51293  25.133  25.217  10.562
81413W        W51294  37.341  36.943   4.822
81414W        W51295   3.241  36.567   3.798
81415W        W51296   0.423  15.755  14.469
81416W        W51297  32.449  20.661   4.617
81417W        W51298   1.340  36.454  13.964
81418W        W51299  12.262  12.219   3.739
81419W        W51300  26.568  35.400   3.357
81420W        W51301   2.429  12.175   3.311
81421W        W51302   9.154  11.825   4.202
81422W        W51303  23.713  24.042   1.289
81423W        W51304  22.236  22.029  13.504
81424W        W51305   9.848  13.739  10.637
81425W        W51306  30.109  14.185  13.042
81426W        W51307  43.877  40.943   0.405
81427W        W51308  33.918  33.397  11.449
81428W        W51309  17.690   8.741  12.365
81429W        W51310  28.155  18.171  12.924
81430W        W51311   3.341   5.934  10.912
81431W        W51312  37.533   5.262  11.533
81432W        W51313  32.079  28.608  13.923
81433W        W51314  18.583   5.850  13.843
81434W        W51315  29.464  19.159   2.679
81435W        W51316  27.652  10.742   1.274
81436W        W51317  14.177   7.801   2.882
81437W        W51318  13.669  44.825   3.384
81438W        W51319  29.133   7.907  13.334
81439W        W51320  10.714  37.841  14.310
81440W        W51321  34.402  28.487  12.376
81441W        W51322  28.115  14.681   1.811
81442W        W51323  20.525  44.384  11.955
81443W        W51324  37.919  18.093   3.278
81444W        W51325   0.856  30.940  11.877
81445W        W51326  13.113  34.543   4.154
81446W        W51327  19.627  37.536  13.374
81447W        W51328   1.245  11.761   3.642
81448W        W51329  25.083   3.380  13.014
81449W        W51330  24.091  30.575  12.459
81450W        W51331  23.986  34.988   4.215
81451W        W51332  11.824  24.696   4.800
81452W        W51333   0.467   4.257   0.483
81453W        W51334  34.043  44.990  10.913
81454W        W51335  41.870  28.055   4.618
81455W        W51336  28.559   1.743   3.273
81456W        W51337  37.570   6.390   0.926
81457W        W51338  38.487  44.400   1.892
81458W        W51339  22.515  33.404  13.446
81459W        W51340  30.431  22.638  14.989
81460W        W51341  33.388   3.805   1.210
81461W        W51342  29.644  15.166  11.022
81462W        W51343  32.501   2.946   0.831
81463W        W51344  18.066  23.708   4.217
81464W        W51345  39.388  11.271  13.057
81465W        W51346  29.517  10.826   2.765
81466W        W51347  39.813  32.011  14.464
81467W        W51348  37.047  20.065  12.089
81468W        W51349   3.320   7.676  12.417
81469W        W51350  26.566  14.706  13.511
81470W        W51351  26.956  10.716   2.885
81471W        W51352  38.407   3.923   3.306
81472W        W51353  13.178  20.062   0.745
81473W        W51354  18.632  35.054   3.195
81474W        W51355  37.914  22.547   1.695
81475W        W51356  32.993  20.089  11.472
81476W        W51357  15.152  25.211  11.380
81477W        W51358   1.785   7.819  14.829
81478W        W51359   9.386  30.507  11.585
81479W        W51360  23.195   2.388   2.830
81480W        W51361  24.479  36.416  11.860
81481W        W51362  30.105  33.578  10.437
81482W        W51363  40.360   8.829   2.284
81483W        W51364   3.245   4.247  10.626
81484W        W51365  14.620  35.909   0.934
81485W        W51366  19.648  42.312   2.292
81486W        W51367  43.869   8.889  13.478
81487W        W51368  16.100  14.335  14.949
81488W        W51369  19.275  13.205   1.851
81489W        W51370  19.724  20.564  13.408
81490W        W51371  28.506   2.449  13.421
81491W        W51372  37.076  14.329  11.429
81492W        W51373  17.624   4.790  14.779
81493W        W51374  23.665  33.085   4.221
81494W        W51375  29.589  30.604   3.356
81495W        W51376   9.275   9.185   3.633
81496W        W51377   0.438  12.734  13.036
81497W        W51378  16.798  37.414   0.428
81498W        W51379  32.013  13.346  14.983
81499W        W51380   2.813   6.189   1.398
81500W        W51381   8.230  31.902  10.413
81501W        W51382   3.219  17.267  14.372
81502W        W51383  29.500   5.819  12.530
81503W        W51384  37.852  13.774  11.892
81504W        W51385  36.900  25.494  13.532
81505W        W51386  17.558  15.263  11.866
81506W        W51387  20.109  21.030  10.923
81507W        W51388  10.171  23.565  11.559
81508W        W51389   6.724  34.038  14.362
81509W        W51390  38.055  16.654  12.576
81510W        W51391   8.215  16.154  13.803
81511W        W51392  28.972   8.821   1.792
81512W        W51393  31.142  17.647   1.340
81513W        W51394  44.379  29.003   4.614
81514W        W51395  19.061  27.545   0.350
81515W        W51396  38.967  34.085  12.936
81516W        W51397  31.018  27.476   3.244
81517W        W51398   1.255   9.782   0.892
81518W        W51399  19.558   1.732  13.397
81519W        W51400  10.658  28.026   4.712
81520W        W51401  24.028  36.530  12.959
81521W        W51402   9.712  31.566  11.495
81522W        W51403   9.349   7.416   0.433
81523W        W51404  26.179   3.951  11.453
81524W        W51405  32.621  35.085   1.741
81525W        W51406  39.046  12.798  13.793
81526W        W51407  32.428  12.206  12.897
81527W        W51408  20.131   3.744   4.820
81528W        W51409  21.219  23.002   1.231
81529W        W51410   0.288  10.674   1.417
81530W        W51411  31.065  41.812  12.532
81531W        W51412  18.578   2.871   2.304
81532W        W51413   9.768  35.514   4.710
81533W        W51414   0.456  13.153   3.711
81534W        W51415   5.846  41.415   1.428
81535W        W51416  22.694  14.697   4.170
81536W        W51417  31.068   3.321   0.845
81537W        W51418  26.539   6.305   3.158
81538W        W51419  41.034  14.704   0.426
81539W        W51420  16.165  21.536  12.540
81540W        W51421   0.439  32.512  10.893
81541W        W51422  25.651  40.390   0.453
81542W        W51423  39.417  26.201  14.380
81543W        W51424   0.933  32.511   2.822
81544W        W51425  37.510  27.094   2.376
81545W        W51426  37.874  11.348  10.594
81546W        W51427  40.987  40.522  11.898
81547W        W51428  10.268   3.920  11.387
81548W        W51429  17.579  28.136   3.822
81549W        W51430  24.073   6.853   3.328
81550W        W51431  28.504  25.188   1.763
81551W        W51432  38.516   5.237  14.317
81552W        W51433   5.929  29.476   2.701
81553W        W51434  40.803   6.426  14.297
81554W        W51435  11.291  34.486   4.239
81555W        W51436  16.297  44.901   1.428
81556W        W51437  19.106  35.933   2.828
81557W        W51438  29.489   8.260  11.406
81558W        W51439   1.774   1.881   1.935
81559W        W51440  44.438  44.935   3.665
81560W        W51441  31.019  13.834  10.556
81561W        W51442  20.617   6.856  11.591
81562W        W51443  34.058  17.720   0.267
81563W        W51444  28.608  20.071  10.971
81564W        W51445  38.435   7.725   3.665
81565W        W51446  11.314  32.619  13.334
81566W        W51447  32.593  15.201   0.726
81567W        W51448   8.758   8.738   3.322
81568W        W51449  13.733  24.648  12.870
81569W        W51450  25.125  36.869   4.207
81570W        W51451  35.024  44.461   2.764
81571W        W51452  14.142  11.668   1.738
81572W        W51453  35.415  20.038   3.215
81573W        W51454  41.312  26.958   4.201
81574W        W51455  11.759  40.459  13.896
81575W        W51456  39.875  14.167  12.405
81576W        W51457  13.762  14.097  14.786
81577W        W51458  17.212   0.434   1.709
81578W        W51459   3.217  36.571  14.893
81579W        W51460   6.748   1.948   3.654
81580W        W51461  18.610  12.692   4.325
81581W        W51462  34.041  18.756  11.515
81582W        W51463  43.971   0.354   2.217
81583W        W51464  29.126  29.044   4.314
81584W        W51465   6.396   5.688  11.073
81585W        W51466   1.447   9.260   2.768
81586W        W51467  36.514  34.059  11.461
81587W        W51468  42.370   0.755   0.399
81588W        W51469  42.498  35.892  12.535
81589W        W51470  19.743  23.150   3.782
81590W        W51471  43.414  21.630  12.860
81591W        W51472   8.175  30.563   2.822
81592W        W51473  23.192  27.545  14.443
81593W        W51474  14.789  37.085   3.792
81594W        W51475  38.888  27.128   1.712
81595W        W51476   6.262   2.860   4.774
81596W        W51477   2.326  41.349   0.940
81597W        W51478  12.346  20.768   1.760
81598W        W51479  24.721  31.955   1.717
81599W        W51480   3.811   2.913   1.335
81600W        W51481  11.823   9.216   3.299
81601W        W51482  43.004  16.641  13.971
81602W        W51483   2.745  32.617   1.873
81603W        W51484  18.567  39.860  12.422
81604W        W51485  34.579  27.563   2.206
81605W        W51486  19.779  13.634  11.897
81606W        W51487  27.141  40.845  14.301
81607W        W51488  13.111  31.060   4.348
81608W        W51489  42.991   7.322  10.594
81609W        W51490   7.736  35.499  13.543
81610W        W51491  40.969  10.203   2.240
81611W        W51492  26.018   7.389  12.856
81612W        W51493  18.290  36.348   4.315
81613W        W51494  18.283  29.435   0.412
81614W        W51495  38.461  19.710   3.729
81615W        W51496  38.432  33.491   3.745
81616W        W51497   1.397  29.640  10.480
81617W        W51498  43.289  36.932   0.301
81618W        W51499  16.272  26.166  12.424
81619W        W51500   2.470  34.978  11.082
81620W        W51501  29.465   5.250  11.862
81621W        W51502  11.793  28.936   4.280
81622W        W51503  25.688  15.704  14.474
81623W        W51504  12.119   7.312   0.252
81624W        W51505  33.053  19.067  12.086
81625W        W51506  20.623  43.947   2.294
81626W        W51507  30.536   5.742  14.924
81627W        W51508   6.744  28.068   2.318
81628W        W51509  17.703  29.072   1.329
81629W        W51510  20.568  29.586   2.239
81630W        W51511  30.639  34.452   0.853
81631W        W51512  15.621  20.550  10.003
81632W        W51513  36.948  40.383  14.392
81633W        W51514  36.874  24.060   4.300
81634W        W51515  32.928  38.561  14.900
81635W        W51516  36.434  18.264  12.042
81636W        W51517  37.509  12.266   4.184
81637W        W51518  38.451  11.850   3.836
81638W        W51519  16.101   5.925  11.114
81639W        W51520  36.849   5.896   3.259
81640W        W51521  27.176   3.265  10.438
81641W        W51522   2.819  11.651   4.777
81642W        W51523  41.530  20.216   0.272
81643W        W51524  14.807  34.415  11.387
81644W        W51525  37.458  20.189   0.253
81645W        W51526  26.499  23.152  14.479
81646W        W51527  23.701  44.830  10.614
81647W        W51528  30.598  20.622  12.938
81648W        W51529  32.039   9.677   2.208
81649W        W51530  17.583  31.450   2.676
81650W        W51531  19.122  26.983   0.413
81651W        W51532  16.572  43.462   1.433
81652W        W51533  32.919  29.639   0.397
81653W        W51534  21.755   2.343  13.405
81654W        W51535  26.978  32.887   3.300
81655W        W51536  25.186  24.167  14.300
81656W        W51537  35.061  40.950  14.797
81657W        W51538  32.930  33.949  11.508
81658W        W51539  27.560   2.254  10.985
81659W        W51540  44.976  27.644  12.842
81660W        W51541  25.601   1.401   3.210
81661W        W51542  43.847  19.100  14.473
81662W        W51543  25.684  30.051  10.587
81663W        W51544   2.421   6.246  10.092
81664W        W51545  36.978  12.193  12.831
81665W        W51546  14.598  24.203   2.347
81666W        W51547  35.094  10.201   3.690
81667W        W51548  20.045  28.541   1.272
81668W        W51549   5.197  36.388  14.285
81669W        W51550  16.711  35.431   4.136
81670W        W51551  39.341  12.730   4.211
81671W        W51552   1.885  15.627   2.735
81672W        W51553  30.475   2.254  13.937
81673W        W51554  27.666   2.806  11.501
81674W        W51555  12.812  18.082   2.750
81675W        W51556   6.319  34.423  14.006
81676W        W51557  34.399   2.906  11.879
81677W        W51558  27.575  32.410  13.356
81678W        W51559  24.565  29.585   4.633
81679W        W51560  10.239   0.451   1.862
81680W        W51561  38.971  13.226  10.523
81681W        W51562  30.510  19.630   1.698
81682W        W51563  32.983  26.141  14.864
81683W        W51564  23.995  26.028  12.855
81684W        W51565   1.326   4.341  12.832
81685W        W51566   1.381  31.573   0.815
81686W        W51567  30.573  20.618   0.342
81687W        W51568  30.026  32.405  12.354
81688W        W51569   8.798   0.389  11.088
81689W        W51570   4.700  26.672   0.406
81690W        W51571   7.181   3.860  11.888
81691W        W51572  12.300   1.404  11.056
81692W        W51573   8.896  43.963   3.674
81693W        W51574   5.867  17.173   2.321
81694W        W51575  16.195  15.760   1.243
81695W        W51576  24.603  32.038   4.302
81696W        W51577  20.197  19.653  11.898
81697W        W51578  27.585  22.222   4.206
81698W        W51579  37.336  21.513  12.836
81699W        W51580  10.780   6.679   4.342
81700W        W51581   9.158  42.815   2.809
81701W        W51582   2.773  39.050   2.682
81702W        W51583  43.495   7.727  13.410
81703W        W51584   2.858  28.002  11.963
81704W        W51585  18.651  25.625  13.350
81705W        W51586  24.156  11.767   0.852
81706W        W51587   1.282  25.611  11.042
81707W        W51588  16.166  42.971  14.853
81708W        W51589  36.436  31.409   0.440
81709W        W51590  33.953   4.837   2.246
81710W        W51591  36.016  17.095   0.930
81711W        W51592  39.060  41.323  12.354
81712W        W51593  30.544  26.007  10.891
81713W        W51594  15.099  17.722   3.746
81714W        W51595  16.212  11.656   3.193
81715W        W51596  27.582  12.180  11.897
81716W        W51597   0.842  29.509  11.413
81717W        W51598  42.984  32.004   3.860
81718W        W51599  28.633  30.043   3.792
81719W        W51600   4.708  19.658  14.018
81720W        W51601   0.327  27.113   1.298
81721W        W51602  15.088   2.239   1.263
81722W        W51603   1.737  14.224   4.118
81723W        W51604   6.415   3.267  10.141
81724W        W51605  37.396   8.199  10.926
81725W        W51606   7.254   2.848   3.380
81726W        W51607   4.232  15.611   1.432
81727W        W51608   4.937  32.012  11.908
81728W        W51609   1.739  37.529   0.293
81729W        W51610  24.979  28.091   3.709
81730W        W51611  16.236   4.727  14.292
81731W        W51612   0.451   9.827  11.093
81732W        W51613  29.999  29.606  12.085
81733W        W51614  10.303  38.863  13.531
81734W        W51615   5.841   4.849   3.159
81735W        W51616  30.644   9.870   1.746
81736W        W51617  37.880  43.851  10.977
81737W        W51618  17.223   0.382   3.197
81738W        W51619  26.674  22.576  13.943
81739W        W51620  31.949  43.352  12.843
81740W        W51621  25.044  24.179  10.512
81741W        W51622  15.219   1.359   4.209
81742W        W51623  16.123  11.133  14.338
81743W        W51624  22.630  23.031   1.775
81744W        W51625  18.763  19.101   3.184
81745W        W51626  25.098  31.120  12.068
81746W        W51627  22.550   6.690  14.818
81747W        W51628   6.729  27.944  11.890
81748W        W51629  42.417  22.620  13.526
81749W        W51630  32.109  19.693  12.487
81750W        W51631   7.857   5.800   2.898
81751W        W51632  24.039  22.692   4.827
81752W        W51633  17.742  37.370  14.864
81753W        W51634  22.572  17.758  11.031
81754W        W51635  44.336  20.061   4.217
81755W        W51636  28.171  12.165  12.958
81756W        W51637  44.270  20.709  14.430
81757W        W51638  13.330  41.485  11.571
81758W        W51639   3.327  34.040  10.526
81759W        W51640  22.634   4.898   5.320
81760W        W51641  37.537   9.698   4.173
81761W        W51642  28.054  41.979   3.151
81762W        W51643  30.960  32.436  10.530
81763W        W51644   0.789   1.872   2.784
81764W        W51645   7.811   1.905   4.791
81765W        W51646  35.369   0.311   0.796
81766W        W51647  13.128   9.687   0.252
81767W        W51648   2.920  15.637   3.354
81768W        W51649  23.067  13.137   1.717
81769W        W51650  32.568  10.300   0.764
81770W        W51651  37.348  27.619   3.179
81771W        W51652  31.923  41.988   5.195
81772W        W51653  17.731   3.833  10.551
81773W        W51654  12.125   5.857  13.835
81774W        W51655  24.038  15.645   2.412
81775W        W51656  19.154  41.891  12.372
81776W        W51657  15.758  25.627  10.419
81777W        W51658  40.974  37.034  14.380
81778W        W51659   7.264  32.106   0.309
81779W        W51660  26.032   5.212  12.487
81780W        W51661  39.458   3.306   3.261
81781W        W51662   1.240  36.929   1.836
81782W        W51663   8.895   0.963   0.263
81783W        W51664  39.842  25.636   4.795
81784W        W51665   3.234  25.200  11.394
81785W        W51666   4.381  43.309   2.832
81786W        W51667  14.672   6.245  11.094
81787W        W51668   2.470  39.044   0.926
81788W        W51669   8.365  22.050   2.267
81789W        W51670  41.027  43.870   2.875
81790W        W51671  27.596  12.214   0.931
81791W        W51672  38.941   2.445  13.853
81792W        W51673  29.025  11.827  12.965
81793W        W51674  28.441  25.668   9.559
81794W        W51675  40.932  27.084   3.298
81795W        W51676  12.766  20.141  12.978
81796W        W51677  12.279  30.939  13.888
81797W        W51678  28.183  24.563  14.480
81798W        W51679  20.635  29.007   1.933
81799W        W51680   8.349  38.358  10.510
81800W        W51681  30.513  23.148   2.893
81801W        W51682  26.648  25.017  10.061
81802W        W51683  15.622  43.798   3.315
81803W        W51684  19.745  43.419   1.712
81804W        W51685  17.290  15.131   3.682
81805W        W51686  17.729   3.313   4.297
81806W        W51687  34.865   1.301  11.068
81807W        W51688  22.125  18.070  10.477
81808W        W51689  20.692  19.612   2.678
81809W        W51690  31.539  42.493   4.785
81810W        W51691  33.099  29.584   4.216
81811W        W51692  32.557  16.275  10.917
81812W        W51693  35.916   7.327  12.016
81813W        W51694   1.881  11.254  14.999
81814W        W51695  11.166  26.124   4.740
81815W        W51696  40.935  26.068   2.817
81816W        W51697  11.314  44.266  14.418
81817W        W51698  12.759   9.168   0.452
81818W        W51699   9.843  26.516  14.465
81819W        W51700  17.067   5.396  13.791
81820W        W51701  32.975  27.993  11.118
81821W        W51702   5.280  23.134   3.338
81822W        W51703  23.683  18.075   0.425
81823W        W51704   1.789   7.762   3.856
81824W        W51705  29.481   9.872   4.680
81825W        W51706   5.340  36.906   0.845
81826W        W51707  41.370  40.328  12.459
81827W        W51708  16.573  10.226   2.245
81828W        W51709  41.901  34.043   1.302
81829W        W51710  26.624   8.395  11.488
81830W        W51711  30.013  11.790  13.799
81831W        W51712  12.844  19.678  14.781
81832W        W51713  18.640   6.907  12.918
81833W        W51714  15.204  30.123  12.945
81834W        W51715  17.194  17.747  12.530
81835W        W51716  16.273  18.556  10.490
81836W        W51717  36.933   1.784  14.866
81837W        W51718  13.200   9.774   4.308
81838W        W51719  24.687  32.133   3.147
81839W        W51720  15.150  36.937  10.589
81840W        W51721   5.760   3.454   1.873
81841W        W51722   9.872  14.609   0.481
81842W        W51723  42.951  25.565  11.917
81843W        W51724  21.565  35.031  14.360
81844W        W51725  12.775  22.234  12.084
81845W        W51726  42.964  28.047   1.240
81846W        W51727   8.374   2.734  12.433
81847W        W51728  44.369  14.337   3.733
81848W        W51729  21.228   9.349  12.950
81849W        W51730  35.068  11.276  14.780
81850W        W51731  16.212  38.959  14.492
81851W        W51732  24.072  29.605  10.984
81852W        W51733   5.726  35.515  11.010
81853W        W51734  28.670  37.082  13.409
81854W        W51735   2.961   1.811  11.611
81855W        W51736  15.807  42.896  14.798
81856W        W51737  41.916  16.248  10.993
81857W        W51738   5.849   6.912   1.356
81858W        W51739  36.468   8.700   4.340
81859W        W51740  12.745  40.993   4.287
81860W        W51741  44.862  24.181   4.616
81861W        W51742   8.338  12.612   1.751
81862W        W51743  14.667  28.642   4.235
81863W        W51744   8.720  17.255   3.245
81864W        W51745   4.422  19.580   4.332
81865W        W51746  30.096  28.952   1.720
81866W        W51747   4.289  26.109  14.411
81867W        W51748  35.492  24.515  12.581
81868W        W51749  37.527   9.293   2.222
81869W        W51750  11.698   4.338   4.665
81870W        W51751  19.547  15.112   2.710
81871W        W51752  16.246  24.640   2.827
81872W        W51753  31.922  16.795   3.831
81873W        W51754  29.603  32.097  13.459
81874W        W51755   8.884  20.742   3.197
81875W        W51756  14.274  22.560   3.811
81876W        W51757  21.207   8.167   1.353
81877W        W51758  32.024  39.995  14.353
81878W        W51759  42.293  40.545   1.320
81879W        W51760   3.922  36.009  12.535
81880W        W51761   0.911   5.263  12.379
81881W        W51762  25.668  26.028   4.602
81882W        W51763   0.300  13.838  13.037
81883W        W51764  29.978  22.609   2.796
81884W        W51765   1.467  12.152   1.743
81885W        W51766  43.988   4.843   4.182
81886W        W51767  25.477  24.109  13.880
81887W        W51768  35.886  13.109  12.386
81888W        W51769  29.514  12.161   0.904
81889W        W51770  40.487  37.960   3.362
81890W        W51771  33.996  42.985  11.408
81891W        W51772  17.131  32.416   2.207
81892W        W51773  31.554  42.456   3.212
81893W        W51774   1.869  29.553   4.284
81894W        W51775  41.813  43.949   0.782
81895W        W51776  10.847  40.405   0.429
81896W        W51777  25.636  33.557   3.185
81897W        W51778  29.067   2.779   2.880
81898W        W51779  31.958  17.254  14.498
81899W        W51780  42.941  27.098   0.866
81900W        W51781  24.100  18.780   0.298
81901W        W51782  30.997  17.161   0.806
81902W        W51783   6.210  13.343  13.394
81903W        W51784   8.799  17.602  10.933
81904W        W51785   9.753  38.408  12.966
81905W        W51786   6.763  36.398   0.302
81906W        W51787  26.121  28.088   1.694
81907W        W51788  25.539   4.910  11.106
81908W        W51789  16.693  16.695   4.694
81909W        W51790  42.397  22.716  10.546
81910W        W51791   1.239  24.610  12.993
81911W        W51792  38.828  30.097  12.383
81912W        W51793   7.341  37.445  14.466
81913W        W51794  14.662  10.315   3.828
81914W        W51795  39.841  43.845   3.230
81915W        W51796  23.092  29.546   2.670
81916W        W51797  33.916  27.114   1.743
81917W        W51798  44.784  32.577   0.407
81918W        W51799   1.911  10.276   4.744
81919W        W51800  23.095  41.483  13.468
81920W        W51801  39.863  19.085   0.356
81921W        W51802   5.395  41.347  10.425
81922W        W51803  43.407  28.582   4.301
81923W        W51804  32.965  20.671  12.419
81924W        W51805  38.467  32.503  13.418
81925W        W51806  37.378  42.916  12.092
81926W        W51807  34.604  22.056  13.534
81927W        W51808  11.861  25.065   0.417
81928W        W51809  16.123  25.962   2.798
81929W        W51810  27.166   5.239  11.968
81930W        W51811  27.688  36.401   1.907
81931W        W51812   9.703  40.371  12.443
81932W        W51813  21.251  40.007   2.662
81933W        W51814  39.838  41.823   4.705
81934W        W51815  43.960  38.036  10.890
81935W        W51816  27.985  39.340  11.127
81936W        W51817  21.557  43.370  10.586
81937W        W51818  43.988  37.364  10.989
81938W        W51819  37.412  31.533  13.793
81939W        W51820  25.665   5.795   2.822
81940W        W51821  15.819  11.188   0.795
81941W        W51822  32.434   3.873   2.293
81942W        W51823  33.417  28.579  11.481
81943W        W51824  33.093  30.434   3.148
81944W        W51825  28.992  43.000  14.362
81945W        W51826  35.597  18.571   0.926
81946W        W51827  31.991  36.031  11.609
81947W        W51828  44.818  27.551   1.409
81948W        W51829  11.635  30.575   9.516
81949W        W51830  34.432   9.727   1.812
81950W        W51831  37.406  42.376   1.889
81951W        W51832  27.959  25.550   1.839
81952W        W51833  25.606  14.258  12.852
81953W        W51834  27.193  11.138   3.175
81954W        W51835  44.984  20.142   0.872
81955W        W51836  16.767  17.630  12.488
81956W        W51837  43.388  44.301   4.309
81957W        W51838  12.769  23.048   2.780
81958W        W51839  15.186   0.447  12.570
81959W        W51840  21.718  43.874   5.088
81960W        W51841   7.231   8.288  13.013
81961W        W51842  11.675  11.773  13.356
81962W        W51843  21.757  27.447   0.909
81963W        W51844  37.464  39.868  11.926
81964W        W51845  40.890  20.103   3.838
81965W        W51846  43.361   7.883   0.813
81966W        W51847   7.409   1.467   0.815
81967W        W51848   3.837  32.984   2.259
81968W        W51849  34.117  15.735  13.953
81969W        W51850  24.024  36.589  14.446
81970W        W51851  43.958  26.988   1.701
81971W        W51852  19.202  30.009  13.454
81972W        W51853   5.771   5.755  10.966
81973W        W51854  32.595  17.595   5.582
81974W        W51855  23.569   6.318  14.288
81975W        W51856   3.453   2.394   0.820
81976W        W51857   7.723  29.483  11.530
81977W        W51858  14.818  25.216   5.300
81978W        W51859  41.509  30.639  13.018
81979W        W51860  31.962   6.369  11.534
81980W        W51861   0.793  43.403   4.272
81981W        W51862  25.055  44.956   1.750
81982W        W51863   3.825  26.079   2.824
81983W        W51864  33.621  12.618  11.541
81984W        W51865  37.004  38.032  14.837
81985W        W51866   8.305  29.438  12.905
81986W        W51867  24.008  14.759   1.887
81987W        W51868  30.963  18.218   1.711
81988W        W51869  44.494  28.014  12.873
81989W        W51870   4.382  34.489   4.724
81990W        W51871  12.294  12.198  10.548
81991W        W51872  12.289  33.913  14.760
81992W        W51873   1.284  24.172   2.800
81993W        W51874  38.565  43.801  13.944
81994W        W51875  33.569  12.212   2.739
81995W        W51876  39.964  21.692  14.459
81996W        W51877   5.224  21.223  14.872
81997W        W51878  11.304   5.889  11.496
81998W        W51879  30.919  42.994   0.399
81999W        W51880  43.975  34.982  14.303
82000W        W51881   0.873   4.343   1.790
82001W        W51882  27.650  30.473  14.443
82002W        W51883  12.194  33.947  13.797
82003W        W51884  22.243   1.794   2.405
82004W        W51885  14.299   8.890  13.357
82005W        W51886  13.267  42.924  14.849
82006W        W51887  36.557  39.418  11.579
82007W        W51888  28.562  25.631   9.989
82008W        W51889   4.813  20.208  10.623
82009W        W51890  29.569  42.434  12.077
82010W        W51891   1.826  41.370   0.925
82011W        W51892   9.343   0.460   0.410
82012W        W51893  34.446  12.260  12.474
82013W        W51894  19.192  29.603   3.776
82014W        W51895  11.783  30.642  13.063
82015W        W51896   6.372  17.271   0.420
82016W        W51897  18.154   6.792   4.729
82017W        W51898   1.847  44.308  14.821
82018W        W51899  19.595  44.428  11.473
82019W        W51900  29.949  23.042   4.271
82020W        W51901   7.872  38.510  12.910
82021W        W51902  10.807   3.781  10.440
82022W        W51903   0.386  27.676  13.392
82023W        W51904  35.448  41.298  12.417
82024W        W51905  12.772  33.494  11.900
82025W        W51906  17.557   4.800   3.727
82026W        W51907  42.867  15.665   0.441
82027W        W51908  40.888  40.500  12.895
82028W        W51909  37.901  13.783  14.415
82029W        W51910  36.390  44.420   3.797
82030W        W51911  18.261  20.053   1.242
82031W        W51912  39.982  31.142   1.747
82032W        W51913  34.960   3.882  10.973
82033W        W51914  36.906  27.465  11.958
82034W        W51915  13.634  12.205   0.967
82035W        W51916  33.478   5.280   2.190
82036W        W51917  30.597  44.318   1.267
82037W        W51918   1.434  39.484  10.599
82038W        W51919  27.681   6.192  14.449
82039W        W51920  23.077  19.580   3.728
82040W        W51921   2.854  29.446  10.429
82041W        W51922  39.459  30.984  11.039
82042W        W51923  32.900  35.064  13.797
82043W        W51924  36.468  38.831  14.333
82044W        W51925  43.009  22.600  14.911
82045W        W51926  40.937  34.417   3.821
82046W        W51927   3.728  21.168  13.363
82047W        W51928   7.683  37.570  11.591
82048W        W51929  12.230  24.062  12.085
82049W        W51930  36.348  33.543  11.482
82050W        W51931  26.480  39.863   2.696
82051W        W51932  10.183  18.100  12.492
82052W        W51933  10.748  30.030  12.034
82053W        W51934   1.286  34.410   4.119
82054W        W51935  23.141  32.078   2.290
82055W        W51936  20.705  33.007  12.049
82056W        W51937  44.811  21.051  11.440
82057W        W51938  20.728   6.813   1.441
82058W        W51939  17.280  29.105   0.466
82059W        W51940   9.762  40.472   2.685
82060W        W51941   7.225  34.477  13.336
82061W        W51942  19.157  28.974   2.706
82062W        W51943  40.001  25.116   1.447
82063W        W51944  43.008  22.617  12.968
82064W        W51945   1.872  36.491  13.796
82065W        W51946  10.858   2.292  11.936
82066W        W51947  25.172  25.976   4.720
82067W        W51948  40.503  29.001  12.910
82068W        W51949  13.175  22.631  13.819
82069W        W51950  34.412  25.637   4.226
82070W        W51951  32.973  17.082  12.569
82071W        W51952  14.808  41.805   4.672
82072W        W51953   9.157  10.735   0.254
82073W        W51954  19.701  37.942  11.050
82074W        W51955  17.080   3.391   0.346
82075W        W51956  13.169   5.207  14.030
82076W        W51957  24.980  44.350  13.060
82077W        W51958   1.784  15.767   1.888
82078W        W51959  39.350  42.001   1.325
82079W        W51960  29.458  18.172  13.030
82080W        W51961  19.768   8.807   0.288
82081W        W51962  21.092  18.091   1.885
82082W        W51963  29.446   4.842  14.839
82083W        W51964  13.825   5.691   2.840
82084W        W51965  44.393  41.460   3.863
82085W        W51966  41.794  43.791  10.560
82086W        W51967  43.861  10.771  12.339
82087W        W51968  30.945  19.541   2.748
82088W        W51969   6.280  18.051  13.427
82089W        W51970  43.010  22.048   3.842
82090W        W51971  17.786  25.187  11.073
82091W        W51972   2.233  12.754  10.618
82092W        W51973  24.525  22.995  12.513
82093W        W51974  32.466   2.862  14.990
82094W        W51975  17.181   8.287   2.901
82095W        W51976  22.518  37.835  14.027
82096W        W51977  41.466  16.088  14.939
82097W        W51978   9.785  15.142  14.511
82098W        W51979  24.501  23.105  12.877
82099W        W51980  17.182   4.897   1.920
82100W        W51981  20.705  42.524  14.921
82101W        W51982   3.882  13.263  14.022
82102W        W51983  22.064  10.841   0.794
82103W        W51984   7.393  13.750   1.367
82104W        W51985  37.868  40.861  12.915
82105W        W51986  33.923  24.074  12.939
82106W        W51987   0.815  15.179  10.903
82107W        W51988   8.845  11.263   3.384
82108W        W51989  10.243  35.987  11.552
82109W        W51990  36.071  14.722   3.768
82110W        W51991  26.679   3.923   0.866
82111W        W51992  43.932  20.699   2.230
82112W        W51993  33.514  27.518  13.437
82113W        W51994  17.183  35.954  11.026
82114W        W51995  40.378  19.255   0.284
82115W        W51996  35.084   6.261  12.366
82116W        W51997  34.582  27.051   3.341
82117W        W51998  12.301  35.869  12.498
82118W        W51999   8.725  13.177  14.289
82119W        W52000  20.753   1.417   0.777
82120W        W52001  37.421  29.520  13.336
82121W        W52002  43.846   3.389  14.353
82122W        W52003  39.363  38.059  11.881
82123W        W52004  33.975  38.943  13.813
82124W        W52005  14.201  28.607   1.747
82125W        W52006  22.042  22.135  12.031
82126W        W52007  31.445  14.623  14.821
82127W        W52008  11.671   1.800   3.226
82128W        W52009  15.228  43.930   0.953
82129W        W52010   8.319  29.556   3.177
82130W        W52011  22.526  24.003  10.066
82131W        W52012   6.679   4.764   1.282
82132W        W52013  40.428  39.481   3.156
82133W        W52014  42.864  10.284   2.203
82134W        W52015   4.753   7.673   0.771
82135W        W52016   2.451   4.710  11.541
82136W        W52017  22.508  43.864   4.350
82137W        W52018  32.041   5.222  10.418
82138W        W52019  32.010  23.672   3.708
82139W        W52020   7.233  37.562   4.740
82140W        W52021   3.247   3.226  14.764
82141W        W52022  11.285  30.536  12.477
82142W        W52023  12.135   2.855  14.371
82143W        W52024  24.198  32.522   3.267
82144W        W52025   5.361  36.514  10.446
82145W        W52026  28.154  39.478  11.382
82146W        W52027  39.872  19.547   3.864
82147W        W52028  42.497  24.120  10.893
82148W        W52029  22.520  44.337  11.918
82149W        W52030  20.245  30.567   0.304
82150W        W52031  35.539   0.761  10.948
82151W        W52032  23.133  10.653  12.824
82152W        W52033  10.196   5.832  14.972
82153W        W52034  30.584  38.554  14.794
82154W        W52035  27.657  38.531  11.090
82155W        W52036  27.039  13.670   1.341
82156W        W52037  15.753  21.174  12.425
82157W        W52038  29.140   0.815  13.039
82158W        W52039  30.452  38.429  13.952
82159W        W52040  14.805  21.596  13.357
82160W        W52041  36.093  27.180   2.409
82161W        W52042   7.193  25.963  12.534
82162W        W52043  13.771   1.420   1.933
82163W        W52044  28.111  36.486  11.979
82164W        W52045  43.496  16.078   1.317
82165W        W52046  29.579   5.810  11.899
82166W        W52047  35.029  31.438   2.735
82167W        W52048  37.848   4.932   1.895
82168W        W52049  17.141  31.976  12.426
82169W        W52050  30.533  34.978   0.256
82170W        W52051  10.739  38.981  11.455
82171W        W52052   3.786  29.072  14.323
82172W        W52053  12.167  27.144   1.773
82173W        W52054  32.018  12.728  14.032
82174W        W52055   1.482  21.022   2.685
82175W        W52056  20.133  19.744  13.515
82176W        W52057  17.753   8.714  13.409
82177W        W52058  16.278   4.315   4.620
82178W        W52059  27.489  24.091   9.527
82179W        W52060  22.740  20.266  11.406
82180W        W52061   0.387  27.620  12.063
82181W        W52062  26.205   3.406   4.744
82182W        W52063  21.047  33.921  13.409
82183W        W52064  20.041  31.648   2.837
82184W        W52065  24.113   7.406   0.333
82185W        W52066   6.903  41.390  14.826
82186W        W52067  21.682  31.065   3.308
82187W        W52068  18.121  44.433   3.871
82188W        W52069  32.048  22.606   0.784
82189W        W52070   5.764  16.811   4.198
82190W        W52071  27.472   8.871   2.265
82191W        W52072  11.359  18.665  13.309
82192W        W52073  31.963  39.057   0.818
82193W        W52074   4.431  32.906  13.388
82194W        W52075   6.830  12.761  14.345
82195W        W52076  33.578  14.704   3.158
82196W        W52077  19.544  26.056   0.474
82197W        W52078  19.284  31.981  10.594
82198W        W52079  26.114  42.951   3.726
82199W        W52080  43.417  30.587   5.223
82200W        W52081  31.968  29.623   3.308
82201W        W52082  42.987   1.444  10.592
82202W        W52083  41.373  25.008  12.046
82203W        W52084  28.158  35.518   0.939
82204W        W52085   5.761   2.925   2.260
82205W        W52086  20.596  41.357   3.734
82206W        W52087   0.826  29.920   0.939
82207W        W52088  10.164  16.126   4.745
82208W        W52089  42.281  14.215  13.431
82209W        W52090  25.589   9.719   1.698
82210W        W52091  24.977  25.523  11.053
82211W        W52092  31.547  23.567   1.835
82212W        W52093  32.445  34.083   4.137
82213W        W52094  14.631  13.716   0.355
82214W        W52095  34.047   3.414   4.182
82215W        W52096  16.778  25.580   1.720
82216W        W52097  15.815  29.113   3.197
82217W        W52098  19.185  42.880  13.393
82218W        W52099  37.546  29.166  10.566
82219W        W52100  23.677  18.741   5.314
82220W        W52101  36.444  14.688   3.292
82221W        W52102  15.584  35.005   4.678
82222W        W52103  42.484  10.261   0.419
82223W        W52104  34.011  32.926   4.280
82224W        W52105  35.948  11.818  11.043
82225W        W52106  23.233  18.106  12.883
82226W        W52107   5.932   4.865  13.544
82227W        W52108  38.010  33.572   1.377
82228W        W52109   8.805  31.119   0.451
82229W        W52110  17.122  11.188   1.781
82230W        W52111  16.615   7.350  14.344
82231W        W52112  26.060   0.872   0.273
82232W        W52113  43.358  24.603  13.445
82233W        W52114   1.253  18.788   2.809
82234W        W52115   0.406   9.171   1.784
82235W        W52116  17.797  32.546  11.027
82236W        W52117   3.432  37.395   0.390
82237W        W52118  12.282  19.118  14.402
82238W        W52119  39.484   5.346   4.348
82239W        W52120  15.280  23.713   2.701
82240W        W52121   8.809   1.891  11.494
82241W        W52122  37.510  43.009   1.805
82242W        W52123   3.307   0.421   3.169
82243W        W52124  33.510  12.701  13.841
82244W        W52125  36.998  20.711  14.396
82245W        W52126  15.219  36.908  13.495
82246W        W52127  33.412  25.539   4.685
82247W        W52128  20.179  31.007   1.713
82248W        W52129  44.373   8.381   2.708
82249W        W52130  20.170  20.624   4.711
82250W        W52131  20.122   4.255   1.704
82251W        W52132   2.363  11.832  13.909
82252W        W52133  12.612  41.536   0.248
82253W        W52134  35.524  39.934   3.740
82254W        W52135   4.901   6.232  14.956
82255W        W52136   0.920   0.432  13.813
82256W        W52137  23.559   6.252   2.221
82257W        W52138  31.016  11.301  11.571
82258W        W52139   0.802   6.328  11.610
82259W        W52140  41.918  44.333  14.809
82260W        W52141  43.787  31.092   2.393
82261W        W52142  11.346  33.969   4.133
82262W        W52143   8.391  10.867   1.709
82263W        W52144  43.478  19.764   3.225
82264W        W52145  30.494   0.756   4.261
82265W        W52146  29.984  12.357   1.285
82266W        W52147  43.498  24.521   1.903
82267W        W52148  11.778  12.175   1.746
82268W        W52149  15.316   6.863   0.953
82269W        W52150  26.543  12.673  12.074
82270W        W52151  43.298  26.618  10.582
82271W        W52152  12.713  44.385   2.771
82272W        W52153  25.665  41.904  11.418
82273W        W52154  40.875  17.090   0.451
82274W        W52155  33.380  32.130  13.995
82275W        W52156  17.785   4.409  11.041
82276W        W52157  27.638   9.277   1.437
82277W        W52158  22.151  22.039  11.024
82278W        W52159   2.391   7.897  14.004
82279W        W52160  26.607   5.302   0.348
82280W        W52161   8.330  17.105   0.775
82281W        W52162  34.417  24.147  12.904
82282W        W52163  33.019  35.544   3.640
82283W        W52164   4.374   2.736  13.811
82284W        W52165  25.702  15.227  11.032
82285W        W52166  15.179  42.301   0.821
82286W        W52167  11.174  26.578   0.379
82287W        W52168  22.568   0.257  11.408
82288W        W52169  44.959   9.308  11.075
82289W        W52170  38.396  36.509   0.376
82290W        W52171  16.297  28.069  14.824
82291W        W52172  38.984  16.225  12.342
82292W        W52173  38.956  25.518  11.126
82293W        W52174  15.137   3.259  11.126
82294W        W52175  27.958  18.116  11.949
82295W        W52176  13.247   0.858  14.276
82296W        W52177  21.561   3.388   4.115
82297W        W52178  33.469  34.492   4.349
82298W        W52179  13.662   5.412   1.316
82299W        W52180  13.134  32.607   1.413
82300W        W52181  10.258  25.519   4.764
82301W        W52182   3.347  15.598  11.536
82302W        W52183  19.597  11.667   2.783
82303W        W52184  30.149  26.544   4.301
82304W        W52185  31.102  18.248   1.327
82305W        W52186   4.733  20.077  13.521
82306W        W52187  23.574  38.048  11.450
82307W        W52188  26.101  39.860  12.490
82308W        W52189  19.164   0.754   2.780
82309W        W52190  14.210  21.615  11.591
82310W        W52191  23.241  34.583  14.489
82311W        W52192  24.000  35.056  12.422
82312W        W52193   4.409   1.442   4.294
82313W        W52194  37.868  37.404  13.016
82314W        W52195   3.917  41.353   3.864
82315W        W52196  20.031  10.169  11.958
82316W        W52197   3.402  14.307   4.343
82317W        W52198  36.493  38.877  12.069
82318W        W52199  10.316   6.754  13.928
82319W        W52200  15.643  40.801  12.042
82320W        W52201  20.637   7.773   4.147
82321W        W52202   8.399  21.534  11.541
82322W        W52203  21.181  15.189  12.989
82323W        W52204  19.755  16.203   1.305
82324W        W52205  36.900   2.374  12.980
82325W        W52206   5.836  17.678  13.344
82326W        W52207  15.578  13.644   0.243
82327W        W52208  41.329  25.033   3.845
82328W        W52209  42.955   9.153  13.974
82329W        W52210  14.239  35.869  13.911
82330W        W52211   9.810  29.136  11.558
82331W        W52212  17.775  36.096  11.382
82332W        W52213  14.712  25.627  11.453
82333W        W52214  33.585   0.977  12.034
82334W        W52215  15.295  10.710  14.903
82335W        W52216  44.360  14.744  13.395
82336W        W52217  34.591   2.758   3.226
82337W        W52218   9.255   4.317  13.460
82338W        W52219  31.136   3.429   5.180
82339W        W52220  38.826  29.023   3.351
82340W        W52221  14.174   4.377   3.857
82341W        W52222  27.947  38.554  12.520
82342W        W52223  24.093  38.855   3.774
82343W        W52224  13.191  44.768   3.357
82344W        W52225  30.479  43.355   4.153
82345W        W52226  12.275   7.778  11.594
82346W        W52227  27.973   3.748  12.481
82347W        W52228   3.391  41.791  11.007
82348W        W52229   1.432  36.588   3.672
82349W        W52230  29.500  14.796   2.786
82350W        W52231  27.961  15.622  14.305
82351W        W52232  26.191  28.023  12.002
82352W        W52233   5.432  41.850   2.406
82353W        W52234  26.608  20.559   1.403
82354W        W52235  42.837   0.971   2.685
82355W        W52236  11.196  40.958  12.495
82356W        W52237   9.832  31.576  14.774
82357W        W52238   9.345  44.398   3.211
82358W        W52239   3.861   3.443  12.847
82359W        W52240  20.102   1.243  11.010
82360W        W52241  13.713  42.302  14.440
82361W        W52242  32.434  19.229   2.832
82362W        W52243  11.143  14.643   2.896
82363W        W52244  25.588  18.621  12.063
82364W        W52245  40.421   4.914   2.372
82365W        W52246  36.086   4.890  10.509
82366W        W52247  13.274  29.562  10.066
82367W        W52248  11.308  15.629  14.506
82368W        W52249  34.091  36.540   3.689
82369W        W52250  20.250  38.034  14.866
82370W        W52251  20.616  33.898   4.745
82371W        W52252  21.533  34.556   5.306
82372W        W52253   8.865   6.348  10.588
82373W        W52254  33.541  11.247  13.010
82374W        W52255  40.390  13.746   1.818
82375W        W52256  24.702  37.582   2.264
82376W        W52257  12.628  16.750   2.218
82377W        W52258  16.308  26.595  13.511
82378W        W52259  11.820  18.625  14.431
82379W        W52260   5.755  22.718   2.862
82380W        W52261  27.182  32.607  13.446
82381W        W52262   5.303  29.950   0.732
82382W        W52263  12.291  36.051   2.695
82383W        W52264  34.054  25.477  11.012
82384W        W52265   8.754  36.890   0.870
82385W        W52266  44.913  41.508  10.565
82386W        W52267  40.539  41.439   1.741
82387W        W52268  28.996  25.600   5.315
82388W        W52269  41.919  38.370   2.370
82389W        W52270  15.250  28.630  14.004
82390W        W52271   1.871  21.174  11.871
82391W        W52272  37.428  44.903   0.408
82392W        W52273  15.600  20.573   3.351
82393W        W52274  38.533  28.665   0.321
82394W        W52275  16.632  10.740  10.491
82395W        W52276  18.058  11.862   4.175
82396W        W52277  28.155  37.017   0.746
82397W        W52278  13.253   0.987   0.836
82398W        W52279   0.987  18.061   2.768
82399W        W52280  42.831  32.565  12.040
82400W        W52281  13.747  17.561   1.862
82401W        W52282   6.360   4.941   3.198
82402W        W52283  22.073  38.845  14.027
82403W        W52284   7.804  28.648  13.043
82404W        W52285  34.993  29.482   3.846
82405W        W52286  17.683  17.704  11.867
82406W        W52287   9.890   7.357  13.524
82407W        W52288   4.878  24.635  10.934
82408W        W52289  29.959  32.910  10.503
82409W        W52290  44.361  10.367   5.192
82410W        W52291  22.619  43.901  13.481
82411W        W52292  11.817  29.932   4.125
82412W        W52293  12.149  37.956   3.146
82413W        W52294  37.403  28.446   4.167
82414W        W52295  43.873  36.589   4.320
82415W        W52296  35.886   6.375  14.502
82416W        W52297   9.842   3.718  12.840
82417W        W52298  39.907  31.078  12.071
82418W        W52299  27.571  38.527   1.357
82419W        W52300  19.538  38.866  11.945
82420W        W52301  18.115  41.802  11.466
82421W        W52302  22.587   5.401   0.738
82422W        W52303  10.246  14.217  12.467
82423W        W52304  30.654  23.108   1.319
82424W        W52305  18.557   3.713   4.302
82425W        W52306   8.844  44.823   2.371
82426W        W52307  10.849  42.446   0.401
82427W        W52308  17.081  42.007   2.842
82428W        W52309  41.790   4.407  11.444
82429W        W52310  19.554  41.853  11.480
82430W        W52311  40.454  28.622  14.848
82431W        W52312  34.596  42.824  11.857
82432W        W52313  18.778  13.615   0.461
82433W        W52314  20.764  26.547  14.336
82434W        W52315  37.488  42.883   2.187
82435W        W52316  32.599  31.446   0.277
82436W        W52317  29.159  27.644   0.795
82437W        W52318  11.804  44.989  13.816
82438W        W52319  12.785   9.716   3.797
82439W        W52320  44.848  19.773  13.057
82440W        W52321  20.740  29.077  12.948
82441W        W52322  25.186   7.701   3.819
82442W        W52323  16.182   4.364  11.894
82443W        W52324  33.480  25.034   3.374
82444W        W52325  18.743  18.712   2.769
82445W        W52326  14.626  20.524   0.326
82446W        W52327  14.105  21.518  14.435
82447W        W52328  10.318  34.012  13.494
82448W        W52329  17.594   4.926  10.468
82449W        W52330   1.917   5.213  13.821
82450W        W52331  17.560  39.978  11.082
82451W        W52332  22.111  35.392  11.035
82452W        W52333   1.314  34.893  13.940
82453W        W52334   6.738  35.448   2.752
82454W        W52335  30.549   0.309   3.277
82455W        W52336  36.007  43.848  11.888
82456W        W52337  29.936  10.237   0.911
82457W        W52338  29.991  30.421   3.632
82458W        W52339  27.074  38.493   2.780
82459W        W52340  42.862  26.196  11.069
82460W        W52341  28.092  33.904   3.684
82461W        W52342  14.794  15.130   3.767
82462W        W52343  28.012  31.577  13.323
82463W        W52344  37.397  27.045   0.845
82464W        W52345  32.616  37.925  12.080
82465W        W52346  40.054  10.657   3.758
82466W        W52347  10.267   2.416   4.822
82467W        W52348  34.547  24.983   2.377
82468W        W52349   1.455   7.786  12.888
82469W        W52350  11.742  21.661  14.428
82470W        W52351  38.483  21.756  13.384
82471W        W52352   4.322  13.771   3.775
82472W        W52353  43.515  24.206   4.224
82473W        W52354  20.243   2.735  12.867
82474W        W52355  32.620  21.581  13.410
82475W        W52356   7.314  34.907   4.307
82476W        W52357  30.159  34.046  12.969
82477W        W52358  20.274  23.697   1.262
82478W        W52359   9.756   8.223  14.479
82479W        W52360  17.568  34.010   1.727
82480W        W52361   9.293  39.543   0.453
82481W        W52362   3.449  11.829   1.922
82482W        W52363   6.340  38.422  10.425
82483W        W52364   4.263  42.016   0.859
82484W        W52365  26.668  37.376  11.046
82485W        W52366  35.599  43.811  11.013
82486W        W52367  17.241  30.427   1.409
82487W        W52368  24.102  23.136  11.423
82488W        W52369  32.967   2.933   4.137
82489W        W52370  10.866  35.024  13.439
82490W        W52371  12.694  42.020  11.856
82491W        W52372   9.681  27.671   3.751
82492W        W52373   6.383  16.724  11.606
82493W        W52374  35.990  17.678   3.290
82494W        W52375  38.558  12.311   0.302
82495W        W52376   4.854  41.009   0.308
82496W        W52377  11.279  30.982  13.055
82497W        W52378  42.444  25.147   1.301
82498W        W52379   6.231   6.292  12.040
82499W        W52380  23.205  27.602  13.904
82500W        W52381  22.554  37.917  14.869
82501W        W52382  19.247  18.154  11.386
82502W        W52383  20.146  44.938  11.490
82503W        W52384  43.498  31.147   4.755
82504W        W52385  15.143  40.911   4.822
82505W        W52386  11.697  32.100   2.695
82506W        W52387  26.617  15.260  13.475
82507W        W52388  19.591  19.091  11.503
82508W        W52389  20.522  29.522  10.427
82509W        W52390  37.567   0.434  14.425
82510W        W52391  17.244  19.092  10.494
82511W        W52392  28.595  33.405  11.017
82512W        W52393   6.724  17.571  14.354
82513W        W52394  25.650  25.646  14.016
82514W        W52395  19.166  43.937   3.256
82515W        W52396   4.756  13.650  11.515
82516W        W52397   6.299  28.148   1.442
82517W        W52398   4.728  33.986   1.809
82518W        W52399  25.625   6.764   0.902
82519W        W52400  16.625  33.436  11.523
82520W        W52401  28.456  39.552  10.888
82521W        W52402   0.427  26.032   1.275
82522W        W52403   2.919   9.394   4.328
82523W        W52404  33.006  29.593   2.886
82524W        W52405  36.011  13.148  14.339
82525W        W52406  42.419  28.059  14.017
82526W        W52407  19.192   9.286   3.727
82527W        W52408   3.869  38.967   0.475
82528W        W52409   4.410  10.235   4.758
82529W        W52410  44.864  38.911   0.928
82530W        W52411  15.660   5.815  10.910
82531W        W52412  40.320   7.349   0.447
82532W        W52413  20.631   4.755   4.173
82533W        W52414  22.509   4.274   0.853
82534W        W52415  20.103  21.636  12.953
82535W        W52416   4.760  16.619  11.384
82536W        W52417  26.092   5.708  12.834
82537W        W52418   0.317  16.636   0.945
82538W        W52419   6.345  36.939   0.462
82539W        W52420  21.086  22.529   4.838
82540W        W52421   3.871  36.559   3.337
82541W        W52422   8.663   9.652   0.756
82542W        W52423  17.281  13.261   2.878
82543W        W52424  33.069  13.133  12.413
82544W        W52425  30.078  28.106   2.197
82545W        W52426  17.640   9.289   0.751
82546W        W52427  39.835  37.911   2.792
82547W        W52428  37.512  10.329  13.461
82548W        W52429  38.380  13.202  12.438
82549W        W52430  17.644  40.014  13.037
82550W        W52431  30.020  41.907   4.290
82551W        W52432  20.673   8.741  11.858
82552W        W52433   1.367  10.178  14.859
82553W        W52434  36.364  33.391  10.522
82554W        W52435  41.032  12.629  14.965
82555W        W52436  43.785  36.039  11.042
82556W        W52437  15.174  10.201  13.042
82557W        W52438  16.621  32.921   1.392
82558W        W52439  19.229  36.977  11.981
82559W        W52440  37.560  33.940   4.745
82560W        W52441  11.180  42.010  14.028
82561W        W52442  22.563  32.060   0.275
82562W        W52443   2.401  22.136  10.630
82563W        W52444  44.770  41.938   2.884
82564W        W52445  20.232  44.387   2.731
82565W        W52446   3.247   9.698  12.340
82566W        W52447  26.604  11.308   0.738
82567W        W52448  42.865   4.433  11.412
82568W        W52449  31.424  15.816   5.749
82569W        W52450   5.805  43.808   3.676
82570W        W52451  29.117  25.615   5.683
82571W        W52452  44.478   5.792   4.639
82572W        W52453  17.090  39.036   1.223
82573W        W52454  35.859   3.220  11.445
82574W        W52455   5.716  38.559   1.862
82575W        W52456  25.189  35.102  12.006
82576W        W52457  38.015   3.294   2.892
82577W        W52458  38.494   8.404   4.634
82578W        W52459   9.808  21.145  10.040
82579W        W52460   1.352  33.596  14.475
82580W        W52461  29.974  17.244  11.510
82581W        W52462  31.921  29.921   0.342
82582W        W52463  16.585  29.493  14.325
82583W        W52464  11.627   4.234  10.643
82584W        W52465   3.318  38.500  13.339
82585W        W52466  40.948  28.507   3.837
82586W        W52467  41.948   5.381  12.384
82587W        W52468   2.290   5.432   4.702
82588W        W52469  13.231  34.886   0.882
82589W        W52470   3.711  13.611   4.316
82590W        W52471  31.920  16.671   0.955
82591W        W52472  35.985  39.957  12.065
82592W        W52473  21.156  35.875  12.393
82593W        W52474  42.439  22.651  14.338
82594W        W52475  36.914  32.985  11.108
82595W        W52476   4.745  32.412  14.347
82596W        W52477  18.563  13.813  13.893
82597W        W52478  14.602   2.908   3.775
82598W        W52479   6.783  26.670  10.985
82599W        W52480  39.438  20.117  13.832
82600W        W52481  40.889  33.597   0.256
82601W        W52482   3.796  32.954  12.062
82602W        W52483  31.154  14.756  13.036
82603W        W52484   3.761  34.477   4.133
82604W        W52485  32.513  10.763  14.450
82605W        W52486  42.476  43.293   3.699
82606W        W52487  19.254   0.383  13.517
82607W        W52488  26.497  18.553  12.839
82608W        W52489  36.898  38.917  13.938
82609W        W52490  28.501  36.036  11.384
82610W        W52491  36.858  19.674  10.992
82611W        W52492   9.887  14.213   4.285
82612W        W52493  44.854   0.387  10.998
82613W        W52494  12.345  33.397   3.779
82614W        W52495  16.098  17.098  13.873
82615W        W52496   7.874  35.577  12.035
82616W        W52497   0.340  10.663   2.306
82617W        W52498   6.309   4.437  11.435
82618W        W52499  14.181  20.209   5.262
82619W        W52500  27.684  26.684  13.048
82620W        W52501  37.348  25.604  12.565
82621W        W52502   7.313  21.250  13.841
82622W        W52503  30.460   1.919  14.364
82623W        W52504  14.742  28.028   3.289
82624W        W52505  31.119  18.782   1.832
82625W        W52506  27.530  27.006   2.228
82626W        W52507  24.510  11.368   4.257
82627W        W52508  26.185  41.855   0.404
82628W        W52509  34.399  35.525   1.717
82629W        W52510  30.999  33.906  12.987
82630W        W52511   2.830   3.447   3.725
82631W        W52512  22.704  27.181  14.897
82632W        W52513  24.697  33.511  12.005
82633W        W52514   8.363  23.649  13.372
82634W        W52515  30.919  34.030   0.779
82635W        W52516  40.349  16.666  10.955
82636W        W52517   7.892  28.507   3.167
82637W        W52518  32.978  21.707  13.875
82638W        W52519  40.904  28.040   4.276
82639W        W52520  14.322  34.467   4.680
82640W        W52521  37.338   2.826   4.792
82641W        W52522   3.853  29.172  12.056
82642W        W52523  15.664   8.887   2.280
82643W        W52524   1.906  18.709  10.892
82644W        W52525  32.432  14.812   2.834
82645W        W52526  31.557  44.343   0.458
82646W        W52527  28.141  20.176  11.608
82647W        W52528   4.278   9.318   2.338
82648W        W52529  41.531  36.940   4.631
82649W        W52530  15.615  31.625  13.365
82650W        W52531   8.805  25.964  13.861
82651W        W52532  41.485   9.655  11.889
82652W        W52533  15.604  28.488   1.712
82653W        W52534   0.295  14.185   1.238
82654W        W52535  36.910   8.290   3.716
82655W        W52536  15.302  16.243  12.027
82656W        W52537  31.411  37.344  11.557
82657W        W52538  13.626  30.468   1.870
82658W        W52539  27.610  12.201   1.332
82659W        W52540   6.793  17.773  12.433
82660W        W52541  26.081  23.521  13.818
82661W        W52542  19.700  30.109  14.299
82662W        W52543  31.020  39.538   3.758
82663W        W52544   1.888  26.054   4.309
82664W        W52545   3.847  36.370   2.309
82665W        W52546  31.922  32.979  11.579
82666W        W52547  36.092  27.577   4.767
82667W        W52548  28.641  15.585   2.715
82668W        W52549  32.078   8.876  13.923
82669W        W52550  37.893  25.128   0.462
82670W        W52551   8.843  44.349  14.363
82671W        W52552  18.087  20.698   2.362
82672W        W52553  12.732  39.538  10.623
82673W        W52554  37.403  39.860  10.557
82674W        W52555  23.023  14.767   1.728
82675W        W52556   2.394  27.668  14.881
82676W        W52557  42.860  38.570  13.792
82677W        W52558  30.126   2.892   2.811
82678W        W52559   5.408  41.975   3.163
82679W        W52560  32.012   6.277   4.718
82680W        W52561   9.852  10.256  13.825
82681W        W52562   9.376  44.875  11.019
82682W        W52563  40.917  21.742  14.785
82683W        W52564  29.642  11.173   9.936
82684W        W52565  38.063  27.160  13.453
82685W        W52566  19.247  17.123   0.945
82686W        W52567   1.970  23.128  12.063
82687W        W52568   6.311  26.668  10.130
82688W        W52569  43.485   0.869   3.207
82689W        W52570  13.271   2.421   0.842
82690W        W52571  33.624  16.156   4.271
82691W        W52572   3.261  29.664  14.881
82692W        W52573  28.580  31.629  11.948
82693W        W52574  30.948  26.622   0.433
82694W        W52575  26.498  36.957   0.738
82695W        W52576  18.202  28.116  14.439
82696W        W52577  44.443  43.928   0.436
82697W        W52578  26.699  20.158   1.373
82698W        W52579  38.433  22.121  13.936
82699W        W52580  10.284   0.838  14.770
82700W        W52581  23.121   6.817   3.320
82701W        W52582  37.898   3.712   0.807
82702W        W52583  21.173  14.623  13.873
82703W        W52584  43.381  14.312   2.691
82704W        W52585  23.724  38.905   4.193
82705W        W52586  23.001  25.194  11.563
82706W        W52587  32.008  21.204  14.908
82707W        W52588  26.610  23.619   9.580
82708W        W52589  27.507   6.914  12.511
82709W        W52590  37.905  35.941   1.713
82710W        W52591   5.838  11.819  12.358
82711W        W52592  22.105  36.076   1.424
82712W        W52593  21.644  16.698   0.267
82713W        W52594  20.647  34.029  11.100
82714W        W52595  29.625  12.662   4.217
82715W        W52596  17.766  16.627  11.541
82716W        W52597   1.379   6.325   0.891
82717W        W52598  43.487  12.648  11.936
82718W        W52599  42.996   8.665   3.646
82719W        W52600  29.005  44.275   0.884
82720W        W52601   3.437   6.184  15.000
82721W        W52602  31.557  34.054   2.285
82722W        W52603  12.640  15.750  10.909
82723W        W52604   5.812  30.634  13.475
82724W        W52605  11.252  18.655   0.354
82725W        W52606  33.469  13.737  12.941
82726W        W52607  20.223   2.842   2.253
82727W        W52608  35.591  39.002  11.021
82728W        W52609  19.244  37.494  11.966
82729W        W52610  28.518   8.859   3.198
82730W        W52611  27.671  17.096   2.839
82731W        W52612  37.912  17.784  13.925
82732W        W52613  33.603  18.604  11.387
82733W        W52614   2.433  32.546  10.620
82734W        W52615   3.846  27.985   2.866
82735W        W52616  10.280  29.014  10.010
82736W        W52617  31.411  11.207  14.320
82737W        W52618  27.075  34.494  14.358
82738W        W52619  22.516  25.065  14.274
82739W        W52620  22.744  20.541   0.760
82740W        W52621  17.264  20.729   1.855
82741W        W52622  44.841   5.741  11.064
82742W        W52623  11.770  25.079   4.151
82743W        W52624  17.304  12.613   5.299
82744W        W52625  43.990  23.643   1.781
82745W        W52626   9.371  34.415   1.713
82746W        W52627  18.684  41.528   1.240
82747W        W52628  23.638  27.154   0.292
82748W        W52629  10.810   2.437   2.319
82749W        W52630  12.711  34.447  10.488
82750W        W52631  17.693  17.115   1.419
82751W        W52632  23.706  20.072   2.246
82752W        W52633  10.873  26.078  11.403
82753W        W52634  36.473  38.510  11.541
82754W        W52635  40.331  27.150   4.796
82755W        W52636   7.291   6.831   0.445
82756W        W52637  16.104  41.393   0.810
82757W        W52638  34.597  19.720   1.343
82758W        W52639  10.678  41.798  12.409
82759W        W52640   0.759  16.590   0.919
82760W        W52641  28.583  40.959   3.322
82761W        W52642  12.351  11.824   2.842
82762W        W52643   0.277  13.111   4.330
82763W        W52644  22.556   1.436  13.515
82764W        W52645   6.378   5.928   2.879
82765W        W52646  43.311  17.792  11.033
82766W        W52647  27.633  21.591  12.483
82767W        W52648  15.243  20.650   0.936
82768W        W52649  26.076   7.885   1.298
82769W        W52650   4.746  44.758   2.768
82770W        W52651  44.269  23.005  11.101
82771W        W52652  44.786   8.797   4.242
82772W        W52653  40.044  11.626  11.384
82773W        W52654  23.652  17.725   1.346
82774W        W52655  38.821   7.777  13.847
82775W        W52656  23.496  11.159  11.908
82776W        W52657  13.768  37.902   2.273
82777W        W52658  13.107  13.823  11.548
82778W        W52659  43.497  13.165  14.331
82779W        W52660  39.883   4.759   4.134
82780W        W52661  37.567  32.886  12.500
82781W        W52662  35.956  15.131  13.392
82782W        W52663  29.104  38.889   4.670
82783W        W52664  25.045   8.234   4.324
82784W        W52665  13.683  25.992   3.283
82785W        W52666   0.858  18.619  13.900
82786W        W52667  36.561  15.791   3.312
82787W        W52668   6.311  34.098   2.818
82788W        W52669  25.711  36.014   2.210
82789W        W52670  22.224  29.155  14.031
82790W        W52671  17.714   3.307  10.995
82791W        W52672  14.166  26.973   0.256
82792W        W52673  13.715   7.822  10.466
82793W        W52674  19.602  27.624  12.875
82794W        W52675  16.286  25.995   3.671
82795W        W52676  33.012  30.087   4.351
82796W        W52677   0.475  40.530  11.959
82797W        W52678   8.730  22.593  13.477
82798W        W52679  21.075  44.954  13.014
82799W        W52680   1.933  26.988  12.509
82800W        W52681  39.324  31.614   3.223
82801W        W52682  20.106  11.738   3.363
82802W        W52683  41.307  36.965  13.530
82803W        W52684  30.464  12.287   0.835
82804W        W52685  29.513  35.064  14.400
82805W        W52686  14.126  35.491   3.227
82806W        W52687  26.649  31.589   1.762
82807W        W52688  25.589   2.803   2.884
82808W        W52689   8.680  30.635   2.233
82809W        W52690   0.438  29.006  14.390
82810W        W52691   2.272  38.853   4.831
82811W        W52692  44.364  32.034   3.635
82812W        W52693  28.113   6.802   2.679
82813W        W52694  28.469  43.405   4.632
82814W        W52695   0.866  41.307   3.763
82815W        W52696  35.989   5.788   4.140
82816W        W52697  41.303  17.586   1.282
82817W        W52698  15.627  37.964  14.930
82818W        W52699   3.236  40.852   3.630
82819W        W52700  43.016  37.542   1.928
82820W        W52701   6.808   5.887   0.369
82821W        W52702  33.409  37.444  10.131
82822W        W52703  30.915  17.130   1.284
82823W        W52704  31.036  30.097  10.418
82824W        W52705  29.656  30.089  12.455
82825W        W52706  14.318  15.107   4.140
82826W        W52707   2.415   4.898   9.947
82827W        W52708  12.817  15.780   0.806
82828W        W52709  36.404  20.546   1.364
82829W        W52710  43.816  43.795   0.946
82830W        W52711   8.687  17.688  14.950
82831W        W52712  38.383   0.835  14.808
82832W        W52713  41.369   4.892   5.210
82833W        W52714  12.186  22.541   1.849
82834W        W52715  19.536  19.045  13.825
82835W        W52716  26.959  28.436  12.997
82836W        W52717   1.483   9.156  12.027
82837W        W52718  38.530  37.463   3.724
82838W        W52719  26.523   9.764  12.864
82839W        W52720  31.044  12.757   2.810
82840W        W52721  33.560  15.772   1.858
82841W        W52722   8.828  38.957   4.599
82842W        W52723  22.169  28.535  13.027
82843W        W52724  14.310  33.901   2.222
82844W        W52725  19.269  24.142   3.755
82845W        W52726   7.175  16.196  11.888
82846W        W52727  39.058   8.256  14.472
82847W        W52728   4.709  42.357  11.560
82848W        W52729  36.495  21.125   4.638
82849W        W52730  13.818  30.056   2.371
82850W        W52731   0.916   4.886  10.641
82851W        W52732  26.173  14.335  13.529
82852W        W52733  30.413  18.082  14.437
82853W        W52734   2.300   5.891  11.979
82854W        W52735   7.225   8.875  11.030
82855W        W52736  23.227   1.740  13.064
82856W        W52737  43.316  31.498  11.479
82857W        W52738  27.584  39.023   0.473
82858W        W52739   6.206  43.498  14.294
82859W        W52740   8.308  26.973   2.738
82860W        W52741  14.288  28.617   2.815
82861W        W52742  38.835  19.773  10.139
82862W        W52743  22.564  42.972   0.901
82863W        W52744  21.166  42.410   0.759
82864W        W52745  17.787  28.453  13.052
82865W        W52746   3.782  29.562   0.290
82866W        W52747  23.650   1.305  13.400
82867W        W52748   5.215  26.111  11.541
82868W        W52749   0.955   7.871  12.926
82869W        W52750  15.188   6.907  14.318
82870W        W52751   8.205   3.817  14.781
82871W        W52752  18.284  12.613  11.990
82872W        W52753  14.240  21.218  12.010
82873W        W52754  29.173  30.092   0.850
82874W        W52755  12.652  19.707  10.991
82875W        W52756  33.445  11.689   9.945
82876W        W52757  11.336   0.835   3.682
82877W        W52758  26.146   9.753  13.523
82878W        W52759  28.120  32.407  12.027
82879W        W52760  32.496   9.283  11.992
82880W        W52761   6.211  39.044   0.736
82881W        W52762   8.770  15.292  13.939
82882W        W52763  41.408  32.939  11.930
82883W        W52764  21.046  36.425  13.044
82884W        W52765  21.692   8.206   3.230
82885W        W52766  19.205  39.024   1.300
82886W        W52767  41.985  27.108   1.812
82887W        W52768   8.215  33.430  13.799
82888W        W52769   2.435  13.136   3.785
82889W        W52770  44.271  37.528  10.604
82890W        W52771  25.053  37.410   2.767
82891W        W52772  14.777   1.959  10.035
82892W        W52773  10.804   1.389   2.274
82893W        W52774  39.026  43.880   3.356
82894W        W52775   0.251  30.460  11.092
82895W        W52776  35.963   8.710  13.380
82896W        W52777  17.704  10.167   4.778
82897W        W52778  32.888   2.299  11.033
82898W        W52779  24.086  16.238  11.995
82899W        W52780   5.389  35.935  10.907
82900W        W52781  14.297  11.635  13.476
82901W        W52782   7.740   9.175   2.732
82902W        W52783  29.455  35.030   2.196
82903W        W52784  18.123  30.136   0.924
82904W        W52785  21.146  15.626  14.917
82905W        W52786  30.027  32.513  14.372
82906W        W52787  16.156  24.660   4.257
82907W        W52788  25.999  43.913   3.251
82908W        W52789   0.423  41.800   2.195
82909W        W52790  24.510  39.854   1.399
82910W        W52791   8.752  34.369   0.828
82911W        W52792  34.071  32.548   2.295
82912W        W52793  35.879  17.658   1.870
82913W        W52794  20.549  16.270   1.421
82914W        W52795  26.583  27.620  10.982
82915W        W52796  33.498  32.995   2.345
82916W        W52797  25.673  38.469   4.293
82917W        W52798  14.178  30.500   2.209
82918W        W52799  26.541  10.292   2.758
82919W        W52800   6.677   5.331   3.232
82920W        W52801  33.946  34.595   4.169
82921W        W52802  25.034  24.075   4.787
82922W        W52803   7.324   7.834  10.465
82923W        W52804  26.593  33.575   2.845
82924W        W52805  19.595  34.419   4.758
82925W        W52806  23.603  23.141  12.572
82926W        W52807  34.990   2.454   1.374
82927W        W52808  32.089  11.234  14.858
82928W        W52809  34.873  22.654  11.445
82929W        W52810   1.801  39.927  13.816
82930W        W52811  43.938   1.893  11.932
82931W        W52812  26.966   1.741  14.810
82932W        W52813  17.657   7.689   1.904
82933W        W52814   6.243   9.179   2.785
82934W        W52815  14.792  41.393   3.823
82935W        W52816   9.151  43.884  11.515
82936W        W52817  27.956  34.590   1.290
82937W        W52818   3.757  19.244  11.425
82938W        W52819  18.704  42.870   5.099
82939W        W52820  44.435  25.646  12.478
82940W        W52821   0.362  44.404   2.772
82941W        W52822  39.319  36.553  14.287
82942W        W52823  37.918  33.496  12.898
82943W        W52824  16.641   4.788   2.324
82944W        W52825  28.084   4.428  12.437
82945W        W52826  11.690   8.847  11.078
82946W        W52827  18.256  38.366  12.440
82947W        W52828   6.303   1.391  11.012
82948W        W52829  17.291   9.373   1.763
82949W        W52830  28.019  16.136  14.916
82950W        W52831  31.132  10.260   1.294
82951W        W52832  24.149  37.475   0.336
82952W        W52833   1.427  41.940   4.613
82953W        W52834  42.284  34.578  14.453
82954W        W52835  14.789  27.133  13.387
82955W        W52836  22.712   5.868   4.640
82956W        W52837   9.394  13.834  13.499
82957W        W52838  11.643   9.761  14.974
82958W        W52839  13.669  16.104   4.802
82959W        W52840  25.608  10.171  10.159
82960W        W52841  44.480   0.408  13.919
82961W        W52842  30.596  31.135   4.676
82962W        W52843  24.228  28.482  11.990
82963W        W52844   1.358  27.045   2.830
82964W        W52845   6.711  22.020  12.370
82965W        W52846  38.343   4.363  12.068
82966W        W52847  42.903  31.944  12.040
82967W        W52848  36.999  11.169  12.339
82968W        W52849  26.626  15.314   1.891
82969W        W52850  39.935  15.691   3.725
82970W        W52851   5.253  11.745  12.046
82971W        W52852  15.192  13.705  12.056
82972W        W52853  42.467  14.157   1.403
82973W        W52854  38.923   7.331   1.397
82974W        W52855   8.739  16.721   3.278
82975W        W52856  11.268   4.425   0.395
82976W        W52857  24.125  41.830   2.341
82977W        W52858  19.551  10.737  11.501
82978W        W52859   5.349  42.322   0.383
82979W        W52860  32.079  29.940  10.922
82980W        W52861  39.903  21.601  11.923
82981W        W52862   4.817   4.934   3.307
82982W        W52863   4.758  33.971   1.298
82983W        W52864  19.586   0.742   3.192
82984W        W52865  18.617  19.193   0.449
82985W        W52866  28.471  20.097  13.469
82986W        W52867  10.275  13.730  11.459
82987W        W52868  36.505  43.424   4.327
82988W        W52869  41.904   8.298   2.391
82989W        W52870   6.327  23.057   3.371
82990W        W52871  20.635   4.275  14.982
82991W        W52872  40.414  36.957  12.845
82992W        W52873   5.931  41.995  11.510
82993W        W52874  35.407   8.891  13.312
82994W        W52875  22.117  31.112   3.227
82995W        W52876   4.232  26.167   0.279
82996W        W52877  21.542  42.508   3.204
82997W        W52878  31.981  28.607   2.841
82998W        W52879  34.112   1.460   3.641
82999W        W52880   5.808  32.916  12.561
83000W        W52881  17.790  35.037   4.345
83001W        W52882  21.605  11.274   1.382
83002W        W52883  31.503   8.204   0.748
83003W        W52884  30.156  43.443   3.784
83004W        W52885  19.246  32.899  11.956
83005W        W52886   1.893  24.666  13.467
83006W        W52887   5.799  29.986   2.668
83007W        W52888  30.600  15.660  11.443
83008W        W52889  34.044   6.290  14.874
83009W        W52890  33.451   6.228  13.490
83010W        W52891  16.799  12.232   4.282
83011W        W52892   2.378  43.478  10.431
83012W        W52893  43.979  42.420   1.355
83013W        W52894  10.788  20.727  10.934
83014W        W52895  30.470  44.370   4.610
83015W        W52896  16.231  32.022   1.930
83016W        W52897  29.651  24.679   0.774
83017W        W52898  36.512  41.937   1.880
83018W        W52899  30.097   9.652   3.348
83019W        W52900  19.542  43.343   0.868
83020W        W52901   4.801  39.838  10.473
83021W        W52902  23.198  17.298   2.719
83022W        W52903  11.208   3.863  14.407
83023W        W52904  33.096  13.260   4.806
83024W        W52905   0.430   6.788  14.365
83025W        W52906  18.190   3.926  10.642
83026W        W52907  13.315  31.575  12.890
83027W        W52908  27.503  43.373  14.951
83028W        W52909  44.377  28.100   2.787
83029W        W52910  36.523  24.048   4.264
83030W        W52911  37.936  31.923  12.042
83031W        W52912  10.207  30.583  12.012
83032W        W52913  43.007   0.248  12.037
83033W        W52914  22.043   6.291   1.864
83034W        W52915  10.224  24.658   3.737
83035W        W52916  17.613  41.829   3.696
83036W        W52917  21.574  39.315   0.854
83037W        W52918  29.614  31.438  13.802
83038W        W52919  34.534   0.248  14.025
83039W        W52920  17.567  11.775   3.184
83040W        W52921  11.311  21.578   3.152
83041W        W52922  32.120  41.013   2.810
83042W        W52923   6.736  25.587   2.228
83043W        W52924  19.127  18.660  11.574
83044W        W52925  42.318  11.863  13.395
83045W        W52926  22.697  43.927   3.746
83046W        W52927  36.955  44.483   0.384
83047W        W52928   1.862  31.601   0.440
83048W        W52929  39.854  27.143   4.117
83049W        W52930  10.299  42.508   0.443
83050W        W52931  37.008  42.978   2.215
83051W        W52932  27.996  34.500  12.902
83052W        W52933  25.095  25.472  13.939
83053W        W52934   6.862  15.192  12.460
83054W        W52935  21.754  11.273   2.706
83055W        W52936  10.273  44.295   2.234
83056W        W52937  21.627  12.640  13.036
83057W        W52938   7.413  41.812   0.866
83058W        W52939   2.888   7.373   2.414
83059W        W52940  37.568  22.602  13.862
83060W        W52941  23.056  39.521   1.216
83061W        W52942  34.874  39.553   3.819
83062W        W52943  39.873  43.509   0.811
83063W        W52944  44.904  24.569  14.306
83064W        W52945  41.519   8.892   4.745
83065W        W52946  11.811  16.753  12.377
83066W        W52947  28.638  19.227  11.857
83067W        W52948  13.111   0.936   3.772
83068W        W52949  18.779  26.063  12.046
83069W        W52950  15.327  24.077  13.463
83070W        W52951  28.176  29.569  11.508
83071W        W52952   6.897  25.472  13.483
83072W        W52953  43.951  27.962   2.729
83073W        W52954  41.394  12.828   4.736
83074W        W52955   5.749  10.673   0.749
83075W        W52956  38.868  41.440   3.251
83076W        W52957  19.245  19.767  10.941
83077W        W52958  39.506  24.998   2.666
83078W        W52959  21.070   0.785   3.657
83079W        W52960   4.287  10.357  13.832
83080W        W52961  32.042   4.901   1.889
83081W        W52962  13.719  35.087   3.146
83082W        W52963   4.430  26.158  13.063
83083W        W52964   6.364  42.345   3.242
83084W        W52965  26.676   4.858   4.214
83085W        W52966  14.637  38.027   3.296
83086W        W52967  32.900  16.240  13.980
83087W        W52968   1.468  35.936  14.335
83088W        W52969   9.265  29.549  10.547
83089W        W52970  34.886   8.850   4.692
83090W        W52971  19.657  13.688  14.441
83091W        W52972   9.833  40.506  14.797
83092W        W52973   1.776   1.253   4.777
83093W        W52974  20.112   0.298  10.517
83094W        W52975  36.866  43.278  13.373
83095W        W52976   2.429  36.362   3.307
83096W        W52977  42.375   4.391  12.866
83097W        W52978  41.929   7.903  14.303
83098W        W52979  26.608  24.048  13.901
83099W        W52980  21.625  39.024  13.980
83100W        W52981  42.326  37.347  10.960
83101W        W52982  31.645  12.743   4.780
83102W        W52983  32.440   9.323   1.896
83103W        W52984  15.820  38.893   1.807
83104W        W52985  22.095  26.959   1.352
83105W        W52986  10.144  18.234   1.293
83106W        W52987  15.230  42.360   4.706
83107W        W52988  30.605  21.605   4.692
83108W        W52989   1.768  37.865   0.468
83109W        W52990  21.084  41.295  10.518
83110W        W52991  12.813   7.713   1.759
83111W        W52992  16.254  37.424  10.994
83112W        W52993  30.126  36.014  14.013
83113W        W52994  22.085  15.821  11.898
83114W        W52995  26.509   0.431  12.052
83115W        W52996   2.821   6.398  13.960
83116W        W52997   4.428  40.916   1.248
83117W        W52998  37.056  35.490   3.668
83118W        W52999  12.644  20.739   3.871
83119W        W53000  37.496  38.981   1.719
83120W        W53001   1.960  17.665   0.884
83121W        W53002  31.460  25.518  13.036
83122W        W53003   1.831   0.964  10.989
83123W        W53004  19.743  15.734   5.127
83124W        W53005  36.433  43.001  14.979
83125W        W53006  36.064  26.561   3.675
83126W        W53007   5.363  16.644  10.583
83127W        W53008  41.467  44.821   1.259
83128W        W53009  36.033  32.115  12.442
83129W        W53010  19.161  19.123  13.046
83130W        W53011  35.859   8.222  14.858
83131W        W53012   7.347   4.308  12.834
83132W        W53013  24.580  18.113  14.824
83133W        W53014  39.500  23.046  14.894
83134W        W53015  22.716   8.325   1.240
83135W        W53016   2.812  12.649  13.826
83136W        W53017  33.396  29.577  13.813
83137W        W53018  19.168  14.786  14.029
83138W        W53019  17.263   0.751   3.328
83139W        W53020  36.900  18.079   1.708
83140W        W53021  44.934   7.404  13.411
83141W        W53022   1.869  17.718  12.506
83142W        W53023  19.264  32.065   1.866
83143W        W53024  40.387  41.479   3.733
83144W        W53025  41.518  34.887   1.219
83145W        W53026  39.010  35.524  12.344
83146W        W53027  40.456  28.485   4.317
83147W        W53028   2.930  17.189   0.942
83148W        W53029  13.604   9.805  12.517
83149W        W53030  26.180   0.418   3.309
83150W        W53031  18.619  41.304   1.930
83151W        W53032   8.383  33.602   2.741
83152W        W53033  36.926  32.978   3.789
83153W        W53034  20.061  39.842  11.382
83154W        W53035  22.998  31.106  14.278
83155W        W53036  36.842  29.634  12.346
83156W        W53037  23.495  25.107   3.194
83157W        W53038  39.948  19.061   2.873
83158W        W53039  31.093  24.525  10.620
83159W        W53040  39.944  14.783  12.999
83160W        W53041  38.461   9.658  13.959
83161W        W53042  11.247  28.555  14.387
83162W        W53043   6.726   3.736  10.899
83163W        W53044   4.405  31.957   4.234
83164W        W53045   4.266  28.540   4.268
83165W        W53046  11.271  25.622   1.890
83166W        W53047  38.529  28.602  14.334
83167W        W53048   7.882  14.820   2.179
83168W        W53049  11.811  13.786  10.550
83169W        W53050  31.533   0.940  14.909
83170W        W53051   4.812  38.865   3.863
83171W        W53052   1.752  14.691  12.984
83172W        W53053   7.770  28.102  14.814
83173W        W53054  27.140   0.862  11.916
83174W        W53055  20.071   5.357  12.532
83175W        W53056  10.817  44.420   2.852
83176W        W53057   9.324  14.331   0.964
83177W        W53058   4.347   1.739   1.283
83178W        W53059  32.109   1.749   4.682
83179W        W53060  20.710  36.357   4.660
83180W        W53061  41.808  37.069  11.984
83181W        W53062  23.023  17.097   0.317
83182W        W53063  16.802  20.109   2.884
83183W        W53064  40.864  30.997  11.940
83184W        W53065  12.160  40.308   0.779
83185W        W53066   9.375   2.804   3.286
83186W        W53067  40.410   3.805  13.353
83187W        W53068  27.961  37.058  12.873
83188W        W53069   8.355   9.173   3.761
83189W        W53070  32.007   3.848   1.347
83190W        W53071  43.952  11.811  13.852
83191W        W53072  35.470  42.307   1.798
83192W        W53073  17.670  16.610  10.506
83193W        W53074   0.977  35.922  10.083
83194W        W53075  41.017  41.499  10.945
83195W        W53076  21.609  43.392  13.471
83196W        W53077  28.592  12.186   0.843
83197W        W53078  39.493  22.656  14.388
83198W        W53079  22.537  13.221   2.679
83199W        W53080  10.329   8.713  14.829
83200W        W53081  33.095  42.425   0.772
83201W        W53082   5.224  27.131  14.829
83202W        W53083   5.890  29.549   4.628
83203W        W53084  31.414  37.568  13.958
83204W        W53085  41.841  15.330   2.261
83205W        W53086  10.322  14.250  10.098
83206W        W53087  20.068  32.534   4.300
83207W        W53088  35.000  14.832   0.474
83208W        W53089  31.434   3.409  13.486
83209W        W53090  13.816   8.179   1.262
83210W        W53091  44.849  32.046   2.676
83211W        W53092  34.433   4.784  12.916
83212W        W53093  21.688  41.298   3.378
83213W        W53094  31.095   6.309   1.395
83214W        W53095  15.252   6.790   4.664
83215W        W53096  26.109  19.675   2.747
83216W        W53097  22.057  15.281   2.804
83217W        W53098  22.220   3.338  10.590
83218W        W53099  27.635   5.250   1.321
83219W        W53100   9.842  11.272  14.498
83220W        W53101  44.949   1.821  12.058
83221W        W53102  28.133  33.015  12.391
83222W        W53103  39.870   8.870  10.952
83223W        W53104  28.010  36.511  10.408
83224W        W53105  20.542  38.998   3.837
83225W        W53106   9.296  23.706   1.916
83226W        W53107  11.140   3.455  14.474
83227W        W53108  35.583  11.325   2.415
83228W        W53109  19.710   2.285   4.655
83229W        W53110  13.763  15.160  13.796
83230W        W53111  26.600   9.264   4.335
83231W        W53112  13.124   6.312   5.288
83232W        W53113  39.888  10.812  11.041
83233W        W53114  13.159  41.345   2.189
83234W        W53115  32.079  17.575  11.516
83235W        W53116  38.396  26.088  12.053
83236W        W53117  28.446  40.828  13.907
83237W        W53118  30.593   7.370  11.474
83238W        W53119  36.394   1.285  10.078
83239W        W53120  27.538   1.473  14.020
83240W        W53121   0.985  10.374  12.371
83241W        W53122  13.742  24.649   3.700
83242W        W53123   3.304  21.154   4.634
83243W        W53124  12.797  22.099   3.766
83244W        W53125  11.821   4.434  14.347
83245W        W53126  38.425  11.342   1.268
83246W        W53127   2.849  37.064   3.265
83247W        W53128  13.189  41.518   3.779
83248W        W53129  44.278   6.379  13.497
83249W        W53130  11.138   9.747   0.809
83250W        W53131  12.703  40.464  11.398
83251W        W53132   1.447  15.785  10.500
83252W        W53133  41.013  21.741   0.324
83253W        W53134   8.656  38.954   1.286
83254W        W53135  34.494  37.004  12.516
83255W        W53136  19.703  32.888   0.866
83256W        W53137   4.282  16.802   2.395
83257W        W53138   2.236  33.912   4.619
83258W        W53139   5.305   8.302  11.979
83259W        W53140  10.359  32.890   3.779
83260W        W53141  29.150  13.330  11.519
83261W        W53142  23.532  13.690  14.827
83262W        W53143  29.958  42.893   3.812
83263W        W53144  31.062  12.238  13.347
83264W        W53145  28.629  22.200  13.437
83265W        W53146  15.252  37.337   3.659
83266W        W53147  42.801  22.067  14.916
83267W        W53148  16.100  13.657   1.823
83268W        W53149  19.638  38.336   1.311
83269W        W53150   9.804  34.527   4.350
83270W        W53151  23.735  23.114   0.864
83271W        W53152  31.531  23.194  12.083
83272W        W53153  14.719  13.274  14.278
83273W        W53154   5.804  18.126  13.394
83274W        W53155   4.410   3.458  10.988
83275W        W53156  28.014   5.366   1.264
83276W        W53157  11.734   0.873  13.459
83277W        W53158  16.664  18.631   1.331
83278W        W53159  12.637   1.346   3.805
83279W        W53160   3.912   9.356   2.290
83280W        W53161  27.955  17.216   3.776
83281W        W53162  21.129  14.734  12.426
83282W        W53163  30.969   7.730  10.437
83283W        W53164  14.321  20.761  10.624
83284W        W53165   8.890  35.559  12.431
83285W        W53166  13.843   6.864   0.929
83286W        W53167  28.483  33.407  10.445
83287W        W53168  14.742  42.403   1.718
83288W        W53169   1.759   2.274  11.972
83289W        W53170  15.138  31.568   3.203
83290W        W53171  39.915   5.357   2.362
83291W        W53172  23.991  38.005   4.825
83292W        W53173  30.160  21.692  11.579
83293W        W53174  18.170   0.817   3.764
83294W        W53175  29.459   2.401  11.006
83295W        W53176   4.738   3.401  13.357
83296W        W53177  11.638  32.404   0.819
83297W        W53178  16.682  33.612  11.116
83298W        W53179   4.389  36.027  13.000
83299W        W53180  32.556  39.001   1.719
83300W        W53181  12.784  18.720   2.871
83301W        W53182  34.608   0.966  10.982
83302W        W53183   4.360  35.412   0.768
83303W        W53184  28.029  21.696   2.295
83304W        W53185  39.336  39.030   4.330
83305W        W53186  17.730  14.590   1.706
83306W        W53187  26.526  23.681   2.727
83307W        W53188  35.515  36.560  11.111
83308W        W53189  18.153  17.656   3.188
83309W        W53190  19.606  21.613  12.518
83310W        W53191  12.718  22.057   0.877
83311W        W53192  38.980  30.509  12.020
83312W        W53193  29.014  36.390   2.375
83313W        W53194  39.438  14.254   0.353
83314W        W53195   5.742   2.229  11.425
83315W        W53196  16.137  32.067   3.278
83316W        W53197   7.844  17.160   0.469
83317W        W53198  24.579  14.214   3.808
83318W        W53199   3.770  20.549   4.615
83319W        W53200  22.210  42.281   1.366
83320W        W53201  24.083   1.330   0.383
83321W        W53202   2.784  16.807  14.476
83322W        W53203  36.585   0.364   4.285
83323W        W53204   5.225  28.671   2.682
83324W        W53205   6.246  36.375   2.796
83325W        W53206   7.821  21.644   4.832
83326W        W53207  17.682  10.830  12.507
83327W        W53208   1.352  29.022  10.643
83328W        W53209  10.365  20.042   1.761
83329W        W53210  31.531   9.787  13.323
83330W        W53211   1.360   7.891  14.506
83331W        W53212   6.413  14.122  12.555
83332W        W53213  31.018   4.358   0.902
83333W        W53214  30.482   2.771   2.671
83334W        W53215   0.873   5.380  12.096
83335W        W53216   3.736  31.918   1.871
83336W        W53217  43.494  35.472   0.261
83337W        W53218  15.150  19.239   1.394
83338W        W53219  32.551  28.443   0.370
83339W        W53220  27.690   7.815   2.690
83340W        W53221   9.376  33.084   4.233
83341W        W53222  15.767   8.321  11.008
83342W        W53223  36.870  41.007   1.248
83343W        W53224  44.487  10.795   1.785
83344W        W53225  42.476  31.626  13.543
83345W        W53226  12.750   5.738   3.849
83346W        W53227  32.066  36.547  12.916
83347W        W53228  28.507  29.461   2.726
83348W        W53229  43.509  16.765  14.837
83349W        W53230   3.422  12.350   2.223
83350W        W53231  42.385   2.341   4.786
83351W        W53232  12.290  26.014   0.957
83352W        W53233  15.664  32.963   1.753
83353W        W53234  19.177  28.087  10.928
83354W        W53235  27.072  20.199  13.487
83355W        W53236  43.384  42.475  11.106
83356W        W53237   8.660  39.488  12.465
83357W        W53238  25.639  35.039  14.791
83358W        W53239  28.677  44.807  11.957
83359W        W53240  44.973  33.972  13.019
83360W        W53241  10.324  10.203   0.852
83361W        W53242  11.355   1.801   3.861
83362W        W53243  33.088  16.310  11.915
83363W        W53244  36.514   2.787  10.633
83364W        W53245  21.564  10.713  10.505
83365W        W53246  21.047  17.564  11.111
83366W        W53247  33.399   9.761  13.039
83367W        W53248   8.331  16.226  11.541
83368W        W53249  19.274  13.247  13.984
83369W        W53250  18.616  26.074   3.722
83370W        W53251  24.599  40.464  13.408
83371W        W53252  40.990  29.559   4.726
83372W        W53253   4.756  21.608   0.383
83373W        W53254  22.213   7.329   3.674
83374W        W53255  34.538   8.344   3.360
83375W        W53256   2.435  29.040   2.901
83376W        W53257  19.105   7.286  11.113
83377W        W53258  32.053   7.332  11.062
83378W        W53259  33.617  43.813   1.845
83379W        W53260  44.007  31.620  11.504
83380W        W53261   8.402  36.034   1.436
83381W        W53262  44.857  15.149   3.296
83382W        W53263  19.766  37.380   3.361
83383W        W53264   0.949  13.262  11.932
83384W        W53265  40.489   8.659  11.418
83385W        W53266  40.913  39.872   3.799
83386W        W53267  20.175   7.785  11.982
83387W        W53268  37.918  11.809  11.377
83388W        W53269  27.646  24.996  12.827
83389W        W53270  27.662  24.551  10.114
83390W        W53271  34.085  24.214   3.808
83391W        W53272  36.578  16.090   3.798
83392W        W53273   7.318  12.810   4.792
83393W        W53274   9.692   6.407  12.928
83394W        W53275  30.444   3.215   5.198
83395W        W53276  39.854   9.395   4.664
83396W        W53277  41.536   8.377  10.450
83397W        W53278   4.886  31.505   3.797
83398W        W53279   9.190  22.602   2.400
83399W        W53280   9.389  16.728  14.808
83400W        W53281  14.632  22.697   4.667
83401W        W53282   0.475  15.587  12.871
83402W        W53283  22.060   0.748  12.934
83403W        W53284   7.281  13.226   2.706
83404W        W53285   5.220  35.391   4.686
83405W        W53286   8.765  25.139   0.948
83406W        W53287  23.574  32.012   0.445
83407W        W53288  28.440  38.356  10.484
83408W        W53289  32.445  16.130  13.314
83409W        W53290  25.191  37.994  11.929
83410W        W53291   5.863   2.823   3.209
83411W        W53292  16.770  36.036   3.730
83412W        W53293  31.489   2.376  10.574
83413W        W53294   3.254  18.564  12.377
83414W        W53295  31.095  13.631   0.963
83415W        W53296  43.315  21.660  11.979
83416W        W53297  23.011   8.703  11.946
83417W        W53298   8.834  36.358  11.123
83418W        W53299  38.955   0.973  10.977
83419W        W53300   7.783   5.726   5.231
83420W        W53301  44.425  17.169  13.906
83421W        W53302  19.253   4.208  11.434
83422W        W53303   9.155  27.979   2.299
83423W        W53304  36.867  41.954  14.516
83424W        W53305  11.240  34.078  14.321
83425W        W53306  23.057  34.565   1.334
83426W        W53307   7.366  34.897   2.180
83427W        W53308   4.824  28.626  12.567
83428W        W53309  27.029  12.659   2.793
83429W        W53310  40.465  30.977   4.663
83430W        W53311  21.587   9.162   4.822
83431W        W53312  13.668  34.458   4.607
83432W        W53313  13.634  26.539  12.053
83433W        W53314  27.451   7.333  13.343
83434W        W53315  41.004   2.882  10.579
83435W        W53316  14.227  35.099   2.306
83436W        W53317  30.949  12.221   4.305
83437W        W53318   8.852  25.496   2.209
83438W        W53319   1.957  27.012  11.571
83439W        W53320  39.864  42.452   3.842
83440W        W53321  39.930  43.412  11.949
83441W        W53322  11.257  37.581   3.839
83442W        W53323   8.271  35.398  14.371
83443W        W53324  11.731  16.812  14.770
83444W        W53325  21.044  24.188  10.630
83445W        W53326  26.604  26.065   1.906
83446W        W53327  26.630  34.522   9.963
83447W        W53328  28.173  29.549  13.931
83448W        W53329   9.661   6.912  13.485
83449W        W53330  10.858  10.322   0.756
83450W        W53331   7.222   0.460  11.103
83451W        W53332  10.196   8.349  14.770
83452W        W53333  28.606   2.796   0.468
83453W        W53334   7.352  26.046   3.368
83454W        W53335  28.660  13.624   1.718
83455W        W53336   7.881  21.259  13.307
83456W        W53337  34.985  24.502   2.669
83457W        W53338  29.924  19.194  12.865
83458W        W53339  37.483  35.880  13.440
83459W        W53340  36.395  11.212   0.300
83460W        W53341  24.487   8.199  11.094
83461W        W53342  10.641  10.292   2.179
83462W        W53343  22.662  25.667  14.832
83463W        W53344  26.683  27.995  13.856
83464W        W53345   5.905  12.334   1.845
83465W        W53346  27.995   9.746  14.482
83466W        W53347  32.122  32.110  13.053
83467W        W53348   2.837  41.531   2.708
83468W        W53349  39.850  39.018   3.815
83469W        W53350   3.876  39.900  12.528
83470W        W53351  37.551  37.371  11.597
83471W        W53352  26.677  33.528  11.567
83472W        W53353  26.207   8.166   4.789
83473W        W53354  22.677  39.809   4.192
83474W        W53355  10.295   4.354   3.702
83475W        W53356  25.192  26.045   3.205
83476W        W53357  22.681  21.210   2.690
83477W        W53358  37.504  33.423   4.300
83478W        W53359  41.846   1.316   0.857
83479W        W53360   4.357   6.202   1.444
83480W        W53361   7.701  14.212  11.586
83481W        W53362  33.017  40.391  10.441
83482W        W53363  29.087  15.181  10.633
83483W        W53364  27.127  34.863   1.286
83484W        W53365  18.163  44.970  10.595
83485W        W53366  31.049  41.910  12.071
83486W        W53367  18.076  10.655  14.929
83487W        W53368  15.765  34.976  11.398
83488W        W53369  26.176  38.932  11.950
83489W        W53370   9.855  37.491  11.480
83490W        W53371   3.768  28.596  13.451
83491W        W53372   6.880  42.517   1.885
83492W        W53373  43.407  29.153   1.374
83493W        W53374  32.015  27.967   4.259
83494W        W53375  30.616  28.453  14.483
83495W        W53376  14.831  32.580   2.354
83496W        W53377   4.215  31.525  12.446
83497W        W53378  12.300  33.475  11.988
83498W        W53379  43.838  12.810   3.182
83499W        W53380  39.357   9.162   3.284
83500W        W53381  44.339  40.374   3.298
83501W        W53382  35.541   3.938  13.343
83502W        W53383   5.880  16.712   2.799
83503W        W53384  35.052  36.390  14.836
83504W        W53385  35.381  36.946   2.339
83505W        W53386   9.725  11.825  14.461
83506W        W53387   9.809  38.328  12.475
83507W        W53388  39.933  13.304  13.515
83508W        W53389  30.648  28.647   4.815
83509W        W53390   8.722  32.611  14.934
83510W        W53391  36.442   2.379  11.124
83511W        W53392   7.813  27.648  11.925
83512W        W53393  27.477  19.569  14.404
83513W        W53394  11.826  38.988   1.885
83514W        W53395   1.876  34.519   3.732
83515W        W53396   3.266  17.264  11.109
83516W        W53397  33.986  35.463   3.776
83517W        W53398  29.552  34.423   1.227
83518W        W53399  13.761  23.137  12.496
83519W        W53400  35.502  43.511   0.832
83520W        W53401  13.840   4.778   1.284
83521W        W53402  24.543  14.245   3.163
83522W        W53403  23.019  39.556   0.264
83523W        W53404  43.286  30.088   2.889
83524W        W53405  27.973  16.756   4.141
83525W        W53406   6.412  10.238   3.796
83526W        W53407  22.512  30.522   4.223
83527W        W53408  32.566  43.441   0.380
83528W        W53409  25.022  36.357   0.422
83529W        W53410  33.499   7.248   1.829
83530W        W53411  38.875   1.332   1.273
83531W        W53412   8.186   7.727  11.049
83532W        W53413  10.269  11.660   2.785
83533W        W53414  15.699  17.556   2.284
83534W        W53415  42.286  12.141   1.356
83535W        W53416   0.765   3.849  11.411
83536W        W53417  34.953  13.255   2.219
83537W        W53418  13.815  21.709   2.723
83538W        W53419  16.627  41.506   2.793
83539W        W53420   0.877  11.723  14.395
83540W        W53421  31.509  44.862   1.913
83541W        W53422  35.539  14.646   3.740
83542W        W53423   0.761  41.494  10.522
83543W        W53424  36.921  23.680  13.473
83544W        W53425  12.260  43.448   1.829
83545W        W53426   8.233  11.273   0.444
83546W        W53427   3.397  42.366  14.284
83547W        W53428  22.079  43.317  11.113
83548W        W53429  30.121  40.486  12.406
83549W        W53430  27.658  10.376  11.048
83550W        W53431  15.272  34.004   2.284
83551W        W53432  17.719  15.195  13.371
83552W        W53433  25.162  31.111   1.375
83553W        W53434  23.028  21.623  11.464
83554W        W53435   6.912   8.167  12.912
83555W        W53436  34.382  33.522  14.470
83556W        W53437   5.301  40.799  11.945
83557W        W53438   4.743   4.913  13.009
83558W        W53439  38.837   8.719  12.545
83559W        W53440  42.893   1.773   4.280
83560W        W53441  18.247  34.970  12.464
83561W        W53442  19.098  44.345   0.820
83562W        W53443  24.485  42.440   1.394
83563W        W53444  30.419  32.077  13.895
83564W        W53445   9.772  13.788   4.247
83565W        W53446  44.398  44.996  11.394
83566W        W53447  13.829  42.876   1.388
83567W        W53448  21.546  10.765  12.058
83568W        W53449   6.819  25.579   2.827
83569W        W53450   5.778   9.267  12.868
83570W        W53451  20.217  18.099   2.871
83571W        W53452  39.823  41.451   3.847
83572W        W53453  34.399  27.015   1.243
83573W        W53454   8.702  33.399  12.486
83574W        W53455  39.541  43.927   0.757
83575W        W53456  20.263  16.569   4.308
83576W        W53457  39.967  13.692  10.477
83577W        W53458  26.492  24.007  13.528
83578W        W53459   0.798  28.665   4.818
83579W        W53460  17.604  19.665  13.313
83580W        W53461   2.285  18.147  14.844
83581W        W53462  36.499  35.385   2.691
83582W        W53463  24.190  35.378   3.341
83583W        W53464   8.383   4.226  12.512
83584W        W53465  21.161  23.036  14.369
83585W        W53466  41.822   3.751   0.314
83586W        W53467  24.581  13.705  12.905
83587W        W53468  28.186   9.289  14.797
83588W        W53469   5.234  16.611   0.764
83589W        W53470  16.201  24.666   1.898
83590W        W53471  16.745  33.915  12.566
83591W        W53472   0.374  12.196   4.771
83592W        W53473  40.001  40.407  10.505
83593W        W53474  40.973  23.013   4.804
83594W        W53475  43.377  19.119  10.578
83595W        W53476   1.479  11.282  14.511
83596W        W53477  12.147   1.908  11.927
83597W        W53478  43.906  37.084  13.428
83598W        W53479  36.385  40.316   3.348
83599W        W53480  32.925  26.550  12.439
83600W        W53481  26.678  27.548   2.367
83601W        W53482   0.795  20.093  11.043
83602W        W53483  16.695  33.600  12.869
83603W        W53484  35.014  44.294  10.926
83604W        W53485  34.511  31.507  14.011
83605W        W53486  24.706  41.460   4.713
83606W        W53487  19.776  43.931   5.256
83607W        W53488  22.564  41.298   2.810
83608W        W53489  29.518  13.332   1.848
83609W        W53490  19.090  10.157   1.768
83610W        W53491  29.166  27.452  10.438
83611W        W53492  27.084   8.778  11.028
83612W        W53493  40.938  21.151   3.195
83613W        W53494  36.545  19.044   3.197
83614W        W53495  11.794   7.880   1.743
83615W        W53496  44.492   3.929   5.296
83616W        W53497  41.993  44.799   3.243
83617W        W53498  17.263   3.819  10.496
83618W        W53499  35.522  32.601   2.266
83619W        W53500  22.101  24.648   2.688
83620W        W53501   6.700   4.262   0.735
83621W        W53502  34.378   2.308   3.340
83622W        W53503  27.174  28.563   2.272
83623W        W53504  18.753   6.680  13.992
83624W        W53505  11.651  31.079  12.902
83625W        W53506   2.314  20.527  10.510
83626W        W53507  25.674  29.632   1.252
83627W        W53508  25.069   0.374   3.738
83628W        W53509  37.078  12.184   4.698
83629W        W53510  39.444  24.707  13.054
83630W        W53511   6.192  29.960  10.516
83631W        W53512  28.022  38.526   0.810
83632W        W53513   4.766  39.014  10.065
83633W        W53514   7.876   8.694   0.895
83634W        W53515  37.891  37.537   0.873
83635W        W53516   2.773  30.511   2.693
83636W        W53517  19.107  34.387   0.465
83637W        W53518  42.876   4.401  13.851
83638W        W53519  14.099  27.941  11.002
83639W        W53520  13.723  15.746  11.570
83640W        W53521   6.196  21.227   4.721
83641W        W53522  14.094   3.406  13.840
83642W        W53523   7.687  28.082   2.338
83643W        W53524   9.758   4.246   1.448
83644W        W53525  14.109  24.544  11.105
83645W        W53526  36.097  14.112  10.602
83646W        W53527   5.890   1.789  12.045
83647W        W53528  25.695  38.509   0.341
83648W        W53529  27.158  29.117   2.689
83649W        W53530  29.568  40.900  11.994
83650W        W53531  24.036  25.548  10.474
83651W        W53532  30.143  31.533  11.579
83652W        W53533  39.909  43.898  13.323
83653W        W53534  33.988  25.538  10.434
83654W        W53535  11.130  13.665   1.323
83655W        W53536  14.747  13.148   0.895
83656W        W53537   6.242  15.600   4.645
83657W        W53538  41.866   1.270   1.847
83658W        W53539  15.127  24.643  13.500
83659W        W53540  38.933  10.711  13.487
83660W        W53541  42.452  27.091   2.794
83661W        W53542  40.878  22.585  10.581
83662W        W53543  38.826  30.152   3.289
83663W        W53544   2.863  34.874   2.293
83664W        W53545  19.593  42.967   1.258
83665W        W53546  36.977   8.664  13.850
83666W        W53547  20.676   3.843  11.578
83667W        W53548  38.922  18.247   1.918
83668W        W53549  27.069  33.450   0.268
83669W        W53550   6.371  43.301  11.865
83670W        W53551  37.565  13.765   2.853
83671W        W53552  27.637  16.316  12.417
83672W        W53553  43.502  25.711   0.760
83673W        W53554   2.256  44.479  13.401
83674W        W53555  26.138   3.947   3.233
83675W        W53556  35.479   3.780   4.795
83676W        W53557   0.307  44.274   3.826
83677W        W53558  26.979   5.848  12.517
83678W        W53559   3.723  31.896  14.779
83679W        W53560  17.571   4.772   0.858
83680W        W53561  34.566  26.569  14.851
83681W        W53562  29.961   5.760   0.255
83682W        W53563  22.684  41.826   3.864
83683W        W53564  30.098  23.735  10.408
83684W        W53565  26.565  30.989  13.946
83685W        W53566  39.415  28.656  14.855
83686W        W53567   8.725   8.735   4.194
83687W        W53568  37.904  33.921   3.871
83688W        W53569  12.185  20.096  11.007
83689W        W53570  21.153  22.252   1.411
83690W        W53571  26.520  19.751   5.198
83691W        W53572  15.292  21.141  11.407
83692W        W53573  15.118  25.089   3.357
83693W        W53574  19.136  14.620   3.846
83694W        W53575  25.151   3.250  10.499
83695W        W53576  28.669  14.789  12.511
83696W        W53577  36.371  44.873   1.228
83697W        W53578  23.656   7.264   3.324
83698W        W53579   7.406   1.409  10.499
83699W        W53580   6.326   9.390  11.885
83700W        W53581  37.406  22.023   3.337
83701W        W53582  19.691  31.144  11.404
83702W        W53583   0.440  18.643   2.386
83703W        W53584  19.603  41.896   5.275
83704W        W53585  17.135  27.060   3.725
83705W        W53586  30.008  11.155  11.444
83706W        W53587  35.525  22.217   1.841
83707W        W53588   1.450   3.323   3.857
83708W        W53589  42.786  10.702  13.853
83709W        W53590  36.564  40.876   4.653
83710W        W53591  26.505  35.949  14.483
83711W        W53592   9.658   1.826  14.772
83712W        W53593   2.272   0.437   5.113
83713W        W53594   4.387  41.530  14.441
83714W        W53595  37.044   5.888   1.816
83715W        W53596  19.200  19.703   4.191
83716W        W53597  34.963   4.878   1.232
83717W        W53598   4.915   8.288  10.427
83718W        W53599  43.816  37.975  10.472
83719W        W53600  36.984   0.400  10.894
83720W        W53601  24.515  32.969  12.441
83721W        W53602  29.071  39.438   4.680
83722W        W53603  12.161  31.495   3.742
83723W        W53604  18.748  20.068  11.903
83724W        W53605  27.086  40.048   1.364
83725W        W53606  30.412  32.578  12.400
83726W        W53607  19.150  11.803  10.535
83727W        W53608  27.466  27.174  12.514
83728W        W53609  19.217  17.106   1.805
83729W        W53610   8.812   8.197  13.999
83730W        W53611  11.163  35.521  12.986
83731W        W53612  11.806  35.100   0.933
83732W        W53613  17.071  28.533  13.873
83733W        W53614   5.705  14.705   2.327
83734W        W53615  30.656  27.041  12.975
83735W        W53616  13.736  44.468   4.337
83736W        W53617  20.743  16.635  12.395
83737W        W53618  26.629  40.416   3.734
83738W        W53619  23.667  39.473   3.283
83739W        W53620   9.800   4.425   3.867
83740W        W53621  16.792  32.913  13.480
83741W        W53622  10.695  11.159   0.265
83742W        W53623  16.178   4.214  10.461
83743W        W53624  31.928   6.713   0.731
83744W        W53625  39.341   5.425  14.998
83745W        W53626   2.823  21.025  14.774
83746W        W53627  22.624  13.162  12.851
83747W        W53628  36.354   8.283  14.513
83748W        W53629   4.759   9.158  10.998
83749W        W53630  10.271  21.565   3.858
83750W        W53631   3.348   8.265   4.261
83751W        W53632  44.957  34.993  11.903
83752W        W53633  20.257  41.301  10.435
83753W        W53634  41.869   9.783   2.201
83754W        W53635  18.637   5.212   2.753
83755W        W53636  42.459  44.834  12.406
83756W        W53637  12.220  28.126   4.140
83757W        W53638  43.491  30.118   4.267
83758W        W53639  20.700   3.410  14.013
83759W        W53640  16.120  20.740   0.877
83760W        W53641   3.922   2.283  14.412
83761W        W53642   9.328   5.277  14.433
83762W        W53643  35.401   7.228  14.379
83763W        W53644  20.721  40.810   0.836
83764W        W53645  35.038  42.403  11.864
83765W        W53646  28.100  19.684  13.416
83766W        W53647  19.209  11.343   0.754
83767W        W53648  27.022   4.902   3.686
83768W        W53649   9.882  24.586  11.097
83769W        W53650   9.189   0.743  13.865
83770W        W53651  29.526  28.085  10.034
83771W        W53652   9.858  19.226  14.499
83772W        W53653  43.369   8.313   0.258
83773W        W53654   3.269  23.666   2.865
83774W        W53655   8.309  41.898   3.864
83775W        W53656  15.101  19.679   1.931
83776W        W53657   0.303  10.763   3.162
83777W        W53658  15.699  39.947   2.753
83778W        W53659   1.381  21.521  13.890
83779W        W53660  33.075  20.658   3.386
83780W        W53661  30.539  14.741   2.369
83781W        W53662  41.040   7.713   3.311
83782W        W53663  33.432  20.585  14.030
83783W        W53664  40.421  22.094   2.886
83784W        W53665  19.695  27.543   4.730
83785W        W53666  31.619  26.108   2.321
83786W        W53667   2.470  39.828   3.383
83787W        W53668  18.717  37.391   1.733
83788W        W53669  26.097  13.295   1.266
83789W        W53670   8.315   6.372   0.311
83790W        W53671  19.622  29.547   9.988
83791W        W53672  36.458  38.838  11.086
83792W        W53673  28.181  44.478  11.998
83793W        W53674  32.532   3.355   0.802
83794W        W53675  40.041  24.974  13.944
83795W        W53676   1.303  44.270  12.094
83796W        W53677   8.388  33.964  14.381
83797W        W53678  13.674  29.066  12.477
83798W        W53679  40.490   9.393   3.256
83799W        W53680  20.098  21.578   3.148
83800W        W53681   7.356  38.843  13.862
83801W        W53682  14.220  19.590  14.857
83802W        W53683  29.533  20.707   2.767
83803W        W53684  13.790  36.503  12.085
83804W        W53685  23.155  13.198   1.285
83805W        W53686   6.223  39.954   5.268
83806W        W53687  18.151  36.415  13.803
83807W        W53688  43.408  17.745   0.300
83808W        W53689  10.139  20.092  10.929
83809W        W53690  29.145  30.425  14.782
83810W        W53691  20.563  10.322   4.758
83811W        W53692  44.447  14.752   3.146
83812W        W53693  35.094  24.486   3.241
83813W        W53694  42.368  24.678   1.414
83814W        W53695  26.592  29.096  14.333
83815W        W53696  14.595  20.597  14.470
83816W        W53697  15.227   9.692   2.384
83817W        W53698  39.065   9.349  13.497
83818W        W53699  43.504   6.842  10.578
83819W        W53700  15.326  10.825  13.994
83820W        W53701  27.684  19.096  14.471
83821W        W53702  42.802  15.704   1.235
83822W        W53703  14.727  42.371  12.983
83823W        W53704  21.713  44.833   4.694
83824W        W53705  24.598  35.937   2.326
83825W        W53706  19.218  10.260  13.062
83826W        W53707   0.492  20.160  10.410
83827W        W53708  15.203  34.892  12.921
83828W        W53709  17.083  34.391   9.943
83829W        W53710  37.561  16.222  11.509
83830W        W53711  14.330  43.910   0.814
83831W        W53712  29.547  37.961   2.201
83832W        W53713  20.206  24.006   3.636
83833W        W53714  19.052  29.487   4.197
83834W        W53715   9.159   3.221   4.809
83835W        W53716  42.980  25.139  10.004
83836W        W53717  22.109  40.374  11.878
83837W        W53718   4.270  39.423   3.865
83838W        W53719  13.785  31.483   3.819
83839W        W53720  14.332  35.878   5.166
83840W        W53721  22.553   9.159   4.180
83841W        W53722   5.403  42.931  11.500
83842W        W53723  35.883  15.146   4.691
83843W        W53724  25.504   3.283  12.037
83844W        W53725  36.861  29.094   2.801
83845W        W53726   3.241  42.014  10.613
83846W        W53727   8.845   9.176   5.174
83847W        W53728  29.970  24.625  14.817
83848W        W53729  38.345  34.381  11.610
83849W        W53730  38.362  25.560   0.448
83850W        W53731  30.144  14.242  11.433
83851W        W53732  33.417  41.849  14.929
83852W        W53733  32.442  20.706  13.856
83853W        W53734  23.050  26.516  10.573
83854W        W53735  28.027  43.411   0.889
83855W        W53736  40.488  37.533  13.497
83856W        W53737  14.150   4.778  13.995
83857W        W53738   9.828  31.094   0.879
83858W        W53739  39.428  40.000  13.320
83859W        W53740  28.664  26.464   1.433
83860W        W53741  37.537  10.717   2.229
83861W        W53742   9.183   3.929   2.210
83862W        W53743  10.873  37.903  10.973
83863W        W53744  38.340  15.212   4.823
83864W        W53745   5.391  13.799  14.011
83865W        W53746  20.652   7.222  14.287
83866W        W53747  14.645   5.438   3.351
83867W        W53748  40.470  40.850  14.424
83868W        W53749   1.386   1.449   1.725
83869W        W53750   8.809  11.148  12.361
83870W        W53751  26.510  25.201  13.320
83871W        W53752  21.745  20.091   0.945
83872W        W53753  36.075  19.760  13.030
83873W        W53754  38.849   9.388   4.655
83874W        W53755  27.077   3.843  11.474
83875W        W53756   4.235  17.155  12.416
83876W        W53757  27.547  35.471  14.863
83877W        W53758   2.897   0.743   2.808
83878W        W53759   9.238  15.769  13.833
83879W        W53760   5.876   4.216  11.117
83880W        W53761  21.152  32.961   0.249
83881W        W53762  20.706   6.407   3.742
83882W        W53763  10.709   6.355   4.214
83883W        W53764  30.049  24.166  13.321
83884W        W53765   9.185   4.253   4.603
83885W        W53766  36.510   2.756   3.734
83886W        W53767   9.810  21.617  12.834
83887W        W53768   3.321  36.029  10.922
83888W        W53769  43.773  31.073  14.493
83889W        W53770  19.574  25.676  11.118
83890W        W53771  22.128   9.155   4.336
83891W        W53772   2.469  15.163  13.319
83892W        W53773   4.237   7.701  14.871
83893W        W53774  20.650  28.168  12.050
83894W        W53775   3.887  18.545   1.250
83895W        W53776  40.034  30.634   0.863
83896W        W53777  43.880   3.831  12.381
83897W        W53778  43.915   7.304   1.821
83898W        W53779   5.352  11.273  10.407
83899W        W53780   6.850  34.569  14.505
83900W        W53781  35.877  23.227   0.265
83901W        W53782  10.742  43.347   2.867
83902W        W53783   1.960  10.174  14.933
83903W        W53784   2.794   6.811   3.741
83904W        W53785   8.368  35.485   1.710
83905W        W53786  20.129   2.249   3.721
83906W        W53787   8.397   5.742   3.211
83907W        W53788  20.157  17.181  13.512
83908W        W53789  14.608  36.845  10.504
83909W        W53790  29.941  29.055   2.889
83910W        W53791   0.782  12.337  12.402
83911W        W53792  15.246  38.862  12.898
83912W        W53793   5.699  29.964   4.188
83913W        W53794  26.665   4.908   2.302
83914W        W53795  42.893   3.408   4.249
83915W        W53796  37.049   2.314  13.531
83916W        W53797  40.452  28.161  12.891
83917W        W53798  30.018  22.138   4.765
83918W        W53799   9.274  38.417  13.877
83919W        W53800   4.309  39.471  11.944
83920W        W53801  25.493  30.039  10.940
83921W        W53802  13.714   0.456   3.710
83922W        W53803  15.242  29.019  12.965
83923W        W53804  38.034   0.787   5.088
83924W        W53805  35.889  15.179  14.453
83925W        W53806   0.961   9.321  11.563
83926W        W53807  37.954  30.646  10.912
83927W        W53808  41.453  34.533  13.381
83928W        W53809  41.908  26.107  10.499
83929W        W53810  39.851  10.367  14.987
83930W        W53811  38.430  24.152  10.587
83931W        W53812  42.844  31.481   1.778
83932W        W53813  13.839  36.865   1.745
83933W        W53814  12.180  28.008  11.003
83934W        W53815  43.963  38.474  13.463
83935W        W53816  43.323  31.574   4.651
83936W        W53817   4.731  17.587  12.858
83937W        W53818  25.129  10.288   3.162
83938W        W53819  11.624  23.508  10.926
83939W        W53820   5.913  17.614  10.464
83940W        W53821   0.953   4.942   5.315
83941W        W53822  18.105  11.323   0.358
83942W        W53823  41.809   1.854  10.921
83943W        W53824  18.260  42.841   1.217
83944W        W53825  11.832  29.078   1.796
83945W        W53826  33.463  15.596  12.985
83946W        W53827  21.626   3.236   3.855
83947W        W53828  24.112  38.521   2.679
83948W        W53829   4.710   3.862  10.909
83949W        W53830  23.715  12.252   4.276
83950W        W53831  34.035   0.913  12.374
83951W        W53832  37.855  21.665   0.281
83952W        W53833   5.259  28.554   1.380
83953W        W53834  32.124  34.964  14.363
83954W        W53835  15.671   1.440  12.471
83955W        W53836  14.128   9.815  13.867
83956W        W53837  16.662  37.387  13.365
83957W        W53838  11.135  30.475  10.603
83958W        W53839  15.790   0.419   0.846
83959W        W53840   9.384  19.649  13.910
83960W        W53841  34.391  34.596   3.175
83961W        W53842  38.945  35.048  13.338
83962W        W53843  17.563  29.992   0.442
83963W        W53844  19.638  37.576  12.977
83964W        W53845   8.720  33.966   2.268
83965W        W53846   1.305  25.491   4.784
83966W        W53847  43.309  22.211  10.156
83967W        W53848  41.527   5.335   3.192
83968W        W53849  10.231  25.170  14.028
83969W        W53850  27.580   1.876  11.979
83970W        W53851  43.787   5.276   3.777
83971W        W53852  29.922  31.545  10.989
83972W        W53853  31.986  23.064   4.618
83973W        W53854  30.569   4.920   0.785
83974W        W53855   8.733  40.876  11.865
83975W        W53856  37.966   9.162   2.812
83976W        W53857  28.644  31.043   0.369
83977W        W53858  20.120  40.422  12.403
83978W        W53859  38.529  23.239  12.495
83979W        W53860  19.721  15.187  14.802
83980W        W53861  17.600  29.485   1.380
83981W        W53862  21.717  14.248  10.446
83982W        W53863  40.469  39.875   2.212
83983W        W53864   1.269  42.419   4.750
83984W        W53865  32.531  13.240  12.344
83985W        W53866  23.691  34.062   4.659
83986W        W53867  33.929  36.520  11.969
83987W        W53868   0.339  11.143   4.725
83988W        W53869  37.080  40.540   3.785
83989W        W53870  44.801   6.765  14.865
83990W        W53871  15.755   2.285  14.898
83991W        W53872   2.464  42.401   0.809
83992W        W53873  41.405   3.325   3.319
83993W        W53874  24.554  19.187  13.960
83994W        W53875  43.417  15.753   4.219
83995W        W53876  33.953  30.429  12.967
83996W        W53877   0.852  19.538  14.404
83997W        W53878  32.441  13.779   2.718
83998W        W53879   5.232  40.452   1.387
83999W        W53880  23.090   8.321  11.931
84000W        W53881  27.596   4.828   3.859
84001W        W53882   0.764  40.324   1.306
84002W        W53883  33.425  25.094   3.638
84003W        W53884  13.734  33.526  13.883
84004W        W53885  29.560  23.051  13.017
84005W        W53886  19.760  39.424   0.372
84006W        W53887  15.304  41.497  11.580
84007W        W53888  39.961   1.796   0.423
84008W        W53889  23.553  14.158   0.838
84009W        W53890  29.936   9.879   0.929
84010W        W53891  25.631   9.672   0.848
84011W        W53892  25.030  43.281   3.842
84012W        W53893  39.396  38.974  12.947
84013W        W53894   1.321  37.458  10.924
84014W        W53895  18.202  16.223   3.829
84015W        W53896  35.390  30.601  13.540
84016W        W53897  33.984  22.020  13.988
84017W        W53898  23.093  18.621   5.743
84018W        W53899  16.744  19.615  12.390
84019W        W53900  30.985   1.750  14.501
84020W        W53901  23.090  37.923   4.289
84021W        W53902   3.305   0.482   1.704
84022W        W53903  25.035  44.893   2.846
84023W        W53904  33.608  14.132   4.290
84024W        W53905  12.678  13.687   1.242
84025W        W53906  44.321   0.417  11.062
84026W        W53907  43.453  42.323  11.524
84027W        W53908   6.893  27.522  14.778
84028W        W53909  38.418  34.486  12.009
84029W        W53910  18.253   8.852   1.905
84030W        W53911   2.231  27.063  12.001
84031W        W53912  19.722  20.251  13.810
84032W        W53913  21.680  39.060  14.304
84033W        W53914  15.811  12.212   4.610
84034W        W53915  21.724  40.434  11.533
84035W        W53916  38.847  43.799  14.853
84036W        W53917  26.181  44.806  14.399
84037W        W53918  15.109  13.240   4.803
84038W        W53919   0.377  31.537  11.602
84039W        W53920  33.920  23.579  12.515
84040W        W53921  38.049  23.726  13.835
84041W        W53922  26.699   6.883   4.317
84042W        W53923  18.127   4.769   3.291
84043W        W53924   2.301   7.745  12.089
84044W        W53925  19.724   3.387   2.338
84045W        W53926  37.565  25.175   4.254
84046W        W53927  18.140  41.381   3.157
84047W        W53928  23.147  21.184  14.878
84048W        W53929   6.189  22.549   1.793
84049W        W53930  29.116  31.087   0.292
84050W        W53931  21.555   0.758  14.396
84051W        W53932  39.900  15.226  14.967
84052W        W53933  26.576  44.380  10.985
84053W        W53934  39.342  10.837   2.279
84054W        W53935  35.055   7.731   2.373
84055W        W53936  43.420  35.536  11.392
84056W        W53937  29.538  27.050   2.880
84057W        W53938   2.297  16.731   0.802
84058W        W53939  17.091  27.526  10.584
84059W        W53940   4.379  22.123   4.300
84060W        W53941  19.611  24.992   0.826
84061W        W53942  17.609  37.574   3.820
84062W        W53943   9.671   6.831   4.814
84063W        W53944   9.301  24.525   3.274
84064W        W53945   4.371  42.801  11.105
84065W        W53946  21.225   6.861   1.340
84066W        W53947  41.810   3.361   3.293
84067W        W53948  23.101  31.028  10.458
84068W        W53949  41.384  24.215   3.635
84069W        W53950  25.033  40.305   3.637
84070W        W53951  29.448   7.753   0.427
84071W        W53952  33.050   4.409   2.341
84072W        W53953   5.830  27.493  13.318
84073W        W53954  33.096   2.823   0.751
84074W        W53955  33.927  18.747  12.076
84075W        W53956   2.278  35.027  12.499
84076W        W53957  22.200  34.528  13.442
84077W        W53958  21.742  16.223   1.399
84078W        W53959  12.285  31.573  14.378
84079W        W53960  15.255  11.263   1.386
84080W        W53961  35.477  38.464   3.738
84081W        W53962  16.224  13.248  10.971
84082W        W53963  22.574  23.732  11.033
84083W        W53964  31.565  18.226  14.903
84084W        W53965  12.748  38.399   5.270
84085W        W53966   4.936  42.491   0.913
84086W        W53967  30.552  40.824   1.884
84087W        W53968  37.076  38.991  14.994
84088W        W53969  23.036  28.088   1.871
84089W        W53970   7.808  27.189  12.477
84090W        W53971  15.779  19.752  10.532
84091W        W53972  28.967  34.886  10.542
84092W        W53973   4.924  22.678  13.505
84093W        W53974  21.563  36.946  10.633
84094W        W53975  43.361  27.644  11.080
84095W        W53976  23.498  39.058   3.843
84096W        W53977   8.667   2.926  10.591
84097W        W53978  26.014   5.918  10.468
84098W        W53979   1.291  41.457   3.788
84099W        W53980   5.805   8.217  11.022
84100W        W53981  21.224  20.229   0.830
84101W        W53982  38.508   1.238  10.113
84102W        W53983  34.580   1.410   4.773
84103W        W53984  10.728  10.153   4.230
84104W        W53985  34.487  31.944   3.773
84105W        W53986  13.232   6.367  11.866
84106W        W53987  37.577  10.150   4.243
84107W        W53988  23.142  25.174  13.356
84108W        W53989   3.953  23.711  11.913
84109W        W53990  34.451  29.649   4.748
84110W        W53991   1.757  29.461  14.828
84111W        W53992  33.960  19.259   4.261
84112W        W53993  40.477  22.142  12.015
84113W        W53994  38.502  23.036   3.775
84114W        W53995  11.809  44.754   3.821
84115W        W53996   3.746  44.928  10.470
84116W        W53997  32.108  22.028  13.887
84117W        W53998  22.220  35.993  11.392
84118W        W53999  32.050  26.491   9.924
84119W        W54000  16.249  13.193  11.920
84120W        W54001  38.547   0.295   9.620
84121W        W54002  15.313  36.064   0.813
84122W        W54003  36.395  23.984  11.112
84123W        W54004  37.054   0.947   1.336
84124W        W54005  16.632  23.181   4.147
84125W        W54006  29.989   8.824  11.976
84126W        W54007  41.422  26.071  14.002
84127W        W54008  33.383  14.242   0.859
84128W        W54009  24.981  22.060  11.883
84129W        W54010  30.110  32.099  10.467
84130W        W54011  21.689  28.545  11.896
84131W        W54012  27.569   2.770  14.494
84132W        W54013  22.571   5.285  13.323
84133W        W54014  32.605  29.059  11.952
84134W        W54015  18.141  41.400   3.799
84135W        W54016  35.061  15.800   3.238
84136W        W54017  21.226   1.238   0.254
84137W        W54018  16.188  43.276  11.007
84138W        W54019  31.491  22.046   2.313
84139W        W54020  25.477  33.447  14.293
84140W        W54021   6.772  42.293  11.086
84141W        W54022  21.057  20.118  11.551
84142W        W54023   3.382   6.361  12.985
84143W        W54024  39.445   9.194  13.878
84144W        W54025  36.859   7.832  11.886
84145W        W54026   4.840  21.573  13.410
84146W        W54027  13.811  31.149  13.457
84147W        W54028  16.189  19.175   2.266
84148W        W54029  33.961  23.158  13.384
84149W        W54030   8.665  22.527   2.275
84150W        W54031  36.953  39.052  10.579
84151W        W54032  43.474  12.651  12.511
84152W        W54033  36.874   2.365   0.909
84153W        W54034  18.296   2.409   3.259
84154W        W54035  33.101  19.103  13.842
84155W        W54036  28.447  16.221   0.298
84156W        W54037  10.790  36.008  12.848
84157W        W54038  23.735   4.237  12.870
84158W        W54039  39.841  28.083   3.162
84159W        W54040  28.940  35.453  14.324
84160W        W54041  29.431  13.311   4.272
84161W        W54042  24.052  44.888  10.539
84162W        W54043  37.990  44.460  11.551
84163W        W54044  27.476   9.691  14.763
84164W        W54045  11.280  10.832  14.759
84165W        W54046  16.096  43.422  12.845
84166W        W54047   7.360  22.577   0.884
84167W        W54048  32.629   9.732   2.868
84168W        W54049  40.481  24.007  10.465
84169W        W54050  20.086  22.646   2.871
84170W        W54051  44.851  41.366  14.424
84171W        W54052  14.321  26.491  13.995
84172W        W54053  36.391  44.823   3.793
84173W        W54054  22.524  19.682   4.782
84174W        W54055  38.929  37.893   0.399
84175W        W54056   7.823  40.316  14.461
84176W        W54057  30.087  26.465   4.738
84177W        W54058   6.351   9.886  13.868
84178W        W54059  17.610  19.057  10.950
84179W        W54060  31.444  24.063  12.426
84180W        W54061  24.066  34.373   5.306
84181W        W54062  24.584  34.379  10.962
84182W        W54063  36.454  40.497   2.395
84183W        W54064  30.939  16.647   0.396
84184W        W54065   5.890  20.115   4.714
84185W        W54066  10.782  35.951   2.276
84186W        W54067  42.834  38.975   2.273
84187W        W54068   0.438  23.715   0.865
84188W        W54069  35.043   4.775   3.655
84189W        W54070   5.364  41.833  12.510
84190W        W54071  27.074  12.764   3.795
84191W        W54072  35.442  36.418   2.801
84192W        W54073  22.512  34.968   0.952
84193W        W54074  37.012  15.602  11.499
84194W        W54075  22.006  39.413   1.267
84195W        W54076  39.460  30.955   1.779
84196W        W54077  16.190   2.374  13.895
84197W        W54078  27.197   4.890  14.872
84198W        W54079  21.577  31.493  11.104
84199W        W54080  41.831  20.703   4.728
84200W        W54081  41.503  24.139   2.240
84201W        W54082  14.690  39.397  12.408
84202W        W54083  16.101  17.296   1.449
84203W        W54084   0.822  31.096  12.389
84204W        W54085  11.867   7.343   0.407
84205W        W54086   0.770   8.308   2.847
84206W        W54087  35.506  14.762  13.428
84207W        W54088   3.854   8.735  11.086
84208W        W54089  42.307  19.684  12.393
84209W        W54090  15.736  30.947   1.926
84210W        W54091  13.646   1.797  13.938
84211W        W54092  15.229  44.853   3.161
84212W        W54093  35.961  35.551   0.748
84213W        W54094  38.441   4.854   0.953
84214W        W54095  34.612  17.672  12.963
84215W        W54096  12.848  32.111   5.266
84216W        W54097  27.049  18.076   4.246
84217W        W54098   2.806  25.008   4.178
84218W        W54099  28.938   0.821  12.546
84219W        W54100   7.299  23.171  12.866
84220W        W54101  40.518  25.567  14.841
84221W        W54102  38.373  29.589  14.858
84222W        W54103  37.074  43.941   9.647
84223W        W54104  23.505  39.939  13.035
84224W        W54105  28.942  16.217   2.392
84225W        W54106  19.777   3.795   3.305
84226W        W54107  35.039  21.530  12.002
84227W        W54108  28.109  20.194  11.952
84228W        W54109  25.695   2.926   0.942
84229W        W54110  33.579   9.221  10.452
84230W        W54111  29.957  24.043   4.802
84231W        W54112  38.971  24.017   2.813
84232W        W54113  30.970   4.904   2.734
84233W        W54114  22.671  10.268  11.598
84234W        W54115  36.576  25.035  10.956
84235W        W54116   5.735  29.100   4.171
84236W        W54117  42.396  13.143  11.986
84237W        W54118   5.369   0.418   1.865
84238W        W54119  40.901  31.633   4.820
84239W        W54120  35.040  11.324  14.387
84240W        W54121  38.042   4.440  13.979
84241W        W54122  27.516  22.153  11.433
84242W        W54123  40.489  33.467   0.796
84243W        W54124   6.731  24.204  14.849
84244W        W54125  18.750   8.747   0.427
84245W        W54126  36.028  16.777   1.310
84246W        W54127  31.055   2.453  14.017
84247W        W54128  11.837  26.162  14.501
84248W        W54129   3.325  43.498   1.292
84249W        W54130  27.634   9.331   3.693
84250W        W54131  12.761  11.856  13.547
84251W        W54132   8.350   0.978   1.239
84252W        W54133  29.022  26.176   1.794
84253W        W54134  10.364  29.056   1.290
84254W        W54135  35.876  41.519  13.843
84255W        W54136  30.654   6.780   0.434
84256W        W54137  30.515  42.891   5.115
84257W        W54138  32.023  22.059   4.755
84258W        W54139   8.182  23.608  12.382
84259W        W54140   3.860   7.199   3.323
84260W        W54141  43.786  28.056  11.540
84261W        W54142  28.636  11.740  12.467
84262W        W54143  38.823  41.305   3.811
84263W        W54144  43.898  34.448  11.586
84264W        W54145  17.766  33.595   3.191
84265W        W54146  16.794  41.806  14.886
84266W        W54147   3.750  44.421  10.996
84267W        W54148   1.901  16.115  10.635
84268W        W54149  38.904  22.054  13.522
84269W        W54150  42.951  14.620  13.483
84270W        W54151   9.312   8.858   4.628
84271W        W54152  36.578   2.369   1.755
84272W        W54153  13.231   0.491   2.689
84273W        W54154   1.460  41.886  12.355
84274W        W54155   6.234  12.754   0.330
84275W        W54156   0.317  37.527  14.880
84276W        W54157   8.250  14.149  11.936
84277W        W54158  31.121   5.865   0.866
84278W        W54159  15.229   0.458   2.210
84279W        W54160  32.431  13.304   3.695
84280W        W54161  27.943  26.676   1.275
84281W        W54162  32.615   1.879  12.824
84282W        W54163  42.344  15.109  10.555
84283W        W54164  42.489   4.273   1.367
84284W        W54165  32.089  25.047  12.403
84285W        W54166  27.457  44.969   4.197
84286W        W54167  20.141  40.805  11.393
84287W        W54168  17.729  33.617  14.791
84288W        W54169  40.808  24.070  11.935
84289W        W54170  14.209  14.191  10.562
84290W        W54171   9.829  27.552  11.120
84291W        W54172  33.883  15.596  13.374
84292W        W54173   7.308  44.458   2.709
84293W        W54174  10.294  41.415  13.809
84294W        W54175  42.777  12.236   4.141
84295W        W54176  26.479   6.803   3.758
84296W        W54177  12.247  36.052  14.814
84297W        W54178  36.034   6.340   4.618
84298W        W54179   7.215  13.844   4.694
84299W        W54180  15.323  11.642   3.369
84300W        W54181  10.169  12.170   5.307
84301W        W54182  16.692   2.942  13.890
84302W        W54183  29.655  23.644  10.093
84303W        W54184  12.213  25.109   2.827
84304W        W54185  10.281  13.748  12.040
84305W        W54186   7.858  28.553  12.093
84306W        W54187  35.400  30.981   3.665
84307W        W54188  11.702  39.952   1.712
84308W        W54189  21.141  33.506   0.928
84309W        W54190  16.135  33.963   0.812
84310W        W54191  12.314  10.160   0.325
84311W        W54192  31.418  39.415   2.869
84312W        W54193  30.922  33.510  13.905
84313W        W54194  14.151   9.232   3.264
84314W        W54195  40.325  37.904  10.500
84315W        W54196  16.218  23.544   1.423
84316W        W54197   2.398  44.949  11.412
84317W        W54198  22.700  37.838   2.342
84318W        W54199  37.942  14.143   3.868
84319W        W54200  30.577   4.427  10.890
84320W        W54201   5.407   4.775  11.551
84321W        W54202  41.436   5.843  14.850
84322W        W54203  43.832  20.113   4.719
84323W        W54204  33.449  27.545   2.238
84324W        W54205  43.946   4.348  14.485
84325W        W54206  22.704  36.842  12.953
84326W        W54207  38.039  30.616  14.340
84327W        W54208  17.192  44.355   4.608
84328W        W54209   1.736   9.227   2.880
84329W        W54210   9.221   3.409  11.873
84330W        W54211  39.505  32.927  13.980
84331W        W54212  20.124  33.986  14.489
84332W        W54213  32.933  13.111  13.535
84333W        W54214  15.275  41.489  13.381
84334W        W54215  42.797  20.116  14.909
84335W        W54216   1.890   5.251   0.766
84336W        W54217  34.531  23.644   2.810
84337W        W54218  16.317  22.017   4.736
84338W        W54219  26.643  26.964  14.846
84339W        W54220   8.303   5.711  13.449
84340W        W54221   2.267   5.282  14.388
84341W        W54222  28.587  21.622   1.251
84342W        W54223   8.888  16.098  13.947
84343W        W54224   8.393  36.447  11.952
84344W        W54225  42.951   6.773  14.308
84345W        W54226   4.433  23.131  14.783
84346W        W54227  19.636  24.501  13.425
84347W        W54228  12.190  24.137  12.462
84348W        W54229  30.138  20.566  10.520
84349W        W54230  27.167   7.753  14.491
84350W        W54231  41.964  10.641   4.624
84351W        W54232  28.506  43.902   2.862
84352W        W54233  14.287  41.889   4.747
84353W        W54234  35.862   8.897  14.487
84354W        W54235   1.880  35.582  14.829
84355W        W54236  26.118  44.488   4.351
84356W        W54237  14.175  33.100   3.795
84357W        W54238  38.061  39.402   0.450
84358W        W54239  28.499  33.942  12.045
84359W        W54240  37.929  41.418   0.911
84360W        W54241  16.075  15.619   0.846
84361W        W54242  16.118   9.771   2.237
84362W        W54243  37.999  34.928  11.478
84363W        W54244  17.286  10.219   9.940
84364W        W54245  33.032   5.332  13.525
84365W        W54246  27.450  28.533   4.833
84366W        W54247  21.158  42.472   1.733
84367W        W54248   2.913   3.312   3.357
84368W        W54249  26.153  37.351  13.462
84369W        W54250  18.584  30.988  13.967
84370W        W54251  34.571  29.441  11.928
84371W        W54252  16.279  13.781   4.651
84372W        W54253   9.183  34.545  10.016
84373W        W54254   5.797  23.133   3.712
84374W        W54255   8.362  18.590   1.855
84375W        W54256  22.573  14.208   3.357
84376W        W54257  42.839  24.143   1.377
84377W        W54258  44.893  24.622  11.871
84378W        W54259   0.311   4.873  13.392
84379W        W54260  40.031  34.486   1.836
84380W        W54261  29.093   5.240  11.017
84381W        W54262  38.399  16.630   0.820
84382W        W54263  28.022  11.322  13.879
84383W        W54264  13.773  31.525   2.741
84384W        W54265  30.416  17.178   1.387
84385W        W54266  27.190  15.695  13.959
84386W        W54267  38.911  32.447  10.499
84387W        W54268  24.225   9.744   4.637
84388W        W54269  37.995  15.663   0.340
84389W        W54270  19.165  17.587   2.731
84390W        W54271  17.143   8.209  14.011
84391W        W54272  38.952   0.962   0.474
84392W        W54273  35.945  11.319  14.864
84393W        W54274  31.569  39.894   1.343
84394W        W54275  12.655  16.082  10.110
84395W        W54276   0.416   4.218   1.716
84396W        W54277  12.798   0.958  12.071
84397W        W54278  40.444  12.215   2.248
84398W        W54279  33.457   6.195   2.306
84399W        W54280  16.616  22.610   3.278
84400W        W54281  44.473  42.799   3.678
84401W        W54282  29.585  29.595  14.317
84402W        W54283  16.240  36.036  13.816
84403W        W54284   0.488  15.140   1.720
84404W        W54285  20.150  18.174   0.798
84405W        W54286   8.803   5.860   4.684
84406W        W54287  44.350  41.462  11.606
84407W        W54288  32.426  44.322   0.455
84408W        W54289  15.773  16.773   2.723
84409W        W54290  42.974  42.496   2.246
84410W        W54291   3.220  39.872  13.997
84411W        W54292  34.014  27.679  14.933
84412W        W54293   5.431  25.710  11.939
84413W        W54294  23.505  20.056   3.307
84414W        W54295  29.143  39.404   2.836
84415W        W54296   6.218  23.195   2.257
84416W        W54297  38.353  22.054  11.969
84417W        W54298  22.051  16.756   0.450
84418W        W54299  44.835   1.318   2.351
84419W        W54300  37.486  16.603  14.004
84420W        W54301  34.904  17.615  14.436
84421W        W54302   3.404  22.534  14.780
84422W        W54303  26.117  23.056  11.552
84423W        W54304  16.197  22.568  10.634
84424W        W54305  29.584  25.006  10.422
84425W        W54306  44.414  40.516  13.357
84426W        W54307  22.146  37.420  11.951
84427W        W54308  20.171   3.428   3.681
84428W        W54309  32.119  32.467  13.328
84429W        W54310  31.969  38.845  11.049
84430W        W54311  10.721  16.114  14.979
84431W        W54312   2.362  30.023   1.282
84432W        W54313  34.513  43.439  13.478
84433W        W54314  18.176  32.471   0.842
84434W        W54315   4.364  18.689  10.970
84435W        W54316  22.565  27.479  10.611
84436W        W54317  23.717  41.314  13.853
84437W        W54318  34.517   0.494   4.239
84438W        W54319  30.557   4.327   1.324
84439W        W54320  21.663  43.928   1.863
84440W        W54321   3.310  19.644   4.278
84441W        W54322   3.849  19.675  11.943
84442W        W54323  12.281  26.692   3.201
84443W        W54324   1.346  13.717  11.869
84444W        W54325  26.185  39.959   1.289
84445W        W54326   5.437  11.191   2.418
84446W        W54327   3.291  17.663   1.364
84447W        W54328  26.601  36.385  12.348
84448W        W54329  34.438  43.877   0.729
84449W        W54330  20.707   2.370   3.263
84450W        W54331  16.122   6.786   3.768
84451W        W54332  44.420  26.022   0.476
84452W        W54333  37.063  34.118  10.599
84453W        W54334   9.686  29.138   0.263
84454W        W54335  27.471  30.032  11.072
84455W        W54336   0.309  41.844   1.299
84456W        W54337   4.767  16.312  10.529
84457W        W54338  23.637  43.837   3.373
84458W        W54339  15.295  32.464  11.546
84459W        W54340   3.458  39.407  13.544
84460W        W54341  15.111  30.415   0.369
84461W        W54342  32.542  42.425  10.413
84462W        W54343  18.073   1.885   0.306
84463W        W54344  21.545  13.713  13.974
84464W        W54345  10.754  23.704   2.386
84465W        W54346   7.815  29.117  13.395
84466W        W54347  28.555  15.320  11.375
84467W        W54348   7.754   5.750  12.837
84468W        W54349   5.753  22.521  13.425
84469W        W54350  14.247  27.171  12.472
84470W        W54351  24.999  13.617  11.036
84471W        W54352  37.000  40.922   2.341
84472W        W54353  44.439  20.698  12.884
84473W        W54354  17.570   3.435  10.432
84474W        W54355  18.703  18.566   0.842
84475W        W54356  18.164  10.180  11.099
84476W        W54357  35.073   3.360   0.262
84477W        W54358   1.393  11.781  11.116
84478W        W54359  39.035   1.779   2.737
84479W        W54360  19.596  11.814  11.942
84480W        W54361  28.932  41.872  13.509
84481W        W54362  11.749  35.463   0.878
84482W        W54363   2.802   4.439  10.536
84483W        W54364  36.920   5.918   1.396
84484W        W54365  18.109  40.330   4.264
84485W        W54366  22.024  33.588  11.455
84486W        W54367   2.252  32.549   2.771
84487W        W54368  40.033   4.254   3.163
84488W        W54369   9.299  31.551  12.457
84489W        W54370  21.113  21.685  14.419
84490W        W54371   7.409   7.280  13.818
84491W        W54372  11.242  44.987  14.396
84492W        W54373  20.709  37.905   2.242
84493W        W54374   9.227  29.627   3.235
84494W        W54375  42.503   7.217  12.419
84495W        W54376  43.316   7.906   1.386
84496W        W54377  33.521  36.953   1.217
84497W        W54378  32.990  32.046   1.921
84498W        W54379   9.768  28.173  14.454
84499W        W54380  40.370   7.252   9.995
84500W        W54381  42.477   2.419  14.809
84501W        W54382  10.826  12.233   4.835
84502W        W54383  21.017  26.657   4.294
84503W        W54384  40.485  33.047  13.524
84504W        W54385  41.822  19.724   5.166
84505W        W54386   5.333   9.810   2.182
84506W        W54387  25.511  41.432  11.982
84507W        W54388   9.814  10.384  13.337
84508W        W54389  38.919  25.488   3.295
84509W        W54390  28.541  15.599   4.299
84510W        W54391   9.667  21.017   4.760
84511W        W54392  22.725  17.299   2.372
84512W        W54393  26.071  43.022  14.022
84513W        W54394  29.577  33.985   3.632
84514W        W54395  21.057  31.107   4.309
84515W        W54396  41.966   5.790   1.360
84516W        W54397  30.550  30.557   4.320
84517W        W54398  44.919  32.894  13.833
84518W        W54399   3.261  36.065   4.709
84519W        W54400  25.605  13.824   4.610
84520W        W54401  11.130  33.976   2.234
84521W        W54402  22.030  42.512  13.866
84522W        W54403  34.873  11.155  10.107
84523W        W54404   8.772  37.357  11.398
84524W        W54405  33.483  26.138  13.371
84525W        W54406  29.013  24.490  12.484
84526W        W54407  32.962   8.699  14.306
84527W        W54408  26.997  12.629   4.783
84528W        W54409  15.151  39.840   2.350
84529W        W54410  15.694  42.498  12.070
84530W        W54411  34.536   3.758  13.999
84531W        W54412  28.129   9.718  14.922
84532W        W54413  42.980   7.370   9.947
84533W        W54414   1.325  36.484  14.881
84534W        W54415  22.534  30.033   2.865
84535W        W54416  38.489   6.875  10.632
84536W        W54417  25.522  15.116   0.773
84537W        W54418   2.249  11.176  11.569
84538W        W54419  28.545  41.460   2.821
84539W        W54420  32.905  13.625  14.958
84540W        W54421   6.301  12.829   4.230
84541W        W54422  18.195  16.646   3.663
84542W        W54423  19.262  40.021  13.530
84543W        W54424  20.684   7.849  14.342
84544W        W54425   9.852  22.232   1.858
84545W        W54426  11.725  35.512  11.558
84546W        W54427  34.969   0.258   0.917
84547W        W54428  33.402  36.954  11.453
84548W        W54429  19.695  23.062   1.311
84549W        W54430  18.193   0.962   4.117
84550W        W54431   1.848  12.164   1.379
84551W        W54432  27.458  13.152   3.325
84552W        W54433  19.248   7.870   0.463
84553W        W54434  44.271  31.923  14.792
84554W        W54435  26.475  37.023   4.191
84555W        W54436  33.440  22.509   3.179
84556W        W54437  23.054  11.371  11.075
84557W        W54438  25.075   2.898  11.458
84558W        W54439  25.471   9.328   4.743
84559W        W54440  14.104  34.989   1.262
84560W        W54441  10.197  12.660  12.825
84561W        W54442  22.689  19.780   9.956
84562W        W54443  19.148  38.036   2.845
84563W        W54444   6.383  28.955  11.005
84564W        W54445  40.506  25.105   1.401
84565W        W54446  24.714   5.388  14.501
84566W        W54447   3.763  28.459   4.658
84567W        W54448  15.683  34.094   0.828
84568W        W54449  26.562   4.336  12.051
84569W        W54450  39.482  33.532  10.585
84570W        W54451   5.193   1.459   1.310
84571W        W54452  43.401  25.129  12.096
84572W        W54453  31.615   2.950  11.066
84573W        W54454  30.089  41.531   1.788
84574W        W54455  18.293   5.931  12.002
84575W        W54456  29.620   1.832  12.010
84576W        W54457   6.296  28.628   4.770
84577W        W54458  37.060   3.771  13.373
84578W        W54459  38.398  37.976   4.680
84579W        W54460   7.241  20.655   1.813
84580W        W54461  39.358  22.250  12.858
84581W        W54462  36.991  16.724   0.322
84582W        W54463  10.327   3.432   4.278
84583W        W54464  29.631   4.711  13.835
84584W        W54465  19.755  23.095  14.390
84585W        W54466  10.332  21.097  14.414
84586W        W54467  11.670  30.527   5.675
84587W        W54468  30.567  34.369   1.390
84588W        W54469  35.510  15.702  11.091
84589W        W54470   2.754  11.686   1.763
84590W        W54471  18.702  20.594  13.319
84591W        W54472  28.981  41.894  14.004
84592W        W54473  38.479  18.190   1.221
84593W        W54474   3.412  21.518   4.754
84594W        W54475  37.015  41.862   3.775
84595W        W54476  15.615  14.697   2.789
84596W        W54477  39.502  17.565  13.914
84597W        W54478  27.097  19.197   2.722
84598W        W54479   1.313  44.947   4.297
84599W        W54480   0.385  33.566   2.413
84600W        W54481  17.693  38.346  10.422
84601W        W54482  39.976  20.127  14.490
84602W        W54483  40.002   7.698   3.188
84603W        W54484  33.490   5.373   0.249
84604W        W54485  20.224  37.076   1.447
84605W        W54486  44.447  17.204  12.888
84606W        W54487  10.695  31.985  13.796
84607W        W54488  25.153  34.393   1.771
84608W        W54489   8.356   6.214  10.961
84609W        W54490  36.918  41.010   3.271
84610W        W54491  29.154   6.849  14.977
84611W        W54492  13.667   4.379   2.249
84612W        W54493  13.708  37.885   1.380
84613W        W54494   5.266  21.248   3.346
84614W        W54495  31.098  18.670  13.003
84615W        W54496  13.608  32.512  12.083
84616W        W54497  15.717  37.348  13.512
84617W        W54498  36.398  19.631   3.790
84618W        W54499  42.511  38.558   2.889
84619W        W54500  25.043  26.152  14.365
84620W        W54501  37.083  36.508  14.505
84621W        W54502  13.706  37.543  12.888
84622W        W54503  42.475  31.044   4.204
84623W        W54504  32.926  28.169   0.336
84624W        W54505  37.406  26.457   0.957
84625W        W54506  39.372  18.637  13.508
84626W        W54507   3.374  42.341  14.016
84627W        W54508   4.707   2.325  14.017
84628W        W54509  28.992  15.593   3.220
84629W        W54510  13.601  30.487  11.461
84630W        W54511  42.887  43.879   9.972
84631W        W54512  24.688  39.034  12.855
84632W        W54513   1.798  13.348   4.616
84633W        W54514  35.023  29.558   4.206
84634W        W54515  13.294  35.947   1.799
84635W        W54516  17.181   3.807   0.266
84636W        W54517   0.296  34.543  13.452
84637W        W54518  29.936  31.054  12.503
84638W        W54519   0.460  22.098   4.137
84639W        W54520  28.531  20.623  12.824
84640W        W54521  14.131  37.503  11.424
84641W        W54522  17.761   4.744   2.286
84642W        W54523  36.502  33.512  10.931
84643W        W54524  10.829  42.915   0.275
84644W        W54525   5.761  42.990  11.909
84645W        W54526   3.402  24.493  14.933
84646W        W54527  34.965   4.798  12.453
84647W        W54528  12.676  30.471   0.360
84648W        W54529  37.442  42.858   0.398
84649W        W54530  14.215  38.465  10.441
84650W        W54531   0.974  28.968  11.457
84651W        W54532  11.137   5.768  10.484
84652W        W54533  12.134  33.464  12.940
84653W        W54534  38.504   0.258  11.534
84654W        W54535  39.988  12.787  13.372
84655W        W54536  35.948  11.623  13.954
84656W        W54537   1.890   4.232   3.195
84657W        W54538  31.003  14.190   2.665
84658W        W54539  38.539  38.442  14.314
84659W        W54540  24.501   1.909  13.797
84660W        W54541  41.893  12.713  13.375
84661W        W54542  35.929   9.649  12.065
84662W        W54543   3.815  11.172  12.083
84663W        W54544  37.464  30.962  13.395
84664W        W54545  42.899   5.383  13.403
84665W        W54546  34.052   4.800  14.396
84666W        W54547  28.440  36.964   4.736
84667W        W54548   4.735  39.478   5.229
84668W        W54549  20.618  12.792  11.562
84669W        W54550  41.418  35.960   2.216
84670W        W54551  39.349   0.749  14.019
84671W        W54552   0.343  33.587  10.482
84672W        W54553  34.087  14.701   0.382
84673W        W54554  10.373   9.759  14.023
84674W        W54555   1.756   3.220   0.384
84675W        W54556  41.520  14.142   0.482
84676W        W54557   7.804  42.850   2.749
84677W        W54558  40.351  27.601  11.890
84678W        W54559  12.244  25.976   3.750
84679W        W54560  35.412   1.919   2.877
84680W        W54561  23.239  26.974   1.412
84681W        W54562   4.274   6.267  11.471
84682W        W54563  37.897  44.487   9.984
84683W        W54564  24.028  30.136  14.942
84684W        W54565  34.103  36.916  14.404
84685W        W54566  36.015  40.430   2.848
84686W        W54567  31.142  21.174  10.423
84687W        W54568  11.318  42.285   3.751
84688W        W54569   8.255   8.701   1.431
84689W        W54570   7.398  23.218  11.406
84690W        W54571  30.603  28.484   3.324
84691W        W54572  28.672  41.799  10.898
84692W        W54573  38.991  36.015   1.424
84693W        W54574  28.593  41.494   4.346
84694W        W54575   0.815  10.324   5.129
84695W        W54576   0.900  37.021  12.836
84696W        W54577  36.576   2.904   1.316
84697W        W54578  38.834   0.819   2.256
84698W        W54579  43.013  24.015  13.948
84699W        W54580  28.176   1.908  11.915
84700W        W54581   9.152  14.783   2.772
84701W        W54582  36.518  20.583  14.468
84702W        W54583  35.014  17.086  10.543
84703W        W54584  19.104  26.586  12.364
84704W        W54585   1.829  12.130  11.024
84705W        W54586  23.591  19.237   0.813
84706W        W54587   5.369  14.828   1.387
84707W        W54588   5.391  32.956   4.213
84708W        W54589   0.441  16.583   0.294
84709W        W54590  41.914  44.968   2.355
84710W        W54591  33.958   4.369   4.744
84711W        W54592  44.811  29.669  11.880
84712W        W54593  19.538  43.972  14.459
84713W        W54594  39.351   3.347   2.809
84714W        W54595  28.494  26.525  11.026
84715W        W54596  36.577  14.180   1.786
84716W        W54597   5.780  31.049  14.376
84717W        W54598  36.888   0.348   0.466
84718W        W54599  18.230  39.470   4.331
84719W        W54600   7.862   4.412   3.329
84720W        W54601   8.690  14.225   2.857
84721W        W54602  22.703  20.110  14.998
84722W        W54603  39.367  16.075  10.601
84723W        W54604  32.607  13.275  11.087
84724W        W54605  41.921   7.354  11.447
84725W        W54606  11.175  20.649   4.145
84726W        W54607  30.040  17.583   3.634
84727W        W54608  11.847  12.618   1.376
84728W        W54609  24.721  37.452  11.540
84729W        W54610  36.891  12.774   2.769
84730W        W54611  35.484  35.057  11.867
84731W        W54612  27.087  19.164  14.279
84732W        W54613   3.710  35.566  10.892
84733W        W54614   1.915  30.064  10.900
84734W        W54615  11.754  44.758   0.935
84735W        W54616  43.367  40.921   4.254
84736W        W54617  16.623  27.947  12.897
84737W        W54618   7.908  19.158   0.466
84738W        W54619  15.615  27.099   2.823
84739W        W54620  38.024   3.862  12.485
84740W        W54621  28.949  37.518   0.778
84741W        W54622  22.113  44.860   3.751
84742W        W54623   9.646  25.647   1.931
84743W        W54624   5.723   4.297  14.005
84744W        W54625  28.434  40.382  11.478
84745W        W54626  41.836  35.864   1.234
84746W        W54627  38.535   3.433  11.127
84747W        W54628   6.272  18.145  13.035
84748W        W54629  26.616  10.350  12.422
84749W        W54630   1.431  25.581  14.415
84750W        W54631  26.991  21.651   0.889
84751W        W54632   6.266  29.003   0.861
84752W        W54633  29.982  18.170  12.377
84753W        W54634  22.114  32.613   3.199
84754W        W54635  28.939   4.775  11.907
84755W        W54636  28.124   2.353  14.462
84756W        W54637  16.116  16.688  13.401
84757W        W54638   3.919   8.787   2.699
84758W        W54639  24.666   4.318  14.439
84759W        W54640  13.674  33.929   1.892
84760W        W54641  29.002  33.994   1.935
84761W        W54642  17.584  18.097   4.664
84762W        W54643  32.141  20.243   0.335
84763W        W54644  13.137  38.836   0.287
84764W        W54645  22.190   0.299   2.849
84765W        W54646  39.354  38.445  12.988
84766W        W54647   8.172  15.657   4.624
84767W        W54648  28.458  30.995   1.843
84768W        W54649  25.467  19.121   0.844
84769W        W54650  14.823  22.134  14.353
84770W        W54651  10.677  40.829  12.032
84771W        W54652  33.085  28.605  12.509
84772W        W54653  17.661  16.760   1.330
84773W        W54654   7.228   1.766   1.344
84774W        W54655  20.538  20.588   4.274
84775W        W54656  15.746  35.980   4.325
84776W        W54657  28.524  22.069   0.480
84777W        W54658   3.338  16.732   4.206
84778W        W54659  27.501  40.392  14.303
84779W        W54660  20.630  20.677   2.856
84780W        W54661  21.732   7.341   0.809
84781W        W54662   6.226   5.731   0.304
84782W        W54663  41.844  33.602   1.760
84783W        W54664  11.730   0.376   0.755
84784W        W54665  26.041   4.386  12.559
84785W        W54666  14.095  10.808   1.388
84786W        W54667  25.118  23.596  13.815
84787W        W54668  39.399  17.619   3.870
84788W        W54669   1.312  34.487  12.078
84789W        W54670  32.571  16.249  14.946
84790W        W54671  16.159  25.192   3.335
84791W        W54672  29.469  26.108  10.442
84792W        W54673  10.186  29.472   2.854
84793W        W54674  38.995  23.650   2.220
84794W        W54675  33.995  23.604   4.123
84795W        W54676  40.924  20.723  12.004
84796W        W54677  24.127   6.216   0.296
84797W        W54678  22.727  44.303  10.105
84798W        W54679  31.127  26.693  13.319
84799W        W54680  33.926   2.829  10.580
84800W        W54681  43.367  36.045  13.529
84801W        W54682  29.142  27.954   1.330
84802W        W54683   9.190  32.408  14.996
84803W        W54684  33.625  43.008  14.443
84804W        W54685  25.706  43.930   0.782
84805W        W54686   2.801  29.479   4.329
84806W        W54687  16.572  25.072   4.769
84807W        W54688  10.311   3.223  13.912
84808W        W54689  14.734  21.694   3.283
84809W        W54690  13.666  43.443  11.546
84810W        W54691   8.173  44.414  10.406
84811W        W54692  12.816  38.841  12.974
84812W        W54693  11.289  32.043   4.275
84813W        W54694  17.173  22.134   2.709
84814W        W54695  36.032  34.978  12.934
84815W        W54696   2.390   6.342   5.278
84816W        W54697   1.835  43.860   3.284
84817W        W54698  30.145  18.640   2.212
84818W        W54699  16.208  39.054   2.269
84819W        W54700  23.054  38.427  10.449
84820W        W54701   4.772  20.637  11.095
84821W        W54702   7.307  41.502  12.577
84822W        W54703  19.191  18.175   0.354
84823W        W54704  10.363  40.957  12.571
84824W        W54705  29.514  24.150  13.313
84825W        W54706  34.512   4.750  11.537
84826W        W54707   3.752  16.102  11.597
84827W        W54708  32.926  39.852   1.337
84828W        W54709  35.915  39.824   1.816
84829W        W54710  43.786   4.753   2.245
84830W        W54711   5.885  40.411  11.970
84831W        W54712  29.989  38.987   1.250
84832W        W54713  15.578  43.507   0.393
84833W        W54714  31.441  16.673   0.480
84834W        W54715  28.994  32.404   0.822
84835W        W54716   8.182  20.735   2.416
84836W        W54717  35.970  20.159   1.306
84837W        W54718  37.568  17.624  10.573
84838W        W54719  41.008  34.056   1.712
84839W        W54720   1.963  41.846   1.367
84840W        W54721  34.416  37.503  13.888
84841W        W54722  42.787  30.982  14.953
84842W        W54723  39.510  22.740   4.221
84843W        W54724  38.913   4.838  12.536
84844W        W54725  14.607  38.017  13.389
84845W        W54726  39.560   0.258  13.002
84846W        W54727  16.754  21.647   1.823
84847W        W54728  44.341  36.361  12.873
84848W        W54729  42.934  42.007  12.024
84849W        W54730  43.969  20.132  10.526
84850W        W54731  36.539  36.859   4.149
84851W        W54732  36.392  15.219  14.007
84852W        W54733  15.793   2.347  11.055
84853W        W54734  33.385  34.612   2.328
84854W        W54735  36.381  15.215  13.023
84855W        W54736  16.271  14.638   1.918
84856W        W54737  23.655  17.585  10.493
84857W        W54738   9.391  41.945   3.304
84858W        W54739   1.836  21.712  14.004
84859W        W54740  29.507  17.214  10.964
84860W        W54741  29.120   6.244   5.134
84861W        W54742  41.414  40.411  10.439
84862W        W54743  25.562  17.222   4.674
84863W        W54744  25.517  38.058   4.706
84864W        W54745  12.252   6.308  11.095
84865W        W54746  15.085  12.118   4.280
84866W        W54747   8.660  40.011   3.222
84867W        W54748  27.539  12.769   2.220
84868W        W54749   0.248   0.861   1.315
84869W        W54750  21.620  26.464   5.185
84870W        W54751  22.587  15.253  10.929
84871W        W54752  44.821   7.353   2.376
84872W        W54753  17.208  30.921  10.417
84873W        W54754  10.644  44.445  13.382
84874W        W54755  44.874  14.099   2.691
84875W        W54756   3.337  36.349  11.101
84876W        W54757  40.851  33.926  13.437
84877W        W54758   8.214  41.001   1.445
84878W        W54759  42.930  31.093   3.705
84879W        W54760   4.918  30.426   5.099
84880W        W54761   1.871  41.019  10.894
84881W        W54762  19.624  14.333  13.892
84882W        W54763   3.220  26.492  14.407
84883W        W54764  24.022   9.808   3.370
84884W        W54765  11.249  35.019  13.993
84885W        W54766  30.159  44.454  11.503
84886W        W54767   6.742  39.820  12.843
84887W        W54768  19.700  44.450  13.977
84888W        W54769   4.741   6.678   2.403
84889W        W54770  25.047  27.571   3.255
84890W        W54771  14.194  43.296   2.747
84891W        W54772  20.550  37.858   1.449
84892W        W54773  17.305  41.972   4.292
84893W        W54774   5.393  14.151  12.848
84894W        W54775  18.695  38.970  12.084
84895W        W54776  33.491  38.020  10.596
84896W        W54777   1.890   6.755  13.318
84897W        W54778  21.514  17.611   0.347
84898W        W54779  14.605  27.055   4.262
84899W        W54780  44.892  41.292   3.333
84900W        W54781  12.253  30.550  14.945
84901W        W54782  43.343  39.046  11.597
84902W        W54783  12.641   1.927   4.253
84903W        W54784  21.236   4.211   5.191
84904W        W54785  18.276   9.169  13.990
84905W        W54786  19.658   6.204   2.267
84906W        W54787   1.815  41.452  10.950
84907W        W54788  26.962  24.589   0.417
84908W        W54789  11.786  31.634   0.334
84909W        W54790  10.274   3.370  12.003
84910W        W54791  22.042  11.259   0.831
84911W        W54792  39.536   2.866  10.465
84912W        W54793  21.666  32.487  13.529
84913W        W54794  35.557  17.073  11.602
84914W        W54795  21.180  23.092  12.548
84915W        W54796   2.904  40.920  10.579
84916W        W54797  26.044  18.757  13.886
84917W        W54798  39.967   3.818  14.285
84918W        W54799  38.439  11.324   4.194
84919W        W54800  13.156  38.482   5.119
84920W        W54801  28.542  42.893  13.020
84921W        W54802  31.465   0.962   0.789
84922W        W54803   4.406   7.188   4.786
84923W        W54804  36.098  33.004   0.300
84924W        W54805  18.778   6.737  10.454
84925W        W54806  43.496  26.963  11.127
84926W        W54807  29.079  24.705  13.021
84927W        W54808  43.941  22.630   2.823
84928W        W54809  12.168  35.520  11.110
84929W        W54810   8.835   6.295  14.426
84930W        W54811   8.871  33.116  14.512
84931W        W54812  14.322  16.184  12.022
84932W        W54813  20.611  43.928   4.727
84933W        W54814  25.647  41.859  10.634
84934W        W54815  28.454  19.648  12.539
84935W        W54816  37.934  33.094   2.759
84936W        W54817  13.725  22.037   2.898
84937W        W54818  23.165  17.662  11.866
84938W        W54819   2.371  35.534   1.272
84939W        W54820  27.124  22.514   0.371
84940W        W54821  13.752  23.216  10.440
84941W        W54822   1.365  20.110  13.400
84942W        W54823   0.922  13.251  13.002
84943W        W54824  27.093  23.714  11.569
84944W        W54825   8.819  32.427  13.468
84945W        W54826  18.634   0.450  14.336
84946W        W54827   8.672   9.343  11.943
84947W        W54828  22.085  18.180  12.562
84948W        W54829  16.202   8.709   3.803
84949W        W54830  44.412  33.950   0.422
84950W        W54831  37.907  27.128   0.964
84951W        W54832  39.460  19.669   4.336
84952W        W54833  20.730   6.201   4.261
84953W        W54834   6.779  15.613   0.389
84954W        W54835  42.808  29.619   3.202
84955W        W54836  22.613   1.759  10.135
84956W        W54837  10.701   9.241  14.420
84957W        W54838  37.563   0.985   0.791
84958W        W54839  38.841  13.768   3.671
84959W        W54840  39.852  15.641  13.809
84960W        W54841  30.537  39.036  12.919
84961W        W54842  20.564  17.602   3.179
84962W        W54843  42.032   5.820   4.807
84963W        W54844  18.082  42.524   2.327
84964W        W54845   8.366  15.140  11.401
84965W        W54846  31.896  29.937   2.200
84966W        W54847  21.093  19.756  13.482
84967W        W54848  40.884  28.106   2.202
84968W        W54849   0.467  31.017  10.494
84969W        W54850  40.380  42.349   0.911
84970W        W54851   0.477  27.616   1.888
84971W        W54852  36.577   4.353   4.164
84972W        W54853   7.693  34.033  10.916
84973W        W54854  36.881  19.213  11.525
84974W        W54855  25.516  23.584   1.221
84975W        W54856  29.461  27.954   0.421
84976W        W54857  31.899   7.342   0.365
84977W        W54858  21.145  13.602  11.053
84978W        W54859  36.962  35.997   4.185
84979W        W54860  30.086  19.244   2.735
84980W        W54861  18.226  24.082  11.440
84981W        W54862  36.087  11.655   3.762
84982W        W54863  28.952  35.994  12.515
84983W        W54864  18.131  15.614   1.840
84984W        W54865   6.848  30.057   3.240
84985W        W54866  22.505   2.339   4.765
84986W        W54867  28.930  35.869  14.468
84987W        W54868  10.209  25.050  14.975
84988W        W54869  19.759  41.529   0.775
84989W        W54870  24.660  13.787   2.684
84990W        W54871   4.391  37.574   5.178
84991W        W54872   9.862  20.184  10.531
84992W        W54873   3.716   8.241   2.198
84993W        W54874  35.039   5.202   3.343
84994W        W54875  21.174   7.904   0.410
84995W        W54876   2.402  44.987  14.771
84996W        W54877  15.805  26.206   3.657
84997W        W54878  28.459  17.168   0.452
84998W        W54879  16.662  24.041   0.947
84999W        W54880  44.329  40.388   1.273
85000W        W54881  26.037   5.409   3.852
85001W        W54882  28.155   4.326  11.522
85002W        W54883  18.561  28.994  11.540
85003W        W54884  39.052  38.390   4.305
85004W        W54885  14.825   1.360  13.008
85005W        W54886   2.783  29.076  10.409
85006W        W54887  13.272   9.834   1.387
85007W        W54888  11.668   1.473   3.171
85008W        W54889  31.410  30.138  11.381
85009W        W54890  34.555  24.141  14.376
85010W        W54891  31.426  33.874   0.479
85011W        W54892  29.541  23.082   3.757
85012W        W54893   9.202  36.070  10.107
85013W        W54894  16.113  29.109   4.303
85014W        W54895   3.716  27.137   0.311
85015W        W54896  20.184   3.939  11.601
85016W        W54897  32.049  10.666   0.348
85017W        W54898  18.096  14.735  12.028
85018W        W54899  33.068   1.466   4.760
85019W        W54900  44.758  39.824  12.825
85020W        W54901  17.164  19.703   3.653
85021W        W54902  35.069  27.523  10.980
85022W        W54903  10.720  40.889  10.951
85023W        W54904  37.958  14.665   4.772
85024W        W54905  27.600  43.852  10.600
85025W        W54906   6.866  22.172   1.792
85026W        W54907  17.717   6.421   0.853
85027W        W54908  29.453  17.103   4.761
85028W        W54909  32.599  25.009  11.104
85029W        W54910  21.075   3.792  11.904
85030W        W54911  27.621  40.931  12.369
85031W        W54912  37.566  20.721   0.771
85032W        W54913  12.245  26.579   1.296
85033W        W54914  11.263  24.196   0.431
85034W        W54915  40.902  40.448   1.395
85035W        W54916  32.045  15.151  14.275
85036W        W54917  21.123  21.572   0.860
85037W        W54918  43.329  11.286   2.849
85038W        W54919  10.187   8.302   1.872
85039W        W54920  21.657   2.301   1.741
85040W        W54921   8.191  40.848  14.412
85041W        W54922  26.952  37.887  13.361
85042W        W54923  16.785  29.626  11.394
85043W        W54924   3.322  21.577  14.789
85044W        W54925   8.656  27.111   3.330
85045W        W54926  34.378  23.134  11.478
85046W        W54927   4.307  12.648  11.976
85047W        W54928  14.638  27.641  12.877
85048W        W54929  27.594  21.251  13.054
85049W        W54930  23.103  15.182   3.380
85050W        W54931   0.351  23.615   2.687
85051W        W54932  43.311  38.895   2.675
85052W        W54933  41.327  31.083  11.469
85053W        W54934  13.200  36.387   2.774
85054W        W54935   7.844   7.667   3.826
85055W        W54936   9.858  18.068   4.689
85056W        W54937   0.812  15.662   3.721
85057W        W54938  21.702   1.361   0.266
85058W        W54939  24.005  11.621  10.582
85059W        W54940  22.106  34.531   2.239
85060W        W54941   0.333   3.251   1.875
85061W        W54942  40.388  35.386  12.501
85062W        W54943   7.910  42.971  12.563
85063W        W54944  36.553  27.544   2.209
85064W        W54945   3.785  41.493  13.401
85065W        W54946  42.908   4.718  13.519
85066W        W54947   3.805   3.319   0.378
85067W        W54948   1.362  21.751  12.463
85068W        W54949  34.087   4.899  10.560
85069W        W54950  12.856  19.535  13.354
85070W        W54951  28.654  37.548   0.790
85071W        W54952  24.192  26.966   2.293
85072W        W54953  25.175   3.832  11.489
85073W        W54954  36.022  19.692  12.559
85074W        W54955  37.025  16.180  12.505
85075W        W54956   2.759  28.498   4.821
85076W        W54957  17.753  13.209  10.907
85077W        W54958  15.118  18.731  11.080
85078W        W54959  19.246  29.045   4.712
85079W        W54960  23.984  11.228  12.535
85080W        W54961  35.882  43.918  11.054
85081W        W54962  21.538  13.206  13.963
85082W        W54963  40.004  27.485  11.435
85083W        W54964   5.438  23.515  11.554
85084W        W54965  28.529  29.008   1.443
85085W        W54966   3.437  41.871  13.444
85086W        W54967   7.822  34.601   4.667
85087W        W54968  15.713  23.999   3.815
85088W        W54969   1.285  14.112  10.441
85089W        W54970  25.697  42.868   4.677
85090W        W54971  24.661  12.753  14.506
85091W        W54972  31.522  30.926  13.378
85092W        W54973  29.529   5.348  12.925
85093W        W54974   7.684  43.330  11.947
85094W        W54975   6.404   4.374  14.838
85095W        W54976  35.102  36.030   4.705
85096W        W54977   3.455   9.704  14.910
85097W        W54978  15.238  28.504   1.226
85098W        W54979  22.711  12.685   0.433
85099W        W54980   9.855  37.859  14.382
85100W        W54981  12.822  17.125   5.124
85101W        W54982   6.735   7.841   3.728
85102W        W54983  17.577  33.436  14.349
85103W        W54984  33.414   7.197  10.052
85104W        W54985  35.068  19.711   1.778
85105W        W54986   2.464  25.477  14.996
85106W        W54987   9.886  20.111  10.918
85107W        W54988  17.306   1.916  13.369
85108W        W54989  32.402  24.225  11.521
85109W        W54990  15.103  43.902  13.868
85110W        W54991  33.537  36.044   4.160
85111W        W54992  31.605  29.015   4.711
85112W        W54993   4.380  20.177   2.726
85113W        W54994  35.589  44.493   1.786
85114W        W54995  11.774  37.076   0.773
85115W        W54996  29.082  34.935   0.773
85116W        W54997  38.006   8.291   0.767
85117W        W54998   4.930  38.547   0.812
85118W        W54999  22.695  14.647   4.643
85119W        W55000  31.007  37.545  14.948
85120W        W55001  34.056  17.235   0.846
85121W        W55002   6.243  21.259   3.220
85122W        W55003  38.378  10.820   1.337
85123W        W55004  36.393  21.750   4.312
85124W        W55005  35.381  21.036   1.728
85125W        W55006   0.861   9.347   0.424
85126W        W55007   5.365  17.778   1.415
85127W        W55008   1.942  43.871  14.798
85128W        W55009   9.256  28.590   0.941
85129W        W55010  23.525  32.624  14.890
85130W        W55011  23.701  26.686  14.916
85131W        W55012   0.926  15.148  13.340
85132W        W55013  42.377   6.251   3.290
85133W        W55014   5.342  25.122   5.279
85134W        W55015  28.007  20.640  13.972
85135W        W55016  29.128  14.169  14.846
85136W        W55017  12.651   8.258  11.055
85137W        W55018   8.343  12.653  12.047
85138W        W55019  30.119  12.684  11.438
85139W        W55020  41.509  25.045  10.504
85140W        W55021  40.514   1.361  14.884
85141W        W55022   7.744   1.366   4.287
85142W        W55023  24.997  43.473   0.252
85143W        W55024  42.906  18.060  14.886
85144W        W55025  18.704  29.944  11.013
85145W        W55026  21.684  19.226   5.706
85146W        W55027  19.630   9.206  11.051
85147W        W55028  30.611   1.928   0.329
85148W        W55029   7.298  29.550   2.663
85149W        W55030  23.178  22.631  12.483
85150W        W55031   1.420  31.624   2.729
85151W        W55032  40.905   2.408  13.369
85152W        W55033  15.611  13.108   4.650
85153W        W55034  25.590   2.856   3.341
85154W        W55035  36.067  34.396   3.756
85155W        W55036   9.870   0.256  10.545
85156W        W55037  29.579  36.993  10.902
85157W        W55038  42.883  27.075  13.389
85158W        W55039  41.895   6.270   1.255
85159W        W55040   1.245  39.933   0.348
85160W        W55041  39.515  18.759   1.928
85161W        W55042  35.085  37.350  10.568
85162W        W55043  28.149  40.360  13.472
85163W        W55044  41.384  33.884   1.919
85164W        W55045   6.754  43.906   3.277
85165W        W55046  33.397  42.511   0.796
85166W        W55047  13.816  22.995   1.371
85167W        W55048  12.788  20.066   3.195
85168W        W55049  11.370  19.148  12.067
85169W        W55050   8.670  12.681   2.182
85170W        W55051  43.974   5.237   2.270
85171W        W55052  24.712  37.534  10.496
85172W        W55053  21.517  24.082   2.258
85173W        W55054  35.042  39.544  14.507
85174W        W55055  25.127  23.016  11.009
85175W        W55056  29.139  35.017   2.882
85176W        W55057  32.954  33.586  11.114
85177W        W55058  42.414  10.705  12.880
85178W        W55059  44.298   9.841   4.779
85179W        W55060  32.414  25.516   3.254
85180W        W55061   6.719  13.716  10.571
85181W        W55062  15.643  34.542  12.473
85182W        W55063  13.119  44.416  10.426
85183W        W55064  31.932  32.048   2.284
85184W        W55065   1.853   9.877   4.229
85185W        W55066   4.395  42.383  14.380
85186W        W55067  44.758   2.345  12.346
85187W        W55068  11.725  39.911  10.422
85188W        W55069  44.816  44.485  12.348
85189W        W55070  37.364  37.029  12.894
85190W        W55071  18.724  22.113   4.724
85191W        W55072  17.279  30.485  13.312
85192W        W55073  38.987  34.524  11.977
85193W        W55074  40.031   3.869  12.422
85194W        W55075  22.505  36.372  12.066
85195W        W55076  19.689   9.296  10.481
85196W        W55077  12.758  27.640  14.385
85197W        W55078  32.501  18.642  10.982
85198W        W55079   7.237  37.346  14.809
85199W        W55080  28.965  26.011  13.378
85200W        W55081  18.760   3.314  13.946
85201W        W55082  32.487  31.428  13.470
85202W        W55083  41.989  11.333  13.050
85203W        W55084  41.537  39.018  14.846
85204W        W55085  20.156  11.178  11.942
85205W        W55086  37.841   9.660  13.406
85206W        W55087  26.678   2.264  14.965
85207W        W55088   4.778  42.855  10.487
85208W        W55089  41.515  37.963  11.941
85209W        W55090   2.795  34.077  11.010
85210W        W55091  35.102  36.887  10.940
85211W        W55092  31.619  19.725   0.393
85212W        W55093  22.010  34.863  14.371
85213W        W55094   6.684  41.844   0.795
85214W        W55095  34.389  41.863   2.279
85215W        W55096  15.184  44.293   2.196
85216W        W55097  18.157  21.163   2.688
85217W        W55098  22.679  42.445  11.938
85218W        W55099  26.463   4.393   1.884
85219W        W55100  32.911  31.474   3.149
85220W        W55101  13.638  21.679  12.470
85221W        W55102   4.404  17.103  13.396
85222W        W55103  42.486   2.257   1.312
85223W        W55104  39.060  33.910   4.673
85224W        W55105  30.071  13.123  13.383
85225W        W55106  38.413  38.034  12.018
85226W        W55107  39.864   6.906  13.337
85227W        W55108  25.610  16.614  14.291
85228W        W55109  41.006   6.305   2.785
85229W        W55110   4.422  33.528   0.410
85230W        W55111   1.459   0.483  11.557
85231W        W55112  38.018  11.630  13.876
85232W        W55113  37.341  33.554   3.858
85233W        W55114  25.646   0.788   3.730
85234W        W55115   7.266  19.626  13.457
85235W        W55116  14.263   2.279   1.212
85236W        W55117  31.612  41.790   1.811
85237W        W55118  23.667  15.691   4.258
85238W        W55119  42.308  40.402  14.310
85239W        W55120   9.863  38.878  13.496
85240W        W55121  21.107  21.028  10.900
85241W        W55122   9.850  20.563  12.519
85242W        W55123  28.063  27.967   0.749
85243W        W55124  44.283  12.784  14.898
85244W        W55125   4.394  35.375   3.308
85245W        W55126  33.106  24.129  12.060
85246W        W55127   3.878  28.977   4.714
85247W        W55128  10.346  44.860   2.346
85248W        W55129  25.667   1.413  12.082
85249W        W55130  13.723  33.551   3.341
85250W        W55131  11.369  18.609   4.762
85251W        W55132  42.496  11.177  13.307
85252W        W55133  41.806  26.539   4.785
85253W        W55134  44.964  14.783   2.695
85254W        W55135  14.677  22.146  10.526
85255W        W55136  15.144  21.613  12.357
85256W        W55137  20.107   8.663   2.802
85257W        W55138  23.676  25.996   1.321
85258W        W55139  15.777  27.175   2.335
85259W        W55140  21.207  36.512  11.113
85260W        W55141  11.730   9.293   2.687
85261W        W55142  44.792   4.331  11.021
85262W        W55143  15.096  10.789   1.437
85263W        W55144  18.087   3.228   4.640
85264W        W55145  14.705   7.229   2.355
85265W        W55146  36.947   4.752  13.996
85266W        W55147  12.199  42.447   4.274
85267W        W55148  16.574  30.569   4.717
85268W        W55149  15.176  26.684   3.765
85269W        W55150  31.915  38.929   2.221
85270W        W55151  38.898  10.651   1.880
85271W        W55152   1.416  29.966   3.837
85272W        W55153   2.754  13.814  14.399
85273W        W55154  30.583   4.344   2.810
85274W        W55155  33.619   5.330   1.765
85275W        W55156  12.735  28.516   3.153
85276W        W55157   3.756  43.478   1.387
85277W        W55158  37.978  28.670  13.865
85278W        W55159  28.654  43.863  12.431
85279W        W55160   4.213  36.456   0.419
85280W        W55161  19.604  31.096   3.747
85281W        W55162  10.695  42.861   2.249
85282W        W55163  36.401  10.261   0.438
85283W        W55164  20.574   4.260   2.884
85284W        W55165  40.956   1.865  14.451
85285W        W55166  30.529  17.747   1.351
85286W        W55167   8.766   5.926  11.005
85287W        W55168   5.909  29.514  13.022
85288W        W55169  35.414  25.049  14.763
85289W        W55170  13.141  11.701  11.860
85290W        W55171  43.900  35.073   4.343
85291W        W55172  43.822  34.035   0.405
85292W        W55173  23.224  30.658  11.402
85293W        W55174  16.766   7.171   4.670
85294W        W55175  21.519   0.981  13.431
85295W        W55176  25.565   6.396  11.530
85296W        W55177  42.445  19.283   2.744
85297W        W55178  23.698  37.514   1.812
85298W        W55179  32.592  11.252   2.328
85299W        W55180  37.988  11.164   4.711
85300W        W55181  33.881  28.934  14.495
85301W        W55182   9.302  41.841  11.038
85302W        W55183  39.043   6.882   1.240
85303W        W55184  31.929  12.854  11.986
85304W        W55185  18.679  27.691  14.428
85305W        W55186  42.438   3.916   1.379
85306W        W55187  23.067  42.438   4.298
85307W        W55188   7.237  10.688  12.829
85308W        W55189  19.201  39.016  12.030
85309W        W55190  42.782   3.775  10.408
85310W        W55191  36.090  28.952   0.465
85311W        W55192  11.331  39.880  14.825
85312W        W55193  19.761   7.899   4.818
85313W        W55194  41.940  33.125  14.990
85314W        W55195  25.157  16.115   0.784
85315W        W55196  40.485   7.864   1.732
85316W        W55197  22.175  42.514  14.999
85317W        W55198  16.289  27.073   0.786
85318W        W55199  11.662  40.860   0.747
85319W        W55200   5.861  31.040  14.998
85320W        W55201  10.349  39.388   2.817
85321W        W55202  37.389  28.615  13.911
85322W        W55203   9.662   6.379  14.386
85323W        W55204   9.218  42.948   2.355
85324W        W55205  20.524  30.921  12.960
85325W        W55206  18.558  23.496  13.793
85326W        W55207  24.115   3.824   2.319
85327W        W55208  21.748  19.575  14.820
85328W        W55209  17.272  26.059  11.406
85329W        W55210  42.311  20.533  11.081
85330W        W55211  19.050   1.802  11.502
85331W        W55212  20.643   8.702  12.435
85332W        W55213  15.290  20.549  12.353
85333W        W55214  13.126  38.963   5.268
85334W        W55215  17.640  11.181   1.343
85335W        W55216   9.344   3.412   0.798
85336W        W55217  35.105  13.693   2.227
85337W        W55218   4.258  16.207   0.819
85338W        W55219  13.259   3.281   0.962
85339W        W55220  37.987  31.428   3.206
85340W        W55221  11.700  41.834   3.754
85341W        W55222  21.048  29.120   4.119
85342W        W55223   8.193  39.438  14.318
85343W        W55224  11.694  38.973  11.938
85344W        W55225  27.587  43.489  13.869
85345W        W55226  41.982  30.120   1.346
85346W        W55227  10.769   9.831   2.663
85347W        W55228  13.186  42.400   0.851
85348W        W55229  27.529  12.647  11.902
85349W        W55230  28.177  37.963   1.320
85350W        W55231   9.246  34.375   4.733
85351W        W55232  13.138  20.684   4.753
85352W        W55233  21.714  34.456   1.299
85353W        W55234  34.939  41.416   3.225
85354W        W55235  13.187  43.841   1.326
85355W        W55236  38.929  21.102   5.105
85356W        W55237  41.007   2.323   2.827
85357W        W55238  13.145   4.713   1.266
85358W        W55239   6.392  21.551   2.806
85359W        W55240   1.386  42.363  12.381
85360W        W55241  36.425  19.256  11.390
85361W        W55242  10.749   2.822  13.054
85362W        W55243  39.966  12.214   1.371
85363W        W55244  42.870  44.876   3.357
85364W        W55245  40.441  39.810  14.481
85365W        W55246  26.144  23.566  14.897
85366W        W55247  38.820   4.714  10.530
85367W        W55248  36.885   2.356  10.117
85368W        W55249  29.092  43.316   2.295
85369W        W55250  39.929  24.137   1.444
85370W        W55251   0.859  32.584  11.422
85371W        W55252   4.897  14.322  13.048
85372W        W55253   2.741  27.664   3.836
85373W        W55254  11.796  24.603   0.258
85374W        W55255   8.176  31.410  12.050
85375W        W55256  28.558  14.214  14.953
85376W        W55257   5.865  40.851  14.323
85377W        W55258  33.406   7.402  14.422
85378W        W55259  15.238  44.804   0.788
85379W        W55260   1.245  21.638   4.191
85380W        W55261  24.104  40.464   1.444
85381W        W55262   4.889  13.244  12.489
85382W        W55263  28.951  35.941  13.466
85383W        W55264  14.814  23.638  10.424
85384W        W55265  31.063  32.600  11.043
85385W        W55266   2.751  26.689  10.632
85386W        W55267   5.326  33.407   1.774
85387W        W55268   1.808  27.064   4.336
85388W        W55269  17.666  30.564   0.903
85389W        W55270  24.154  39.000  10.493
85390W        W55271  16.779   1.449  13.540
85391W        W55272  42.493  43.299  11.551
85392W        W55273  21.084  40.321   3.681
85393W        W55274  28.948  36.566   0.949
85394W        W55275  25.697  28.973   3.773
85395W        W55276  40.500  26.979  11.598
85396W        W55277  11.721  42.405  12.370
85397W        W55278  23.540  18.710   0.419
85398W        W55279  40.876  27.445  10.459
85399W        W55280  26.681   8.833   0.464
85400W        W55281  14.117  41.986  11.535
85401W        W55282  11.332  28.987   2.348
85402W        W55283  19.725   3.221  14.432
85403W        W55284  18.588  16.118  12.940
85404W        W55285  28.464  22.566  10.418
85405W        W55286  43.386  15.292  10.518
85406W        W55287  44.408   1.440  11.867
85407W        W55288  16.655  18.157  12.892
85408W        W55289  34.582  21.172  14.863
85409W        W55290  13.259   7.247  10.044
85410W        W55291  44.318  41.848  10.549
85411W        W55292  17.793   2.236  12.858
85412W        W55293  19.208  12.271  12.377
85413W        W55294  42.367  41.489  14.510
85414W        W55295  13.775  27.487  10.554
85415W        W55296  38.953   9.771   3.387
85416W        W55297   8.274   6.838  13.490
85417W        W55298  36.935  19.284   3.206
85418W        W55299  18.185  26.685   0.805
85419W        W55300  11.170  28.026   4.741
85420W        W55301  15.274  37.980  14.293
85421W        W55302   5.836  17.783   2.334
85422W        W55303  43.843   5.761   3.701
85423W        W55304  39.440  16.092   0.395
85424W        W55305  27.161  14.211   0.804
85425W        W55306  12.303  16.674  12.397
85426W        W55307   9.797  22.598  11.452
85427W        W55308  13.742  40.991  10.404
85428W        W55309  15.776  25.114   0.301
85429W        W55310  31.114  33.505   5.137
85430W        W55311  33.000   5.260   0.910
85431W        W55312  14.616   1.466  13.501
85432W        W55313  14.754   4.810  11.379
85433W        W55314  33.549   1.321   2.393
85434W        W55315  24.042  43.307   1.315
85435W        W55316  44.817  34.978  10.456
85436W        W55317   6.209   1.906  11.578
85437W        W55318  33.571  10.832   3.812
85438W        W55319  41.798  19.567  12.935
85439W        W55320  33.412  15.732   2.880
85440W        W55321  22.670  32.937  11.091
85441W        W55322   7.335   9.218  12.367
85442W        W55323  17.724  31.503  14.840
85443W        W55324  29.665  25.587   1.431
85444W        W55325  34.866  12.698  14.284
85445W        W55326   8.721   6.357  13.976
85446W        W55327  10.786   7.889   4.304
85447W        W55328  39.825  25.087  10.477
85448W        W55329  31.094   6.766   1.282
85449W        W55330  44.286  39.897   1.337
85450W        W55331   9.352  24.588   4.719
85451W        W55332   7.857  23.548   2.275
85452W        W55333  39.394  33.496  13.360
85453W        W55334  43.482   0.334  13.848
85454W        W55335   9.675  10.750  13.425
85455W        W55336  19.147  35.541   2.760
85456W        W55337  28.026  29.023   4.160
85457W        W55338  17.557  34.082   4.267
85458W        W55339  27.111  16.804   0.850
85459W        W55340  41.002  32.090  11.521
85460W        W55341  26.644  32.034   4.616
85461W        W55342  39.399  22.726  14.812
85462W        W55343  35.955  30.469  14.792
85463W        W55344  13.241  13.118  14.455
85464W        W55345  11.268  39.846   3.868
85465W        W55346  39.366  31.530   4.290
85466W        W55347  28.956   6.857  13.934
85467W        W55348  44.293   7.791   3.774
85468W        W55349  18.592  29.539   1.897
85469W        W55350  12.313   0.331   2.286
85470W        W55351  34.580  35.041  13.872
85471W        W55352   6.197   9.833   0.451
85472W        W55353   8.657  11.241  13.881
85473W        W55354  28.649   5.252   4.202
85474W        W55355  43.482   4.937  11.974
85475W        W55356  25.968   8.325  11.529
85476W        W55357   8.169  20.743   4.608
85477W        W55358  19.227  41.952   0.424
85478W        W55359   4.251   6.818  12.483
85479W        W55360  21.736  19.092  10.634
85480W        W55361  21.230  23.717  11.586
85481W        W55362  33.876  37.532  10.420
85482W        W55363  29.561  44.847  10.931
85483W        W55364  36.914  15.805  14.485
85484W        W55365  12.177  40.899  11.496
85485W        W55366  20.604   4.234   0.729
85486W        W55367  27.026   9.873  14.495
85487W        W55368  17.556  37.445   0.260
85488W        W55369  30.527   5.341   3.699
85489W        W55370  43.950   7.864  11.539
85490W        W55371  37.419   3.914  14.844
85491W        W55372  19.154   3.230   2.193
85492W        W55373  38.501  38.517  13.484
85493W        W55374  11.771   9.746  13.317
85494W        W55375  41.482  43.281   0.936
85495W        W55376   2.885  18.786   3.326
85496W        W55377  30.117  30.556   2.739
85497W        W55378   4.722  42.999  14.760
85498W        W55379   3.765  33.982   0.385
85499W        W55380  27.020  35.934  14.463
85500W        W55381  18.711  39.841   0.435
85501W        W55382  22.609  19.254   2.220
85502W        W55383  29.989  37.579  11.998
85503W        W55384  18.666   5.259  14.891
85504W        W55385  43.770  36.496   4.768
85505W        W55386  20.073  16.298  13.336
85506W        W55387   7.856   1.873   0.254
85507W        W55388  23.491   2.790  13.982
85508W        W55389  18.102  11.816   2.902
85509W        W55390  29.036  25.093   4.279
85510W        W55391  27.023  36.582  12.936
85511W        W55392  10.747   6.908  14.794
85512W        W55393  17.744  37.899  12.494
85513W        W55394  36.086   2.773  10.949
85514W        W55395  43.948  39.915   1.839
85515W        W55396  29.472  43.832   1.870
85516W        W55397  37.913   8.340   4.734
85517W        W55398  28.600  36.047  12.546
85518W        W55399  22.226  13.760  13.059
85519W        W55400   4.716  19.187   0.462
85520W        W55401  44.962  37.376   1.728
85521W        W55402  34.425  32.608  10.599
85522W        W55403  27.481  16.708  14.328
85523W        W55404   6.191  13.220  11.958
85524W        W55405  34.614  27.959   0.837
85525W        W55406  39.315  41.918  11.092
85526W        W55407  39.895   6.202   1.374
85527W        W55408   7.676  32.036  11.855
85528W        W55409  13.167   8.244   2.805
85529W        W55410  30.420   5.327   2.388
85530W        W55411  37.057  44.368   3.811
85531W        W55412  37.021   6.280  11.062
85532W        W55413  40.453  23.729   2.280
85533W        W55414  21.104  42.030   0.256
85534W        W55415  35.006  33.898   3.734
85535W        W55416  42.869   8.678  11.949
85536W        W55417   5.883  13.289  10.574
85537W        W55418  38.042  37.833  14.506
85538W        W55419  21.536  34.427   3.197
85539W        W55420  27.158  20.608   3.190
85540W        W55421  44.279   5.241  10.534
85541W        W55422  39.030  24.531   1.850
85542W        W55423   4.824  40.360  12.385
85543W        W55424  11.262  31.911   4.692
85544W        W55425  27.104  35.968  12.457
85545W        W55426   9.362   9.158   0.356
85546W        W55427   0.972  30.165   3.797
85547W        W55428  40.341  18.777   0.811
85548W        W55429  41.827  14.129  14.384
85549W        W55430   5.381   3.743   1.748
85550W        W55431   9.395  25.536  13.021
85551W        W55432  26.522  35.539  12.379
85552W        W55433  21.757   1.396   3.366
85553W        W55434  44.423  23.155   0.480
85554W        W55435  17.662  30.551  14.472
85555W        W55436  24.572  26.970  13.937
85556W        W55437   1.327  41.348   0.471
85557W        W55438  26.623  16.758  12.348
85558W        W55439  40.005  27.579  14.359
85559W        W55440  13.186  32.075   2.707
85560W        W55441  33.018  21.637   0.874
85561W        W55442  40.966   4.890   4.132
85562W        W55443  31.514  28.669   3.162
85563W        W55444   3.943  40.884  12.897
85564W        W55445  31.441   2.409  13.980
85565W        W55446  33.131  12.670  12.926
85566W        W55447  15.677  15.628   5.092
85567W        W55448   3.831   2.871  11.009
85568W        W55449  34.563  10.821   3.193
85569W        W55450  12.188  33.062   3.761
85570W        W55451  22.532  18.615  11.019
85571W        W55452   9.299  17.292  12.830
85572W        W55453  18.173  15.763  11.568
85573W        W55454  35.923  27.536  14.428
85574W        W55455  32.891  39.356   3.723
85575W        W55456  24.585  32.507  12.342
85576W        W55457  13.651  16.678   4.301
85577W        W55458  41.973  39.492  14.961
85578W        W55459  26.096  33.889   4.269
85579W        W55460  44.843  12.233   4.151
85580W        W55461  40.475  36.361   3.236
85581W        W55462  29.946  36.062  10.415
85582W        W55463  18.050  44.265  14.889
85583W        W55464  28.041  23.045   0.245
85584W        W55465   5.893  35.044   2.714
85585W        W55466  12.732  34.008   1.769
85586W        W55467   5.864  22.142  11.606
85587W        W55468   2.869  35.026  14.401
85588W        W55469   8.330  35.025   1.721
85589W        W55470   0.963  43.991   0.482
85590W        W55471  37.030   9.838  10.461
85591W        W55472  42.368  11.775   1.900
85592W        W55473   3.425   8.787  10.055
85593W        W55474  26.115  19.757   5.294
85594W        W55475   0.415   2.920  11.454
85595W        W55476  39.816  13.804  13.439
85596W        W55477   8.874  20.123  11.945
85597W        W55478  43.949  32.897  11.858
85598W        W55479  41.447  14.227  11.574
85599W        W55480   0.982  20.189  12.001
85600W        W55481   2.250  43.465   3.645
85601W        W55482  15.722  39.519  11.582
85602W        W55483   6.295  12.677   5.228
85603W        W55484  25.587  17.765  13.500
85604W        W55485   1.976  33.485  12.564
85605W        W55486  41.518  22.124  11.575
85606W        W55487   2.748  27.073  11.054
85607W        W55488  26.693   3.845   1.216
85608W        W55489  22.577  10.384  12.984
85609W        W55490  22.193  16.781   2.724
85610W        W55491   9.327  21.526   4.788
85611W        W55492   5.827   8.839  10.638
85612W        W55493  32.065  10.817   2.415
85613W        W55494  38.471  15.593   4.653
85614W        W55495  19.212  29.945  12.951
85615W        W55496  18.548  40.400  14.819
85616W        W55497  41.479   9.686   4.199
85617W        W55498   7.738  10.201  11.054
85618W        W55499  29.931  27.606   2.374
85619W        W55500  44.352   5.285   0.377
85620W        W55501  20.069  32.526   2.733
85621W        W55502  10.840   6.779   2.212
85622W        W55503  29.477   6.402   3.748
85623W        W55504  39.037  15.583  14.935
85624W        W55505  23.546  24.010  10.979
85625W        W55506  36.094  31.624  13.913
85626W        W55507  15.666   1.901   4.801
85627W        W55508  37.917  11.721  12.425
85628W        W55509  12.716   7.324  14.006
85629W        W55510   8.806  44.434  12.864
85630W        W55511   4.933   2.464   1.742
85631W        W55512  16.237  18.727   3.723
85632W        W55513  39.912  14.680  11.933
85633W        W55514  20.642  34.411  14.839
85634W        W55515  16.141  17.639   2.692
85635W        W55516  25.010  34.999  10.488
85636W        W55517  30.466  16.094   5.212
85637W        W55518  14.123  24.209   0.836
85638W        W55519  27.680  11.257  10.605
85639W        W55520  38.393   3.409  12.060
85640W        W55521  26.694  20.218  11.449
85641W        W55522  35.865   2.807  12.517
85642W        W55523   9.256  19.227  13.314
85643W        W55524  40.051   8.802   5.281
85644W        W55525  17.787  21.207   1.888
85645W        W55526  27.624   2.818   1.435
85646W        W55527  27.592   0.859   1.327
85647W        W55528  24.014  10.231   4.796
85648W        W55529  12.199  24.637  13.393
85649W        W55530  39.491  37.020   1.715
85650W        W55531  41.801  17.297   4.113
85651W        W55532  28.643  12.816  14.971
85652W        W55533  38.331  42.910  12.505
85653W        W55534  27.446  35.945  14.444
85654W        W55535   0.856  25.127  10.125
85655W        W55536  43.895   1.796  11.453
85656W        W55537  43.418  35.551  10.952
85657W        W55538   5.354   2.946   1.744
85658W        W55539   4.210  12.148  13.954
85659W        W55540  20.160  13.292  13.853
85660W        W55541  32.091   1.407   4.225
85661W        W55542  27.577  44.378   3.266
85662W        W55543  43.832   8.374   0.260
85663W        W55544  38.877   7.211  13.439
85664W        W55545   4.264  43.845  13.018
85665W        W55546  36.422  38.569  11.972
85666W        W55547  37.890  36.011   0.730
85667W        W55548  37.019   6.197   2.843
85668W        W55549   6.856  32.037   2.328
85669W        W55550  26.465  21.556  11.072
85670W        W55551  35.400  24.165   3.289
85671W        W55552  11.811   2.334  14.979
85672W        W55553  28.634  24.042  11.905
85673W        W55554   9.660  24.705  14.839
85674W        W55555  15.291   0.481  11.045
85675W        W55556  20.054  19.541  11.109
85676W        W55557  26.171  13.702  12.091
85677W        W55558  18.756  34.401   4.829
85678W        W55559  36.950  29.930  11.944
85679W        W55560  39.976  32.110  11.994
85680W        W55561  34.866  20.213   0.472
85681W        W55562   4.205  30.516   1.323
85682W        W55563   8.284  34.065  12.372
85683W        W55564  43.300  41.484   3.728
85684W        W55565  14.742   6.398  11.545
85685W        W55566  26.171  31.027  10.412
85686W        W55567   3.291  24.581  10.538
85687W        W55568  26.978  14.174   2.776
85688W        W55569  24.204  22.078  14.504
85689W        W55570  38.445  43.423  11.892
85690W        W55571  27.183  38.378   1.804
85691W        W55572   6.194  37.450  12.382
85692W        W55573  18.605   8.842   4.706
85693W        W55574  13.335  13.220  14.780
85694W        W55575  31.500  22.231  12.570
85695W        W55576  39.522   1.250   4.775
85696W        W55577  33.474  34.115  12.071
85697W        W55578  23.728  30.031   2.216
85698W        W55579  24.567   0.962   1.698
85699W        W55580   0.917   1.373  13.330
85700W        W55581  14.760  25.098   3.332
85701W        W55582   8.353   0.293  13.529
85702W        W55583  30.157  17.107   2.661
85703W        W55584  11.355   5.365   1.223
85704W        W55585   8.188   4.812  11.482
85705W        W55586  17.077  26.607  10.515
85706W        W55587  25.575  36.085  12.906
85707W        W55588  43.932   6.202   0.963
85708W        W55589  40.889  44.934   0.924
85709W        W55590  41.009  28.565   3.356
85710W        W55591  30.488  44.770   1.819
85711W        W55592   5.246  27.189  11.928
85712W        W55593  40.498  31.101  13.812
85713W        W55594  18.153  39.020   0.252
85714W        W55595  33.062  24.100   0.403
85715W        W55596  13.698  21.641   3.305
85716W        W55597  18.237  31.151   4.656
85717W        W55598  16.655   3.254   2.695
85718W        W55599  24.489   6.731   0.363
85719W        W55600  11.824  20.243  11.863
85720W        W55601  29.954  18.272   1.780
85721W        W55602  13.139  23.526  10.936
85722W        W55603  41.373   9.759  12.568
85723W        W55604  26.550  25.206   4.632
85724W        W55605   1.757   6.906   2.336
85725W        W55606  40.044  43.444  14.288
85726W        W55607   3.374   8.695   4.297
85727W        W55608  35.988   9.394   4.156
85728W        W55609  10.837   8.212   3.243
85729W        W55610  19.093  27.945   0.343
85730W        W55611  38.425  35.968   4.209
85731W        W55612  35.026   2.320   2.410
85732W        W55613  39.500  34.378   1.379
85733W        W55614  38.364  22.121   3.736
85734W        W55615   2.847  40.340   2.366
85735W        W55616   9.254   0.341   2.756
85736W        W55617  17.709  40.990   3.330
85737W        W55618  17.772  24.603  10.518
85738W        W55619  41.820  21.678  11.515
85739W        W55620  21.551  11.210   2.224
85740W        W55621  15.187  28.099   3.824
85741W        W55622  18.176  37.875   2.378
85742W        W55623  31.467  30.499  13.491
85743W        W55624   9.383  25.093  10.036
85744W        W55625  20.233   9.681  10.965
85745W        W55626  33.402  24.509  11.872
85746W        W55627  24.554  26.112  11.569
85747W        W55628  44.986   8.292   2.829
85748W        W55629  10.229  32.887  13.812
85749W        W55630  11.658  19.250   3.654
85750W        W55631  39.055   9.773   0.833
85751W        W55632  22.552  34.003  12.373
85752W        W55633  15.681  30.494  10.531
85753W        W55634  40.837  35.085  11.973
85754W        W55635  43.979  38.964  11.073
85755W        W55636  42.426  14.180   1.812
85756W        W55637  12.795  33.891  11.562
85757W        W55638  27.113   4.891  10.628
85758W        W55639  10.758  28.046   0.794
85759W        W55640  34.042  33.520   3.772
85760W        W55641  35.081  19.748  13.419
85761W        W55642  19.205  21.565   1.758
85762W        W55643   1.921  26.061  14.945
85763W        W55644  15.255  12.653   0.739
85764W        W55645  27.161   5.370  13.840
85765W        W55646  19.659  39.983   2.836
85766W        W55647  44.487  34.084   0.842
85767W        W55648  10.225  11.196  10.972
85768W        W55649  24.987   7.725   3.315
85769W        W55650  16.611   1.747   2.287
85770W        W55651  39.460   0.480  11.104
85771W        W55652  41.867   4.892   1.313
85772W        W55653  27.630   4.269  10.604
85773W        W55654  41.801  31.073  12.493
85774W        W55655   5.272  33.571   0.764
85775W        W55656  16.134  31.016   3.827
85776W        W55657  10.711   7.325  14.962
85777W        W55658  42.980  32.544   0.481
85778W        W55659   7.207   9.769   4.783
85779W        W55660  24.165  19.187   3.814
85780W        W55661  34.520  44.445   4.647
85781W        W55662  23.529  14.744   3.634
85782W        W55663  20.269  26.519  11.605
85783W        W55664  20.542   7.250   3.729
85784W        W55665  11.665  19.173   2.677
85785W        W55666  36.508  33.061   1.717
85786W        W55667  25.095  17.157   2.220
85787W        W55668  17.702  19.581  11.420
85788W        W55669  42.892  17.674  14.011
85789W        W55670   3.745   9.394   3.672
85790W        W55671  34.557  12.152   2.723
85791W        W55672   1.801  36.355   4.672
85792W        W55673  28.662  44.426  10.508
85793W        W55674  28.553  30.567  14.928
85794W        W55675   1.276  23.084   3.810
85795W        W55676  24.161  32.937   4.321
85796W        W55677  42.495   4.449   0.467
85797W        W55678   3.364  36.966  10.956
85798W        W55679  29.625  25.015  12.826
85799W        W55680  17.224  36.582   3.147
85800W        W55681   1.390  12.187   1.240
85801W        W55682  30.572  28.936   3.785
85802W        W55683  21.136  43.510   2.886
85803W        W55684  26.072   1.806  12.836
85804W        W55685  19.656  18.673   1.816
85805W        W55686  39.406  21.090  11.878
85806W        W55687  34.484  23.210  13.933
85807W        W55688  32.057   6.708  14.854
85808W        W55689  10.242  32.586   3.766
85809W        W55690   9.716  14.589   3.685
85810W        W55691  33.528   9.292  14.818
85811W        W55692  18.769  42.937  13.431
85812W        W55693  25.996  23.040  11.044
85813W        W55694   7.229  12.258   4.682
85814W        W55695  24.078  20.043   4.763
85815W        W55696  25.637  42.827   3.674
85816W        W55697  14.806  23.177  13.345
85817W        W55698  24.025   3.718   1.725
85818W        W55699  32.937  19.719  14.831
85819W        W55700  43.348  20.569  11.415
85820W        W55701  29.658  17.243  12.987
85821W        W55702   8.866  21.028   1.770
85822W        W55703   8.319   9.301   0.856
85823W        W55704  39.850  44.482  12.997
85824W        W55705  41.897  41.481  13.379
85825W        W55706  37.458   3.325  10.034
85826W        W55707  24.015  12.221   3.853
85827W        W55708  39.470  24.658  11.114
85828W        W55709  28.030   6.287   1.818
85829W        W55710  43.919  30.596   1.226
85830W        W55711  29.016  27.197  14.451
85831W        W55712  19.698  19.551  10.560
85832W        W55713  10.376  13.766  14.375
85833W        W55714  33.421   9.250  11.988
85834W        W55715   0.792  38.044   0.801
85835W        W55716  25.666   3.293   0.411
85836W        W55717  19.193  25.996   2.419
85837W        W55718   1.811  33.471   1.265
85838W        W55719  12.122   3.363  12.468
85839W        W55720  10.793  23.095   0.453
85840W        W55721   9.296   4.210   3.787
85841W        W55722  42.951  18.265   4.335
85842W        W55723  34.917  10.711   2.758
85843W        W55724  21.126  25.005  10.465
85844W        W55725  17.710   0.315  12.936
85845W        W55726  16.116  20.143  13.307
85846W        W55727   9.150  42.424  12.566
85847W        W55728   7.805  28.964   4.116
85848W        W55729  37.538  27.474  12.575
85849W        W55730  36.001  21.202  12.904
85850W        W55731   4.841  15.640   1.843
85851W        W55732   8.886  36.589   5.193
85852W        W55733  14.797  18.105   1.255
85853W        W55734  44.262   9.794   0.756
85854W        W55735  10.791  16.759   3.650
85855W        W55736   6.789  16.294  11.487
85856W        W55737   6.265  26.095  13.490
85857W        W55738  13.705  24.215   0.805
85858W        W55739   8.723  42.374   4.679
85859W        W55740  10.664  15.219   3.773
85860W        W55741   5.827  16.677  10.547
85861W        W55742  27.608  17.689   2.383
85862W        W55743   2.735  44.329   3.319
85863W        W55744  36.442  16.177  14.307
85864W        W55745  19.551  23.092   4.176
85865W        W55746  24.493  19.670   0.874
85866W        W55747  18.187   2.250   0.246
85867W        W55748  19.129  14.181  14.979
85868W        W55749  24.536  36.929  10.405
85869W        W55750  42.283  15.142   2.702
85870W        W55751  25.662  30.435  10.461
85871W        W55752  11.190   6.310  11.501
85872W        W55753   9.297  13.170  13.847
85873W        W55754  11.645  19.566  10.949
85874W        W55755  14.266  24.040   2.363
85875W        W55756  39.005  12.154   0.295
85876W        W55757  35.108   4.444   4.808
85877W        W55758  35.863   6.395  10.490
85878W        W55759  19.702  30.122  11.890
85879W        W55760  27.064  17.800   2.761
85880W        W55761  16.240  18.545  12.363
85881W        W55762  29.922   7.344  11.050
85882W        W55763  29.489   5.921   5.782
85883W        W55764  44.990  11.357  14.339
85884W        W55765  21.035  22.571   5.257
85885W        W55766  34.417   4.875  12.059
85886W        W55767  41.355  24.694  12.570
85887W        W55768  21.599  34.545   0.781
85888W        W55769  23.536  30.013  12.867
85889W        W55770   7.782  26.189  11.472
85890W        W55771   9.261  26.549  14.842
85891W        W55772   1.821  35.974   0.426
85892W        W55773  29.084  36.592  11.963
85893W        W55774  19.285   2.836  14.502
85894W        W55775  41.808   1.379  13.044
85895W        W55776  12.631  38.829   3.279
85896W        W55777  15.791  32.499  10.891
85897W        W55778  31.471  27.639   3.342
85898W        W55779  20.577  20.223  14.969
85899W        W55780  31.533  13.810   2.855
85900W        W55781  10.368   3.359   3.762
85901W        W55782   8.890  37.839  13.514
85902W        W55783  33.533  41.012   5.086
85903W        W55784  10.737   3.846   0.313
85904W        W55785  37.411  15.284  11.867
85905W        W55786  19.635  14.812  13.403
85906W        W55787  19.737  42.490  11.937
85907W        W55788  18.125   1.364  14.926
85908W        W55789  30.652   7.875  13.957
85909W        W55790  26.109  26.646  14.918
85910W        W55791  10.782  31.913   3.819
85911W        W55792  12.815  16.109   0.914
85912W        W55793  26.630  43.954  11.454
85913W        W55794  44.901  11.336   1.860
85914W        W55795  15.794  16.803   4.747
85915W        W55796   3.799  27.533  14.321
85916W        W55797  31.067  11.328   3.283
85917W        W55798   5.733  16.750   3.854
85918W        W55799  41.857  29.142   2.885
85919W        W55800  42.961  25.078   3.691
85920W        W55801  34.990  29.992   2.718
85921W        W55802  32.553  13.193  13.816
85922W        W55803  16.569  14.709   1.359
85923W        W55804  10.157  41.314  13.350
85924W        W55805   8.818  41.303   2.772
85925W        W55806  10.743  18.229   1.403
85926W        W55807  39.888  26.512   3.793
85927W        W55808  39.398  41.012  14.910
85928W        W55809   6.753   5.245   4.308
85929W        W55810  33.910  14.703  13.989
85930W        W55811  31.496  25.172  12.081
85931W        W55812  11.652  23.071  11.376
85932W        W55813  39.327  18.195  12.062
85933W        W55814  41.786  32.136  11.447
85934W        W55815  29.593  38.422   3.340
85935W        W55816  44.975  24.607  12.475
85936W        W55817  26.571  31.966  13.436
85937W        W55818  40.337  12.685   1.845
85938W        W55819  40.854  19.677   3.387
85939W        W55820  36.893   4.891   3.830
85940W        W55821   7.848  40.929   3.360
85941W        W55822  41.894  25.990  13.391
85942W        W55823  11.630  18.690   4.348
85943W        W55824   6.755  20.698  13.508
85944W        W55825  32.080  17.633   0.835
85945W        W55826  11.756  16.269   3.799
85946W        W55827   7.403  44.404   4.207
85947W        W55828  39.999   6.318   1.794
85948W        W55829  29.668   0.385   3.147
85949W        W55830   3.757  38.881  11.002
85950W        W55831  27.564  42.779  11.069
85951W        W55832  12.232  10.843  12.545
85952W        W55833   4.214  22.538   4.711
85953W        W55834  26.142  16.725  10.997
85954W        W55835  43.907   4.930  10.907
85955W        W55836  44.991  44.985  11.382
85956W        W55837  26.020   9.800  11.980
85957W        W55838  39.460  32.574  11.442
85958W        W55839  24.186  22.187   4.147
85959W        W55840  34.922  38.939   4.248
85960W        W55841  28.576  20.578  14.493
85961W        W55842  15.232   8.341   1.700
85962W        W55843  34.525  25.021   3.854
85963W        W55844  16.640  17.264   0.435
85964W        W55845  13.157   1.843   9.919
85965W        W55846   2.902   7.900   1.700
85966W        W55847  28.140  35.399   4.213
85967W        W55848   0.776   9.708   0.782
85968W        W55849  10.291  36.423   3.251
85969W        W55850  37.534  29.527   0.856
85970W        W55851  30.160  32.607   2.294
85971W        W55852  36.073  29.523   4.353
85972W        W55853  27.529  23.154  11.027
85973W        W55854  17.771  21.717  12.837
85974W        W55855  18.167  26.639   4.309
85975W        W55856   6.752   5.309  14.428
85976W        W55857   9.799   1.345  13.998
85977W        W55858  35.087  37.992  10.483
85978W        W55859  20.678  21.113  12.855
85979W        W55860  34.067  20.546  10.584
85980W        W55861   1.463  14.190  10.990
85981W        W55862  21.693  36.869  11.518
85982W        W55863  38.493  33.604  13.477
85983W        W55864  39.978  29.553   3.743
85984W        W55865  22.083  44.877   0.955
85985W        W55866  32.479  16.652  14.449
85986W        W55867  10.771  36.458   1.727
85987W        W55868  39.481   7.345   3.345
85988W        W55869  40.934  44.982   1.282
85989W        W55870  30.516  42.890  12.521
85990W        W55871  35.392  16.145  12.979
85991W        W55872  36.453  17.242   0.955
85992W        W55873  29.099  44.448   1.717
85993W        W55874  34.588  23.557   3.338
85994W        W55875  16.204  23.016   1.417
85995W        W55876  34.097  37.066  11.595
85996W        W55877   8.657   5.368  11.439
85997W        W55878  39.992  10.339  13.431
85998W        W55879   9.290   8.229  13.821
85999W        W55880  26.496  38.053  11.968
86000W        W55881  12.336   0.788   4.228
86001W        W55882  28.152  26.043  14.856
86002W        W55883  27.544   2.323   4.683
86003W        W55884  30.505   5.792  12.990
86004W        W55885  11.254  35.044   4.290
86005W        W55886   9.803  42.779  13.450
86006W        W55887  39.535   6.344   3.341
86007W        W55888  42.814  10.654   3.264
86008W        W55889   3.314  10.696   3.212
86009W        W55890  42.409  15.210   1.748
86010W        W55891  25.962  39.827   0.440
86011W        W55892  42.030  30.617   5.282
86012W        W55893   3.835  31.459   2.308
86013W        W55894  13.331  35.035   1.864
86014W        W55895   2.397   5.814  13.485
86015W        W55896  17.578  12.632   1.234
86016W        W55897  16.208   8.174   2.317
86017W        W55898  32.971  40.449  11.000
86018W        W55899  26.084  44.489   4.807
86019W        W55900  11.725   7.683  14.479
86020W        W55901  22.710  41.035  12.377
86021W        W55902  26.201  25.187   1.337
86022W        W55903  24.710  17.290   2.744
86023W        W55904  17.761  11.690   0.482
86024W        W55905  26.001  25.551  14.957
86025W        W55906  39.436  44.793  10.621
86026W        W55907  36.402  31.982   2.783
86027W        W55908  42.985   3.736   4.743
86028W        W55909  32.905   2.412   3.353
86029W        W55910  39.910   8.353  14.971
86030W        W55911  36.469  33.081   4.679
86031W        W55912  33.095  10.348   3.296
86032W        W55913  22.050   6.360  13.950
86033W        W55914   8.337   7.382   3.781
86034W        W55915  37.475  12.248  10.575
86035W        W55916   0.443  20.052   4.610
86036W        W55917  20.651   9.659  14.901
86037W        W55918  20.062   6.321  11.462
86038W        W55919   9.722  16.772  14.422
86039W        W55920   9.353  33.494  13.538
86040W        W55921  42.341  23.629   1.235
86041W        W55922  41.513   0.339   2.240
86042W        W55923  44.882  38.535  10.446
86043W        W55924  14.103  30.472   9.966
86044W        W55925   5.417   3.879  12.396
86045W        W55926  17.202  44.767  10.507
86046W        W55927  23.673  32.428  10.433
86047W        W55928  15.183  31.130  13.941
86048W        W55929  24.230   0.841  14.463
86049W        W55930  41.477   4.279   0.908
86050W        W55931  16.607  39.556  11.875
86051W        W55932  16.619   5.797   0.751
86052W        W55933  42.284  38.409   4.237
86053W        W55934  40.008  37.563  11.919
86054W        W55935  20.169  20.136   0.429
86055W        W55936  21.151  44.446  13.919
86056W        W55937  29.110  19.626  14.434
86057W        W55938  41.039  19.721   2.894
86058W        W55939  10.756   6.858  10.983
86059W        W55940  28.609   2.417  14.321
86060W        W55941   2.296  10.674  11.565
86061W        W55942  31.922  34.064  12.925
86062W        W55943   5.689  18.729  14.868
86063W        W55944  10.725  28.587   1.766
86064W        W55945  35.089  33.503  10.552
86065W        W55946  43.478  21.757   1.860
86066W        W55947  36.484  19.664   3.385
86067W        W55948  27.687   0.348  14.952
86068W        W55949  33.928   6.192   1.838
86069W        W55950  16.706  38.526   2.822
86070W        W55951   6.863  13.720  11.068
86071W        W55952  25.977  37.542  12.016
86072W        W55953  19.551  33.460   0.306
86073W        W55954  26.484  25.046  12.342
86074W        W55955  17.579  27.048   0.468
86075W        W55956  17.131  35.899   3.705
86076W        W55957  40.442  37.397   5.194
86077W        W55958   9.191  11.847   0.867
86078W        W55959  13.187   1.383   0.738
86079W        W55960   3.836   5.821   0.874
86080W        W55961  25.490   9.182   1.878
86081W        W55962   8.730   6.889  11.122
86082W        W55963  22.160  36.946   2.852
86083W        W55964  20.265   7.765   3.815
86084W        W55965  39.348  38.433   3.773
86085W        W55966  26.179   9.855  11.062
86086W        W55967  14.674  10.377   5.215
86087W        W55968  25.678  14.280   1.296
86088W        W55969  35.535   9.233   0.934
86089W        W55970  36.363  37.937   3.180
86090W        W55971  35.855  10.155  10.153
86091W        W55972  23.091  25.130   0.454
86092W        W55973  30.123  44.982  13.957
86093W        W55974   0.986  18.085   4.330
86094W        W55975  21.676  40.954  14.302
86095W        W55976  27.464  37.991  14.964
86096W        W55977  30.162  29.941   2.380
86097W        W55978  26.603  24.603  13.381
86098W        W55979  23.667   1.919   2.285
86099W        W55980  29.436  38.510  12.912
86100W        W55981  15.609  35.923  14.957
86101W        W55982  17.733  26.460   4.346
86102W        W55983  37.514   8.361  13.854
86103W        W55984  14.311  34.595   1.290
86104W        W55985   4.289  42.928  10.486
86105W        W55986  13.655  27.689  14.981
86106W        W55987  43.007  37.922   1.724
86107W        W55988   7.755  19.131   1.287
86108W        W55989  16.808  40.327   3.246
86109W        W55990  44.764   9.352   2.876
86110W        W55991  14.147   4.861  13.341
86111W        W55992  16.639   0.404   4.336
86112W        W55993  42.858  36.585   5.243
86113W        W55994  26.684  39.983  14.342
86114W        W55995  17.253   9.368  11.970
86115W        W55996  40.906  23.684   3.769
86116W        W55997  30.548  18.106  10.083
86117W        W55998  22.216  17.295   5.285
86118W        W55999  37.560  40.922  12.471
86119W        W56000  42.865  13.246  11.488
86120W        W56001   5.810   9.185  14.991
86121W        W56002  43.393   9.669   0.316
86122W        W56003  27.668  31.108   0.473
86123W        W56004  31.131  24.603   3.853
86124W        W56005  22.653   4.728   2.335
86125W        W56006  14.834  28.535  10.986
86126W        W56007  32.943   6.770  14.398
86127W        W56008  25.708  36.348   4.223
86128W        W56009   8.260  41.406  11.595
86129W        W56010   9.775   0.337   2.873
86130W        W56011   9.174  25.199   4.189
86131W        W56012  10.735  18.196  14.768
86132W        W56013  26.564  16.811   3.341
86133W        W56014  10.672  28.997   3.714
86134W        W56015  15.181  10.348  12.566
86135W        W56016   1.257   7.304   2.723
86136W        W56017  35.935  23.092  11.506
86137W        W56018   2.928   2.283  13.367
86138W        W56019  40.516  26.471   5.303
86139W        W56020  42.450  44.278   0.893
86140W        W56021  40.872  22.524   2.804
86141W        W56022  23.626  12.200   0.293
86142W        W56023  23.590   5.888   3.690
86143W        W56024  13.783  15.095  13.523
86144W        W56025  15.132  36.870   1.883
86145W        W56026  30.582  26.001   2.893
86146W        W56027   2.780  17.066  11.500
86147W        W56028   3.868  12.742  12.347
86148W        W56029  43.874  15.313  10.540
86149W        W56030  22.080  24.143   0.845
86150W        W56031  25.188  17.270  10.508
86151W        W56032   6.282  30.098   3.234
86152W        W56033   6.236  29.918  10.922
86153W        W56034   6.291  22.035  14.797
86154W        W56035  43.986  12.188   3.825
86155W        W56036  27.020  25.210  13.006
86156W        W56037  22.119  20.713   2.676
86157W        W56038  37.908  22.252  14.454
86158W        W56039  28.594  32.100   2.213
86159W        W56040   2.406  13.347   4.813
86160W        W56041  26.076  20.150  11.558
86161W        W56042   7.356  33.032  12.880
86162W        W56043   9.701  18.549  11.372
86163W        W56044   8.781  36.483   0.265
86164W        W56045  29.051  25.996   3.260
86165W        W56046  17.142  11.182  11.019
86166W        W56047  24.983  38.336   3.805
86167W        W56048  28.048  13.739  13.999
86168W        W56049   6.353  12.832   2.742
86169W        W56050  13.734  10.366  10.986
86170W        W56051  27.184  25.073  11.375
86171W        W56052  44.850  15.682  14.319
86172W        W56053  33.601  38.450   3.859
86173W        W56054   0.907  39.933   3.265
86174W        W56055  28.039   8.337  12.429
86175W        W56056  13.799  30.921   4.292
86176W        W56057  20.104   9.768   3.274
86177W        W56058  16.137  44.469  11.993
86178W        W56059  36.884   3.770  11.429
86179W        W56060  25.654   4.811   1.322
86180W        W56061  28.136  24.039  10.942
86181W        W56062  16.732   5.433  14.831
86182W        W56063   9.201  44.781  11.944
86183W        W56064  21.612  13.292  14.932
86184W        W56065   9.175  21.532   3.262
86185W        W56066  27.193  44.923  10.444
86186W        W56067   8.371  38.987   4.761
86187W        W56068  17.555  31.016   2.891
86188W        W56069  23.107   2.932  13.391
86189W        W56070  39.502  35.523  14.418
86190W        W56071  13.817  44.319  12.414
86191W        W56072  42.796  41.002   0.886
86192W        W56073  37.505  25.506  10.514
86193W        W56074  37.484  28.025   4.185
86194W        W56075  37.477  19.183  10.439
86195W        W56076  32.620  41.798  11.438
86196W        W56077  37.895   8.730  11.509
86197W        W56078   1.459  36.420  11.403
86198W        W56079  28.534  26.534  10.048
86199W        W56080  26.983  43.495   1.815
86200W        W56081  24.724  17.770  10.596
86201W        W56082  39.938   0.387  14.465
86202W        W56083   4.930  24.127   3.303
86203W        W56084  31.009  11.214  12.914
86204W        W56085   4.357  44.909  12.897
86205W        W56086  16.265  37.535  14.467
86206W        W56087  30.084  42.868   1.703
86207W        W56088   0.464  13.121  10.899
86208W        W56089   8.394  20.726   0.749
86209W        W56090  32.564  35.924  14.012
86210W        W56091  42.332  23.709  14.771
86211W        W56092  23.059  21.523   3.190
86212W        W56093   0.339  35.958  10.503
86213W        W56094  30.052  22.657  12.486
86214W        W56095  38.853  37.410   2.671
86215W        W56096  17.072  44.402  13.415
86216W        W56097   1.952  34.425  11.048
86217W        W56098  28.036  19.753   5.240
86218W        W56099  36.520  35.037   3.239
86219W        W56100   5.724  27.671   4.644
86220W        W56101   1.273   9.258   0.366
86221W        W56102  44.362  29.089   0.743
86222W        W56103  17.585  39.387   2.294
86223W        W56104   6.217  39.527   1.399
86224W        W56105  32.136  30.965  11.903
86225W        W56106   4.355  25.188   3.835
86226W        W56107   4.391  29.444   4.310
86227W        W56108  19.184  37.872  10.422
86228W        W56109   0.306  39.508  14.898
86229W        W56110  24.509  40.505   0.483
86230W        W56111  28.127  34.884  11.498
86231W        W56112  14.669  15.804  14.851
86232W        W56113  44.857  39.007   2.277
86233W        W56114  21.179  29.597   0.767
86234W        W56115   0.480  23.176  13.902
86235W        W56116   9.870  19.758   3.658
86236W        W56117  14.729  42.786  14.993
86237W        W56118   6.696  11.347  12.403
86238W        W56119  32.063  17.167  11.069
86239W        W56120  33.992  26.077   2.763
86240W        W56121   1.772  28.638  10.991
86241W        W56122  38.020   6.749   4.781
86242W        W56123  21.032  35.481   4.661
86243W        W56124  35.895  16.680   4.645
86244W        W56125  28.490  37.001   2.372
86245W        W56126  14.695  15.097   4.705
86246W        W56127  29.919   8.305  10.411
86247W        W56128  35.102   6.351   3.313
86248W        W56129  36.547  39.862   3.339
86249W        W56130   1.965  40.336  13.396
86250W        W56131  12.683   5.312   0.895
86251W        W56132   8.195  19.244   3.672
86252W        W56133  43.457  13.259   3.280
86253W        W56134   3.846  38.923  14.501
86254W        W56135  22.641  10.312   4.748
86255W        W56136  28.529  30.483   0.811
86256W        W56137  27.655  22.736   2.214
86257W        W56138  24.137   9.364   2.844
86258W        W56139  17.689  10.765   1.843
86259W        W56140  40.338  37.463   0.794
86260W        W56141  13.842   6.336   3.785
86261W        W56142  42.391  43.928  10.430
86262W        W56143  16.151   4.845  12.381
86263W        W56144  37.459   7.337  13.499
86264W        W56145   9.737  12.806  11.900
86265W        W56146  22.741   5.699  13.792
86266W        W56147  42.331  18.548   0.767
86267W        W56148   4.291  35.956  14.490
86268W        W56149  16.087   7.863   1.728
86269W        W56150   0.853  39.853  11.534
86270W        W56151  18.564  10.871   0.459
86271W        W56152  28.530  29.455   1.283
86272W        W56153  40.894   9.824   2.723
86273W        W56154  25.493  34.516   1.387
86274W        W56155  33.904   0.465  13.864
86275W        W56156  28.566  29.960   0.452
86276W        W56157  26.562  18.779   4.257
86277W        W56158  42.941  24.994   0.788
86278W        W56159  17.635   7.865  13.921
86279W        W56160  18.110   0.260  11.372
86280W        W56161  27.032  39.475   2.345
86281W        W56162  44.760  33.076   3.865
86282W        W56163  43.440  10.738  13.543
86283W        W56164  43.848  12.611  14.393
86284W        W56165  19.623  29.050   0.348
86285W        W56166  12.716  18.119   5.095
86286W        W56167  20.626  17.281  13.825
86287W        W56168   2.228  39.029  13.473
86288W        W56169  35.597  15.697  11.941
86289W        W56170  33.545  18.545  14.834
86290W        W56171  39.358  35.944  14.850
86291W        W56172  21.236  20.744  12.047
86292W        W56173  43.372  30.123  10.981
86293W        W56174  10.188   2.239  12.094
86294W        W56175  17.782  30.627  12.086
86295W        W56176  36.856  27.475  14.868
86296W        W56177  40.937  36.468  14.372
86297W        W56178  40.890  38.062  10.513
86298W        W56179  26.658  10.176  10.127
86299W        W56180  43.291   9.183  14.798
86300W        W56181   3.783  15.248  14.991
86301W        W56182  44.412  19.757   4.222
86302W        W56183  34.109  31.565  14.368
86303W        W56184  18.204  34.890  13.001
86304W        W56185  41.807  30.523   4.201
86305W        W56186   2.833  37.859  10.564
86306W        W56187  20.116  19.698   1.247
86307W        W56188  32.540   3.900   4.242
86308W        W56189  38.962  10.738  10.404
86309W        W56190  14.783  36.572   2.284
86310W        W56191  27.145   1.901  13.372
86311W        W56192  32.563   0.838  10.028
86312W        W56193  42.424  28.932  12.496
86313W        W56194  41.999  19.100   3.838
86314W        W56195  33.072   5.798   1.255
86315W        W56196   9.275  33.475   1.869
86316W        W56197  29.927  22.206  12.424
86317W        W56198  20.764  15.712  12.075
86318W        W56199  17.772  40.430  10.499
86319W        W56200  24.089  34.558   1.911
86320W        W56201  13.141  33.039   0.369
86321W        W56202  30.588   2.955   1.215
86322W        W56203   1.822  37.349  14.390
86323W        W56204  43.934  30.606   3.197
86324W        W56205  10.372  27.176  10.925
86325W        W56206  12.724  27.686  10.617
86326W        W56207  43.766   0.897  10.488
86327W        W56208   6.841   5.348  14.019
86328W        W56209  20.622  31.503  11.040
86329W        W56210  24.719  10.653   2.316
86330W        W56211  16.093  29.514  10.438
86331W        W56212  22.059  35.023  13.489
86332W        W56213  42.806  39.453  12.989
86333W        W56214   5.808  30.438  13.818
86334W        W56215  26.668  31.488  14.809
86335W        W56216  31.135   9.851   4.711
86336W        W56217  18.100  15.284   2.362
86337W        W56218  21.685   2.736   4.219
86338W        W56219  25.122   8.752  14.935
86339W        W56220  20.227  40.349  14.500
86340W        W56221   5.271  22.624   0.856
86341W        W56222   7.887  38.065   3.280
86342W        W56223   3.793   3.360   4.340
86343W        W56224  21.088  41.488  10.098
86344W        W56225  28.625   3.890   1.845
86345W        W56226  17.693  31.581   4.319
86346W        W56227   4.442  24.051   0.314
86347W        W56228  20.679  11.341   0.944
86348W        W56229   1.294   6.884  11.540
86349W        W56230  21.107  41.883   4.706
86350W        W56231  43.789  19.660  11.497
86351W        W56232  27.622  25.655   0.890
86352W        W56233   5.849   0.312   1.321
86353W        W56234  41.465  31.556   1.390
86354W        W56235  43.467  26.547  11.496
86355W        W56236  19.550  21.664   0.246
86356W        W56237   4.317   7.727  12.909
86357W        W56238  28.118   4.342  10.424
86358W        W56239  18.770  36.876  13.043
86359W        W56240  41.402  27.978  11.534
86360W        W56241  15.111  19.591   3.215
86361W        W56242  29.590  41.335  14.029
86362W        W56243  43.770  11.234   4.242
86363W        W56244   1.813  33.568  14.357
86364W        W56245  40.886   6.753   4.685
86365W        W56246  37.409   8.353  14.316
86366W        W56247  29.142  38.911   0.955
86367W        W56248   2.765  16.168  13.522
86368W        W56249  17.271  40.966  11.449
86369W        W56250  43.416  36.434   3.251
86370W        W56251  12.842  32.606  12.901
86371W        W56252   9.696  36.442  11.453
86372W        W56253  20.146   6.428   4.811
86373W        W56254   8.364   1.936   0.742
86374W        W56255  19.680  33.433   2.337
86375W        W56256  16.574  26.611  14.904
86376W        W56257  42.813  16.600  10.474
86377W        W56258  22.166  19.136  12.576
86378W        W56259   0.937  43.824  12.876
86379W        W56260   7.911  14.653  10.454
86380W        W56261  22.178  13.338   3.198
86381W        W56262   2.443  39.488   3.711
86382W        W56263  27.024  33.443  12.027
86383W        W56264  15.661  38.932  14.435
86384W        W56265  30.162   4.736  13.955
86385W        W56266  41.461  37.337   1.828
86386W        W56267  29.157  36.565  14.512
86387W        W56268   1.269   4.276  13.409
86388W        W56269  16.301  10.806   2.742
86389W        W56270  33.079  39.943   2.265
86390W        W56271  23.136   6.904   1.235
86391W        W56272  20.223  40.803   1.782
86392W        W56273  22.645  25.986  13.833
86393W        W56274  29.492   1.854  14.499
86394W        W56275  27.991  27.075  12.394
86395W        W56276  31.450  10.794   0.917
86396W        W56277  32.983  15.705   0.757
86397W        W56278   6.385  40.347   1.273
86398W        W56279  24.587  44.404  12.036
86399W        W56280  44.372  44.286  12.504
86400W        W56281  29.532  23.153   4.117
86401W        W56282   9.377  17.226   4.702
86402W        W56283  22.570  16.788  10.075
86403W        W56284  38.423  33.912   3.853
86404W        W56285  28.139  28.116  14.326
86405W        W56286  42.932  43.765  12.895
86406W        W56287  13.784  13.289   1.778
86407W        W56288  16.579  24.594   2.214
86408W        W56289  22.089  31.469   4.244
86409W        W56290   5.783  14.305   5.091
86410W        W56291  28.959   6.388   3.851
86411W        W56292  22.590  18.199   3.170
86412W        W56293   9.221  10.165   0.921
86413W        W56294  20.754  32.985   3.731
86414W        W56295   9.656  10.301  11.099
86415W        W56296  31.625  12.761   1.772
86416W        W56297   4.446  10.652  12.936
86417W        W56298  19.682  30.609  12.468
86418W        W56299  30.605  32.975   0.318
86419W        W56300   6.243   5.820   1.865
86420W        W56301  27.617  41.318  14.937
86421W        W56302  35.873  26.573  14.936
86422W        W56303  40.006  36.896   1.288
86423W        W56304  43.327  31.088  11.414
86424W        W56305  10.680  18.244  11.474
86425W        W56306  10.140  33.479  12.080
86426W        W56307  29.141  43.021   3.771
86427W        W56308   3.402  34.409  11.967
86428W        W56309  25.010   9.857   0.427
86429W        W56310  42.878  32.071  12.392
86430W        W56311   8.278   6.382   4.768
86431W        W56312  21.755  23.174  11.074
86432W        W56313   5.913  19.128  11.565
86433W        W56314  32.401  41.393   2.375
86434W        W56315  20.669  22.213   3.247
86435W        W56316  22.615  32.996   4.325
86436W        W56317  37.831  10.791   0.285
86437W        W56318   9.815  27.596   1.789
86438W        W56319  12.833  35.085   2.271
86439W        W56320  35.974  11.285  11.003
86440W        W56321   9.704  12.231  13.862
86441W        W56322  38.335  28.527  13.927
86442W        W56323  43.961  15.167   2.689
86443W        W56324   1.941  14.791  12.354
86444W        W56325  18.700  38.986  11.447
86445W        W56326  17.080  39.543  10.914
86446W        W56327  16.079   9.285  13.423
86447W        W56328  10.713  10.847  10.500
86448W        W56329   2.470  39.863  13.502
86449W        W56330   1.837   7.718  12.345
86450W        W56331  41.448  10.314  12.427
86451W        W56332  28.134  44.945   2.392
86452W        W56333  27.663  11.200  10.997
86453W        W56334  12.731  26.136   1.400
86454W        W56335   2.866  43.929   3.708
86455W        W56336  38.461  12.779   1.407
86456W        W56337  30.543   6.422  11.559
86457W        W56338  15.710  34.433  10.103
86458W        W56339  44.504  23.530  12.429
86459W        W56340   2.785  11.236  10.480
86460W        W56341  30.463  23.590   4.739
86461W        W56342  32.999  24.064  12.406
86462W        W56343   9.271  35.025   0.468
86463W        W56344  25.196  24.049  10.968
86464W        W56345  26.601  23.206  12.089
86465W        W56346  13.622  34.943   4.816
86466W        W56347  30.498   4.791  13.460
86467W        W56348  34.121  27.021  13.313
86468W        W56349  19.602   6.738   2.713
86469W        W56350  17.565   1.434  11.895
86470W        W56351  39.527   0.939   0.775
86471W        W56352  33.613  40.852   2.406
86472W        W56353  43.503  19.558  14.339
86473W        W56354  30.618  21.747   4.188
86474W        W56355  25.006   8.317   0.392
86475W        W56356  41.942  44.773   1.777
86476W        W56357   8.812  39.451   2.735
86477W        W56358  38.030  25.516  10.943
86478W        W56359   3.801   9.220  13.517
86479W        W56360  19.631  33.570   1.881
86480W        W56361   5.420  41.475   4.802
86481W        W56362   5.887  40.441  14.889
86482W        W56363  24.150  25.626  11.404
86483W        W56364  15.797   5.306  11.928
86484W        W56365  42.431  26.022   3.722
86485W        W56366  10.165  15.646   2.854
86486W        W56367  23.539  13.827  10.906
86487W        W56368  13.174  43.872  11.998
86488W        W56369  12.623  22.609   3.824
86489W        W56370  36.926  22.223   0.950
86490W        W56371  32.945  38.474  12.983
86491W        W56372  39.864   6.416  14.470
86492W        W56373  33.065  24.177  10.525
86493W        W56374  38.442   3.374   2.679
86494W        W56375  19.261   7.716   4.834
86495W        W56376  31.095  31.518   1.310
86496W        W56377  19.607  25.015  12.350
86497W        W56378   3.244   1.896   2.875
86498W        W56379   7.362  32.456  14.904
86499W        W56380  23.698  18.281   3.649
86500W        W56381  16.165  19.534   3.365
86501W        W56382  41.421  18.747   3.852
86502W        W56383  22.580   2.741   2.253
86503W        W56384  11.728  25.708  13.968
86504W        W56385  17.714  27.999   0.339
86505W        W56386  38.923  33.003  14.336
86506W        W56387  17.752  26.525   0.782
86507W        W56388  33.000   4.303  14.857
86508W        W56389  11.301  40.915   4.729
86509W        W56390   8.255  39.053  12.417
86510W        W56391   6.742  17.248  12.352
86511W        W56392  41.351  32.614   1.817
86512W        W56393  11.827  32.063   0.370
86513W        W56394  15.131  30.612   4.785
86514W        W56395  11.838  34.956   2.822
86515W        W56396  26.682   3.261   0.384
86516W        W56397  32.561  34.392  14.850
86517W        W56398  40.905  12.808  13.994
86518W        W56399  33.112  20.712  12.834
86519W        W56400  13.713  21.692   1.774
86520W        W56401   7.765  15.770  12.522
86521W        W56402  21.107  13.154  13.843
86522W        W56403  44.340  36.572   2.848
86523W        W56404  37.517  27.450   0.746
86524W        W56405  38.411  15.120  14.366
86525W        W56406  44.299  32.900   3.779
86526W        W56407   8.264  42.369  12.443
86527W        W56408   4.937  26.958  11.498
86528W        W56409  18.759  17.587  14.473
86529W        W56410  34.026  44.843  10.565
86530W        W56411  41.005  36.475   4.638
86531W        W56412  10.834   0.989   2.189
86532W        W56413  31.914  28.436  14.809
86533W        W56414   4.341   1.864   3.777
86534W        W56415  33.032  19.766  13.800
86535W        W56416  37.907   1.480  14.785
86536W        W56417  36.069  27.099  13.438
86537W        W56418  43.979  10.649  10.529
86538W        W56419  19.195   2.892  11.396
86539W        W56420  30.039  28.644   0.322
86540W        W56421  40.454   9.381   2.360
86541W        W56422  29.580  11.853  13.841
86542W        W56423  13.655  19.270   3.280
86543W        W56424  42.894  10.850   0.877
86544W        W56425  26.495   2.762   1.837
86545W        W56426  15.652  29.538   3.770
86546W        W56427   3.897   8.728   0.918
86547W        W56428   2.239  14.598   1.353
86548W        W56429  19.688  32.993  12.348
86549W        W56430  14.735  25.189   4.816
86550W        W56431   8.318  11.304   1.239
86551W        W56432   3.428  17.656  13.470
86552W        W56433  20.272  44.970   1.322
86553W        W56434   8.380  12.242   0.937
86554W        W56435  14.163   3.785  11.087
86555W        W56436  34.986  42.516  12.502
86556W        W56437   8.698  43.275   2.288
86557W        W56438  22.047  22.635  14.875
86558W        W56439  22.612  18.592  12.357
86559W        W56440   7.249  18.129   3.654
86560W        W56441  21.118  23.507   4.203
86561W        W56442  12.281  41.927  12.573
86562W        W56443  13.818  18.773   3.228
86563W        W56444  28.141  40.889  13.989
86564W        W56445  33.381  28.002  12.856
86565W        W56446   0.809  36.533   0.926
86566W        W56447  42.436  43.876  13.907
86567W        W56448  44.447  42.396  14.416
86568W        W56449  27.517  20.678  11.113
86569W        W56450   6.706  33.458  14.358
86570W        W56451  29.966  44.907   3.265
86571W        W56452   4.765  38.468   1.214
86572W        W56453  20.546   1.292  10.888
86573W        W56454  33.973  17.757   3.646
86574W        W56455   4.394  41.413   3.287
86575W        W56456   4.294   0.443  14.861
86576W        W56457  16.603   4.720  14.455
86577W        W56458  33.013  43.377  12.925
86578W        W56459  24.603   8.279   3.287
86579W        W56460  39.934  44.821  12.453
86580W        W56461  28.132  44.786  14.004
86581W        W56462  36.027  27.197   4.185
86582W        W56463   3.418  24.662   4.749
86583W        W56464  32.919  38.518   0.926
86584W        W56465  20.083  32.406  13.053
86585W        W56466  19.094  30.935  11.948
86586W        W56467  42.337   7.326   2.333
86587W        W56468  36.888  42.418  13.414
86588W        W56469   8.663  39.555   3.766
86589W        W56470  23.566  37.568   0.829
86590W        W56471   3.917  24.704   3.757
86591W        W56472  15.634  14.245   3.858
86592W        W56473   3.918   7.205  12.964
86593W        W56474  32.477  16.741   3.332
86594W        W56475  10.246  22.563  14.342
86595W        W56476  43.846  10.311   1.380
86596W        W56477   5.806  25.028   3.294
86597W        W56478  23.028  24.121  12.366
86598W        W56479  39.479  25.519  12.381
86599W        W56480  24.172  33.013  14.878
86600W        W56481   2.408  42.933  10.476
86601W        W56482  15.153  35.885   0.414
86602W        W56483  31.018  33.986   1.797
86603W        W56484  21.140  33.124  10.565
86604W        W56485  28.527  38.913   3.288
86605W        W56486   8.244  26.122   0.743
86606W        W56487   1.278  40.481   2.882
86607W        W56488  37.403  29.551   5.082
86608W        W56489  18.716  44.373   3.346
86609W        W56490  20.739   9.740  12.406
86610W        W56491  37.935  22.182   0.951
86611W        W56492   4.320  36.014   4.636
86612W        W56493   9.694   7.782   3.315
86613W        W56494   3.722  15.299   2.723
86614W        W56495  37.074  36.085  12.973
86615W        W56496  23.053   2.784  11.864
86616W        W56497  19.730  38.497   3.329
86617W        W56498   3.402  33.392  11.859
86618W        W56499   6.255  36.490  12.867
86619W        W56500   9.780  41.533   3.648
86620W        W56501  34.411  16.624   2.373
86621W        W56502  28.024  20.729   3.858
86622W        W56503   6.682  41.828   1.386
86623W        W56504  36.368  14.657   1.865
86624W        W56505  25.095   8.378  11.883
86625W        W56506  38.074  28.660  12.386
86626W        W56507  22.695  37.337   2.362
86627W        W56508   0.973  28.488  13.427
86628W        W56509  17.192  12.746   1.834
86629W        W56510  35.523  10.206  11.086
86630W        W56511  44.427  25.153   5.308
86631W        W56512  24.679  33.409  13.405
86632W        W56513  16.584  33.613   1.894
86633W        W56514   7.782  36.388  11.411
86634W        W56515  26.953  24.148   1.929
86635W        W56516  21.258  33.554  10.589
86636W        W56517  32.549   7.221  12.562
86637W        W56518  17.759  34.449   3.370
86638W        W56519  13.770  41.396   2.312
86639W        W56520   9.275  34.460   2.864
86640W        W56521  15.313  12.250   3.838
86641W        W56522  17.115  18.159  11.104
86642W        W56523   4.423  41.833  10.972
86643W        W56524  33.478   7.870  12.347
86644W        W56525  28.101  10.378  11.561
86645W        W56526  23.142   6.845  12.901
86646W        W56527  14.321  29.085  13.898
86647W        W56528  22.047  41.448   1.834
86648W        W56529  39.505   6.404   2.765
86649W        W56530  37.940   0.397  10.016
86650W        W56531  40.381  26.136  10.566
86651W        W56532  24.215  10.381   1.400
86652W        W56533  27.071  26.682  11.960
86653W        W56534  32.563  15.285   4.342
86654W        W56535  34.994  10.380  13.333
86655W        W56536  18.271  40.918  13.868
86656W        W56537   6.202  11.348   3.779
86657W        W56538  23.526  13.204   0.850
86658W        W56539  34.038  39.426  13.547
86659W        W56540  26.611  34.456   2.871
86660W        W56541  19.763  22.132   3.727
86661W        W56542  32.968   8.320  12.883
86662W        W56543  23.111  38.457   0.249
86663W        W56544   2.362  19.620   0.275
86664W        W56545  42.875  13.298   0.823
86665W        W56546  19.222  13.781  14.994
86666W        W56547   5.278  30.480  11.881
86667W        W56548  26.071  39.553  13.448
86668W        W56549  15.293  42.473  10.942
86669W        W56550   6.200  18.272   1.724
86670W        W56551  11.173  41.856  13.387
86671W        W56552  23.581  12.639   3.851
86672W        W56553  22.622  43.392   1.387
86673W        W56554  15.134   1.865   1.223
86674W        W56555   6.284   6.326   2.261
86675W        W56556  30.461  43.873   2.815
86676W        W56557  19.263   4.302   0.383
86677W        W56558  25.156  11.845   5.103
86678W        W56559  30.121   7.898   2.817
86679W        W56560  12.777  35.535   3.677
86680W        W56561   8.867  38.953  14.494
86681W        W56562   8.858  16.150   1.248
86682W        W56563  20.241  20.648  13.003
86683W        W56564  42.358  43.985  11.971
86684W        W56565  22.534   7.240   4.192
86685W        W56566  26.161  10.775   2.269
86686W        W56567  32.971   3.712  11.426
86687W        W56568  11.248  34.939  12.948
86688W        W56569  13.188   0.867   1.432
86689W        W56570  42.503  21.091   3.853
86690W        W56571  13.825   2.305   3.287
86691W        W56572  18.221  18.289  12.356
86692W        W56573  20.137  20.229  10.540
86693W        W56574  11.820  36.052  13.465
86694W        W56575  18.608  40.461  13.934
86695W        W56576  15.742  43.330  14.303
86696W        W56577  36.370  33.065   2.198
86697W        W56578  29.950  13.315  12.042
86698W        W56579  31.995  25.536  12.029
86699W        W56580   2.814   2.775   0.729
86700W        W56581  29.437  20.711   4.783
86701W        W56582   2.283  23.639  14.353
86702W        W56583  25.211  23.582  14.928
86703W        W56584  21.517   2.865  11.384
86704W        W56585  28.155  10.368  12.461
86705W        W56586   0.903  42.514  13.053
86706W        W56587  36.004  32.887   0.941
86707W        W56588  24.162  38.453   1.235
86708W        W56589   5.382  19.135  13.527
86709W        W56590  30.427  13.322  12.507
86710W        W56591   8.370  18.666  13.950
86711W        W56592  28.955  29.984  11.926
86712W        W56593  42.843  29.943   4.772
86713W        W56594  31.972   1.324   0.764
86714W        W56595  28.006  15.690  11.429
86715W        W56596  38.393  12.152   4.716
86716W        W56597  41.384   9.781   1.270
86717W        W56598  42.399   4.767  10.989
86718W        W56599  16.229  14.730  13.438
86719W        W56600  38.880  32.046  12.091
86720W        W56601  43.002   3.306   1.414
86721W        W56602  37.550   8.869   4.141
86722W        W56603  12.814  39.007  11.952
86723W        W56604  41.946   4.419  13.328
86724W        W56605  39.447  41.314   3.149
86725W        W56606  42.417  37.992   1.312
86726W        W56607   0.455  14.755  13.342
86727W        W56608  20.742  30.484  13.403
86728W        W56609  22.684  33.969  12.876
86729W        W56610   7.225  43.780   4.301
86730W        W56611  16.217  32.617  14.939
86731W        W56612   7.672  12.832  12.545
86732W        W56613  41.943  13.731   3.352
86733W        W56614  29.931   7.752   1.256
86734W        W56615  30.146  29.009  11.005
86735W        W56616  39.853  20.628  14.917
86736W        W56617  13.194  33.521   2.228
86737W        W56618   7.265   9.174  11.026
86738W        W56619  41.480  38.838   4.135
86739W        W56620   7.255  17.214  14.770
86740W        W56621  19.676  22.115  14.430
86741W        W56622  24.143   2.469  10.604
86742W        W56623   8.367  32.592  14.379
86743W        W56624  38.823  24.539  14.931
86744W        W56625  16.162  11.159  12.007
86745W        W56626  29.120  26.701   2.745
86746W        W56627  35.522  32.585   4.149
86747W        W56628  22.652  43.352  13.019
86748W        W56629  34.520  15.191   1.787
86749W        W56630  35.982   4.864  14.391
86750W        W56631   8.773  16.290  14.964
86751W        W56632  27.050  16.172  10.542
86752W        W56633  27.055   5.907   2.306
86753W        W56634  21.214  30.562  13.354
86754W        W56635  17.108   7.834   1.444
86755W        W56636   7.772  44.259  11.967
86756W        W56637   0.385  11.295  14.480
86757W        W56638  37.946  25.199  10.490
86758W        W56639  44.981  42.479  12.887
86759W        W56640  15.706  10.378   2.412
86760W        W56641  18.703  36.843  13.937
86761W        W56642   2.369   8.163   3.154
86762W        W56643   7.355   8.729   3.191
86763W        W56644  17.786  12.357   3.656
86764W        W56645  30.981  44.412  13.893
86765W        W56646  42.790  32.888   3.269
86766W        W56647  21.672  24.112   1.782
86767W        W56648   0.420  14.716  14.809
86768W        W56649  15.759   9.351  13.432
86769W        W56650  22.584   0.410   2.705
86770W        W56651  16.240  36.080   4.202
86771W        W56652  36.081   0.871  12.843
86772W        W56653  15.290   0.468   3.833
86773W        W56654  11.336  16.214   4.689
86774W        W56655  44.922  23.158  10.899
86775W        W56656  23.135  24.657  14.814
86776W        W56657  17.135  15.760   2.782
86777W        W56658  44.438  42.023   4.209
86778W        W56659  40.912  39.834  11.105
86779W        W56660   0.857  37.545  10.611
86780W        W56661  12.194  31.053  12.016
86781W        W56662  17.270  42.778   4.660
86782W        W56663   1.387  41.839   2.207
86783W        W56664  24.999  13.745  11.435
86784W        W56665  40.485  12.358   0.733
86785W        W56666   9.830  33.428  14.339
86786W        W56667  35.380  37.837   1.441
86787W        W56668  11.156   5.832   0.417
86788W        W56669  15.685  36.940  10.491
86789W        W56670   4.212  36.083   1.341
86790W        W56671  32.633  44.416  13.806
86791W        W56672  36.016  41.846  10.485
86792W        W56673  23.573  23.619  14.770
86793W        W56674  39.972  21.086  14.463
86794W        W56675   3.905  42.003   2.821
86795W        W56676  30.482  38.995   3.216
86796W        W56677  14.678  23.050   3.274
86797W        W56678   1.260   0.259   2.700
86798W        W56679   8.346  10.138   4.279
86799W        W56680   0.315   9.149  14.872
86800W        W56681  33.876  33.080  12.507
86801W        W56682  42.853  22.601   0.365
86802W        W56683  40.347  31.130   2.279
86803W        W56684  22.648  25.501   1.413
86804W        W56685   2.354  11.710  12.446
86805W        W56686  18.178   9.657  13.898
86806W        W56687   3.250  32.459   2.793
86807W        W56688  23.055  34.533   0.252
86808W        W56689  41.411  13.318  11.869
86809W        W56690  40.858  34.050  11.398
86810W        W56691  30.626  35.063   3.377
86811W        W56692   0.419  13.162  11.914
86812W        W56693  36.407   9.763   2.727
86813W        W56694  42.403  32.009   4.236
86814W        W56695  23.620  44.809   4.310
86815W        W56696  38.498   3.884   2.841
86816W        W56697   3.386  14.151   3.229
86817W        W56698  21.648   5.335   1.829
86818W        W56699  27.636  29.062  12.984
86819W        W56700   8.794  29.146   2.178
86820W        W56701  35.559  40.798   1.349
86821W        W56702  19.710  39.896  10.899
86822W        W56703  15.765  13.621  14.334
86823W        W56704  41.339   2.324  13.962
86824W        W56705  37.541  43.429   4.333
86825W        W56706  22.093  12.154  12.089
86826W        W56707  30.139   0.815  14.852
86827W        W56708  20.764  13.290  14.399
86828W        W56709  22.571  24.492   0.427
86829W        W56710   2.380  11.370  13.469
86830W        W56711  16.221  10.641   4.338
86831W        W56712  24.206  10.737   0.279
86832W        W56713   6.339   2.418   1.232
86833W        W56714  25.555  15.791  10.045
86834W        W56715  35.011  26.485   3.866
86835W        W56716  13.305  35.434  12.495
86836W        W56717  17.746  15.148  14.011
86837W        W56718  22.735  26.492   3.687
86838W        W56719  22.619  26.497  12.951
86839W        W56720  24.097   4.778   3.179
86840W        W56721  20.522  13.703  10.458
86841W        W56722  28.094  41.838  10.498
86842W        W56723   8.254  14.634  10.624
86843W        W56724   8.665   2.808  12.049
86844W        W56725  10.176  22.663  11.891
86845W        W56726  12.120  34.601   2.692
86846W        W56727  26.107  42.933  12.355
86847W        W56728  15.692  23.584  14.827
86848W        W56729  18.680  29.091  10.944
86849W        W56730  25.151   9.190   3.165
86850W        W56731  39.970  27.451   2.251
86851W        W56732  44.880   9.778  12.844
86852W        W56733  13.198  18.253  14.452
86853W        W56734   5.902  43.357  12.913
86854W        W56735  35.450  15.184  10.541
86855W        W56736  34.026  11.371   2.227
86856W        W56737  15.121   5.222  14.966
86857W        W56738  20.698  13.656  14.801
86858W        W56739  36.582   6.738   1.379
86859W        W56740  13.144  15.666  14.429
86860W        W56741  10.658   8.798  13.893
86861W        W56742  11.848  11.701   2.268
86862W        W56743   2.265  23.018  12.058
86863W        W56744  41.515  29.658  14.806
86864W        W56745  14.256  31.527  13.830
86865W        W56746  21.092  34.021   2.305
86866W        W56747   8.390  36.048   4.664
86867W        W56748   6.248   7.750  11.987
86868W        W56749  12.700  28.570  10.013
86869W        W56750  20.110  44.366   1.245
86870W        W56751  24.550   5.899  10.406
86871W        W56752  38.902  29.599  12.452
86872W        W56753  28.114   1.917  12.897
86873W        W56754   1.942  23.705  13.465
86874W        W56755  15.122  35.488   4.229
86875W        W56756  39.934  38.338   4.310
86876W        W56757   0.886  41.003   0.379
86877W        W56758  12.184   3.770   0.442
86878W        W56759  39.847  22.626  14.911
86879W        W56760  33.504   6.200  12.502
86880W        W56761   6.206  27.036  11.095
86881W        W56762  36.084  22.205   2.741
86882W        W56763   8.348  24.523  13.967
86883W        W56764  10.826  18.770  12.477
86884W        W56765  18.213   1.393  10.483
86885W        W56766  17.184  20.042  12.882
86886W        W56767  11.271  35.491   2.355
86887W        W56768  16.106  35.033  13.968
86888W        W56769  36.084  26.563   0.888
86889W        W56770  36.354  41.017  13.792
86890W        W56771  21.076   8.223  14.276
86891W        W56772   2.407   7.324   3.703
86892W        W56773   5.700  11.348   2.214
86893W        W56774  19.652  37.008   2.860
86894W        W56775   1.747  40.453  14.437
86895W        W56776  44.447  39.931   3.283
86896W        W56777  33.132  42.778   4.218
86897W        W56778  29.516  14.735   4.748
86898W        W56779   3.901  13.111   2.820
86899W        W56780   2.931  23.090  14.387
86900W        W56781  14.657  15.813  10.130
86901W        W56782  41.961   0.310   2.882
86902W        W56783  18.704  12.767   3.295
86903W        W56784  20.103  32.598   4.791
86904W        W56785  25.016   6.216   1.273
86905W        W56786  13.662  16.657  13.534
86906W        W56787  38.426  36.948  14.776
86907W        W56788  38.931  12.809   9.945
86908W        W56789  12.353   2.753  14.771
86909W        W56790   5.279  27.509   1.305
86910W        W56791  26.584  43.495  10.991
86911W        W56792   4.234   1.417  13.334
86912W        W56793  20.156  43.373   1.287
86913W        W56794  34.915  23.658   3.749
86914W        W56795  39.520   1.929   4.308
86915W        W56796  39.385  23.495   1.335
86916W        W56797  16.631   2.447   0.316
86917W        W56798   2.429   3.234   1.716
86918W        W56799  17.700  11.224  13.974
86919W        W56800  10.242  42.355  10.514
86920W        W56801   9.710  25.185   2.215
86921W        W56802  13.349  42.352  11.883
86922W        W56803   3.233  32.995  13.918
86923W        W56804  19.558  35.366  12.500
86924W        W56805   8.181  24.126  12.442
86925W        W56806  14.303   4.736   2.850
86926W        W56807  11.146  21.158  14.315
86927W        W56808  25.631  39.391  11.873
86928W        W56809  19.704  34.578   2.735
86929W        W56810  11.318  13.817   0.479
86930W        W56811   2.268  17.686   1.886
86931W        W56812  34.094  34.526  12.436
86932W        W56813  24.665  13.301   2.736
86933W        W56814   0.768  14.139   2.197
86934W        W56815  13.821  31.931   2.719
86935W        W56816  21.226  43.300  14.285
86936W        W56817  24.183  34.432  14.927
86937W        W56818  28.929  24.543   2.723
86938W        W56819  28.659  25.636   3.203
86939W        W56820  42.456  14.803  12.034
86940W        W56821  30.930  27.992   3.202
86941W        W56822   1.796  38.892  10.645
86942W        W56823  35.392  18.748  11.871
86943W        W56824  39.051  18.772   3.819
86944W        W56825  28.011  43.303   4.279
86945W        W56826  16.315   6.856  13.963
86946W        W56827  20.191  14.100  14.450
86947W        W56828   6.760  43.863  12.854
86948W        W56829  39.497  25.125  11.988
86949W        W56830  42.363  31.631   3.717
86950W        W56831  16.096  19.646  14.412
86951W        W56832  25.574   7.264   3.333
86952W        W56833  14.184  30.149  11.549
86953W        W56834  27.668  16.243  14.875
86954W        W56835  25.617  34.956   0.897
86955W        W56836  12.193   8.225   1.926
86956W        W56837  38.953  35.870   0.472
86957W        W56838  38.340  25.002  11.417
86958W        W56839  25.075  20.733   2.360
86959W        W56840  26.131  30.429   4.248
86960W        W56841  42.312   5.810  14.957
86961W        W56842   7.683  19.101   4.643
86962W        W56843   7.259  15.655   0.259
86963W        W56844  16.677  20.719  10.933
86964W        W56845  25.502  11.736  13.924
86965W        W56846  30.089  25.641   3.180
86966W        W56847  43.950  39.396  12.384
86967W        W56848  34.456  37.476   4.211
86968W        W56849   2.454  43.959   2.288
86969W        W56850  20.192  27.460  11.016
86970W        W56851  37.055  36.956  12.972
86971W        W56852  37.847  16.147   2.823
86972W        W56853  36.975  23.512  14.468
86973W        W56854  17.764  10.713   2.391
86974W        W56855   9.889   3.369  12.827
86975W        W56856   0.789  25.193   3.780
86976W        W56857  36.934  35.013   0.773
86977W        W56858   9.346  15.588  11.994
86978W        W56859   5.802  25.483   1.382
86979W        W56860  35.033  29.506   0.347
86980W        W56861  14.732  17.299  10.627
86981W        W56862  35.378  21.239  14.967
86982W        W56863  32.130  23.507   4.241
86983W        W56864  15.240  29.624  13.335
86984W        W56865  40.487   5.207   1.226
86985W        W56866  41.924  40.443  14.791
86986W        W56867   8.294  39.052   2.359
86987W        W56868   5.197  36.531  12.923
86988W        W56869  20.160  41.442   3.318
86989W        W56870  22.557  25.598   4.233
86990W        W56871   3.260   8.304  14.022
86991W        W56872   7.409   1.421  14.893
86992W        W56873  41.971  11.194   2.411
86993W        W56874  10.674  19.047   1.773
86994W        W56875   3.767  22.652   0.923
86995W        W56876  27.485  13.609  14.797
86996W        W56877   5.253  20.137   4.784
86997W        W56878  39.528  19.670  13.930
86998W        W56879  17.783  38.890  11.452
86999W        W56880  32.134  42.504  12.925
87000W        W56881  17.588   0.426   0.324
87001W        W56882  31.007  37.376  13.519
87002W        W56883   8.779   7.172  13.852
87003W        W56884   1.768  33.900  11.595
87004W        W56885  11.291  43.946  11.070
87005W        W56886  40.964  14.672  11.059
87006W        W56887   1.272  25.537   3.654
87007W        W56888  16.107  21.655  13.012
87008W        W56889  24.703  37.863  14.882
87009W        W56890   4.875   2.289   3.150
87010W        W56891  41.312  23.591  13.861
87011W        W56892  42.803  25.563  14.814
87012W        W56893  28.635  23.032  12.953
87013W        W56894  18.788  32.572   1.370
87014W        W56895   7.880  11.277  12.437
87015W        W56896  26.605  34.471  12.092
87016W        W56897   2.736  31.478   0.369
87017W        W56898  42.944  21.697  12.015
87018W        W56899  22.695  25.989   1.274
87019W        W56900  33.400  22.180  10.017
87020W        W56901  37.337  11.724  13.982
87021W        W56902  41.320  27.538  11.017
87022W        W56903  24.594  19.576   2.206
87023W        W56904  43.394  28.483   0.360
87024W        W56905  23.029  29.175   2.829
87025W        W56906  37.460  31.445   1.445
87026W        W56907  10.704  41.011   1.717
87027W        W56908  12.799  38.891   3.825
87028W        W56909  16.730   4.356   2.413
87029W        W56910  37.367  43.343  13.392
87030W        W56911  40.949   3.789  14.448
87031W        W56912  37.547  19.668   3.267
87032W        W56913  31.997  17.190  13.932
87033W        W56914  23.626   1.289  10.960
87034W        W56915  44.954   2.879   0.825
87035W        W56916  15.801  33.058   4.137
87036W        W56917  41.790   4.894  11.076
87037W        W56918  18.732  16.269  13.438
87038W        W56919  24.483  30.586  14.784
87039W        W56920  12.721  11.341  14.299
87040W        W56921  21.065  21.222  14.341
87041W        W56922  29.100  22.131   0.959
87042W        W56923  10.667  39.858  13.956
87043W        W56924   6.678  34.430   0.736
87044W        W56925  26.498   5.275  11.085
87045W        W56926  41.323  32.524   4.122
87046W        W56927  43.449  41.814  13.838
87047W        W56928   9.875  22.602  13.338
87048W        W56929   2.312   6.320  12.085
87049W        W56930  12.329  42.987   1.446
87050W        W56931  15.602  20.751  12.086
87051W        W56932  40.024  44.779   4.294
87052W        W56933  10.187   1.803   2.705
87053W        W56934  31.985  27.565   1.899
87054W        W56935  20.727  33.976  13.328
87055W        W56936  10.287  20.123  12.385
87056W        W56937  10.279  13.178   5.095
87057W        W56938  24.680  34.461  12.940
87058W        W56939  43.292  25.096  12.555
87059W        W56940  42.331  11.631   0.903
87060W        W56941  26.506  41.865  10.634
87061W        W56942  44.260   4.330   0.266
87062W        W56943  44.867   2.242   1.796
87063W        W56944  44.443  22.549  13.439
87064W        W56945  41.990  24.120  13.467
87065W        W56946   7.313  20.205  14.824
87066W        W56947  22.092   6.304   1.287
87067W        W56948  41.969  42.846  11.600
87068W        W56949  36.995  34.449   2.382
87069W        W56950  12.187  10.141   3.640
87070W        W56951   1.902   4.283   1.367
87071W        W56952   2.323   9.740   4.333
87072W        W56953   8.170  23.996  13.351
87073W        W56954  27.944  18.209  13.516
87074W        W56955  23.521   2.310   1.430
87075W        W56956  43.399   7.804  11.118
87076W        W56957  27.662  40.826   3.790
87077W        W56958  15.775   6.720  14.770
87078W        W56959  15.278  38.445   5.173
87079W        W56960  17.206  13.315  13.844
87080W        W56961  10.748  16.631   5.094
87081W        W56962  31.085   2.819  11.426
87082W        W56963  40.879  44.926   0.244
87083W        W56964   8.370  28.144   0.433
87084W        W56965  17.716  24.086  14.438
87085W        W56966  12.296  14.124   2.397
87086W        W56967   5.400  32.417  10.533
87087W        W56968  28.137  29.989   1.364
87088W        W56969  14.652   8.868   2.681
87089W        W56970  21.700  25.619  13.357
87090W        W56971  17.682  30.012   3.814
87091W        W56972  22.561  43.419   2.312
87092W        W56973  41.027  13.342  11.013
87093W        W56974  27.106  39.897  10.970
87094W        W56975  21.691  40.524   4.608
87095W        W56976  35.029   0.491   0.452
87096W        W56977  10.250  34.571   2.733
87097W        W56978  22.159   2.336   0.831
87098W        W56979  36.565  27.507   4.792
87099W        W56980  23.599  12.733   3.173
87100W        W56981   6.305  14.168  11.892
87101W        W56982  17.196  18.767  14.009
87102W        W56983  39.914   4.255   2.757
87103W        W56984   3.885  17.732  12.479
87104W        W56985   6.853  37.558   1.732
87105W        W56986  16.182  12.281  12.028
87106W        W56987  44.405  30.533  12.427
87107W        W56988   4.763  18.063  12.892
87108W        W56989  11.784  31.140   9.596
87109W        W56990  38.406  14.616  12.372
87110W        W56991  38.423   4.720   4.685
87111W        W56992  43.800  28.066   1.436
87112W        W56993  34.552   6.769   4.349
87113W        W56994  43.400  25.017  14.326
87114W        W56995  35.050   0.803   1.271
87115W        W56996  29.981  11.186  14.393
87116W        W56997  12.224  28.616   1.802
87117W        W56998  36.502   7.748   3.206
87118W        W56999  18.288   9.346   4.311
87119W        W57000  40.422   7.816  11.558
87120W        W57001  14.316  10.283   3.239
87121W        W57002   3.826  39.883  10.080
87122W        W57003  36.401  42.458  13.989
87123W        W57004   1.765  19.086   4.827
87124W        W57005  28.087  30.123  11.591
87125W        W57006  35.542   2.950   0.406
87126W        W57007  16.690   4.432  11.534
87127W        W57008  44.289  10.372  10.595
87128W        W57009  29.457   2.952   2.390
87129W        W57010  40.996  19.705  12.563
87130W        W57011   5.249  25.488  12.441
87131W        W57012  25.604  44.906  13.984
87132W        W57013  25.091  39.341  10.475
87133W        W57014  22.129  36.469   0.808
87134W        W57015  32.942  42.324  13.511
87135W        W57016  28.042  14.323   0.262
87136W        W57017  36.859   8.759   0.915
87137W        W57018   3.232  35.917  13.012
87138W        W57019  39.427  41.877   3.867
87139W        W57020  36.977   4.264   0.418
87140W        W57021  38.021  41.335  11.517
87141W        W57022  44.375  37.087   1.370
87142W        W57023  19.575  40.922   2.770
87143W        W57024  31.080   4.906  11.455
87144W        W57025  20.112  25.066  10.417
87145W        W57026  26.076  42.004   4.124
87146W        W57027  15.705   5.769   3.632
87147W        W57028  24.153   1.252  10.925
87148W        W57029  25.206  32.075  13.881
87149W        W57030  32.448  10.756  14.915
87150W        W57031  20.095  21.675   0.458
87151W        W57032  42.854  39.030   3.297
87152W        W57033  37.412   0.889   1.711
87153W        W57034  25.026  23.190  14.468
87154W        W57035  44.302  24.661   1.703
87155W        W57036  44.361   5.735   1.333
87156W        W57037   9.303  18.787   4.264
87157W        W57038   9.187   1.976  12.517
87158W        W57039   2.822   1.760   4.749
87159W        W57040  36.082  15.620   3.194
87160W        W57041  18.657  37.929   4.213
87161W        W57042  28.523   1.262  11.881
87162W        W57043   7.877   1.815   4.174
87163W        W57044  20.220  44.990  13.853
87164W        W57045   3.364  37.391  14.339
87165W        W57046  28.064  14.632   3.169
87166W        W57047  24.690  26.026   3.757
87167W        W57048  11.707  42.027   1.919
87168W        W57049   6.906  41.995   4.639
87169W        W57050  44.499  32.448   0.273
87170W        W57051   2.304   0.906   3.168
87171W        W57052  18.197  40.808   0.440
87172W        W57053  19.214  19.679  13.524
87173W        W57054   4.751  26.176  11.375
87174W        W57055  23.489  15.091   0.293
87175W        W57056  27.600   0.905   1.751
87176W        W57057   8.330   7.908   2.780
87177W        W57058  19.051  11.796   1.214
87178W        W57059  12.223   5.782  13.341
87179W        W57060  28.026  30.952   4.273
87180W        W57061  19.722  27.161   1.832
87181W        W57062   4.351  42.835   4.119
87182W        W57063  12.356  13.779   2.710
87183W        W57064  43.327  11.238  11.022
87184W        W57065  17.701  13.796  14.764
87185W        W57066   3.747  20.031  13.388
87186W        W57067  39.551   8.180   0.773
87187W        W57068  12.674  22.131  14.820
87188W        W57069  23.529  30.616  13.528
87189W        W57070  15.806  37.977   0.888
87190W        W57071   3.437  40.994  10.438
87191W        W57072  33.884   6.264  13.364
87192W        W57073  29.018   9.865  14.285
87193W        W57074  16.123   7.327   2.319
87194W        W57075  39.857  35.521   0.750
87195W        W57076  18.230  16.223   3.344
87196W        W57077   4.218   4.751   4.223
87197W        W57078  42.842  10.690   4.312
87198W        W57079  27.687  35.090  12.422
87199W        W57080  44.311  20.621  10.410
87200W        W57081  40.494  37.446   3.848
87201W        W57082   0.329  36.991   1.710
87202W        W57083  21.528   1.331  11.893
87203W        W57084  35.564  33.569  10.889
87204W        W57085  23.512  26.194  11.393
87205W        W57086  10.817  34.031  13.890
87206W        W57087  10.167  11.762   3.842
87207W        W57088  25.086  44.821   2.331
87208W        W57089  13.179   3.263  14.320
87209W        W57090  31.631  42.474   4.170
87210W        W57091  21.720  15.814  10.087
87211W        W57092  37.902  26.030   4.647
87212W        W57093  35.447  11.730  11.535
87213W        W57094  37.507   3.804   2.334
87214W        W57095  29.584  20.033   3.269
87215W        W57096   9.691  41.906   2.891
87216W        W57097  41.464   5.784  12.992
87217W        W57098  39.931  38.421   2.301
87218W        W57099   3.774  44.980  13.431
87219W        W57100   3.904  33.475  14.030
87220W        W57101   5.392   6.832   3.377
87221W        W57102  15.324   2.464   4.128
87222W        W57103  12.294  14.171  14.872
87223W        W57104  41.359  17.765  10.970
87224W        W57105  35.061   3.364  10.472
87225W        W57106  43.485   2.909   2.363
87226W        W57107  12.692  23.083   4.628
87227W        W57108  40.341   4.907   0.809
87228W        W57109   6.383  18.050   3.287
87229W        W57110   0.828  33.602  10.932
87230W        W57111  11.846   5.779  14.413
87231W        W57112  11.689   9.768   1.439
87232W        W57113  34.542  32.478  11.954
87233W        W57114   6.737  23.236  11.114
87234W        W57115   3.420   6.384   4.327
87235W        W57116   4.395  16.567  11.531
87236W        W57117  10.174  34.408  12.970
87237W        W57118  12.300  11.822  13.007
87238W        W57119  10.676  36.520   4.665
87239W        W57120  34.438  37.024  14.282
87240W        W57121  13.327  44.285  12.952
87241W        W57122   7.785   6.820  11.392
87242W        W57123  39.016  22.125  12.942
87243W        W57124  13.187   9.771  13.355
87244W        W57125  25.575  18.098  12.016
87245W        W57126  23.642  22.252  10.999
87246W        W57127  37.506  21.031   9.937
87247W        W57128  15.805  19.072  10.946
87248W        W57129  10.872  28.178  12.369
87249W        W57130  10.328  36.902   3.308
87250W        W57131   1.368  26.072  13.008
87251W        W57132  37.831  40.417   1.824
87252W        W57133  23.136  26.505  13.029
87253W        W57134  27.086  34.909  11.024
87254W        W57135  26.700  23.108   0.824
87255W        W57136   7.859  42.860   1.375
87256W        W57137   6.911   7.752   2.739
87257W        W57138   8.303   9.218  10.408
87258W        W57139  15.737  32.529   3.278
87259W        W57140  37.033  38.450   1.237
87260W        W57141  14.591   5.421   0.339
87261W        W57142  33.453  15.778   0.957
87262W        W57143  38.511   2.738   4.638
87263W        W57144  25.587  33.939   1.323
87264W        W57145  43.451   9.302   1.805
87265W        W57146  11.327  28.066  10.155
87266W        W57147   8.881  42.500   1.908
87267W        W57148  21.572  28.032  13.830
87268W        W57149   5.770  23.113  10.407
87269W        W57150   9.252  21.096   2.198
87270W        W57151  27.548  15.206   2.880
87271W        W57152   6.385  27.625  14.807
87272W        W57153   5.351  25.522   2.333
87273W        W57154  22.148  33.555   1.390
87274W        W57155   0.271  16.604  14.879
87275W        W57156  26.504   7.304   2.250
87276W        W57157  30.418   4.865   4.180
87277W        W57158   6.701   2.382  13.861
87278W        W57159  15.806  32.962   0.408
87279W        W57160   3.315  19.563  11.919
87280W        W57161   1.909   3.881   4.142
87281W        W57162  23.173  15.661  10.974
87282W        W57163   2.954  28.065   0.874
87283W        W57164  32.451  32.035   2.185
87284W        W57165   7.203  42.844   3.820
87285W        W57166  21.672  25.615  14.343
87286W        W57167  30.043  25.490   0.453
87287W        W57168  23.701  23.677   3.261
87288W        W57169  26.003  18.548  11.938
87289W        W57170  28.070   1.962  14.956
87290W        W57171  23.512  27.082  10.965
87291W        W57172  43.500  37.384   0.311
87292W        W57173  28.503  35.591  10.596
87293W        W57174  41.513  17.712  14.311
87294W        W57175  28.604  19.268  13.356
87295W        W57176  25.517  41.022  12.859
87296W        W57177  24.218  25.177  11.099
87297W        W57178  20.650  28.987  11.428
87298W        W57179  21.232  22.128   3.180
87299W        W57180   5.847  28.647  14.970
87300W        W57181  15.612   6.338   5.146
87301W        W57182  33.040  15.775   4.246
87302W        W57183  39.421  39.364  10.510
87303W        W57184  21.704  20.137  13.982
87304W        W57185  14.317  38.469   4.758
87305W        W57186   1.392  27.501   1.283
87306W        W57187  42.301  41.915  14.972
87307W        W57188  18.724  41.933  14.861
87308W        W57189  43.361   5.342  11.590
87309W        W57190   6.226  37.391  14.820
87310W        W57191  23.657  19.719   3.244
87311W        W57192   3.724   8.202  10.585
87312W        W57193  33.055  35.962  13.886
87313W        W57194  24.588  28.647  13.419
87314W        W57195  14.148  21.127  13.902
87315W        W57196  43.419  36.931   3.227
87316W        W57197  10.705  28.083   2.792
87317W        W57198  42.296  26.129   4.837
87318W        W57199   7.318  19.101  11.973
87319W        W57200  21.081   3.833  11.084
87320W        W57201  14.639  14.148  10.067
87321W        W57202  24.164  20.712   4.217
87322W        W57203  24.571  37.837  11.957
87323W        W57204  11.628  12.669  11.452
87324W        W57205   6.357   6.247  13.509
87325W        W57206   7.402  22.203   2.384
87326W        W57207  23.031  43.976  13.873
87327W        W57208  36.418   1.943  12.944
87328W        W57209   8.712  11.662   3.658
87329W        W57210  41.441  15.137  10.614
87330W        W57211  41.852   4.438   1.404
87331W        W57212  18.232  13.800   0.768
87332W        W57213  43.963  14.260  10.555
87333W        W57214  26.180   5.246   2.748
87334W        W57215  26.172  30.077  13.418
87335W        W57216   2.920  40.818   4.722
87336W        W57217  25.032   0.484  11.533
87337W        W57218  36.368   1.306   4.226
87338W        W57219  26.626   6.381  11.510
87339W        W57220  40.830  33.619  10.989
87340W        W57221   6.320   1.358  10.515
87341W        W57222  10.247  21.207   2.249
87342W        W57223  14.206  28.436   0.823
87343W        W57224  40.440  32.001   4.734
87344W        W57225  41.481  38.540  14.885
87345W        W57226  12.359  21.214  11.892
87346W        W57227   6.245   4.415  12.867
87347W        W57228   0.962  44.846  12.066
87348W        W57229  41.353  41.494   3.316
87349W        W57230  39.541  32.962  14.276
87350W        W57231   7.273  10.810   2.399
87351W        W57232   2.921  38.061  11.535
87352W        W57233  36.511  40.820  11.474
87353W        W57234   2.416  33.902   4.237
87354W        W57235  24.534  24.191   3.647
87355W        W57236  34.090   5.885   2.749
87356W        W57237  37.872  18.221  11.519
87357W        W57238  10.637  43.384  12.567
87358W        W57239  44.438  30.447  14.881
87359W        W57240   4.731  40.385  13.853
87360W        W57241  21.667  32.977  12.823
87361W        W57242  17.098  30.936  10.895
87362W        W57243  33.454  32.579  12.994
87363W        W57244  24.483   2.371  11.553
87364W        W57245  16.215  18.200  14.343
87365W        W57246  15.254  16.635  12.497
87366W        W57247   6.755  39.938   3.648
87367W        W57248  19.124   0.486   1.708
87368W        W57249  30.104  26.078   1.748
87369W        W57250  37.919  11.743   3.765
87370W        W57251   6.315   0.982   2.788
87371W        W57252  28.554   0.478   2.703
87372W        W57253  30.541  39.054   4.818
87373W        W57254  27.656  16.251  12.981
87374W        W57255  33.389  42.497  13.522
87375W        W57256   6.910  42.435   4.666
87376W        W57257   2.745  10.181   0.753
87377W        W57258  33.923  26.033   3.737
87378W        W57259  16.217  12.268   1.757
87379W        W57260   9.324  41.293  11.884
87380W        W57261  11.195  37.370   2.311
87381W        W57262  37.422  42.891  10.085
87382W        W57263  32.471  35.869   0.925
87383W        W57264   7.834  26.569   3.262
87384W        W57265  18.234  35.371   3.213
87385W        W57266  20.185  23.185  11.579
87386W        W57267  11.137  33.448  13.890
87387W        W57268  20.570  41.526   2.892
87388W        W57269  37.063  29.951   1.883
87389W        W57270  37.001  29.000  10.523
87390W        W57271  13.347  40.809   2.295
87391W        W57272  41.997  43.001  12.975
87392W        W57273  42.372  17.194   4.232
87393W        W57274  32.547  13.664  12.424
87394W        W57275  44.863  24.106   2.332
87395W        W57276  26.610  26.997  13.439
87396W        W57277  12.619  35.977   0.295
87397W        W57278  33.929  14.808   1.821
87398W        W57279   4.297  26.136   3.247
87399W        W57280  23.163   7.707   4.119
87400W        W57281  27.096   2.441  13.482
87401W        W57282  18.764   2.903   2.730
87402W        W57283   4.276  17.196  12.957
87403W        W57284  25.068   9.664  13.503
87404W        W57285  29.128  23.188  12.360
87405W        W57286  17.574  11.835  14.864
87406W        W57287  38.454   0.251   2.351
87407W        W57288  19.545  37.555  10.974
87408W        W57289  28.074  18.170  12.496
87409W        W57290  33.489  41.374  14.983
87410W        W57291   8.277   8.368  14.404
87411W        W57292  32.016  35.429  14.516
87412W        W57293   2.414   6.304  13.887
87413W        W57294   5.856  30.643  10.639
87414W        W57295  34.555  27.488  13.027
87415W        W57296  35.020  29.080  14.772
87416W        W57297   6.315  26.175  14.468
87417W        W57298   0.946  34.527   5.221
87418W        W57299  15.239  16.261   2.272
87419W        W57300  35.393   4.699  11.606
87420W        W57301  24.489   1.744  14.303
87421W        W57302  42.899  30.462   3.321
87422W        W57303  30.932  27.150  13.482
87423W        W57304  21.247   4.925  11.077
87424W        W57305   2.338   2.960  11.455
87425W        W57306   4.270   5.240  13.916
87426W        W57307   2.722   0.925   1.210
87427W        W57308  33.019  38.927  13.051
87428W        W57309  38.360  37.934   0.733
87429W        W57310  15.089  12.266   0.877
87430W        W57311  32.956  11.737   0.310
87431W        W57312  20.524  29.935   2.888
87432W        W57313  10.190   6.325   3.234
87433W        W57314  12.737  24.158   0.844
87434W        W57315   5.211   0.338   3.781
87435W        W57316   8.322  28.164  13.037
87436W        W57317   2.886  28.146   1.414
87437W        W57318   3.732  26.022  14.472
87438W        W57319  44.366  12.756  10.955
87439W        W57320  33.955  12.181  13.995
87440W        W57321  12.337  30.558   4.657
87441W        W57322   6.907  32.402  10.455
87442W        W57323  36.419  32.485  13.503
87443W        W57324   8.402   7.337   2.828
87444W        W57325  35.395  27.091   1.218
87445W        W57326  28.946  24.612  11.505
87446W        W57327   1.785  33.887  13.329
87447W        W57328  39.385  37.942   3.153
87448W        W57329  20.666  23.992  13.333
87449W        W57330  18.102  27.161  13.846
87450W        W57331  24.561  21.623   1.329
87451W        W57332  37.050  18.666   1.715
87452W        W57333  39.411  31.557  14.324
87453W        W57334  37.495   8.274   3.849
87454W        W57335   9.647  26.498  10.099
87455W        W57336  27.512  19.543  12.060
87456W        W57337  32.496   9.267  13.863
87457W        W57338  23.199  26.185   2.403
87458W        W57339  40.826  44.802  12.367
87459W        W57340   2.309  13.138  10.988
87460W        W57341   4.810  10.844  11.461
87461W        W57342   1.267   8.219  14.352
87462W        W57343  18.769  41.003   0.478
87463W        W57344  40.507  23.092   2.345
87464W        W57345  14.128  15.325   0.864
87465W        W57346  30.969  28.960  13.496
87466W        W57347  26.044  14.108  11.490
87467W        W57348   7.887   5.411  11.380
87468W        W57349  43.015  39.891  13.013
87469W        W57350  29.085  27.615  13.904
87470W        W57351   4.787  23.023   4.263
87471W        W57352  26.117  11.155   3.369
87472W        W57353  35.428  31.068  10.422
87473W        W57354   6.293   9.801   0.794
87474W        W57355  15.600  19.589  12.972
87475W        W57356  26.494  34.980   0.282
87476W        W57357   1.459  17.272  11.425
87477W        W57358  44.319  35.528  13.888
87478W        W57359  41.837  28.468   1.353
87479W        W57360  40.885  16.124   0.366
87480W        W57361  12.145   9.316   3.183
87481W        W57362  44.769  27.195   4.330
87482W        W57363  15.324  31.581   0.297
87483W        W57364  24.185  19.260  14.956
87484W        W57365  11.647  30.553   3.676
87485W        W57366  13.764  34.987  12.889
87486W        W57367  10.721  22.532   2.396
87487W        W57368  43.943   2.836   3.273
87488W        W57369  32.534  12.641   2.388
87489W        W57370  11.253  41.323   2.348
87490W        W57371   0.318  24.489  13.049
87491W        W57372  16.207  24.220  10.496
87492W        W57373  13.684  23.089  11.591
87493W        W57374  20.768  33.612   4.265
87494W        W57375  13.220  24.175   2.853
87495W        W57376  26.203  31.479  11.594
87496W        W57377  25.661  36.021  14.924
87497W        W57378  40.997  43.293   1.361
87498W        W57379  33.071   5.804   4.277
87499W        W57380  27.685  12.118   3.282
87500W        W57381  31.569  42.992  12.856
87501W        W57382   6.904  44.356   2.685
87502W        W57383   6.190  16.093   3.708
87503W        W57384  37.411  31.018  11.017
87504W        W57385  39.038   1.797   5.237
87505W        W57386  20.158  20.163   1.293
87506W        W57387  30.015  29.969   3.360
87507W        W57388  14.833  24.091  10.548
87508W        W57389   4.802   1.778  13.807
87509W        W57390  30.600  34.017  12.996
87510W        W57391  15.674  21.655  13.386
87511W        W57392   6.387  43.796  11.090
87512W        W57393  17.264  34.451   5.101
87513W        W57394   7.209  29.090   4.345
87514W        W57395  27.163  43.922   1.838
87515W        W57396   3.239  35.536  13.354
87516W        W57397   7.873  21.635   1.419
87517W        W57398  13.135  18.696   4.275
87518W        W57399   5.822  24.026  12.452
87519W        W57400  13.218   6.193   4.195
87520W        W57401  18.545  12.321   2.249
87521W        W57402  27.072  13.688   1.909
87522W        W57403   9.231   4.313  13.912
87523W        W57404  23.072  28.462   0.803
87524W        W57405  30.617   3.825  11.612
87525W        W57406  41.384  30.529  14.343
87526W        W57407  11.373   3.891  12.420
87527W        W57408  15.173  14.642   4.615
87528W        W57409   9.197  13.182   2.801
87529W        W57410  43.510   0.899  11.068
87530W        W57411  38.845  30.144  12.931
87531W        W57412  30.525  14.595   2.693
87532W        W57413  44.899  24.531  10.430
87533W        W57414  15.091  10.698   2.689
87534W        W57415  28.961  31.401  14.888
87535W        W57416  28.551  28.138   3.820
87536W        W57417  18.599  13.164   3.163
87537W        W57418  15.308   7.390  12.397
87538W        W57419  28.616  34.902  11.112
87539W        W57420  14.801  12.345  13.310
87540W        W57421  21.606   8.694  10.433
87541W        W57422  28.092  33.970   4.712
87542W        W57423   3.849  18.135   3.155
87543W        W57424  32.966   6.815   3.331
87544W        W57425  25.032   9.332  14.859
87545W        W57426  20.599   5.439   1.216
87546W        W57427  12.660  41.385   1.855
87547W        W57428   3.734   7.322   0.442
87548W        W57429  29.142  37.891  11.481
87549W        W57430   9.723   7.415  14.840
87550W        W57431  44.492  29.162  10.957
87551W        W57432   7.870  29.164  11.972
87552W        W57433   5.835   7.830  13.885
87553W        W57434  20.731  43.845  14.310
87554W        W57435  10.731  19.772  13.488
87555W        W57436  13.645   5.343  11.515
87556W        W57437  42.907  40.908  12.476
87557W        W57438  26.630  10.156  12.927
87558W        W57439  22.216  11.638   2.349
87559W        W57440  13.611   3.926   3.147
87560W        W57441  15.240  43.887   3.245
87561W        W57442  13.296   3.360  12.878
87562W        W57443  28.141  19.075  14.825
87563W        W57444  32.053  38.426   3.202
87564W        W57445   2.265   7.838   0.782
87565W        W57446  23.552  22.703  12.936
87566W        W57447  21.212  16.156   0.298
87567W        W57448  20.752  44.002   5.278
87568W        W57449  20.723  37.083  11.981
87569W        W57450  16.103  12.143   2.188
87570W        W57451  35.385  30.070   3.789
87571W        W57452  30.053   4.295   3.359
87572W        W57453   0.381  25.049   0.813
87573W        W57454  37.419   6.811   0.423
87574W        W57455   5.217  44.003   0.276
87575W        W57456  22.114   8.360   0.455
87576W        W57457  12.254  23.206  10.541
87577W        W57458  24.083  15.673   3.234
87578W        W57459   8.335  43.330   3.863
87579W        W57460  16.714  38.029  13.823
87580W        W57461  12.223  39.824   0.398
87581W        W57462  24.055  16.660  12.578
87582W        W57463  12.831  10.187   2.676
87583W        W57464  12.724  37.867   2.895
87584W        W57465   6.721  16.082   1.392
87585W        W57466  14.178  22.550  10.951
87586W        W57467  22.235  25.707   2.811
87587W        W57468  38.934   8.380   3.647
87588W        W57469  24.654  32.139  13.890
87589W        W57470   6.397  27.179   4.277
87590W        W57471  15.719  40.901  11.464
87591W        W57472  21.086   1.257   0.729
87592W        W57473  41.872  27.649   2.374
87593W        W57474  34.511   0.480   1.263
87594W        W57475   9.361   3.814  14.854
87595W        W57476   4.698   5.219  12.347
87596W        W57477  36.905  36.378  12.381
87597W        W57478  44.957  25.685   2.198
87598W        W57479  28.679  25.563   4.722
87599W        W57480   9.215  23.693   2.753
87600W        W57481  29.459  20.225   0.251
87601W        W57482  36.959  15.315   4.167
87602W        W57483  23.058   6.346  12.836
87603W        W57484   2.856  23.600  12.077
87604W        W57485  21.245  19.540   3.846
87605W        W57486  14.152  19.679  13.824
87606W        W57487  27.485  12.846   0.917
87607W        W57488  16.805   4.213   3.870
87608W        W57489  30.528  21.178  11.401
87609W        W57490   6.899  34.037  10.991
87610W        W57491  44.863  15.744  13.963
87611W        W57492  20.230   1.784   4.147
87612W        W57493  21.082  24.693   5.237
87613W        W57494  22.513  27.659  11.407
87614W        W57495  18.744  39.379   1.777
87615W        W57496  25.151  25.691   0.749
87616W        W57497  16.118  43.888   3.764
87617W        W57498  29.942  13.171  14.514
87618W        W57499  39.832   9.356  11.439
87619W        W57500  33.079  15.637  11.545
87620W        W57501  28.040  23.134  10.947
87621W        W57502   3.318   2.271  11.886
87622W        W57503   4.362  35.590   1.786
87623W        W57504  29.036  17.626   0.901
87624W        W57505  29.012  31.127   3.333
87625W        W57506  29.480  42.318   1.724
87626W        W57507  24.603  41.432   2.306
87627W        W57508  37.351   1.301  11.475
87628W        W57509  33.471  44.497   2.205
87629W        W57510  16.775  24.646  14.510
87630W        W57511  37.429  36.459   3.866
87631W        W57512  40.316   6.288   4.238
87632W        W57513  36.936  22.619   0.369
87633W        W57514  44.010  36.441   3.797
87634W        W57515  10.174   1.894   1.806
87635W        W57516  35.071  10.313   4.689
87636W        W57517  31.929   9.348  11.437
87637W        W57518  33.497  29.056  12.579
87638W        W57519  27.471  17.629  14.452
87639W        W57520   5.909  18.204  14.339
87640W        W57521  18.653  11.169   2.236
87641W        W57522  15.651  42.915   0.251
87642W        W57523   9.795  19.687  11.510
87643W        W57524  31.930  41.994  11.432
87644W        W57525  17.563  12.651   0.729
87645W        W57526  39.064  19.723  13.059
87646W        W57527   3.280  22.231  14.836
87647W        W57528  20.101  38.383   1.427
87648W        W57529  27.550   1.463   4.795
87649W        W57530  28.672  29.633  11.933
87650W        W57531  21.511  14.097  13.512
87651W        W57532  18.053  21.170   0.255
87652W        W57533  20.696  12.278  10.897
87653W        W57534  42.853  40.006   2.391
87654W        W57535  21.208  15.241   2.879
87655W        W57536  19.051  35.364   4.788
87656W        W57537  17.151  31.642   3.710
87657W        W57538  23.626   1.788  11.587
87658W        W57539  40.807  35.441  13.383
87659W        W57540  25.059  27.062   4.281
87660W        W57541   4.317  29.636   0.858
87661W        W57542  43.995  20.034  13.827
87662W        W57543  28.489   0.440   4.163
87663W        W57544  33.018   6.235   4.295
87664W        W57545  37.832  20.693  12.823
87665W        W57546  42.505  24.996   4.124
87666W        W57547  42.817  28.026  14.005
87667W        W57548  21.518   8.757   3.201
87668W        W57549   0.364  44.959  13.487
87669W        W57550  26.099  27.095  10.920
87670W        W57551  37.986   4.425   2.363
87671W        W57552  18.702  17.232   3.655
87672W        W57553  27.002   4.783   0.349
87673W        W57554  38.467  26.679  14.777
87674W        W57555  13.227  19.042  13.036
87675W        W57556   4.418  29.510  14.490
87676W        W57557  23.234  17.245  10.481
87677W        W57558  30.991  40.424  12.519
87678W        W57559  42.466  40.029  12.388
87679W        W57560  40.822  32.941   1.703
87680W        W57561  41.996  11.648  12.082
87681W        W57562   1.474  30.045  11.870
87682W        W57563  11.864  22.137  12.945
87683W        W57564  22.145  11.272   1.332
87684W        W57565   9.348  32.402  13.471
87685W        W57566  13.797  24.997  12.483
87686W        W57567  33.894  10.794   0.463
87687W        W57568   0.885  12.697   0.447
87688W        W57569  19.705   8.693   3.181
87689W        W57570  13.689  19.557  12.573
87690W        W57571  35.034  13.174   0.301
87691W        W57572  35.436   2.913   1.749
87692W        W57573  20.577  32.123  10.614
87693W        W57574   8.389   3.261   1.785
87694W        W57575   1.341  30.438  14.466
87695W        W57576  33.469   6.818  10.969
87696W        W57577  41.358  36.922   1.284
87697W        W57578  10.668  29.010  14.894
87698W        W57579   2.367   4.711  14.808
87699W        W57580  25.573  27.969  10.953
87700W        W57581  26.074  27.565   0.303
87701W        W57582  36.031  18.180   3.276
87702W        W57583   1.803  14.808   1.299
87703W        W57584  41.799  14.628  12.947
87704W        W57585  22.656  32.392  10.142
87705W        W57586   3.314  16.232   2.674
87706W        W57587  26.665   3.762   4.240
87707W        W57588  21.130  44.452   2.237
87708W        W57589  34.431   8.881   2.283
87709W        W57590  13.688  34.590   1.784
87710W        W57591  10.302   4.744  13.488
87711W        W57592  44.383  36.062   4.245
87712W        W57593  18.617   7.413  13.854
87713W        W57594   7.699  13.826   0.835
87714W        W57595  29.163  33.482   1.271
87715W        W57596  13.729  35.919  11.047
87716W        W57597  45.000  37.419  10.953
87717W        W57598   4.904  43.975  14.503
87718W        W57599  42.457   0.844   3.305
87719W        W57600  18.132   4.372   1.304
87720W        W57601  40.501  16.164  14.404
87721W        W57602  44.860   4.744   2.298
87722W        W57603  36.411  19.190  14.927
87723W        W57604  14.717   5.330   1.410
87724W        W57605  28.463   5.772   3.224
87725W        W57606  33.517  22.065  14.507
87726W        W57607  30.978   8.328  10.476
87727W        W57608  26.605  41.330   1.431
87728W        W57609  35.529  10.345   1.352
87729W        W57610   8.657  29.446  14.401
87730W        W57611  21.263  24.979   0.884
87731W        W57612  35.935   8.754  12.482
87732W        W57613  35.986   2.279   1.734
87733W        W57614  15.279  34.019  13.520
87734W        W57615  16.075  32.398  12.880
87735W        W57616  16.291  10.714   0.928
87736W        W57617   1.476  13.610   2.258
87737W        W57618  12.700  34.061  13.035
87738W        W57619  43.447  21.692   1.303
87739W        W57620  25.081  39.366   4.805
87740W        W57621   2.784  37.915   4.641
87741W        W57622   9.643  44.325   0.802
87742W        W57623  29.939  41.893  11.963
87743W        W57624  29.117  42.309  12.074
87744W        W57625  27.124  21.154  12.575
87745W        W57626  38.853  31.636   1.717
87746W        W57627  42.937  30.510   1.330
87747W        W57628  43.972  14.321  11.048
87748W        W57629  14.320  18.258  12.520
87749W        W57630  14.268  28.580   2.213
87750W        W57631  36.879   1.292   0.915
87751W        W57632  38.333  20.236  11.486
87752W        W57633  33.050  26.676  13.380
87753W        W57634  18.054   0.379  12.546
87754W        W57635  35.855  37.980   1.233
87755W        W57636  24.595   5.300   3.356
87756W        W57637  12.189   8.890  12.885
87757W        W57638  26.991  27.547   2.414
87758W        W57639  33.565  42.505  14.464
87759W        W57640   8.200  33.968  12.025
87760W        W57641  43.346   0.825   1.875
87761W        W57642  19.176  10.160   3.312
87762W        W57643  43.402  13.277  12.423
87763W        W57644  32.048  36.532   2.740
87764W        W57645   2.261  44.334  14.300
87765W        W57646  17.223  31.031   4.645
87766W        W57647  34.982  16.216   1.896
87767W        W57648  31.463  31.020   1.849
87768W        W57649  30.577  11.217   1.275
87769W        W57650  33.084   3.326  13.540
87770W        W57651  13.226  12.750  10.524
87771W        W57652  32.538   0.891  13.019
87772W        W57653  36.988  35.426   4.197
87773W        W57654  18.133  21.666   1.400
87774W        W57655  21.721   0.748  10.899
87775W        W57656   6.250  32.619  13.933
87776W        W57657   9.835   2.264   4.633
87777W        W57658  39.342  12.729  14.876
87778W        W57659  17.676   9.366  14.304
87779W        W57660  25.054  36.513   1.933
87780W        W57661  22.714  28.483   4.200
87781W        W57662  23.511  41.043  11.559
87782W        W57663  22.147  40.336  10.524
87783W        W57664  36.490  25.552   0.285
87784W        W57665  33.441  39.461  13.368
87785W        W57666  40.322  10.248   4.334
87786W        W57667  19.630   5.395   1.751
87787W        W57668  12.690   3.827   2.181
87788W        W57669  39.558  17.265   9.985
87789W        W57670  29.017  38.884  11.085
87790W        W57671   7.790  15.085  10.979
87791W        W57672  44.262  28.540   1.896
87792W        W57673  30.149   1.950  14.382
87793W        W57674  10.320   3.454  11.448
87794W        W57675  17.133   7.347   0.931
87795W        W57676   6.402  33.520  13.448
87796W        W57677  33.501  14.623  13.333
87797W        W57678   2.325  38.462   3.285
87798W        W57679   6.390   0.450   3.738
87799W        W57680   9.759  24.130   3.662
87800W        W57681  38.021   3.913  13.519
87801W        W57682   4.412  44.497  14.439
87802W        W57683  24.103  15.604  10.607
87803W        W57684  33.594   5.853  10.527
87804W        W57685  19.695  16.198   0.260
87805W        W57686   4.867  38.949   4.244
87806W        W57687  16.204  38.379  12.936
87807W        W57688  18.581  44.002  11.875
87808W        W57689  10.324  17.173  11.402
87809W        W57690   6.730  28.109  13.385
87810W        W57691  35.964   6.781  10.541
87811W        W57692   4.739  43.271  13.345
87812W        W57693  23.117  41.483   4.283
87813W        W57694  17.667  24.494   2.710
87814W        W57695  35.869  34.975  14.412
87815W        W57696   0.829   6.208   4.140
87816W        W57697   5.840  11.291   3.313
87817W        W57698  16.648  29.134   0.785
87818W        W57699  20.204  26.505   3.664
87819W        W57700  19.650  44.497  13.366
87820W        W57701  30.935  14.302  11.029
87821W        W57702  26.020  14.136   3.212
87822W        W57703   2.950  22.097  11.450
87823W        W57704  19.185  27.035   3.190
87824W        W57705   0.924  10.824   2.773
87825W        W57706  38.952  12.321  11.892
87826W        W57707  36.095   2.409   3.272
87827W        W57708  29.100  17.089   3.691
87828W        W57709   9.157   5.910   1.345
87829W        W57710  26.123  27.629  10.476
87830W        W57711   7.767   8.783   2.356
87831W        W57712  24.980  27.072   3.379
87832W        W57713  31.929  22.013   2.376
87833W        W57714  26.574   8.663   2.327
87834W        W57715  12.286  31.519  11.466
87835W        W57716  28.502  36.561   2.711
87836W        W57717  40.848  14.607   4.835
87837W        W57718  25.114  43.902   4.719
87838W        W57719  36.989  19.196  14.414
87839W        W57720  34.950  17.690   3.255
87840W        W57721  15.676  22.637  14.395
87841W        W57722   7.841  43.379   2.197
87842W        W57723  37.344  27.581   2.366
87843W        W57724  13.172  22.572  10.154
87844W        W57725  28.933  24.490   4.703
87845W        W57726  28.012  19.585  12.894
87846W        W57727  29.000  25.701  12.013
87847W        W57728  26.037  35.070  13.997
87848W        W57729  18.545   8.210  11.940
87849W        W57730  14.621   7.788  11.377
87850W        W57731   0.339  39.964   0.879
87851W        W57732  42.385  12.796  10.541
87852W        W57733   6.220  19.534   5.281
87853W        W57734  25.009  37.346   4.636
87854W        W57735   8.270  28.068   4.131
87855W        W57736  43.463  38.887  11.086
87856W        W57737   6.783  31.557   1.864
87857W        W57738   9.308  14.145  13.017
87858W        W57739  19.626  22.596  14.790
87859W        W57740  36.357  26.531  11.587
87860W        W57741   0.969  39.859   0.471
87861W        W57742  11.358  31.063   4.607
87862W        W57743  29.103  16.145   2.869
87863W        W57744  11.831  29.144   3.823
87864W        W57745  34.514   1.923   0.937
87865W        W57746  18.710  27.152  10.961
87866W        W57747  40.875  28.615  12.566
87867W        W57748  33.564  40.438  14.019
87868W        W57749  19.283  35.963  12.555
87869W        W57750   3.764  16.214   0.846
87870W        W57751  41.527   0.938   0.388
87871W        W57752   2.883  28.071   4.269
87872W        W57753   7.352   4.403  11.587
87873W        W57754  42.971   0.745   5.248
87874W        W57755  20.636  14.326  11.092
87875W        W57756  35.541   0.449   2.259
87876W        W57757  20.074  15.705   0.854
87877W        W57758  15.734   4.441  14.371
87878W        W57759  44.917  37.383  11.530
87879W        W57760  13.231  44.968  11.411
87880W        W57761  18.172  35.030   3.840
87881W        W57762  20.711  32.033  12.034
87882W        W57763   7.263  13.710  10.505
87883W        W57764   9.313   4.936   2.312
87884W        W57765  43.471  19.619   5.143
87885W        W57766  23.715  38.029  13.490
87886W        W57767  22.693   3.748  10.915
87887W        W57768  44.922   9.690   3.211
87888W        W57769  38.461  33.022  12.541
87889W        W57770  11.680  30.973   5.211
87890W        W57771  41.003   6.796   2.369
87891W        W57772  11.206  32.551  12.965
87892W        W57773  13.334   4.419  12.006
87893W        W57774   4.399  25.082  12.384
87894W        W57775  10.299  37.942   1.227
87895W        W57776  26.122  26.099  11.892
87896W        W57777  27.542  11.865   1.820
87897W        W57778  35.955  18.153  11.087
87898W        W57779  21.064   0.292   4.303
87899W        W57780  21.246  40.982  13.928
87900W        W57781   5.410  17.681  13.505
87901W        W57782  37.923  32.012  10.893
87902W        W57783   1.857  19.678  13.318
87903W        W57784  35.396   5.359   1.417
87904W        W57785  20.636  30.972   0.757
87905W        W57786  33.623  32.441  14.444
87906W        W57787  33.386  35.439  12.869
87907W        W57788  31.615  28.484   1.273
87908W        W57789  24.521  17.277   1.828
87909W        W57790  27.105  37.086  13.063
87910W        W57791  35.456  19.552  14.805
87911W        W57792  13.221   1.284  10.475
87912W        W57793  35.947  14.723  10.599
87913W        W57794  20.573  19.722  13.885
87914W        W57795  28.932  44.342  13.862
87915W        W57796  22.717   3.866  13.919
87916W        W57797  18.055   7.208  10.512
87917W        W57798   0.260  20.736  11.869
87918W        W57799  36.493  28.668  11.100
87919W        W57800  18.212   4.232  12.065
87920W        W57801   5.316  43.465   2.847
87921W        W57802  17.674  16.164  13.946
87922W        W57803  38.916  18.618  11.539
87923W        W57804  10.846   6.676  12.386
87924W        W57805  29.439   7.216  12.002
87925W        W57806  21.070   7.178  12.518
87926W        W57807   9.765  24.666  12.489
87927W        W57808  28.636  34.531   3.642
87928W        W57809  26.960  44.796   2.211
87929W        W57810  43.470   7.254  12.484
87930W        W57811  44.329  21.613   4.602
87931W        W57812  16.811  28.972  11.005
87932W        W57813  26.558  33.917   3.342
87933W        W57814   2.823  39.046   0.825
87934W        W57815  19.210  28.478  14.800
87935W        W57816  36.964  33.008  14.889
87936W        W57817   3.386  40.398   0.383
87937W        W57818  34.033  42.874   1.932
87938W        W57819   7.217  35.993  11.066
87939W        W57820  23.718  10.377  13.910
87940W        W57821   6.729  29.167  14.419
87941W        W57822  12.836   5.774  13.823
87942W        W57823  38.931  15.811  10.922
87943W        W57824  19.060  43.433   1.729
87944W        W57825  22.217  38.453   3.228
87945W        W57826  32.028   0.810  14.311
87946W        W57827  33.950  14.252   1.812
87947W        W57828  44.945   4.313  13.805
87948W        W57829   2.370  40.349  14.801
87949W        W57830  24.610  35.446   0.884
87950W        W57831  38.054  28.152  13.009
87951W        W57832   2.920  16.670   1.814
87952W        W57833  36.391  44.458   4.792
87953W        W57834  44.871  37.086   2.750
87954W        W57835  31.643  26.018  10.546
87955W        W57836  11.759  19.220  12.825
87956W        W57837  35.421   9.177   3.719
87957W        W57838  26.159   0.917  13.396
87958W        W57839   7.877  22.557   5.299
87959W        W57840   4.783  11.195  14.335
87960W        W57841  15.580  39.058  12.968
87961W        W57842  26.104  11.647   2.406
87962W        W57843  39.055   9.688  12.090
87963W        W57844  39.984  36.081   0.413
87964W        W57845  37.026  40.451   1.247
87965W        W57846  29.934  31.611   4.751
87966W        W57847   8.303  39.892   3.322
87967W        W57848  34.411  28.067   3.713
87968W        W57849  25.149  13.667   2.823
87969W        W57850  22.072  25.500   0.845
87970W        W57851  16.566  23.106  14.432
87971W        W57852  22.232  33.012  11.482
87972W        W57853   9.751  32.440   2.271
87973W        W57854   1.812  20.712  13.950
87974W        W57855  10.145   1.810  12.429
87975W        W57856  29.099  24.036   3.692
87976W        W57857  35.395  16.284   0.321
87977W        W57858   4.279  12.823   3.849
87978W        W57859  23.710  43.514  13.818
87979W        W57860  38.819   4.912   2.377
87980W        W57861   0.829  43.472  14.383
87981W        W57862  39.036  27.139  12.825
87982W        W57863  18.703  28.130   1.393
87983W        W57864  37.461  30.620  10.429
87984W        W57865  12.267   5.864  10.903
87985W        W57866  30.413  34.038   3.843
87986W        W57867  13.192  38.826  10.068
87987W        W57868  28.580   0.963   4.642
87988W        W57869  23.112  25.537   4.206
87989W        W57870   3.332   5.793   1.821
87990W        W57871  40.491  19.190  11.998
87991W        W57872  25.064  16.762   2.811
87992W        W57873  41.014  34.460   3.361
87993W        W57874  28.642  19.241   2.898
87994W        W57875  34.591  30.651   3.215
87995W        W57876  42.438  14.628  11.444
87996W        W57877  12.323  22.174   4.736
87997W        W57878  38.367  44.877   3.839
87998W        W57879  29.091  12.216  14.844
87999W        W57880  20.601  13.223   4.661
88000W        W57881  22.724   6.851  13.926
88001W        W57882  16.611  43.906  11.479
88002W        W57883   3.298  27.159  14.908
88003W        W57884  23.541  29.638  13.497
88004W        W57885  39.467  31.437   1.845
88005W        W57886  41.901  29.635   0.855
88006W        W57887  15.619  26.533   5.226
88007W        W57888  42.375  32.460   1.875
88008W        W57889   6.313  29.427   1.772
88009W        W57890  42.898  43.432   4.627
88010W        W57891  36.581   3.731   1.271
88011W        W57892  31.077  43.973   2.395
88012W        W57893  32.500  30.976  10.549
88013W        W57894  20.226  44.953   3.779
88014W        W57895  11.729  29.035  14.373
88015W        W57896  23.719  26.605   4.177
88016W        W57897  22.096  34.105  13.423
88017W        W57898  26.195   8.814  13.811
88018W        W57899  16.143  22.060   1.765
88019W        W57900  31.557  18.230  12.842
88020W        W57901   9.250  23.698   3.183
88021W        W57902  28.979  19.074   4.797
88022W        W57903  36.483  21.606   1.698
88023W        W57904  25.072   9.333   4.280
88024W        W57905   8.296   3.287   2.863
88025W        W57906  25.079  38.533   1.420
88026W        W57907   0.351  35.095   1.710
88027W        W57908  30.080  41.939  12.361
88028W        W57909   4.348   7.812   4.345
88029W        W57910  42.424   7.690  12.356
88030W        W57911  43.867  20.688   4.663
88031W        W57912  22.539  10.684   1.889
88032W        W57913  28.181  34.384   4.118
88033W        W57914   1.287  37.490   3.147
88034W        W57915  37.904  13.634  13.063
88035W        W57916  27.615  11.657  12.364
88036W        W57917  20.144  43.506   2.331
88037W        W57918  14.294  43.465   3.685
88038W        W57919   2.294  34.116   2.676
88039W        W57920  31.443  18.712   0.732
88040W        W57921  40.337  37.937  14.310
88041W        W57922  25.055  10.381   2.284
88042W        W57923  42.781  23.118  10.929
88043W        W57924  35.042  23.143  12.553
88044W        W57925  39.981  34.910  13.474
88045W        W57926  17.557  24.600  12.844
88046W        W57927   4.896  28.999   3.369
88047W        W57928  33.952  44.920  12.493
88048W        W57929   6.918  37.850   4.819
88049W        W57930  23.705  41.883  12.832
88050W        W57931  22.522  15.767  11.857
88051W        W57932  13.209   5.863   0.816
88052W        W57933  44.406   9.717   0.288
88053W        W57934  12.344   6.369   3.300
88054W        W57935  19.554  10.782  14.382
88055W        W57936  37.937  11.216  12.044
88056W        W57937  15.732   6.383  14.419
88057W        W57938  14.235  19.748  11.116
88058W        W57939  23.635   9.855  12.423
88059W        W57940  43.767  30.990  12.990
88060W        W57941  23.003   6.899  14.293
88061W        W57942  16.628  14.236   4.179
88062W        W57943  29.168  37.889  14.981
88063W        W57944  35.006   4.413  11.959
88064W        W57945  14.108  18.644   1.341
88065W        W57946  18.555  40.986   4.217
88066W        W57947  16.764   6.248   0.827
88067W        W57948  44.346  14.262   0.928
88068W        W57949  16.738  42.299  12.343
88069W        W57950  38.824   2.757  11.898
88070W        W57951  23.208  36.034  13.322
88071W        W57952  16.217  18.588   1.229
88072W        W57953  18.788  27.565  12.962
88073W        W57954  18.262  28.614   9.950
88074W        W57955  43.766   1.336   0.419
88075W        W57956  31.621   3.244   2.791
88076W        W57957  44.832   3.906  12.943
88077W        W57958  14.632  10.383   3.307
88078W        W57959  41.887  11.747   4.658
88079W        W57960  33.100  44.774   4.139
88080W        W57961   5.762  37.522  12.458
88081W        W57962   8.356  15.295   0.806
88082W        W57963  37.562  22.137   2.274
88083W        W57964  34.968  25.539  14.775
88084W        W57965  12.768  13.620   4.696
88085W        W57966  10.758  34.498   3.837
88086W        W57967  21.108   9.303  11.012
88087W        W57968   0.767   4.297   4.282
88088W        W57969  43.021  14.616  11.449
88089W        W57970   8.273  15.594   1.840
88090W        W57971  30.454   3.341   4.751
88091W        W57972  18.643  11.234   0.403
88092W        W57973  32.628  27.689  11.981
88093W        W57974  43.801  20.260   0.397
88094W        W57975  11.796  40.799   3.697
88095W        W57976  33.096  18.269  12.916
88096W        W57977  38.960  13.259  11.872
88097W        W57978  11.697  27.595  11.122
88098W        W57979  13.292  42.451   2.877
88099W        W57980   1.750  16.604  13.830
88100W        W57981   6.416  31.010   0.727
88101W        W57982  25.620  19.656   0.737
88102W        W57983   3.726   3.352   4.606
88103W        W57984   4.364  43.349  14.800
88104W        W57985  42.865  18.080  10.020
88105W        W57986  19.052  16.700  14.956
88106W        W57987  10.637  23.109   4.119
88107W        W57988  24.675  36.086   0.392
88108W        W57989  25.128  41.453  11.966
88109W        W57990  37.495   7.790   3.252
88110W        W57991  30.080  16.637   0.418
88111W        W57992  42.427  17.153  10.414
88112W        W57993   4.403  43.501   0.368
88113W        W57994  15.129  44.347   3.241
88114W        W57995  18.273   6.876   2.874
88115W        W57996  15.679  11.726  10.952
88116W        W57997  22.534   4.377   3.751
88117W        W57998  38.979  20.138   0.912
88118W        W57999  31.482  13.619   2.244
88119W        W58000  22.615  23.680   1.731
88120W        W58001  30.496  20.713  14.418
88121W        W58002  32.570  15.216   0.351
88122W        W58003  39.415  32.476  13.003
88123W        W58004  17.222  30.150  13.450
88124W        W58005   3.755  14.674  11.406
88125W        W58006  20.646  38.898   3.262
88126W        W58007  25.981  19.779  13.517
88127W        W58008  13.310  35.952   3.217
88128W        W58009  23.631  17.681  11.086
88129W        W58010   5.746  14.771  12.354
88130W        W58011  23.171   0.271   1.332
88131W        W58012   1.807  38.025   2.326
88132W        W58013  23.134  29.649   2.305
88133W        W58014   3.925   7.415   2.300
88134W        W58015  27.113  22.046   0.754
88135W        W58016  35.405   4.303  14.487
88136W        W58017  41.472  25.712   3.853
88137W        W58018  40.891  19.120  11.060
88138W        W58019  19.544   9.694   3.326
88139W        W58020  20.072   5.761  14.433
88140W        W58021   5.726  10.676  11.506
88141W        W58022   4.317  13.178  12.349
88142W        W58023  40.876  27.194  12.888
88143W        W58024  37.424  25.542  11.414
88144W        W58025   3.334   9.392  14.475
88145W        W58026  17.248  43.799  12.473
88146W        W58027  13.681  39.366  11.967
88147W        W58028   5.374  21.751  14.820
88148W        W58029  42.455   7.335   1.783
88149W        W58030  17.306  23.710   2.674
88150W        W58031  25.480  16.655  13.855
88151W        W58032  11.753  20.211   4.179
88152W        W58033  28.100  25.028  14.367
88153W        W58034  11.770   9.727   2.704
88154W        W58035   2.419   8.846  10.490
88155W        W58036  11.297  24.496  13.866
88156W        W58037  13.232   9.206   3.169
88157W        W58038   0.283  40.459   0.438
88158W        W58039   3.396  33.120   3.199
88159W        W58040  13.701  32.906  10.500
88160W        W58041  17.578  29.022  13.542
88161W        W58042   5.304  37.853   4.291
88162W        W58043  24.640  21.213   2.725
88163W        W58044  34.547  26.184   0.447
88164W        W58045  36.990  42.922  13.025
88165W        W58046   8.301   9.836  10.404
88166W        W58047  26.128  41.404   3.811
88167W        W58048  18.637  20.248  13.820
88168W        W58049  20.110  13.631  14.930
88169W        W58050  17.264  23.532   4.342
88170W        W58051   3.901  12.675  13.513
88171W        W58052   3.731  16.773  12.454
88172W        W58053   6.195  41.879  12.983
88173W        W58054  36.047  43.499  13.467
88174W        W58055   6.285  38.043   1.875
88175W        W58056   2.290  44.854  12.417
88176W        W58057   4.945  22.070  13.322
88177W        W58058  36.962  40.892  11.034
88178W        W58059  37.564  14.126  14.404
88179W        W58060  26.117  23.515   5.167
88180W        W58061   0.847  24.665  12.542
88181W        W58062   0.866  40.305   4.652
88182W        W58063  31.520  28.955  12.092
88183W        W58064  30.014  44.945  14.503
88184W        W58065  31.611  12.308  11.955
88185W        W58066  30.554  11.334   4.204
88186W        W58067  23.517  28.111  14.454
88187W        W58068  37.530  18.594   0.738
88188W        W58069  17.273  44.264   1.925
88189W        W58070  25.054  29.080  10.142
88190W        W58071  31.982  40.029  13.355
88191W        W58072  39.997  13.779  12.932
88192W        W58073  39.866  15.286  13.980
88193W        W58074  39.555  35.486  10.994
88194W        W58075  31.456  24.603   3.159
88195W        W58076  42.919   2.753  13.065
88196W        W58077  33.507  37.391   3.309
88197W        W58078  18.204  18.295  13.840
88198W        W58079  35.049   8.888  14.333
88199W        W58080  44.783  36.010  14.384
88200W        W58081  38.867   8.846  10.414
88201W        W58082  27.637  35.979   2.228
88202W        W58083  38.014  42.934  11.475
88203W        W58084  44.911  38.990  11.469
88204W        W58085  38.939  43.299   4.791
88205W        W58086  20.246   7.851  13.421
88206W        W58087  43.792  44.840  10.625
88207W        W58088  25.549  32.892  11.105
88208W        W58089  40.821   6.820  12.530
88209W        W58090   4.807  13.636   0.388
88210W        W58091  40.391  24.674  13.839
88211W        W58092  18.604   1.293  10.453
88212W        W58093  32.942  42.811   1.340
88213W        W58094  13.721   7.203  14.323
88214W        W58095   7.712  14.262  14.315
88215W        W58096  29.638  28.496  10.493
88216W        W58097  38.919  34.967  13.797
88217W        W58098   6.753  29.120   0.865
88218W        W58099  14.105  36.534   1.915
88219W        W58100  13.662  32.488  10.513
88220W        W58101  42.508   3.225  11.438
88221W        W58102   7.703   1.900  10.481
88222W        W58103  39.350  41.339  11.971
88223W        W58104   7.344   8.341   2.256
88224W        W58105  27.507  37.837  10.600
88225W        W58106   4.352  36.369   0.901
88226W        W58107  11.213   2.876   3.278
88227W        W58108  29.166   8.697  10.916
88228W        W58109   3.765  25.670  13.996
88229W        W58110  26.100  11.250   1.865
88230W        W58111  28.667  40.019  14.442
88231W        W58112  13.601  24.598  10.492
88232W        W58113  16.728  42.410  14.935
88233W        W58114  27.000  22.692   2.229
88234W        W58115  13.127  42.455  14.859
88235W        W58116  21.125   9.758  11.501
88236W        W58117  15.142   8.705  14.407
88237W        W58118  19.159  22.016   2.276
88238W        W58119  32.433  41.424  10.452
88239W        W58120  10.234  41.808   2.728
88240W        W58121  13.722  27.965  10.562
88241W        W58122   2.360   3.405   0.294
88242W        W58123  40.987  14.277   0.397
88243W        W58124  34.910  29.589  10.010
88244W        W58125  38.510  26.011   0.912
88245W        W58126   0.958  30.444  10.911
88246W        W58127  31.606  38.553   4.231
88247W        W58128   4.769   3.805  14.487
88248W        W58129  19.670  30.430   0.770
88249W        W58130  14.668  34.530  10.441
88250W        W58131  28.039  33.901  12.455
88251W        W58132  23.004  10.358   3.767
88252W        W58133  22.689   0.447   4.352
88253W        W58134   1.407  33.539   4.645
88254W        W58135   8.707  44.914  14.442
88255W        W58136  22.628   2.913  14.838
88256W        W58137  21.178   5.876  12.049
88257W        W58138   0.386  14.218  13.859
88258W        W58139   6.811  39.834   3.371
88259W        W58140  13.135  40.886   3.686
88260W        W58141  26.549  37.028   1.821
88261W        W58142  23.082  38.912  10.543
88262W        W58143  17.280  22.647  11.955
88263W        W58144  10.763   3.737  14.465
88264W        W58145  41.536   3.710  10.464
88265W        W58146  13.239   5.323   4.732
88266W        W58147  40.011  18.673   4.697
88267W        W58148  21.616  34.106   4.164
88268W        W58149  20.638  21.623   4.271
88269W        W58150   8.796  16.690  11.951
88270W        W58151  27.057  36.858  13.446
88271W        W58152  19.693  12.840  13.383
88272W        W58153  33.523  41.474  13.027
88273W        W58154  22.635  21.713  10.406
88274W        W58155  21.628  23.148  13.030
88275W        W58156  36.908  13.146  13.345
88276W        W58157   7.347   5.853   2.862
88277W        W58158  42.779  38.052   1.431
88278W        W58159  27.085   1.806  11.515
88279W        W58160  19.686  42.843  10.448
88280W        W58161  36.891   6.262   0.836
88281W        W58162  39.026  44.489   3.311
88282W        W58163  14.098  20.756   2.837
88283W        W58164  28.443   7.226  10.005
88284W        W58165   9.728  34.041   3.816
88285W        W58166  21.570  40.829   4.700
88286W        W58167  23.103  30.588   0.434
88287W        W58168  31.977  27.612  13.367
88288W        W58169  37.502  43.002  11.012
88289W        W58170  33.612  28.142   0.333
88290W        W58171   9.190  20.622   1.746
88291W        W58172  22.590   6.202  13.454
88292W        W58173   3.309  14.117  10.432
88293W        W58174  10.378  10.188  12.444
88294W        W58175  25.110  23.160  13.500
88295W        W58176  18.751  32.487  12.885
88296W        W58177   6.794  39.506   4.801
88297W        W58178  35.017  38.940   0.447
88298W        W58179  13.172  38.857   1.698
88299W        W58180  17.135  44.996   0.390
88300W        W58181  42.984  30.634  12.489
88301W        W58182  16.580  35.964  10.625
88302W        W58183  28.031  17.149  11.865
88303W        W58184  43.441  38.334  12.892
88304W        W58185  41.439  35.409   0.433
88305W        W58186  10.658  25.071   4.184
88306W        W58187  41.477  32.023  14.839
88307W        W58188  25.506   6.859  10.562
88308W        W58189  16.150  32.098   0.826
88309W        W58190  11.723  41.442  13.877
88310W        W58191  33.896  40.889   0.899
88311W        W58192  11.263  10.866  12.971
88312W        W58193  16.636  44.999   4.661
88313W        W58194  19.211   2.429  12.039
88314W        W58195  37.977  33.886   1.812
88315W        W58196  30.918  38.955   0.830
88316W        W58197   5.833  36.464  13.856
88317W        W58198  21.600  19.605  11.534
88318W        W58199  12.630  39.977  12.415
88319W        W58200  24.722  19.769   1.341
88320W        W58201  30.956  39.952  12.479
88321W        W58202   0.290  24.659   1.373
88322W        W58203  34.511  10.815  12.828
88323W        W58204  42.853  41.980  13.536
88324W        W58205   9.800  40.367   3.644
88325W        W58206  15.697   9.731   2.201
88326W        W58207  32.950  37.521   2.693
88327W        W58208  34.502   1.381   0.375
88328W        W58209   5.340  16.657   2.342
88329W        W58210  17.284   0.397   0.738
88330W        W58211  11.196  24.544   1.437
88331W        W58212   0.326  38.542   2.415
88332W        W58213  16.105  24.593  10.415
88333W        W58214  23.073  38.926   4.174
88334W        W58215  28.516  13.819  14.381
88335W        W58216  13.334  42.315   3.790
88336W        W58217  17.196  38.886   5.181
88337W        W58218  18.701  23.545   3.755
88338W        W58219  25.020  37.340  12.059
88339W        W58220  12.122  12.772   3.758
88340W        W58221  26.164  29.572   0.752
88341W        W58222  25.076  33.393   0.897
88342W        W58223  25.088  17.587  12.578
88343W        W58224  37.898  13.107   0.935
88344W        W58225  29.025  37.429  10.555
88345W        W58226  32.552   5.355   3.792
88346W        W58227  36.410  34.564   3.213
88347W        W58228  38.438  23.507   3.661
88348W        W58229  28.507  11.764   1.788
88349W        W58230  34.521  17.582   3.228
88350W        W58231   8.858  10.879  13.464
88351W        W58232   4.235  27.103  10.961
88352W        W58233  24.695  36.440  14.480
88353W        W58234  42.427  36.573   0.412
88354W        W58235  34.902  10.715  11.041
88355W        W58236  30.474  34.966   4.672
88356W        W58237  43.929  25.977   0.435
88357W        W58238  29.151  30.460  11.536
88358W        W58239  38.567  30.643   0.815
88359W        W58240  14.742  39.425   5.796
88360W        W58241  33.420   6.297   0.753
88361W        W58242  16.734   1.908  12.964
88362W        W58243  35.464  31.960   0.292
88363W        W58244  29.479  15.216   0.262
88364W        W58245  40.304  41.432   0.798
88365W        W58246  44.454   0.959   1.864
88366W        W58247  27.948  13.351  13.825
88367W        W58248  39.834  16.162  11.102
88368W        W58249  38.015   5.275  12.921
88369W        W58250  23.566  30.532   0.792
88370W        W58251  41.941  27.609  11.607
88371W        W58252  29.586  29.622   1.935
88372W        W58253  31.437  34.090  13.799
88373W        W58254  31.413  18.670   5.721
88374W        W58255  19.706  26.023   1.401
88375W        W58256   6.196  30.105   3.823
88376W        W58257  38.985  15.758  14.329
88377W        W58258  42.842  41.996  10.639
88378W        W58259  24.606  42.523   3.283
88379W        W58260   3.237  43.329  10.574
88380W        W58261  23.726  21.141   2.293
88381W        W58262  18.688  17.743  11.397
88382W        W58263  26.021  41.890  12.402
88383W        W58264  20.068   2.239   0.338
88384W        W58265   3.375   4.823  10.624
88385W        W58266  36.070  36.373  12.066
88386W        W58267  35.967  38.865  13.339
88387W        W58268   8.404  16.212   4.824
88388W        W58269  44.433  19.713  10.628
88389W        W58270  21.592  41.870  11.539
88390W        W58271  42.436  27.466   4.600
88391W        W58272  15.318  18.687  13.440
88392W        W58273  26.159  21.719   0.458
88393W        W58274  44.403  27.062   2.359
88394W        W58275  30.130  18.704  12.023
88395W        W58276  11.767  11.342   0.271
88396W        W58277  44.458  26.206  13.506
88397W        W58278  12.664  40.341  14.500
88398W        W58279   9.651   7.342   3.853
88399W        W58280   6.272   1.307  14.807
88400W        W58281  15.638  16.672  11.969
88401W        W58282  17.185  41.295   1.867
88402W        W58283  27.640  15.798  11.606
88403W        W58284  16.221  31.057  13.020
88404W        W58285  23.500  16.631   5.747
88405W        W58286  12.228  36.591   4.830
88406W        W58287   6.729  25.010  12.346
88407W        W58288  40.876  41.435   3.631
88408W        W58289  34.909   8.660  12.970
88409W        W58290  28.963  26.003   1.296
88410W        W58291  14.619  22.565  13.474
88411W        W58292  44.505  31.963   1.893
88412W        W58293  34.074   2.731   1.328
88413W        W58294  42.298   0.385  14.508
88414W        W58295  39.372   1.298   2.331
88415W        W58296  15.192  21.584  14.985
88416W        W58297  22.013   6.365  10.505
88417W        W58298  12.670  16.137   3.251
88418W        W58299  28.132  10.174  13.027
88419W        W58300  30.594  39.902   2.705
88420W        W58301   5.284  22.239   1.435
88421W        W58302  28.584  39.980  14.937
88422W        W58303  12.732  36.494   1.337
88423W        W58304   0.348  17.639   1.363
88424W        W58305  42.828   5.326   0.823
88425W        W58306  41.301   1.373  14.965
88426W        W58307  35.078   6.295   4.795
88427W        W58308  31.120  37.984  10.982
88428W        W58309  24.079  12.211  12.412
88429W        W58310  31.605  36.539  10.618
88430W        W58311  15.805  21.758   2.858
88431W        W58312  38.066  24.654  12.852
88432W        W58313  26.486   3.460   1.285
88433W        W58314  13.120  31.594   0.256
88434W        W58315   0.803  23.673  13.349
88435W        W58316  18.231  16.709   1.263
88436W        W58317  22.682  36.585  10.051
88437W        W58318  31.461  42.388  13.408
88438W        W58319   2.294   7.349  11.425
88439W        W58320   2.920  21.723   1.776
88440W        W58321   5.717  19.625   4.312
88441W        W58322  31.077   0.431   3.718
88442W        W58323  13.626  38.835   3.633
88443W        W58324  30.006  18.065  10.973
88444W        W58325  38.512   3.243   3.641
88445W        W58326  12.746  11.295   3.649
88446W        W58327  24.040  10.214  12.344
88447W        W58328  17.631   9.154  12.932
88448W        W58329  22.536  31.964   4.135
88449W        W58330  15.658   2.952   2.743
88450W        W58331  34.527  26.556   2.815
88451W        W58332  33.391  28.610   3.234
88452W        W58333  32.886  41.806   4.117
88453W        W58334  37.962  20.609   2.266
88454W        W58335  39.053  25.594  13.416
88455W        W58336  20.148  20.081   3.811
88456W        W58337  16.757   5.881   0.453
88457W        W58338  16.311  42.429  13.832
88458W        W58339   0.478  24.555  12.371
88459W        W58340  26.089   6.836   4.120
88460W        W58341  37.494  13.207  12.914
88461W        W58342  33.010   5.708  11.605
88462W        W58343  11.747  39.836  11.475
88463W        W58344  33.907  30.011   0.888
88464W        W58345  27.516  21.262   1.252
88465W        W58346  16.205  14.765  11.903
88466W        W58347  32.587  26.116  11.865
88467W        W58348  24.036  31.119   3.288
88468W        W58349  21.074  23.191   0.753
88469W        W58350  38.415   7.381  12.838
88470W        W58351  11.782   4.745  13.871
88471W        W58352  17.150   1.369   3.271
88472W        W58353  21.180   1.268  11.931
88473W        W58354  34.500  42.375  13.979
88474W        W58355  13.640  39.932   3.651
88475W        W58356  10.827   4.880  13.384
88476W        W58357   8.370  19.045  11.573
88477W        W58358  30.998  15.114  12.023
88478W        W58359  11.181   9.195   0.401
88479W        W58360  40.538   2.903  11.395
88480W        W58361  40.833   1.271   2.195
88481W        W58362  39.984  13.678   4.339
88482W        W58363  40.010  31.476   0.424
88483W        W58364  36.572  23.023   3.660
88484W        W58365  43.832  26.474   3.648
88485W        W58366   8.283   0.432   2.767
88486W        W58367  25.989  33.033  11.398
88487W        W58368   7.344   9.760  10.509
88488W        W58369  32.567  43.003  10.449
88489W        W58370  21.129  27.078  13.056
88490W        W58371   0.988  17.737   1.222
88491W        W58372  19.761   4.848   1.733
88492W        W58373  11.739  38.390  13.320
88493W        W58374  39.856  14.303  14.289
88494W        W58375  20.681  12.618   3.209
88495W        W58376  13.218  36.030   4.316
88496W        W58377  31.606  39.831   2.411
88497W        W58378   2.302  44.915  12.901
88498W        W58379   2.413  15.229  14.508
88499W        W58380  40.823  43.986   0.747
88500W        W58381  26.094  17.150  11.503
88501W        W58382  15.654   0.966   1.424
88502W        W58383  27.676  12.763   4.150
88503W        W58384  28.462  44.491  14.953
88504W        W58385  31.617  15.329   1.220
88505W        W58386  22.661  14.113   2.838
88506W        W58387  44.492  44.903   0.320
88507W        W58388   5.729   6.255  11.052
88508W        W58389   2.826  32.100   3.760
88509W        W58390  35.533  12.362   3.310
88510W        W58391  15.310  17.128   0.918
88511W        W58392  44.874   9.335  11.448
88512W        W58393  24.591  26.509   3.700
88513W        W58394  39.933  40.442   0.307
88514W        W58395  21.597  10.742   3.851
88515W        W58396  12.816  26.099  11.563
88516W        W58397  22.643  10.650   3.305
88517W        W58398  14.698  19.766  10.542
88518W        W58399  21.649  26.653  13.951
88519W        W58400   9.291  15.181   3.831
88520W        W58401   3.371   6.204   0.955
88521W        W58402  16.077   9.337   2.810
88522W        W58403  13.819   8.783   2.690
88523W        W58404  27.617  18.771   4.240
88524W        W58405  37.996  25.082  14.378
88525W        W58406  14.210  16.782   0.372
88526W        W58407  23.685  29.591  12.841
88527W        W58408  15.798   5.906   3.196
88528W        W58409  33.952   4.246  11.466
88529W        W58410  19.163  16.781  14.392
88530W        W58411  23.194   5.862  12.913
88531W        W58412  18.089   4.812  14.366
88532W        W58413  44.910  33.000  10.506
88533W        W58414  15.323   4.369  11.876
88534W        W58415   1.971  13.784   4.334
88535W        W58416  41.864  25.171  12.926
88536W        W58417  42.342  31.060   0.248
88537W        W58418  40.822  34.501  10.404
88538W        W58419  11.225   5.733   1.440
88539W        W58420   8.219  23.171  13.523
88540W        W58421  36.016  40.396  13.427
88541W        W58422  28.005  32.581   4.647
88542W        W58423  10.637  33.576   0.314
88543W        W58424  11.139  36.870   2.665
88544W        W58425  26.562  23.089  12.472
88545W        W58426  33.083  39.928  10.503
88546W        W58427  18.123  20.701   3.218
88547W        W58428   9.829   4.741  12.928
88548W        W58429   7.728  31.571  13.925
88549W        W58430  10.861   5.324  14.985
88550W        W58431  26.102  25.708   2.257
88551W        W58432  33.058  38.032  12.530
88552W        W58433  10.174  15.704  11.885
88553W        W58434  38.842   3.794   0.420
88554W        W58435   4.362  29.097   0.318
88555W        W58436   9.858  25.021  10.896
88556W        W58437  13.315  15.703   4.790
88557W        W58438  31.639   1.830   3.693
88558W        W58439  27.689   9.330   3.234
88559W        W58440  20.245   6.913  10.948
88560W        W58441  32.537  19.533  11.960
88561W        W58442   5.214  18.651  14.298
88562W        W58443   9.743  14.180   1.735
88563W        W58444   6.767  40.365   3.272
88564W        W58445  28.487   7.676   9.526
88565W        W58446   6.759  29.937  12.902
88566W        W58447  19.714   4.363  14.491
88567W        W58448  11.845   5.395   2.298
88568W        W58449  34.940  22.053  11.453
88569W        W58450  35.887  25.109   4.314
88570W        W58451  23.620  34.963   4.831
88571W        W58452   1.848  29.597  13.012
88572W        W58453  27.650  12.117  11.111
88573W        W58454  35.545  19.567  11.100
88574W        W58455  23.233  19.155  11.892
88575W        W58456  21.537  10.374  13.024
88576W        W58457  34.024  25.511   3.704
88577W        W58458  44.949  20.250   1.446
88578W        W58459  30.140  20.547  12.376
88579W        W58460  38.859   4.318  13.406
88580W        W58461  18.561  41.838   0.273
88581W        W58462   9.741  22.624  10.574
88582W        W58463   7.781  13.637  12.477
88583W        W58464  13.258  15.302   1.430
88584W        W58465  44.834   2.461  13.867
88585W        W58466  33.114  41.493   2.266
88586W        W58467  17.590  19.612  10.502
88587W        W58468  30.121  13.701   2.316
88588W        W58469  17.091  44.295  13.974
88589W        W58470  34.435  36.924   2.305
88590W        W58471  12.194   7.374   4.657
88591W        W58472  12.669  27.977  12.839
88592W        W58473   7.736  18.642   1.867
88593W        W58474  36.980  22.572   4.129
88594W        W58475  34.526   2.772   2.822
88595W        W58476  11.229  35.003  11.940
88596W        W58477  11.194  32.013  13.958
88597W        W58478  15.695  15.207   2.863
88598W        W58479  31.921   0.816  13.957
88599W        W58480   4.755  21.652  14.987
88600W        W58481  36.534  32.102   1.227
88601W        W58482   2.958  11.282  13.488
88602W        W58483  32.605   2.461   3.804
88603W        W58484  27.577  17.146  12.391
88604W        W58485  24.198  18.255   1.932
88605W        W58486  21.056  39.488  13.307
88606W        W58487  31.045  24.976   3.846
88607W        W58488  15.705  12.843   4.645
88608W        W58489  37.965  24.614   4.618
88609W        W58490  34.430   7.676  14.343
88610W        W58491   1.365  37.039   3.324
88611W        W58492  42.520   2.898  10.918
88612W        W58493  40.826   5.856   0.429
88613W        W58494  28.611  40.442   4.270
88614W        W58495  28.569  13.173  11.406
88615W        W58496  17.106   4.250  14.799
88616W        W58497  41.369  31.485   0.936
88617W        W58498  27.539  10.235  13.893
88618W        W58499  25.657  17.746   4.668
88619W        W58500  20.215  22.203  11.884
88620W        W58501   4.744  20.641   1.302
88621W        W58502  26.046  37.565  12.933
88622W        W58503   6.299  30.555   2.306
88623W        W58504  33.620  23.231   3.303
88624W        W58505  25.630  30.587   4.253
88625W        W58506   3.441  39.902  10.520
88626W        W58507   4.393  44.435  13.991
88627W        W58508   7.296  27.491  12.380
88628W        W58509  30.542   4.302  14.420
88629W        W58510  10.791  35.987   3.765
88630W        W58511  22.516  29.128   0.835
88631W        W58512  38.009  18.276  14.443
88632W        W58513  11.765   6.416  12.880
88633W        W58514  27.487  21.686  14.888
88634W        W58515  26.596  39.955   1.340
88635W        W58516  40.877  21.198  13.816
88636W        W58517  16.783  16.778  14.806
88637W        W58518   7.375  11.855   5.286
88638W        W58519  26.145  28.994   2.813
88639W        W58520  31.581   7.754  13.541
88640W        W58521  11.209  17.066   0.397
88641W        W58522  38.347  35.946  11.971
88642W        W58523  21.564   8.257  10.917
88643W        W58524  12.733   9.201   3.187
88644W        W58525  42.783  10.243   4.298
88645W        W58526  31.136  10.196  13.309
88646W        W58527  31.504  11.706   2.253
88647W        W58528  27.521   4.899  10.135
88648W        W58529   3.871  41.026  14.764
88649W        W58530   2.440  33.039   2.346
88650W        W58531  37.486  21.240   0.459
88651W        W58532   1.248  28.983   3.204
88652W        W58533  31.039  13.622   4.697
88653W        W58534  13.606   7.773   4.650
88654W        W58535  18.584  41.398  12.427
88655W        W58536  13.845  30.007   3.774
88656W        W58537  43.912  32.533   3.804
88657W        W58538  43.465  29.100  11.119
88658W        W58539  16.237   2.803  10.427
88659W        W58540  31.590  11.298   0.914
88660W        W58541  38.540  29.519   3.799
88661W        W58542  23.050   7.232   0.482
88662W        W58543  23.680  40.391   0.733
88663W        W58544  25.093  30.438  11.011
88664W        W58545  19.185  34.514   2.353
88665W        W58546  14.707  43.341   3.836
88666W        W58547  26.694  28.152   1.868
88667W        W58548  29.993  14.325   4.726
88668W        W58549  10.829  38.412  12.548
88669W        W58550  24.674  16.162   2.728
88670W        W58551  39.880   9.379   2.295
88671W        W58552  43.949   4.731  11.542
88672W        W58553   2.822  23.226   2.739
88673W        W58554  28.097  24.206   2.865
88674W        W58555   1.292  19.743   2.203
88675W        W58556   2.745   4.849   3.666
88676W        W58557  37.970   5.264  11.942
88677W        W58558  39.860  36.946  14.324
88678W        W58559  22.638  10.217  14.979
88679W        W58560  24.656   4.354  12.384
88680W        W58561  21.040  37.519   0.337
88681W        W58562  42.911  42.312  11.510
88682W        W58563  44.362   0.341   2.250
88683W        W58564   4.706  14.216   1.830
88684W        W58565  20.107  34.444  12.374
88685W        W58566   6.393  14.709  12.093
88686W        W58567   2.925  16.111   0.785
88687W        W58568  30.649  40.836  14.293
88688W        W58569   8.260   1.906   1.450
88689W        W58570  33.083  28.967  13.499
88690W        W58571   4.229  44.923   2.356
88691W        W58572  33.477  40.310  11.396
88692W        W58573  41.388  33.432  11.090
88693W        W58574  24.575   4.420  13.318
88694W        W58575  12.777  34.900  14.404
88695W        W58576  21.718  14.791  13.347
88696W        W58577  21.166   8.315   0.442
88697W        W58578  41.430  11.141  14.822
88698W        W58579   8.243   6.368   2.845
88699W        W58580  32.410  10.297  13.819
88700W        W58581  28.017   8.818   5.107
88701W        W58582   1.964  30.497   3.308
88702W        W58583   6.197  21.037  14.885
88703W        W58584   4.859  18.190  11.086
88704W        W58585   4.760  40.402   2.735
88705W        W58586  28.444  34.015   2.902
88706W        W58587  20.184  36.349   2.247
88707W        W58588  34.929   5.784   3.275
88708W        W58589  27.462  28.124   0.882
88709W        W58590  33.537  33.397  13.819
88710W        W58591   4.290   8.753  13.416
88711W        W58592  43.347   9.676   4.296
88712W        W58593  12.615   6.801  14.957
88713W        W58594  28.992   5.198  12.991
88714W        W58595  14.603   7.696   0.345
88715W        W58596  27.526  22.072   2.710
88716W        W58597   1.466  17.560  13.918
88717W        W58598   0.477  31.137   0.458
88718W        W58599  39.400  28.062  13.970
88719W        W58600  21.618  14.604   0.404
88720W        W58601  15.771  11.770  14.438
88721W        W58602   7.397  28.442   4.744
88722W        W58603   9.376   0.943  10.911
88723W        W58604   8.673  13.808   3.844
88724W        W58605   6.717  29.655   3.349
88725W        W58606  43.975  30.464   2.703
88726W        W58607  39.034   2.739  13.890
88727W        W58608  25.563  18.282   3.282
88728W        W58609  36.965  15.823   3.325
88729W        W58610  14.233  12.181  14.835
88730W        W58611  22.638  43.800   1.847
88731W        W58612  15.129   3.710  14.309
88732W        W58613  34.096  16.575  11.546
88733W        W58614   1.451  16.278   1.922
88734W        W58615  32.996  26.616  11.919
88735W        W58616   9.239  26.089  14.296
88736W        W58617  32.961  38.429   4.825
88737W        W58618  18.596  27.632   9.522
88738W        W58619  13.218  25.208   4.279
88739W        W58620  31.141  22.018   0.893
88740W        W58621  27.479   4.266   2.850
88741W        W58622  32.566  19.776   1.310
88742W        W58623  24.561  20.218  14.906
88743W        W58624   0.324  18.141   0.730
88744W        W58625  37.466   4.400   0.472
88745W        W58626   4.737   9.803  14.986
88746W        W58627  10.285  39.841  14.854
88747W        W58628  13.652  12.722   2.716
88748W        W58629   1.853  40.988  13.442
88749W        W58630  11.180  18.146   1.401
88750W        W58631  25.128  22.737  11.048
88751W        W58632  12.851  11.257  11.533
88752W        W58633  36.943   4.853   0.892
88753W        W58634  40.423  35.101  12.910
88754W        W58635   3.884  38.021   0.360
88755W        W58636  33.902  38.371  13.380
88756W        W58637  10.765  26.658  12.390
88757W        W58638  25.536  30.505  10.905
88758W        W58639  36.909  10.165  10.106
88759W        W58640  39.961  39.346  11.970
88760W        W58641  35.992  28.089   1.841
88761W        W58642  26.592  42.899   2.226
88762W        W58643   1.784   4.799   2.694
88763W        W58644  26.073  18.757  11.461
88764W        W58645  27.687   5.322   2.293
88765W        W58646   0.859  39.902  10.057
88766W        W58647  35.043  23.185   4.794
88767W        W58648  32.500  34.470  12.497
88768W        W58649  42.972  17.228  11.032
88769W        W58650  19.638   1.955  13.987
88770W        W58651   5.291  35.853  12.933
88771W        W58652  19.238  43.899  13.314
88772W        W58653   6.707  15.693   2.815
88773W        W58654   0.433  11.793  13.375
88774W        W58655  14.794  13.686  12.045
88775W        W58656  32.020  21.675   2.842
88776W        W58657  43.464  24.042  12.382
88777W        W58658  27.559  36.379   0.253
88778W        W58659  19.277   9.884   0.357
88779W        W58660   0.856  41.325  13.483
88780W        W58661  33.991  44.784   2.775
88781W        W58662  25.572  43.400   2.779
88782W        W58663   4.807  39.990  14.884
88783W        W58664   5.700  23.584   4.722
88784W        W58665  29.157   4.883   1.407
88785W        W58666  25.091  38.883  12.444
88786W        W58667   8.877  12.806  12.432
88787W        W58668  37.983  12.132   4.700
88788W        W58669  20.177  10.744   4.821
88789W        W58670  14.603  24.521  12.030
88790W        W58671  24.662   7.331  13.806
88791W        W58672  31.459  35.449   4.696
88792W        W58673  12.291  23.081   0.482
88793W        W58674  33.592  26.685  12.479
88794W        W58675  29.130   2.963  13.992
88795W        W58676   2.744  20.127  11.471
88796W        W58677  32.395  13.294   0.746
88797W        W58678  16.104  34.427  14.824
88798W        W58679   2.310  11.703   2.367
88799W        W58680  24.643  16.659  11.117
88800W        W58681   6.804  26.499   0.965
88801W        W58682  20.141  36.083  13.022
88802W        W58683  12.310  38.067   2.203
88803W        W58684   7.223  13.334   1.886
88804W        W58685  11.211  40.000   2.385
88805W        W58686   7.799   9.654  12.846
88806W        W58687  20.102  25.197  11.451
88807W        W58688   5.741  33.028   2.731
88808W        W58689  19.085   0.406  11.058
88809W        W58690  42.338  19.186   4.816
88810W        W58691   1.286  13.232   3.203
88811W        W58692  41.839  43.954  13.371
88812W        W58693   5.275  26.493   5.112
88813W        W58694  27.458  35.014   4.232
88814W        W58695   6.415  37.374   5.184
88815W        W58696  22.628   9.391   2.846
88816W        W58697  23.155   3.242  14.327
88817W        W58698  28.618   8.724  12.423
88818W        W58699  42.405   1.473  14.309
88819W        W58700  23.185  36.428  13.019
88820W        W58701  18.671   9.792   0.822
88821W        W58702  24.480  28.681   2.350
88822W        W58703   0.769  41.371   0.730
88823W        W58704   2.275  22.130   2.294
88824W        W58705  14.689  13.283  10.638
88825W        W58706  27.037   4.293  11.612
88826W        W58707  37.474   2.907   0.286
88827W        W58708  11.255   0.784  13.380
88828W        W58709  25.179  42.430  12.947
88829W        W58710  21.650   4.814   2.221
88830W        W58711  31.527  44.265   4.190
88831W        W58712  33.904  26.191  13.496
88832W        W58713  32.094  30.095  12.869
88833W        W58714  17.218  25.709   2.385
88834W        W58715   1.814  33.086   3.708
88835W        W58716  29.612  24.665  13.868
88836W        W58717   2.829   7.909   2.673
88837W        W58718  43.280   0.258  14.439
88838W        W58719   5.724  36.577  10.539
88839W        W58720  26.496  31.107  14.488
88840W        W58721  13.221  36.942   5.689
88841W        W58722   5.775  19.074   3.240
88842W        W58723  10.703   8.397  12.052
88843W        W58724  26.482  14.616   3.272
88844W        W58725  23.535  23.719   3.632
88845W        W58726  16.757  26.666  13.888
88846W        W58727  23.111  15.723  13.986
88847W        W58728  10.237  22.127   0.774
88848W        W58729   7.239  28.139  11.909
88849W        W58730  20.240  35.905  11.597
88850W        W58731  38.867  16.663  13.849
88851W        W58732   6.771  44.005   0.762
88852W        W58733   4.802   2.923  11.483
88853W        W58734  40.019   2.349  14.761
88854W        W58735  23.545  16.317  12.549
88855W        W58736   8.685   7.358   2.821
88856W        W58737   8.889  18.146  13.043
88857W        W58738  39.515  25.014  12.461
88858W        W58739   7.367  38.497   1.304
88859W        W58740  30.101  40.047   0.860
88860W        W58741  17.657  36.375   4.339
88861W        W58742  27.553  29.517  14.785
88862W        W58743  35.076  41.963  11.938
88863W        W58744  11.136  34.612   0.837
88864W        W58745  39.478  35.953   1.400
88865W        W58746  29.520  44.827   1.331
88866W        W58747  33.507   0.446   3.745
88867W        W58748  21.131  25.142   0.254
88868W        W58749  20.079   7.329   0.280
88869W        W58750  20.135   8.816  14.287
88870W        W58751  10.156  34.587   4.146
88871W        W58752   7.911  15.742   0.748
88872W        W58753   0.440  43.474  11.488
88873W        W58754  22.740  42.891  14.341
88874W        W58755  44.758  24.595  11.521
88875W        W58756   2.329   2.779  10.456
88876W        W58757  42.408  10.645   0.418
88877W        W58758  38.403  29.623  12.034
88878W        W58759  30.530  17.121   3.180
88879W        W58760  41.513   8.340   1.328
88880W        W58761  29.670  16.767  11.554
88881W        W58762  11.690   5.848  10.414
88882W        W58763  12.671  30.932   5.210
88883W        W58764   6.378  37.350  12.866
88884W        W58765  22.687  30.648   2.736
88885W        W58766  18.643  16.129   4.300
88886W        W58767  29.638  44.975   0.797
88887W        W58768  19.117  12.321   3.169
88888W        W58769  41.805  20.236   0.861
88889W        W58770  14.301   2.232  12.425
88890W        W58771  29.163  12.328  12.913
88891W        W58772  33.909  40.406  10.444
88892W        W58773   9.199  25.147  13.009
88893W        W58774  16.130  26.696  14.413
88894W        W58775  44.327  10.873  11.016
88895W        W58776  28.170  40.429  13.937
88896W        W58777  19.592  40.537  10.537
88897W        W58778  33.996  33.893  14.327
88898W        W58779   7.900   8.714  13.892
88899W        W58780  41.987   7.378   0.748
88900W        W58781  28.441  19.729   3.248
88901W        W58782  29.428   0.920   1.439
88902W        W58783  23.223  30.065   4.347
88903W        W58784  41.346  17.599  12.508
88904W        W58785  25.693  32.987  11.857
88905W        W58786  32.142  39.821  14.023
88906W        W58787  33.987  27.977  10.094
88907W        W58788  30.530  24.637   0.964
88908W        W58789  19.193  24.109   1.699
88909W        W58790   4.741  33.051  11.373
88910W        W58791  10.848   2.875  11.392
88911W        W58792  30.113   5.294   4.810
88912W        W58793  23.622  10.269  12.968
88913W        W58794   1.957  16.594   1.808
88914W        W58795   7.344  21.641   2.811
88915W        W58796  30.162   4.792  14.965
88916W        W58797   7.338  22.112  11.389
88917W        W58798  16.572  11.850  12.359
88918W        W58799  35.902  19.589  14.435
88919W        W58800   5.413   7.239   4.823
88920W        W58801  38.895   6.233  12.458
88921W        W58802   0.306  38.360  14.314
88922W        W58803  14.662  30.976   2.852
88923W        W58804  15.128  23.606   0.812
88924W        W58805  18.252  33.452   1.292
88925W        W58806  10.215  38.336  10.420
88926W        W58807  38.434   2.763  14.876
88927W        W58808  17.562  19.132  14.913
88928W        W58809  10.667  18.222  10.572
88929W        W58810   8.754  27.176   0.337
88930W        W58811  21.545  26.638  13.004
88931W        W58812  36.084  42.428  14.944
88932W        W58813  13.293  37.551   1.738
88933W        W58814  20.640  11.195  10.608
88934W        W58815   1.322  22.584  10.962
88935W        W58816  10.742  10.678  10.906
88936W        W58817  37.553  23.179  14.012
88937W        W58818  35.498  44.372  14.370
88938W        W58819  11.364  20.528   0.270
88939W        W58820   4.262  21.536   4.343
88940W        W58821  27.182  40.817  14.966
88941W        W58822   8.405  37.570   3.232
88942W        W58823  10.215  19.171   0.422
88943W        W58824  30.619  18.742  12.458
88944W        W58825  40.997  30.651   4.762
88945W        W58826  34.997  15.667   5.312
88946W        W58827  27.453  39.041  11.091
88947W        W58828  34.880  13.126  13.992
88948W        W58829  10.831  18.669   3.734
88949W        W58830  25.700  30.068  14.790
88950W        W58831  34.490   5.855   0.255
88951W        W58832  11.690  37.998  12.996
88952W        W58833   2.403  39.530   0.778
88953W        W58834  17.781  26.012  13.361
88954W        W58835  37.450  10.379   5.215
88955W        W58836   8.283  39.982  10.598
88956W        W58837  34.055  32.010  11.111
88957W        W58838  38.028  26.952   4.312
88958W        W58839  26.652  22.562  13.491
88959W        W58840  18.260  29.540   0.900
88960W        W58841  34.917  32.993   4.272
88961W        W58842  43.399  28.647   0.884
88962W        W58843   1.303  35.543   4.685
88963W        W58844  33.946  43.389  12.440
88964W        W58845   6.320  30.656  12.367
88965W        W58846  15.098  25.655  13.030
88966W        W58847   6.285  20.214   2.356
88967W        W58848   6.893  40.979  11.596
88968W        W58849  26.101  35.944  14.824
88969W        W58850  40.913  34.934  14.386
88970W        W58851  20.239  43.270   2.712
88971W        W58852  19.042  14.707  10.644
88972W        W58853  40.449  30.437  14.766
88973W        W58854  31.144   2.802  14.782
88974W        W58855  42.966  16.796  11.547
88975W        W58856  31.525   5.252   0.345
88976W        W58857  44.380   2.951   0.802
88977W        W58858  17.080  29.507   3.818
88978W        W58859  23.995  36.500   1.254
88979W        W58860   3.243  10.215  13.421
88980W        W58861  16.190  44.367  13.412
88981W        W58862  11.222  28.047  11.583
88982W        W58863   0.488   7.241   4.242
88983W        W58864  19.282  20.179   0.858
88984W        W58865   3.320  36.442   4.195
88985W        W58866  19.566  28.173  11.956
88986W        W58867  34.005   7.274  13.319
88987W        W58868  27.645  31.541  10.984
88988W        W58869  15.714  19.196   3.631
88989W        W58870   9.166  22.674   3.160
88990W        W58871  35.088  40.048   3.293
88991W        W58872  29.425  30.059  14.910
88992W        W58873  41.024  41.861   1.697
88993W        W58874  32.950  23.147   0.926
88994W        W58875  32.476  27.682   2.232
88995W        W58876   3.242  17.588  12.405
88996W        W58877  29.462  44.450   0.758
88997W        W58878  15.207  17.692   1.269
88998W        W58879   8.787  19.587  13.358
88999W        W58880  26.676  32.627   4.322
89000W        W58881  30.497  19.714  13.502
89001W        W58882  43.878   5.787   2.864
89002W        W58883  34.000  14.245   0.814
89003W        W58884  19.167  19.742  12.563
89004W        W58885  11.258  19.720  13.963
89005W        W58886  41.384  13.297   0.341
89006W        W58887  39.417  27.119  10.480
89007W        W58888  17.174  35.484  11.587
89008W        W58889  35.460  10.274  12.423
89009W        W58890  35.887  32.051   3.276
89010W        W58891  33.444  44.782   1.419
89011W        W58892  20.183  24.995   2.751
89012W        W58893  40.309   7.247   2.231
89013W        W58894   5.933   7.273   2.734
89014W        W58895  23.731  16.107  11.394
89015W        W58896  32.140   4.272   3.216
89016W        W58897  43.304  22.188  10.611
89017W        W58898  36.859  30.012  14.928
89018W        W58899   3.923  27.955  12.078
89019W        W58900  34.587   9.820   3.813
89020W        W58901  19.190   5.317   4.782
89021W        W58902  31.407   7.257   0.426
89022W        W58903   8.840  40.931   0.463
89023W        W58904  37.383  34.444   3.837
89024W        W58905   5.216   4.726   2.220
89025W        W58906  22.035  11.779  14.863
89026W        W58907  24.716  22.074  13.388
89027W        W58908   2.788  25.517  12.517
89028W        W58909  26.974  39.940   4.217
89029W        W58910  30.082  42.523   1.430
89030W        W58911   0.802  26.001   4.682
89031W        W58912  37.042  31.971  11.076
89032W        W58913  22.581  12.244   4.162
89033W        W58914  44.322  31.976   0.816
89034W        W58915  36.369  27.184   1.783
89035W        W58916  33.109   4.872   3.802
89036W        W58917  12.849  11.835   4.698
89037W        W58918  44.867  19.755  12.484
89038W        W58919   6.339  26.208  12.487
89039W        W58920  34.424  27.127   4.164
89040W        W58921  44.991  23.562  13.850
89041W        W58922  31.434  21.238   2.361
89042W        W58923  28.523  28.619  13.875
89043W        W58924  25.975  13.800  12.501
89044W        W58925  10.320   0.491  10.625
89045W        W58926  32.541  42.947   0.402
89046W        W58927  11.628  29.556   0.899
89047W        W58928  40.923  24.085  13.323
89048W        W58929   8.279  24.646   1.743
89049W        W58930   3.736  17.566   3.803
89050W        W58931  24.145  40.338  13.884
89051W        W58932  23.707  38.336   3.651
89052W        W58933  23.553  34.537   1.238
89053W        W58934  43.994  17.062   4.269
89054W        W58935  12.204   9.184  14.511
89055W        W58936   7.411   7.782   2.287
89056W        W58937  24.995   5.828   2.798
89057W        W58938  24.556  17.644   5.161
89058W        W58939   7.764  11.287  13.341
89059W        W58940   1.392  44.001   0.734
89060W        W58941  34.093   3.431  12.042
89061W        W58942  38.454  12.641   3.243
89062W        W58943   4.398  37.884   1.927
89063W        W58944   8.847  14.614  10.456
89064W        W58945   3.396  35.557  10.564
89065W        W58946  43.902  38.504   1.392
89066W        W58947  31.648  16.173   4.308
89067W        W58948   6.712   7.790  14.497
89068W        W58949  13.246  41.909   4.782
89069W        W58950  42.835  27.970  10.456
89070W        W58951  27.589   1.244  14.957
89071W        W58952  28.093  27.448  13.459
89072W        W58953  21.225   6.263  13.921
89073W        W58954   6.755  25.963   4.329
89074W        W58955  35.518  38.960  14.820
89075W        W58956  18.177  10.699  11.510
89076W        W58957   2.256  23.228  14.483
89077W        W58958  20.240  41.885  12.999
89078W        W58959  14.674   2.740  14.483
89079W        W58960  36.891  29.065  12.979
89080W        W58961  24.021  42.998   2.298
89081W        W58962  14.770  23.107  11.549
89082W        W58963  29.068  41.292   1.338
89083W        W58964  33.554  17.701  10.408
89084W        W58965  23.608   7.770  13.405
89085W        W58966  37.893  23.676   3.836
89086W        W58967  16.714  35.903   2.835
89087W        W58968   1.291  24.509  14.458
89088W        W58969  23.691  20.152   0.470
89089W        W58970   3.459  42.408  11.099
89090W        W58971  38.490  33.051   1.816
89091W        W58972  34.095  32.636  10.971
89092W        W58973  16.190   7.268   4.256
89093W        W58974  16.634  13.652  12.062
89094W        W58975   4.929  32.466  11.010
89095W        W58976  14.653  24.527  13.841
89096W        W58977  36.370  13.207  12.466
89097W        W58978  12.782  38.929  10.897
89098W        W58979  25.607  14.255  13.838
89099W        W58980  24.612  41.800  12.494
89100W        W58981  14.596  44.971   3.718
89101W        W58982  22.649  37.836   2.797
89102W        W58983  36.468  13.248   4.802
89103W        W58984  22.626  11.326  13.392
89104W        W58985   4.719   3.415  10.010
89105W        W58986   6.423  38.860  13.521
89106W        W58987  30.009  11.757  14.893
89107W        W58988   3.414  28.175  14.917
89108W        W58989  33.034  42.970   3.665
89109W        W58990  22.648  15.121   0.936
89110W        W58991  33.003   2.275   4.227
89111W        W58992  14.254  32.922   0.861
89112W        W58993  25.072  30.616   2.903
89113W        W58994   1.400  36.907  14.428
89114W        W58995  19.753  29.538  13.852
89115W        W58996  26.982  16.574  11.862
89116W        W58997  29.126  35.988   2.186
89117W        W58998  27.517   9.261  10.634
89118W        W58999  28.679  21.524  13.865
89119W        W59000  18.232  22.553   2.333
89120W        W59001   5.402  36.535   4.674
89121W        W59002  27.154   7.866  10.460
89122W        W59003  26.018  16.225  11.374
89123W        W59004  10.700  15.708   1.740
89124W        W59005  23.023   7.296   2.710
89125W        W59006  13.282   6.912  13.429
89126W        W59007  26.020  33.117   0.282
89127W        W59008  15.299  11.300   1.911
89128W        W59009   2.403  24.665   1.275
89129W        W59010  31.017  25.986  12.434
89130W        W59011   4.335  14.322   4.292
89131W        W59012  34.109   7.231  10.999
89132W        W59013  25.080  30.110  11.453
89133W        W59014  28.440  10.257  12.862
89134W        W59015  36.443  19.568   0.258
89135W        W59016  25.625  26.151  13.919
89136W        W59017  24.063  13.307   2.199
89137W        W59018  40.038  36.581   3.775
89138W        W59019  26.484  12.237   2.736
89139W        W59020  12.725  28.010  11.015
89140W        W59021  27.137  35.600  14.971
89141W        W59022  16.207   6.303  12.003
89142W        W59023  39.997   5.284  11.927
89143W        W59024  33.438   4.353  11.597
89144W        W59025  42.327   1.858   1.730
89145W        W59026   9.282  40.312  14.414
89146W        W59027  11.310  19.732  10.991
89147W        W59028   9.286  24.072  10.498
89148W        W59029  35.052  24.109  13.015
89149W        W59030  17.216  14.792  13.972
89150W        W59031  30.476  26.575   0.382
89151W        W59032  30.115   9.187   3.719
89152W        W59033  29.511  29.622   5.136
89153W        W59034  10.790  44.359   4.117
89154W        W59035  25.700   3.733   2.350
89155W        W59036  35.398  27.555   4.263
89156W        W59037  37.866  44.471   4.308
89157W        W59038  42.303  17.733   2.706
89158W        W59039  12.239   7.873   3.256
89159W        W59040  35.574  30.537   0.946
89160W        W59041  16.262  27.003  10.505
89161W        W59042   1.816  26.584   3.766
89162W        W59043  42.858  25.634  13.424
89163W        W59044  15.676  42.908   3.293
89164W        W59045  27.955  12.844  11.477
89165W        W59046  25.541  25.078   3.150
89166W        W59047  38.506  14.667   4.689
89167W        W59048  40.506   4.848  12.471
89168W        W59049  18.095  44.412  13.061
89169W        W59050  28.488  25.540   2.879
89170W        W59051   0.811  36.377  11.377
89171W        W59052  30.551  36.056  14.334
89172W        W59053   1.978  32.962  12.896
89173W        W59054  36.378  17.091  14.934
89174W        W59055  38.872   3.921  12.360
89175W        W59056  31.127  32.979   3.767
89176W        W59057  33.102  27.146   3.176
89177W        W59058  12.267  16.257   2.307
89178W        W59059  38.522  43.969   1.424
89179W        W59060   7.797  33.459   2.248
89180W        W59061  28.102   1.281   3.676
89181W        W59062   7.317   1.317   3.712
89182W        W59063  40.545  33.962   3.158
89183W        W59064   1.891  39.061  14.857
89184W        W59065   2.460  27.667  11.886
89185W        W59066  44.883  39.869  11.480
89186W        W59067  26.016  23.712   3.380
89187W        W59068  35.963  34.446   0.318
89188W        W59069  30.954  38.325  11.445
89189W        W59070  21.712  40.333   2.684
89190W        W59071   8.202  20.617  11.483
89191W        W59072  22.701  13.663   4.341
89192W        W59073  11.745  21.041   3.685
89193W        W59074   5.782  21.085  12.389
89194W        W59075  37.469  28.612  11.479
89195W        W59076   9.168   9.656   3.282
89196W        W59077  24.194  10.322  13.884
89197W        W59078   0.383   9.800   2.837
89198W        W59079  26.176  24.214  13.893
89199W        W59080  26.972  32.435   2.732
89200W        W59081  37.525  11.185  10.438
89201W        W59082  11.203  18.188  12.365
89202W        W59083  27.630  24.026  12.981
89203W        W59084  12.787  30.496  10.038
89204W        W59085  20.617  39.447  10.517
89205W        W59086   2.317   7.264  13.003
89206W        W59087  29.498  27.578  10.976
89207W        W59088  24.716  27.478   4.256
89208W        W59089  23.616  32.995  10.575
89209W        W59090   3.734  14.129   1.766
89210W        W59091  44.465  27.075  11.478
89211W        W59092  41.302  36.367   3.775
89212W        W59093  28.526   4.917  14.831
89213W        W59094  40.802  13.200  11.943
89214W        W59095  41.859   4.733   2.270
89215W        W59096  19.572  23.038  13.435
89216W        W59097  26.485  13.130   0.303
89217W        W59098  11.180  27.576  10.601
89218W        W59099  18.619  29.972   1.300
89219W        W59100  21.581  37.518   3.708
89220W        W59101  21.668   1.351   4.271
89221W        W59102  44.908   1.353   1.323
89222W        W59103  16.702  35.997  12.430
89223W        W59104   1.244  32.427  10.982
89224W        W59105  44.889   5.249   3.721
89225W        W59106  20.614  39.065   2.681
89226W        W59107  33.468   8.743   1.298
89227W        W59108  40.425  14.622  14.285
89228W        W59109  21.748  39.044  13.034
89229W        W59110  35.381  11.669   0.388
89230W        W59111  32.115  23.604   0.821
89231W        W59112  39.452  42.800   3.771
89232W        W59113  32.456   6.301  11.877
89233W        W59114  21.728   7.883  13.049
89234W        W59115  21.539  33.611  11.027
89235W        W59116  12.324  29.989   3.736
89236W        W59117   2.344  38.903   2.816
89237W        W59118  20.683  38.978  12.883
89238W        W59119  32.439   3.939   0.745
89239W        W59120  26.507  29.986  10.573
89240W        W59121  14.675  26.661   1.404
89241W        W59122   0.257  38.442  13.473
89242W        W59123  35.057  15.230   4.259
89243W        W59124  10.669  25.024  10.623
89244W        W59125  31.470  29.473   3.796
89245W        W59126  16.292   1.938   1.784
89246W        W59127  35.852   1.947   4.749
89247W        W59128  25.095  35.091   1.295
89248W        W59129  37.424  40.900   2.883
89249W        W59130  17.636   0.448  13.981
89250W        W59131  35.573   5.430  13.931
89251W        W59132  39.881   8.385   4.631
89252W        W59133  38.550  14.237   1.737
89253W        W59134  33.028  25.534   0.800
89254W        W59135  44.948   3.949   2.335
89255W        W59136  16.785  23.698  11.587
89256W        W59137  21.578  20.063   0.383
89257W        W59138   7.177  25.652  13.847
89258W        W59139   3.758   1.246   4.717
89259W        W59140  30.656  34.459   3.733
89260W        W59141  25.564  32.962   2.796
89261W        W59142  40.935  20.685  14.417
89262W        W59143  16.218   8.187   4.597
89263W        W59144  27.130  40.496   1.432
89264W        W59145  11.745  36.490  10.634
89265W        W59146  31.133   7.822  11.599
89266W        W59147  23.102  12.633  11.085
89267W        W59148   6.375   6.833  11.564
89268W        W59149   7.317  44.874  12.849
89269W        W59150   0.833  39.012   2.318
89270W        W59151  20.647   9.721   3.696
89271W        W59152  41.814  15.280  12.942
89272W        W59153  40.976  24.695  12.935
89273W        W59154  17.610  43.987   1.263
89274W        W59155  43.426  12.794  14.321
89275W        W59156  39.421   8.359   3.184
89276W        W59157  44.360  36.370  11.424
89277W        W59158  13.717  26.526   1.411
89278W        W59159  43.793  31.115   3.292
89279W        W59160  22.218  40.484   4.788
89280W        W59161  24.996  35.538  11.982
89281W        W59162   3.786  16.765   2.839
89282W        W59163  16.202  32.931  10.988
89283W        W59164  42.888  12.729  13.460
89284W        W59165   8.763  40.045  14.311
89285W        W59166  43.831  25.167  12.855
89286W        W59167  15.577   9.186   3.802
89287W        W59168  36.972  21.121   2.893
89288W        W59169  20.613  22.546  14.972
89289W        W59170  39.964  42.899   3.831
89290W        W59171  38.981  24.198   3.354
89291W        W59172  37.071  43.015   2.701
89292W        W59173  35.042  29.140  14.513
89293W        W59174  18.758  27.975   5.656
89294W        W59175  24.591   8.840  11.867
89295W        W59176  33.006   2.390  10.417
89296W        W59177  25.631  26.572   5.163
89297W        W59178   3.733  25.604   2.224
89298W        W59179   6.789  21.649   2.193
89299W        W59180   5.205  16.698  14.923
89300W        W59181   1.259  24.056   3.785
89301W        W59182  31.500  24.011  13.345
89302W        W59183  34.944  18.680  14.030
89303W        W59184  20.643  36.845  11.487
89304W        W59185  12.836  15.810   3.225
89305W        W59186  42.297  16.588   0.372
89306W        W59187  41.971  28.103   2.678
89307W        W59188  10.754  43.295   1.246
89308W        W59189  14.641  29.649  10.597
89309W        W59190   5.225  15.718   4.318
89310W        W59191  31.939   1.385   2.747
89311W        W59192   7.350   8.200  14.810
89312W        W59193  13.344  41.893  14.324
89313W        W59194  24.101  32.634   1.235
89314W        W59195  38.931  32.455   2.740
89315W        W59196  34.545  22.530  11.388
89316W        W59197  41.883  32.453   3.833
89317W        W59198   3.822  21.195   0.808
89318W        W59199  38.531  14.768  13.519
89319W        W59200  30.543  11.206   2.769
89320W        W59201  22.686  14.607  12.018
89321W        W59202   7.719  29.625  10.414
89322W        W59203  27.967  39.849  12.521
89323W        W59204   9.708   2.293  10.922
89324W        W59205  44.398   3.255  11.506
89325W        W59206  27.521  34.487  14.820
89326W        W59207  27.609  41.475   4.331
89327W        W59208   1.363  21.670   4.815
89328W        W59209   9.677   2.463   0.275
89329W        W59210  29.070  43.289   4.247
89330W        W59211  44.918  26.599   3.783
89331W        W59212  21.144  42.844  13.889
89332W        W59213  31.430  18.600  14.321
89333W        W59214   2.470   9.872   0.415
89334W        W59215  41.018   2.302   3.260
89335W        W59216  19.092  42.973   3.706
89336W        W59217   6.396  17.778  13.832
89337W        W59218  22.747  18.172   2.363
89338W        W59219  27.137  30.936  10.566
89339W        W59220  11.220  19.094   0.244
89340W        W59221   3.449   0.764  10.425
89341W        W59222  38.854  31.991  13.936
89342W        W59223  34.054  38.900   2.740
89343W        W59224  19.580  37.385  11.856
89344W        W59225  37.875   6.769  13.835
89345W        W59226  37.448  34.468  13.878
89346W        W59227  28.167  23.509  13.546
89347W        W59228   6.690  22.710  12.946
89348W        W59229  33.622  36.460   0.863
89349W        W59230  36.348   6.281  13.421
89350W        W59231  42.349  31.950   3.331
89351W        W59232  20.541  16.803  10.479
89352W        W59233  30.083   5.325  12.556
89353W        W59234   2.762  21.060   1.450
89354W        W59235  26.200  13.298  13.984
89355W        W59236  18.243  22.621   2.772
89356W        W59237  31.479  26.106  13.862
89357W        W59238   5.344  27.689   3.768
89358W        W59239   8.851  17.150  11.875
89359W        W59240  14.235  33.603   4.675
89360W        W59241   5.280   2.359   2.841
89361W        W59242  39.058  42.855   1.410
89362W        W59243  43.409  26.588  13.909
89363W        W59244  17.767  32.521  10.459
89364W        W59245  31.915  18.125   1.873
89365W        W59246   0.302  33.063   4.679
89366W        W59247  22.607   4.343   1.261
89367W        W59248  31.127  25.596  14.394
89368W        W59249  41.375  13.345  14.985
89369W        W59250  12.251  29.101  12.572
89370W        W59251   2.245   7.910   1.378
89371W        W59252  44.766   8.206   2.355
89372W        W59253  27.102  28.529  11.054
89373W        W59254  43.945   9.286  13.308
89374W        W59255   7.192  20.207   5.300
89375W        W59256   6.254  11.728   1.715
89376W        W59257  30.912   9.711   1.367
89377W        W59258  39.482  40.335   4.704
89378W        W59259  44.842  25.589   3.276
89379W        W59260  24.523  38.478  11.040
89380W        W59261   1.375  20.551  11.993
89381W        W59262  21.697  27.489  14.410
89382W        W59263  27.078  38.412  10.585
89383W        W59264  16.796  38.327   0.947
89384W        W59265  42.992  38.496  11.076
89385W        W59266  44.436  17.277   5.241
89386W        W59267  27.608  25.514  12.422
89387W        W59268   8.259  32.603   0.900
89388W        W59269  35.898   3.352  11.060
89389W        W59270  36.954  17.608  10.916
89390W        W59271  20.081   0.756  14.331
89391W        W59272   7.822  16.693  14.984
89392W        W59273  23.613  10.360   0.798
89393W        W59274   0.381  15.156  13.428
89394W        W59275  13.836  15.591  13.339
89395W        W59276   5.305  19.144  12.409
89396W        W59277   9.776  18.684   1.341
89397W        W59278   1.829  33.468   3.787
89398W        W59279  24.974  40.047  13.048
89399W        W59280  11.229  21.185  12.414
89400W        W59281  15.652  33.383  14.853
89401W        W59282  43.853   4.277   1.440
89402W        W59283  21.650   6.357   2.197
89403W        W59284  31.535  26.647   3.656
89404W        W59285  42.449   5.219   2.286
89405W        W59286   4.870  24.530  10.623
89406W        W59287   8.288  28.546  10.588
89407W        W59288  14.231  31.074  13.856
89408W        W59289   3.781   1.322  12.406
89409W        W59290  16.159   3.874   3.158
89410W        W59291  36.980  13.246  11.127
89411W        W59292  28.166   6.809   3.273
89412W        W59293  28.602   2.279   3.321
89413W        W59294  38.339  20.693  11.096
89414W        W59295  18.260  12.123   4.149
89415W        W59296   1.477  36.554  11.047
89416W        W59297  26.558  29.974   2.217
89417W        W59298  24.063  16.704   5.174
89418W        W59299   7.823   6.346  10.572
89419W        W59300  28.012  41.435  13.841
89420W        W59301  37.458  16.226   2.392
89421W        W59302  14.325  13.203   1.703
89422W        W59303  13.183   8.824   0.755
89423W        W59304  38.017  40.026  13.819
89424W        W59305  28.116  25.078  14.898
89425W        W59306  13.639   7.332  11.589
89426W        W59307   4.360  34.023  13.410
89427W        W59308  22.711  12.699   1.815
89428W        W59309  31.929  12.326   3.852
89429W        W59310  35.494  36.473   1.804
89430W        W59311   2.288  15.795   4.235
89431W        W59312  13.831  37.082  13.792
89432W        W59313  15.580  28.602   3.700
89433W        W59314  33.910   4.825   0.775
89434W        W59315   8.297   9.818   4.235
89435W        W59316   1.312  31.459  13.467
89436W        W59317  19.553  42.323   0.729
89437W        W59318   9.839   9.356  13.858
89438W        W59319  17.123  37.034   2.900
89439W        W59320  14.241  29.563  13.820
89440W        W59321   8.685  15.707   0.868
89441W        W59322  29.539  10.259   4.705
89442W        W59323   0.265  39.441   1.298
89443W        W59324  37.952  43.826  14.313
89444W        W59325  20.754  34.603  13.324
89445W        W59326   0.919   8.858  11.889
89446W        W59327  41.929  44.007   2.719
89447W        W59328  31.998   2.853  13.324
89448W        W59329  32.032  25.662  14.405
89449W        W59330  41.872   8.221  13.377
89450W        W59331  40.526   1.818  14.772
89451W        W59332   8.655  26.195   4.162
89452W        W59333   0.297  33.117  13.392
89453W        W59334   9.260  35.941  14.892
89454W        W59335   0.434   2.373  12.927
89455W        W59336  44.351  21.236  10.958
89456W        W59337  14.719  15.679  11.494
89457W        W59338  40.536   3.399  13.885
89458W        W59339  18.164   2.893   3.717
89459W        W59340   4.742  38.528   3.286
89460W        W59341  15.197  32.410   3.341
89461W        W59342  13.108  36.071  14.831
89462W        W59343  31.437  17.089   4.737
89463W        W59344  15.656   2.860   4.197
89464W        W59345   1.368  14.689   0.867
89465W        W59346  13.297  39.528  13.971
89466W        W59347  19.223   6.776   0.419
89467W        W59348  28.123  18.765  11.985
89468W        W59349  25.540   8.691   4.340
89469W        W59350  13.832   2.458  14.491
89470W        W59351   7.271  14.636   1.375
89471W        W59352   3.809  23.507   4.817
89472W        W59353  34.107  22.715  13.811
89473W        W59354  42.989  16.166  13.983
89474W        W59355  18.660  16.736  11.857
89475W        W59356   2.257  26.492  10.456
89476W        W59357   1.784  44.327   3.724
89477W        W59358  22.742  10.275  12.562
89478W        W59359  40.961  10.355  12.035
89479W        W59360  16.151  34.446   4.641
89480W        W59361   2.918  13.255  11.469
89481W        W59362  41.476  39.855  10.498
89482W        W59363   6.183   4.432   4.723
89483W        W59364   3.953  15.290   3.750
89484W        W59365  28.482  24.194  13.882
89485W        W59366   4.832   6.919   3.233
89486W        W59367  36.884  43.287  14.391
89487W        W59368   8.692  21.592  12.400
89488W        W59369  22.059  12.755  12.391
89489W        W59370  25.145  32.635  12.354
89490W        W59371  29.623   4.862   1.715
89491W        W59372   5.820  24.211   0.397
89492W        W59373   6.195  24.642  11.442
89493W        W59374  41.440  29.946  14.939
89494W        W59375  36.355  30.592  13.836
89495W        W59376  23.516  38.517   1.318
89496W        W59377  38.945  12.626   1.712
89497W        W59378  43.372  31.423   2.208
89498W        W59379  35.971   5.892   0.952
89499W        W59380   6.229  10.159  10.545
89500W        W59381  41.042   8.661   4.130
89501W        W59382  19.621   3.764  11.613
89502W        W59383  21.135  29.128  13.929
89503W        W59384  42.300   6.742   2.240
89504W        W59385  12.252  16.086   1.304
89505W        W59386  22.709  19.570   1.444
89506W        W59387   3.443   0.775   1.306
89507W        W59388   8.852  37.535   2.730
89508W        W59389   5.839  44.422   0.296
89509W        W59390  36.908  15.276  14.009
89510W        W59391  15.320  36.443  14.314
89511W        W59392  12.647  20.228   3.644
89512W        W59393  26.506  31.610   4.695
89513W        W59394  19.151  27.498   4.604
89514W        W59395   0.799  37.004   1.379
89515W        W59396  31.954   1.950  11.889
89516W        W59397   6.747  23.020  11.973
89517W        W59398  36.845   0.949  10.142
89518W        W59399  29.631  12.715  12.854
89519W        W59400  20.188  35.953   2.350
89520W        W59401  27.575   8.400   4.299
89521W        W59402  27.449  18.556  10.453
89522W        W59403  24.676  14.722  12.978
89523W        W59404  24.596   3.312   0.789
89524W        W59405  21.252   2.736  14.771
89525W        W59406  30.999  39.933   0.860
89526W        W59407  25.500  41.885  13.907
89527W        W59408  13.723  36.545   4.717
89528W        W59409  36.001  33.624  13.446
89529W        W59410  26.623  14.098  13.053
89530W        W59411  39.510  43.946   3.735
89531W        W59412  42.007   0.972  11.516
89532W        W59413  19.129  33.030  14.277
89533W        W59414  32.925   4.905  12.557
89534W        W59415  42.292  22.670   1.238
89535W        W59416   5.884  21.749  13.986
89536W        W59417   5.309  38.926  11.488
89537W        W59418  34.532  20.593   3.230
89538W        W59419  29.495  16.129   4.745
89539W        W59420  21.186   3.928   3.380
89540W        W59421  36.871  34.078   2.220
89541W        W59422  10.220  42.948   0.256
89542W        W59423  35.954  39.548  12.549
89543W        W59424  12.166  33.408  14.019
89544W        W59425  16.780  18.691  11.603
89545W        W59426   3.836   0.478  12.829
89546W        W59427  15.688  40.380  14.430
89547W        W59428   8.752   7.398  12.359
89548W        W59429  28.972  15.093   0.776
89549W        W59430  42.288  22.056   3.678
89550W        W59431   8.892   8.353   1.736
89551W        W59432   8.703  25.178  11.973
89552W        W59433  42.908  33.074  14.360
89553W        W59434  18.158  26.663  10.942
89554W        W59435  39.810  10.859  10.514
89555W        W59436  32.962  26.956   0.967
89556W        W59437   2.347   4.346   4.611
89557W        W59438  39.500  40.009   3.751
89558W        W59439   6.261  18.769  11.988
89559W        W59440   1.305   5.919   2.223
89560W        W59441  19.656  41.457  13.408
89561W        W59442  21.720  17.242   1.372
89562W        W59443   8.798  40.399  10.913
89563W        W59444  44.313  11.843   1.772
89564W        W59445   1.457  32.515   4.631
89565W        W59446  25.094  13.141  14.459
89566W        W59447  21.036  24.622  11.610
89567W        W59448  44.966  11.194  12.380
89568W        W59449  43.468   5.349  14.301
89569W        W59450  41.010  17.711   1.896
89570W        W59451  25.660  22.058  13.326
89571W        W59452  44.319  35.870   0.481
89572W        W59453  21.037  37.027   3.248
89573W        W59454  43.908  41.341  12.490
89574W        W59455  38.977  39.818   2.865
89575W        W59456  42.776  39.346   0.411
89576W        W59457  27.543   6.851   1.698
89577W        W59458  42.312  25.534   4.646
89578W        W59459  20.105  41.964  12.380
89579W        W59460  17.684  39.457  13.521
89580W        W59461  43.890  11.652  14.419
89581W        W59462  34.019  36.593  11.422
89582W        W59463  42.032   6.376   3.706
89583W        W59464   9.817  13.176  11.039
89584W        W59465  14.785   3.852  13.929
89585W        W59466  21.575  19.572  12.956
89586W        W59467  29.569  27.015  10.642
89587W        W59468  10.803  28.084   0.324
89588W        W59469  35.970  43.301   4.787
89589W        W59470  37.519   9.770  11.527
89590W        W59471  22.638  31.061  12.041
89591W        W59472   3.435  44.883  14.002
89592W        W59473   1.946  17.591  11.454
89593W        W59474  10.838   2.800   4.761
89594W        W59475  37.577  44.493  13.017
89595W        W59476  35.966  33.537   0.467
89596W        W59477  42.828  29.050   3.841
89597W        W59478  39.913   4.229  11.482
89598W        W59479  20.078   2.930  14.370
89599W        W59480   0.784  33.505  11.883
89600W        W59481  41.832  21.645   3.835
89601W        W59482   0.783  39.339  12.034
89602W        W59483  28.513  10.365  11.956
89603W        W59484  34.615   9.316  11.868
89604W        W59485  26.675  43.289  11.546
89605W        W59486  26.580  40.495  14.791
89606W        W59487   1.794  32.491   2.252
89607W        W59488  36.502  40.433  14.351
89608W        W59489   1.924  26.703   2.181
89609W        W59490  13.671  39.044  13.060
89610W        W59491  22.682  19.666  14.460
89611W        W59492  29.093  16.169  14.880
89612W        W59493  35.451  15.714   2.701
89613W        W59494  27.540   8.406   4.643
89614W        W59495  44.786  31.963  13.499
89615W        W59496  26.546  32.416  13.484
89616W        W59497   6.690   0.792   0.897
89617W        W59498  16.149  33.455   2.672
89618W        W59499  23.683   9.335  13.920
89619W        W59500  33.993   5.236   1.865
89620W        W59501  11.263  32.902   2.226
89621W        W59502  37.575  35.951   3.833
89622W        W59503  28.478  33.890   1.920
89623W        W59504  36.880  35.432  12.531
89624W        W59505  32.621  44.479  11.994
89625W        W59506  33.596  11.280  14.399
89626W        W59507  38.552  21.116   0.929
89627W        W59508  21.571  33.476   4.178
89628W        W59509   2.883  34.538  14.913
89629W        W59510   0.399  26.485  14.413
89630W        W59511   1.956  36.511   3.698
89631W        W59512   2.451  22.115  12.055
89632W        W59513  26.156  37.457   1.420
89633W        W59514  31.414  19.068   1.297
89634W        W59515  12.205  36.994   2.379
89635W        W59516  32.415  32.528   3.169
89636W        W59517  17.191  24.545  12.925
89637W        W59518  35.508  28.673   4.171
89638W        W59519   5.205  39.439  10.605
89639W        W59520   5.269  12.269  10.417
89640W        W59521  27.598  21.573  14.441
89641W        W59522  20.113  21.166   3.324
89642W        W59523   7.847  10.699   2.207
89643W        W59524  16.623   6.901   3.629
89644W        W59525  39.389   1.921   2.731
89645W        W59526  36.433  17.574  14.008
89646W        W59527   4.746  33.515   0.962
89647W        W59528  33.582   6.274  12.083
89648W        W59529   1.271  36.397  12.405
89649W        W59530  30.156  32.096   3.694
89650W        W59531  26.661   5.732  14.414
89651W        W59532  19.100  25.590   1.320
89652W        W59533  13.328  40.480  13.831
89653W        W59534  13.634  39.936  12.003
89654W        W59535   8.174   5.368   3.715
89655W        W59536   3.364  37.981   0.425
89656W        W59537   5.695  43.270  10.518
89657W        W59538  27.992  44.413   9.966
89658W        W59539  38.538   1.465   0.317
89659W        W59540  27.988  18.694   3.183
89660W        W59541  33.495  23.091  12.980
89661W        W59542  36.567  43.278   2.337
89662W        W59543  16.272  32.588   2.758
89663W        W59544  40.465  43.913   0.473
89664W        W59545   2.879  15.819  10.590
89665W        W59546  29.108  32.014  11.966
89666W        W59547  12.622  43.790  11.091
89667W        W59548  13.741   4.338   4.115
89668W        W59549   2.826  20.058   3.327
89669W        W59550  18.180  14.747  14.342
89670W        W59551  15.714  41.518   1.352
89671W        W59552  42.898  43.351  11.406
89672W        W59553  37.565  43.918  14.407
89673W        W59554  33.493  37.886  13.796
89674W        W59555  11.658   5.219  12.016
89675W        W59556  28.045  12.621  11.099
89676W        W59557   0.340  32.990  14.937
89677W        W59558  43.387  31.445   4.206
89678W        W59559  16.277   8.812  12.937
89679W        W59560   3.366  17.220  11.478
89680W        W59561  27.560  32.395   3.180
89681W        W59562   8.181   2.295   1.259
89682W        W59563  28.485  13.755  11.413
89683W        W59564  26.670   8.242   2.862
89684W        W59565  30.596  33.061   1.266
89685W        W59566  15.254  26.595  13.059
89686W        W59567   9.176  29.459   1.875
89687W        W59568  25.518   4.926  11.385
89688W        W59569   2.266  39.540  11.540
89689W        W59570  24.088   3.804  13.460
89690W        W59571   7.772  15.243  12.062
89691W        W59572  30.621  42.014   3.187
89692W        W59573  23.665  40.027   3.253
89693W        W59574  25.200  33.526  10.964
89694W        W59575  13.843   2.821   2.860
89695W        W59576  38.062  28.004   4.716
89696W        W59577  35.969   0.332  14.816
89697W        W59578  21.254  36.961  11.916
89698W        W59579  13.272  29.937  14.922
89699W        W59580  35.887  31.090   1.421
89700W        W59581  29.591  42.792  12.006
89701W        W59582  17.184  29.031   2.863
89702W        W59583  17.162  36.872  10.637
89703W        W59584  15.610  10.220  13.860
89704W        W59585  42.407  36.569  14.953
89705W        W59586   6.709  25.532  11.906
89706W        W59587   6.202  44.490  12.037
89707W        W59588  20.711  29.500   1.262
89708W        W59589  29.553  35.364   3.716
89709W        W59590   0.807  39.966   3.666
89710W        W59591  40.032   2.419  12.870
89711W        W59592  17.156  35.002   1.819
89712W        W59593  19.565   9.342  13.985
89713W        W59594  24.562   8.286   1.227
89714W        W59595  24.159  44.415  13.899
89715W        W59596  23.522  23.511  12.907
89716W        W59597  37.854  20.674  13.841
89717W        W59598  37.964  33.056  10.947
89718W        W59599  11.700   1.919  14.421
89719W        W59600  43.942  40.345   4.281
89720W        W59601  11.852  17.585  13.997
89721W        W59602  20.107  10.354   4.741
89722W        W59603  44.288  16.087  11.091
89723W        W59604  14.683  20.709  13.990
89724W        W59605  35.023  34.043  12.962
89725W        W59606   2.399  25.545  12.544
89726W        W59607  41.991   9.160   1.788
89727W        W59608  36.898   5.400   2.196
89728W        W59609   1.317   6.878  12.876
89729W        W59610  28.631  20.159  14.410
89730W        W59611  30.528  18.249   0.245
89731W        W59612  36.947  13.205  10.580
89732W        W59613  15.626  39.851   3.762
89733W        W59614  12.227  14.813  12.355
89734W        W59615  20.050  38.941  12.874
89735W        W59616  11.216  26.462   4.331
89736W        W59617  30.608  31.094  14.797
89737W        W59618   8.188  35.525   3.318
89738W        W59619  40.898  38.494   1.401
89739W        W59620  40.452   4.417   1.718
89740W        W59621  29.123  43.501  12.420
89741W        W59622  25.113  41.798  12.858
89742W        W59623  36.576  40.920  12.359
89743W        W59624  31.114  11.212  10.107
89744W        W59625  10.372   5.226   4.623
89745W        W59626  41.379  32.536  14.413
89746W        W59627  25.632  24.585   2.681
89747W        W59628  43.847  20.229  14.396
89748W        W59629  15.182  40.384  13.794
89749W        W59630  43.999  20.670  11.915
89750W        W59631  15.098   2.331   3.848
89751W        W59632  39.827  35.877  13.461
89752W        W59633  14.589  34.938   4.321
89753W        W59634  40.012  20.562  11.393
89754W        W59635  36.039   4.892   3.285
89755W        W59636  16.207  44.260  12.864
89756W        W59637  38.887  37.952   4.742
89757W        W59638  25.197  26.020  13.482
89758W        W59639  31.530  41.293   3.208
89759W        W59640   6.248  22.233  10.981
89760W        W59641  37.859   8.856  12.507
89761W        W59642  12.185  43.917   2.864
89762W        W59643  43.806  12.674   2.378
89763W        W59644  13.779   0.803  13.543
89764W        W59645  40.499  23.206   1.268
89765W        W59646   8.825  35.552   4.318
89766W        W59647  41.407  19.102  14.484
89767W        W59648  35.056  20.114   4.758
89768W        W59649  27.096  40.414   4.310
89769W        W59650  12.817  34.546  12.481
89770W        W59651   9.672  24.654   4.613
89771W        W59652  42.874  37.405  13.323
89772W        W59653  20.627  30.984   3.781
89773W        W59654  35.005  22.999  11.537
89774W        W59655   8.695  33.422   0.736
89775W        W59656  10.317  28.615   2.724
89776W        W59657  40.919   1.848   3.681
89777W        W59658  17.203  34.042  13.458
89778W        W59659  16.143  37.526   4.766
89779W        W59660   3.398  13.812  11.484
89780W        W59661   3.778  42.007   0.406
89781W        W59662   8.340  29.427  10.547
89782W        W59663  18.105  12.335   0.815
89783W        W59664   0.916  26.573   1.236
89784W        W59665   0.806  34.905   1.354
89785W        W59666  13.687  38.448  10.484
89786W        W59667  33.554  24.609  13.434
89787W        W59668   2.930  28.932   2.817
89788W        W59669  35.043  26.007  12.524
89789W        W59670   7.849  30.418   3.374
89790W        W59671  15.207   2.314  12.938
89791W        W59672  35.489  18.164  11.482
89792W        W59673  15.749  37.858   5.132
89793W        W59674  41.029  41.451  13.321
89794W        W59675  27.621  24.033  10.528
89795W        W59676  35.022  22.703   2.375
89796W        W59677  18.693   6.350  14.780
89797W        W59678  33.570  36.842  10.511
89798W        W59679  44.290   5.309  13.414
89799W        W59680  35.901  27.644  14.980
89800W        W59681  40.359  32.051   3.193
89801W        W59682   6.879  41.451  14.492
89802W        W59683  30.102  41.856   4.812
89803W        W59684   5.717  40.797   1.351
89804W        W59685   4.389  34.532   2.870
89805W        W59686  23.089  11.299  14.494
89806W        W59687  16.804  11.743  11.408
89807W        W59688  30.653  39.556  14.002
89808W        W59689  37.388   4.268  11.874
89809W        W59690  41.963   4.429   2.294
89810W        W59691  17.086  20.764   0.828
89811W        W59692  10.637  24.519  12.430
89812W        W59693  18.634  15.803  11.062
89813W        W59694  39.543  32.626  14.798
89814W        W59695  19.745  15.755   4.734
89815W        W59696   5.330  21.198   1.866
89816W        W59697  21.726  11.812   4.189
89817W        W59698  22.668   0.802  13.475
89818W        W59699  28.018  39.027   1.364
89819W        W59700  38.408   0.473  12.917
89820W        W59701  25.205  41.987   1.339
89821W        W59702  39.015  15.601   1.813
89822W        W59703   8.260  28.502   3.211
89823W        W59704  28.148  25.690  12.060
89824W        W59705  19.633   0.281   0.871
89825W        W59706  14.770  42.804  13.429
89826W        W59707  25.051  35.952  10.904
89827W        W59708   2.964  24.150   4.781
89828W        W59709  22.568  26.060  12.381
89829W        W59710  16.096  31.972   3.735
89830W        W59711   6.818  21.102  12.545
89831W        W59712  26.568  29.992  12.049
89832W        W59713  39.830  32.572  14.915
89833W        W59714  32.596   5.806  12.410
89834W        W59715  14.106  29.589   1.862
89835W        W59716  34.574  44.345   0.266
89836W        W59717  25.680  28.093  10.583
89837W        W59718  24.529  31.031  10.997
89838W        W59719   8.164  39.039   3.335
89839W        W59720  22.245  13.147  13.987
89840W        W59721  39.482  13.345  13.361
89841W        W59722  19.068  27.473  11.584
89842W        W59723  42.940   8.404  14.319
89843W        W59724  12.360  33.082  13.056
89844W        W59725  34.405  11.339   2.727
89845W        W59726   9.296  18.555   0.463
89846W        W59727  29.621  10.645  11.895
89847W        W59728  35.901  25.992   4.124
89848W        W59729   2.745  25.509  14.382
89849W        W59730  22.189   9.261  10.897
89850W        W59731  35.092  11.237   0.783
89851W        W59732  32.033  17.139  10.617
89852W        W59733  40.911  13.781   2.283
89853W        W59734  16.265  25.014  13.832
89854W        W59735  41.035  26.469  13.959
89855W        W59736  11.622  20.728  10.940
89856W        W59737  21.258  35.985  13.867
89857W        W59738   5.392  23.597   2.885
89858W        W59739  42.394  19.709  10.488
89859W        W59740  14.262  24.530  12.453
89860W        W59741  41.034  28.104   3.767
89861W        W59742  41.908  30.482  13.466
89862W        W59743  13.332  12.620  11.480
89863W        W59744  34.437  19.741  14.821
89864W        W59745   9.337  18.751  14.357
89865W        W59746  29.145  32.885  14.431
89866W        W59747  39.874  19.167  11.451
89867W        W59748   3.221  27.151  11.906
89868W        W59749   0.422   6.835   1.727
89869W        W59750  26.551  37.509   3.279
89870W        W59751   5.906  44.451   0.968
89871W        W59752  37.923   6.852   0.398
89872W        W59753   1.806  31.118  13.920
89873W        W59754  37.925   0.746  13.824
89874W        W59755  35.979  26.964  12.829
89875W        W59756   3.360  33.100  14.902
89876W        W59757  39.517  25.128  14.984
89877W        W59758  35.433  16.605  13.346
89878W        W59759  43.336  17.600  11.588
89879W        W59760  33.433  37.403  14.346
89880W        W59761  22.727   0.261  10.148
89881W        W59762  39.475  30.456  11.985
89882W        W59763   1.274  31.020  10.580
89883W        W59764  14.316   0.486  14.502
89884W        W59765  21.090  41.351  11.478
89885W        W59766  21.565   3.443  13.899
89886W        W59767  18.269  12.633   4.174
89887W        W59768   8.189  28.064   3.283
89888W        W59769  37.952  10.773  11.383
89889W        W59770  40.546  17.075   0.908
89890W        W59771  12.803   9.366   2.244
89891W        W59772  25.581  28.966   1.838
89892W        W59773  23.584  25.497   2.274
89893W        W59774  38.939  37.926  14.415
89894W        W59775   8.208  21.743   0.922
89895W        W59776  24.076  29.475  12.915
89896W        W59777  30.610  13.311  12.067
89897W        W59778   6.418   1.839  12.829
89898W        W59779  12.641  30.422   4.181
89899W        W59780   9.290   1.270   2.379
89900W        W59781  31.450  31.969  12.561
89901W        W59782   4.841   1.304   1.808
89902W        W59783  41.360   0.456   3.793
89903W        W59784  18.774  32.992   3.220
89904W        W59785  12.222  20.137   1.228
89905W        W59786   7.389  12.661   1.292
89906W        W59787  35.423  42.349   2.306
89907W        W59788  28.122  41.830   0.482
89908W        W59789  20.115  25.611   0.934
89909W        W59790  14.129   9.343   0.737
89910W        W59791   2.901   5.224  11.410
89911W        W59792  30.052  26.564  10.590
89912W        W59793  30.598  27.970   3.807
89913W        W59794   9.767  15.190  12.402
89914W        W59795   4.832   1.478  14.379
89915W        W59796   2.443  33.574  14.505
89916W        W59797   9.681   8.665   2.869
89917W        W59798  34.500  38.048  14.318
89918W        W59799  27.012  11.779  14.459
89919W        W59800  39.954  16.610   2.683
89920W        W59801  40.451  16.107   0.290
89921W        W59802   9.378  31.412   0.763
89922W        W59803  38.551   4.830   3.858
89923W        W59804  32.893   9.750   1.892
89924W        W59805  26.610  33.434   2.247
89925W        W59806  21.042  37.412  13.964
89926W        W59807   2.418   4.317   1.799
89927W        W59808  16.234  17.715  10.987
89928W        W59809   8.289  26.131  14.911
89929W        W59810  32.576   1.368   4.706
89930W        W59811  40.317  16.621  11.929
89931W        W59812  32.620  16.074   3.149
89932W        W59813  38.076  33.388  10.472
89933W        W59814  12.719  15.614  11.492
89934W        W59815  40.019  17.132   2.788
89935W        W59816  19.742  34.878  14.444
89936W        W59817  25.057  34.493   3.224
89937W        W59818   4.773  26.593   2.199
89938W        W59819  38.526  21.601  11.987
89939W        W59820   7.889  36.031  13.421
89940W        W59821  14.626  23.616   0.749
89941W        W59822  21.123  38.900   2.857
89942W        W59823  30.476   6.797   3.822
89943W        W59824  35.911  21.724  12.466
89944W        W59825  12.679  29.118   1.390
89945W        W59826  13.604  21.650  13.916
89946W        W59827  21.645  12.323   1.763
89947W        W59828  31.976  19.134   1.354
89948W        W59829  27.618  11.700  14.325
89949W        W59830  44.836  16.683   3.186
89950W        W59831  22.602  25.133   3.651
89951W        W59832   7.321  23.048  14.851
89952W        W59833  43.360   7.341   2.345
89953W        W59834  30.122  19.077   1.280
89954W        W59835   2.305  42.442   3.845
89955W        W59836  34.946   3.712  13.003
89956W        W59837  39.489  35.914   4.598
89957W        W59838  21.670   0.348  10.614
89958W        W59839  22.600  41.977   4.257
89959W        W59840   0.393  18.053  10.624
89960W        W59841   8.756  11.194  11.088
89961W        W59842  35.386  17.086   1.267
89962W        W59843  22.692  39.964   4.665
89963W        W59844  33.963  33.408  12.049
89964W        W59845  33.516  20.245  12.823
89965W        W59846  29.965   6.848  12.576
89966W        W59847  43.980  11.196  12.339
89967W        W59848   7.228  41.918   1.266
89968W        W59849   5.393   0.970   0.462
89969W        W59850   9.269   5.850   0.943
89970W        W59851  15.240  37.088  14.900
89971W        W59852  19.061  25.974  11.974
89972W        W59853  41.512   2.373   4.241
89973W        W59854  35.442  37.559   3.725
89974W        W59855  35.049   1.244  14.761
89975W        W59856  24.532   3.461   9.994
89976W        W59857  27.053  18.574   1.300
89977W        W59858  43.893   6.697   3.306
89978W        W59859  14.750   8.704   4.814
89979W        W59860  41.322  43.892   4.215
89980W        W59861  26.657   5.803  10.989
89981W        W59862  24.227   0.848   2.712
89982W        W59863  32.926   9.805  12.385
89983W        W59864   9.786   4.768   0.838
89984W        W59865  21.669  42.452  11.945
89985W        W59866  35.069   6.275   0.427
89986W        W59867  22.244  27.006   3.848
89987W        W59868  25.168  18.203  14.352
89988W        W59869  16.090  10.270  13.933
89989W        W59870  10.879  41.537  11.905
89990W        W59871  33.104   6.884  10.493
89991W        W59872   6.242  25.549   1.722
89992W        W59873   7.411  42.355   3.222
89993W        W59874  16.266   5.722   2.900
89994W        W59875  14.141  34.910  14.997
89995W        W59876  19.118  16.644   0.454
89996W        W59877   4.301  18.243   0.935
89997W        W59878  21.122  42.289   4.209
89998W        W59879  36.386  10.638   3.774
89999W        W59880   7.335  42.991   5.246
90000W        W59881   0.958  30.432   2.717
90001W        W59882   9.383  17.257   1.437
90002W        W59883  10.778   0.880  14.950
90003W        W59884  30.551  41.800   0.377
90004W        W59885  20.095  37.530   3.821
90005W        W59886  14.769  20.654  14.999
90006W        W59887   5.304   5.810  14.853
90007W        W59888  17.147  27.106   0.325
90008W        W59889  13.795  16.576   4.744
90009W        W59890  15.709  21.019   4.287
90010W        W59891  14.111  15.155  13.004
90011W        W59892  32.598  15.177  10.549
90012W        W59893  34.978  42.956  13.341
90013W        W59894  19.567   4.258   1.853
90014W        W59895  24.045  11.708   3.823
90015W        W59896  33.548  42.935   0.393
90016W        W59897  35.010  43.785  12.887
90017W        W59898  37.858   5.850  14.458
90018W        W59899  17.636   6.801   1.702
90019W        W59900   2.778  44.295  14.970
90020W        W59901  44.432  39.871  14.778
90021W        W59902  25.116  43.893  12.458
90022W        W59903   2.865  24.097  11.393
90023W        W59904  31.038   3.756  12.368
90024W        W59905  18.102  44.812  14.479
90025W        W59906  28.961   6.716   1.244
90026W        W59907  14.600  22.678  13.975
90027W        W59908  42.807  11.750   3.330
90028W        W59909   0.951   3.844   0.811
90029W        W59910  32.451  28.459  13.446
90030W        W59911  25.490   0.374   0.452
90031W        W59912  22.719   2.782   1.371
90032W        W59913  18.623  15.667   1.322
90033W        W59914  35.440  16.195  14.317
90034W        W59915  35.473  36.523  10.627
90035W        W59916  27.180  40.531  12.420
90036W        W59917   1.840  36.488  14.314
90037W        W59918   8.210  37.488  11.570
90038W        W59919  23.703   0.356   1.881
90039W        W59920  14.124   0.451   2.377
90040W        W59921  37.465  44.927  14.911
90041W        W59922  12.260  36.572   3.336
90042W        W59923  40.518  23.543   3.808
90043W        W59924  42.776  32.122   0.345
90044W        W59925  43.473  13.681  11.040
90045W        W59926   4.281  19.060  14.940
90046W        W59927   7.735   4.933   0.261
90047W        W59928  30.155  13.721  12.863
90048W        W59929   6.252  27.950   9.927
90049W        W59930   7.249  42.353   0.937
90050W        W59931  18.184   7.409  14.510
90051W        W59932  21.693  35.897  11.110
90052W        W59933  40.844  15.676   1.358
90053W        W59934  30.513  30.929  13.858
90054W        W59935  36.057  13.609  10.410
90055W        W59936   6.792  16.712  14.436
90056W        W59937  18.617  10.649  12.571
90057W        W59938  10.787  42.016   4.834
90058W        W59939  18.569  34.420   5.260
90059W        W59940  42.310   5.748   1.284
90060W        W59941  31.513  23.623   4.194
90061W        W59942  37.836   8.701   4.686
90062W        W59943  18.050  34.027  13.478
90063W        W59944  36.915  27.538  12.834
90064W        W59945  24.046  24.507   2.830
90065W        W59946  10.806  30.009  12.900
90066W        W59947  32.430  30.952  13.999
90067W        W59948  20.125   4.751  12.425
90068W        W59949  43.340  12.828  10.506
90069W        W59950  11.147  22.995  13.921
90070W        W59951  22.083  13.760   3.210
90071W        W59952   0.389  32.450  12.989
90072W        W59953  40.512  20.621  12.928
90073W        W59954  23.159  25.594  14.819
90074W        W59955  23.612  28.638  13.327
90075W        W59956  12.125  12.177  12.007
90076W        W59957  20.706   3.774  13.404
90077W        W59958   6.305  17.151  11.024
90078W        W59959  39.471  20.089  13.423
90079W        W59960  32.594  27.998   1.417
90080W        W59961  40.304  37.976   1.290
90081W        W59962  31.403  40.886  12.532
90082W        W59963  17.698  14.154  12.525
90083W        W59964  42.501  37.062   3.758
90084W        W59965  15.105  39.880   2.820
90085W        W59966  21.609  34.973   1.865
90086W        W59967   1.735  38.027   4.741
90087W        W59968   9.870  28.135   4.742
90088W        W59969  11.801  42.905   0.337
90089W        W59970  24.716  14.259   0.423
90090W        W59971   9.258  35.031   1.289
90091W        W59972  19.655  11.850  10.460
90092W        W59973  36.053  21.625   1.412
90093W        W59974  42.882   1.417   3.697
90094W        W59975  22.542  28.526  13.498
90095W        W59976  43.812  38.435   2.268
90096W        W59977   3.380  13.789  13.949
90097W        W59978  21.676  32.483  11.089
90098W        W59979  18.201  29.588   2.195
90099W        W59980  12.660  24.577   4.309
90100W        W59981  31.910  43.376  14.343
90101W        W59982  20.762  37.033  13.518
90102W        W59983  22.502  25.973   3.319
90103W        W59984  42.431  38.826   0.794
90104W        W59985  33.531   5.723   2.219
90105W        W59986  33.578  13.747  11.054
90106W        W59987   1.826  24.194   1.387
90107W        W59988  15.765  38.448   0.305
90108W        W59989  11.240   3.820  14.839
90109W        W59990  25.975  30.438   2.392
90110W        W59991  42.478  34.550  12.450
90111W        W59992  43.359   8.202   4.170
90112W        W59993  41.471   2.823   3.217
90113W        W59994  39.398   7.820  10.906
90114W        W59995  23.165  13.625  14.371
90115W        W59996   7.277  24.638  10.930
90116W        W59997   0.979  36.884   2.341
90117W        W59998  25.032   9.323  13.061
90118W        W59999  14.236   0.478   3.276
90119W        W60000  20.692   4.425   3.253
90120W        W60001   4.911   5.430  14.914
90121W        W60002  38.964  12.317   3.327
90122W        W60003  20.598  10.737   4.652
90123W        W60004  44.332  22.026  14.028
90124W        W60005  41.951  41.984   3.205
90125W        W60006   6.830  28.987  12.025
90126W        W60007  38.819  21.058   9.972
90127W        W60008  21.602  31.439  12.428
90128W        W60009  40.467  42.505   1.440
90129W        W60010  31.040  44.468   4.181
90130W        W60011  37.386  15.171   4.300
90131W        W60012  23.238  17.219   3.656
90132W        W60013  12.712  10.762  14.831
90133W        W60014  27.582  17.667   1.887
90134W        W60015   0.891   1.819  10.076
90135W        W60016  35.478  36.992  13.813
90136W        W60017  15.326   8.783  12.986
90137W        W60018  24.117   5.805  10.146
90138W        W60019  33.889  11.776  12.392
90139W        W60020  21.681  40.337   0.458
90140W        W60021  14.252  15.151  11.951
90141W        W60022  39.466  21.145   4.344
90142W        W60023   1.356  44.949  11.886
90143W        W60024  15.654  34.901  13.956
90144W        W60025  43.510  39.388  10.966
90145W        W60026  33.444  22.174   1.748
90146W        W60027  12.795  28.161  14.309
90147W        W60028   4.778  29.441  11.543
90148W        W60029  31.611   9.775   4.142
90149W        W60030   5.760   0.309   4.138
90150W        W60031  35.965  42.920   2.799
90151W        W60032  16.224  29.989   1.818
90152W        W60033   5.221  42.421  13.063
90153W        W60034  33.894  31.028  13.463
90154W        W60035  40.538  36.893   4.834
90155W        W60036  15.662  41.371   3.317
90156W        W60037  19.539  27.170   0.267
90157W        W60038   9.831  16.571   5.784
90158W        W60039  36.876  28.662  12.418
90159W        W60040  21.172  36.005   4.215
90160W        W60041  44.301  18.206  10.146
90161W        W60042  41.934  32.561  12.455
90162W        W60043  20.704  40.395  10.918
90163W        W60044  38.473  29.531   4.152
90164W        W60045   9.216  34.395   0.440
90165W        W60046  17.283   1.424  12.516
90166W        W60047  12.711  19.119  14.382
90167W        W60048  17.261  29.955  14.397
90168W        W60049  20.177  31.560  12.876
90169W        W60050  22.599  14.141  13.839
90170W        W60051  26.567  23.105   1.355
90171W        W60052   0.909  15.693   0.424
90172W        W60053  34.010   4.405   1.397
90173W        W60054   5.403  42.960   1.764
90174W        W60055  12.139  30.142   1.845
90175W        W60056  43.443  10.301  11.865
90176W        W60057  24.645  34.463   1.216
90177W        W60058   9.196  38.036   2.223
90178W        W60059  37.882  39.507  13.965
90179W        W60060  25.526  30.487  13.426
90180W        W60061  24.051  12.683   0.780
90181W        W60062  12.199  12.172   3.181
90182W        W60063   1.756  41.405   0.272
90183W        W60064   7.665  20.629  13.311
90184W        W60065   3.942  40.487   4.662
90185W        W60066   6.796  26.647   2.866
90186W        W60067   3.806  30.163  14.844
90187W        W60068  32.997  20.076  12.932
90188W        W60069   1.867  12.628   2.849
90189W        W60070  32.116  15.220   2.804
90190W        W60071  26.979  19.608  13.507
90191W        W60072  32.015  13.846  14.885
90192W        W60073  10.271  37.450  11.073
90193W        W60074  18.629  38.845   1.727
90194W        W60075  18.167  43.469  14.993
90195W        W60076   7.803  19.199   3.674
90196W        W60077  15.204  26.646   3.329
90197W        W60078  30.010  11.139   4.618
90198W        W60079   6.297  33.063   4.306
90199W        W60080  21.184  19.213  12.575
90200W        W60081  15.158  25.156  13.341
90201W        W60082  24.561   4.299   0.884
90202W        W60083  44.901  20.635   1.744
90203W        W60084  27.116  35.922   4.643
90204W        W60085  19.255  30.120  14.015
90205W        W60086  39.382  23.729  11.044
90206W        W60087   7.842  32.591  12.978
90207W        W60088  11.632  13.195  12.974
90208W        W60089  17.110  42.314  10.443
90209W        W60090  31.401  29.969  12.917
90210W        W60091  19.692   1.367   1.432
90211W        W60092   1.237  16.117   0.460
90212W        W60093   4.243  26.087   4.732
90213W        W60094  40.447  21.040  11.061
90214W        W60095   6.403  25.515  11.862
90215W        W60096  38.842   6.822  11.913
90216W        W60097  19.179   9.332   2.837
90217W        W60098  29.950  39.026  10.610
90218W        W60099   1.456  36.870   3.638
90219W        W60100  43.877  19.736  14.980
90220W        W60101  19.223  43.350   1.442
90221W        W60102  35.433  13.652   1.779
90222W        W60103  44.343  34.023   3.855
90223W        W60104  18.615  11.337  13.918
90224W        W60105  36.389  37.394  14.449
90225W        W60106  27.590  36.355  14.836
90226W        W60107  29.931   3.815   3.673
90227W        W60108  35.380  18.122   4.118
90228W        W60109  22.014   1.804   1.706
90229W        W60110  24.643  38.908   0.264
90230W        W60111   9.830   7.333   4.813
90231W        W60112  39.386  22.084  14.358
90232W        W60113  42.895  24.554  12.400
90233W        W60114   5.740  27.171   4.278
90234W        W60115  26.015   3.367   3.191
90235W        W60116  30.924  13.262   1.810
90236W        W60117  42.318  39.471  14.482
90237W        W60118  20.730  34.970   4.275
90238W        W60119  24.169  37.448  14.847
90239W        W60120  34.497   2.935  14.446
90240W        W60121  23.156   8.850   4.766
90241W        W60122  39.844  41.428   0.264
90242W        W60123  41.342  24.131  13.440
90243W        W60124  10.260   4.289   4.253
90244W        W60125  42.780   4.447   4.227
90245W        W60126  17.678  33.438   2.672
90246W        W60127   2.447  17.202  12.383
90247W        W60128  42.393   2.854  10.496
90248W        W60129   0.926  28.515   4.268
90249W        W60130  39.534  19.740   4.830
90250W        W60131  16.253  24.032  14.007
90251W        W60132  19.602  39.900  12.874
90252W        W60133  25.516   7.850  12.843
90253W        W60134  21.061   4.276  14.318
90254W        W60135  11.771   9.695  12.577
90255W        W60136  20.158  41.351   1.852
90256W        W60137  19.548  25.014  11.912
90257W        W60138   2.720  13.175  10.570
90258W        W60139   4.276  37.575  14.375
90259W        W60140  11.204   4.809  14.920
90260W        W60141  23.184   3.855  12.468
90261W        W60142  31.970  33.603  14.401
90262W        W60143   0.452  38.978  12.937
90263W        W60144  40.031  44.391  11.958
90264W        W60145   4.297  27.657  13.324
90265W        W60146  40.899  17.165  12.520
90266W        W60147  38.486  31.963  12.536
90267W        W60148  18.111  30.115  11.970
90268W        W60149   3.222   8.345  14.903
90269W        W60150  24.156  23.577   2.867
90270W        W60151  17.586   0.372  10.415
90271W        W60152  10.179  16.202   5.118
90272W        W60153  36.031  18.675  10.591
90273W        W60154   0.351  30.143  10.496
90274W        W60155  26.648   3.722  14.951
90275W        W60156  22.570  16.768  13.026
90276W        W60157  40.947  42.310  13.031
90277W        W60158  23.192  26.551   0.821
90278W        W60159  28.035   3.441  11.531
90279W        W60160  16.088  31.902  14.871
90280W        W60161  18.669   2.833   0.331
90281W        W60162   8.404  44.806  13.516
90282W        W60163  38.543   1.465  10.463
90283W        W60164   5.334   3.753  14.375
90284W        W60165   2.236  31.004   1.850
90285W        W60166   4.729  43.822  14.844
90286W        W60167  15.654  39.973   3.166
90287W        W60168  44.340  26.014   3.636
90288W        W60169  35.385  16.247  11.886
90289W        W60170  33.061  41.840   3.649
90290W        W60171   5.697   4.247  14.476
90291W        W60172  36.899  38.861   1.905
90292W        W60173   7.777  44.334   5.107
90293W        W60174  25.551  32.606   4.282
90294W        W60175  13.762  20.527  14.921
90295W        W60176  20.620  31.015  12.376
90296W        W60177   7.699  15.725   4.307
90297W        W60178   1.384  23.192   2.238
90298W        W60179  26.688   5.880   0.887
90299W        W60180  42.295  38.559   3.774
90300W        W60181   5.206  33.971   2.749
90301W        W60182  20.185  27.063  13.796
90302W        W60183  15.263  34.113   2.689
90303W        W60184  34.954  44.799  13.323
90304W        W60185   8.780   2.336  13.362
90305W        W60186   3.769  15.684  14.419
90306W        W60187  22.212   8.224  12.911
90307W        W60188  35.888  23.130   2.354
90308W        W60189  29.582  37.356   1.323
90309W        W60190  10.857  15.267   3.350
90310W        W60191  34.607   8.735  12.046
90311W        W60192  30.923  21.061   1.884
90312W        W60193  36.954  28.038  12.396
90313W        W60194  23.607  26.696  11.595
90314W        W60195   2.927  12.344   2.372
90315W        W60196   3.387  35.855   2.314
90316W        W60197  25.513  20.677   0.859
90317W        W60198  15.318   0.883  13.850
90318W        W60199  14.612  22.738   2.784
90319W        W60200  25.989  38.965  13.802
90320W        W60201  22.244  44.337   0.950
90321W        W60202  26.502  15.327   2.866
90322W        W60203   0.340  10.714   4.121
90323W        W60204  42.873  17.591   4.144
90324W        W60205  17.188  30.068   2.219
90325W        W60206   0.273  16.769  11.031
90326W        W60207  18.645  22.227  10.529
90327W        W60208  11.703  36.367  12.370
90328W        W60209  14.675  42.946   5.246
90329W        W60210   4.283  20.610  13.828
90330W        W60211   5.242  30.932   2.901
90331W        W60212  35.584  15.187   3.270
90332W        W60213  30.651  26.499  12.009
90333W        W60214  37.088  25.964   2.836
90334W        W60215   9.674   7.316  11.525
90335W        W60216  37.387  31.521   4.296
90336W        W60217   5.410  13.619  11.000
90337W        W60218  37.455   3.315   5.098
90338W        W60219  15.283  11.856  14.354
90339W        W60220  37.566  43.981  10.549
90340W        W60221  34.935   7.890   0.473
90341W        W60222  40.004  26.695  14.759
90342W        W60223   9.784  35.098   1.215
90343W        W60224   0.308  28.063  13.378
90344W        W60225  25.024  35.560   0.882
90345W        W60226   6.351  22.183  10.639
90346W        W60227  33.972  19.676   3.806
90347W        W60228  23.671  20.191  10.905
90348W        W60229  39.883  21.052   0.750
90349W        W60230  26.995  17.307  11.950
90350W        W60231   9.353  18.116   3.208
90351W        W60232  35.014  35.481   0.943
90352W        W60233  43.014   9.776   0.346
90353W        W60234  12.134   3.836   4.609
90354W        W60235  38.829  16.657  11.403
90355W        W60236   2.766  29.431  13.938
90356W        W60237  20.581   8.796  14.864
90357W        W60238  25.019  13.152  10.507
90358W        W60239  11.232  42.923  11.601
90359W        W60240   5.727  25.712  12.469
90360W        W60241  19.076  40.417   4.200
90361W        W60242  31.455  25.046   1.731
90362W        W60243  10.233  29.020  12.013
90363W        W60244   5.309  18.290   2.245
90364W        W60245   3.720  13.295  14.897
90365W        W60246  28.079   3.753   2.897
90366W        W60247  31.402   3.340  12.882
90367W        W60248   4.769   8.866  13.850
90368W        W60249  20.539  23.727   0.778
90369W        W60250   1.743  26.094   1.878
90370W        W60251  40.900  19.047   1.385
90371W        W60252   1.879   5.934   2.391
90372W        W60253  39.814  27.982  13.350
90373W        W60254  44.386  25.471  13.885
90374W        W60255  12.142  41.022  12.065
90375W        W60256  19.156   1.272  11.023
90376W        W60257   6.730  33.115  10.595
90377W        W60258  36.388  37.457  14.011
90378W        W60259   7.833  37.535  13.946
90379W        W60260  32.552   4.392   4.327
90380W        W60261   8.881  31.106   2.852
90381W        W60262   4.278   0.430  13.844
90382W        W60263  39.058  40.015   4.816
90383W        W60264  31.502  29.035  13.892
90384W        W60265   7.202   8.284   4.231
90385W        W60266   3.394   9.673  11.097
90386W        W60267  15.223  36.559   4.615
90387W        W60268   8.201  31.468  13.415
90388W        W60269  14.689  26.951   1.831
90389W        W60270  33.574   7.894  10.598
90390W        W60271  17.733  17.635  13.942
90391W        W60272  43.943  31.495   4.810
90392W        W60273  14.116  11.659   3.164
90393W        W60274  22.508  32.398  11.128
90394W        W60275   8.161   9.693  14.805
90395W        W60276   0.742  38.407  11.125
90396W        W60277  19.140   2.369   3.733
90397W        W60278  39.048  26.094  11.432
90398W        W60279  31.090  11.762   1.736
90399W        W60280  12.233  38.850   0.955
90400W        W60281  38.380   4.381   4.630
90401W        W60282  33.515  11.622   4.198
90402W        W60283   4.772  44.299  12.515
90403W        W60284  15.730  23.723   1.911
90404W        W60285  36.355   1.467   1.388
90405W        W60286   8.740  37.520   1.211
90406W        W60287   8.223  22.734  11.974
90407W        W60288  23.584  15.248   1.301
90408W        W60289  17.752  30.075  13.472
90409W        W60290  44.837  38.834   9.938
90410W        W60291  13.113  16.681  14.283
90411W        W60292   9.152  11.195  11.128
90412W        W60293  26.613  11.184   3.356
90413W        W60294  22.055  21.733  11.432
90414W        W60295  17.626  23.036  12.824
90415W        W60296  28.083  38.886   0.929
90416W        W60297  28.101   7.789  13.355
90417W        W60298  35.957   2.312  13.961
90418W        W60299   4.852  33.980   3.212
90419W        W60300  22.146  27.997  10.439
90420W        W60301   5.820  29.057  14.892
90421W        W60302  16.161  40.355  10.613
90422W        W60303  10.138  43.995   0.360
90423W        W60304  32.445   0.792  13.363
90424W        W60305   2.849  27.623   2.409
90425W        W60306  40.391   6.864  13.062
90426W        W60307  37.036  33.502  14.988
90427W        W60308   3.395  37.345   2.195
90428W        W60309  26.626   0.385   0.950
90429W        W60310  18.230  26.466  12.871
90430W        W60311  33.554  39.918  10.413
90431W        W60312  15.637   3.228  10.982
90432W        W60313  27.483  26.098   2.304
90433W        W60314   5.407  17.062   0.727
90434W        W60315  26.159  30.537   3.337
90435W        W60316  25.542  28.007  13.411
90436W        W60317   1.442  42.526   2.358
90437W        W60318  31.034  44.955  12.343
90438W        W60319   7.722  36.955  14.364
90439W        W60320  25.609  43.959  12.037
90440W        W60321  37.429  35.022  14.508
90441W        W60322   0.968  21.524   2.249
90442W        W60323  13.838  37.954  14.026
90443W        W60324  39.885  32.938  13.833
90444W        W60325  37.896   6.252  11.501
90445W        W60326   6.325   3.838   2.222
90446W        W60327  22.083  28.167  12.844
90447W        W60328  30.559  37.907  13.874
90448W        W60329   4.347  21.237   2.876
90449W        W60330  14.131  39.422  12.882
90450W        W60331  10.639  38.958   2.362
90451W        W60332  35.071  26.125   1.893
90452W        W60333  15.267  21.585  13.349
90453W        W60334  34.009  27.600   3.172
90454W        W60335  11.729  37.531   1.823
90455W        W60336  25.966   6.205   2.229
90456W        W60337  22.574  43.881  11.546
90457W        W60338  28.099   2.240  12.006
90458W        W60339   1.751  19.190  14.881
90459W        W60340  11.726  18.748   0.441
90460W        W60341  21.623  38.909   4.755
90461W        W60342  10.346  43.772   1.864
90462W        W60343  29.107  41.317   0.769
90463W        W60344  40.924  25.965   3.295
90464W        W60345   3.451  15.222   2.762
90465W        W60346  39.544   0.893   4.172
90466W        W60347  32.914  17.281   0.298
90467W        W60348  29.054  21.056   2.762
90468W        W60349  26.970  10.695  13.393
90469W        W60350  43.957  15.704  10.529
90470W        W60351  41.861  27.102  10.568
90471W        W60352  20.699  27.180   4.345
90472W        W60353  30.939  35.868   2.882
90473W        W60354   6.301  38.861   0.385
90474W        W60355  43.819  28.634  11.523
90475W        W60356   2.395   7.206  11.999
90476W        W60357  23.531  17.142  11.426
90477W        W60358  20.657  19.534   3.808
90478W        W60359   0.281   7.758   2.869
90479W        W60360  15.712  44.874  10.412
90480W        W60361  16.715  32.133  11.081
90481W        W60362   6.330   6.228  12.515
90482W        W60363   2.794  36.463  12.058
90483W        W60364  34.420   2.326  11.929
90484W        W60365  44.872   7.907   4.795
90485W        W60366  11.759  17.607   1.305
90486W        W60367  43.774  34.402   1.839
90487W        W60368  28.509  36.591   0.312
90488W        W60369  29.651  35.573   3.239
90489W        W60370   0.903  25.534   1.792
90490W        W60371  39.370  12.715  12.364
90491W        W60372  32.964  37.081  10.449
90492W        W60373  23.067  36.548  10.564
90493W        W60374  39.468  25.491   4.785
90494W        W60375  32.138  44.957   4.140
90495W        W60376  34.870   5.736  10.900
90496W        W60377  26.482   1.815   0.265
90497W        W60378  16.659   6.752   1.285
90498W        W60379  14.317  38.453  14.373
90499W        W60380  37.529  30.914   4.622
90500W        W60381  40.870   6.828  10.507
90501W        W60382  39.482  41.982   0.762
90502W        W60383  24.697  11.281   3.705
90503W        W60384  31.071  38.948   1.763
90504W        W60385  17.113  21.641   1.735
90505W        W60386   9.187  40.524   0.763
90506W        W60387  23.140  41.901   4.224
90507W        W60388  14.337  16.761  12.007
90508W        W60389  27.550   4.352  12.982
90509W        W60390  25.689   2.782  12.028
90510W        W60391   8.286   9.748   4.827
90511W        W60392  41.428   5.688   2.284
90512W        W60393  29.106   9.657   4.248
90513W        W60394  43.974   7.273  13.376
90514W        W60395  28.031  16.654  14.383
90515W        W60396   9.778  39.445  13.847
90516W        W60397  22.573  33.036  12.829
90517W        W60398  42.796  15.744  13.325
90518W        W60399   7.851  29.431   1.855
90519W        W60400  40.373   6.283   2.212
90520W        W60401  44.811  31.646  12.025
90521W        W60402  33.492  11.166  11.583
90522W        W60403  30.939  15.120  10.941
90523W        W60404   6.212  36.478   0.452
90524W        W60405  23.992  18.692   1.863
90525W        W60406  32.141  14.653  12.027
90526W        W60407  23.196  22.070   1.302
90527W        W60408  17.129  23.606  11.042
90528W        W60409  31.067  33.580   3.748
90529W        W60410  24.018  26.163   4.786
90530W        W60411  16.809   8.272  10.525
90531W        W60412   3.315  31.954   2.866
90532W        W60413   8.677  22.663  14.859
90533W        W60414  13.314  24.585   1.732
90534W        W60415   1.387  15.606   3.754
90535W        W60416  43.434  32.491   2.193
90536W        W60417  43.389  36.549   1.343
90537W        W60418   5.898   9.874   2.815
90538W        W60419  20.174  38.535  13.034
90539W        W60420  41.461  39.444  11.014
90540W        W60421  44.483  33.537  10.979
90541W        W60422  21.086   6.786  14.801
90542W        W60423  33.054  10.728   4.254
90543W        W60424   0.434  14.769  12.935
90544W        W60425   6.765   0.278   4.225
90545W        W60426  12.617  25.074  10.598
90546W        W60427  34.533   1.946  10.924
90547W        W60428  40.480  43.367  12.038
90548W        W60429   3.809  12.636   2.201
90549W        W60430  43.348  37.382   0.910
90550W        W60431  31.080  42.342  11.435
90551W        W60432   5.725  33.941  12.844
90552W        W60433   9.183  13.821   2.247
90553W        W60434  20.262  17.559  12.381
90554W        W60435  14.288   1.922   1.261
90555W        W60436  28.657  12.309  13.328
90556W        W60437   8.302  13.298   1.341
90557W        W60438   9.838  32.458  13.329
90558W        W60439  31.540  17.561  11.046
90559W        W60440  12.299  27.998  13.821
90560W        W60441  31.427  26.478  12.511
90561W        W60442  38.896  18.756   4.719
90562W        W60443  12.640  29.576   4.645
90563W        W60444  28.589  29.136  12.843
90564W        W60445  39.065  32.566  11.005
90565W        W60446   3.408  22.711  13.923
90566W        W60447  38.866   8.809  12.985
90567W        W60448  33.926  15.151  14.292
90568W        W60449  10.142  35.410  13.996
90569W        W60450  17.205  44.910  11.896
90570W        W60451  23.606   1.270   1.849
90571W        W60452  22.144  12.853   0.916
90572W        W60453  22.236  14.197   4.687
90573W        W60454  43.402  39.349  14.796
90574W        W60455  13.312   1.967  14.961
90575W        W60456  20.058  22.681  12.902
90576W        W60457  27.460  40.448  12.012
90577W        W60458  19.117  23.033  13.313
90578W        W60459  42.886  41.521  12.481
90579W        W60460  21.207  36.508  14.319
90580W        W60461  17.683  18.172  13.850
90581W        W60462   2.810   6.820   2.740
90582W        W60463   4.217  38.858   1.778
90583W        W60464  13.664  26.109   4.836
90584W        W60465   4.714  39.460   4.200
90585W        W60466  22.577   6.182  13.046
90586W        W60467  22.581  34.605   0.782
90587W        W60468  12.805  28.996  12.861
90588W        W60469   8.816  42.942   5.179
90589W        W60470  24.588  36.380  12.949
90590W        W60471  19.711   0.835  11.057
90591W        W60472   1.869   8.314   2.341
90592W        W60473  28.466  22.110   1.377
90593W        W60474   2.905  30.558  10.564
90594W        W60475  41.507  43.349   3.791
90595W        W60476  11.330  12.222  12.538
90596W        W60477  13.783  41.409  13.977
90597W        W60478  21.614  35.014  12.427
90598W        W60479  12.124   0.809  13.917
90599W        W60480  29.440  10.278  11.020
90600W        W60481  36.492  24.081   3.366
90601W        W60482  40.934  27.673  12.957
90602W        W60483  32.042  40.476  10.516
90603W        W60484  37.568  40.013   1.882
90604W        W60485   8.847  19.270  12.038
90605W        W60486  15.662  10.776   2.891
90606W        W60487   1.951  23.238  13.521
90607W        W60488  29.036   8.805   2.303
90608W        W60489  21.539  34.987   3.271
90609W        W60490  37.999   2.860  14.283
90610W        W60491  22.617  14.816  14.772
90611W        W60492  24.478  17.157   4.264
90612W        W60493  15.611  18.273   3.779
90613W        W60494  26.627  26.185  13.935
90614W        W60495  10.277  17.725  10.628
90615W        W60496  32.083  43.376  14.875
90616W        W60497  41.470  33.386   1.284
90617W        W60498  10.664  27.474   1.915
90618W        W60499   8.754   4.845  12.450
90619W        W60500  17.725  42.832   2.348
90620W        W60501   6.193  20.729  12.987
90621W        W60502  20.196  37.949  14.004
90622W        W60503  32.053  15.596  10.469
90623W        W60504  33.451  35.527  10.921
90624W        W60505  30.490  11.674   0.251
90625W        W60506   8.751   8.685   3.667
90626W        W60507   6.330  12.176   0.279
90627W        W60508  19.649  43.953   2.248
90628W        W60509  11.277   0.261  14.284
90629W        W60510   9.337   3.225  14.967
90630W        W60511  19.729  32.042  13.339
90631W        W60512  13.296  34.445  14.894
90632W        W60513  30.138  36.576   2.733
90633W        W60514  27.517  34.539  11.950
90634W        W60515   4.357  33.426   1.218
90635W        W60516  19.722  33.416  14.462
90636W        W60517  35.405  27.626   3.776
90637W        W60518  19.714  14.695  11.894
90638W        W60519   4.356  39.911   0.356
90639W        W60520  16.712  11.866  13.959
90640W        W60521  28.162   8.843   3.219
90641W        W60522  25.072   4.756   1.892
90642W        W60523  33.990  23.135  10.429
90643W        W60524  21.555  29.596  14.010
90644W        W60525  30.453  36.562   4.272
90645W        W60526  13.613  35.932   1.890
90646W        W60527  37.865  23.176  11.015
90647W        W60528  41.401  41.870   4.119
90648W        W60529  26.502  24.537   4.345
90649W        W60530  24.709   7.362   1.853
90650W        W60531  34.884  14.153   5.283
90651W        W60532   0.326  39.535  14.474
90652W        W60533   6.203  13.716  10.477
90653W        W60534  32.539  27.028  10.926
90654W        W60535  29.999  42.903  12.380
90655W        W60536  16.708  10.227   4.288
90656W        W60537  41.362   3.954  14.406
90657W        W60538  13.259  43.860   4.150
90658W        W60539  12.726  27.180   2.765
90659W        W60540  14.654  36.957  14.996
90660W        W60541  40.861  42.809  14.462
90661W        W60542  17.063  29.456   1.309
90662W        W60543  10.277  31.019   2.356
90663W        W60544  12.678   5.862  14.890
90664W        W60545  14.104  36.588  11.586
90665W        W60546  34.394  20.530   1.706
90666W        W60547  11.622   3.891   2.179
90667W        W60548  27.614  20.645   2.364
90668W        W60549  29.036  34.538  14.811
90669W        W60550   2.461   2.940   2.244
90670W        W60551   9.655   7.883   2.709
90671W        W60552  25.633  36.427  10.538
90672W        W60553  24.644  24.208   4.669
90673W        W60554  44.976   7.300  11.488
90674W        W60555  35.507   1.322   5.298
90675W        W60556  17.656  32.932  11.555
90676W        W60557  38.525  31.912   3.839
90677W        W60558  11.178  23.656  13.872
90678W        W60559   9.870  30.910   1.775
90679W        W60560  22.523  30.524   1.823
90680W        W60561  38.834   7.401   3.313
90681W        W60562   7.394   6.185  13.062
90682W        W60563  34.376  42.965  14.883
90683W        W60564  21.104   8.688  10.998
90684W        W60565  31.062  26.088  11.519
90685W        W60566  42.313   0.458   4.156
90686W        W60567  15.603  21.099   0.286
90687W        W60568  17.720   3.909  11.372
90688W        W60569  15.119   4.251  12.493
90689W        W60570  39.868   6.834   1.879
90690W        W60571  37.003  39.002   0.849
90691W        W60572  44.788   5.782   1.895
90692W        W60573  35.591  25.146   4.810
90693W        W60574   2.770  41.455  10.507
90694W        W60575  33.438  29.603   4.272
90695W        W60576  15.662  20.561   2.700
90696W        W60577  22.549  36.412   1.300
90697W        W60578  12.282   3.266   1.762
90698W        W60579  24.038  17.581  14.849
90699W        W60580  37.440  13.317  14.875
90700W        W60581   5.875   9.309   4.281
90701W        W60582  44.899  35.601  14.013
90702W        W60583  27.497  16.214   2.891
90703W        W60584  15.280   2.255   3.269
90704W        W60585  27.682  32.006  12.069
90705W        W60586   2.826   8.750   4.270
90706W        W60587  21.746  19.249   2.342
90707W        W60588  21.052  34.116  14.456
90708W        W60589  21.660   8.320  11.422
90709W        W60590   0.801  39.974  13.889
90710W        W60591   5.934   6.849  12.090
90711W        W60592  34.422   6.786   3.303
90712W        W60593  30.498  28.113  14.840
90713W        W60594  34.091  40.915   3.757
90714W        W60595   7.786  33.416  14.478
90715W        W60596  37.832  33.518   4.677
90716W        W60597  23.011  18.632   3.191
90717W        W60598  17.797  12.287   0.875
90718W        W60599  42.861  13.175  13.527
90719W        W60600  32.898   4.407  14.448
90720W        W60601  22.659  18.670   1.410
90721W        W60602   1.751   8.863  11.516
90722W        W60603  15.278  13.298   3.814
90723W        W60604  38.965  23.493  12.498
90724W        W60605  38.485  25.688  13.408
90725W        W60606  11.248  25.647   4.833
90726W        W60607   3.442   1.382   4.643
90727W        W60608  28.585  37.369  11.594
90728W        W60609  20.714   8.688  13.002
90729W        W60610  20.749  44.275  11.608
90730W        W60611  19.728  41.010   1.847
90731W        W60612   3.216  28.549  13.481
90732W        W60613   5.201  19.224  12.996
90733W        W60614  10.155  42.392   4.255
90734W        W60615  15.155   9.665   0.403
90735W        W60616   5.426  43.465  13.904
90736W        W60617  41.820  27.183  12.548
90737W        W60618  25.615   7.771  11.093
90738W        W60619   6.794  40.319  11.576
90739W        W60620  14.286  31.611   4.712
90740W        W60621  25.967   2.888   1.380
90741W        W60622   0.972  33.123  11.950
90742W        W60623  36.966   8.318  13.925
90743W        W60624  31.453  38.401  13.844
90744W        W60625  19.723   4.713   4.675
90745W        W60626  44.897  18.689  14.346
90746W        W60627  19.580  34.979  12.091
90747W        W60628  40.954  26.661  13.411
90748W        W60629  39.046   6.312  12.043
90749W        W60630  27.077  33.048   2.720
90750W        W60631   9.740  38.335  11.886
90751W        W60632  44.880  27.544  14.487
90752W        W60633  35.109  24.140   5.173
90753W        W60634  19.253  43.833   0.336
90754W        W60635  29.536  39.985   1.403
90755W        W60636   8.822  43.806  12.003
90756W        W60637  15.605  25.968  11.103
90757W        W60638  23.121  33.980   3.846
90758W        W60639  32.399  20.204   0.965
90759W        W60640  42.494  23.564   3.766
90760W        W60641  44.473  42.893   2.317
90761W        W60642  25.094  27.563  13.887
90762W        W60643   8.690  24.643   1.367
90763W        W60644  41.857   2.859  10.645
90764W        W60645  41.371  16.279   1.907
90765W        W60646  21.667  43.468   0.957
90766W        W60647   6.227  27.449   0.245
90767W        W60648  21.597   0.442   3.769
90768W        W60649  25.988  38.039  13.405
90769W        W60650  30.031   7.417  13.957
90770W        W60651  18.228  29.032   3.223
90771W        W60652  20.184   8.681   0.425
90772W        W60653  21.695   0.312  14.467
90773W        W60654  22.520   2.416  13.361
90774W        W60655  33.039  13.718  12.435
90775W        W60656  44.409  28.544  11.866
90776W        W60657  23.577  10.347  13.495
90777W        W60658  11.310  25.089   2.816
90778W        W60659  43.855  22.746   3.344
90779W        W60660  44.929  27.168  12.865
90780W        W60661  28.006  24.027  11.950
90781W        W60662   9.738   3.239   3.267
90782W        W60663  27.560   3.303  13.402
90783W        W60664  13.198  26.614  10.912
90784W        W60665   3.259  31.548   2.811
90785W        W60666  29.503  43.287  12.972
90786W        W60667  42.963  36.364  11.552
90787W        W60668  19.620  18.109  12.543
90788W        W60669  26.051  20.738  14.891
90789W        W60670   1.328  11.131   4.609
90790W        W60671  43.907  14.697   1.222
90791W        W60672   1.739  19.644   1.427
90792W        W60673  31.113   6.364   9.669
90793W        W60674  34.982   7.353  14.445
90794W        W60675  44.445  13.198  12.518
90795W        W60676  24.697  21.215  11.002
90796W        W60677   8.243  20.167  14.507
90797W        W60678   8.277  14.797  12.053
90798W        W60679  19.687  33.129   3.369
90799W        W60680  35.580   0.427  12.580
90800W        W60681   3.727   8.388  13.011
90801W        W60682  34.564   0.957   2.851
90802W        W60683   9.752  17.673   9.989
90803W        W60684  39.969  29.640   1.423
90804W        W60685  32.073  28.048  14.327
90805W        W60686  34.964   4.924  14.777
90806W        W60687  34.458   7.263  10.954
90807W        W60688  22.056  11.183  12.479
90808W        W60689  31.953   2.408  14.770
90809W        W60690  28.186  26.119  11.029
90810W        W60691  19.625  30.073   9.493
90811W        W60692  28.533  26.986   4.126
90812W        W60693  21.565  41.472   1.308
90813W        W60694   9.262  44.965  12.451
90814W        W60695  35.391  44.977   4.307
90815W        W60696  12.151  43.431   4.652
90816W        W60697  42.411  13.656   2.887
90817W        W60698  26.193   6.777  11.490
90818W        W60699  38.827  39.453  12.474
90819W        W60700  38.003  39.845  14.788
90820W        W60701  39.936  24.694  10.938
90821W        W60702  44.840  36.019  14.991
90822W        W60703  13.313  29.521  10.962
90823W        W60704  11.304  24.988  12.903
90824W        W60705  33.395   5.809   9.923
90825W        W60706  38.433  38.489   2.295
90826W        W60707  29.945   5.842   2.312
90827W        W60708  32.525   9.346  14.893
90828W        W60709   7.389  31.445   2.415
90829W        W60710  40.303  29.087   2.249
90830W        W60711  24.655  16.721   4.784
90831W        W60712  20.182   5.327   3.801
90832W        W60713  11.748  33.910  11.054
90833W        W60714  38.351  33.620  14.953
90834W        W60715  36.046  17.699   4.248
90835W        W60716  44.984   3.403   2.889
90836W        W60717  27.043  15.704   1.833
90837W        W60718   5.425   8.720   2.328
90838W        W60719  30.467  30.029   0.291
90839W        W60720  12.232  30.049   0.806
90840W        W60721  14.652  29.125  13.996
90841W        W60722  34.383  15.591   3.748
90842W        W60723  35.858  14.331   0.916
90843W        W60724  40.916  37.055   1.447
90844W        W60725  22.026  14.324  14.494
90845W        W60726  13.195   8.749  11.035
90846W        W60727  33.472  18.709   1.216
90847W        W60728  31.928  44.848   2.785
90848W        W60729  22.164  39.361  14.950
90849W        W60730  27.120  41.935  13.944
90850W        W60731  34.528  27.618   2.742
90851W        W60732  37.852  15.819  13.313
90852W        W60733  18.197  39.056  14.514
90853W        W60734  18.722   8.877  13.975
90854W        W60735   0.293  18.160  12.046
90855W        W60736  12.270  16.570   2.315
90856W        W60737  41.011  15.280  12.489
90857W        W60738  42.494  16.787  10.970
90858W        W60739  35.069  25.590  11.968
90859W        W60740  11.642  12.187  14.946
90860W        W60741  17.696  39.011  14.818
90861W        W60742  25.708  21.250   3.766
90862W        W60743  13.646  14.211   5.282
90863W        W60744  27.448  17.093  12.094
90864W        W60745  13.118   4.382  10.539
90865W        W60746  11.362  28.491  12.983
90866W        W60747  30.072  20.587  11.407
90867W        W60748  44.901  38.852  13.873
90868W        W60749  13.112  35.981   4.660
90869W        W60750  40.503  42.840  14.767
90870W        W60751  19.271  37.973   1.924
90871W        W60752   3.286  29.122   0.414
90872W        W60753  29.636  39.984  12.366
90873W        W60754  38.359  25.640  11.862
90874W        W60755  14.140  27.617   3.246
90875W        W60756  17.733  13.744  10.630
90876W        W60757  32.475  23.586  12.349
90877W        W60758  38.335  21.219   2.895
90878W        W60759  25.140  21.205  13.960
90879W        W60760   1.925   8.855  10.514
90880W        W60761  20.125  42.325   4.277
90881W        W60762  36.368   6.748  13.922
90882W        W60763   7.333  11.221   1.927
90883W        W60764  20.542  40.928  11.094
90884W        W60765  30.052   0.361  14.397
90885W        W60766  23.097  29.647  11.593
90886W        W60767  43.310  39.035  14.359
90887W        W60768  16.126  16.187   3.698
90888W        W60769  39.470   9.845  13.824
90889W        W60770   3.837  40.493  14.509
90890W        W60771  40.978   3.354  13.366
90891W        W60772  11.834  33.073  10.616
90892W        W60773  33.113  18.650  11.480
90893W        W60774  35.425  40.054   3.347
90894W        W60775   1.413   7.824  13.346
90895W        W60776  11.723   1.908  12.409
90896W        W60777   0.882   2.748   3.240
90897W        W60778  27.172  33.968   0.767
90898W        W60779   9.755   2.341  11.472
90899W        W60780  40.317   8.229   3.239
90900W        W60781  18.224  17.279  11.872
90901W        W60782  12.639   9.875  12.005
90902W        W60783  12.292  19.202   0.936
90903W        W60784  27.990  28.493  10.919
90904W        W60785  39.439  44.787   0.938
90905W        W60786  37.844   2.370   2.675
90906W        W60787  41.441  13.121   2.888
90907W        W60788  29.994  18.725   5.272
90908W        W60789  35.574  32.964   1.332
90909W        W60790   6.242  27.988  11.062
90910W        W60791  41.902  18.706  10.953
90911W        W60792  29.430   8.824   4.244
90912W        W60793  42.509  21.034   1.768
90913W        W60794  37.879  35.585  12.094
90914W        W60795  41.347  23.713   4.788
90915W        W60796  13.110  24.619   4.116
90916W        W60797  22.618  23.657   2.297
90917W        W60798  10.251   1.818  10.132
90918W        W60799   1.907   5.856   0.902
90919W        W60800  29.082  18.727  13.428
90920W        W60801   4.888  15.674   0.368
90921W        W60802  37.885   5.768  13.438
90922W        W60803  37.888  39.049   3.740
90923W        W60804  40.431  39.540  13.447
90924W        W60805   4.212  42.851  14.785
90925W        W60806  32.077   2.454  10.993
90926W        W60807  40.884  13.266   2.768
90927W        W60808  35.535  28.018   1.878
90928W        W60809  18.130   5.792   2.204
90929W        W60810  20.265  43.849   0.741
90930W        W60811  27.554  10.825  11.878
90931W        W60812  15.666  23.665  13.494
90932W        W60813  23.005  37.566  11.576
90933W        W60814  16.682  37.850  11.961
90934W        W60815  27.619  26.694   3.863
90935W        W60816  40.344  30.570   0.452
90936W        W60817  44.321  27.127   1.859
90937W        W60818   1.256  28.050   0.475
90938W        W60819  15.126  28.978   2.798
90939W        W60820  11.832  44.837  12.953
90940W        W60821  22.646   9.655  12.397
90941W        W60822  32.995  26.459   1.817
90942W        W60823  32.446  19.074  12.347
90943W        W60824  15.814  13.113   2.398
90944W        W60825   9.323   0.280   0.891
90945W        W60826   1.439  30.461   3.375
90946W        W60827  25.131   5.332   3.174
90947W        W60828  26.668  41.032  13.512
90948W        W60829   9.163  37.338   9.934
90949W        W60830  39.410  16.699   4.623
90950W        W60831  14.193   0.828   5.182
90951W        W60832   7.333  35.371  10.589
90952W        W60833  12.283   7.685   1.933
90953W        W60834  38.985  35.946  12.041
90954W        W60835  43.446  25.567  12.078
90955W        W60836   2.738  15.111  11.877
90956W        W60837  20.686  39.396  14.819
90957W        W60838  29.080  14.121   0.846
90958W        W60839  39.393  43.270   0.854
90959W        W60840  14.723  19.106  14.761
90960W        W60841   1.404  38.015   4.176
90961W        W60842  19.170  20.186   2.680
90962W        W60843  40.006  32.470   2.418
90963W        W60844   0.950  15.176  11.973
90964W        W60845  27.061  32.047  10.406
90965W        W60846  27.687  24.981  10.410
90966W        W60847  13.609   2.836  11.458
90967W        W60848  23.689  31.912  14.787
90968W        W60849  34.487  27.578  14.334
90969W        W60850  10.158   3.801   0.947
90970W        W60851  43.479   0.839   1.437
90971W        W60852   2.226  27.123   3.151
90972W        W60853  22.675  19.064  12.937
90973W        W60854   6.201  37.874  10.579
90974W        W60855   0.964  24.218  13.996
90975W        W60856   8.333  33.441   0.322
90976W        W60857  24.623  39.488   3.353
90977W        W60858   8.245  36.461   2.690
90978W        W60859  22.200  21.753  13.816
90979W        W60860  36.969  24.724   4.236
90980W        W60861  17.300  29.950  14.844
90981W        W60862  38.928  40.523  13.329
90982W        W60863  15.658   7.911  11.449
90983W        W60864  25.163   1.928  11.878
90984W        W60865  37.525   2.751  11.442
90985W        W60866  13.205  14.680  12.010
90986W        W60867  41.450   9.884  14.500
90987W        W60868  43.338  41.973  13.454
90988W        W60869  38.535   6.400   2.285
90989W        W60870  29.669  44.822  14.346
90990W        W60871  21.570  12.713   1.268
90991W        W60872  24.093  30.004   4.335
90992W        W60873  26.697  11.725   4.732
90993W        W60874   2.936  37.899   3.676
90994W        W60875   2.349  39.892  14.857
90995W        W60876   5.888  12.173  11.451
90996W        W60877  39.559   9.819  14.426
90997W        W60878  27.184   3.891   3.835
90998W        W60879   0.780  28.647  14.805
90999W        W60880  27.638  35.554   4.161
91000W        W60881  29.101  28.637  10.453
91001W        W60882   2.821  14.688   1.260
91002W        W60883  19.668  39.468   3.648
91003W        W60884  24.567  35.483  14.875
91004W        W60885  11.211  12.305   0.247
91005W        W60886  14.736  18.705   3.782
91006W        W60887  11.632   2.911   4.158
91007W        W60888  14.606  25.669   3.158
91008W        W60889  26.098  40.521   0.956
91009W        W60890   6.720   7.255   1.898
91010W        W60891  13.342  39.047   1.437
91011W        W60892  27.630  33.461  14.454
91012W        W60893   0.460   5.844  10.911
91013W        W60894  42.921  14.237  14.278
91014W        W60895  43.498  32.068   0.330
91015W        W60896  24.126  39.523   2.834
91016W        W60897  22.127   5.705  12.058
91017W        W60898  39.513  31.476  11.981
91018W        W60899  28.570  24.494  12.989
91019W        W60900  21.642  33.073  10.536
91020W        W60901   3.318  13.110  10.413
91021W        W60902  19.548  39.033   1.301
91022W        W60903  42.396  42.979  10.988
91023W        W60904  13.297  14.682   3.379
91024W        W60905  44.488  35.934  12.998
91025W        W60906  13.258  27.056   1.437
91026W        W60907  29.104   1.405  13.436
91027W        W60908  25.654  33.397  14.950
91028W        W60909   3.813  31.608   1.912
91029W        W60910  31.081  44.424   4.808
91030W        W60911  43.442  22.053   1.774
91031W        W60912  19.562  38.023  12.858
91032W        W60913  17.702  37.060   0.455
91033W        W60914  32.583  30.575   5.111
91034W        W60915  32.423  18.061  14.916
91035W        W60916  40.470   8.858  10.124
91036W        W60917   8.834  12.739   4.151
91037W        W60918  33.485  24.579  13.954
91038W        W60919   9.164   8.329  11.960
91039W        W60920   7.881  18.699   2.399
91040W        W60921  13.246   4.777   3.286
91041W        W60922  25.113  33.917  12.530
91042W        W60923  42.955  12.290  13.011
91043W        W60924  27.600  14.169   0.352
91044W        W60925   1.446  43.451   2.266
91045W        W60926  36.487  32.409   2.234
91046W        W60927  43.853   4.718  12.942
91047W        W60928  24.006  30.442  11.062
91048W        W60929  21.152  23.585   0.304
91049W        W60930  16.594  38.844   2.857
91050W        W60931  29.053   3.443   1.274
91051W        W60932  41.945  22.036  13.834
91052W        W60933  28.132   6.202   0.792
91053W        W60934  22.252  18.746  11.978
91054W        W60935  25.208  19.564  10.965
91055W        W60936  27.580  20.552   4.612
91056W        W60937   3.797  41.492   2.236
91057W        W60938   9.378   0.473  14.010
91058W        W60939  13.605  33.077  10.955
91059W        W60940  40.038  22.136   2.415
91060W        W60941  42.344  42.326  13.547
91061W        W60942  36.395  30.134  11.998
91062W        W60943  12.692  27.557   2.689
91063W        W60944   9.225  25.541   3.251
91064W        W60945  21.533  26.629   2.262
91065W        W60946   7.254  34.010   3.306
91066W        W60947  11.137  18.739  14.932
91067W        W60948  34.433   1.735  10.540
91068W        W60949  26.974  12.682   1.302
91069W        W60950  32.988  17.204   1.213
91070W        W60951  11.622  16.076  13.419
91071W        W60952   4.701  20.061  14.982
91072W        W60953  12.671   9.230  14.326
91073W        W60954  42.861  34.379   2.853
91074W        W60955  33.955  16.159  11.052
91075W        W60956  35.072  25.029  11.526
91076W        W60957  37.426  33.004  13.923
91077W        W60958   4.254  23.652  10.636
91078W        W60959  30.641  23.636  12.001
91079W        W60960   2.795  29.487  12.378
91080W        W60961   3.417  19.151  13.485
91081W        W60962  35.537  34.496  14.965
91082W        W60963   2.750  33.130   0.374
91083W        W60964  32.579  10.167  12.027
91084W        W60965   4.798  17.765  13.346
91085W        W60966  14.706  24.692   4.331
91086W        W60967  42.490  29.638   4.336
91087W        W60968   9.859   6.203   3.731
91088W        W60969  13.111  27.186   4.318
91089W        W60970   3.896  12.116   1.444
91090W        W60971  35.566  40.906  12.393
91091W        W60972  31.507  19.154  10.582
91092W        W60973   1.255   5.416  13.805
91093W        W60974  20.626  35.875   0.772
91094W        W60975  30.452  24.724   4.734
91095W        W60976  40.489  20.646   2.231
91096W        W60977  33.053  15.308   2.330
91097W        W60978  39.468  15.220   1.703
91098W        W60979  28.467   3.216   3.222
91099W        W60980  37.973  16.149  13.482
91100W        W60981   8.728  35.854   3.309
91101W        W60982  24.629  14.316   2.383
91102W        W60983  38.404  10.274   1.814
91103W        W60984  24.021   7.669   0.283
91104W        W60985  32.403  21.618   2.374
91105W        W60986  40.471  23.728   1.881
91106W        W60987   7.806  28.675  11.547
91107W        W60988  40.319  31.633  11.021
91108W        W60989  44.924  21.193  12.071
91109W        W60990  40.331  42.501  14.779
91110W        W60991  14.727  36.355  13.431
91111W        W60992  24.538  38.528  10.542
91112W        W60993  42.363  32.449   0.406
91113W        W60994  15.750  11.150   2.677
91114W        W60995  17.698   2.935  10.582
91115W        W60996  33.481  20.217  11.584
91116W        W60997  40.020  36.567  11.395
91117W        W60998  44.754  37.060  12.373
91118W        W60999  43.788  43.336  10.462
91119W        W61000  42.357  22.129  10.954
91120W        W61001  43.328   2.235  11.397
91121W        W61002  44.832  13.186   4.750
91122W        W61003  19.575  19.177  11.104
91123W        W61004   4.316  10.781   2.360
91124W        W61005   6.740  29.667  14.832
91125W        W61006   2.231  27.073  14.802
91126W        W61007  39.490   7.192  10.591
91127W        W61008  10.226   9.291  12.823
91128W        W61009  23.505  31.897   1.836
91129W        W61010  43.850  31.101   4.685
91130W        W61011  36.437  20.032   0.405
91131W        W61012  43.420  23.043   3.283
91132W        W61013   2.721  21.586   2.776
91133W        W61014  13.239  10.155  12.029
91134W        W61015  11.842  14.219   4.621
91135W        W61016  14.111  25.578   0.444
91136W        W61017  33.109  17.683   2.707
91137W        W61018   6.285  25.598   3.720
91138W        W61019   2.790  21.085   1.835
91139W        W61020  44.434   7.755  13.864
91140W        W61021   3.316   9.269   1.336
91141W        W61022  22.631  41.527   9.968
91142W        W61023  44.444  26.068  11.077
91143W        W61024  23.646  43.964  13.986
91144W        W61025   0.973  21.532  14.931
91145W        W61026  19.045  39.420   1.774
91146W        W61027  25.469   1.359   1.240
91147W        W61028  27.460  14.707   0.936
91148W        W61029  21.083  22.560   0.736
91149W        W61030   8.182  36.357   4.221
91150W        W61031   0.976  14.165   0.261
91151W        W61032  14.107  25.146  12.372
91152W        W61033  30.501  39.399  14.304
91153W        W61034  13.602  20.126  12.436
91154W        W61035  21.156  29.089  11.496
91155W        W61036  16.775   9.228  14.006
91156W        W61037  22.593   0.895   5.253
91157W        W61038  32.534  16.811  12.984
91158W        W61039  31.632  28.031  13.792
91159W        W61040  15.228  32.913   2.243
91160W        W61041   3.256  22.132  12.035
91161W        W61042  44.002   0.848  14.294
91162W        W61043  37.389  41.924   0.423
91163W        W61044  10.178  24.483  10.556
91164W        W61045  35.869  12.780  14.386
91165W        W61046   7.683  40.437   2.414
91166W        W61047  42.951  23.134  12.092
91167W        W61048  14.182  38.488   0.949
91168W        W61049  33.920  31.411   2.813
91169W        W61050  43.432  26.052   1.265
91170W        W61051  26.495  13.314   2.275
91171W        W61052  20.090  33.483   4.206
91172W        W61053  12.139  25.648   1.879
91173W        W61054  30.421  40.406   3.264
91174W        W61055  38.565  35.435   3.155
91175W        W61056  43.382   4.298   0.789
91176W        W61057  41.006  28.667   2.419
91177W        W61058  16.619  12.806   2.406
91178W        W61059   8.899  10.143   2.737
91179W        W61060  10.649   2.434  14.003
91180W        W61061  34.499   0.376   2.796
91181W        W61062  43.779  12.671  11.857
91182W        W61063  39.015  42.930   2.797
91183W        W61064   2.957  43.316   4.652
91184W        W61065  40.832   8.755  10.618
91185W        W61066  22.193  19.193  10.639
91186W        W61067  25.021  40.507  11.550
91187W        W61068  23.051  19.245   5.133
91188W        W61069  38.986  35.557   4.735
91189W        W61070  39.058   3.375  10.596
91190W        W61071  42.388  12.178  14.927
91191W        W61072   4.249  37.037   2.406
91192W        W61073  30.094   1.330   1.861
91193W        W61074  30.995  19.592  10.107
91194W        W61075  41.933   9.341   0.737
91195W        W61076  39.943  30.457   4.736
91196W        W61077   9.710  24.611   1.764
91197W        W61078  32.563  14.309   0.297
91198W        W61079  10.154  41.466   0.266
91199W        W61080  44.374   2.963   2.844
91200W        W61081  30.128  38.392  10.454
91201W        W61082  28.622  30.442   1.325
91202W        W61083  38.540   9.285   4.832
91203W        W61084  19.192   0.377  12.360
91204W        W61085  25.195  42.512  11.602
91205W        W61086  19.090  25.119  11.113
91206W        W61087  36.920  34.560   1.840
91207W        W61088   5.790  30.094   4.762
91208W        W61089  22.158   8.358  14.883
91209W        W61090  11.816  39.865   2.777
91210W        W61091   8.406   7.362  13.990
91211W        W61092  26.512  25.974   4.133
91212W        W61093  20.768  26.027   3.325
91213W        W61094  10.869   0.304  14.831
91214W        W61095  10.325   2.291  12.488
91215W        W61096  26.973  13.676   2.669
91216W        W61097  34.539  20.683  13.847
91217W        W61098  22.521   1.418  10.508
91218W        W61099  24.511  24.701  12.861
91219W        W61100  10.856  11.189   3.747
91220W        W61101   0.940   3.454  10.138
91221W        W61102  12.671  12.325   0.865
91222W        W61103   1.961  28.450  13.971
91223W        W61104  12.134   9.683  10.533
91224W        W61105  25.495  42.997   4.321
91225W        W61106  22.603  21.126   4.798
91226W        W61107  39.538  41.934  13.323
91227W        W61108   1.400  10.164  10.500
91228W        W61109  15.676  15.721   4.241
91229W        W61110  17.586  42.302   1.329
91230W        W61111  44.758  14.808   3.291
91231W        W61112  12.635   2.445  10.426
91232W        W61113  13.642   3.863   2.270
91233W        W61114   5.390  15.195  14.339
91234W        W61115  15.791  44.348   1.444
91235W        W61116   0.945   4.908  11.594
91236W        W61117  32.928   7.882   4.171
91237W        W61118   8.374   3.812   3.727
91238W        W61119  26.676  38.072  14.389
91239W        W61120  35.527  22.193   2.231
91240W        W61121  37.462  37.440  14.833
91241W        W61122  22.569   1.357   1.729
91242W        W61123  29.076  35.599  11.089
91243W        W61124  30.029  34.956  14.908
91244W        W61125  21.710  18.247  14.299
91245W        W61126  18.100  27.607  10.558
91246W        W61127   7.367  42.494  11.903
91247W        W61128  11.167  31.507   0.348
91248W        W61129  25.973  17.078  13.344
91249W        W61130   8.229  17.186   1.326
91250W        W61131  25.212  29.943   4.745
91251W        W61132  34.445  42.485   3.833
91252W        W61133  42.838  21.609  12.407
91253W        W61134  11.203  30.649   3.350
91254W        W61135  27.589   0.751  12.997
91255W        W61136  37.580  22.190   1.429
91256W        W61137  14.319  43.465  13.059
91257W        W61138  38.957  26.669   5.097
91258W        W61139  36.555  40.435  12.860
91259W        W61140  25.194  32.603   3.278
91260W        W61141  31.628   4.774   0.876
91261W        W61142  35.524  39.816  12.046
91262W        W61143  13.167  11.299  13.878
91263W        W61144  17.237  17.781  14.890
91264W        W61145  15.308  30.530   0.854
91265W        W61146  29.121  44.287   4.246
91266W        W61147  36.444  24.153   2.407
91267W        W61148  40.993  35.965  11.477
91268W        W61149   1.966  41.853   1.881
91269W        W61150  18.240   8.900  11.488
91270W        W61151   3.327  39.476  11.946
91271W        W61152  13.843  38.324   3.218
91272W        W61153  18.702  21.659  11.557
91273W        W61154  41.430   4.423   3.384
91274W        W61155  20.182  24.576  13.445
91275W        W61156   7.217  34.412   1.316
91276W        W61157  38.378  34.035  14.348
91277W        W61158   5.912   4.411  13.509
91278W        W61159  21.044  35.475  12.951
91279W        W61160   2.821  21.176  11.424
91280W        W61161  20.169  21.713  10.999
91281W        W61162  18.635  29.087   2.878
91282W        W61163  31.531   6.681  13.914
91283W        W61164  43.869   9.331   4.600
91284W        W61165  19.090   2.273   2.180
91285W        W61166   7.855  22.558   1.843
91286W        W61167  44.311  43.452  11.448
91287W        W61168  13.297  11.853   2.265
91288W        W61169  26.970  44.493   1.900
91289W        W61170   3.774  20.710   4.299
91290W        W61171  16.312  12.143   0.437
91291W        W61172  40.370  25.573   0.316
91292W        W61173  38.433   9.826  13.432
91293W        W61174  38.374   2.359   2.667
91294W        W61175  35.544  32.606  11.001
91295W        W61176  21.580  42.830   5.140
91296W        W61177  18.099  15.600  11.042
91297W        W61178  11.836   7.805   1.439
91298W        W61179   0.452  10.845   2.782
91299W        W61180  25.030  31.588  11.955
91300W        W61181  24.200  37.389   3.215
91301W        W61182  38.399   2.253   4.276
91302W        W61183  34.940  22.129   0.440
91303W        W61184  32.457   4.332   2.753
91304W        W61185   1.245  34.061   2.342
91305W        W61186  21.560   1.402   1.348
91306W        W61187  22.120  16.667  14.348
91307W        W61188  35.500   6.223  13.978
91308W        W61189  44.010  15.182  14.920
91309W        W61190  10.137  24.654   0.929
91310W        W61191  27.511   0.462   4.732
91311W        W61192  26.613   7.861  11.555
91312W        W61193  41.332  13.834   2.416
91313W        W61194  20.044  29.103   1.249
91314W        W61195  19.113  18.296  14.412
91315W        W61196  13.147  30.164  13.309
91316W        W61197  30.621  33.123  11.509
91317W        W61198   8.290  39.988  11.429
91318W        W61199  34.020   9.162  13.872
91319W        W61200  13.121  20.237  13.917
91320W        W61201  25.082  39.452   0.839
91321W        W61202  21.072  34.551  14.510
91322W        W61203  25.115  42.815  11.539
91323W        W61204  10.214  35.382   3.232
91324W        W61205  23.233  27.529  11.463
91325W        W61206  22.135  13.766   0.837
91326W        W61207  21.711  29.090   3.212
91327W        W61208  12.274  34.579   4.687
91328W        W61209   5.744  29.039  11.054
91329W        W61210  41.522   0.762   3.824
91330W        W61211  34.082   8.843  12.829
91331W        W61212  25.103  40.371  14.017
91332W        W61213  35.980  33.104  13.873
91333W        W61214  26.073  11.626   3.838
91334W        W61215   6.751  22.617   4.329
91335W        W61216  18.602  43.897  14.948
91336W        W61217  13.281  31.094   2.775
91337W        W61218  29.136  23.999   4.817
91338W        W61219  31.461   8.818   4.174
91339W        W61220  21.239  19.684  10.980
91340W        W61221   9.764   1.277  11.569
91341W        W61222   7.316  27.524  13.396
91342W        W61223  36.997  39.529   3.214
91343W        W61224   1.955  15.242   0.438
91344W        W61225  32.930  30.632   1.902
91345W        W61226   4.841   1.308  13.921
91346W        W61227  28.075   3.319  14.501
91347W        W61228  27.984  41.873  12.380
91348W        W61229  40.442  42.985   1.842
91349W        W61230  13.124  44.826  11.032
91350W        W61231  43.452  18.606  12.980
91351W        W61232  28.127   7.225  11.090
91352W        W61233  23.140  24.140   4.240
91353W        W61234   9.254  11.732   0.478
91354W        W61235  20.564   2.418   0.407
91355W        W61236  31.544  15.719  12.504
91356W        W61237  30.038  10.306   4.646
91357W        W61238  15.323   5.254   0.479
91358W        W61239  35.598  26.551   5.218
91359W        W61240  38.997  31.095  11.861
91360W        W61241   4.373  36.095  10.464
91361W        W61242  14.683  38.056  12.527
91362W        W61243  44.348   7.266  12.418
91363W        W61244  44.900  20.195  12.059
91364W        W61245  26.141  42.002   1.915
91365W        W61246  24.528   1.465   3.347
91366W        W61247  23.143   8.734   5.161
91367W        W61248   0.300  43.425  10.609
91368W        W61249  28.665  38.903   1.768
91369W        W61250  23.212  14.193  12.485
91370W        W61251  20.190   4.245   4.137
91371W        W61252  31.040  18.712  10.576
91372W        W61253  30.934  15.210  14.997
91373W        W61254   7.368   1.811  12.439
91374W        W61255  35.417   4.251   1.377
91375W        W61256  41.407  28.975   1.440
91376W        W61257  44.784  19.653   4.199
91377W        W61258  24.074  33.558   3.841
91378W        W61259  13.135   2.903  10.460
91379W        W61260  14.829   2.747  10.604
91380W        W61261   0.372  13.798  13.913
91381W        W61262  40.970  39.509   2.392
91382W        W61263  12.732   2.271   4.217
91383W        W61264   5.377  24.215   3.176
91384W        W61265  38.003  15.197   3.762
91385W        W61266  30.545  37.386  12.401
91386W        W61267  44.493  27.056  10.501
91387W        W61268  38.024  12.636   5.207
91388W        W61269   7.870  25.633   0.799
91389W        W61270  38.067  42.425  13.841
91390W        W61271  25.662  22.526  11.096
91391W        W61272   1.831  39.929  11.555
91392W        W61273  23.595  35.040  12.512
91393W        W61274  33.400  39.036  12.974
91394W        W61275  10.826  13.259  12.086
91395W        W61276  27.971  35.520  11.544
91396W        W61277  12.277   4.922  14.960
91397W        W61278  26.132   8.254   3.816
91398W        W61279  43.347  19.574  14.932
91399W        W61280  37.425  41.326   3.303
91400W        W61281   6.393  19.722   0.786
91401W        W61282  44.402  32.602  11.042
91402W        W61283   2.829  44.838   4.777
91403W        W61284  16.223  13.173   3.793
91404W        W61285  19.047  38.051  12.860
91405W        W61286  44.405  32.596   9.972
91406W        W61287  26.973  28.459   1.751
91407W        W61288  22.709  14.818   0.839
91408W        W61289  13.267  23.141  13.447
91409W        W61290  13.268  37.409   1.274
91410W        W61291  41.320  38.883   0.267
91411W        W61292   4.795  11.310   9.953
91412W        W61293  42.513  29.530   2.765
91413W        W61294  34.910  40.442  10.605
91414W        W61295  40.021  44.889  14.909
91415W        W61296  15.249  35.423  11.461
91416W        W61297  43.329   2.854   4.669
91417W        W61298  44.500  24.029   0.931
91418W        W61299  43.392  22.086  11.928
91419W        W61300  31.026  33.534  13.527
91420W        W61301   6.919  35.959   1.815
91421W        W61302  30.447  38.334   0.784
91422W        W61303  12.288   3.444   3.256
91423W        W61304  28.014   3.824  12.026
91424W        W61305  17.770  14.769  12.011
91425W        W61306   7.355  26.147  13.975
91426W        W61307  28.984  36.374   4.602
91427W        W61308  22.667  20.697   1.250
91428W        W61309   2.842  17.575  10.550
91429W        W61310  28.171  28.510  12.873
91430W        W61311   4.838  39.955   2.226
91431W        W61312   0.459  27.610  12.567
91432W        W61313  34.932  20.222  13.975
91433W        W61314   2.827   6.254   0.889
91434W        W61315  17.293  27.657   2.180
91435W        W61316  36.858  23.156   2.727
91436W        W61317  28.152  10.198  10.507
91437W        W61318  28.173   0.294   3.744
91438W        W61319  10.804  23.154  11.528
91439W        W61320  24.230   2.921   1.865
91440W        W61321  22.585   6.694   3.702
91441W        W61322  15.266   1.810  14.363
91442W        W61323  25.656  13.777  12.965
91443W        W61324   4.926   8.816   3.177
91444W        W61325  13.690  14.118  14.004
91445W        W61326  38.056   5.197   3.634
91446W        W61327  16.785   8.672  10.902
91447W        W61328  40.906  38.935   1.289
91448W        W61329   6.846  44.829   1.715
91449W        W61330  27.040   9.332   0.260
91450W        W61331  21.608  42.425   2.762
91451W        W61332  43.901  40.049   0.391
91452W        W61333  44.313   0.493   4.608
91453W        W61334  44.392  40.982  13.048
91454W        W61335   9.666  30.102   3.636
91455W        W61336   2.372  14.263  10.898
91456W        W61337  11.296  23.689   3.352
91457W        W61338  22.502  15.821   4.754
91458W        W61339  17.761  20.249  14.780
91459W        W61340  30.598  20.608   0.785
91460W        W61341  21.155  13.666   2.890
91461W        W61342   5.406   3.891   2.688
91462W        W61343   6.280  16.756   3.342
91463W        W61344  15.324  24.537   4.275
91464W        W61345  18.291  12.771  14.813
91465W        W61346  41.890   9.696  10.602
91466W        W61347  13.845  12.730  10.530
91467W        W61348  35.439   1.348  14.808
91468W        W61349  36.015   1.356  11.430
91469W        W61350  42.447  26.169  12.004
91470W        W61351  27.168  40.837  10.574
91471W        W61352  22.720   0.492   1.376
91472W        W61353  24.016  10.303   4.204
91473W        W61354   6.785  24.042  12.022
91474W        W61355  22.614   2.772   2.895
91475W        W61356  30.558  41.382  14.448
91476W        W61357  42.982  28.122   0.327
91477W        W61358  31.531  16.678   2.325
91478W        W61359  12.766  13.744  13.382
91479W        W61360  28.647  14.319   0.356
91480W        W61361  12.208  30.479   1.393
91481W        W61362   3.825  43.390   3.776
91482W        W61363  20.048  25.985   1.798
91483W        W61364  37.945  15.590  11.951
91484W        W61365  37.895  26.529  12.989
91485W        W61366  33.088  32.976   4.258
91486W        W61367  30.158  25.130  12.077
91487W        W61368  35.480   0.335   4.715
91488W        W61369  32.631  38.934   4.317
91489W        W61370  20.216  26.532   4.828
91490W        W61371  19.054  21.039   0.343
91491W        W61372  30.969  19.759  10.456
91492W        W61373   1.762   9.152  14.001
91493W        W61374  13.262  13.114  11.492
91494W        W61375  27.490  44.783  13.043
91495W        W61376  38.043  25.028   2.267
91496W        W61377  38.003  18.657   1.813
91497W        W61378  24.082  17.603  12.387
91498W        W61379  13.186   1.777   1.234
91499W        W61380   0.258  18.243   3.640
91500W        W61381   3.414   5.733  10.598
91501W        W61382  39.455  25.028   0.338
91502W        W61383  24.557  16.107  14.975
91503W        W61384   9.857  41.322   0.423
91504W        W61385   2.410  34.435   0.328
91505W        W61386  38.034  31.059  11.895
91506W        W61387  18.673  19.258  13.508
91507W        W61388  26.589  22.221   9.936
91508W        W61389  41.500   9.203   1.339
91509W        W61390  37.361  34.072  11.927
91510W        W61391  32.009  15.806  14.916
91511W        W61392  36.506  39.832  10.447
91512W        W61393   7.821  15.299  12.519
91513W        W61394  34.506  33.549  10.456
91514W        W61395  11.863  38.507  11.426
91515W        W61396  22.197  22.141  14.337
91516W        W61397  16.090  37.056   5.132
91517W        W61398  44.935  23.626  14.956
91518W        W61399   1.913   4.212   3.661
91519W        W61400  10.255  36.010  14.358
91520W        W61401  18.257  33.896  13.004
91521W        W61402  42.978  12.746   2.356
91522W        W61403  14.816  44.325   4.176
91523W        W61404  16.574   9.162   0.443
91524W        W61405   3.438  11.766   4.114
91525W        W61406  37.016  27.558   4.336
91526W        W61407  25.185  43.307  10.938
91527W        W61408  23.110  16.197   9.583
91528W        W61409  10.652   4.358   4.156
91529W        W61410  13.680  34.011  12.499
91530W        W61411  39.042  34.478  14.505
91531W        W61412  14.256   3.750   3.651
91532W        W61413  43.363  19.701  11.517
91533W        W61414   8.396   2.919  14.314
91534W        W61415   9.849  37.034   0.776
91535W        W61416  33.424  15.233   2.389
91536W        W61417  23.545  34.928   4.140
91537W        W61418  33.005  30.477  13.024
91538W        W61419   1.483  28.502  12.029
91539W        W61420  16.798  42.319  13.818
91540W        W61421  33.486  43.812  11.479
91541W        W61422  17.072   3.800   0.785
91542W        W61423  22.612  44.382   5.229
91543W        W61424  16.162  34.552   2.888
91544W        W61425  42.434   3.837  14.427
91545W        W61426  31.100  10.810  12.416
91546W        W61427   7.802  15.609  10.134
91547W        W61428  44.759  37.483   2.349
91548W        W61429  15.138  15.730  14.382
91549W        W61430  41.458  24.169   0.918
91550W        W61431  29.561   9.759  14.303
91551W        W61432  35.477  17.227   2.707
91552W        W61433  15.634  39.928   4.703
91553W        W61434  33.094  19.164  10.621
91554W        W61435  41.860   5.930  12.532
91555W        W61436  37.958  11.707  11.093
91556W        W61437  36.849  28.460   3.322
91557W        W61438  37.878  31.509   2.267
91558W        W61439  20.229   7.307  10.946
91559W        W61440   9.735  28.937   2.375
91560W        W61441   3.716  25.684   4.237
91561W        W61442  20.641  32.454  12.872
91562W        W61443  20.622   1.327  13.015
91563W        W61444   4.759  10.866  11.077
91564W        W61445  33.986  18.570  14.881
91565W        W61446  37.952  23.070   2.397
91566W        W61447  19.611  31.489  12.062
91567W        W61448  13.276  10.299   1.933
91568W        W61449  18.093  11.807  14.451
91569W        W61450  14.774  41.534   5.242
91570W        W61451  12.791  30.486   2.780
91571W        W61452  38.327  39.999  13.881
91572W        W61453  10.265   2.280   1.765
91573W        W61454  30.993  41.942   2.194
91574W        W61455  27.064  13.782   2.289
91575W        W61456   2.868   9.728  11.956
91576W        W61457  36.860  14.179   3.302
91577W        W61458  34.108  31.043  13.059
91578W        W61459  44.376  19.227  12.872
91579W        W61460  26.049  42.444  14.835
91580W        W61461   6.192  44.339   2.670
91581W        W61462  40.800  32.524   4.197
91582W        W61463  30.114  22.721  13.466
91583W        W61464  12.352  34.875  13.891
91584W        W61465  41.304  41.870   2.895
91585W        W61466  18.784   9.702  14.359
91586W        W61467  22.650  32.568   0.458
91587W        W61468   2.280   3.719  12.391
91588W        W61469  41.802  13.158   4.237
91589W        W61470  25.033  20.101  13.433
91590W        W61471  13.637  27.098  14.358
91591W        W61472  32.399   3.450   0.483
91592W        W61473  31.972   9.324  10.531
91593W        W61474  17.255  11.210  14.375
91594W        W61475  31.423  34.519   2.293
91595W        W61476  21.162  23.514  12.376
91596W        W61477  18.750  26.702   2.677
91597W        W61478  16.183  38.845  10.525
91598W        W61479  20.760  28.929  12.345
91599W        W61480  20.185   9.721  14.928
91600W        W61481  24.045   2.817   4.159
91601W        W61482  43.827   2.227   3.372
91602W        W61483  35.889  12.344  13.923
91603W        W61484  12.161  44.796   4.310
91604W        W61485  12.342  17.798  13.502
91605W        W61486  17.704  26.019  14.798
91606W        W61487  24.192  33.523  12.457
91607W        W61488  34.085  28.490   2.897
91608W        W61489  28.644  32.963   3.644
91609W        W61490  25.643  19.540   0.457
91610W        W61491  30.093  10.678  11.122
91611W        W61492  25.690  10.183   3.742
91612W        W61493  40.005  24.503   3.728
91613W        W61494  12.128  13.715  11.965
91614W        W61495  23.093  17.719   4.305
91615W        W61496   4.272   3.870   0.295
91616W        W61497  12.261  17.799  12.374
91617W        W61498  11.260  14.652  12.434
91618W        W61499  42.361   1.472   1.821
91619W        W61500  18.716   3.271   1.921
91620W        W61501  42.806   1.347   0.804
91621W        W61502  23.572  39.426  11.523
91622W        W61503  11.250  22.528   2.386
91623W        W61504  19.564  31.109  10.611
91624W        W61505  20.735  31.636  12.340
91625W        W61506  26.006  36.392   1.233
91626W        W61507   8.329  22.675  14.371
91627W        W61508  35.925  12.237   1.241
91628W        W61509  17.780  33.481   0.780
91629W        W61510  37.882   6.785   2.717
91630W        W61511   4.944  25.006  10.563
91631W        W61512  42.525  22.636  12.448
91632W        W61513  14.759  37.072   5.572
91633W        W61514  40.367  21.546   4.151
91634W        W61515  43.397  29.000   1.721
91635W        W61516   8.781   4.930  14.010
91636W        W61517  15.716  13.229   5.308
91637W        W61518  42.310   8.305   0.825
91638W        W61519  23.605  28.158  14.977
91639W        W61520   9.331  12.211   0.291
91640W        W61521   3.787  38.493   4.191
91641W        W61522  34.057  24.196   0.784
91642W        W61523  19.768  20.118   3.272
91643W        W61524  21.714  36.887  14.410
91644W        W61525  14.143  22.221   1.428
91645W        W61526  22.556  43.001  10.057
91646W        W61527   8.193  27.591   0.736
91647W        W61528  16.246  36.919   4.783
91648W        W61529  17.219  13.732  10.414
91649W        W61530  39.494  22.135  14.858
91650W        W61531  18.243  20.238   4.630
91651W        W61532  18.618   4.793  14.810
91652W        W61533  20.594   7.794   1.283
91653W        W61534  16.580  31.089   4.166
91654W        W61535  29.465  12.666  13.861
91655W        W61536  21.211  27.073  11.416
91656W        W61537  41.353  43.339  11.567
91657W        W61538   5.408  36.963  13.032
91658W        W61539  43.918   3.916  10.548
91659W        W61540  39.451  18.674  11.082
91660W        W61541  44.859   3.828   4.222
91661W        W61542  32.624   0.765   2.296
91662W        W61543   7.854  13.281  11.371
91663W        W61544  21.032  34.078  13.949
91664W        W61545  20.040  10.194  14.829
91665W        W61546  10.739  26.037  13.927
91666W        W61547   3.948  41.901   4.201
91667W        W61548  11.813  23.641  13.474
91668W        W61549  22.079   2.937  12.527
91669W        W61550  44.892   5.829  10.551
91670W        W61551  39.030   4.254   4.784
91671W        W61552   2.747  14.830  11.974
91672W        W61553  26.498   5.766  12.987
91673W        W61554  12.147  22.114  14.983
91674W        W61555  22.182  44.488  13.799
91675W        W61556  18.130   5.787   0.765
91676W        W61557  18.264  11.145  11.481
91677W        W61558  38.996   9.269  11.542
91678W        W61559  21.564  32.013   4.189
91679W        W61560  20.212  41.869  13.845
91680W        W61561  39.062  19.224  13.527
91681W        W61562   6.732  39.330  12.890
91682W        W61563  41.352  17.753   0.262
91683W        W61564  31.033   4.273  13.427
91684W        W61565  36.347  36.923  13.898
91685W        W61566   4.259  27.568  11.867
91686W        W61567  42.850  34.022  14.817
91687W        W61568   9.773  22.151   2.202
91688W        W61569  41.515  20.054  13.060
91689W        W61570   1.468   4.747  13.913
91690W        W61571   6.243  23.987   0.253
91691W        W61572  41.828   7.178   3.789
91692W        W61573   9.213  20.186   1.857
91693W        W61574  15.249  22.673  11.436
91694W        W61575  40.930   3.711  11.946
91695W        W61576  24.613  30.912  11.602
91696W        W61577  22.532  23.045   3.386
91697W        W61578   0.461   0.895  13.838
91698W        W61579  44.886  15.298  11.981
91699W        W61580  41.533  17.270   3.204
91700W        W61581  24.066  18.608  14.019
91701W        W61582  10.736  38.537  14.843
91702W        W61583  41.332  41.442   2.817
91703W        W61584  39.453  29.999  11.871
91704W        W61585  31.137  25.207   2.395
91705W        W61586  11.796  33.954  10.590
91706W        W61587  10.860   5.917  13.791
91707W        W61588  19.257  41.871   1.347
91708W        W61589  39.554  31.548   4.672
91709W        W61590   7.224  17.764   4.826
91710W        W61591  32.480  39.914  12.844
91711W        W61592   1.334  35.892  12.455
91712W        W61593   4.766   8.258  11.003
91713W        W61594   3.264  23.003  10.976
91714W        W61595  18.169  11.862  10.897
91715W        W61596  11.371  18.289  12.853
91716W        W61597  30.161   9.162   2.748
91717W        W61598  31.136  40.535   2.872
91718W        W61599  43.795  16.583   1.813
91719W        W61600   1.963  15.294  13.831
91720W        W61601  43.468  32.524   2.692
91721W        W61602  17.571   0.870  12.540
91722W        W61603  24.582  22.181   2.332
91723W        W61604  38.017  40.382   0.890
91724W        W61605  23.681  27.603   2.366
91725W        W61606  36.548  13.324  10.573
91726W        W61607  42.890  32.410  11.114
91727W        W61608  41.020  20.686  10.406
91728W        W61609  20.084  11.647  10.544
91729W        W61610   0.878   8.809  12.434
91730W        W61611  18.235  35.512   0.885
91731W        W61612   1.369  16.683   0.483
91732W        W61613   7.203  44.855   4.291
91733W        W61614  15.291  19.218  12.036
91734W        W61615  33.985  32.449  14.419
91735W        W61616  38.467  30.079  13.948
91736W        W61617  31.483  32.584  13.323
91737W        W61618  32.071   7.823  10.634
91738W        W61619  15.167  20.184  14.809
91739W        W61620  20.103  35.552   2.355
91740W        W61621  31.060  19.201  10.548
91741W        W61622  13.702   2.901  12.957
91742W        W61623  29.960  11.176  10.587
91743W        W61624  16.758  21.710  11.025
91744W        W61625   3.803  16.098   2.214
91745W        W61626   4.408  10.835  10.610
91746W        W61627  36.891  13.250  13.929
91747W        W61628  10.785   1.819   5.089
91748W        W61629  17.710   0.775  12.059
91749W        W61630  14.298  40.476   1.306
91750W        W61631  29.592  37.353   0.918
91751W        W61632  40.875  36.503  10.483
91752W        W61633   8.263  35.449   4.804
91753W        W61634  10.187  36.419   1.739
91754W        W61635  42.478  35.396  14.798
91755W        W61636   0.449   4.408   2.893
91756W        W61637  30.624  17.595   3.634
91757W        W61638  33.938  22.684   4.244
91758W        W61639   7.694  29.964   4.689
91759W        W61640   9.253  33.600   1.337
91760W        W61641  21.551  37.534   3.194
91761W        W61642  19.572  40.042  11.433
91762W        W61643  17.768  40.511  14.905
91763W        W61644  38.451  34.996   4.114
91764W        W61645  37.963  39.444   4.153
91765W        W61646   3.410  34.464  10.503
91766W        W61647  40.370  11.260   4.624
91767W        W61648  37.026   8.223  11.021
91768W        W61649  42.981  31.618  13.858
91769W        W61650  33.483  41.441  10.604
91770W        W61651   5.329  17.303   1.765
91771W        W61652  25.088   8.777  13.854
91772W        W61653  25.537  10.764   2.741
91773W        W61654  24.065  26.620  13.435
91774W        W61655  19.099  12.801  11.541
91775W        W61656  14.681  37.337  12.943
91776W        W61657  41.353  25.549  11.524
91777W        W61658  13.650  32.107  14.399
91778W        W61659   7.352  12.340   4.279
91779W        W61660   9.246   6.752   0.410
91780W        W61661  10.145  40.318   4.252
91781W        W61662   7.746  29.462   1.232
91782W        W61663   4.805  25.634   2.289
91783W        W61664  39.849  25.712   4.205
91784W        W61665  27.633  23.155  12.080
91785W        W61666  39.869  41.853   0.813
91786W        W61667  32.518  16.733   3.842
91787W        W61668   0.963  32.900   3.150
91788W        W61669  37.905  25.516  14.801
91789W        W61670   1.805   6.357  11.474
91790W        W61671  16.799  32.557   1.911
91791W        W61672  28.502  14.288  12.397
91792W        W61673  43.329  17.271  14.420
91793W        W61674   1.440  10.335   3.298
91794W        W61675   9.160   6.826   2.839
91795W        W61676  14.786  11.145   0.392
91796W        W61677   1.933  26.972   2.882
91797W        W61678  10.859   8.741  14.860
91798W        W61679  12.257  23.110   0.814
91799W        W61680  43.835  12.152  12.500
91800W        W61681  32.483  23.701   0.870
91801W        W61682  10.837  32.437  14.350
91802W        W61683  36.591   7.188   0.352
91803W        W61684  13.281  32.096  10.055
91804W        W61685  31.002   8.834  13.396
91805W        W61686   9.876  41.370  10.598
91806W        W61687  33.554  12.669   4.722
91807W        W61688  36.074  30.942  14.844
91808W        W61689   6.922  28.006   0.276
91809W        W61690  43.810  32.043   3.212
91810W        W61691  30.092  29.536   1.288
91811W        W61692  13.320  16.090   1.257
91812W        W61693  29.485  22.630  12.391
91813W        W61694   7.219  16.602   1.372
91814W        W61695  22.139  30.607   3.851
91815W        W61696  35.987   4.719   0.393
91816W        W61697   5.757   1.444  13.920
91817W        W61698  43.397  18.607   0.879
91818W        W61699  44.491  30.916   5.260
91819W        W61700  23.722   4.403  10.524
91820W        W61701  24.521   2.910   4.220
91821W        W61702  35.559   5.876   1.844
91822W        W61703  36.507  37.007   1.806
91823W        W61704  13.195  16.718   1.222
91824W        W61705  13.829  22.632   2.810
91825W        W61706  37.563  36.026  12.453
91826W        W61707  16.229  11.810   1.239
91827W        W61708  19.257  31.040  12.871
91828W        W61709   4.436  39.337  11.104
91829W        W61710  10.737  10.745  12.883
91830W        W61711  11.142  35.022   1.345
91831W        W61712  11.640   7.752  13.336
91832W        W61713  24.590   1.921   3.721
91833W        W61714  29.000  11.259  13.460
91834W        W61715  40.977  16.247  14.790
91835W        W61716  23.089  32.406  13.355
91836W        W61717   2.226   3.838   1.295
91837W        W61718  11.860  31.094  10.582
91838W        W61719  41.958  33.014   0.851
91839W        W61720  28.124  12.852   4.604
91840W        W61721  21.212  40.981   1.321
91841W        W61722  42.817   6.738   2.719
91842W        W61723   1.778   6.895   4.178
91843W        W61724  29.565   0.966   2.372
91844W        W61725   8.884  16.662  11.529
91845W        W61726  41.529  34.558   3.855
91846W        W61727  24.591  26.113  13.488
91847W        W61728  26.027   5.307  13.002
91848W        W61729  29.064   2.439   3.216
91849W        W61730  43.990  11.671  11.076
91850W        W61731   2.780   3.817  11.423
91851W        W61732  29.429   0.443  12.850
91852W        W61733  19.676  30.048  11.569
91853W        W61734  24.225  38.343   3.751
91854W        W61735  40.972  40.415   3.192
91855W        W61736  29.641  44.893   0.317
91856W        W61737  30.072  11.365  12.932
91857W        W61738  25.547  38.021   3.840
91858W        W61739  38.535  17.586  11.961
91859W        W61740   6.233   2.282  13.801
91860W        W61741  40.917  13.721  10.492
91861W        W61742   6.776  22.528   0.800
91862W        W61743  31.555   0.389  12.089
91863W        W61744   4.434  23.112   1.897
91864W        W61745   4.710  18.787  10.973
91865W        W61746   8.174   0.484  10.419
91866W        W61747  13.634   3.950  13.996
91867W        W61748   7.671  20.599   2.188
91868W        W61749   4.263   8.675  10.928
91869W        W61750   9.158  42.927  12.423
91870W        W61751   9.878  34.027  11.973
91871W        W61752  17.127   9.223   3.655
91872W        W61753  29.083  11.659  14.300
91873W        W61754   4.281  12.230   4.704
91874W        W61755  43.353  30.462   0.365
91875W        W61756   5.743  13.843   4.219
91876W        W61757  17.188   5.761  12.024
91877W        W61758  44.455  24.986   3.671
91878W        W61759  17.132  18.556  14.941
91879W        W61760  26.137  25.186   2.895
91880W        W61761  11.190  33.055   1.810
91881W        W61762  25.499  28.588  13.029
91882W        W61763  11.351  30.643   4.147
91883W        W61764  28.117  29.033   5.201
91884W        W61765   5.382   5.774   2.235
91885W        W61766  29.056  14.295   1.852
91886W        W61767  35.956  12.126  11.378
91887W        W61768  29.135  32.124  11.408
91888W        W61769  31.590  32.922   3.301
91889W        W61770  18.191   8.218  13.990
91890W        W61771   7.352  10.693  14.282
91891W        W61772  25.973  43.381  13.397
91892W        W61773  29.621  42.431  10.561
91893W        W61774  36.519  18.099  13.832
91894W        W61775   0.881  28.181   2.230
91895W        W61776  25.484  38.968   4.748
91896W        W61777  12.678  27.130  13.439
91897W        W61778   7.250  20.178   2.349
91898W        W61779   7.336  38.350   2.887
91899W        W61780  28.017  22.649  14.278
91900W        W61781  43.818  37.938  11.875
91901W        W61782  10.722  40.942   0.378
91902W        W61783  17.665   3.881   3.651
91903W        W61784   0.773  22.611   2.293
91904W        W61785  12.777  21.604  13.840
91905W        W61786  21.662  31.434   1.796
91906W        W61787  35.019   5.226  11.394
91907W        W61788   0.797   2.726  14.932
91908W        W61789  24.221  12.639   4.697
91909W        W61790  40.832  37.837  11.979
91910W        W61791  22.714  13.115  12.441
91911W        W61792   0.459  37.514   4.246
91912W        W61793  29.931  22.207  14.307
91913W        W61794  39.479  32.905   0.318
91914W        W61795   2.801  32.620   2.329
91915W        W61796   1.324  29.154   4.681
91916W        W61797  16.127  31.530  14.293
91917W        W61798  16.109  29.431  11.497
91918W        W61799  19.562  43.906   1.335
91919W        W61800  16.649  29.592   3.292
91920W        W61801  17.118   9.215  11.451
91921W        W61802  27.454  21.580  11.004
91922W        W61803   3.872  31.907  14.442
91923W        W61804  17.605  37.347  14.439
91924W        W61805  24.186  26.501  10.100
91925W        W61806  28.973   4.230   1.762
91926W        W61807  17.634  13.755   2.795
91927W        W61808  32.045  32.021   1.410
91928W        W61809  24.169  13.201  14.459
91929W        W61810  14.673  33.061  12.577
91930W        W61811  14.332  30.155  11.945
91931W        W61812  10.868  24.065  11.115
91932W        W61813  12.120   9.177  12.879
91933W        W61814   4.359   2.870   1.253
91934W        W61815   2.442  16.094  14.837
91935W        W61816  20.262   7.373   0.851
91936W        W61817   9.878  31.129  11.608
91937W        W61818  22.106   1.312   1.259
91938W        W61819  24.215   5.929  10.640
91939W        W61820   9.310  43.882   0.358
91940W        W61821  27.022  35.465   3.701
91941W        W61822  41.833   1.467  13.904
91942W        W61823   5.389  26.018   3.171
91943W        W61824  37.895   3.805   3.804
91944W        W61825  11.188  22.195  10.582
91945W        W61826  11.149  14.727  13.931
91946W        W61827  43.418   2.927  13.989
91947W        W61828  34.876  43.885   3.358
91948W        W61829   8.383  12.641   3.321
91949W        W61830   6.767   5.311  11.399
91950W        W61831   5.381  40.005  11.056
91951W        W61832  18.239  14.775  12.446
91952W        W61833   4.930  21.242   4.680
91953W        W61834  24.082  12.741   4.266
91954W        W61835  34.398  21.149   1.883
91955W        W61836  32.458  26.493   3.847
91956W        W61837  28.998  38.470   4.292
91957W        W61838  30.621  36.578   0.751
91958W        W61839  23.220   3.294  10.160
91959W        W61840  38.958   2.269  11.403
91960W        W61841  24.709  25.681  12.469
91961W        W61842  10.307   8.774   2.267
91962W        W61843  14.606   1.936   2.765
91963W        W61844  11.659  41.351   1.763
91964W        W61845   5.278  38.345   3.204
91965W        W61846  36.385   6.804  10.487
91966W        W61847  19.268  21.619   0.867
91967W        W61848   9.290  15.308  14.406
91968W        W61849  24.050  37.416  11.859
91969W        W61850  42.436  21.142   0.965
91970W        W61851  28.574  27.506  12.501
91971W        W61852  31.538  20.654   0.778
91972W        W61853  30.063  26.483   0.809
91973W        W61854   3.810  18.173   1.345
91974W        W61855  14.622  10.728  13.891
91975W        W61856   4.888  16.783  14.434
91976W        W61857  26.554  15.812  11.055
91977W        W61858  34.046  23.721   1.803
91978W        W61859  39.325  32.545   4.667
91979W        W61860  18.606  37.505   9.935
91980W        W61861  31.132  32.960  14.298
91981W        W61862  30.981  15.637  11.990
91982W        W61863  39.960  44.319   3.148
91983W        W61864  34.968  28.147  10.407
91984W        W61865  32.513  14.640  10.504
91985W        W61866  32.516  22.118   3.797
91986W        W61867  29.504  12.816   3.798
91987W        W61868  13.644   7.367   1.776
91988W        W61869  33.050  39.017   4.774
91989W        W61870  25.560  20.596   1.320
91990W        W61871  27.153  37.004   1.353
91991W        W61872  38.527  38.997   1.220
91992W        W61873  11.269  25.020  12.545
91993W        W61874  41.787  22.649  11.071
91994W        W61875  32.961  31.482  10.927
91995W        W61876  23.149  13.733  13.855
91996W        W61877  44.767  31.064  10.603
91997W        W61878  43.374  15.109  13.946
91998W        W61879  33.476  20.591  11.055
91999W        W61880  19.230  33.397  12.990
92000W        W61881  10.662  10.346  12.540
92001W        W61882  38.014  21.077  11.443
92002W        W61883  40.537   8.711  13.843
92003W        W61884   7.891  33.461   1.699
92004W        W61885   7.220   9.346  14.388
92005W        W61886  34.022  40.443  13.806
92006W        W61887  26.502  39.357   0.764
92007W        W61888  28.137   4.857   9.963
92008W        W61889  24.172   5.275   2.789
92009W        W61890  11.817   0.425  10.441
92010W        W61891  35.463  37.976   3.362
92011W        W61892  37.506  19.185   0.457
92012W        W61893  17.197  22.669   1.854
92013W        W61894  35.449  33.961  14.507
92014W        W61895   2.271  36.402   1.369
92015W        W61896  36.892  17.117  12.071
92016W        W61897  13.334  14.121   0.301
92017W        W61898  44.841  23.622   4.124
92018W        W61899  34.552  21.054  10.420
92019W        W61900  18.564  15.822  14.915
92020W        W61901  12.268  41.986  14.308
92021W        W61902  24.605  25.511   1.247
92022W        W61903  19.143  42.516  13.491
92023W        W61904  31.969   6.879  13.409
92024W        W61905   3.366  40.819   3.253
92025W        W61906   8.723  16.738  14.771
92026W        W61907  27.162  25.160   2.728
92027W        W61908  10.318  18.077  11.957
92028W        W61909  29.491   7.901   1.264
92029W        W61910  20.232   5.903   2.873
92030W        W61911  10.372  29.467   2.311
92031W        W61912   6.900  19.684   4.116
92032W        W61913  41.495  28.470   1.761
92033W        W61914  22.038  34.407   3.170
92034W        W61915  19.145  29.639  12.465
92035W        W61916  29.068   2.810   1.212
92036W        W61917  11.312  22.098   3.193
92037W        W61918  42.880  27.981   3.727
92038W        W61919  25.110  10.172  13.884
92039W        W61920  13.194  31.430   4.707
92040W        W61921  38.825   4.436   0.905
92041W        W61922  21.709  12.312   2.836
92042W        W61923   1.957   0.403  13.998
92043W        W61924  16.100  24.526  12.851
92044W        W61925   8.733   0.320   4.166
92045W        W61926  15.093  28.084  11.038
92046W        W61927   0.948  39.984   1.446
92047W        W61928   8.842  40.441   0.354
92048W        W61929  37.352  14.674   2.696
92049W        W61930  37.341  24.988   2.895
92050W        W61931   1.832   2.241  14.904
92051W        W61932  20.118  36.941  13.365
92052W        W61933  39.015  23.090  12.356
92053W        W61934  14.673  29.607   0.938
92054W        W61935  25.588  13.186   4.199
92055W        W61936   2.885  26.047  11.414
92056W        W61937  28.486  35.917   1.872
92057W        W61938   4.699   8.238   3.153
92058W        W61939  40.376  37.478  14.800
92059W        W61940   6.298  13.193  12.367
92060W        W61941  16.742   2.866   0.925
92061W        W61942  39.045  39.967  12.396
92062W        W61943  11.762  14.706   0.250
92063W        W61944   2.967  25.214  11.505
92064W        W61945  13.350  27.475   1.701
92065W        W61946   4.700  38.966  14.901
92066W        W61947   3.240  20.165   2.276
92067W        W61948  42.913  36.057  12.457
92068W        W61949  14.150  31.084   4.192
92069W        W61950   3.389  24.623   2.357
92070W        W61951  24.603  18.226   2.353
92071W        W61952  14.627  32.040  11.401
92072W        W61953  30.036  34.377  11.964
92073W        W61954  21.613  19.176  11.582
92074W        W61955  11.312  39.848  13.458
92075W        W61956   7.837   6.211   2.818
92076W        W61957  32.633  21.035   3.381
92077W        W61958   8.681  30.149  14.365
92078W        W61959  38.410   2.307   3.352
92079W        W61960  32.444  22.727   1.348
92080W        W61961   6.740  14.203  14.940
92081W        W61962  25.131  18.761  14.884
92082W        W61963  43.399  33.910   2.693
92083W        W61964  15.212   5.910  13.351
92084W        W61965   8.312  25.027  11.399
92085W        W61966   7.260   5.227   0.825
92086W        W61967  42.884  38.550   1.273
92087W        W61968   1.336  11.216  12.454
92088W        W61969  37.472  27.962  11.123
92089W        W61970  39.048   0.873   5.114
92090W        W61971  24.045  42.448   3.690
92091W        W61972  22.076  28.652  13.456
92092W        W61973  21.583  27.050   1.258
92093W        W61974  42.850  29.088  10.047
92094W        W61975  27.059  11.839   0.823
92095W        W61976   8.657  22.246   2.732
92096W        W61977  13.639  10.655  12.841
92097W        W61978  31.016  21.202  12.055
92098W        W61979  10.298   6.801   0.838
92099W        W61980  31.105  41.378   3.306
92100W        W61981  29.593  42.009  11.419
92101W        W61982  31.646  31.510  12.913
92102W        W61983  28.515   0.758  14.423
92103W        W61984  14.114   2.442  13.514
92104W        W61985  44.819   9.779   2.745
92105W        W61986  20.223  26.672  12.081
92106W        W61987  43.936   5.285   0.343
92107W        W61988  15.086   4.379   2.902
92108W        W61989  44.962   3.770  10.459
92109W        W61990  42.802  23.047  10.548
92110W        W61991  15.286  10.204   4.134
92111W        W61992  44.373  28.469  10.891
92112W        W61993   8.284   2.952   4.139
92113W        W61994  23.020  31.942  11.062
92114W        W61995  33.953  27.642   0.377
92115W        W61996  40.339  37.430   2.810
92116W        W61997  10.695  14.817  14.361
92117W        W61998  37.837  36.438   2.797
92118W        W61999  17.731  29.931   1.313
92119W        W62000  11.737   1.330   2.385
92120W        W62001  25.549  37.888   4.276
92121W        W62002  25.076  34.541  14.777
92122W        W62003   2.356   8.388  10.417
92123W        W62004   8.358  18.598  11.077
92124W        W62005  32.464  23.028  14.855
92125W        W62006  16.698  31.518  12.459
92126W        W62007  44.310  21.158   5.261
92127W        W62008   3.251  17.170   0.889
92128W        W62009  35.470   5.769   3.238
92129W        W62010  34.007  29.993  11.523
92130W        W62011  11.669  26.561   3.163
92131W        W62012   0.344  40.333   2.750
92132W        W62013  34.922  23.569  12.469
92133W        W62014  34.472  18.580   3.232
92134W        W62015  44.388  33.101   9.931
92135W        W62016   5.849  40.957  12.349
92136W        W62017  40.800  11.355  10.530
92137W        W62018  15.090  18.553   0.295
92138W        W62019  29.920   5.380   3.787
92139W        W62020   5.819  43.892  10.453
92140W        W62021  43.488  42.820  11.507
92141W        W62022  26.484  36.501  14.817
92142W        W62023  30.109   3.339   4.187
92143W        W62024  31.939  23.055  13.912
92144W        W62025  24.601  36.876   3.797
92145W        W62026  24.722  44.419   4.796
92146W        W62027  33.485  36.361   1.271
92147W        W62028  10.379  24.980  12.575
92148W        W62029  28.473  35.863  14.400
92149W        W62030   2.769  35.959  13.850
92150W        W62031  44.267  32.898  12.535
92151W        W62032  12.203   8.341  14.890
92152W        W62033  27.004  26.977   0.833
92153W        W62034  28.058  32.954  12.858
92154W        W62035   6.815  34.033   0.832
92155W        W62036  20.762   9.176   2.711
92156W        W62037  20.241  28.460   2.799
92157W        W62038  17.637  13.192   1.846
92158W        W62039  17.594  19.756   3.729
92159W        W62040  19.151   9.233  11.993
92160W        W62041  15.182  11.797   0.802
92161W        W62042  32.108  42.871   5.144
92162W        W62043  42.482   4.218   0.759
92163W        W62044   7.196  34.522  14.844
92164W        W62045  24.563  15.756  14.420
92165W        W62046  15.189  39.364  11.416
92166W        W62047   1.965  39.524   0.243
92167W        W62048  20.662  13.663  10.936
92168W        W62049  11.237   4.358  13.390
92169W        W62050   0.480  38.903   1.757
92170W        W62051  31.963  16.166  14.355
92171W        W62052  38.562  10.288   3.294
92172W        W62053  16.217  32.055  14.377
92173W        W62054  14.767  25.115   1.312
92174W        W62055  43.019  26.015  12.958
92175W        W62056  40.940  28.450  10.538
92176W        W62057  20.111  33.944   1.451
92177W        W62058  33.443   9.865   2.834
92178W        W62059   9.240  44.948  12.841
92179W        W62060  36.378  31.084   4.609
92180W        W62061  39.912  25.086   2.411
92181W        W62062  21.726  22.153   0.904
92182W        W62063  33.051  15.714   4.754
92183W        W62064  30.456  30.563   1.809
92184W        W62065  36.056   7.722  13.840
92185W        W62066  36.499  39.381   4.678
92186W        W62067  40.494  40.883   1.703
92187W        W62068   2.883   0.346  13.308
92188W        W62069  40.830   2.774  13.520
92189W        W62070  27.644  31.015  11.867
92190W        W62071  36.399  24.107   3.825
92191W        W62072  26.683  13.613  12.966
92192W        W62073  30.571  26.459   0.856
92193W        W62074  41.514   7.720  12.469
92194W        W62075   3.830  28.458   4.155
92195W        W62076  38.855   0.439   1.211
92196W        W62077  28.117  16.780  12.416
92197W        W62078  25.213  35.398   1.934
92198W        W62079  34.999  44.901  10.466
92199W        W62080  33.465   5.780  11.925
92200W        W62081   5.899   1.350  10.513
92201W        W62082  43.387  12.660   3.362
92202W        W62083  15.802   0.933   3.838
92203W        W62084   6.843  40.953  13.007
92204W        W62085  10.707  37.935  12.497
92205W        W62086  16.754  26.174  13.357
92206W        W62087   9.191   5.193   0.374
92207W        W62088  23.584  19.615   0.834
92208W        W62089   0.908  30.005  14.829
92209W        W62090   6.320   2.328  11.063
92210W        W62091  34.585  21.155  11.077
92211W        W62092   4.938  28.093  12.930
92212W        W62093  28.038  19.225  14.404
92213W        W62094   0.768  11.306  10.476
92214W        W62095   6.768  35.899   1.363
92215W        W62096  41.944  27.027  14.409
92216W        W62097  10.375  22.245  12.873
92217W        W62098  42.490  10.377  10.095
92218W        W62099   4.214  28.654  11.114
92219W        W62100  31.423  32.885   4.279
92220W        W62101  36.358   3.259  12.521
92221W        W62102  14.183  39.851   4.661
92222W        W62103  19.233  15.258  11.065
92223W        W62104  28.110  37.568   4.777
92224W        W62105   8.171   2.880  11.018
92225W        W62106   8.251  38.931   2.674
92226W        W62107   1.360  20.130   1.856
92227W        W62108   5.890  18.782  13.494
92228W        W62109  20.263  22.537  14.390
92229W        W62110   0.251  26.207   3.380
92230W        W62111  44.331  17.672   0.311
92231W        W62112  10.637  17.185   1.708
92232W        W62113   1.377  32.123  10.985
92233W        W62114  26.589  15.192   0.259
92234W        W62115   2.768  11.344  11.512
92235W        W62116  31.026  34.377  10.441
92236W        W62117  39.063  23.014  10.950
92237W        W62118  13.168  35.105   4.324
92238W        W62119  40.824   1.349  12.920
92239W        W62120   7.195  23.057   1.440
92240W        W62121   7.868  33.979  11.493
92241W        W62122  39.529   9.802  14.950
92242W        W62123  37.429  37.346  12.998
92243W        W62124  16.248  43.766   2.822
92244W        W62125  15.802   8.680  13.009
92245W        W62126  29.132  27.668  12.008
92246W        W62127  34.079   6.245   3.171
92247W        W62128  14.260  11.190   9.961
92248W        W62129  11.797  29.598  11.075
92249W        W62130  30.072   5.422  14.969
92250W        W62131  33.064   5.379   2.779
92251W        W62132  23.077  23.522  11.589
92252W        W62133  39.865  42.809  14.874
92253W        W62134  14.312  24.550  10.459
92254W        W62135   8.848  27.021  10.504
92255W        W62136  23.696  40.402   4.647
92256W        W62137  18.595  34.068   2.858
92257W        W62138  13.732  26.111  11.101
92258W        W62139  17.786  19.572  14.352
92259W        W62140  12.706  31.523  11.385
92260W        W62141  36.020  26.123   1.776
92261W        W62142   5.744  44.891   4.650
92262W        W62143  19.656  32.091   0.360
92263W        W62144  14.140  31.045   0.731
92264W        W62145   9.798  40.342   3.283
92265W        W62146  15.667  31.970   2.769
92266W        W62147  36.556  12.823  12.482
92267W        W62148  14.663   8.794   9.942
92268W        W62149  37.525  33.900   0.345
92269W        W62150  31.470  11.321   1.337
92270W        W62151  39.472  28.076   3.282
92271W        W62152  28.156   5.337   3.353
92272W        W62153   0.305  16.202   0.470
92273W        W62154  32.135  34.924   3.733
92274W        W62155  36.521  21.183  14.386
92275W        W62156  24.636  38.414  11.941
92276W        W62157  39.488  28.541  11.888
92277W        W62158  34.522  10.725   4.704
92278W        W62159  31.997  17.759  14.487
92279W        W62160   9.280  28.532  11.939
92280W        W62161  29.548  34.474   0.735
92281W        W62162  41.810  19.229  14.927
92282W        W62163  32.413  42.984  14.345
92283W        W62164  19.724   6.832  12.373
92284W        W62165  38.890  29.457   2.764
92285W        W62166  42.997  31.135   4.284
92286W        W62167   8.820  41.374   0.792
92287W        W62168  39.835   1.736   3.754
92288W        W62169   0.340  44.378   0.920
92289W        W62170  21.626  19.132  10.103
92290W        W62171  12.645  19.191   3.701
92291W        W62172  20.096  35.601   3.227
92292W        W62173  24.109  13.337   1.922
92293W        W62174  25.543   5.917   1.426
92294W        W62175  34.889   4.916  10.916
92295W        W62176  30.086  39.985  13.894
92296W        W62177  23.107   4.834   2.210
92297W        W62178   3.834   9.690  13.865
92298W        W62179  29.121   2.403  10.500
92299W        W62180  12.184   0.764   1.743
92300W        W62181  14.135   0.410   1.249
92301W        W62182  27.684  35.942  10.594
92302W        W62183  22.121  21.705   0.403
92303W        W62184   4.390  18.732  11.561
92304W        W62185  19.772   4.449  11.528
92305W        W62186  26.578  12.136  12.487
92306W        W62187  39.044   9.245  14.358
92307W        W62188   7.809   7.327  13.799
92308W        W62189  39.557  32.516  10.526
92309W        W62190   6.204   1.475   3.367
92310W        W62191  11.174   7.363  14.455
92311W        W62192  16.229  40.902   0.433
92312W        W62193  11.762  31.601  12.550
92313W        W62194  14.241  32.468   1.907
92314W        W62195  33.091  20.087  11.879
92315W        W62196  18.602   1.454  13.973
92316W        W62197  13.617  20.528  10.460
92317W        W62198  19.736  26.018  13.922
92318W        W62199   3.775   5.297   1.448
92319W        W62200  27.148  10.765  10.412
92320W        W62201   3.240  10.314   1.273
92321W        W62202  32.460  30.415   3.795
92322W        W62203  44.905  32.408  14.476
92323W        W62204   6.409   1.351   1.724
92324W        W62205  39.848  24.174  12.999
92325W        W62206  42.874   8.708   3.293
92326W        W62207  34.005  37.452   0.247
92327W        W62208  40.020  28.970   1.294
92328W        W62209  36.427  11.727   4.125
92329W        W62210   9.193  17.702   0.335
92330W        W62211  12.634  18.700  12.544
92331W        W62212  13.211  20.082  12.891
92332W        W62213   1.762  38.418  11.118
92333W        W62214  31.457  25.083   4.641
92334W        W62215  19.280   6.742  12.475
92335W        W62216  21.108   0.757  10.997
92336W        W62217  42.862  15.582  10.968
92337W        W62218  25.031  39.534   2.284
92338W        W62219   6.291  33.963   0.296
92339W        W62220   9.182  44.986  13.963
92340W        W62221   9.679  34.529   2.831
92341W        W62222  34.580  24.676  12.978
92342W        W62223  15.712  40.438   2.760
92343W        W62224  29.526  14.261  10.550
92344W        W62225  30.462  18.567   1.884
92345W        W62226   3.912   7.721  12.460
92346W        W62227  33.477   8.811   1.761
92347W        W62228  25.468   0.845  11.071
92348W        W62229  24.113   1.321   4.602
92349W        W62230  42.839  23.230  12.912
92350W        W62231   2.872  14.119  14.908
92351W        W62232  21.106  21.142   2.178
92352W        W62233  20.263  42.370   1.436
92353W        W62234  39.367  29.630   4.618
92354W        W62235  35.933   6.726  14.853
92355W        W62236  18.075  13.350   3.163
92356W        W62237  38.905  12.851  11.546
92357W        W62238   4.708   5.898  11.101
92358W        W62239  15.159  16.243  13.045
92359W        W62240  34.901   0.929  14.361
92360W        W62241  19.550  25.032   4.693
92361W        W62242  40.801  34.863  10.948
92362W        W62243  13.652   8.683  12.910
92363W        W62244  31.466  16.083  13.058
92364W        W62245  27.685  20.231   1.768
92365W        W62246  38.399  34.962   3.182
92366W        W62247  23.217  35.979   3.740
92367W        W62248   9.248  40.836   4.669
92368W        W62249  35.419  16.703   4.208
92369W        W62250  29.645  28.184   4.350
92370W        W62251  27.014  10.767  12.060
92371W        W62252  27.492  31.409  10.432
92372W        W62253  35.592  18.608  14.368
92373W        W62254   6.289   9.786   2.396
92374W        W62255  26.104  26.082   9.509
92375W        W62256  22.009  31.056   0.437
92376W        W62257   5.297  32.914   0.466
92377W        W62258  22.083  13.604   2.220
92378W        W62259  17.670  17.760  14.979
92379W        W62260  44.926  25.597   4.127
92380W        W62261  43.975  42.789   1.312
92381W        W62262   5.792  19.540  14.778
92382W        W62263  34.581   5.739  11.126
92383W        W62264  19.579  37.510   4.668
92384W        W62265  14.594  36.996   9.943
92385W        W62266  29.037  32.066   2.890
92386W        W62267  37.019  32.603  12.521
92387W        W62268  24.588  28.059  13.390
92388W        W62269   9.644  44.945  14.770
92389W        W62270   8.901   6.293   5.299
92390W        W62271  25.676   6.189   1.354
92391W        W62272  11.301  29.594   0.451
92392W        W62273  22.560  24.069  12.855
92393W        W62274  23.044  24.580  14.394
92394W        W62275  27.080  12.730  13.382
92395W        W62276   6.208  35.489  10.636
92396W        W62277   8.289  44.485  12.949
92397W        W62278   1.749  12.702   3.743
92398W        W62279   1.856  28.999   0.799
92399W        W62280  39.030  12.339   4.238
92400W        W62281  38.832  34.040  10.517
92401W        W62282  33.450  35.102  14.900
92402W        W62283  26.122  30.942  11.032
92403W        W62284   7.414  31.512   3.634
92404W        W62285  18.612  21.628  10.469
92405W        W62286   5.718   0.805  12.360
92406W        W62287  27.120  18.621  10.516
92407W        W62288   3.221  18.558  11.419
92408W        W62289  24.013  20.177   1.352
92409W        W62290  41.928  11.295  11.479
92410W        W62291  34.581   7.347   4.182
92411W        W62292   4.758  11.770   2.274
92412W        W62293   5.280   2.343  12.461
92413W        W62294  30.624  31.082   2.815
92414W        W62295  11.756  40.813  13.858
92415W        W62296  29.482  38.514   4.777
92416W        W62297  23.239  33.500  13.015
92417W        W62298   4.754  25.021   3.795
92418W        W62299  11.345  14.234  11.493
92419W        W62300  38.978  40.967  14.424
92420W        W62301  42.891  13.243  10.594
92421W        W62302  27.590  26.063   5.163
92422W        W62303  35.040   7.851   4.776
92423W        W62304  21.168  41.449   1.232
92424W        W62305  43.928  34.507  10.448
92425W        W62306  15.675  27.649   1.235
92426W        W62307  14.593  38.968   0.403
92427W        W62308   2.851   1.424  14.290
92428W        W62309  42.824  22.128  14.442
92429W        W62310  28.167  26.566  10.610
92430W        W62311  33.411  10.355  11.406
92431W        W62312   1.806  20.035   4.215
92432W        W62313   0.757   0.926   0.287
92433W        W62314  11.670  28.456  11.418
92434W        W62315  26.652  18.656  12.364
92435W        W62316  38.371  33.111   2.739
92436W        W62317  14.248  41.914   0.927
92437W        W62318  15.606  40.470  12.493
92438W        W62319  21.628   8.766   1.401
92439W        W62320  23.693  27.042  14.907
92440W        W62321  37.993   0.461   0.928
92441W        W62322  15.285  40.019   3.169
92442W        W62323  39.545  38.394   2.707
92443W        W62324  31.052  35.997  14.870
92444W        W62325  21.017  19.557   2.796
92445W        W62326  33.105   9.323   4.140
92446W        W62327  35.901  29.129   3.809
92447W        W62328  15.624  21.230   2.747
92448W        W62329  15.587  37.901  11.072
92449W        W62330  37.027  18.224  10.591
92450W        W62331  35.429   9.791  11.434
92451W        W62332  39.527  37.943   3.739
92452W        W62333  38.425  15.272   1.812
92453W        W62334  16.707  24.705  12.381
92454W        W62335   6.805   2.265   1.451
92455W        W62336  14.173  20.654   3.754
92456W        W62337  21.722  41.861  13.051
92457W        W62338  30.002  21.036   4.266
92458W        W62339   5.797  17.266   1.440
92459W        W62340  23.537  15.310   3.730
92460W        W62341  28.957  43.906  12.346
92461W        W62342   1.333  32.989  13.379
92462W        W62343   6.262  21.219   3.774
92463W        W62344  43.905  39.317  11.554
92464W        W62345  40.807   5.320   4.122
92465W        W62346  24.662   2.747  14.415
92466W        W62347  38.048  21.569  13.054
92467W        W62348   6.314  20.164  11.124
92468W        W62349  30.627  23.548   1.899
92469W        W62350  14.191   2.826   4.148
92470W        W62351  42.387  36.487   2.726
92471W        W62352  19.657  13.296  12.445
92472W        W62353  21.747  16.760   4.745
92473W        W62354  34.569  40.384   2.338
92474W        W62355   4.829  37.925   3.150
92475W        W62356  13.799  15.798  10.987
92476W        W62357  36.891  39.529  11.515
92477W        W62358   5.856  27.632   0.901
92478W        W62359  27.193   9.269   0.890
92479W        W62360  39.903  30.107   3.763
92480W        W62361   8.736  33.028  12.000
92481W        W62362  16.122  42.308  14.337
92482W        W62363  31.432  22.706  11.901
92483W        W62364   7.675  44.294   1.896
92484W        W62365  32.413  24.499  11.481
92485W        W62366  43.827  10.178  11.090
92486W        W62367  42.461  41.498  14.914
92487W        W62368  21.144  17.689   2.359
92488W        W62369  16.652   0.268  10.544
92489W        W62370  38.064  38.898   4.751
92490W        W62371  19.713  27.978  14.780
92491W        W62372  29.972  36.547   4.310
92492W        W62373  20.087  42.794   4.765
92493W        W62374  31.459  14.720  12.974
92494W        W62375  17.723  19.055   3.806
92495W        W62376  19.752  22.513   3.674
92496W        W62377   5.302  39.412  13.939
92497W        W62378  11.281   3.885   1.243
92498W        W62379  24.678  16.210  10.429
92499W        W62380  22.091  14.652   4.248
92500W        W62381  23.525  17.295   3.252
92501W        W62382  41.375  21.131  11.086
92502W        W62383   7.773  39.969   3.719
92503W        W62384  18.548  35.400  14.030
92504W        W62385  33.600  42.008  13.962
92505W        W62386   9.362  34.002  12.915
92506W        W62387   3.255  42.994   4.302
92507W        W62388  15.752  24.229  14.305
92508W        W62389  17.711  35.393  11.945
92509W        W62390  35.934  17.105   2.400
92510W        W62391   6.239  21.142  11.098
92511W        W62392  13.245  11.841   4.142
92512W        W62393  14.753  13.701   2.213
92513W        W62394   5.318  32.395   1.275
92514W        W62395  23.732  13.301   3.741
92515W        W62396  13.836  13.238   2.400
92516W        W62397  41.851  40.901   2.385
92517W        W62398   1.481  16.589  13.990
92518W        W62399  35.066  21.601  13.930
92519W        W62400  31.517   6.412   4.206
92520W        W62401  36.393   4.811   4.178
92521W        W62402  19.185  32.996  13.030
92522W        W62403  20.205  11.680   2.836
92523W        W62404  40.886  44.498  14.999
92524W        W62405  40.855   4.703  12.357
92525W        W62406  12.616   5.807  12.894
92526W        W62407   9.763  21.556   0.294
92527W        W62408   7.871  26.636   2.894
92528W        W62409  15.150  14.102   4.816
92529W        W62410  20.548   3.254   1.896
92530W        W62411  22.719  11.243  11.412
92531W        W62412  44.843  16.610  14.479
92532W        W62413  42.470  27.976   1.444
92533W        W62414  40.376  38.979   3.646
92534W        W62415  37.073  35.459  10.887
92535W        W62416  13.611  27.038   2.689
92536W        W62417   7.358  17.795  14.835
92537W        W62418  33.414  13.197  13.494
92538W        W62419  16.097   9.859   0.368
92539W        W62420   2.239  25.653  12.924
92540W        W62421  34.869   2.752  14.424
92541W        W62422  43.322  42.401  14.842
92542W        W62423  20.209  44.437  11.491
92543W        W62424  18.134  15.783  12.869
92544W        W62425  35.379  28.005  10.978
92545W        W62426   2.384  22.561   2.307
92546W        W62427  22.238  25.088  12.522
92547W        W62428  18.706  30.125   0.376
92548W        W62429  17.578  25.467   3.647
92549W        W62430  30.932  30.144   3.745
92550W        W62431  24.517  32.019  12.384
92551W        W62432  42.001  30.108  11.977
92552W        W62433   5.381  36.082   0.754
92553W        W62434  27.941  33.449  14.846
92554W        W62435  35.500  44.859   0.857
92555W        W62436  44.461  41.942   5.301
92556W        W62437  29.962  14.738  12.928
92557W        W62438   3.936   8.797   3.312
92558W        W62439  15.792  11.334  13.861
92559W        W62440  25.069  34.407   4.176
92560W        W62441  31.541   0.806  11.468
92561W        W62442  14.708  38.505  14.320
92562W        W62443   7.413  43.958  14.325
92563W        W62444   7.778  39.851  13.436
92564W        W62445  22.089  33.561   3.153
92565W        W62446  42.777  20.119  12.379
92566W        W62447  38.010  35.367  13.480
92567W        W62448  43.368  15.783   0.919
92568W        W62449   6.769  35.859   2.310
92569W        W62450  12.743   8.665  10.490
92570W        W62451   0.397   6.692  12.445
92571W        W62452  16.691  44.266   4.667
92572W        W62453  38.881  14.169  13.487
92573W        W62454  31.491  40.391  11.921
92574W        W62455  19.141  22.745   0.460
92575W        W62456  44.781  44.316  14.461
92576W        W62457  37.567  17.282   5.149
92577W        W62458   0.322  20.661  14.910
92578W        W62459  16.609  23.571  10.974
92579W        W62460  16.186  26.594   1.433
92580W        W62461   4.902  17.565   2.856
92581W        W62462  26.181  18.104   3.210
92582W        W62463  29.160  29.512   3.744
92583W        W62464  35.083  39.894  10.909
92584W        W62465  40.895  24.560   1.239
92585W        W62466   9.328   7.232   4.334
92586W        W62467  38.071  33.555   3.757
92587W        W62468  20.127   6.814   3.149
92588W        W62469  39.437   0.302   2.225
92589W        W62470   2.732  15.192   0.853
92590W        W62471  43.442  20.565  12.466
92591W        W62472  13.160  38.364   2.187
92592W        W62473  38.466  29.530   3.213
92593W        W62474  35.025  23.665   0.763
92594W        W62475  39.354  16.738   1.835
92595W        W62476  35.549  17.290  11.978
92596W        W62477  26.194   0.909  11.379
92597W        W62478  20.532  30.124   0.775
92598W        W62479  37.916  26.653  13.534
92599W        W62480  41.377   9.216   2.240
92600W        W62481   8.850   3.902  11.520
92601W        W62482  19.269  33.610  10.564
92602W        W62483   4.849   3.443  13.794
92603W        W62484  22.997  44.481   4.203
92604W        W62485   0.477  27.036   3.287
92605W        W62486  12.123  17.065   4.311
92606W        W62487  32.905   2.397   3.749
92607W        W62488  17.273  14.095  11.979
92608W        W62489  44.875  19.747  10.420
92609W        W62490  18.785  25.150  11.954
92610W        W62491   1.432  30.598  12.043
92611W        W62492  42.928  44.476  10.903
92612W        W62493  20.695  37.053   3.286
92613W        W62494  22.708   2.834   3.171
92614W        W62495  26.466   5.695   4.648
92615W        W62496  23.165   9.190  12.013
92616W        W62497  19.135   3.447   3.850
92617W        W62498  44.404  21.180  13.846
92618W        W62499  38.977  18.676  13.988
92619W        W62500  42.338  30.944  11.922
92620W        W62501  13.221  43.790   2.340
92621W        W62502  31.461  40.955   3.730
92622W        W62503  20.081  21.247   0.394
92623W        W62504  44.329  20.659  11.535
92624W        W62505  22.235  17.680   3.343
92625W        W62506  38.035   0.360   1.252
92626W        W62507  37.411  18.213   3.801
92627W        W62508  24.079   7.175  14.492
92628W        W62509  32.938  38.522  11.936
92629W        W62510  28.553  16.152  13.399
92630W        W62511   6.406   7.728  14.997
92631W        W62512  11.801  43.448  14.932
92632W        W62513  43.314  39.810  12.085
92633W        W62514  41.352   2.332  10.609
92634W        W62515  33.895  14.770  12.973
92635W        W62516  19.670  17.578  10.896
92636W        W62517   8.890  27.107   2.246
92637W        W62518   2.389  13.843   3.867
92638W        W62519  22.559  17.798  14.516
92639W        W62520  16.255   0.410  13.995
92640W        W62521  26.036  38.403  11.079
92641W        W62522  24.589  20.197   3.252
92642W        W62523   8.181  21.616   1.765
92643W        W62524   5.415   6.915  11.966
92644W        W62525  11.788  19.744   3.151
92645W        W62526  18.149  19.604   2.768
92646W        W62527  33.104  24.127  13.906
92647W        W62528  33.121  36.046  10.560
92648W        W62529  44.760   8.386  12.922
92649W        W62530  10.818  30.104  14.931
92650W        W62531  24.551  36.351   0.858
92651W        W62532  25.083  35.038   1.699
92652W        W62533   1.772  30.967   2.217
92653W        W62534  39.437  11.812   3.294
92654W        W62535  26.012  12.336  13.056
92655W        W62536   0.785   2.240  13.367
92656W        W62537  35.024   1.880  11.128
92657W        W62538  29.108   9.829   2.863
92658W        W62539  31.613  41.538   1.295
92659W        W62540  27.984   5.390  14.009
92660W        W62541  21.582  24.189   3.857
92661W        W62542  10.312  38.994   1.286
92662W        W62543   7.407   4.819  13.811
92663W        W62544  40.504  33.921  12.854
92664W        W62545  12.661  19.630  10.487
92665W        W62546  15.710   0.416   1.712
92666W        W62547  12.848  31.131   5.800
92667W        W62548  10.197  38.524   1.240
92668W        W62549  16.289  41.370  11.580
92669W        W62550   2.789  44.291  12.381
92670W        W62551  24.597  36.974  11.438
92671W        W62552  24.085  31.032  11.587
92672W        W62553  23.612  12.850   0.306
92673W        W62554  24.001  36.578   4.209
92674W        W62555  11.196  28.602   4.805
92675W        W62556  35.943  21.694   0.859
92676W        W62557  31.644  31.952   4.708
92677W        W62558   1.397  15.739   4.315
92678W        W62559  12.780  42.917   1.296
92679W        W62560  29.607  38.042  14.395
92680W        W62561  23.545  42.300   1.778
92681W        W62562  32.536   3.748  14.459
92682W        W62563  11.668  22.674  13.424
92683W        W62564  18.063  42.880  10.472
92684W        W62565  13.829   3.388  14.501
92685W        W62566   7.303  32.437  13.943
92686W        W62567  30.925  31.494   0.409
92687W        W62568  27.532  11.361  12.355
92688W        W62569  22.190  16.152  13.494
92689W        W62570  14.326   1.838  12.075
92690W        W62571  12.622  17.146  13.981
92691W        W62572  26.691  26.068  14.298
92692W        W62573   7.879   4.332  14.879
92693W        W62574  28.952  35.405  10.461
92694W        W62575  27.605  22.140  10.978
92695W        W62576  36.409  43.779   0.933
92696W        W62577  33.590  43.344  14.363
92697W        W62578  23.527  37.066   0.441
92698W        W62579  12.782  39.064   1.724
92699W        W62580  23.047  31.508   1.404
92700W        W62581  33.927  27.471   4.183
92701W        W62582  42.952   0.978  13.461
92702W        W62583  30.487  40.546  12.379
92703W        W62584   5.280  34.962  12.493
92704W        W62585   1.939  23.628   0.459
92705W        W62586  29.600  44.297  10.611
92706W        W62587  11.373  34.615  12.556
92707W        W62588  30.156  31.062   0.889
92708W        W62589  23.587  30.417   1.926
92709W        W62590  15.798   1.817   1.898
92710W        W62591  44.301   1.474  14.405
92711W        W62592  20.047  31.014  14.488
92712W        W62593  43.766  39.046   2.263
92713W        W62594  34.551   0.908  13.331
92714W        W62595  28.165  41.830   0.778
92715W        W62596   6.221   7.316  12.993
92716W        W62597  11.157  32.989   0.409
92717W        W62598  15.724  17.585   1.392
92718W        W62599   8.320   0.396   1.844
92719W        W62600  18.193  28.551   2.855
92720W        W62601   2.812   6.190  11.447
92721W        W62602   3.295  24.085  14.365
92722W        W62603  27.057  22.995   4.742
92723W        W62604  11.193  11.190   3.383
92724W        W62605  37.851  34.100   0.265
92725W        W62606  25.483  19.616   2.394
92726W        W62607  40.471   8.219  11.950
92727W        W62608  16.604  32.517  12.035
92728W        W62609   0.850  38.540   4.670
92729W        W62610  39.550  21.554   3.696
92730W        W62611  16.709  23.730   1.823
92731W        W62612  43.382  22.708   3.694
92732W        W62613  42.527  32.896   1.929
92733W        W62614  32.064  23.724   0.446
92734W        W62615  15.593  18.737  13.984
92735W        W62616  21.026  12.856   2.776
92736W        W62617  37.461   8.687   3.199
92737W        W62618  13.687  15.617  12.091
92738W        W62619  39.015  41.295  14.372
92739W        W62620  11.143   7.786   1.275
92740W        W62621  13.149  44.889   4.154
92741W        W62622  29.527  16.249  12.042
92742W        W62623  43.371  14.334   4.792
92743W        W62624  42.440  23.679  11.049
92744W        W62625  18.140  15.587  14.932
92745W        W62626  25.694  14.295  11.867
92746W        W62627  33.625  35.935  14.461
92747W        W62628  28.971  34.040   0.897
92748W        W62629  26.194   6.872  10.607
92749W        W62630  19.592  10.279  10.436
92750W        W62631  21.175   0.917  12.036
92751W        W62632  40.363  30.982  11.114
92752W        W62633  13.726  32.084   0.292
92753W        W62634  14.771  17.708   2.847
92754W        W62635  20.604  25.664   2.752
92755W        W62636  37.856  24.205  14.836
92756W        W62637  43.426  20.690  10.640
92757W        W62638   9.704  14.250  14.491
92758W        W62639   0.811  35.095   3.252
92759W        W62640  30.985  26.627  10.027
92760W        W62641  21.081  27.661   2.679
92761W        W62642  15.184  35.394  14.030
92762W        W62643   9.855  16.715   9.641
92763W        W62644  31.971  25.103  13.495
92764W        W62645   2.966  35.043  14.021
92765W        W62646  20.725   3.868  11.056
92766W        W62647  42.899  18.590   3.206
92767W        W62648  44.944  43.331  12.349
92768W        W62649  27.484  34.448  14.005
92769W        W62650  43.360   6.880   1.846
92770W        W62651  38.945  32.937  13.310
92771W        W62652  43.791  21.638   3.186
92772W        W62653  21.748  12.674  11.095
92773W        W62654   3.740  33.068  14.779
92774W        W62655  37.446  14.782  13.473
92775W        W62656  15.224  41.314  11.090
92776W        W62657  26.027  13.815   1.363
92777W        W62658  11.643   5.790   4.221
92778W        W62659  41.474   4.799  14.861
92779W        W62660  43.516   4.796   3.244
92780W        W62661   5.438  34.894   0.820
92781W        W62662   3.792  31.996   0.273
92782W        W62663  42.308   4.818   0.315
92783W        W62664  18.708  31.549   3.663
92784W        W62665  38.459   5.204  10.472
92785W        W62666  24.109  27.965   0.263
92786W        W62667  28.058   3.880   0.766
92787W        W62668  25.654  15.609   3.743
92788W        W62669  43.464  43.456  14.796
92789W        W62670  11.300  36.507  13.493
92790W        W62671  29.497   3.758   0.878
92791W        W62672  11.172  33.616   3.213
92792W        W62673  37.422  41.463  11.105
92793W        W62674  24.146  13.236   1.289
92794W        W62675  37.020  35.940   1.327
92795W        W62676  20.204   3.271   1.449
92796W        W62677  36.037  37.459  12.876
92797W        W62678  37.526   2.393   5.295
92798W        W62679  11.692   3.829  11.611
92799W        W62680   1.768  30.974  14.913
92800W        W62681  36.848  30.487  14.023
92801W        W62682  20.545  19.219   4.150
92802W        W62683   0.857  31.013   4.710
92803W        W62684   5.734  23.147   2.279
92804W        W62685   6.870   8.825   2.218
92805W        W62686  34.466   3.225   0.266
92806W        W62687  30.053  12.827   3.358
92807W        W62688  24.085  12.330   0.474
92808W        W62689  22.213  30.637  13.931
92809W        W62690   5.225  28.504   3.830
92810W        W62691   7.258  25.528  12.885
92811W        W62692  18.556   1.927  14.384
92812W        W62693  13.683  40.847   2.321
92813W        W62694   3.266  18.676   0.353
92814W        W62695   8.671   8.315   3.239
92815W        W62696  18.211  44.004  13.838
92816W        W62697   3.430  42.925  12.964
92817W        W62698  41.983  17.635  11.006
92818W        W62699   6.389  30.103  14.323
92819W        W62700  41.442  14.169  13.415
92820W        W62701  39.494  18.246  11.382
92821W        W62702  30.126  18.642  14.023
92822W        W62703  13.166  27.133   2.259
92823W        W62704  20.653  13.659  11.378
92824W        W62705  40.005  29.609  14.484
92825W        W62706   6.329  41.815  14.382
92826W        W62707  22.087  17.232   1.908
92827W        W62708  40.397  11.843   0.411
92828W        W62709  37.024  25.635  11.973
92829W        W62710  20.751  12.660  13.371
92830W        W62711  25.625   8.766  14.463
92831W        W62712  36.437  25.008   3.290
92832W        W62713   1.947  18.551   2.341
92833W        W62714   9.655  35.507   0.472
92834W        W62715  36.535  10.297  11.890
92835W        W62716  37.990  28.187   2.846
92836W        W62717  29.936  33.600  11.560
92837W        W62718  39.544  38.907   3.216
92838W        W62719   8.752   1.336   4.725
92839W        W62720  23.653  16.631   1.317
92840W        W62721  38.837   4.897   4.240
92841W        W62722  25.969  38.365   0.250
92842W        W62723  42.286  41.913  12.969
92843W        W62724  34.522  20.248   2.704
92844W        W62725   5.197  38.344  10.437
92845W        W62726  27.173  25.147   2.196
92846W        W62727  32.027  11.357   0.480
92847W        W62728  11.778  31.006   4.763
92848W        W62729  34.912  18.788   0.317
92849W        W62730  27.510  16.767   2.690
92850W        W62731  39.510   8.789   2.760
92851W        W62732  13.842  27.121   2.347
92852W        W62733   0.811  21.198  10.927
92853W        W62734  34.395  19.101   0.412
92854W        W62735  31.486  31.088   3.686
92855W        W62736  12.245   8.799   3.277
92856W        W62737   3.812   1.762   4.648
92857W        W62738  41.409  43.905  14.371
92858W        W62739   5.287  33.123   3.739
92859W        W62740  36.856  14.317  14.000
92860W        W62741  42.458  41.944  11.458
92861W        W62742  24.133   5.818   3.769
92862W        W62743  18.229   3.270   1.235
92863W        W62744   4.731  10.186  11.972
92864W        W62745  22.231  35.015  12.460
92865W        W62746   5.420  27.530   2.240
92866W        W62747  33.442   0.944   2.709
92867W        W62748   5.922  30.467  11.432
92868W        W62749  40.006  15.634   0.810
92869W        W62750  35.000  44.319   2.332
92870W        W62751  23.647  44.293  14.471
92871W        W62752  32.906   4.733  13.538
92872W        W62753  22.602  19.626   1.808
92873W        W62754  37.518   8.843   2.798
92874W        W62755  25.994  17.284  12.988
92875W        W62756  10.206  26.528   2.347
92876W        W62757  28.572  18.070  12.400
92877W        W62758  25.185  24.031   0.469
92878W        W62759   5.208  11.318  13.461
92879W        W62760   8.898  41.905   0.410
92880W        W62761  29.120  34.369  12.903
92881W        W62762  20.171  17.781  10.483
92882W        W62763  44.447  23.057  13.491
92883W        W62764  25.695  44.267   1.852
92884W        W62765  16.612  15.260  13.968
92885W        W62766   8.816  37.050   3.818
92886W        W62767  39.552  18.268   4.606
92887W        W62768  32.581  31.406  11.407
92888W        W62769  43.903  35.087   2.712
92889W        W62770  29.473  36.546   2.195
92890W        W62771  18.052   8.365   4.693
92891W        W62772  10.163  12.780  11.989
92892W        W62773   1.802   8.209  11.879
92893W        W62774  40.928  32.127  12.468
92894W        W62775  19.255   2.735   1.774
92895W        W62776  35.908  40.829   4.130
92896W        W62777  29.479   1.455   3.162
92897W        W62778  17.207  14.107  12.381
92898W        W62779  43.896  31.575   0.322
92899W        W62780  43.505  13.120  14.761
92900W        W62781  35.456  21.641   3.672
92901W        W62782  16.634  18.246  14.437
92902W        W62783  26.087  10.687   1.834
92903W        W62784   0.805   4.349   2.391
92904W        W62785  35.523  10.698   4.253
92905W        W62786  31.484  15.116   5.134
92906W        W62787   0.379  38.916  11.482
92907W        W62788  31.103   6.855  12.980
92908W        W62789  24.180  39.395   4.146
92909W        W62790  19.763  41.340   2.873
92910W        W62791  26.034  37.347  10.438
92911W        W62792   5.328   7.207   4.266
92912W        W62793  12.238  17.141  14.803
92913W        W62794  42.512   6.391   1.744
92914W        W62795  39.497  22.051  13.849
92915W        W62796  13.750  24.095   1.741
92916W        W62797   1.382  14.195   4.240
92917W        W62798  29.563  27.151  14.387
92918W        W62799  24.597   1.480  12.942
92919W        W62800  26.144  32.630  11.911
92920W        W62801  39.377   0.958   2.365
92921W        W62802   0.317  36.416   1.354
92922W        W62803   5.908  32.488   2.761
92923W        W62804  32.051  11.245  11.883
92924W        W62805   9.743  31.427  12.511
92925W        W62806   5.279  35.997   3.756
92926W        W62807  41.320  44.372   4.328
92927W        W62808   2.240  32.964   4.638
92928W        W62809  29.649  25.607   3.652
92929W        W62810  10.635   5.920   4.671
92930W        W62811  40.376  32.124   4.333
92931W        W62812  44.001  25.468  13.039
92932W        W62813  28.563  21.045  12.080
92933W        W62814  10.275   5.796  11.917
92934W        W62815  26.701  31.433  13.512
92935W        W62816  19.549  26.703   2.215
92936W        W62817   3.288   4.821   5.155
92937W        W62818  36.519  39.379   0.285
92938W        W62819  15.780  19.676   2.786
92939W        W62820  40.437  30.463   5.221
92940W        W62821  42.339  28.176  10.611
92941W        W62822  39.986   8.810  12.561
92942W        W62823  43.876  20.041  13.349
92943W        W62824  44.995  14.729  13.000
92944W        W62825  23.693  10.822   0.924
92945W        W62826  32.439  18.112  13.482
92946W        W62827  14.710  26.486  10.023
92947W        W62828  37.483  39.407  11.603
92948W        W62829   5.201  38.067  13.937
92949W        W62830  23.099   8.834   2.341
92950W        W62831  21.597  37.894  11.088
92951W        W62832  30.006  25.112  10.476
92952W        W62833  33.394  28.020  14.031
92953W        W62834  16.246  22.559  13.472
92954W        W62835  29.053  44.781  14.909
92955W        W62836   6.890  34.065   3.250
92956W        W62837  44.841   6.414   0.772
92957W        W62838   1.907  42.994  12.421
92958W        W62839  42.310  21.552   0.346
92959W        W62840  22.030  22.184  13.918
92960W        W62841  44.426  13.759   1.219
92961W        W62842  36.436  12.221   2.271
92962W        W62843  23.077  26.030   3.313
92963W        W62844   7.320  37.957   1.368
92964W        W62845  38.334  36.473   3.346
92965W        W62846   3.949  26.528   2.193
92966W        W62847  29.098  33.007  12.944
92967W        W62848   0.284   5.783  14.317
92968W        W62849  13.680  38.984  10.599
92969W        W62850   5.898  36.989  13.307
92970W        W62851  21.531  28.531   4.200
92971W        W62852   9.853  43.827   1.766
92972W        W62853  36.846  18.194  12.959
92973W        W62854   5.841   7.286  12.474
92974W        W62855  30.074  42.821  14.925
92975W        W62856  32.432  12.119   4.785
92976W        W62857  40.054  27.495   1.316
92977W        W62858  31.967   6.374  10.891
92978W        W62859  40.864  36.437  11.980
92979W        W62860  15.689   1.792   0.318
92980W        W62861  22.730   2.299   4.200
92981W        W62862   7.210   7.709  14.930
92982W        W62863   9.171  10.700  14.867
92983W        W62864  22.645  10.845  11.403
92984W        W62865  10.313  19.567  11.577
92985W        W62866  17.164  40.002   2.352
92986W        W62867   9.697  10.750   3.739
92987W        W62868  26.959  28.929   2.336
92988W        W62869  22.144  38.825  12.530
92989W        W62870   3.445   5.205   1.352
92990W        W62871  34.997  32.985   0.377
92991W        W62872  17.740  42.926   1.737
92992W        W62873  32.972  24.692   0.805
92993W        W62874  28.653  32.601   2.899
92994W        W62875  28.115  25.192   3.183
92995W        W62876   5.750  39.914  13.893
92996W        W62877   5.933  28.001   3.248
92997W        W62878   6.823  44.777   2.298
92998W        W62879  33.033  28.143   2.216
92999W        W62880  43.924  27.588  14.800
93000W        W62881   4.344  13.798   2.795
93001W        W62882  33.448  19.149   4.279
93002W        W62883  26.617   1.468   5.320
93003W        W62884   9.188  30.624   5.169
93004W        W62885  10.197  31.642  10.079
93005W        W62886  16.245  33.113  13.811
93006W        W62887  16.758  39.815  11.486
93007W        W62888  19.752  13.722   0.727
93008W        W62889   6.236  29.004  12.963
93009W        W62890  40.818  43.339  11.966
93010W        W62891  39.933   8.792  13.341
93011W        W62892  25.603  38.863  11.529
93012W        W62893  26.055  15.217  11.874
93013W        W62894  30.625  24.128   3.819
93014W        W62895  23.154  31.147   4.349
93015W        W62896   1.363  28.137   3.331
93016W        W62897  40.390  44.393  13.845
93017W        W62898  29.628   3.824  14.792
93018W        W62899  19.078  38.012   1.241
93019W        W62900  24.118   8.295  11.058
93020W        W62901  18.761  16.771  12.555
93021W        W62902   4.708  40.002  12.467
93022W        W62903  24.719  28.957  12.497
93023W        W62904  29.967  22.643   2.211
93024W        W62905  10.241  43.513  13.444
93025W        W62906  28.008  43.293   3.780
93026W        W62907   9.313  39.551  12.461
93027W        W62908   3.398  24.038   1.786
93028W        W62909   2.301   1.813   1.820
93029W        W62910  39.426  34.926   2.208
93030W        W62911  23.707  24.490   2.779
93031W        W62912  25.141  27.118  13.976
93032W        W62913  15.139  34.541  11.540
93033W        W62914   0.858  28.939  13.003
93034W        W62915  40.503  24.673   2.790
93035W        W62916   5.867  16.219  12.068
93036W        W62917  26.965   8.675   1.361
93037W        W62918  10.238   6.333  13.441
93038W        W62919   0.411   7.807   3.752
93039W        W62920  15.242  20.098  13.859
93040W        W62921  30.560  32.514   3.646
93041W        W62922  12.240  26.981  12.951
93042W        W62923  31.576  21.023   0.377
93043W        W62924   4.861  28.512  10.644
93044W        W62925   3.322  12.717   4.746
93045W        W62926  31.489  40.465   2.309
93046W        W62927   1.257   1.917   0.751
93047W        W62928  22.095  13.196   2.185
93048W        W62929  31.436   1.333   4.742
93049W        W62930  11.769  33.435   4.764
93050W        W62931   4.326  24.720  12.405
93051W        W62932  15.735   0.380  11.022
93052W        W62933  42.836   8.886  12.979
93053W        W62934  13.127  39.030  10.458
93054W        W62935  31.473  43.428  10.986
93055W        W62936  41.965  34.400  11.087
93056W        W62937  32.495  41.865   2.893
93057W        W62938  24.164  28.447   3.340
93058W        W62939  22.187  26.013   3.309
93059W        W62940  15.107  10.240  10.984
93060W        W62941  44.970  44.800  14.882
93061W        W62942  15.606  40.038  12.512
93062W        W62943  43.002   6.687  12.055
93063W        W62944  19.225  41.391  10.409
93064W        W62945   5.436  10.203  14.887
93065W        W62946  44.969  15.083  13.493
93066W        W62947  19.666  42.952   2.194
93067W        W62948   3.446   3.383  12.975
93068W        W62949  31.540  21.235   3.291
93069W        W62950  13.111  12.157  12.475
93070W        W62951  12.846  22.131  13.949
93071W        W62952  16.577  18.655  13.320
93072W        W62953  22.623  43.950  14.012
93073W        W62954   3.735   3.715   2.370
93074W        W62955  37.071  20.734   0.291
93075W        W62956  32.131  29.560  12.479
93076W        W62957  37.552   7.298  14.933
93077W        W62958  10.756  21.744   1.878
93078W        W62959  15.683  38.838  13.548
93079W        W62960  17.170  42.907   1.280
93080W        W62961  22.130  16.135  12.899
93081W        W62962  28.497  26.141   2.845
93082W        W62963   9.336  23.685  11.402
93083W        W62964  39.412   6.792   4.229
93084W        W62965  25.707   6.740  14.904
93085W        W62966   9.805  32.460  13.920
93086W        W62967   4.817  40.403   1.217
93087W        W62968  41.896  42.378  11.465
93088W        W62969   8.755  24.085   2.327
93089W        W62970   0.814  10.311   2.354
93090W        W62971  40.002  34.872   0.801
93091W        W62972  19.177  19.166  12.395
93092W        W62973  15.700   8.686  13.850
93093W        W62974  34.043  19.217   1.714
93094W        W62975  16.162  22.079  10.619
93095W        W62976  22.707  23.544   4.254
93096W        W62977  19.613  21.074   1.393
93097W        W62978  11.807  44.437   2.751
93098W        W62979  14.135  12.793  14.434
93099W        W62980  31.063  37.466   5.201
93100W        W62981   4.259  42.016   0.421
93101W        W62982  12.824  36.503   2.766
93102W        W62983  18.611   6.893  12.442
93103W        W62984  25.988   9.260  11.555
93104W        W62985  41.968  25.096  11.046
93105W        W62986  30.939  13.285  13.482
93106W        W62987  44.471  42.387   9.928
93107W        W62988  33.035  37.914  11.997
93108W        W62989   3.797   7.665   3.745
93109W        W62990  30.567   1.787   1.388
93110W        W62991   0.265  36.864   1.437
93111W        W62992  32.627  10.795   3.707
93112W        W62993  38.563  17.208   4.220
93113W        W62994  16.634  18.247   0.313
93114W        W62995  28.529  40.999   3.731
93115W        W62996  26.565  34.456   1.300
93116W        W62997  17.254   0.349   2.258
93117W        W62998  40.888  40.854   1.837
93118W        W62999  38.451  20.561   1.279
93119W        W63000  29.046   2.872  12.531
93120W        W63001   8.235  24.509  12.451
93121W        W63002   9.296   0.490   1.751
93122W        W63003  33.605   8.703   5.284
93123W        W63004  29.030  14.610  14.917
93124W        W63005  31.928  23.109   2.370
93125W        W63006  12.129   1.959  12.461
93126W        W63007  22.011  33.400   1.875
93127W        W63008  33.090  22.509   1.373
93128W        W63009  20.258  44.825   2.786
93129W        W63010   6.356  10.785   1.796
93130W        W63011   4.425  17.094   3.259
93131W        W63012  23.232  36.952  14.488
93132W        W63013  40.971  25.143   3.742
93133W        W63014  44.287  24.539  11.528
93134W        W63015  37.969  15.261   1.397
93135W        W63016  40.357  10.302  12.392
93136W        W63017  14.592   2.873  13.815
93137W        W63018  34.085  38.957   0.898
93138W        W63019  21.245  17.146   0.856
93139W        W63020  27.096  40.873   4.136
93140W        W63021  30.415   6.789  10.906
93141W        W63022  23.537  22.651  12.078
93142W        W63023  21.742   0.837  12.087
93143W        W63024  31.525  28.501  11.591
93144W        W63025   1.956   8.729   0.925
93145W        W63026   4.943  40.036  10.954
93146W        W63027   3.457   3.402   0.390
93147W        W63028  43.438  37.073  12.842
93148W        W63029  32.922  15.685  10.590
93149W        W63030  28.536   9.220   1.306
93150W        W63031  29.499   6.372  14.867
93151W        W63032  25.692  12.740  13.791
93152W        W63033   8.897  17.245   0.842
93153W        W63034   8.371  30.912  13.426
93154W        W63035  20.522  39.366   1.212
93155W        W63036  41.309  33.496   4.120
93156W        W63037  32.444  22.731  12.542
93157W        W63038  23.040  32.977   0.933
93158W        W63039  34.948  16.636   4.756
93159W        W63040  11.352  21.199   2.668
93160W        W63041  20.723   4.222  11.060
93161W        W63042  28.989   1.904   4.660
93162W        W63043  17.606  19.094   4.820
93163W        W63044   0.359  18.747   0.870
93164W        W63045  43.939  29.622   3.228
93165W        W63046   9.164   3.846  11.497
93166W        W63047  22.128   4.848   3.218
93167W        W63048  25.697  35.002  11.474
93168W        W63049   2.407   3.920   2.295
93169W        W63050  41.480  15.151   4.155
93170W        W63051  27.167  24.210  10.153
93171W        W63052  41.831  38.497  14.801
93172W        W63053  41.917  32.579   0.940
93173W        W63054  25.060  41.371   0.323
93174W        W63055  24.228   9.845  13.411
93175W        W63056   7.727   1.340   2.902
93176W        W63057   4.758  36.447   1.768
93177W        W63058   9.708  36.898  13.916
93178W        W63059   4.265  31.134   3.358
93179W        W63060  44.485   9.792   4.261
93180W        W63061  22.724  17.629   3.191
93181W        W63062  44.358  22.244   3.292
93182W        W63063  17.130  17.180  10.990
93183W        W63064  41.801  23.506   9.930
93184W        W63065  37.904  32.104   4.210
93185W        W63066  13.781  10.297  14.336
93186W        W63067  31.578  44.939   0.419
93187W        W63068  13.245   0.988  14.844
93188W        W63069  41.527  39.455  14.870
93189W        W63070  32.982  17.223  10.003
93190W        W63071  23.121   1.952   0.420
93191W        W63072  37.873   6.817  13.510
93192W        W63073   0.985   2.749   2.217
93193W        W63074  33.033  27.020  13.389
93194W        W63075   1.754  32.471  10.898
93195W        W63076  21.682  10.316   3.158
93196W        W63077   0.889  27.065  12.849
93197W        W63078  18.679  44.452   1.879
93198W        W63079  16.569  37.456  11.076
93199W        W63080  20.132  28.082  11.463
93200W        W63081   5.773  20.150  14.822
93201W        W63082  16.805  40.303   0.825
93202W        W63083  44.833   8.238  10.897
93203W        W63084   1.440   5.790   4.222
93204W        W63085  41.835  29.128  12.999
93205W        W63086   5.903  33.504  13.498
93206W        W63087  14.192   2.427  12.080
93207W        W63088  28.675   9.273   3.181
93208W        W63089  17.725  12.307  11.925
93209W        W63090   8.309  17.698   4.310
93210W        W63091  30.916  20.061   2.902
93211W        W63092   6.864  10.333   4.206
93212W        W63093  33.885  33.452  14.940
93213W        W63094  29.097   6.293   3.307
93214W        W63095  39.409  34.485  14.434
93215W        W63096  23.219  23.510   4.749
93216W        W63097  40.437  18.700   3.269
93217W        W63098  17.739  39.012   2.254
93218W        W63099  18.730  17.788   3.203
93219W        W63100   3.809  23.157  13.909
93220W        W63101   6.904  34.079  14.956
93221W        W63102  30.973   6.919  14.870
93222W        W63103  27.127  14.628   0.384
93223W        W63104  21.655  28.056   3.296
93224W        W63105   5.286  43.293   1.400
93225W        W63106   2.785  44.493  10.485
93226W        W63107  10.376  15.135  12.548
93227W        W63108  12.723  10.297   3.350
93228W        W63109  20.039  10.322  12.496
93229W        W63110   1.970  30.114  12.393
93230W        W63111  41.850  18.276  12.084
93231W        W63112  32.130  26.665   2.201
93232W        W63113   3.921   0.947   1.921
93233W        W63114  34.077  29.079   3.869
93234W        W63115  34.047   9.785   0.416
93235W        W63116  36.859   2.939  11.560
93236W        W63117  18.723   3.899  12.389
93237W        W63118  30.080   9.655  14.505
93238W        W63119  20.108  43.999  11.948
93239W        W63120  38.995   1.898   1.906
93240W        W63121  44.935  15.595   1.295
93241W        W63122  42.791  24.026   3.697
93242W        W63123   0.784  25.112   0.785
93243W        W63124  25.153  12.804  11.514
93244W        W63125  24.080  11.854   3.299
93245W        W63126  19.671  31.136  14.466
93246W        W63127  40.307   3.396   1.718
93247W        W63128   2.262  12.655  10.911
93248W        W63129   0.482  29.597   3.153
93249W        W63130  23.217  26.664  13.481
93250W        W63131  10.785   8.661  11.442
93251W        W63132  18.149  11.783   2.193
93252W        W63133   1.366  16.624  10.554
93253W        W63134  41.964  39.560   3.240
93254W        W63135   7.393   2.274   2.233
93255W        W63136   7.714   9.330   1.335
93256W        W63137  27.111  40.548   2.756
93257W        W63138  24.097  23.617   4.641
93258W        W63139  25.101  36.484  11.597
93259W        W63140  23.629  43.825   0.872
93260W        W63141  15.185  21.108   2.883
93261W        W63142   0.363   5.831   1.795
93262W        W63143  23.994  19.569   0.851
93263W        W63144  41.999  27.049   3.758
93264W        W63145  41.946  39.422  11.095
93265W        W63146   6.808   4.264  11.947
93266W        W63147  32.886  11.221  12.956
93267W        W63148   7.860   7.897  13.490
93268W        W63149  35.028  20.541   4.354
93269W        W63150  32.427  26.686   0.822
93270W        W63151  42.458   6.791  11.397
93271W        W63152  11.714   0.460   2.666
93272W        W63153  31.493  12.117  10.538
93273W        W63154  25.471  38.437  12.010
93274W        W63155  40.985   0.447   2.360
93275W        W63156  38.978  16.107  14.403
93276W        W63157  40.991   5.244   0.937
93277W        W63158  21.037  12.358   4.282
93278W        W63159  17.778  29.452  11.418
93279W        W63160  11.706   4.936   4.243
93280W        W63161  40.329  29.598   2.876
93281W        W63162  13.215   0.849   4.226
93282W        W63163  25.979  40.375  14.462
93283W        W63164  17.699   5.296  14.278
93284W        W63165  27.949  33.023  11.451
93285W        W63166  18.184  31.454  10.944
93286W        W63167  36.396  21.751  13.350
93287W        W63168  28.122  36.460   1.451
93288W        W63169  19.534  23.640  12.017
93289W        W63170  15.215  19.050   0.253
93290W        W63171  28.645  39.461   2.702
93291W        W63172  26.129  25.131  13.924
93292W        W63173  40.390  30.480   1.335
93293W        W63174  37.439  22.531   3.825
93294W        W63175  19.739  27.079  11.046
93295W        W63176  11.719  37.892   3.841
93296W        W63177   6.838  26.066   4.733
93297W        W63178  33.601  20.143  12.026
93298W        W63179  33.610  35.089  10.010
93299W        W63180  41.939   7.380  11.908
93300W        W63181   6.797  33.940  13.540
93301W        W63182  28.620  27.615   0.382
93302W        W63183  40.393  42.294   3.226
93303W        W63184   1.333  43.939   2.351
93304W        W63185  12.134  10.780  10.939
93305W        W63186  23.118   2.755   3.642
93306W        W63187  26.617  37.494   0.820
93307W        W63188   7.899  26.981  10.484
93308W        W63189  43.300  24.656  14.445
93309W        W63190   5.764  10.358  10.134
93310W        W63191  13.824  25.975   3.694
93311W        W63192  22.567   3.331   4.827
93312W        W63193  10.268  43.491  14.032
93313W        W63194  16.624  26.510  11.043
93314W        W63195   1.840  10.730   2.222
93315W        W63196  34.568  14.105   0.396
93316W        W63197  24.065  41.370  11.508
93317W        W63198  17.067  39.498  12.419
93318W        W63199   5.872  13.632  12.400
93319W        W63200  19.586  43.822  10.003
93320W        W63201  28.567  11.679  14.014
93321W        W63202  30.493  44.362   5.209
93322W        W63203  34.927   7.185   5.283
93323W        W63204  15.653  42.385  14.439
93324W        W63205  21.183   5.438  10.469
93325W        W63206  16.092  24.619  12.006
93326W        W63207   1.837   8.867  10.996
93327W        W63208  36.463  41.500  12.083
93328W        W63209  44.826  15.094  10.959
93329W        W63210  18.724  26.040   2.222
93330W        W63211  25.206  15.148  11.081
93331W        W63212  32.064  36.882  12.444
93332W        W63213  14.134  12.184   1.214
93333W        W63214  12.707  24.174   4.125
93334W        W63215   5.921  10.867   4.647
93335W        W63216  26.464  32.954   2.851
93336W        W63217  19.228  43.780  11.405
93337W        W63218   2.947  34.111   3.638
93338W        W63219  18.740  13.820   4.685
93339W        W63220  38.431  25.195  14.891
93340W        W63221  39.394  31.983   2.362
93341W        W63222  29.664  23.092   2.327
93342W        W63223  41.885   4.783  12.951
93343W        W63224  34.032  15.181  12.946
93344W        W63225  32.592  29.957   2.685
93345W        W63226  40.809   6.423   1.802
93346W        W63227   5.706   9.663   1.219
93347W        W63228  13.190  15.591  10.558
93348W        W63229   8.705  36.433   4.225
93349W        W63230   4.803  31.505   1.710
93350W        W63231  36.007  25.645  14.503
93351W        W63232   6.190   9.813  14.870
93352W        W63233  40.326  35.392  11.426
93353W        W63234   2.457  35.582   0.939
93354W        W63235   6.373   4.768  12.438
93355W        W63236   6.335   4.401  13.832
93356W        W63237  44.364  40.867  10.952
93357W        W63238   0.452  40.357  10.923
93358W        W63239  34.479  38.047   1.379
93359W        W63240   2.728   9.192  14.942
93360W        W63241  37.436   2.452   1.812
93361W        W63242  10.662  21.743   0.739
93362W        W63243  44.351  35.987  13.811
93363W        W63244  25.119   6.234   5.152
93364W        W63245   9.378  35.013  11.119
93365W        W63246  36.869  23.697   1.925
93366W        W63247  28.011   9.303   0.338
93367W        W63248  25.001  42.802   3.195
93368W        W63249  42.827  17.154  11.454
93369W        W63250  10.150  41.528  10.154
93370W        W63251  36.452   9.682  13.950
93371W        W63252  39.488  11.213  14.781
93372W        W63253  21.122  38.407  11.441
93373W        W63254  35.960   0.417   4.801
93374W        W63255  39.326  16.128   0.734
93375W        W63256  40.852  16.796   1.706
93376W        W63257   1.957   8.865  12.525
93377W        W63258  26.608  13.282   5.107
93378W        W63259  28.474  34.937   4.225
93379W        W63260  21.196  27.055  12.056
93380W        W63261  28.941  28.600   0.876
93381W        W63262  19.070  39.048  10.535
93382W        W63263  29.922   4.343  13.314
93383W        W63264  31.017  19.763   1.730
93384W        W63265  23.142  42.320  12.444
93385W        W63266   7.184  29.550   3.305
93386W        W63267  31.135  37.573   2.702
93387W        W63268  10.811  16.759   4.741
93388W        W63269  33.028  13.182  12.027
93389W        W63270  37.908  34.565   4.213
93390W        W63271  16.607  21.555   0.270
93391W        W63272  28.562   4.899   4.797
93392W        W63273  30.145  31.601  10.557
93393W        W63274  36.462  13.706   1.812
93394W        W63275  18.720   3.746  14.993
93395W        W63276   8.686  14.214  14.768
93396W        W63277  42.466  41.893   4.623
93397W        W63278  28.570  10.842   2.405
93398W        W63279  38.885  40.352   1.766
93399W        W63280  42.782   5.313  12.085
93400W        W63281  38.960  11.211   0.877
93401W        W63282  35.966   4.251  11.399
93402W        W63283  10.797   9.741   1.436
93403W        W63284   8.212  39.371   0.407
93404W        W63285  15.262  12.206   2.742
93405W        W63286  37.952  37.474   4.201
93406W        W63287  11.766  27.502  10.440
93407W        W63288   1.958  16.231  10.982
93408W        W63289  36.559  37.011  11.408
93409W        W63290  26.047  30.000  14.994
93410W        W63291  18.273  14.750   0.269
93411W        W63292  16.571  32.015   3.831
93412W        W63293   5.233  38.408  11.085
93413W        W63294  34.567  13.197  10.450
93414W        W63295  39.511   8.332   2.713
93415W        W63296   8.662   0.861  14.828
93416W        W63297   4.219  23.167  11.567
93417W        W63298  10.216  32.966   2.319
93418W        W63299   0.971  29.963  14.445
93419W        W63300  30.909  40.989   2.388
93420W        W63301  12.739   5.734  11.129
93421W        W63302  11.819  20.222   3.345
93422W        W63303  33.587   1.865   0.470
93423W        W63304  30.031  37.073   1.864
93424W        W63305  10.171  26.678  12.861
93425W        W63306   1.833   9.371   1.447
93426W        W63307  25.704  40.048   3.208
93427W        W63308  20.630  43.848   1.413
93428W        W63309  24.630  41.793   1.268
93429W        W63310   3.264  33.126  12.047
93430W        W63311  43.329  26.496  10.940
93431W        W63312  20.111  10.351   0.894
93432W        W63313  25.010  27.060  13.056
93433W        W63314   1.860  41.407  14.508
93434W        W63315  20.690  36.396   2.276
93435W        W63316   7.708   5.257  14.371
93436W        W63317   1.952  33.581   2.775
93437W        W63318   6.236  35.392  14.473
93438W        W63319   0.382  19.746  14.905
93439W        W63320   5.732   2.316   2.223
93440W        W63321  44.347  30.486   2.283
93441W        W63322  41.852  12.678  14.847
93442W        W63323  38.556  41.434  12.869
93443W        W63324  17.287  20.551   2.669
93444W        W63325  30.945  16.088  14.376
93445W        W63326   8.379  42.869  13.981
93446W        W63327  20.096  27.542  11.376
93447W        W63328  30.539  43.868  14.813
93448W        W63329   8.184  17.226   4.818
93449W        W63330  38.895  44.286  13.435
93450W        W63331  28.660   4.860   2.784
93451W        W63332  38.429   8.676   3.317
93452W        W63333  44.887  16.807   2.379
93453W        W63334  30.428  15.160   4.741
93454W        W63335  25.205   4.756   2.805
93455W        W63336  18.770  27.174  12.962
93456W        W63337  32.103   9.746   3.685
93457W        W63338  39.052  36.087   4.140
93458W        W63339  40.466  17.248  10.918
93459W        W63340  34.934  15.652  14.897
93460W        W63341  19.714  34.880   4.269
93461W        W63342   4.892  12.779  10.438
93462W        W63343  41.975  13.609   4.782
93463W        W63344  14.664  43.337   0.409
93464W        W63345  33.121  25.641   2.721
93465W        W63346   8.174  16.223   2.817
93466W        W63347  26.046  19.159   1.902
93467W        W63348  33.504   2.877  13.995
93468W        W63349  18.659  14.261   0.934
93469W        W63350   9.175  15.607  14.783
93470W        W63351  32.966  19.155   1.912
93471W        W63352  31.490  26.112  12.912
93472W        W63353   4.239  43.961   4.814
93473W        W63354  36.543  43.946   2.868
93474W        W63355  40.020   6.814   4.806
93475W        W63356  12.310  35.495  10.583
93476W        W63357  42.460   8.360  12.426
93477W        W63358  10.352  31.998  11.928
93478W        W63359  29.578  17.156  10.592
93479W        W63360  19.774  27.484   1.875
93480W        W63361  18.701   4.858  13.370
93481W        W63362  15.249  33.565   1.323
93482W        W63363   0.272  27.487   3.249
93483W        W63364  43.773   6.258  10.991
93484W        W63365  29.624  30.565   2.709
93485W        W63366  29.570  18.286   3.646
93486W        W63367   3.749   3.287   3.866
93487W        W63368  44.440   3.915  11.943
93488W        W63369   3.907  18.672  13.931
93489W        W63370  43.839   3.391   2.389
93490W        W63371  18.235  36.007   3.259
93491W        W63372   4.288   5.881   3.773
93492W        W63373   3.358   0.440  10.503
93493W        W63374  39.393  36.398   1.307
93494W        W63375  19.740  19.681   4.351
93495W        W63376   4.350  33.394  11.035
93496W        W63377  23.627   6.870   3.366
93497W        W63378   9.362  25.046  11.592
93498W        W63379  30.649   7.331   1.285
93499W        W63380  14.299  37.880   3.633
93500W        W63381   0.751  19.208  10.578
93501W        W63382  35.927   3.222   1.916
93502W        W63383   1.868   1.746   2.723
93503W        W63384   7.288  39.041  12.865
93504W        W63385  23.527  43.468  12.956
93505W        W63386  15.682  23.640   0.965
93506W        W63387  37.564  25.650  12.894
93507W        W63388  18.631  34.935   1.434
93508W        W63389  36.499  28.963  13.897
93509W        W63390  35.571  39.845  11.030
93510W        W63391   3.223  36.350  12.514
93511W        W63392  20.732   0.781   1.311
93512W        W63393  40.798  20.554  12.556
93513W        W63394  18.146   7.413  11.895
93514W        W63395   7.809  39.507  10.629
93515W        W63396  38.499  12.146  13.869
93516W        W63397  41.397  20.273   4.155
93517W        W63398   7.218  33.475  11.934
93518W        W63399  29.022  38.832  12.847
93519W        W63400  33.929  14.132   3.868
93520W        W63401  29.597  10.304   2.190
93521W        W63402  30.938  43.456   2.753
93522W        W63403  23.191  36.971   3.272
93523W        W63404  14.714   0.478  12.352
93524W        W63405   7.671  24.596  14.000
93525W        W63406  29.166   0.454  14.290
93526W        W63407   1.820   9.756   1.369
93527W        W63408  26.555   0.819   5.173
93528W        W63409  15.150  40.824  10.944
93529W        W63410  30.003  22.566   3.207
93530W        W63411   6.727  31.455   3.686
93531W        W63412  40.916   4.219  12.945
93532W        W63413   3.875  41.013   4.702
93533W        W63414  26.180  29.059  11.954
93534W        W63415  41.455  35.525   3.296
93535W        W63416  22.614   0.367  14.473
93536W        W63417  33.482   2.737  10.608
93537W        W63418  29.570   7.200   0.309
93538W        W63419  23.541   0.844   0.391
93539W        W63420  14.616  12.682  12.942
93540W        W63421  22.736  21.025  13.004
93541W        W63422  35.448  34.881  12.935
93542W        W63423  36.008  37.478  10.909
93543W        W63424   3.730  32.515  12.346
93544W        W63425  35.965  43.774  14.451
93545W        W63426  28.517  15.184   4.751
93546W        W63427  34.421  37.478   5.101
93547W        W63428   7.874  19.048  10.916
93548W        W63429  20.608   4.351  12.968
93549W        W63430   4.207  44.906   1.432
93550W        W63431   3.866  24.093  11.598
93551W        W63432  14.193   5.355  14.968
93552W        W63433   9.659  26.520  11.051
93553W        W63434  10.804   0.453   1.734
93554W        W63435  26.974  21.699   4.711
93555W        W63436  40.049  10.258   0.812
93556W        W63437   4.802  32.949   2.256
93557W        W63438   7.770  13.273  10.924
93558W        W63439  17.145   4.932  10.447
93559W        W63440  22.248  15.630  11.055
93560W        W63441   8.663  37.834   1.374
93561W        W63442  34.545  41.372   0.326
93562W        W63443   9.241  10.348   4.297
93563W        W63444  44.265  19.204   3.246
93564W        W63445  38.476  43.358  11.395
93565W        W63446  10.230  15.254   0.799
93566W        W63447   2.858  39.042   1.829
93567W        W63448   8.801   5.853  11.425
93568W        W63449  24.126  14.759   3.386
93569W        W63450   3.876  39.510   4.707
93570W        W63451   3.350  27.573   0.315
93571W        W63452  27.187  21.259  10.465
93572W        W63453  27.533  25.977   2.882
93573W        W63454  34.398   0.915   1.788
93574W        W63455  42.477  22.704  10.894
93575W        W63456  29.961   3.805   4.787
93576W        W63457  17.153  30.090   4.649
93577W        W63458  43.301  36.972   2.337
93578W        W63459  33.606   5.790  11.613
93579W        W63460   3.284   1.974   4.793
93580W        W63461  23.081  39.420  12.059
93581W        W63462  39.445  43.825   2.318
93582W        W63463  26.195  31.580  14.456
93583W        W63464  15.610  12.656  12.966
93584W        W63465  27.172  18.635   0.476
93585W        W63466  24.118   8.693  12.088
93586W        W63467  24.663  22.539  10.559
93587W        W63468  14.318  10.819  11.446
93588W        W63469  42.831  23.555   4.238
93589W        W63470  20.594  36.395  13.342
93590W        W63471  38.379   6.896   0.414
93591W        W63472  15.665  22.682   1.761
93592W        W63473  39.937  44.828   0.900
93593W        W63474  29.602  12.333   2.340
93594W        W63475  15.606   1.871   3.845
93595W        W63476  31.002  35.541   4.688
93596W        W63477   0.986  24.130  12.008
93597W        W63478  16.111  21.515   3.311
93598W        W63479  18.746  33.607   3.280
93599W        W63480  23.713   9.753   1.812
93600W        W63481  39.868  25.526  11.540
93601W        W63482  10.878  24.607  11.010
93602W        W63483  14.152  18.630  13.865
93603W        W63484   8.248  22.085   4.287
93604W        W63485  12.672   3.323   2.238
93605W        W63486  12.145  38.990   1.288
93606W        W63487  41.484   8.243  11.486
93607W        W63488  35.384   4.217   4.327
93608W        W63489  21.247  38.513  13.320
93609W        W63490  40.843   6.224  11.525
93610W        W63491  36.347  28.095  10.408
93611W        W63492   2.723  12.666  11.574
93612W        W63493  44.898  43.957   2.375
93613W        W63494  36.040  43.786   2.814
93614W        W63495  41.913  28.164  10.440
93615W        W63496  10.221  30.152   2.729
93616W        W63497  34.537  34.953   1.916
93617W        W63498   1.849   8.656  12.069
93618W        W63499  24.708  21.732  11.513
93619W        W63500  23.213  12.315   1.438
93620W        W63501   5.326  35.099  11.549
93621W        W63502   1.853  12.820   1.294
93622W        W63503  27.001  35.514   1.328
93623W        W63504   6.845  42.486   4.288
93624W        W63505   8.271  20.130  12.469
93625W        W63506  10.722  42.450  10.927
93626W        W63507  30.523   9.330   4.640
93627W        W63508  25.062  26.976  10.574
93628W        W63509  14.141  12.254  12.460
93629W        W63510  33.594  13.120   2.780
93630W        W63511  36.017   4.222   0.337
93631W        W63512  22.744   7.314   0.768
93632W        W63513  35.968  22.010  11.500
93633W        W63514  11.262  32.559   0.772
93634W        W63515  30.936  14.233  13.961
93635W        W63516  10.870  43.285  10.510
93636W        W63517  21.596  36.018  11.544
93637W        W63518   3.284  42.428  13.449
93638W        W63519   9.691  35.439   3.250
93639W        W63520  10.639   5.916  10.944
93640W        W63521   1.856  42.403  13.393
93641W        W63522  43.968  30.141  14.915
93642W        W63523  12.645  28.639   4.652
93643W        W63524  43.001  29.664   2.707
93644W        W63525  16.729  40.045   0.377
93645W        W63526  21.118  40.897  11.894
93646W        W63527   1.352  30.969   2.236
93647W        W63528   5.832   6.322  13.496
93648W        W63529   9.875   1.404  12.935
93649W        W63530  42.403  19.247  10.540
93650W        W63531   3.319  41.413  11.018
93651W        W63532  44.900   9.735   3.845
93652W        W63533   8.844  10.141  13.018
93653W        W63534  19.062   0.852  10.641
93654W        W63535  13.750  30.158  10.940
93655W        W63536  33.072  34.970   0.407
93656W        W63537  26.551  18.111   4.182
93657W        W63538  12.735   9.725  10.897
93658W        W63539  27.158  31.988  11.496
93659W        W63540  41.898  34.039  11.448
93660W        W63541  16.623  28.946  13.360
93661W        W63542   6.683  19.084  12.345
93662W        W63543  42.941   8.185  13.455
93663W        W63544  29.108  19.598  11.373
93664W        W63545   3.828  24.532  11.021
93665W        W63546  35.974   6.694   1.792
93666W        W63547  13.151  36.092  12.532
93667W        W63548   2.724  38.425   0.847
93668W        W63549  15.184  34.948   2.798
93669W        W63550  44.861  12.232   1.895
93670W        W63551   2.774  20.211  12.367
93671W        W63552  44.918   1.390  11.881
93672W        W63553  38.918   2.372   4.164
93673W        W63554  18.252   2.309   2.256
93674W        W63555  25.110  42.961   0.941
93675W        W63556   6.217  44.909   3.649
93676W        W63557  30.158  14.279   4.195
93677W        W63558  17.568   8.882  12.851
93678W        W63559   5.295  34.096  11.928
93679W        W63560  42.936  21.158  12.470
93680W        W63561  15.141  29.057  14.967
93681W        W63562  19.766  26.114  13.473
93682W        W63563  29.435  23.631   2.352
93683W        W63564  24.624  28.514   0.352
93684W        W63565  20.150  28.533   4.251
93685W        W63566   2.808  34.470  10.962
93686W        W63567  26.010  20.259   2.893
93687W        W63568  20.732  20.648   3.795
93688W        W63569  37.471  11.637   0.316
93689W        W63570  19.708  15.748   2.205
93690W        W63571  16.094  12.827   3.770
93691W        W63572  42.495  33.497   3.163
93692W        W63573  12.838  44.440  11.891
93693W        W63574  43.512   1.771  12.941
93694W        W63575   8.291   1.873  14.828
93695W        W63576  21.238  44.822  13.917
93696W        W63577  38.402  20.041  10.982
93697W        W63578  29.968   9.841  13.921
93698W        W63579  29.923  31.145   3.211
93699W        W63580  24.185   8.300  10.443
93700W        W63581  10.833  16.216   9.576
93701W        W63582  31.451   1.380  10.605
93702W        W63583  16.593  21.655   4.639
93703W        W63584   6.304  15.176  12.921
93704W        W63585  12.795  39.368   5.318
93705W        W63586  26.464  44.479   4.699
93706W        W63587  14.635  30.504  14.810
93707W        W63588  10.759  16.253   0.255
93708W        W63589  25.031   3.792   0.941
93709W        W63590   3.740  34.408  11.078
93710W        W63591  21.131  33.937   1.766
93711W        W63592  41.486  33.077  11.388
93712W        W63593  21.701  43.951   2.732
93713W        W63594   9.723  11.726   3.845
93714W        W63595   7.846  30.434  13.407
93715W        W63596   2.770  20.056   4.322
93716W        W63597  38.339  38.000   3.350
93717W        W63598   3.414   9.181  12.393
93718W        W63599  36.056   6.297   0.799
93719W        W63600   9.705   1.857  14.351
93720W        W63601  41.398  43.433   3.234
93721W        W63602  24.555   9.364  12.004
93722W        W63603  17.654  31.462   0.453
93723W        W63604  20.650   1.777   3.790
93724W        W63605  40.977  35.376   3.350
93725W        W63606  12.159   1.956   3.147
93726W        W63607  14.624  41.531  12.088
93727W        W63608  43.016  10.317  14.006
93728W        W63609  43.803  20.555   0.444
93729W        W63610  33.592  12.831   3.157
93730W        W63611   2.313  10.671  11.961
93731W        W63612  32.070  42.487  14.316
93732W        W63613  39.856  27.142   0.954
93733W        W63614  22.057  38.022   1.812
93734W        W63615   6.282  26.485   5.110
93735W        W63616  17.068  41.869  11.052
93736W        W63617  27.994  38.346   3.241
93737W        W63618  12.229   0.280  12.368
93738W        W63619  13.704  16.143  14.977
93739W        W63620  29.944   4.749   2.840
93740W        W63621  31.118  12.210   0.819
93741W        W63622  29.164  34.614  12.021
93742W        W63623  34.557   2.804  10.590
93743W        W63624  21.112  41.345   2.259
93744W        W63625  26.553   1.885  10.900
93745W        W63626   9.798  42.003  11.566
93746W        W63627   5.741  31.574   3.836
93747W        W63628  38.007  16.598  13.960
93748W        W63629  38.828  39.027  13.412
93749W        W63630  26.502  26.665   3.651
93750W        W63631   1.737  26.966   0.796
93751W        W63632  13.340  26.118  14.370
93752W        W63633   2.396  37.496   0.936
93753W        W63634   5.217  28.637   3.281
93754W        W63635  24.151  22.682  13.799
93755W        W63636  27.007  15.327   4.781
93756W        W63637  21.073  43.879   4.211
93757W        W63638  10.695  27.180   0.918
93758W        W63639  21.573   0.441   2.697
93759W        W63640   2.827   9.882  11.039
93760W        W63641   1.929  16.717   1.252
93761W        W63642  30.979   3.342  14.379
93762W        W63643  14.789  15.195  12.934
93763W        W63644  13.273   5.427  10.413
93764W        W63645  22.252   2.739   3.151
93765W        W63646   0.330  44.330  14.983
93766W        W63647  41.844  31.145   1.258
93767W        W63648   4.234  21.715   2.798
93768W        W63649  38.964  39.400  14.894
93769W        W63650  32.576   8.901   0.769
93770W        W63651  30.141   6.832   0.386
93771W        W63652  32.490   9.884  13.391
93772W        W63653   9.671  32.893  14.924
93773W        W63654  30.418  44.381   1.747
93774W        W63655  27.558  15.797  14.014
93775W        W63656  22.211  16.278  13.877
93776W        W63657  33.418  35.962   2.721
93777W        W63658  31.919   3.310  13.418
93778W        W63659  34.599  25.047  11.924
93779W        W63660  31.569  31.936  13.831
93780W        W63661  42.986  23.200  13.308
93781W        W63662  39.887  42.979   0.449
93782W        W63663  16.626  13.350   2.687
93783W        W63664  15.104   7.698   2.295
93784W        W63665  39.423  18.646  13.900
93785W        W63666   5.338   1.304  14.816
93786W        W63667  42.302  36.970   1.415
93787W        W63668  14.591   4.386  12.833
93788W        W63669   5.772  42.844   4.187
93789W        W63670  30.625  32.471   4.683
93790W        W63671  31.487   2.411   0.257
93791W        W63672   6.748  20.146   2.184
93792W        W63673  19.281   5.216  14.834
93793W        W63674  25.993  44.503  11.040
93794W        W63675  10.358  30.068   1.794
93795W        W63676  43.794  43.307   0.403
93796W        W63677  36.370  20.071  12.906
93797W        W63678  34.390  38.340  12.455
93798W        W63679  43.309   8.761   4.337
93799W        W63680  22.718   2.437  14.028
93800W        W63681  41.910  39.464  13.510
93801W        W63682  17.589  26.623  10.972
93802W        W63683  19.658  33.886  11.885
93803W        W63684  36.464   4.730   1.821
93804W        W63685   5.750  27.463  12.842
93805W        W63686  39.054  36.975   3.190
93806W        W63687  43.286  33.583   1.832
93807W        W63688  39.552   3.872  13.518
93808W        W63689   3.262  16.127   1.240
93809W        W63690  41.322  15.280   2.705
93810W        W63691   3.863  39.834   3.212
93811W        W63692   3.295  20.567  12.573
93812W        W63693  13.257  25.995   0.799
93813W        W63694  35.430  39.423  12.995
93814W        W63695   2.755  35.477   4.597
93815W        W63696  40.945  18.606   3.204
93816W        W63697  43.359  33.566   0.773
93817W        W63698  15.792  44.855   1.856
93818W        W63699   9.190  31.586  12.874
93819W        W63700  39.944  40.465   2.732
93820W        W63701  14.756   9.845   4.641
93821W        W63702  42.365  31.633   4.292
93822W        W63703   7.194  22.200   4.143
93823W        W63704  41.989  28.939   3.268
93824W        W63705   6.379  40.037  13.346
93825W        W63706  28.065  40.021  12.024
93826W        W63707  26.077   5.228   0.886
93827W        W63708   6.915   4.797   3.290
93828W        W63709  39.966  11.364   3.313
93829W        W63710  28.484  32.920  13.800
93830W        W63711  40.437   2.344  11.544
93831W        W63712   6.329  17.691   3.842
93832W        W63713  20.579  27.676   1.826
93833W        W63714  26.578   6.803   0.818
93834W        W63715   4.240   3.773  12.002
93835W        W63716  30.437  35.471   3.851
93836W        W63717  41.961  44.779  12.900
93837W        W63718  13.825  13.754  13.868
93838W        W63719  32.926  36.078  11.065
93839W        W63720  36.042  10.855   4.254
93840W        W63721  15.285  42.031   0.758
93841W        W63722  17.737  25.522  14.796
93842W        W63723  22.546  38.998   2.322
93843W        W63724  15.206   6.879   3.311
93844W        W63725  26.589  26.691  11.060
93845W        W63726  23.677  43.969   3.679
93846W        W63727  34.960  27.995  10.932
93847W        W63728  27.096   5.798  12.855
93848W        W63729  24.176  22.653   0.771
93849W        W63730  16.137  15.608   0.329
93850W        W63731  33.573   9.372   3.184
93851W        W63732  18.788  29.935   1.843
93852W        W63733  22.664  41.008   1.354
93853W        W63734  18.124   9.240  12.886
93854W        W63735   7.357   6.699   1.390
93855W        W63736   3.417   9.883   0.408
93856W        W63737  28.441  24.579  12.497
93857W        W63738  42.416   9.201  14.306
93858W        W63739   3.339   8.189   0.356
93859W        W63740  13.720  25.200  11.507
93860W        W63741  43.996  31.612  10.447
93861W        W63742  33.072  17.628  10.133
93862W        W63743   1.839  43.925   3.726
93863W        W63744   3.770  14.817  13.403
93864W        W63745  32.110   6.242   1.418
93865W        W63746  22.062  24.006  13.006
93866W        W63747  25.559   7.383  14.338
93867W        W63748  23.985  25.568   1.779
93868W        W63749  39.489   8.341  12.459
93869W        W63750  29.590  43.401   0.880
93870W        W63751  40.877  43.970  12.037
93871W        W63752   0.967  11.205  11.085
93872W        W63753  38.001   4.867   4.724
93873W        W63754  39.851  35.438   2.284
93874W        W63755  40.817  14.198   3.699
93875W        W63756   4.925  43.867  13.460
93876W        W63757  20.190  34.066  11.445
93877W        W63758  36.576  26.645  10.428
93878W        W63759   4.729  43.502  14.887
93879W        W63760  38.564  31.470  13.389
93880W        W63761   7.261  15.181  13.044
93881W        W63762   5.384  22.627  11.502
93882W        W63763   8.388   9.820  11.106
93883W        W63764  17.654   6.920   0.327
93884W        W63765  30.419  37.539   4.627
93885W        W63766   1.892  11.358  10.437
93886W        W63767  36.533  13.170   1.247
93887W        W63768  12.204  32.890  13.424
93888W        W63769  17.116  23.506   1.265
93889W        W63770  27.462   5.379  10.954
93890W        W63771  17.783  38.360  11.914
93891W        W63772  20.104  15.199  13.336
93892W        W63773  27.560  44.325  11.107
93893W        W63774  17.124  36.031   0.871
93894W        W63775  24.524   4.756  13.321
93895W        W63776  28.526   6.403  13.431
93896W        W63777  14.736   4.906   0.964
93897W        W63778  32.571   9.268   2.774
93898W        W63779  18.765  38.431  10.959
93899W        W63780   9.395   9.846   1.437
93900W        W63781   4.245  15.649  11.528
93901W        W63782  44.805  27.492  10.903
93902W        W63783  44.900   1.244  11.393
93903W        W63784  20.739   3.457   0.460
93904W        W63785  38.969  25.976  12.492
93905W        W63786  11.775  29.038  14.897
93906W        W63787  25.201  30.574   3.631
93907W        W63788  10.704  35.474   4.224
93908W        W63789  20.676  25.034  14.499
93909W        W63790  30.653  27.621  11.433
93910W        W63791  12.341  43.804  13.424
93911W        W63792  44.431  35.893   4.639
93912W        W63793  44.373  17.590   2.260
93913W        W63794  21.206   8.690   1.307
93914W        W63795   2.911   7.299  12.999
93915W        W63796  37.477  39.472   2.361
93916W        W63797  11.296  25.148   2.306
93917W        W63798   0.898  23.701  12.445
93918W        W63799   6.694  19.564   1.712
93919W        W63800  32.535   6.357  11.002
93920W        W63801  37.044  42.959  14.851
93921W        W63802   1.375   1.908   1.707
93922W        W63803   2.877  21.682  12.366
93923W        W63804  43.922  14.305   2.235
93924W        W63805  42.341   6.351  13.898
93925W        W63806  29.922   4.225  12.977
93926W        W63807  26.091  42.440  13.322
93927W        W63808  44.826  11.727  11.906
93928W        W63809  42.817  18.700  10.444
93929W        W63810  33.521  41.906  11.911
93930W        W63811   2.369  24.227  13.040
93931W        W63812  11.177   0.951  14.322
93932W        W63813  42.849  17.261  12.017
93933W        W63814  19.233   4.768  13.421
93934W        W63815  26.565  37.872   4.224
93935W        W63816   6.815  27.981  12.846
93936W        W63817   7.249  37.867  11.393
93937W        W63818  11.270  20.142   4.241
93938W        W63819  18.291  10.152   4.125
93939W        W63820  26.614  19.077  11.905
93940W        W63821  35.950  31.117   1.762
93941W        W63822   7.749  41.012   1.240
93942W        W63823  28.608  19.189   4.822
93943W        W63824  18.645  36.001  11.914
93944W        W63825  40.425  20.090   2.898
93945W        W63826   7.252  44.482   1.397
93946W        W63827  37.361   7.299  12.339
93947W        W63828   2.838  26.584   1.388
93948W        W63829   8.890  10.142   4.236
93949W        W63830  14.312  30.457  11.499
93950W        W63831   8.218  11.360   3.788
93951W        W63832  42.518   2.847   2.362
93952W        W63833   1.346   6.856  12.033
93953W        W63834  18.067   8.403  13.362
93954W        W63835  36.963  13.622  12.518
93955W        W63836  34.883  43.343  10.531
93956W        W63837  10.381  11.719  11.528
93957W        W63838  15.145  15.782   4.179
93958W        W63839   4.831  12.661  14.030
93959W        W63840  28.947  27.027  13.346
93960W        W63841  37.337  11.170  10.149
93961W        W63842  36.910  27.135   3.696
93962W        W63843  27.993  32.636   2.305
93963W        W63844  39.461  10.734  13.012
93964W        W63845  38.524  17.634  13.313
93965W        W63846  32.601  21.035   2.328
93966W        W63847  39.023  30.525  11.396
93967W        W63848  27.075  18.715   4.189
93968W        W63849  29.152   0.821  13.548
93969W        W63850  14.812   6.257  10.458
93970W        W63851   4.322  29.032   4.644
93971W        W63852  10.707  16.706   0.806
93972W        W63853  36.071  34.608  13.500
93973W        W63854  12.122  31.559  14.007
93974W        W63855  41.880  26.052  14.949
93975W        W63856  28.009  13.158  14.290
93976W        W63857  30.028  38.884  13.910
93977W        W63858   0.792  28.088   4.155
93978W        W63859   4.351  25.488   0.451
93979W        W63860  25.193  31.955  14.868
93980W        W63861  23.201   6.195   1.856
93981W        W63862  12.329   8.668   0.879
93982W        W63863  24.023   0.879  13.381
93983W        W63864   1.952  18.612  12.050
93984W        W63865  25.475  17.062  14.989
93985W        W63866  34.889  28.153  12.450
93986W        W63867  20.047   9.365  12.900
93987W        W63868  37.873   1.972   2.878
93988W        W63869  10.861  17.648   2.723
93989W        W63870   0.789  22.251  11.967
93990W        W63871  18.675  27.198  13.499
93991W        W63872  14.772  18.732   4.245
93992W        W63873   8.760  41.385   3.294
93993W        W63874  31.933  27.954  12.410
93994W        W63875  16.273  13.234  10.433
93995W        W63876  11.683  29.658   4.801
93996W        W63877  25.668   5.247   0.471
93997W        W63878   6.294  27.980  12.377
93998W        W63879   2.787  33.426  11.906
93999W        W63880  16.091  16.135  13.435
94000W        W63881  40.855  12.167  10.971
94001W        W63882  18.624  21.238   3.723
94002W        W63883  34.910  37.416  12.517
94003W        W63884  37.014   8.743   1.826
94004W        W63885  18.084  10.190  11.397
94005W        W63886  31.548  43.293  13.859
94006W        W63887  34.442  43.488  11.498
94007W        W63888  32.126   4.885  13.884
94008W        W63889  27.060  43.997  12.976
94009W        W63890  23.573  12.693   2.798
94010W        W63891  42.382  37.006  12.030
94011W        W63892  28.011   0.786   2.203
94012W        W63893  25.675   1.454  12.891
94013W        W63894  26.700  31.136   3.365
94014W        W63895  33.577  28.442   4.837
94015W        W63896  43.774  43.316   3.805
94016W        W63897   1.931   8.260   3.298
94017W        W63898  12.827  43.969  13.033
94018W        W63899  34.935  10.304   0.899
94019W        W63900  22.201  23.179  13.431
94020W        W63901  28.090  14.755   3.776
94021W        W63902  13.215  40.492   0.751
94022W        W63903  26.018  13.797   0.454
94023W        W63904   9.841  19.746  12.894
94024W        W63905  25.479   9.160   0.928
94025W        W63906  13.128   3.425  13.521
94026W        W63907   0.878  33.425   4.237
94027W        W63908  22.123   5.374  11.947
94028W        W63909  15.683  14.812   4.808
94029W        W63910  40.462  38.846  11.553
94030W        W63911   2.819   0.277   1.371
94031W        W63912  41.491   7.322  12.035
94032W        W63913  11.307  27.127  11.912
94033W        W63914   3.362   9.736  11.887
94034W        W63915  26.669  18.185   3.328
94035W        W63916  29.089  28.049  13.846
94036W        W63917   0.825  18.091  14.914
94037W        W63918   9.249  23.497   0.747
94038W        W63919  35.419  22.583   0.744
94039W        W63920   6.914  21.242   3.383
94040W        W63921   1.862   0.253  12.434
94041W        W63922  18.098  19.682  12.013
94042W        W63923   1.856  35.104  11.023
94043W        W63924  37.085  36.024  11.866
94044W        W63925   9.323  29.135   1.844
94045W        W63926  28.021  12.321  10.521
94046W        W63927  32.089  12.250   1.296
94047W        W63928   8.868  33.421   4.331
94048W        W63929  17.744  42.332   0.960
94049W        W63930  22.583  30.155   4.686
94050W        W63931  20.617  43.987   0.353
94051W        W63932   5.854   7.884   3.729
94052W        W63933  22.038  19.569  11.371
94053W        W63934  20.761  39.057   0.462
94054W        W63935  42.891   6.264   4.252
94055W        W63936  18.106  21.737  13.819
94056W        W63937  30.533   5.395   3.225
94057W        W63938  17.114  43.375  12.538
94058W        W63939  44.867  35.602  12.403
94059W        W63940  29.098  16.134   1.210
94060W        W63941   8.200  37.037   1.911
94061W        W63942  37.410  10.250   4.704
94062W        W63943  32.028   4.865  14.379
94063W        W63944  12.357  19.258  12.365
94064W        W63945  16.571  27.117   2.760
94065W        W63946  24.138   7.193  12.442
94066W        W63947  25.691  23.727  13.969
94067W        W63948  42.032  15.742  12.539
94068W        W63949  34.562  28.626   0.305
94069W        W63950  17.207  16.766  13.378
94070W        W63951  22.045   7.726   3.827
94071W        W63952  43.299  34.937   3.641
94072W        W63953  44.308  37.576  11.556
94073W        W63954  40.007  24.709  14.390
94074W        W63955   3.362  15.179   3.315
94075W        W63956   0.452  33.486   4.289
94076W        W63957  36.849   8.263   1.733
94077W        W63958  10.639   1.463  11.013
94078W        W63959  44.924  16.263   2.188
94079W        W63960  14.757  25.702  12.977
94080W        W63961  16.284  21.711  11.449
94081W        W63962  17.192  23.534   5.250
94082W        W63963  12.710  37.363  13.820
94083W        W63964  23.674  32.982   2.825
94084W        W63965  25.984  39.439   0.383
94085W        W63966  43.845  33.502  12.052
94086W        W63967  16.622   5.392  11.991
94087W        W63968  12.630  28.137  14.929
94088W        W63969  40.504   4.936   1.758
94089W        W63970  31.126  10.174   4.784
94090W        W63971   2.457   8.871   1.742
94091W        W63972  37.578  40.935   0.773
94092W        W63973   7.297   1.948   0.424
94093W        W63974  24.215  25.088  13.316
94094W        W63975   6.267  24.182  11.494
94095W        W63976  42.448  17.712  11.441
94096W        W63977  38.971  27.959   1.430
94097W        W63978  21.691  15.623  10.529
94098W        W63979  41.302  24.489   1.383
94099W        W63980  35.894   4.383   1.903
94100W        W63981  24.059   4.300  12.003
94101W        W63982  41.423  19.075  10.453
94102W        W63983  41.834  31.069   3.259
94103W        W63984   2.872   6.426  14.954
94104W        W63985  18.129  27.119  14.486
94105W        W63986  32.557   7.790   2.226
94106W        W63987  34.471  29.065  14.323
94107W        W63988  36.584   8.676  10.917
94108W        W63989   8.211  31.581  13.047
94109W        W63990   0.761   3.253  12.070
94110W        W63991  10.709  27.578   2.814
94111W        W63992  14.162  14.810   3.760
94112W        W63993  39.439  24.042  13.360
94113W        W63994  21.676  10.817   1.321
94114W        W63995  33.037  16.219  11.566
94115W        W63996  31.999  24.716  12.017
94116W        W63997  27.142  28.605  13.316
94117W        W63998  34.615  36.973   0.923
94118W        W63999  32.128  25.483   2.691
94119W        W64000  44.486   8.742  13.845
94120W        W64001   6.844  35.362   3.762
94121W        W64002  40.003   3.359  12.559
94122W        W64003  44.468  44.775   0.752
94123W        W64004  21.083  34.930  13.539
94124W        W64005  35.481   7.230  12.872
94125W        W64006  41.519  28.580  12.999
94126W        W64007   5.320  18.224   1.329
94127W        W64008  30.652  38.398   0.435
94128W        W64009  22.111  23.589   4.799
94129W        W64010   2.901  16.209   3.381
94130W        W64011   5.922   4.850  14.505
94131W        W64012  33.120  40.538   3.852
94132W        W64013   3.954  19.100   1.450
94133W        W64014  16.317  15.658  10.912
94134W        W64015  43.309  20.735   0.949
94135W        W64016   5.900  14.200  13.036
94136W        W64017  14.649  16.309   3.309
94137W        W64018  18.679  35.433   1.349
94138W        W64019  41.334  34.863   3.288
94139W        W64020  33.552   5.354  13.342
94140W        W64021  43.868  26.995   1.373
94141W        W64022  15.822   6.697  10.464
94142W        W64023  15.199  26.039  12.845
94143W        W64024  34.006  30.603   4.124
94144W        W64025   2.780  27.025   1.377
94145W        W64026  22.131  15.216  11.383
94146W        W64027  18.781  34.076  13.030
94147W        W64028  40.339  25.962   3.665
94148W        W64029   3.948  41.435   9.972
94149W        W64030  35.595  23.516  12.410
94150W        W64031  30.499   1.308  12.416
94151W        W64032  12.149  38.359  11.573
94152W        W64033  43.834   2.842  12.379
94153W        W64034  24.065  26.113  13.484
94154W        W64035  30.061  14.817  11.010
94155W        W64036  13.698  29.427  14.492
94156W        W64037   2.873  16.198   4.828
94157W        W64038  26.099   8.814   3.754
94158W        W64039  12.349   3.927  14.847
94159W        W64040   4.851  41.305   4.260
94160W        W64041   2.260  23.627  10.936
94161W        W64042  21.057  44.264  12.409
94162W        W64043  14.201  24.667   0.316
94163W        W64044  22.505  19.252  10.481
94164W        W64045  11.364  34.941   1.845
94165W        W64046  13.207  21.158  10.104
94166W        W64047  42.926   3.804   1.839
94167W        W64048  26.604  25.640   2.845
94168W        W64049   4.243   1.323  11.998
94169W        W64050  25.129   9.687  10.118
94170W        W64051  43.790  31.969   2.343
94171W        W64052  22.106  20.595  13.810
94172W        W64053  40.518  25.561   0.805
94173W        W64054  39.500   3.335   1.891
94174W        W64055  21.256  41.492  11.928
94175W        W64056  11.221  22.188   2.852
94176W        W64057  19.597  35.920  13.360
94177W        W64058   8.656  11.859   5.239
94178W        W64059  39.418  11.779   1.715
94179W        W64060  44.367  12.805  11.471
94180W        W64061  11.687  38.353   0.923
94181W        W64062   3.372  20.046  13.005
94182W        W64063   7.707  35.928   5.105
94183W        W64064  17.191  36.535  14.947
94184W        W64065  34.495   0.347  11.040
94185W        W64066  10.261  29.053   3.162
94186W        W64067  17.111  26.098   3.326
94187W        W64068   4.353  20.145  10.895
94188W        W64069  36.346  14.705   3.732
94189W        W64070  23.684   1.738   3.699
94190W        W64071  36.087  10.816   2.739
94191W        W64072  20.663  17.124  11.504
94192W        W64073  13.700  30.134  10.546
94193W        W64074  23.193  34.938  12.018
94194W        W64075  37.459  31.492   3.355
94195W        W64076  28.138  42.879   3.694
94196W        W64077  13.627  30.483  10.965
94197W        W64078   7.763  37.063   4.607
94198W        W64079   1.255  32.606   0.857
94199W        W64080  13.125  42.944  10.620
94200W        W64081  23.650  13.130  11.605
94201W        W64082  41.292   3.397   4.168
94202W        W64083  42.919   5.827  13.969
94203W        W64084   3.904  31.636   0.786
94204W        W64085  42.435  26.642  14.505
94205W        W64086  43.807  37.839   4.197
94206W        W64087  18.621  35.405  10.998
94207W        W64088  39.993  31.534   0.754
94208W        W64089  27.944  39.051   1.883
94209W        W64090   3.734  44.464  10.446
94210W        W64091   5.192  32.428  14.473
94211W        W64092  34.537  29.089  10.581
94212W        W64093  19.635   9.334   0.479
94213W        W64094  43.508  13.274   1.316
94214W        W64095  28.085  42.822   1.702
94215W        W64096  41.464   0.481   4.138
94216W        W64097  43.369  22.557  13.833
94217W        W64098  31.123  27.597   2.309
94218W        W64099   4.908   8.350  12.504
94219W        W64100  29.990  42.800   0.874
94220W        W64101  38.860   4.796  11.107
94221W        W64102   2.944  21.114   0.907
94222W        W64103  44.500   7.308   2.788
94223W        W64104  28.942  21.212   1.332
94224W        W64105  33.588  10.764  12.409
94225W        W64106  12.194  25.510   0.274
94226W        W64107  21.047  25.069   1.447
94227W        W64108  20.191   0.329  12.476
94228W        W64109  19.649  21.560   3.841
94229W        W64110  25.567  14.707  12.956
94230W        W64111  20.084  11.239   3.251
94231W        W64112  42.363  26.004  13.464
94232W        W64113   9.273   3.303   1.714
94233W        W64114   4.819  18.253   1.423
94234W        W64115   3.942  43.949  10.635
94235W        W64116   8.176  23.518  11.552
94236W        W64117  36.858  23.036  12.825
94237W        W64118  20.064  44.837   0.443
94238W        W64119  27.070   5.314  12.486
94239W        W64120  34.578  10.244   4.282
94240W        W64121  36.981   8.727  10.989
94241W        W64122  22.158  10.228  12.385
94242W        W64123   2.267  28.987   0.883
94243W        W64124  35.978  24.508   2.415
94244W        W64125  33.397   6.697   2.232
94245W        W64126  22.699  29.957  14.282
94246W        W64127  20.704  34.389   2.876
94247W        W64128  35.366  14.604   1.818
94248W        W64129   0.930  33.434   0.270
94249W        W64130   4.380  26.048   4.272
94250W        W64131  24.058   4.897   0.867
94251W        W64132  33.547   5.851   0.401
94252W        W64133  32.886  42.526  11.599
94253W        W64134  36.896  32.015  12.532
94254W        W64135  11.830  22.675   0.768
94255W        W64136  15.172  10.321   4.718
94256W        W64137   1.433  25.111   2.686
94257W        W64138  12.168  10.734  11.609
94258W        W64139  21.094  41.042   2.224
94259W        W64140  11.683  41.843   1.222
94260W        W64141   2.958  12.302   3.311
94261W        W64142   9.714  39.417   3.303
94262W        W64143  37.839  41.835  11.985
94263W        W64144  37.038  17.090   1.828
94264W        W64145  34.979   1.870   1.822
94265W        W64146   7.383  30.052   2.352
94266W        W64147  15.121   1.962  11.887
94267W        W64148  33.560  27.126   2.682
94268W        W64149  35.362   4.815   4.242
94269W        W64150  24.519  11.737  11.002
94270W        W64151  27.959  12.634  14.853
94271W        W64152  18.230   0.743   1.881
94272W        W64153  19.053  19.600   4.751
94273W        W64154   6.276  41.453  14.400
94274W        W64155  31.495  26.111  12.006
94275W        W64156  36.391  30.463   3.155
94276W        W64157  22.197   8.803  11.593
94277W        W64158   0.322  24.512   4.125
94278W        W64159   4.872   9.356  12.917
94279W        W64160  22.593  40.885  14.012
94280W        W64161  12.770  27.027   4.354
94281W        W64162  15.119  42.951   0.879
94282W        W64163  40.985  15.197  14.771
94283W        W64164   7.808  36.354  13.419
94284W        W64165  38.406  31.432  12.006
94285W        W64166  18.593   6.794   4.836
94286W        W64167  30.535  44.793  13.953
94287W        W64168  39.061  28.576  10.509
94288W        W64169  23.097  38.069  11.375
94289W        W64170  11.192  27.949   3.844
94290W        W64171  11.281   6.371   4.682
94291W        W64172  15.326  33.543  11.905
94292W        W64173  29.984  20.205  10.603
94293W        W64174  34.488   1.283   1.876
94294W        W64175  37.892  22.141   0.395
94295W        W64176  36.489  32.515  12.416
94296W        W64177  26.667   2.252   4.268
94297W        W64178   2.315  33.561  10.946
94298W        W64179  23.079  10.842   1.217
94299W        W64180  35.081  22.663   5.297
94300W        W64181  42.282  37.008  13.909
94301W        W64182   2.247   3.237  13.020
94302W        W64183  37.357  15.610   3.330
94303W        W64184  10.310   9.385   5.134
94304W        W64185   8.390  35.908  13.318
94305W        W64186  14.189  21.179   0.769
94306W        W64187  40.006   9.689   1.247
94307W        W64188  17.767  31.565   1.291
94308W        W64189  40.907  20.677  14.898
94309W        W64190  31.402  30.108  13.459
94310W        W64191  34.600   6.873  11.900
94311W        W64192  10.871   9.874   2.371
94312W        W64193  42.491   5.783  11.096
94313W        W64194  40.818  25.647  14.426
94314W        W64195  10.647  43.295   3.286
94315W        W64196  13.116  15.795   2.319
94316W        W64197  22.509  12.855   2.691
94317W        W64198  32.514  40.930   0.787
94318W        W64199   0.283  31.484   1.320
94319W        W64200  16.632   4.877  12.076
94320W        W64201  41.333  33.574   2.363
94321W        W64202  35.420  18.217  13.826
94322W        W64203  35.087  33.016  14.450
94323W        W64204  39.511   7.210   2.822
94324W        W64205   2.904  19.684  10.530
94325W        W64206  41.853  38.882  12.977
94326W        W64207  30.095  23.592  13.018
94327W        W64208   8.755  42.376  10.612
94328W        W64209  27.962   4.394   2.892
94329W        W64210  11.677   5.217  14.928
94330W        W64211  36.367  13.714   3.764
94331W        W64212  11.789  44.355   4.161
94332W        W64213  12.807  26.024  11.036
94333W        W64214  18.696  29.139  12.829
94334W        W64215  44.992   1.831   0.460
94335W        W64216   3.459  25.097   0.883
94336W        W64217  38.995  28.494   2.691
94337W        W64218  24.495  44.349  12.572
94338W        W64219  33.545  39.920   2.704
94339W        W64220  16.098  28.148  12.405
94340W        W64221  23.203  20.525  14.298
94341W        W64222  12.804  27.671   0.736
94342W        W64223  25.013  30.908  13.907
94343W        W64224  39.487  24.174   0.308
94344W        W64225  31.633  28.162   1.922
94345W        W64226   6.406  35.105  12.070
94346W        W64227  11.862  33.131   0.429
94347W        W64228  33.384  23.535   9.944
94348W        W64229  28.544  12.344   2.340
94349W        W64230  15.622  40.883  14.375
94350W        W64231  18.207  30.012  12.508
94351W        W64232  14.602  35.992  10.611
94352W        W64233  13.327  26.659   5.294
94353W        W64234  18.052  32.056  14.860
94354W        W64235   2.918  25.115   1.772
94355W        W64236  18.054  32.396  12.549
94356W        W64237   5.255   6.914   2.681
94357W        W64238  36.847  32.523  12.883
94358W        W64239  22.643  13.348  10.640
94359W        W64240  22.542  20.240  13.327
94360W        W64241  28.490  18.179  11.999
94361W        W64242  15.128  38.929   4.611
94362W        W64243  15.656  44.436   2.349
94363W        W64244  20.160  17.139  14.925
94364W        W64245   6.371   8.389   2.285
94365W        W64246  26.969  27.547   3.200
94366W        W64247  29.663  28.651  11.907
94367W        W64248  29.619   4.397  13.542
94368W        W64249  41.435  37.874  14.503
94369W        W64250   3.730  23.002  14.826
94370W        W64251  12.654  36.545   0.730
94371W        W64252  38.027  18.638  11.066
94372W        W64253   2.432  29.054   0.248
94373W        W64254  38.503  38.991  10.625
94374W        W64255  27.175  12.732   3.216
94375W        W64256  24.662  20.150  11.522
94376W        W64257   3.281   5.416   3.309
94377W        W64258  16.585  38.861  13.799
94378W        W64259  44.755  42.369   1.719
94379W        W64260   9.174  16.284  11.087
94380W        W64261  14.815  25.587   0.893
94381W        W64262  34.958  27.539   2.785
94382W        W64263  39.050  23.017   2.678
94383W        W64264  21.630  24.564  11.415
94384W        W64265  10.701  34.026  13.334
94385W        W64266  15.594   0.812  13.869
94386W        W64267  37.506  36.051   2.378
94387W        W64268  22.625  29.977  12.050
94388W        W64269   2.773  20.189  10.631
94389W        W64270   3.302   4.248  13.914
94390W        W64271  37.490  29.558   0.418
94391W        W64272  33.401   7.765   3.347
94392W        W64273  17.222  33.504  11.035
94393W        W64274  21.686  26.682   0.464
94394W        W64275  15.579  13.158  10.597
94395W        W64276  42.790  20.746  10.150
94396W        W64277  36.054  35.476   3.712
94397W        W64278   0.795  22.248   0.463
94398W        W64279  37.364  36.001  11.375
94399W        W64280  21.706  27.189   0.430
94400W        W64281  37.020  13.733   4.671
94401W        W64282  21.744  44.401   0.769
94402W        W64283  43.447  15.798  12.829
94403W        W64284  18.280  28.013  10.905
94404W        W64285  30.521  18.639   2.708
94405W        W64286  40.415   5.832  10.982
94406W        W64287  30.936   8.183   2.361
94407W        W64288  41.869  34.031  12.013
94408W        W64289  29.041  10.272   1.859
94409W        W64290  29.490  27.177   1.262
94410W        W64291   7.314  12.252  10.574
94411W        W64292  22.557  18.562  12.919
94412W        W64293  40.918   4.428   3.734
94413W        W64294  29.639  20.677  10.437
94414W        W64295  22.727  38.947  14.400
94415W        W64296   0.787  34.450  11.974
94416W        W64297  15.803  43.490  11.921
94417W        W64298  19.172  43.291   0.965
94418W        W64299   7.307  35.985   1.921
94419W        W64300  29.143  20.548  10.440
94420W        W64301  13.784  10.879  13.538
94421W        W64302  21.066   0.441  11.922
94422W        W64303  42.502  43.912   3.297
94423W        W64304  10.761  34.441   4.151
94424W        W64305  11.824  16.807   0.840
94425W        W64306  42.815  17.582   4.789
94426W        W64307  34.999   0.302  12.936
94427W        W64308  36.964   3.943   4.240
94428W        W64309  42.431  22.181   2.206
94429W        W64310  12.338  24.577  10.985
94430W        W64311   4.915   5.757  11.923
94431W        W64312  16.112   4.891   2.812
94432W        W64313  40.898   9.225  12.055
94433W        W64314   7.257  16.312   0.448
94434W        W64315  13.254   7.747  11.868
94435W        W64316   9.157  29.591   1.314
94436W        W64317  37.009  11.342  10.941
94437W        W64318   9.217  12.687  10.921
94438W        W64319  10.820   9.207   3.238
94439W        W64320  13.124  28.174  13.409
94440W        W64321   9.741  28.012   3.670
94441W        W64322  18.248  29.994   4.801
94442W        W64323  28.506  44.363   2.194
94443W        W64324  25.664  21.618  11.601
94444W        W64325  26.501  23.618   1.865
94445W        W64326  13.282  26.102  11.377
94446W        W64327  21.115  18.260  11.528
94447W        W64328  41.435  13.701   0.320
94448W        W64329  38.542  29.998   0.348
94449W        W64330  21.070  17.713  12.461
94450W        W64331  22.538  44.409  11.024
94451W        W64332  18.133  41.470   2.390
94452W        W64333  26.005  26.671  11.948
94453W        W64334  40.339  22.061   2.210
94454W        W64335  42.993  18.703   3.632
94455W        W64336  40.872   1.776  11.450
94456W        W64337  44.905  15.609  11.032
94457W        W64338  14.602   3.898   3.858
94458W        W64339   7.376  36.902  11.116
94459W        W64340  42.991   8.195   4.177
94460W        W64341  32.394   1.257  10.960
94461W        W64342   6.884  38.015   0.811
94462W        W64343  39.850  38.846   1.213
94463W        W64344  26.625   9.317   0.418
94464W        W64345  43.781  33.544   0.736
94465W        W64346  11.791  13.617   1.270
94466W        W64347   1.818  33.056   1.302
94467W        W64348  23.506  23.714   4.185
94468W        W64349  42.829  37.073   2.767
94469W        W64350  24.226   4.258   0.908
94470W        W64351  10.307   8.267   4.730
94471W        W64352  23.614  25.008   0.330
94472W        W64353  42.783  34.865   1.311
94473W        W64354  14.660  30.465   3.212
94474W        W64355  23.175  16.685   4.784
94475W        W64356  15.160  22.560   0.463
94476W        W64357   1.898  42.398   0.252
94477W        W64358  17.122  19.233  11.533
94478W        W64359   2.944   2.870   2.193
94479W        W64360  29.550  38.822   5.143
94480W        W64361  19.727  25.616   2.761
94481W        W64362  15.765  23.654  13.814
94482W        W64363  10.814   2.311   4.813
94483W        W64364  43.847   2.305  10.488
94484W        W64365  39.496  43.406  13.379
94485W        W64366  29.551   8.682   2.867
94486W        W64367   2.471  28.628  11.929
94487W        W64368  16.170  14.173   1.739
94488W        W64369  33.025  37.897  13.011
94489W        W64370  15.623  10.737   3.201
94490W        W64371  25.075  31.476  13.308
94491W        W64372  28.958  15.182  14.895
94492W        W64373   9.755  30.921   4.828
94493W        W64374   0.846  12.228  11.462
94494W        W64375  19.212   5.889   3.827
94495W        W64376  17.581  16.180  11.087
94496W        W64377  16.315  28.464  10.979
94497W        W64378  31.623  18.656  10.994
94498W        W64379   8.178  16.577   2.199
94499W        W64380  14.796  35.981  14.759
94500W        W64381  31.026  32.414   4.175
94501W        W64382   4.812   9.353   4.681
94502W        W64383  43.377   1.830   1.893
94503W        W64384  26.683   0.764  12.929
94504W        W64385  26.694   8.705   3.242
94505W        W64386  27.002  20.135  10.561
94506W        W64387   9.341  37.401  10.431
94507W        W64388  34.531   6.376  10.547
94508W        W64389  36.861  30.064  14.288
94509W        W64390  44.400   5.776  12.495
94510W        W64391  32.518  44.297  11.473
94511W        W64392   5.277  25.049  12.845
94512W        W64393   9.275   4.922   1.405
94513W        W64394  28.656  41.820   4.637
94514W        W64395  19.598  36.550  13.475
94515W        W64396  18.742   1.818  12.423
94516W        W64397  24.722  22.533   1.832
94517W        W64398  17.594   9.862  14.848
94518W        W64399  14.678  41.025  11.452
94519W        W64400  28.041   9.292  10.601
94520W        W64401  24.653  11.130  11.573
94521W        W64402   1.333  38.979   1.774
94522W        W64403  16.232  33.115   2.383
94523W        W64404  42.850  44.408  14.770
94524W        W64405  16.638  25.470  11.514
94525W        W64406   9.248  30.154   1.795
94526W        W64407  41.798  34.877  10.091
94527W        W64408  20.672  27.514   0.274
94528W        W64409  30.637  41.799  11.019
94529W        W64410  23.714  39.316  13.371
94530W        W64411  37.966  36.972   4.271
94531W        W64412  27.479  25.599  14.000
94532W        W64413  16.760  11.323  12.999
94533W        W64414  31.513  16.611   3.159
94534W        W64415  34.881  43.012  12.559
94535W        W64416  12.125  28.932  14.972
94536W        W64417   7.840  32.938  12.898
94537W        W64418  17.153  39.327   2.314
94538W        W64419  31.566  24.685   4.837
94539W        W64420   4.264  28.563  14.960
94540W        W64421   1.971  38.565  13.338
94541W        W64422  33.402  44.914  13.445
94542W        W64423  19.053  32.993  10.466
94543W        W64424  16.626  28.103   2.321
94544W        W64425  37.055   4.737   1.706
94545W        W64426  33.937  31.561  12.420
94546W        W64427  21.673  43.908  13.927
94547W        W64428  16.614  17.589   4.616
94548W        W64429  41.933  42.356  14.994
94549W        W64430  44.886  25.481  11.438
94550W        W64431  14.798  36.852  11.047
94551W        W64432  14.622  22.041   4.823
94552W        W64433  28.939  15.168   1.927
94553W        W64434   3.250  20.597  10.407
94554W        W64435  25.714  42.361  13.948
94555W        W64436   8.715  11.235   1.427
94556W        W64437  20.229  12.846   4.264
94557W        W64438  44.358  23.613   3.308
94558W        W64439  35.109   3.847  14.503
94559W        W64440  13.670   8.340  11.379
94560W        W64441  41.348  14.101   2.283
94561W        W64442   0.800  33.597   5.189
94562W        W64443   9.201   2.245   2.816
94563W        W64444  35.964  36.442   2.218
94564W        W64445  16.624  21.753   0.934
94565W        W64446  21.140  14.739   0.965
94566W        W64447  24.573  25.069   2.811
94567W        W64448  34.940   0.358  14.949
94568W        W64449   9.751  40.927   2.190
94569W        W64450  14.256  29.937   1.429
94570W        W64451  39.433  40.467   1.844
94571W        W64452  34.955  23.657   4.119
94572W        W64453  33.032   8.231   4.663
94573W        W64454  26.093   1.750  13.937
94574W        W64455   8.209  25.098  14.489
94575W        W64456  42.805  27.515   4.245
94576W        W64457   1.885  42.389  10.596
94577W        W64458   6.737  19.235   4.242
94578W        W64459  35.526   0.901   2.233
94579W        W64460  22.690   5.804   1.311
94580W        W64461  25.657  33.026  14.435
94581W        W64462  12.624  14.601  12.852
94582W        W64463  44.830  13.198  13.346
94583W        W64464  19.138  35.479   3.348
94584W        W64465   5.932  39.540   0.789
94585W        W64466  32.109   6.835  13.046
94586W        W64467  24.680  12.697   3.344
94587W        W64468  41.786  16.569  12.961
94588W        W64469  40.914  29.144   0.248
94589W        W64470  38.544   3.838  14.973
94590W        W64471   9.244  27.004   2.210
94591W        W64472   6.196  15.134   3.824
94592W        W64473   0.806  28.489  10.525
94593W        W64474  40.418  24.999   2.716
94594W        W64475   3.792  11.310  14.368
94595W        W64476  11.685  11.800   0.736
94596W        W64477  36.435  36.359  14.373
94597W        W64478  10.139  16.236   2.345
94598W        W64479  26.460  28.461  10.429
94599W        W64480  39.411  10.706  13.517
94600W        W64481  22.186   3.441  14.339
94601W        W64482  20.635  26.095  12.863
94602W        W64483   0.979  10.644   3.271
94603W        W64484  44.004  35.071  10.452
94604W        W64485   5.744  38.368  10.964
94605W        W64486   4.755   3.922  13.458
94606W        W64487  14.634  10.285   2.328
94607W        W64488  21.707  33.598  12.492
94608W        W64489  34.579   8.687  12.383
94609W        W64490  38.520   3.945  14.342
94610W        W64491   5.231   8.317  11.103
94611W        W64492  30.633  16.772  13.057
94612W        W64493  29.938   6.326   4.114
94613W        W64494  16.671  17.208  14.785
94614W        W64495  25.503  41.296  10.013
94615W        W64496   1.444  38.464   3.147
94616W        W64497  18.287   0.904   2.246
94617W        W64498  29.962  26.985   0.376
94618W        W64499   9.708  14.183   1.369
94619W        W64500  22.504   1.967   0.855
94620W        W64501  30.510  41.843  12.572
94621W        W64502  11.687  23.200   0.764
94622W        W64503  20.273  31.440  13.389
94623W        W64504  26.162  35.407  12.899
94624W        W64505  14.726  16.159   2.341
94625W        W64506  25.672  36.402  12.048
94626W        W64507  16.629  36.523  10.954
94627W        W64508  24.096  16.128  12.868
94628W        W64509  28.062   1.890  11.062
94629W        W64510  14.245  40.344  11.022
94630W        W64511  37.497  26.527   9.925
94631W        W64512  33.058   2.366   0.824
94632W        W64513  26.631   9.310  11.468
94633W        W64514  22.730  28.126   0.738
94634W        W64515  12.284   2.758   0.838
94635W        W64516  24.008  10.844   3.664
94636W        W64517  28.092  33.478   2.727
94637W        W64518  34.405  19.727   3.180
94638W        W64519  12.247  10.786   4.133
94639W        W64520  26.180  23.600  12.018
94640W        W64521  37.562  41.537  14.502
94641W        W64522  26.096  33.912   0.758
94642W        W64523  30.070  42.389  12.479
94643W        W64524   9.368  40.382  12.407
94644W        W64525  33.083  33.624   2.239
94645W        W64526   5.830   9.196   1.225
94646W        W64527  29.497  18.614   3.831
94647W        W64528  38.869  36.518  11.941
94648W        W64529   9.702  28.457  14.431
94649W        W64530   3.415  43.315   1.905
94650W        W64531  28.985  19.182   1.881
94651W        W64532   0.309   0.791  10.606
94652W        W64533   2.287  34.917  12.952
94653W        W64534  11.170  38.947   4.213
94654W        W64535  30.624   8.241  13.872
94655W        W64536  44.899  29.538  14.344
94656W        W64537  10.680   4.761   1.261
94657W        W64538  31.643  42.852  10.490
94658W        W64539  26.000   4.827   1.891
94659W        W64540  30.106  34.544   2.850
94660W        W64541  38.439  40.535  11.048
94661W        W64542   2.311  13.182  13.837
94662W        W64543  28.563  44.309   1.399
94663W        W64544   8.316  28.002   2.664
94664W        W64545  29.607  19.779   2.807
94665W        W64546  23.532  27.462  11.917
94666W        W64547  18.661  31.049  12.939
94667W        W64548  10.738  33.543  13.324
94668W        W64549  23.734  16.621   3.797
94669W        W64550   8.860  10.288   3.681
94670W        W64551   7.241  21.260  13.307
94671W        W64552  28.931   4.355   4.256
94672W        W64553   8.175   7.333   0.419
94673W        W64554  33.983  31.018   4.795
94674W        W64555  41.885  25.096  13.912
94675W        W64556  20.644  13.271  13.318
94676W        W64557  37.392   3.391   1.734
94677W        W64558  41.969  33.879  14.345
94678W        W64559  21.754  18.614   0.918
94679W        W64560   9.748   3.764   1.712
94680W        W64561   3.926  30.031  12.457
94681W        W64562  30.456   9.172   4.228
94682W        W64563   9.235  24.136   1.275
94683W        W64564  21.153  43.475  11.543
94684W        W64565   9.643  37.526  13.419
94685W        W64566  16.175  27.536  10.461
94686W        W64567  10.189  38.399  14.931
94687W        W64568  44.430   1.805   0.951
94688W        W64569   0.265  18.564  11.121
94689W        W64570  35.579   3.395   1.320
94690W        W64571  24.160  20.554   2.834
94691W        W64572   7.781  32.955   0.890
94692W        W64573  10.768  44.377  10.491
94693W        W64574  33.408  15.269  11.486
94694W        W64575  23.493  28.571   3.818
94695W        W64576  40.399  40.951   3.338
94696W        W64577   0.825  23.594   5.220
94697W        W64578  26.034  19.589  10.419
94698W        W64579   7.385  34.528   1.834
94699W        W64580  40.306  24.058  13.845
94700W        W64581   1.969   4.441   1.851
94701W        W64582  36.862  10.702   0.297
94702W        W64583  44.339   8.405  10.899
94703W        W64584   3.219  22.243   4.684
94704W        W64585  22.205  34.597  12.467
94705W        W64586  40.510  38.865   1.218
94706W        W64587  13.752  15.678  14.781
94707W        W64588  31.962  35.452   3.375
94708W        W64589  22.996  16.729  13.386
94709W        W64590  26.092  40.906   0.322
94710W        W64591  22.078  43.391   2.737
94711W        W64592  40.536  10.149  12.997
94712W        W64593  41.836  39.933  11.561
94713W        W64594  23.063  23.652   1.752
94714W        W64595  37.441  21.618  12.523
94715W        W64596  26.562   9.759   0.792
94716W        W64597   0.818  24.667  13.375
94717W        W64598  18.667   7.754  14.976
94718W        W64599   1.762   9.710  11.457
94719W        W64600  35.039  40.332  13.394
94720W        W64601  32.625   3.274   4.203
94721W        W64602   5.752   0.487  11.400
94722W        W64603  42.023  40.900  13.910
94723W        W64604  15.692  37.934  13.834
94724W        W64605  22.205  16.735  12.406
94725W        W64606  18.565   4.212  13.390
94726W        W64607  23.078  38.832   1.420
94727W        W64608  16.777  44.894  14.402
94728W        W64609   8.168  25.483   2.671
94729W        W64610   4.376   1.872  10.566
94730W        W64611   8.872  14.675   1.361
94731W        W64612  24.975  20.581  11.459
94732W        W64613   2.420  10.787   2.738
94733W        W64614   6.731  13.305  10.620
94734W        W64615  18.115  33.011  14.455
94735W        W64616  27.681  11.705  10.994
94736W        W64617  36.990  10.167  11.933
94737W        W64618  24.214  28.436   3.749
94738W        W64619  38.852  12.169  10.637
94739W        W64620  24.222  19.669   1.737
94740W        W64621  27.958  25.607   4.618
94741W        W64622  27.540  18.783  14.378
94742W        W64623  38.864  35.422   1.386
94743W        W64624   9.837  33.063  10.450
94744W        W64625  17.761  33.018   4.718
94745W        W64626  32.401  34.430  11.069
94746W        W64627   7.210  32.933   2.869
94747W        W64628  25.595   0.372   4.315
94748W        W64629  17.121  23.703  10.622
94749W        W64630   5.861  24.569  11.457
94750W        W64631  19.739  33.567  13.890
94751W        W64632  33.415  19.195  12.987
94752W        W64633  30.523  20.614  13.331
94753W        W64634  22.663  19.698  12.408
94754W        W64635   6.345  35.496  12.908
94755W        W64636   8.170  31.135  11.411
94756W        W64637   4.769  22.662   5.093
94757W        W64638   9.752  26.695  13.016
94758W        W64639   2.756  43.485  13.474
94759W        W64640  27.626  35.868   4.282
94760W        W64641  38.892  39.370   0.820
94761W        W64642  34.376  10.349  13.512
94762W        W64643  19.666  29.656   2.207
94763W        W64644  21.128  28.451  10.546
94764W        W64645  35.430  14.181  14.833
94765W        W64646   0.800   4.904   2.827
94766W        W64647  25.104  15.636  12.513
94767W        W64648  28.609  10.676   4.347
94768W        W64649  33.585  20.551   3.331
94769W        W64650   1.373  39.854   3.253
94770W        W64651  16.314  30.589  14.964
94771W        W64652  34.407  12.341  10.996
94772W        W64653  15.583  24.512   0.865
94773W        W64654  22.191   2.807  12.923
94774W        W64655   5.749  30.645   4.350
94775W        W64656  19.775  22.560  11.591
94776W        W64657  43.899   4.313  14.906
94777W        W64658  12.221  38.498   3.216
94778W        W64659  34.868  11.184  12.092
94779W        W64660  11.284   7.831  10.982
94780W        W64661  12.152  18.580  12.061
94781W        W64662  37.483  24.996  11.505
94782W        W64663  43.400  16.752   0.750
94783W        W64664  43.837  41.001  10.508
94784W        W64665  21.733  31.951   2.813
94785W        W64666  22.595  15.637  13.452
94786W        W64667  29.654  44.331  11.939
94787W        W64668  10.669   5.406   0.891
94788W        W64669  23.574  29.431   0.956
94789W        W64670  25.030  27.469   4.731
94790W        W64671  20.069  20.218   4.160
94791W        W64672   3.829  26.091   0.793
94792W        W64673  27.550   7.666  10.486
94793W        W64674  22.057  32.029  12.055
94794W        W64675  10.174  37.080  10.457
94795W        W64676  31.897  43.369  13.850
94796W        W64677  17.189  36.525  13.473
94797W        W64678  26.050  27.620  11.945
94798W        W64679   6.718  39.043   3.764
94799W        W64680   2.235  36.011  13.012
94800W        W64681  25.534   4.791  12.473
94801W        W64682  18.256  25.015   1.415
94802W        W64683   7.251  19.752   1.885
94803W        W64684  39.436  31.643  13.450
94804W        W64685  22.074  39.495   3.695
94805W        W64686  15.280  35.582  14.379
94806W        W64687  43.362  27.048   3.790
94807W        W64688  27.449  31.136  11.115
94808W        W64689  41.928  42.869   3.146
94809W        W64690  15.259  14.224  12.827
94810W        W64691  25.500   5.733   0.761
94811W        W64692   7.682  31.486   1.841
94812W        W64693  27.986  23.718  14.966
94813W        W64694  34.421  24.136   3.335
94814W        W64695   1.849  14.249  10.959
94815W        W64696  18.579  13.190   0.878
94816W        W64697  19.106  39.939   4.120
94817W        W64698  19.042  10.138  14.978
94818W        W64699   6.390  25.130  11.015
94819W        W64700  38.469  28.169  14.347
94820W        W64701   8.682  28.491   0.334
94821W        W64702  42.415   5.845   4.722
94822W        W64703  36.066  40.025   2.886
94823W        W64704   2.856  33.125  14.428
94824W        W64705  31.632  19.109  10.988
94825W        W64706  36.362  23.194   3.361
94826W        W64707  38.485  16.715   4.314
94827W        W64708  38.908  31.536  14.840
94828W        W64709  40.934  40.798   0.472
94829W        W64710  44.832  23.030   0.296
94830W        W64711   9.688  25.694  12.397
94831W        W64712  44.974   9.181  13.886
94832W        W64713  36.979  36.909   3.701
94833W        W64714  30.152  23.595   3.329
94834W        W64715   0.272   2.905  11.906
94835W        W64716  43.278  31.044  14.017
94836W        W64717  41.470  36.470  12.987
94837W        W64718  14.621   7.236  10.139
94838W        W64719  14.627   5.721   2.840
94839W        W64720  24.974  40.860   3.335
94840W        W64721   2.743  11.288  13.912
94841W        W64722  26.661  27.676  13.856
94842W        W64723  43.897  43.272  14.815
94843W        W64724   1.465  23.550   4.833
94844W        W64725  41.907  27.038   0.447
94845W        W64726  14.110  25.640   1.793
94846W        W64727   4.700  40.436   2.184
94847W        W64728  33.124  25.210   3.234
94848W        W64729  17.681   7.708  11.057
94849W        W64730  21.120  36.030   1.317
94850W        W64731   8.893  32.442   3.173
94851W        W64732  33.505  34.562  13.955
94852W        W64733  42.446  35.014  13.510
94853W        W64734  34.116  44.771   4.747
94854W        W64735  26.003  18.091  11.126
94855W        W64736  26.588  22.213   0.473
94856W        W64737  30.490  42.346   3.730
94857W        W64738   6.305  33.055   3.837
94858W        W64739  22.015   4.768  12.477
94859W        W64740   0.409  24.104   4.174
94860W        W64741  22.606   4.325   2.696
94861W        W64742  23.120  39.063  11.877
94862W        W64743  30.636  26.638  10.050
94863W        W64744  44.839  13.607   0.915
94864W        W64745   8.681  19.061   1.872
94865W        W64746  11.366   7.221  10.942
94866W        W64747   7.345  14.756  14.964
94867W        W64748  24.986  14.739  12.464
94868W        W64749  15.584  33.113  14.318
94869W        W64750  25.198   4.882   2.284
94870W        W64751  26.592   6.781  13.919
94871W        W64752  13.662  32.030  10.978
94872W        W64753  36.506  30.013   4.284
94873W        W64754  32.062  32.124  11.381
94874W        W64755  37.442  32.576  12.962
94875W        W64756   1.838  15.655  11.395
94876W        W64757  12.327  20.623   4.257
94877W        W64758   3.215   5.705   4.794
94878W        W64759  29.087   3.336  13.055
94879W        W64760  35.397   0.477  11.000
94880W        W64761  15.744  37.474   5.218
94881W        W64762   1.270  41.328  13.792
94882W        W64763  29.988  11.640   2.379
94883W        W64764  22.732  32.955  13.537
94884W        W64765  33.081   9.369  13.945
94885W        W64766  35.961  44.321   2.254
94886W        W64767  10.712  15.628  12.513
94887W        W64768  16.668   5.868  11.938
94888W        W64769  33.421  31.596   4.741
94889W        W64770  22.650  33.541   0.951
94890W        W64771  24.615  19.173  11.592
94891W        W64772  27.120   4.317   0.953
94892W        W64773  17.098  19.620  11.934
94893W        W64774  41.028  35.097  10.472
94894W        W64775   4.374  38.373   4.296
94895W        W64776  22.230   5.873   0.761
94896W        W64777   2.741  31.041  10.459
94897W        W64778  38.997   5.916   3.155
94898W        W64779  39.002  42.421  13.433
94899W        W64780  41.839  42.008  12.084
94900W        W64781  11.187   8.269  14.800
94901W        W64782  26.017  39.868  14.951
94902W        W64783   7.864  34.104  13.923
94903W        W64784  31.443  23.048   1.734
94904W        W64785   3.876  38.001   1.713
94905W        W64786  31.964  44.771  14.398
94906W        W64787  25.542  20.110   2.253
94907W        W64788   6.909  10.233  14.966
94908W        W64789  39.466  33.915   2.713
94909W        W64790  15.223  26.009  10.990
94910W        W64791  10.794  38.515   2.239
94911W        W64792  41.911   5.400  10.634
94912W        W64793  24.147  23.997  14.007
94913W        W64794  44.816  16.312  10.929
94914W        W64795  16.702   0.860  13.422
94915W        W64796  38.355  21.669  13.002
94916W        W64797  28.949  15.115   4.788
94917W        W64798  36.358   9.837  10.934
94918W        W64799  15.808  39.963  11.104
94919W        W64800  35.439  30.017  14.936
94920W        W64801  18.074  40.861   4.260
94921W        W64802  35.364  30.143  13.796
94922W        W64803  34.971  26.027   2.262
94923W        W64804   3.834  31.008  14.920
94924W        W64805  28.155  33.926   1.342
94925W        W64806   1.470  30.098  12.861
94926W        W64807   9.856   5.317   4.127
94927W        W64808  27.084  26.481   2.216
94928W        W64809  21.746  35.058   3.864
94929W        W64810  12.142  35.032  10.567
94930W        W64811   7.355  31.584   1.212
94931W        W64812  17.081  37.084   0.789
94932W        W64813   1.966  37.973  10.928
94933W        W64814  21.219   7.809   3.846
94934W        W64815   9.746  34.470   3.150
94935W        W64816  39.922  39.476   2.793
94936W        W64817  38.375  37.035   2.220
94937W        W64818  18.554  32.496  11.878
94938W        W64819   3.810  32.527   4.707
94939W        W64820   0.897  20.599   0.911
94940W        W64821  27.549  31.902  10.491
94941W        W64822  28.437  32.448  11.466
94942W        W64823  15.778  16.081   2.369
94943W        W64824  23.732  40.900  12.890
94944W        W64825   6.752  13.667   3.300
94945W        W64826   7.805  23.113   2.785
94946W        W64827  17.630  16.144  13.358
94947W        W64828  27.658  17.156  13.936
94948W        W64829  37.525  16.664  10.946
94949W        W64830  39.993  40.803  13.013
94950W        W64831  41.829  14.313  10.643
94951W        W64832  35.011   8.748  12.485
94952W        W64833  18.621  33.934   0.863
94953W        W64834   3.731  24.018  11.951
94954W        W64835  38.852  39.865  11.377
94955W        W64836  37.370  18.583  10.889
94956W        W64837  27.569   6.414  13.835
94957W        W64838   9.785  12.272  10.532
94958W        W64839   5.409  21.074  10.504
94959W        W64840  22.747  41.481   0.780
94960W        W64841  19.534  13.746  11.583
94961W        W64842   2.873  31.578  10.941
94962W        W64843   5.836  21.017   1.924
94963W        W64844  32.540  10.176  10.898
94964W        W64845   4.412  24.140  12.060
94965W        W64846  44.299   7.196   4.257
94966W        W64847  22.652  24.200   1.786
94967W        W64848  10.350   7.261   2.726
94968W        W64849   3.871  33.085   0.297
94969W        W64850   4.903  19.098  10.603
94970W        W64851  22.249  24.618  14.857
94971W        W64852   2.259  28.075  12.915
94972W        W64853  20.139   4.798  11.405
94973W        W64854  19.673  30.645  13.444
94974W        W64855  13.246   5.824   2.749
94975W        W64856   3.232  14.694  14.020
94976W        W64857   8.179  29.602  11.880
94977W        W64858  17.093  42.298  14.962
94978W        W64859   1.371  10.280  12.890
94979W        W64860  12.825  10.841   2.773
94980W        W64861  13.339  41.333  10.905
94981W        W64862  36.085   7.178   4.315
94982W        W64863  42.825  26.982  11.601
94983W        W64864  40.808  37.839   4.278
94984W        W64865  31.970  19.220  10.437
94985W        W64866  44.987  40.890   2.753
94986W        W64867  30.141  11.301  12.479
94987W        W64868  21.257   5.735  14.819
94988W        W64869  25.992   0.457  11.103
94989W        W64870   8.854  10.839  14.890
94990W        W64871  36.950  26.068  10.596
94991W        W64872  38.884   8.872  13.332
94992W        W64873  19.715   4.347   1.229
94993W        W64874  17.631  26.018  11.025
94994W        W64875   5.296   4.435   1.242
94995W        W64876   7.268  24.138  12.374
94996W        W64877  32.523  35.503  11.452
94997W        W64878   8.391  14.708  14.827
94998W        W64879  32.030   6.804  13.859
94999W        W64880  28.577  34.499  14.328
95000W        W64881  24.553  24.535   2.802
95001W        W64882  10.255   1.475   0.250
95002W        W64883  34.907  40.981  14.281
95003W        W64884  31.933  12.845   4.315
95004W        W64885  19.602  30.628  11.491
95005W        W64886  16.728  27.634  14.479
95006W        W64887  37.926  26.045  14.329
95007W        W64888  29.581  18.724   0.806
95008W        W64889  41.006  39.820   0.727
95009W        W64890   5.699   2.472  12.403
95010W        W64891   1.920   7.238  11.865
95011W        W64892  43.378  40.007   0.773
95012W        W64893  19.684  44.779   1.267
95013W        W64894   8.179  24.216   2.220
95014W        W64895  23.545  19.761   2.757
95015W        W64896  40.020  38.949   0.450
95016W        W64897   4.351  29.933  14.830
95017W        W64898  30.974   0.275  13.847
95018W        W64899  26.963  16.770   4.161
95019W        W64900   4.828  18.115   2.844
95020W        W64901  39.336  10.353   0.373
95021W        W64902  10.771  38.920   4.286
95022W        W64903   1.466   2.895  11.586
95023W        W64904   4.804  12.687  11.540
95024W        W64905  23.671   7.672   0.257
95025W        W64906  20.642  31.943   5.171
95026W        W64907  11.863  22.658  11.501
95027W        W64908  22.163  25.200  14.883
95028W        W64909   4.821  17.126   1.806
95029W        W64910   8.203  11.707   1.349
95030W        W64911  29.170  20.089   0.909
95031W        W64912   3.714  31.444  11.121
95032W        W64913  20.047  11.622   4.630
95033W        W64914  23.521  31.471   1.757
95034W        W64915   4.441  24.065  10.516
95035W        W64916  18.250  42.377  13.421
95036W        W64917  10.246  11.818  13.331
95037W        W64918   7.893   5.813  12.402
95038W        W64919  29.949  41.396  10.628
95039W        W64920   2.464   3.248  13.382
95040W        W64921  35.458  43.824  14.875
95041W        W64922  40.328  31.594   4.187
95042W        W64923   8.848  17.626  11.954
95043W        W64924   7.895  12.120   1.351
95044W        W64925  34.121  37.925   0.453
95045W        W64926   9.752  32.914  12.471
95046W        W64927  37.945  34.427  13.505
95047W        W64928  36.097  23.506  10.448
95048W        W64929  12.281  35.050  12.976
95049W        W64930  28.931  32.617   3.273
95050W        W64931  29.153   2.847   2.260
95051W        W64932  39.517   8.663   0.951
95052W        W64933  22.132  26.619   4.122
95053W        W64934  27.661   3.260   1.791
95054W        W64935  14.221  33.925  10.632
95055W        W64936  16.802  15.249   3.724
95056W        W64937  42.480  19.155  11.957
95057W        W64938  28.469  34.513  13.878
95058W        W64939  11.678  15.256  14.934
95059W        W64940  22.080  23.207   4.664
95060W        W64941  22.045  13.606   0.365
95061W        W64942  24.163  12.775  12.468
95062W        W64943  33.600  40.003  13.387
95063W        W64944   5.239  14.835   1.888
95064W        W64945  34.026   6.362  10.559
95065W        W64946  23.170  33.057   4.713
95066W        W64947  17.230  12.857  13.510
95067W        W64948  21.746  14.194  12.055
95068W        W64949   0.349  35.011  14.975
95069W        W64950   7.746  34.517  14.448
95070W        W64951  26.998  12.659   0.853
95071W        W64952  26.545   4.849  14.014
95072W        W64953  23.668  26.457  13.499
95073W        W64954  19.733   0.257   2.416
95074W        W64955  10.760   6.302  12.351
95075W        W64956  35.441  26.620   0.248
95076W        W64957   1.921  32.493  11.905
95077W        W64958  28.055  14.272  12.899
95078W        W64959  29.920  40.511  11.446
95079W        W64960   6.258  21.630  13.491
95080W        W64961  32.023   5.209  11.512
95081W        W64962  37.915  24.134  11.873
95082W        W64963  21.035  35.405   0.294
95083W        W64964  29.126  40.994   3.841
95084W        W64965  20.558  40.455   4.301
95085W        W64966  14.755  24.082  12.486
95086W        W64967  15.329  24.193  12.891
95087W        W64968   5.193   1.380  12.352
95088W        W64969   9.809  22.508  14.012
95089W        W64970  10.327   1.411  11.567
95090W        W64971  35.058  22.735   3.307
95091W        W64972  22.566   4.874  11.571
95092W        W64973  15.086   6.283   0.916
95093W        W64974  24.120  25.535   0.761
95094W        W64975   5.351   8.837  13.485
95095W        W64976  24.570  35.431  11.478
95096W        W64977  38.518  31.597   1.400
95097W        W64978  13.752  35.858   2.208
95098W        W64979  33.126   8.231  13.901
95099W        W64980  22.706  18.777   0.744
95100W        W64981   7.195  25.976   1.289
95101W        W64982  27.008  41.855   4.625
95102W        W64983  44.945  15.628   0.760
95103W        W64984  13.129  10.180   3.752
95104W        W64985  24.676  27.643   0.427
95105W        W64986   1.286  43.423   3.305
95106W        W64987   6.184  41.036   0.844
95107W        W64988   0.377  19.589   0.819
95108W        W64989   5.763  37.865  12.387
95109W        W64990   4.834  36.056  12.577
95110W        W64991   2.789  27.951  12.519
95111W        W64992   5.399  25.707  10.603
95112W        W64993  26.459   7.248  14.882
95113W        W64994  22.156  32.465  11.528
95114W        W64995   5.770  43.332  14.791
95115W        W64996  17.654  24.479   2.323
95116W        W64997  20.626  35.486   2.749
95117W        W64998  14.276  41.411  11.608
95118W        W64999  22.631  13.679  10.961
95119W        W65000  43.781  11.860   4.239
95120W        W65001   8.212  41.038   3.765
95121W        W65002  12.744  23.009  13.029
95122W        W65003   0.362  29.481  11.905
95123W        W65004  21.571  10.719  13.988
95124W        W65005  20.108  40.468   1.210
95125W        W65006   1.452   8.686   4.646
95126W        W65007  32.511  39.880  11.907
95127W        W65008   3.764   1.413   2.182
95128W        W65009   1.936   4.770  14.992
95129W        W65010  34.966  22.732  12.396
95130W        W65011  10.721  13.762   3.287
95131W        W65012  25.640  35.996  12.033
95132W        W65013  21.243  11.754   3.686
95133W        W65014  42.001  15.816   1.840
95134W        W65015  28.008  22.732  13.383
95135W        W65016  13.736   0.310   1.830
95136W        W65017  31.973  42.878  12.477
95137W        W65018  19.566  10.747  10.552
95138W        W65019   5.933  26.112  12.429
95139W        W65020  34.038  29.429  10.548
95140W        W65021  35.933  26.012   3.663
95141W        W65022  29.533   3.429  10.899
95142W        W65023  19.087  12.213  11.938
95143W        W65024  14.099  35.490   2.826
95144W        W65025   5.774  23.193   0.242
95145W        W65026   8.737  13.167  13.871
95146W        W65027  22.536  39.905  10.547
95147W        W65028  14.783  19.243  13.920
95148W        W65029  34.945   1.252  10.609
95149W        W65030  33.473  17.758   2.817
95150W        W65031  12.265  36.063   1.391
95151W        W65032  35.859  42.848  12.978
95152W        W65033  30.632  16.138  13.911
95153W        W65034  43.371   1.264   4.799
95154W        W65035  16.568  23.590   2.665
95155W        W65036  19.628  38.982   3.797
95156W        W65037  37.928   5.316  14.444
95157W        W65038   9.338  11.159   1.806
95158W        W65039  38.033   9.883   1.406
95159W        W65040  41.962  27.507   1.293
95160W        W65041  35.010  28.467  13.975
95161W        W65042  16.609  24.600  10.947
95162W        W65043  16.096  40.347  11.579
95163W        W65044  24.076  15.149   4.125
95164W        W65045  15.788   8.330   3.793
95165W        W65046  39.370   4.355   0.928
95166W        W65047  29.668  17.199  13.467
95167W        W65048  31.428  22.508   3.363
95168W        W65049  30.064  34.061   1.916
95169W        W65050  44.962  43.989   0.411
95170W        W65051   3.767  20.161   0.803
95171W        W65052   9.888  42.386  10.471
95172W        W65053   1.467  37.893  14.925
95173W        W65054  26.113  13.326  11.898
95174W        W65055  11.351   1.842  13.005
95175W        W65056  17.562  44.453  10.534
95176W        W65057  37.374  40.348   3.767
95177W        W65058  37.863   6.252   3.256
95178W        W65059  28.160  29.657   1.910
95179W        W65060  34.551  22.539   1.897
95180W        W65061   4.357  13.615  10.614
95181W        W65062  40.807   2.330   3.717
95182W        W65063  32.978  44.981   3.680
95183W        W65064  14.686  42.812   3.175
95184W        W65065  29.668   8.353   3.826
95185W        W65066  11.191   8.396   0.918
95186W        W65067  28.937  28.525  12.544
95187W        W65068   9.755  10.860   2.201
95188W        W65069  40.312  11.792   2.787
95189W        W65070  27.617   3.776  14.489
95190W        W65071   5.416  12.255   1.448
95191W        W65072  26.030  40.986  12.398
95192W        W65073   9.690  25.070  13.934
95193W        W65074  36.507   1.259   5.258
95194W        W65075  41.793  42.941  10.466
95195W        W65076   1.879  43.288  12.957
95196W        W65077  15.604  42.307  11.477
95197W        W65078   4.356  25.060   0.317
95198W        W65079  39.384   0.291   0.873
95199W        W65080  24.491  43.832   4.620
95200W        W65081  24.684  12.706   4.826
95201W        W65082   1.865  13.793   1.405
95202W        W65083  24.723  42.896   4.789
95203W        W65084  37.499  30.926   4.260
95204W        W65085  42.858  16.736  12.824
95205W        W65086  29.974  19.578  13.049
95206W        W65087   6.779  34.535   0.323
95207W        W65088   3.422   0.781  14.892
95208W        W65089  37.881  38.860  14.419
95209W        W65090   3.919   3.730   3.240
95210W        W65091  21.613  40.897   4.121
95211W        W65092  40.453  14.790  13.024
95212W        W65093   8.830  36.855  13.833
95213W        W65094  21.245  40.499   2.195
95214W        W65095  22.745  28.625   3.783
95215W        W65096  14.827  11.365  12.397
95216W        W65097  30.137  17.567   4.750
95217W        W65098  35.430  12.855  12.467
95218W        W65099  10.722  11.359  14.338
95219W        W65100  40.336  34.532  10.410
95220W        W65101  25.114  24.571   3.362
95221W        W65102  18.168  33.907  10.478
95222W        W65103   1.271  12.188   2.857
95223W        W65104  19.539  40.876   0.453
95224W        W65105   8.312  30.522   0.254
95225W        W65106   4.711  13.737   2.697
95226W        W65107  12.763  33.064  14.912
95227W        W65108  30.045  12.837   1.223
95228W        W65109  27.471   9.263  12.873
95229W        W65110  41.030   0.255  14.409
95230W        W65111  27.659  31.512   1.296
95231W        W65112  10.289   9.804   3.822
95232W        W65113  14.286   6.856  14.917
95233W        W65114  34.042  11.240  10.593
95234W        W65115   0.907  23.177  13.933
95235W        W65116  26.163  31.139   4.600
95236W        W65117   9.645  32.475   0.322
95237W        W65118  40.902  28.117   1.932
95238W        W65119  16.672  41.015  11.919
95239W        W65120  27.004  18.584   2.698
95240W        W65121   7.402  30.438  13.328
95241W        W65122  29.043  39.369   0.831
95242W        W65123  22.655  42.466   3.320
95243W        W65124  37.364   4.889  10.445
95244W        W65125  14.233  18.695   1.732
95245W        W65126   7.701  30.146   0.745
95246W        W65127  21.124  16.669  14.793
95247W        W65128  10.146   9.703   4.165
95248W        W65129  22.643  22.165  13.860
95249W        W65130   2.823  22.599  13.891
95250W        W65131   5.881   2.321  13.037
95251W        W65132  10.180   0.370   0.878
95252W        W65133  10.824  44.995  14.392
95253W        W65134  18.729   1.939  11.472
95254W        W65135  17.742  23.648  11.417
95255W        W65136  24.589  24.599   2.397
95256W        W65137  27.692  11.279   1.843
95257W        W65138  17.230  25.966   1.259
95258W        W65139  44.804   3.276   1.879
95259W        W65140  24.082   7.685   0.869
95260W        W65141  30.569  33.950   4.276
95261W        W65142  36.076  35.594   2.208
95262W        W65143  10.758  10.222   1.262
95263W        W65144  38.414   4.249   4.122
95264W        W65145   1.385  20.547  13.523
95265W        W65146  24.630  15.197   4.287
95266W        W65147  15.673   1.880  14.001
95267W        W65148  35.369  31.024   1.753
95268W        W65149   6.252  20.612  12.014
95269W        W65150  20.667  37.450   2.689
95270W        W65151  16.082   3.223   0.925
95271W        W65152  15.198  28.496   4.771
95272W        W65153   0.883   8.368   1.882
95273W        W65154   7.276  44.348  12.830
95274W        W65155  11.354  11.225  12.058
95275W        W65156   1.747  16.607  11.937
95276W        W65157  13.323  10.377  14.448
95277W        W65158  37.042  39.465  14.380
95278W        W65159  23.528  26.587  10.641
95279W        W65160  13.310  41.990  10.913
95280W        W65161  14.101   0.793   4.694
95281W        W65162  10.770  24.024   4.354
95282W        W65163   7.368  15.084  14.275
95283W        W65164  43.340   1.757   4.813
95284W        W65165   1.965  11.629   2.739
95285W        W65166  43.505  31.491   1.407
95286W        W65167  37.974  10.370   2.757
95287W        W65168   4.872   0.808   3.681
95288W        W65169   8.354  43.817   3.274
95289W        W65170  43.992  24.549  14.440
95290W        W65171  39.335  41.962  12.862
95291W        W65172  42.874  33.520   4.287
95292W        W65173  42.509  24.720  11.987
95293W        W65174  19.228  17.565   0.339
95294W        W65175   3.265  34.536  12.419
95295W        W65176   0.363  10.197  12.374
95296W        W65177  37.028  32.468   2.382
95297W        W65178  26.187  25.114  11.099
95298W        W65179  40.525  21.554  14.370
95299W        W65180   2.329  32.511   3.646
95300W        W65181  26.687  22.722  10.644
95301W        W65182  14.761  26.630   0.323
95302W        W65183  25.508  15.312   1.213
95303W        W65184  36.569  25.516  13.415
95304W        W65185   6.393  13.631   3.154
95305W        W65186  24.987  15.301  14.469
95306W        W65187  38.457   0.429   0.901
95307W        W65188  32.101   9.217   0.785
95308W        W65189   3.430  31.144   0.731
95309W        W65190  27.993  22.195   2.830
95310W        W65191  34.111  42.355  10.492
95311W        W65192  17.122  10.749  13.317
95312W        W65193   0.966  44.485  14.957
95313W        W65194   0.830   4.864  10.051
95314W        W65195  13.710  39.366  11.413
95315W        W65196  21.131  15.578   1.442
95316W        W65197   7.268  20.076   4.234
95317W        W65198   4.727   2.855   2.843
95318W        W65199  25.673  25.561  14.396
95319W        W65200  29.148  34.934   4.297
95320W        W65201  41.523  11.250   3.315
95321W        W65202   5.308  44.809  14.892
95322W        W65203   8.868  39.048  11.023
95323W        W65204  32.936  33.942  13.388
95324W        W65205  14.627  42.332  13.979
95325W        W65206  26.196  32.513   3.274
95326W        W65207  11.784  11.128  10.137
95327W        W65208  28.082  10.665  13.545
95328W        W65209   8.716   9.351   4.839
95329W        W65210  10.219  37.994  11.414
95330W        W65211  27.516  26.953   1.786
95331W        W65212  20.155  18.720  13.984
95332W        W65213  44.354  36.853  13.847
95333W        W65214  30.517  38.454  12.929
95334W        W65215  11.765  33.404   3.257
95335W        W65216  28.016  12.318   1.743
95336W        W65217  44.305   5.353   4.133
95337W        W65218  21.120   6.350  10.641
95338W        W65219  11.220  39.905   4.678
95339W        W65220  29.161  30.158  14.482
95340W        W65221  13.300  29.495  13.806
95341W        W65222  41.358  42.954  11.412
95342W        W65223   3.830   5.347   1.752
95343W        W65224  14.813  40.865   2.844
95344W        W65225  41.537  42.901  14.324
95345W        W65226  14.630  25.199  11.478
95346W        W65227   6.838  44.782  13.881
95347W        W65228   4.351  10.635   4.797
95348W        W65229   8.296  22.714   1.355
95349W        W65230  17.137   5.814   0.413
95350W        W65231   9.733   6.275   2.784
95351W        W65232  23.191  41.345   1.805
95352W        W65233   7.828  31.508  13.529
95353W        W65234  19.071   9.306   2.290
95354W        W65235  22.117   6.887   3.302
95355W        W65236   6.737  10.310  11.001
95356W        W65237  30.088  43.868   1.339
95357W        W65238  44.320  26.579  13.325
95358W        W65239   2.464  37.848  14.031
95359W        W65240   3.942   9.226  12.396
95360W        W65241  19.168  30.999   1.243
95361W        W65242   1.757  10.230  14.295
95362W        W65243  10.691  22.740   3.339
95363W        W65244  35.859  29.938  14.352
95364W        W65245   9.726  32.978   4.734
95365W        W65246  12.848  24.076   2.882
95366W        W65247  30.559  30.458  13.393
95367W        W65248   1.306  39.927   3.767
95368W        W65249  36.915  17.797   2.804
95369W        W65250   0.854  22.722  11.014
95370W        W65251  12.628  28.483   5.271
95371W        W65252  18.620  12.747  14.937
95372W        W65253   6.229  16.637  10.920
95373W        W65254  19.752  22.580   1.789
95374W        W65255  20.232  31.522  10.428
95375W        W65256   6.364  18.766   4.622
95376W        W65257   5.229  25.178   2.892
95377W        W65258  12.818  12.257  13.795
95378W        W65259  10.806  26.141  14.344
95379W        W65260  13.602  42.526  11.471
95380W        W65261  38.330   8.180   2.851
95381W        W65262  41.479   5.407   0.290
95382W        W65263  44.380   0.805  11.528
95383W        W65264  17.296  39.525   1.719
95384W        W65265  21.536  10.757   0.453
95385W        W65266   0.379  15.270  14.764
95386W        W65267  22.552  35.584   1.876
95387W        W65268   2.272  25.972   3.769
95388W        W65269  33.914  44.827  13.351
95389W        W65270  17.779  30.006   4.333
95390W        W65271  40.028  18.769  14.945
95391W        W65272  12.740  30.493   4.831
95392W        W65273  14.210  38.967   5.576
95393W        W65274  36.859  18.230   1.319
95394W        W65275  21.714  40.823   2.819
95395W        W65276   6.885   3.297  10.923
95396W        W65277  10.852  27.631   4.838
95397W        W65278  22.636  28.150  10.609
95398W        W65279  22.620   9.342   0.339
95399W        W65280  24.997   5.807  12.519
95400W        W65281   9.768   5.831  13.381
95401W        W65282  11.807  38.012   0.758
95402W        W65283   4.248  27.689  10.612
95403W        W65284   6.213  38.901   4.347
95404W        W65285  12.792  10.176   0.346
95405W        W65286  18.148   0.477  14.475
95406W        W65287  22.645  12.284   9.929
95407W        W65288   9.802  28.459  10.570
95408W        W65289   1.289  30.488   1.845
95409W        W65290  44.975  20.722   3.831
95410W        W65291  44.298   9.210   4.246
95411W        W65292  13.790  18.262   0.729
95412W        W65293  41.433  16.747   1.827
95413W        W65294  28.449  40.805  12.440
95414W        W65295  28.495  38.842  12.839
95415W        W65296  39.337  23.666  14.298
95416W        W65297  16.241   1.853  11.030
95417W        W65298  42.323  31.011  13.823
95418W        W65299  34.409  20.029   2.345
95419W        W65300  24.561   8.796   2.827
95420W        W65301   7.275   7.306   4.197
95421W        W65302  13.629  34.031  10.477
95422W        W65303  25.471  20.109   1.360
95423W        W65304  37.857  10.657  12.986
95424W        W65305  34.933  30.568   4.270
95425W        W65306   4.413  35.393   1.404
95426W        W65307  17.679  12.734   3.745
95427W        W65308  12.187  20.153   2.389
95428W        W65309  35.557  36.564  14.960
95429W        W65310  37.574   3.410  12.462
95430W        W65311  36.518   6.845   0.421
95431W        W65312  38.888   9.278   0.383
95432W        W65313  10.809  31.446  13.532
95433W        W65314   1.809   0.304   2.231
95434W        W65315  14.250  19.626   0.769
95435W        W65316  13.802  24.999   4.140
95436W        W65317  29.665  19.252  12.065
95437W        W65318  33.926  38.852  11.993
95438W        W65319  23.604  21.608   2.320
95439W        W65320   5.891  38.536  12.981
95440W        W65321  22.059  25.536   3.764
95441W        W65322  38.885  24.601  11.403
95442W        W65323  40.506  43.781   2.699
95443W        W65324  16.653  23.174  11.054
95444W        W65325  18.579  29.649   0.860
95445W        W65326  27.671  19.655   4.770
95446W        W65327  34.518  17.657   1.399
95447W        W65328  30.059  30.628  12.049
95448W        W65329  34.375  22.579   2.390
95449W        W65330  17.241  28.141   3.243
95450W        W65331   1.380  12.632  13.890
95451W        W65332  29.100  11.365  10.925
95452W        W65333  13.264  23.020   2.282
95453W        W65334   2.462  11.257   2.834
95454W        W65335   8.338  24.652  14.838
95455W        W65336   5.236  42.296   3.814
95456W        W65337  27.457  21.689   3.830
95457W        W65338   7.878  34.521  13.813
95458W        W65339  44.336  10.368   2.676
95459W        W65340  32.600  27.959   3.827
95460W        W65341  43.778  12.849  13.506
95461W        W65342   7.809   7.683   0.760
95462W        W65343   5.241   1.968   0.343
95463W        W65344   0.869  20.717  13.399
95464W        W65345  25.093  41.014   4.768
95465W        W65346  26.008   0.981   4.255
95466W        W65347  22.222   0.407   5.178
95467W        W65348  31.967   2.289  13.941
95468W        W65349  30.609  39.912  13.436
95469W        W65350  13.321  28.497   1.377
95470W        W65351  38.978  34.990   2.393
95471W        W65352   0.430   4.224  11.594
95472W        W65353  15.256   1.879  14.963
95473W        W65354  26.971  38.946  13.032
95474W        W65355  30.467  32.992  11.115
95475W        W65356  26.623   0.366  10.071
95476W        W65357  15.722   5.244   1.707
95477W        W65358   1.359  42.985   4.801
95478W        W65359  40.988  31.141   1.726
95479W        W65360  26.620  26.587   4.829
95480W        W65361   8.206  41.365  13.967
95481W        W65362  12.833  30.913  13.825
95482W        W65363  37.486  21.048  13.323
95483W        W65364  26.985   0.797  14.421
95484W        W65365  10.698  37.042  12.943
95485W        W65366   9.873  22.035   3.796
95486W        W65367  30.958  14.220  14.892
95487W        W65368  30.005  39.413  10.463
95488W        W65369  41.374  17.217  11.591
95489W        W65370  12.301  25.102   2.350
95490W        W65371  31.539  23.155   4.266
95491W        W65372   3.762  35.091   1.727
95492W        W65373  25.204  21.140   3.756
95493W        W65374   7.225  18.549  13.441
95494W        W65375   4.299  16.790   4.172
95495W        W65376  35.041  21.565  13.364
95496W        W65377   9.868  15.778   1.709
95497W        W65378  11.197  38.823   4.820
95498W        W65379  29.103  15.086  12.377
95499W        W65380  25.628  24.980  10.945
95500W        W65381   3.885  40.797   4.299
95501W        W65382  35.075  42.482  13.322
95502W        W65383  24.119  31.021   0.963
95503W        W65384  29.086  19.240   2.782
95504W        W65385  11.272  43.803  12.382
95505W        W65386   8.761  18.752   5.212
95506W        W65387  29.954  30.476  12.376
95507W        W65388  42.826  43.406  13.387
95508W        W65389  22.704  17.729   4.234
95509W        W65390  43.817  31.924   3.680
95510W        W65391  33.009   2.900   0.278
95511W        W65392  14.756  11.363  10.991
95512W        W65393  32.112  19.114   3.166
95513W        W65394   8.733  15.775  13.505
95514W        W65395  20.033  23.157   0.344
95515W        W65396   2.877  29.439  14.357
95516W        W65397  27.092  10.256  11.999
95517W        W65398  31.559  34.539   4.719
95518W        W65399  31.132   4.771  10.639
95519W        W65400  36.095  12.159   2.371
95520W        W65401  36.096  39.527  10.475
95521W        W65402  20.555  19.690   4.313
95522W        W65403   5.263  43.900  10.579
95523W        W65404  19.237  42.377  12.045
95524W        W65405  22.135  42.997  13.926
95525W        W65406   2.887  23.653  12.844
95526W        W65407  22.653  42.809   3.353
95527W        W65408  31.636  15.310   0.773
95528W        W65409  19.165  31.418  11.069
95529W        W65410  42.950  28.151  11.575
95530W        W65411  41.012  41.914  14.274
95531W        W65412  30.604   5.268   4.196
95532W        W65413  43.291  41.027   2.825
95533W        W65414   0.295  43.923  13.041
95534W        W65415   0.275  20.641   2.784
95535W        W65416  44.440  40.304  13.868
95536W        W65417  29.525  10.320   1.301
95537W        W65418  31.451  16.662  12.911
95538W        W65419  32.397  11.647   3.289
95539W        W65420  40.951  16.755   2.303
95540W        W65421  37.838  29.008  11.995
95541W        W65422  20.531  42.346  13.370
95542W        W65423  19.726   1.415  10.042
95543W        W65424  22.238   0.259   0.282
95544W        W65425  39.538  26.607   0.955
95545W        W65426   7.402  30.617  14.806
95546W        W65427  12.751  27.134   4.776
95547W        W65428  34.988  12.134  14.958
95548W        W65429  13.731   3.244  12.543
95549W        W65430   7.785   9.391  12.049
95550W        W65431  38.038   9.330  12.357
95551W        W65432  10.169   5.224   0.334
95552W        W65433  24.618  18.246  11.502
95553W        W65434  44.377  44.915   4.317
95554W        W65435   8.822   9.386  10.888
95555W        W65436  40.503  22.727   1.926
95556W        W65437  23.501  21.705  13.813
95557W        W65438  42.451  40.948  11.585
95558W        W65439   1.812  43.987   2.852
95559W        W65440  29.118  14.334  11.093
95560W        W65441  22.126  30.999  13.473
95561W        W65442   8.163  33.973  13.378
95562W        W65443  40.373  35.038   3.276
95563W        W65444  13.296   8.382   1.280
95564W        W65445  33.946   2.469   2.325
95565W        W65446  12.635  11.725   4.251
95566W        W65447  44.420   6.717   3.192
95567W        W65448  14.787  15.130   1.426
95568W        W65449  10.319   9.362  11.478
95569W        W65450   4.888  41.806   2.320
95570W        W65451  19.700  41.482  11.561
95571W        W65452  24.556  19.096  14.832
95572W        W65453  42.437  37.944  11.587
95573W        W65454  34.897  20.651  12.994
95574W        W65455  34.476  11.630  10.622
95575W        W65456   1.936  21.527   2.199
95576W        W65457  27.966  22.747   0.849
95577W        W65458  26.069  33.091   3.368
95578W        W65459   3.847  37.421   1.904
95579W        W65460  30.547  16.143  13.315
95580W        W65461  11.774   9.170  11.984
95581W        W65462   3.437  13.612   2.316
95582W        W65463  42.518  20.188   3.735
95583W        W65464  40.328  39.416  12.878
95584W        W65465  11.690   5.228   4.664
95585W        W65466  22.050   4.700  14.304
95586W        W65467  34.961  25.968  11.981
95587W        W65468  27.542  28.679   2.235
95588W        W65469  19.738  29.510  11.389
95589W        W65470  35.989  19.765  11.393
95590W        W65471  14.213  20.028   2.879
95591W        W65472  19.627  37.876   3.723
95592W        W65473  35.488   1.272   1.306
95593W        W65474  19.617  17.144   1.862
95594W        W65475   9.812  19.171   4.195
95595W        W65476  26.006  44.885   4.756
95596W        W65477  44.895  18.245   1.250
95597W        W65478  41.854  18.653   3.362
95598W        W65479  25.655  11.643  13.021
95599W        W65480  10.737  27.594  14.937
95600W        W65481  37.467  21.070  13.932
95601W        W65482  21.214  36.856  12.579
95602W        W65483  21.516   2.738  13.381
95603W        W65484  40.523  10.336  10.973
95604W        W65485  36.074   7.175  10.498
95605W        W65486  11.340  39.512   2.381
95606W        W65487  43.437  23.527  13.345
95607W        W65488  19.592  35.097   3.273
95608W        W65489   5.287   4.412   0.334
95609W        W65490  11.252  39.467   1.271
95610W        W65491  22.746   2.786  14.437
95611W        W65492  17.658  43.947  12.966
95612W        W65493  23.558   8.287  11.008
95613W        W65494  18.567  22.229  10.891
95614W        W65495   7.413  27.512  10.551
95615W        W65496  17.679   3.811   3.287
95616W        W65497  16.640  16.700   0.277
95617W        W65498  41.529  13.257  10.958
95618W        W65499   4.761  30.956   3.299
95619W        W65500  39.056  35.892  13.348
95620W        W65501   9.201  42.344   2.741
95621W        W65502  25.139   2.809   1.798
95622W        W65503  22.237  15.172   0.894
95623W        W65504  13.665  14.590   4.628
95624W        W65505  20.765  13.803  14.027
95625W        W65506  23.574  44.317   4.817
95626W        W65507  24.130  33.472   0.793
95627W        W65508  35.999  24.174  14.479
95628W        W65509  26.110  44.283  12.872
95629W        W65510  41.508  15.177  12.404
95630W        W65511  13.743  30.427   3.729
95631W        W65512   5.372  41.398   0.734
95632W        W65513  36.561  10.641  12.560
95633W        W65514  11.848  10.304   3.836
95634W        W65515  18.681   2.408   3.823
95635W        W65516  43.906   5.394  13.459
95636W        W65517  27.680  34.387  11.582
95637W        W65518  24.144  19.087  14.504
95638W        W65519   0.314  40.446  13.377
95639W        W65520  41.925  27.679   1.744
95640W        W65521  27.551   8.899   1.887
95641W        W65522  28.045  42.801   0.473
95642W        W65523  15.324  39.318  11.959
95643W        W65524  35.918  26.967   3.693
95644W        W65525  44.366  12.287  11.462
95645W        W65526  12.765  13.263   1.276
95646W        W65527  34.524  36.062   3.785
95647W        W65528  30.596  12.741   0.757
95648W        W65529  38.476  19.723  13.859
95649W        W65530  36.348  33.048   3.192
95650W        W65531  14.721   3.931  14.428
95651W        W65532   5.731  42.314   3.259
95652W        W65533  25.200  42.440  13.385
95653W        W65534  23.217  28.618   2.841
95654W        W65535  32.032  22.644  11.115
95655W        W65536  26.085   4.271  11.933
95656W        W65537  33.625  17.194   2.375
95657W        W65538  21.043  30.152  13.346
95658W        W65539  16.652  12.631   1.917
95659W        W65540  21.121  39.560   2.853
95660W        W65541  37.010   7.734   0.390
95661W        W65542  12.330  27.947  10.505
95662W        W65543  15.209   3.838  10.404
95663W        W65544   4.389   6.281   4.818
95664W        W65545  32.001  32.946   1.347
95665W        W65546  15.226  38.028   4.680
95666W        W65547  12.186  24.199   1.405
95667W        W65548  25.624   0.314   1.272
95668W        W65549  28.995  33.898   2.693
95669W        W65550  32.944  42.777  10.423
95670W        W65551   1.883   9.320  14.861
95671W        W65552  34.985  40.542  13.826
95672W        W65553  43.811  37.885   4.695
95673W        W65554  11.797  11.755  11.033
95674W        W65555  29.617  33.028  11.418
95675W        W65556  24.058  16.108  11.440
95676W        W65557  32.021  37.434  11.896
95677W        W65558  21.592  17.107   1.727
95678W        W65559  40.852   4.263   1.315
95679W        W65560  28.674  16.577  13.023
95680W        W65561  14.316  11.815   3.825
95681W        W65562  18.632  34.590   0.461
95682W        W65563   1.280  23.713   2.781
95683W        W65564   8.901  34.379   3.169
95684W        W65565   5.193  10.355   2.362
95685W        W65566  12.176  41.038  10.454
95686W        W65567  44.484   4.719   2.283
95687W        W65568  41.791  21.715   0.758
95688W        W65569   9.232   9.735  14.856
95689W        W65570  15.654  28.074  14.823
95690W        W65571  32.423  26.089  14.878
95691W        W65572   2.771  42.396   4.229
95692W        W65573   4.848  22.032  14.787
95693W        W65574  33.128  20.230  13.413
95694W        W65575  14.145  41.897  13.823
95695W        W65576  41.467  21.587   2.878
95696W        W65577   0.968  13.822  13.505
95697W        W65578  12.243   4.844   1.829
95698W        W65579  33.051   6.289   3.702
95699W        W65580  44.904  11.196  13.936
95700W        W65581  12.780  23.623  11.449
95701W        W65582   0.857  24.487   2.290
95702W        W65583  33.435  32.097   2.312
95703W        W65584  36.429   7.400  14.005
95704W        W65585  19.770   3.458   0.334
95705W        W65586  28.472  31.059  14.776
95706W        W65587  39.551  43.005   1.307
95707W        W65588  40.956  14.329  13.393
95708W        W65589  32.088  39.553   1.738
95709W        W65590  20.239  43.977  14.977
95710W        W65591   7.765   7.219  11.558
95711W        W65592  38.869  17.739  11.050
95712W        W65593  43.472   8.872  13.022
95713W        W65594   2.926  16.724  11.046
95714W        W65595  15.104  23.125   2.892
95715W        W65596  26.475  27.548  10.091
95716W        W65597  37.038   8.676  12.865
95717W        W65598  40.887  18.073   2.196
95718W        W65599  23.137  24.146  11.466
95719W        W65600  22.538  34.073   0.883
95720W        W65601  12.196  41.321   2.303
95721W        W65602  22.192  24.139  14.315
95722W        W65603  21.637  23.644   0.901
95723W        W65604  27.197  20.557  13.942
95724W        W65605   8.844  29.636   1.789
95725W        W65606  39.366  23.226  11.438
95726W        W65607  34.015  27.190  14.808
95727W        W65608  19.175  16.748   1.364
95728W        W65609  33.439  25.172  10.014
95729W        W65610   7.216  38.436   1.766
95730W        W65611  40.935   4.350  14.883
95731W        W65612  24.506  27.156  14.760
95732W        W65613  29.146   3.413  13.329
95733W        W65614  15.253   5.808  10.999
95734W        W65615  29.941   5.888   5.136
95735W        W65616  40.996  28.669   1.301
95736W        W65617   8.722  22.189   4.686
95737W        W65618  20.239  22.519  12.502
95738W        W65619  39.389  22.602  12.436
95739W        W65620  10.865  26.648   9.946
95740W        W65621  25.110   2.450   1.912
95741W        W65622  11.795  41.314  13.033
95742W        W65623   7.869  31.140   4.675
95743W        W65624  32.132  24.185   4.835
95744W        W65625  27.101  24.008  13.452
95745W        W65626  22.713  13.716  14.383
95746W        W65627  43.458  16.175   0.252
95747W        W65628   5.787  44.446   1.713
95748W        W65629  21.586  35.576  14.460
95749W        W65630   8.210  41.786   3.251
95750W        W65631   2.748  27.045  13.973
95751W        W65632  19.111  21.074   2.717
95752W        W65633   5.217  35.872   4.731
95753W        W65634  33.432  10.144  10.136
95754W        W65635  13.741  15.690   4.774
95755W        W65636  32.129  34.917   4.329
95756W        W65637  33.492   7.731  14.823
95757W        W65638  21.675  25.712  11.908
95758W        W65639  38.337   8.259   1.274
95759W        W65640  43.289  26.022  12.897
95760W        W65641   0.743  35.081  12.552
95761W        W65642  18.285  31.434  12.520
95762W        W65643   7.881  33.476  14.802
95763W        W65644  28.121  21.073  10.142
95764W        W65645   3.892  18.625   2.216
95765W        W65646  11.233  15.697  13.895
95766W        W65647  20.067  23.084  11.118
95767W        W65648  10.189  21.558  10.600
95768W        W65649  44.368   7.401   4.771
95769W        W65650  18.722  31.460  13.858
95770W        W65651  10.331  19.187  12.376
95771W        W65652   0.438   7.359  14.286
95772W        W65653  27.035  38.536   0.817
95773W        W65654  11.366  25.706  13.387
95774W        W65655  12.849  14.095  12.992
95775W        W65656  25.962  32.399   4.780
95776W        W65657  10.166  36.507  12.974
95777W        W65658  23.203  16.766  10.097
95778W        W65659  32.513  38.478   2.699
95779W        W65660  35.436   7.220   0.897
95780W        W65661  10.379  33.061   0.469
95781W        W65662  17.701  32.043  12.858
95782W        W65663  38.381  21.028   1.916
95783W        W65664   2.313  35.371  14.306
95784W        W65665  23.573  20.130   4.271
95785W        W65666  33.624  21.032  12.546
95786W        W65667   3.873  25.024  12.981
95787W        W65668  10.345  18.752   5.214
95788W        W65669  37.369  16.662   1.335
95789W        W65670   8.782  40.959   2.722
95790W        W65671   3.923  39.833  14.274
95791W        W65672  11.678  39.458   1.870
95792W        W65673   4.425  19.212  13.825
95793W        W65674  34.959   0.434  14.482
95794W        W65675  35.601  39.435   0.253
95795W        W65676   7.718  24.103  11.029
95796W        W65677   3.400  26.549  11.474
95797W        W65678  12.146  20.692  14.762
95798W        W65679  34.964   7.336   1.227
95799W        W65680  13.784  33.102   0.854
95800W        W65681  37.872  19.763  12.953
95801W        W65682  34.887  31.968  12.520
95802W        W65683  22.653  29.043  11.071
95803W        W65684   5.294  41.401   3.150
95804W        W65685  37.360  14.680  12.088
95805W        W65686  14.644  35.007  12.466
95806W        W65687  10.210  29.025  11.465
95807W        W65688  35.013  36.908   3.195
95808W        W65689  11.222  38.326   4.766
95809W        W65690  11.838  25.089  10.644
95810W        W65691  16.729  32.063   3.220
95811W        W65692  29.104   4.402  10.525
95812W        W65693  25.005   7.238  11.915
95813W        W65694  39.515  31.085   0.953
95814W        W65695  22.599  20.623  11.441
95815W        W65696  24.635  35.963  12.938
95816W        W65697  20.648  33.447   2.182
95817W        W65698  36.896  26.006  13.404
95818W        W65699  33.016  36.998  11.976
95819W        W65700   1.330  11.339  11.465
95820W        W65701   0.418  39.416  11.034
95821W        W65702  37.000  24.045  11.371
95822W        W65703  43.985   8.364  13.459
95823W        W65704  12.785  39.392   2.210
95824W        W65705  15.603  37.442  13.985
95825W        W65706  18.250  37.377  14.999
95826W        W65707  17.792  11.348   1.785
95827W        W65708  39.850  17.780   3.788
95828W        W65709  11.645   1.257  10.606
95829W        W65710  24.511  10.340   0.872
95830W        W65711  24.997   0.785  11.554
95831W        W65712  42.843   7.204  13.347
95832W        W65713  21.550  36.401  12.056
95833W        W65714  14.299  10.184   4.211
95834W        W65715  29.070  18.762   3.871
95835W        W65716  27.034  29.536   4.759
95836W        W65717  18.739  44.010   2.764
95837W        W65718  21.045  42.823   3.732
95838W        W65719  19.679  23.985   0.478
95839W        W65720  12.305  34.515  14.284
95840W        W65721  37.484  14.766  11.050
95841W        W65722  17.760  21.258   4.213
95842W        W65723   9.223   4.729  13.796
95843W        W65724  10.756   9.355  11.037
95844W        W65725   8.880   0.985   2.400
95845W        W65726  11.271   7.801   0.924
95846W        W65727  27.046  28.045   4.319
95847W        W65728  10.170  36.400   0.741
95848W        W65729  43.836   9.366   0.426
95849W        W65730  16.594   3.891   0.779
95850W        W65731  12.731   0.869  11.574
95851W        W65732  36.074   5.885  11.484
95852W        W65733  22.218   1.409   5.765
95853W        W65734  39.016  11.280  14.981
95854W        W65735  10.785  26.060  11.041
95855W        W65736  23.117   7.689  14.016
95856W        W65737  39.011  16.727   0.892
95857W        W65738  30.988   5.836   1.420
95858W        W65739   2.423  23.193   2.760
95859W        W65740   0.488   3.762   0.944
95860W        W65741   3.895  20.151   1.744
95861W        W65742  39.558  22.725   3.198
95862W        W65743  29.427  32.031   0.296
95863W        W65744  16.635   9.647  12.485
95864W        W65745   3.412  32.996   3.800
95865W        W65746   5.793  11.183  11.489
95866W        W65747  39.388  39.046   2.288
95867W        W65748  40.893  24.022   3.793
95868W        W65749   7.229  25.173  10.502
95869W        W65750  34.484  41.529  13.481
95870W        W65751  30.556   8.829   3.225
95871W        W65752  40.908   3.827   0.271
95872W        W65753  23.716  10.795   1.857
95873W        W65754   3.831  40.453  11.409
95874W        W65755   8.231  16.736   1.438
95875W        W65756  15.718  27.991   1.332
95876W        W65757  39.554  19.241  13.909
95877W        W65758  10.211  31.030   0.951
95878W        W65759  33.488  40.339   2.248
95879W        W65760  24.066  15.233  14.955
95880W        W65761  30.532  21.067   0.267
95881W        W65762  27.452  42.419   3.331
95882W        W65763   1.890  25.519   0.396
95883W        W65764  26.562  29.558   3.169
95884W        W65765  16.746  17.176   2.733
95885W        W65766  35.003  27.980   2.356
95886W        W65767  13.794  32.527  11.458
95887W        W65768  25.177  44.288   0.845
95888W        W65769  10.704  14.226  13.045
95889W        W65770   5.368  32.100   4.151
95890W        W65771  11.698  36.856  14.904
95891W        W65772   0.899   3.405  13.371
95892W        W65773   5.266  27.596   4.601
95893W        W65774  17.641  44.363  12.518
95894W        W65775  39.969  31.903   1.900
95895W        W65776  23.601   0.944   0.874
95896W        W65777  19.715  22.146  13.012
95897W        W65778  23.533  12.334   3.202
95898W        W65779  41.800  40.387  13.045
95899W        W65780  15.708   4.719   5.115
95900W        W65781  24.026  37.560   4.115
95901W        W65782   3.829  22.136   1.843
95902W        W65783  15.635  16.263  13.796
95903W        W65784   1.411  36.063   0.858
95904W        W65785  16.269  28.540   3.774
95905W        W65786  17.099   1.441  11.582
95906W        W65787  21.221   5.895   0.947
95907W        W65788   7.873   4.380  14.511
95908W        W65789  11.684  28.984   2.820
95909W        W65790  18.682   2.840   1.700
95910W        W65791  39.441  20.646  13.425
95911W        W65792  31.989   0.332   2.401
95912W        W65793  27.683   3.712   2.221
95913W        W65794  39.898  23.639  12.417
95914W        W65795  18.189  43.902  11.901
95915W        W65796  33.065  43.420  13.398
95916W        W65797  44.261   4.745  11.953
95917W        W65798  35.970   8.208   4.737
95918W        W65799  39.862   7.238   0.246
95919W        W65800  40.979  28.460  13.867
95920W        W65801  39.912  25.007   3.383
95921W        W65802  29.532   9.274  14.920
95922W        W65803  27.617  38.979  12.830
95923W        W65804  40.810  26.574  14.312
95924W        W65805  33.478   0.906   4.650
95925W        W65806  27.547  15.283  10.893
95926W        W65807   4.395  26.660   2.685
95927W        W65808  15.724  37.974   4.763
95928W        W65809  32.083  38.567  14.279
95929W        W65810  31.941  29.105  12.378
95930W        W65811  33.419  23.515  11.513
95931W        W65812  23.056   0.959   0.747
95932W        W65813  21.645  12.767   0.807
95933W        W65814   8.796  20.242   4.787
95934W        W65815   0.805  26.570  13.829
95935W        W65816  38.077  37.406  11.056
95936W        W65817  40.478  32.577  14.802
95937W        W65818  43.388  42.898  12.379
95938W        W65819  17.303  21.093   1.731
95939W        W65820  17.128   5.399  10.450
95940W        W65821  39.024  33.952   1.347
95941W        W65822  26.615  18.178  12.566
95942W        W65823  32.508   7.317  10.512
95943W        W65824  41.816  12.150   1.312
95944W        W65825  24.522  16.105  12.961
95945W        W65826  16.757  36.436  11.903
95946W        W65827  15.158   0.492  14.944
95947W        W65828   7.772  23.661   1.915
95948W        W65829   4.287  27.950   4.221
95949W        W65830  44.293  26.104  11.894
95950W        W65831  10.681  11.310  12.073
95951W        W65832  24.680  43.469  13.836
95952W        W65833  30.103  19.757  10.438
95953W        W65834  10.763  30.541   2.778
95954W        W65835  26.686   1.732   2.257
95955W        W65836  33.461   7.410   4.188
95956W        W65837  43.290   3.883  13.801
95957W        W65838  10.759   6.890  11.544
95958W        W65839  28.039  11.250  10.445
95959W        W65840  13.727   8.758   3.251
95960W        W65841  44.947   5.249   1.767
95961W        W65842   8.266   6.769  12.480
95962W        W65843   0.986  25.628  10.897
95963W        W65844  36.446  24.507  14.430
95964W        W65845  40.378  41.973  14.000
95965W        W65846  24.723   0.376   3.250
95966W        W65847   9.277   3.877   0.279
95967W        W65848  28.549  22.026  11.118
95968W        W65849  39.443  14.754   1.764
95969W        W65850  43.284  16.604  13.412
95970W        W65851   8.226  34.408  11.525
95971W        W65852  33.459  31.941  10.970
95972W        W65853  32.487  36.380  14.489
95973W        W65854  29.606  38.951  12.868
95974W        W65855  37.837  12.751  10.457
95975W        W65856  26.692  20.230   1.728
95976W        W65857  40.497  23.638   0.348
95977W        W65858  28.165  20.683  12.065
95978W        W65859  31.039   7.395  13.947
95979W        W65860  26.150   3.378  14.975
95980W        W65861  42.462  18.058   3.755
95981W        W65862   3.327  30.439   3.797
95982W        W65863   5.323  31.927   3.778
95983W        W65864  10.699  38.059   3.793
95984W        W65865  30.012   9.825  12.921
95985W        W65866  40.849   5.866   4.145
95986W        W65867  37.416  14.269   9.978
95987W        W65868   9.195  44.762   2.863
95988W        W65869   8.343  29.459   3.754
95989W        W65870   7.804  21.538  12.487
95990W        W65871  43.277  39.898  10.579
95991W        W65872  14.645  29.973  13.365
95992W        W65873  27.035  18.089   0.799
95993W        W65874  24.672  43.508   0.735
95994W        W65875   8.845  35.896   4.121
95995W        W65876  17.743  36.421  11.945
95996W        W65877   6.726  15.212   4.324
95997W        W65878  41.819  23.542   0.247
95998W        W65879  34.518  34.083  12.499
95999W        W65880  18.249  30.977  13.416
96000W        W65881  29.431  24.013  12.443
96001W        W65882  33.421   4.294   3.232
96002W        W65883  32.485  23.074  14.388
96003W        W65884  18.663  24.981  12.519
96004W        W65885   9.826  39.506  11.499
96005W        W65886   8.718   1.462   3.189
96006W        W65887  19.161   1.473  13.966
96007W        W65888  17.225  16.744   1.812
96008W        W65889  16.807   9.376  10.631
96009W        W65890  43.418  26.160  13.507
96010W        W65891  17.717   9.208   0.246
96011W        W65892  22.147  44.779  14.797
96012W        W65893  16.763  19.233   2.689
96013W        W65894  10.261  29.601   3.690
96014W        W65895  16.263  39.051   5.290
96015W        W65896  18.712  13.154  11.387
96016W        W65897  35.394  34.910   1.844
96017W        W65898  35.482  31.925  10.564
96018W        W65899  32.097  44.823  12.557
96019W        W65900  36.507  32.930   3.733
96020W        W65901  26.593  11.212  13.911
96021W        W65902   0.813  31.124  10.509
96022W        W65903  12.146  22.235  13.379
96023W        W65904  24.189  42.844   3.858
96024W        W65905  32.525  19.722   4.697
96025W        W65906   6.415  14.205  14.830
96026W        W65907   0.254  20.232  14.342
96027W        W65908  11.662  31.010   1.868
96028W        W65909  26.483  25.025  11.607
96029W        W65910   0.976   9.855   2.809
96030W        W65911  10.706  42.368  14.992
96031W        W65912   0.861  42.413  10.476
96032W        W65913  34.999  14.793  13.814
96033W        W65914  14.310  17.668   1.345
96034W        W65915  22.127  42.889  13.338
96035W        W65916  43.388  18.701  11.873
96036W        W65917  42.507  44.931   3.754
96037W        W65918  36.058  22.039  13.454
96038W        W65919  32.015  12.153   4.267
96039W        W65920   2.400  32.009   0.792
96040W        W65921   7.270  27.545   2.665
96041W        W65922  34.962  15.788  13.546
96042W        W65923  36.855  16.277  11.481
96043W        W65924   1.792  35.555   2.744
96044W        W65925  12.642  38.970  10.079
96045W        W65926  16.632   1.292  11.493
96046W        W65927  25.139  30.948   4.133
96047W        W65928  33.951  36.092  11.549
96048W        W65929  41.510  22.541  12.866
96049W        W65930   4.797  18.619  12.408
96050W        W65931  27.648  15.131   0.434
96051W        W65932  21.680  40.521   3.279
96052W        W65933  33.524   2.269  13.951
96053W        W65934  43.272  37.894   4.656
96054W        W65935  19.630  38.333  11.125
96055W        W65936  13.832  28.082   1.829
96056W        W65937  19.665  20.697   3.167
96057W        W65938  32.896   7.252   3.367
96058W        W65939  41.836   8.279   1.749
96059W        W65940  31.988  25.962  14.280
96060W        W65941  39.974  26.546  10.931
96061W        W65942   7.680  15.113   0.813
96062W        W65943  20.062  12.360   1.718
96063W        W65944   3.785   8.658   4.613
96064W        W65945  23.036   2.899   1.816
96065W        W65946  44.858  23.050  13.403
96066W        W65947  39.379  16.200   4.269
96067W        W65948  12.191   6.229   0.275
96068W        W65949  14.170  44.284   2.781
96069W        W65950  30.517   9.878  13.488
96070W        W65951  38.002  15.200  12.843
96071W        W65952  14.681  36.848   0.251
96072W        W65953  42.826  15.187  10.525
96073W        W65954   5.262  30.908  11.455
96074W        W65955  10.208  18.105   5.615
96075W        W65956   0.863   0.313   4.178
96076W        W65957   7.824  25.699  12.847
96077W        W65958  35.072  26.527  14.319
96078W        W65959   0.292  24.073   2.252
96079W        W65960  29.540  25.680  13.407
96080W        W65961  41.939  10.365  13.025
96081W        W65962  28.578  25.586   1.414
96082W        W65963  24.077  36.940   0.434
96083W        W65964  12.264   2.955   3.325
96084W        W65965  37.071  41.359   2.196
96085W        W65966  16.767  25.184   2.253
96086W        W65967   7.259   3.401  12.987
96087W        W65968  38.374  27.066   4.291
96088W        W65969  29.444  34.379   1.912
96089W        W65970   3.317  38.451   0.468
96090W        W65971  35.932  13.728  11.904
96091W        W65972  22.617  24.133   0.756
96092W        W65973  21.097  44.815  14.338
96093W        W65974   2.731  21.568   2.213
96094W        W65975  33.529  39.451   2.345
96095W        W65976  43.445  27.651  14.896
96096W        W65977  17.140  24.054  14.467
96097W        W65978  22.206  40.841  14.015
96098W        W65979   6.746  42.823   2.202
96099W        W65980   3.234   8.356  11.865
96100W        W65981   5.258  40.037   2.791
96101W        W65982  24.980   2.457   4.337
96102W        W65983  12.615   0.385  12.017
96103W        W65984  23.022  12.631  14.320
96104W        W65985  26.510  21.705   3.306
96105W        W65986  10.787  22.056  13.355
96106W        W65987  42.918  14.271  13.811
96107W        W65988  21.575  20.260  12.886
96108W        W65989   8.298   0.867  10.967
96109W        W65990  40.831  31.947   3.812
96110W        W65991  40.340  14.747   0.744
96111W        W65992  22.575  24.124  11.528
96112W        W65993   5.235  42.308  11.409
96113W        W65994  44.920  11.685  10.116
96114W        W65995   2.854  10.801   1.924
96115W        W65996  31.617  15.772   5.116
96116W        W65997  44.371  28.107   3.297
96117W        W65998  29.653  36.419  10.574
96118W        W65999   9.652  33.904  14.760
96119W        W66000  31.614  32.393  12.953
96120W        W66001  15.691  13.734   2.668
96121W        W66002  27.982  27.593  14.499
96122W        W66003  40.460  20.092  12.982
96123W        W66004   9.730   0.338  14.971
96124W        W66005  12.744  41.983  10.463
96125W        W66006  28.184   8.844   2.230
96126W        W66007  18.142  22.026   3.348
96127W        W66008  10.732  24.556   1.402
96128W        W66009  28.015  23.673   4.764
96129W        W66010  23.702  35.063  12.824
96130W        W66011  39.917   9.249   0.456
96131W        W66012  23.664   9.854  12.887
96132W        W66013  17.615  16.149  14.315
96133W        W66014  19.675  21.599   1.329
96134W        W66015  37.063   1.435   4.681
96135W        W66016  22.647  22.207   1.306
96136W        W66017  24.529  10.735   4.600
96137W        W66018  27.491   0.319  13.346
96138W        W66019  29.129  11.864  12.482
96139W        W66020  35.974  44.777  12.854
96140W        W66021  17.145  31.152   0.457
96141W        W66022  19.233  41.981   1.813
96142W        W66023  35.070  34.112   3.199
96143W        W66024  30.524  42.898  14.275
96144W        W66025  10.313  32.453  11.879
96145W        W66026  20.057  36.440   4.658
96146W        W66027  10.825  16.777  10.896
96147W        W66028  15.326  14.814   4.201
96148W        W66029  22.549  18.641   1.761
96149W        W66030  22.548  34.911  14.773
96150W        W66031   4.341  38.976   0.792
96151W        W66032   6.193  14.151  11.029
96152W        W66033   6.748   9.669  11.518
96153W        W66034  29.075  18.659  11.603
96154W        W66035   7.403  20.565   4.600
96155W        W66036  31.913  11.331  13.884
96156W        W66037  23.531  33.071   1.897
96157W        W66038  11.308  15.097  13.988
96158W        W66039  13.199  36.457  11.419
96159W        W66040  26.619  44.403   1.793
96160W        W66041   4.259   6.772  11.067
96161W        W66042  29.534   9.278  12.029
96162W        W66043  43.389   5.235   4.147
96163W        W66044  11.128  40.943  13.484
96164W        W66045  17.195  25.138   3.731
96165W        W66046   5.898   8.888  12.514
96166W        W66047  44.850  25.606   0.891
96167W        W66048  34.472  14.792   3.751
96168W        W66049  13.679  36.464  13.426
96169W        W66050  29.606   1.382  14.891
96170W        W66051   0.366  25.562   0.736
96171W        W66052  10.681   3.264  12.343
96172W        W66053   3.902  41.912  10.628
96173W        W66054  13.342  25.482  14.868
96174W        W66055  43.454  15.625   2.784
96175W        W66056  19.627  10.849   4.268
96176W        W66057  41.941  20.638   1.882
96177W        W66058  19.207  10.280   2.345
96178W        W66059  14.330  13.332  13.984
96179W        W66060   6.708  10.702  10.466
96180W        W66061  12.235   6.320  10.574
96181W        W66062  28.611  10.198  14.434
96182W        W66063  21.238  36.057  11.391
96183W        W66064  13.222  25.694   1.911
96184W        W66065  36.361  40.810   4.314
96185W        W66066  17.755  42.514  14.330
96186W        W66067  38.954   8.685   2.251
96187W        W66068  38.997   2.240   1.357
96188W        W66069  15.624  19.607   0.736
96189W        W66070   7.689  37.943  13.471
96190W        W66071   9.654  30.587  11.088
96191W        W66072  11.227  24.037  10.464
96192W        W66073  41.032  24.572  11.562
96193W        W66074  27.651  34.116  12.370
96194W        W66075   6.334  41.871  11.597
96195W        W66076  16.237   1.740   1.405
96196W        W66077  32.070  17.623  13.480
96197W        W66078  31.012  13.191   0.305
96198W        W66079   0.354  42.908  12.856
96199W        W66080  24.125   7.297   2.695
96200W        W66081  32.581   1.734   1.851
96201W        W66082   3.261  11.303  11.971
96202W        W66083  11.236  18.232  11.115
96203W        W66084  16.162  41.900   2.814
96204W        W66085  14.099  44.500  10.937
96205W        W66086  40.902  27.089   0.728
96206W        W66087   1.953  25.633  12.001
96207W        W66088  17.217   9.792  10.888
96208W        W66089   0.466  36.424  12.836
96209W        W66090  30.625   8.343  12.090
96210W        W66091  37.571  13.330   1.384
96211W        W66092  38.027  13.136  11.463
96212W        W66093  35.929  33.109  12.482
96213W        W66094  26.166  19.682   2.330
96214W        W66095  44.325  35.580  11.999
96215W        W66096  17.076  21.091   9.930
96216W        W66097   6.834  32.046  13.845
96217W        W66098   0.742  33.131  10.523
96218W        W66099   7.341  34.387   4.694
96219W        W66100  18.563   9.763   4.174
96220W        W66101  23.531  36.563   0.835
96221W        W66102  30.500  37.512  13.328
96222W        W66103  44.412  12.200   4.764
96223W        W66104  15.683   1.801  11.992
96224W        W66105   7.185  37.489  12.486
96225W        W66106   2.441  29.571   2.691
96226W        W66107  33.561  18.106   3.793
96227W        W66108  35.997   9.389  14.842
96228W        W66109  42.301  23.545   2.902
96229W        W66110  16.159   1.897  12.987
96230W        W66111  39.344   6.698   0.814
96231W        W66112  19.599  20.648   4.258
96232W        W66113  36.389  36.860  12.839
96233W        W66114  42.447  18.655  14.485
96234W        W66115  26.604  36.456   0.729
96235W        W66116  42.916   6.691  12.484
96236W        W66117   1.835  24.537   1.217
96237W        W66118  15.210   2.748   2.801
96238W        W66119  36.961  37.456   3.149
96239W        W66120  16.810  29.068   1.341
96240W        W66121  27.156   4.793  14.466
96241W        W66122  40.469  29.032  13.940
96242W        W66123   4.698  18.153  13.877
96243W        W66124  42.031   1.327  12.045
96244W        W66125  29.133   8.324  12.999
96245W        W66126   3.897  44.899   4.263
96246W        W66127  44.458  10.151  10.995
96247W        W66128  41.529  31.601   3.199
96248W        W66129   3.902  42.355  11.540
96249W        W66130  24.675   4.430  14.842
96250W        W66131  17.659  39.820  10.548
96251W        W66132  26.636  28.615  13.856
96252W        W66133  17.118  22.632   0.306
96253W        W66134  15.770  25.595   0.826
96254W        W66135   6.716   6.240   1.245
96255W        W66136  33.121   3.834  11.950
96256W        W66137  42.810  19.604   3.248
96257W        W66138   5.888  38.886  11.384
96258W        W66139  33.540   5.433  14.875
96259W        W66140  36.526  41.526   1.223
96260W        W66141  19.280  26.572   3.697
96261W        W66142  27.060   6.404  12.370
96262W        W66143  25.982  16.184  14.305
96263W        W66144  14.767  39.998   0.745
96264W        W66145   7.405  13.712  11.424
96265W        W66146  35.436  15.762   0.359
96266W        W66147  35.086   3.840   4.619
96267W        W66148  28.627  41.341  12.520
96268W        W66149  30.090  42.902   1.301
96269W        W66150  10.852   5.345   4.118
96270W        W66151  40.888   8.346   4.236
96271W        W66152   6.279  39.416   3.191
96272W        W66153  37.831  11.811  12.967
96273W        W66154  13.658  33.390  12.840
96274W        W66155   7.907  15.635   2.874
96275W        W66156  23.540  42.877  14.475
96276W        W66157   0.306  40.333   4.346
96277W        W66158   8.808   6.318   1.314
96278W        W66159  38.064  15.096  13.852
96279W        W66160   1.384   4.826  14.441
96280W        W66161  12.289  21.055  12.469
96281W        W66162   9.773  34.453  12.519
96282W        W66163   7.803  21.612  13.810
96283W        W66164  43.899   7.747   1.734
96284W        W66165  41.346  23.710   1.262
96285W        W66166  10.289  24.674   3.294
96286W        W66167   5.419  35.466  10.595
96287W        W66168  28.043   2.347   4.300
96288W        W66169  15.814  26.072   4.631
96289W        W66170   5.879  23.524  14.405
96290W        W66171   6.837  21.680  11.907
96291W        W66172  39.854  42.345  11.021
96292W        W66173  36.983   2.935  13.539
96293W        W66174  25.969  42.839   4.121
96294W        W66175  42.889   7.344  11.861
96295W        W66176  21.525  42.320   0.908
96296W        W66177   0.822  11.353  14.952
96297W        W66178  30.000   2.284  12.967
96298W        W66179  43.996  10.730  14.476
96299W        W66180  32.058  12.168  11.535
96300W        W66181   5.892  12.659  11.540
96301W        W66182  27.959  15.120  12.932
96302W        W66183  13.343  34.022   0.764
96303W        W66184  29.472  25.555   3.382
96304W        W66185  39.379  31.554  11.085
96305W        W66186  21.040   2.844   0.287
96306W        W66187  37.413  19.257  14.996
96307W        W66188  20.582  13.350   0.763
96308W        W66189  28.520  13.684  13.856
96309W        W66190  34.907  10.325   2.790
96310W        W66191   1.483  10.797   0.908
96311W        W66192   9.645  44.883   3.285
96312W        W66193  21.045  42.305  14.489
96313W        W66194  18.084  27.479  12.405
96314W        W66195  20.052   3.950   1.429
96315W        W66196  26.954  33.096   4.637
96316W        W66197   6.303  42.382   1.397
96317W        W66198   0.860  35.877   5.272
96318W        W66199  42.884  24.987   1.311
96319W        W66200   4.220  25.694   4.264
96320W        W66201   0.850  27.539   1.215
96321W        W66202  32.557   2.304   1.841
96322W        W66203   3.312  37.914  13.993
96323W        W66204  27.186  26.462   3.232
96324W        W66205  26.477  14.203  11.053
96325W        W66206  30.078  39.496  12.443
96326W        W66207   5.304  21.132  12.348
96327W        W66208  24.568  33.057   0.826
96328W        W66209  12.636  26.491   2.379
96329W        W66210  24.192  22.721   0.243
96330W        W66211  25.024  34.003   4.321
96331W        W66212  37.837  21.617   0.964
96332W        W66213  39.853  12.158   2.308
96333W        W66214  33.013   2.794   1.726
96334W        W66215  43.459  20.531   3.681
96335W        W66216  31.943  27.155  10.460
96336W        W66217  28.674  34.066   0.275
96337W        W66218  36.592  11.656   4.674
96338W        W66219  15.637  23.605   1.396
96339W        W66220  24.587   9.799  12.037
96340W        W66221  17.749  27.519  14.319
96341W        W66222   3.288  30.595   2.843
96342W        W66223   6.306   8.845  13.373
96343W        W66224  16.311  36.489   0.930
96344W        W66225   2.329  42.777   1.405
96345W        W66226  11.160  23.209   3.152
96346W        W66227  21.028  13.322  14.996
96347W        W66228  10.862  31.946   4.258
96348W        W66229   5.194  27.998   2.417
96349W        W66230  15.269  44.785   4.234
96350W        W66231   4.261  25.133  13.330
96351W        W66232  44.426  12.293  12.556
96352W        W66233   2.837  27.488  11.969
96353W        W66234   8.791  12.805  10.110
96354W        W66235  19.581  12.174  12.961
96355W        W66236   5.888  43.338  11.530
96356W        W66237  34.576  32.431  12.487
96357W        W66238  30.627   3.921   0.318
96358W        W66239  24.989  18.691  12.434
96359W        W66240   4.701  17.793   3.146
96360W        W66241  25.530   6.258  14.448
96361W        W66242  30.536  35.956  13.912
96362W        W66243  26.151  34.079   2.804
96363W        W66244  24.596  43.842   4.133
96364W        W66245  20.729  15.205   4.726
96365W        W66246  34.402   7.819   2.709
96366W        W66247   0.793  35.418   2.253
96367W        W66248  11.819  27.146  12.866
96368W        W66249   5.399  37.539  13.402
96369W        W66250  19.241   7.889   4.353
96370W        W66251   8.319  15.727  11.911
96371W        W66252  29.130   8.874  12.056
96372W        W66253   9.293  42.325  14.009
96373W        W66254   2.350  26.143   2.851
96374W        W66255  34.114  13.241   1.274
96375W        W66256  21.671  18.566  13.005
96376W        W66257  10.808  29.488  12.005
96377W        W66258  26.961  29.473  13.491
96378W        W66259  34.042  37.437  13.817
96379W        W66260  21.177  24.569   2.869
96380W        W66261  17.590  12.728  13.317
96381W        W66262  19.051  42.432  12.570
96382W        W66263  14.693  34.422   1.861
96383W        W66264   4.876  37.992  13.058
96384W        W66265  10.740  15.588  14.831
96385W        W66266  21.603  16.707  13.813
96386W        W66267  37.917  33.538   0.447
96387W        W66268  32.614  24.689  14.468
96388W        W66269  31.022  40.343   4.227
96389W        W66270  22.728   7.391   9.932
96390W        W66271  36.872   5.806  10.960
96391W        W66272  40.534  31.493  14.774
96392W        W66273  40.365  10.788  13.382
96393W        W66274  16.136   4.447   0.256
96394W        W66275  26.458  16.608   5.234
96395W        W66276  23.618   8.768   3.719
96396W        W66277  33.969  35.034   2.845
96397W        W66278   0.412  34.603   1.915
96398W        W66279   3.290  30.524  10.001
96399W        W66280   7.247  26.688  14.443
96400W        W66281  25.540  26.528   4.282
96401W        W66282   3.919   6.206   2.841
96402W        W66283  23.191  21.063  13.407
96403W        W66284  42.402   0.418  12.474
96404W        W66285  38.327   0.428   0.385
96405W        W66286  27.972  32.433  11.411
96406W        W66287  43.416  43.013  12.053
96407W        W66288  43.508  29.508  13.533
96408W        W66289  35.957  35.919   0.910
96409W        W66290   8.765  20.029   4.130
96410W        W66291   6.812   0.359   2.850
96411W        W66292  34.605  40.454   4.159
96412W        W66293  15.752  32.020   3.373
96413W        W66294   3.810   6.849   2.337
96414W        W66295  13.685   5.269  13.001
96415W        W66296   3.853  30.041   1.415
96416W        W66297  18.132   9.786   1.238
96417W        W66298  34.414  12.676   0.846
96418W        W66299  13.129  17.640  13.314
96419W        W66300   7.735  34.602   4.254
96420W        W66301  10.140  12.795   2.224
96421W        W66302  18.590   5.325  12.451
96422W        W66303   4.313  24.147   1.238
96423W        W66304  13.643  35.455  11.523
96424W        W66305  16.601  17.101  12.437
96425W        W66306   6.689   9.679   1.773
96426W        W66307  37.471  40.867   4.290
96427W        W66308  16.793   7.252  11.869
96428W        W66309  14.266  12.125  12.948
96429W        W66310   0.868  42.962   4.655
96430W        W66311  13.690  20.733  12.341
96431W        W66312  30.438  11.738  14.834
96432W        W66313  21.749  44.287   5.665
96433W        W66314  10.292   7.256   3.251
96434W        W66315  41.504  20.636  14.971
96435W        W66316  19.062  12.235  10.499
96436W        W66317  24.193  32.589  14.438
96437W        W66318  30.985  23.609  14.455
96438W        W66319  32.471   6.417   0.729
96439W        W66320  44.438  11.370  12.929
96440W        W66321  38.012  44.986   5.260
96441W        W66322   0.425  26.580  14.986
96442W        W66323   9.741   3.395  11.994
96443W        W66324  19.252  24.146  13.879
96444W        W66325  16.210  21.250  12.912
96445W        W66326   1.466  35.853  13.837
96446W        W66327  29.498  10.281  14.921
96447W        W66328  40.311  42.858   3.189
96448W        W66329  15.742  28.623   2.207
96449W        W66330  24.058   6.725   0.350
96450W        W66331  25.000  13.123  13.338
96451W        W66332   2.807   8.322  13.434
96452W        W66333  18.775  42.913   3.240
96453W        W66334  33.395   3.397  14.955
96454W        W66335  13.336  32.071   0.794
96455W        W66336  28.470  22.584   3.728
96456W        W66337   7.392  11.810   0.878
96457W        W66338   9.242   4.749   4.117
96458W        W66339  43.492  34.031   3.339
96459W        W66340  30.623  30.958  11.439
96460W        W66341  16.190   0.273  11.046
96461W        W66342   4.791  13.270  13.424
96462W        W66343  38.015  44.964   4.274
96463W        W66344  28.502  24.569   1.797
96464W        W66345  43.315  28.557  13.356
96465W        W66346   0.982   7.310   0.365
96466W        W66347   7.246   4.406  10.429
96467W        W66348  33.936  33.616  14.284
96468W        W66349   8.884  33.989   3.762
96469W        W66350  29.610   9.691   2.386
96470W        W66351   6.810   5.412  13.543
96471W        W66352  20.557  21.546  14.454
96472W        W66353  25.537  35.866  14.430
96473W        W66354   6.331  42.521   4.190
96474W        W66355  16.588  40.396   2.767
96475W        W66356  39.331  35.381   1.276
96476W        W66357  23.687  29.071   0.479
96477W        W66358   4.282  40.824  10.469
96478W        W66359  19.102  17.771  13.926
96479W        W66360   4.236   0.743   2.295
96480W        W66361  30.126  10.648   3.654
96481W        W66362   4.824   3.720  12.366
96482W        W66363   2.235  21.221   4.142
96483W        W66364  37.356  32.564   1.794
96484W        W66365  10.236  29.533  14.385
96485W        W66366   7.739  19.709  12.456
96486W        W66367   0.888  14.264   0.796
96487W        W66368   4.706   3.339   1.440
96488W        W66369   4.252  14.253  13.030
96489W        W66370   6.677  24.124  12.498
96490W        W66371  26.479   1.771  10.615
96491W        W66372  18.558  11.367  12.061
96492W        W66373  10.645  36.497  14.320
96493W        W66374  31.626  31.407   1.408
96494W        W66375  34.390  16.220  14.376
96495W        W66376  42.376  39.001   4.683
96496W        W66377  21.742  16.643  14.281
96497W        W66378   8.323  32.053   0.273
96498W        W66379  27.007  13.789  11.111
96499W        W66380   6.790  29.607  12.867
96500W        W66381  18.196  23.193  13.934
96501W        W66382  12.836  35.510  12.578
96502W        W66383  42.935  16.709   3.665
96503W        W66384  11.275   3.924   4.783
96504W        W66385  41.502  32.424  13.365
96505W        W66386  13.694   6.809   1.770
96506W        W66387  33.090  14.609  11.039
96507W        W66388  34.962  44.774  13.816
96508W        W66389  25.102  13.645  10.534
96509W        W66390   3.449   3.403   3.802
96510W        W66391  30.084  10.258   1.296
96511W        W66392   4.444  41.871   3.348
96512W        W66393  43.926   4.392   3.227
96513W        W66394   3.357  17.652  14.831
96514W        W66395  22.547  14.163   5.206
96515W        W66396  19.636  34.060  11.410
96516W        W66397  36.902   1.907   0.372
96517W        W66398  29.093  41.463   4.323
96518W        W66399   2.767   7.307   4.711
96519W        W66400   7.797   6.181  11.877
96520W        W66401  30.919  41.406   0.263
96521W        W66402  11.314   8.211   4.663
96522W        W66403  38.440   5.387   3.238
96523W        W66404  26.615  30.577  12.344
96524W        W66405  44.485  39.812   2.712
96525W        W66406  25.045  22.541  12.428
96526W        W66407  29.552  19.563  14.455
96527W        W66408  13.301  30.573  11.919
96528W        W66409  12.852  31.419  13.863
96529W        W66410  44.978  27.194   0.439
96530W        W66411  19.749  42.938  11.556
96531W        W66412  23.493  40.014  12.357
96532W        W66413  31.018  22.521   3.733
96533W        W66414  36.373  12.206  14.282
96534W        W66415  34.981  20.688   2.292
96535W        W66416   6.192  21.683  12.452
96536W        W66417  44.479  39.426   4.182
96537W        W66418  43.955  31.540   4.258
96538W        W66419  18.742   1.426   4.793
96539W        W66420  17.228  13.717  13.492
96540W        W66421  36.529  21.642   4.634
96541W        W66422   3.908  23.729   1.403
96542W        W66423  18.146   7.400   3.870
96543W        W66424  36.440  27.142   2.404
96544W        W66425   0.779  38.853  11.557
96545W        W66426  23.670  24.583   0.402
96546W        W66427  30.517  19.110   2.851
96547W        W66428  31.449  44.882   2.183
96548W        W66429  12.362  28.042   2.310
96549W        W66430  22.101  23.507  11.859
96550W        W66431  28.170  16.111   4.148
96551W        W66432  12.818   6.739  11.479
96552W        W66433   6.800  42.917  10.436
96553W        W66434  35.939  42.786  10.512
96554W        W66435  43.275  10.763   3.686
96555W        W66436  17.626  22.561   4.288
96556W        W66437  42.948  44.868  10.426
96557W        W66438  37.407  44.421   2.858
96558W        W66439  26.163  40.042  14.470
96559W        W66440  25.127   9.722   2.209
96560W        W66441   1.794   3.738  14.915
96561W        W66442  29.945  27.570  14.812
96562W        W66443  25.069  44.467   3.368
96563W        W66444  16.305  28.142  11.052
96564W        W66445   8.177   1.346   0.276
96565W        W66446  34.041  31.567   1.886
96566W        W66447  26.154  10.310  10.442
96567W        W66448  25.167  15.186  12.068
96568W        W66449  30.569   5.415   0.480
96569W        W66450  17.580  36.883   4.202
96570W        W66451  24.625  38.952   3.374
96571W        W66452  14.599  14.220   2.688
96572W        W66453   3.766  13.199   4.261
96573W        W66454  22.535  14.300  14.814
96574W        W66455  30.012  25.051  11.021
96575W        W66456  40.875  29.119  10.999
96576W        W66457   1.251  14.301  12.905
96577W        W66458   4.430  44.409   0.912
96578W        W66459  38.985  15.132  12.885
96579W        W66460  13.297  19.630  11.538
96580W        W66461  21.632  11.175  11.043
96581W        W66462  13.789  17.765   3.865
96582W        W66463  28.567  20.105   2.193
96583W        W66464  34.010   3.908   0.726
96584W        W66465   8.734  39.851   0.411
96585W        W66466  43.420  44.282   4.784
96586W        W66467  33.460  38.913  11.049
96587W        W66468   9.702   9.371   2.726
96588W        W66469  18.267  43.364   4.822
96589W        W66470  34.995  12.735  10.603
96590W        W66471  44.323   6.349   1.387
96591W        W66472  30.581   6.186  10.587
96592W        W66473  25.713  14.760  11.863
96593W        W66474  12.614   3.874  14.920
96594W        W66475  35.363  33.978  12.824
96595W        W66476  34.459  33.952   3.179
96596W        W66477  22.546   6.309  12.396
96597W        W66478  31.910  26.467  14.765
96598W        W66479  22.049  17.183  12.477
96599W        W66480  31.024  10.274  13.971
96600W        W66481  11.243  24.554   0.328
96601W        W66482  30.939  33.055  10.954
96602W        W66483  12.217  36.573  14.295
96603W        W66484  14.622  24.058   0.296
96604W        W66485  35.382  16.669  11.887
96605W        W66486  15.245   2.288  14.977
96606W        W66487  10.145  12.726  11.087
96607W        W66488  37.498   5.845   1.326
96608W        W66489  21.674  16.285  14.794
96609W        W66490  16.128   6.712  11.458
96610W        W66491  16.773  41.808   3.220
96611W        W66492  27.587  18.146  12.839
96612W        W66493  23.229   5.705   4.694
96613W        W66494  33.392  36.096  13.969
96614W        W66495  37.015   3.948   0.833
96615W        W66496   7.373   8.771   2.374
96616W        W66497  12.854  13.612  10.436
96617W        W66498  41.790  23.209  14.899
96618W        W66499  16.615  16.179  13.870
96619W        W66500  23.009  14.825   4.832
96620W        W66501  44.793  32.585  13.956
96621W        W66502   1.829  44.264  13.843
96622W        W66503  16.610  38.481  12.853
96623W        W66504  15.723  42.328   3.747
96624W        W66505  40.366  18.159  12.470
96625W        W66506  35.407  30.942  14.362
96626W        W66507   4.273  23.615   4.231
96627W        W66508   1.927  38.442  11.435
96628W        W66509  41.013  38.865  13.007
96629W        W66510  41.851   4.450   1.699
96630W        W66511  31.124   6.259  10.499
96631W        W66512  23.206  23.241  11.574
96632W        W66513  44.966  10.207   3.632
96633W        W66514   8.352  28.666   0.839
96634W        W66515  14.102  12.162  11.112
96635W        W66516  31.041  35.599  12.540
96636W        W66517   5.343  20.092   4.173
96637W        W66518  15.222  20.061  13.312
96638W        W66519  31.909  11.128  13.340
96639W        W66520   7.712  15.755  13.376
96640W        W66521  14.251  14.759   1.787
96641W        W66522  30.486  26.534  11.465
96642W        W66523  32.447  18.288   2.774
96643W        W66524  36.048  24.061   1.879
96644W        W66525   1.926  15.720  14.993
96645W        W66526  21.120  10.295   4.262
96646W        W66527  38.343   5.195   4.719
96647W        W66528   6.913  41.516   2.189
96648W        W66529  22.723  42.849  12.932
96649W        W66530   8.233  37.969  12.893
96650W        W66531  25.712  31.005   1.913
96651W        W66532   0.863  34.894   4.802
96652W        W66533  36.493  27.070  14.992
96653W        W66534   2.747   9.738   0.305
96654W        W66535  16.165  30.117  12.851
96655W        W66536  33.093   5.717   0.770
96656W        W66537   6.192  38.917  10.073
96657W        W66538  13.745  25.687  12.855
96658W        W66539  15.814   6.326  10.541
96659W        W66540  43.770  19.136   0.277
96660W        W66541  25.569  33.054   3.325
96661W        W66542  12.229  20.569   2.214
96662W        W66543  11.197  21.243   1.812
96663W        W66544   5.795   8.695  10.951
96664W        W66545   7.242   4.893   1.229
96665W        W66546  29.001  18.630   1.759
96666W        W66547  25.988   5.311   2.356
96667W        W66548  30.638  26.456   5.115
96668W        W66549  41.936  11.622   1.731
96669W        W66550   0.782  13.343  13.536
96670W        W66551   5.368  31.461  11.574
96671W        W66552  28.165  16.683   1.853
96672W        W66553  31.495  39.499  12.526
96673W        W66554  43.845  40.859  14.770
96674W        W66555  34.938  40.956   2.816
96675W        W66556  26.086  20.159  13.932
96676W        W66557  41.872   7.817  10.952
96677W        W66558  20.243   6.914   4.228
96678W        W66559  33.384  27.464   1.326
96679W        W66560  13.288  32.001  11.462
96680W        W66561  11.214  40.006  12.553
96681W        W66562  27.968  24.689   2.398
96682W        W66563  39.466   4.230   2.808
96683W        W66564  12.229  33.396   4.229
96684W        W66565  16.624  16.317  10.463
96685W        W66566   9.683  17.201  12.508
96686W        W66567  33.096  39.559  12.008
96687W        W66568  35.515  15.767  14.330
96688W        W66569  39.032  29.100  11.464
96689W        W66570  43.462   5.292  12.874
96690W        W66571  23.504  29.098   1.313
96691W        W66572  24.218   3.412   2.369
96692W        W66573  35.497  25.642   1.850
96693W        W66574  20.542  23.700  14.791
96694W        W66575  36.554  15.224  10.516
96695W        W66576  41.924   7.202  10.479
96696W        W66577  20.630   4.908  10.550
96697W        W66578   0.874  17.677  10.929
96698W        W66579  36.061  26.525   2.695
96699W        W66580  11.285  37.977  14.882
96700W        W66581   7.684   0.810   2.751
96701W        W66582  15.102  14.687  12.559
96702W        W66583   9.208  38.923   2.291
96703W        W66584  40.033  21.182   0.419
96704W        W66585   0.777  12.198  12.081
96705W        W66586   5.402  11.830  10.410
96706W        W66587  44.846   5.424  10.438
96707W        W66588  42.305  22.576   0.456
96708W        W66589  44.415  34.489  14.433
96709W        W66590  19.710   6.804  14.486
96710W        W66591  28.126  10.765  10.600
96711W        W66592  30.014  23.532  14.283
96712W        W66593  20.200   7.806  14.419
96713W        W66594  40.031  18.620   0.910
96714W        W66595  40.915  24.719   4.755
96715W        W66596  20.709  41.877  11.943
96716W        W66597  28.494  23.182  12.544
96717W        W66598   7.266  28.464  10.481
96718W        W66599   0.305   6.908  12.045
96719W        W66600  36.991  30.563  11.465
96720W        W66601  12.852  36.869   1.834
96721W        W66602  37.581  43.882   4.348
96722W        W66603  22.027  35.968   4.674
96723W        W66604  39.420   2.396   2.901
96724W        W66605  24.159  32.510  13.840
96725W        W66606  43.474  14.631   2.227
96726W        W66607  43.458  10.689   4.330
96727W        W66608  12.256  29.594  14.493
96728W        W66609   2.843  22.571   0.472
96729W        W66610  15.765   1.792  11.545
96730W        W66611  35.870  19.152   3.788
96731W        W66612  16.106  37.526   3.691
96732W        W66613   7.283   6.693   3.191
96733W        W66614  38.920  40.360   0.403
96734W        W66615   5.919  35.479  11.984
96735W        W66616  42.893  42.775   1.820
96736W        W66617  27.075  16.272  13.364
96737W        W66618  29.017   0.977  11.900
96738W        W66619   8.792  27.621   3.269
96739W        W66620  25.180  10.138   2.849
96740W        W66621  10.739  36.090   2.815
96741W        W66622  43.478  30.125   0.839
96742W        W66623  23.565  21.547   0.893
96743W        W66624  43.879  14.751  13.995
96744W        W66625  21.116  16.298   1.303
96745W        W66626  11.683  33.594  11.932
96746W        W66627  44.409  27.623  12.859
96747W        W66628  10.149  16.577  10.112
96748W        W66629  43.510  14.283  12.996
96749W        W66630  13.730  18.226   3.768
96750W        W66631   7.863   0.830  11.885
96751W        W66632  15.597  44.871  12.985
96752W        W66633  41.365  19.275   0.316
96753W        W66634   7.697   7.187   1.849
96754W        W66635  14.126   8.170   4.652
96755W        W66636  44.882  37.470  14.917
96756W        W66637  30.097  18.678   1.241
96757W        W66638  27.674  39.923   1.227
96758W        W66639  43.970  16.249   1.227
96759W        W66640   0.283   6.779   2.219
96760W        W66641   5.854  29.636   3.736
96761W        W66642  19.651  27.056   4.626
96762W        W66643  13.255  11.209   2.776
96763W        W66644  37.357  41.845  13.350
96764W        W66645  35.882  25.141  13.044
96765W        W66646  37.368   2.759   3.865
96766W        W66647  39.434   2.280  13.387
96767W        W66648  34.082  43.951  14.404
96768W        W66649  28.957  26.543  14.980
96769W        W66650  31.560  35.964   2.784
96770W        W66651  36.923   4.400  11.087
96771W        W66652  42.963   1.802   3.297
96772W        W66653  21.703  25.090   5.095
96773W        W66654  13.738   1.443   4.835
96774W        W66655  23.043  19.150   1.812
96775W        W66656  44.319  34.554   3.707
96776W        W66657  30.530  37.909   0.813
96777W        W66658   4.902  26.083   0.265
96778W        W66659  33.441   8.860   4.646
96779W        W66660  16.213   8.885   0.880
96780W        W66661  41.499  29.645  12.905
96781W        W66662  32.934  36.065  12.523
96782W        W66663  34.039  34.405  14.851
96783W        W66664   9.701  34.896   3.164
96784W        W66665  42.380   7.188   3.287
96785W        W66666  32.452  26.581   3.382
96786W        W66667  20.180   2.873  11.938
96787W        W66668  17.648  36.951  12.513
96788W        W66669   8.660  39.012  10.450
96789W        W66670   8.263  35.436  14.847
96790W        W66671  33.617  21.102  10.617
96791W        W66672  20.669   7.221  10.414
96792W        W66673  27.630  25.552  10.888
96793W        W66674  11.681   0.444   1.223
96794W        W66675  16.135  20.604   3.631
96795W        W66676  34.390  32.432  13.446
96796W        W66677  20.195  14.277  14.964
96797W        W66678  40.474   1.243   1.776
96798W        W66679  34.118  22.637  10.580
96799W        W66680  24.515  26.617  10.610
96800W        W66681  32.497  31.135   4.805
96801W        W66682  27.617   7.359  11.386
96802W        W66683  11.156  20.110   0.464
96803W        W66684  32.494  24.704   4.208
96804W        W66685   4.321   3.921  13.837
96805W        W66686  27.454  20.648  12.045
96806W        W66687  34.004  28.557   3.737
96807W        W66688  12.739  36.456   4.327
96808W        W66689  36.979   9.152  14.456
96809W        W66690  29.478  16.777  14.974
96810W        W66691  30.579  38.485   2.665
96811W        W66692  30.621  11.314  14.762
96812W        W66693  17.611  14.106  10.978
96813W        W66694  30.062  43.938   4.612
96814W        W66695  24.188  23.608  13.018
96815W        W66696  15.152  31.598  12.967
96816W        W66697   7.308  16.291   0.766
96817W        W66698  12.720   4.341   1.824
96818W        W66699  11.368  41.515   1.750
96819W        W66700   2.344  20.208   0.255
96820W        W66701  26.179  23.030   0.449
96821W        W66702  21.101   9.655   9.935
96822W        W66703  30.417  29.165  14.921
96823W        W66704  32.017   2.859   1.402
96824W        W66705  14.223   4.406  13.532
96825W        W66706   0.946  25.979   2.327
96826W        W66707  22.159   4.769   4.613
96827W        W66708   8.293   7.244   0.762
96828W        W66709  36.570  38.984  12.378
96829W        W66710   0.474  14.806  12.073
96830W        W66711  21.699  32.483   2.256
96831W        W66712   4.759  26.129   2.701
96832W        W66713  32.423  10.183  11.419
96833W        W66714  12.613  40.931  11.988
96834W        W66715  39.318  27.467  11.443
96835W        W66716  36.506  12.246  11.488
96836W        W66717   6.325  43.772  14.919
96837W        W66718   6.387  11.300  10.448
96838W        W66719  26.680  24.010  12.965
96839W        W66720  40.466   2.734   0.261
96840W        W66721   1.400  25.073   0.803
96841W        W66722  40.429  34.434  13.355
96842W        W66723  21.578  13.120   4.629
96843W        W66724  14.773  34.590   2.699
96844W        W66725   9.384  30.619   4.702
96845W        W66726  27.496  13.214   2.363
96846W        W66727  42.334  43.983   2.780
96847W        W66728  11.170  19.284  14.306
96848W        W66729  28.147  10.275  11.985
96849W        W66730  27.100  10.648   3.218
96850W        W66731  31.412  21.599  11.592
96851W        W66732   6.307  18.108   5.224
96852W        W66733   5.229  31.917   0.890
96853W        W66734  10.321  21.026   3.803
96854W        W66735  37.489  44.864  14.381
96855W        W66736   4.782  29.020  10.950
96856W        W66737  30.010  13.828  14.812
96857W        W66738  38.370  16.583  14.418
96858W        W66739   2.882  12.801  12.883
96859W        W66740   2.325  22.030   0.884
96860W        W66741  28.635   7.310  11.392
96861W        W66742   1.900  20.166   2.813
96862W        W66743  42.488  42.287   0.962
96863W        W66744   2.938  15.778   2.868
96864W        W66745  20.632  10.721  14.489
96865W        W66746  10.749  22.199   0.878
96866W        W66747  34.481  17.772  10.482
96867W        W66748   5.435  21.569   1.291
96868W        W66749  40.357   3.239  11.587
96869W        W66750   0.821  43.347  12.942
96870W        W66751  14.137  25.670   4.606
96871W        W66752   8.337  39.022  13.398
96872W        W66753   8.279  12.313   3.697
96873W        W66754  11.245   7.775  10.413
96874W        W66755  32.046   4.346  12.833
96875W        W66756  31.564  25.146  14.342
96876W        W66757  35.979   9.828  11.093
96877W        W66758   8.705  24.668  14.388
96878W        W66759   4.765  38.386  14.800
96879W        W66760  16.811  39.548  11.050
96880W        W66761  44.923  41.363   2.702
96881W        W66762  28.949  31.922  10.602
96882W        W66763  44.270   5.861   3.316
96883W        W66764  18.753  44.986   1.380
96884W        W66765  26.617  35.919  10.093
96885W        W66766  17.743  19.776   1.315
96886W        W66767  16.097  24.197  11.494
96887W        W66768  11.733  38.861  14.369
96888W        W66769  39.407   7.741  12.544
96889W        W66770  42.986  30.607  14.800
96890W        W66771  42.433  25.042  14.340
96891W        W66772  40.463  16.267   1.331
96892W        W66773  19.077  11.644  14.494
96893W        W66774   9.247  21.524   1.862
96894W        W66775  40.456  14.159  10.023
96895W        W66776  19.069  28.677  11.049
96896W        W66777  44.805  25.470  11.015
96897W        W66778   4.939  30.999  13.319
96898W        W66779  17.587  37.414  10.571
96899W        W66780  34.070  37.414   3.678
96900W        W66781  27.678  36.979  14.914
96901W        W66782  20.272  14.807  14.347
96902W        W66783  29.046   3.768   0.481
96903W        W66784   2.437  14.325  13.310
96904W        W66785   8.703  31.976  10.633
96905W        W66786  24.591   7.199   4.138
96906W        W66787   3.296  42.284   1.889
96907W        W66788  40.815  14.139   0.747
96908W        W66789  34.088  35.939  12.452
96909W        W66790   7.297  40.420  12.388
96910W        W66791  40.449  31.054   0.867
96911W        W66792  10.788  40.000   1.861
96912W        W66793  30.110  25.059  14.468
96913W        W66794   4.782  23.153   3.279
96914W        W66795  32.515  11.659  14.285
96915W        W66796   3.310  43.485  14.484
96916W        W66797  16.121  16.597  12.427
96917W        W66798   8.229  44.807   2.299
96918W        W66799   9.196  10.641  12.846
96919W        W66800  41.317  31.619  13.920
96920W        W66801  42.998   9.321   0.446
96921W        W66802  12.189  21.198   0.270
96922W        W66803  34.033  44.762   3.157
96923W        W66804  35.439  20.607  10.491
96924W        W66805  36.548   4.268  12.837
96925W        W66806  20.074  22.076   0.367
96926W        W66807  27.193   5.242   0.789
96927W        W66808  42.907  44.350   4.828
96928W        W66809  37.971  25.984  12.879
96929W        W66810  44.430  24.064   1.749
96930W        W66811  30.564  16.769   0.303
96931W        W66812  14.286   2.882  13.866
96932W        W66813  26.464  36.531  13.043
96933W        W66814  35.383  32.942  11.425
96934W        W66815  44.849  25.670   0.261
96935W        W66816  15.824  24.057   0.911
96936W        W66817  10.161  15.756   3.322
96937W        W66818  10.154   2.360   1.446
96938W        W66819   9.702  13.786   0.942
96939W        W66820  32.055  38.504  10.964
96940W        W66821  24.553  19.066  12.509
96941W        W66822   5.695  42.312   4.316
96942W        W66823   7.843  38.979  11.954
96943W        W66824  30.001  19.678   3.210
96944W        W66825  30.454  43.781   0.929
96945W        W66826  36.854  25.654  14.861
96946W        W66827  15.275  21.749   4.712
96947W        W66828  19.736   4.838   4.179
96948W        W66829  24.547  31.011  13.040
96949W        W66830  21.672  30.153  12.011
96950W        W66831  10.261  28.161   1.899
96951W        W66832  28.176   9.368  13.889
96952W        W66833   9.849  44.435  10.496
96953W        W66834  24.998   6.319  10.889
96954W        W66835  14.755  18.690  12.905
96955W        W66836   2.379  22.582  13.873
96956W        W66837  11.240  30.482  11.934
96957W        W66838  34.374  32.476   1.924
96958W        W66839   7.735  10.247  12.577
96959W        W66840   9.753  44.312   3.234
96960W        W66841  17.580  34.926   3.681
96961W        W66842  30.145  16.743   9.982
96962W        W66843   1.303  19.771  14.516
96963W        W66844   0.846  42.399   4.181
96964W        W66845  29.040   0.263  10.439
96965W        W66846  24.579  30.000   4.175
96966W        W66847   7.367  19.087   1.329
96967W        W66848  39.872  24.694  12.454
96968W        W66849  39.513  30.480  13.317
96969W        W66850  18.107  39.833   3.674
96970W        W66851   3.269   3.410  13.309
96971W        W66852  32.901   1.463   2.277
96972W        W66853  40.814  10.243   1.926
96973W        W66854   5.429  36.457   3.745
96974W        W66855  21.072  35.504  12.340
96975W        W66856  21.155  23.071   4.729
96976W        W66857  27.463  19.162  12.042
96977W        W66858  11.285  15.110   9.985
96978W        W66859  16.647   9.247   4.224
96979W        W66860  36.590  19.645  12.442
96980W        W66861  30.918  13.766  11.123
96981W        W66862  21.139  38.419  14.903
96982W        W66863  31.627  14.155   2.385
96983W        W66864  30.478   4.296   3.335
96984W        W66865  11.156  11.315   0.259
96985W        W66866  33.396  24.034   0.805
96986W        W66867  19.609   5.922   3.741
96987W        W66868  44.813  32.911   1.343
96988W        W66869  26.049   3.850  13.420
96989W        W66870   3.293   3.353  12.504
96990W        W66871   1.426  11.767  14.781
96991W        W66872  36.911  38.897   3.147
96992W        W66873  41.787  12.313  14.491
96993W        W66874  26.571  27.612   3.233
96994W        W66875  40.376  27.956   4.783
96995W        W66876  19.577  16.605  14.503
96996W        W66877  40.855  36.880  14.809
96997W        W66878  20.632  25.973   0.295
96998W        W66879   1.355   3.368  13.895
96999W        W66880  14.775  37.025  12.838
97000W        W66881  37.509  39.509  13.342
97001W        W66882  17.073   9.170  14.415
97002W        W66883  26.203  24.705   2.194
97003W        W66884  27.971  16.590   2.804
97004W        W66885  27.514  38.381   0.352
97005W        W66886  30.626   7.394   4.785
97006W        W66887  22.618  27.158  10.420
97007W        W66888  39.457  19.744   3.728
97008W        W66889  23.499   0.347   3.754
97009W        W66890   1.877   9.237   3.795
97010W        W66891  19.262  21.629  14.970
97011W        W66892  27.662  14.627  14.989
97012W        W66893  44.371  30.487   3.373
97013W        W66894   9.262  34.027  12.089
97014W        W66895  12.640   5.406   4.791
97015W        W66896  37.009   9.796   3.835
97016W        W66897  19.108  37.371  10.619
97017W        W66898  26.043  22.670  12.966
97018W        W66899  41.443  18.565  12.044
97019W        W66900  31.582  18.274   3.296
97020W        W66901  16.174  22.687   4.669
97021W        W66902  10.675   4.303  13.425
97022W        W66903   8.696   5.856  12.529
97023W        W66904  19.280  44.326   3.203
97024W        W66905   6.788  25.094   1.927
97025W        W66906   9.291   1.381  10.941
97026W        W66907  39.391   8.223  10.992
97027W        W66908  43.513   5.812  13.347
97028W        W66909  25.629  26.119   1.906
97029W        W66910   0.353  15.131   2.297
97030W        W66911  13.116  18.161   1.725
97031W        W66912  25.094   3.942  13.907
97032W        W66913  29.613  17.297  13.937
97033W        W66914  42.939  17.687   0.379
97034W        W66915  25.180   0.823   0.362
97035W        W66916   7.227  35.945   4.217
97036W        W66917  12.229  17.712   4.836
97037W        W66918  40.472  18.694  12.952
97038W        W66919  25.143  17.093   2.827
97039W        W66920  19.621   8.672  11.471
97040W        W66921  26.187  29.060  13.434
97041W        W66922  24.716   9.809   2.790
97042W        W66923  31.105  18.576   1.210
97043W        W66924  30.441  30.095   3.783
97044W        W66925  14.274   7.901   1.797
97045W        W66926  10.168  33.453  13.795
97046W        W66927  22.656   4.935   3.821
97047W        W66928  37.486  33.383   0.927
97048W        W66929  44.911  42.835  12.384
97049W        W66930   0.887  24.568  13.989
97050W        W66931  31.548  22.728  13.902
97051W        W66932   4.942  19.161   1.411
97052W        W66933  19.747  10.704  14.864
97053W        W66934   6.764  38.431   2.299
97054W        W66935  26.633   8.193   2.282
97055W        W66936   1.305  41.988   1.212
97056W        W66937  32.570   7.692   1.437
97057W        W66938  43.279  10.705  12.881
97058W        W66939  37.955  27.056  11.123
97059W        W66940  44.475  30.067   0.910
97060W        W66941  13.793  27.973   4.761
97061W        W66942  11.756   1.782   0.374
97062W        W66943  14.181  39.006   2.879
97063W        W66944  27.185  34.603   2.754
97064W        W66945   6.709  19.535  11.864
97065W        W66946  35.396  11.261   0.438
97066W        W66947  30.971   3.709   1.920
97067W        W66948  15.789  27.146  11.043
97068W        W66949  17.280  31.478   2.860
97069W        W66950  15.647  32.441   0.383
97070W        W66951  27.471  19.195  10.473
97071W        W66952  41.801  36.856   3.793
97072W        W66953  26.636  38.908  10.522
97073W        W66954   6.323  38.391  12.494
97074W        W66955  28.947  32.400   1.818
97075W        W66956  15.718  30.992  13.809
97076W        W66957  42.031  44.298   3.687
97077W        W66958  40.822  36.535   3.370
97078W        W66959  22.719  23.622  13.534
97079W        W66960  33.921  17.241  13.383
97080W        W66961  31.039   6.313   1.894
97081W        W66962   5.886  17.707  11.452
97082W        W66963  23.650  22.559  12.443
97083W        W66964  15.140   7.688   2.902
97084W        W66965   3.458  42.327  12.430
97085W        W66966  18.203  18.094  11.394
97086W        W66967   1.397  43.374   1.735
97087W        W66968  21.516  23.165  10.633
97088W        W66969  10.290  13.826  12.853
97089W        W66970   2.735  25.554   1.847
97090W        W66971  44.403  14.231  11.451
97091W        W66972  37.520  28.600   4.697
97092W        W66973  23.596  44.891   4.739
97093W        W66974  16.123  25.599   4.246
97094W        W66975  32.072  36.893  11.470
97095W        W66976  38.476  15.725  12.967
97096W        W66977  10.363   9.876  13.386
97097W        W66978  41.011   1.313  13.425
97098W        W66979   4.940  43.296  11.605
97099W        W66980  19.267  28.490   4.605
97100W        W66981  31.000  32.625   4.751
97101W        W66982  38.825  28.663  14.992
97102W        W66983   3.711  34.898  13.799
97103W        W66984   8.390  42.375  13.978
97104W        W66985  30.516   4.369   3.782
97105W        W66986  23.984  29.954   3.302
97106W        W66987  18.148  41.996   0.425
97107W        W66988  37.427   5.846  13.545
97108W        W66989  41.306  33.562   0.786
97109W        W66990   2.387   5.883   1.762
97110W        W66991  23.985  18.699  10.530
97111W        W66992   5.378  25.118  11.092
97112W        W66993  13.685  28.052   0.293
97113W        W66994  11.215  15.296   5.236
97114W        W66995  11.146  39.327   4.785
97115W        W66996  12.785  23.509  13.477
97116W        W66997  38.075  39.549   0.734
97117W        W66998  18.731   5.356   2.269
97118W        W66999   7.827  30.550   5.298
97119W        W67000   4.875  26.186   4.191
97120W        W67001  42.008   8.685  10.498
97121W        W67002   2.334  10.377   2.811
97122W        W67003  42.489   2.432   0.805
97123W        W67004  23.566   2.795  11.505
97124W        W67005   5.201   5.813  13.365
97125W        W67006  31.572  10.174   3.720
97126W        W67007   4.919   5.326  11.445
97127W        W67008  13.132  24.631   2.232
97128W        W67009  29.557   4.926   2.395
97129W        W67010  32.127  15.660   0.304
97130W        W67011  21.207  38.925   3.658
97131W        W67012  31.560  38.055   4.608
97132W        W67013  24.075  20.108   0.370
97133W        W67014   1.825  40.926  14.938
97134W        W67015  30.073   5.718  11.995
97135W        W67016  11.640  28.536   4.158
97136W        W67017  21.653  34.034  14.363
97137W        W67018  39.524  10.286  11.036
97138W        W67019  22.997   2.302  11.517
97139W        W67020  15.724  38.408   4.788
97140W        W67021  36.563  26.078  14.930
97141W        W67022  22.603   0.909   2.318
97142W        W67023  42.375  21.073  10.468
97143W        W67024  13.293  37.497   0.932
97144W        W67025   2.348  10.777  14.287
97145W        W67026  35.896  27.053   0.878
97146W        W67027   0.817  38.905   4.694
97147W        W67028   1.456  11.702  13.324
97148W        W67029  38.520  26.139   2.234
97149W        W67030  17.284   2.404   1.934
97150W        W67031  18.725  26.668   1.855
97151W        W67032   9.679  30.988   0.456
97152W        W67033  14.324  15.299   3.246
97153W        W67034  29.167  43.980  11.541
97154W        W67035  20.097   3.791   0.246
97155W        W67036  30.549  20.734   3.286
97156W        W67037  15.755   0.261   4.745
97157W        W67038  27.480  22.651  12.009
97158W        W67039  28.636  22.641   0.391
97159W        W67040   5.234  16.258  14.457
97160W        W67041  29.479  19.059  14.901
97161W        W67042  27.123  42.388  12.399
97162W        W67043   3.417   6.279  13.903
97163W        W67044  19.764   7.202   0.268
97164W        W67045  31.411  33.493  13.814
97165W        W67046   1.466  34.510   4.838
97166W        W67047  18.545  37.535  14.888
97167W        W67048   3.318  23.672  13.030
97168W        W67049  27.032  20.642   2.663
97169W        W67050  15.749  21.028  13.436
97170W        W67051  44.920  19.041  11.884
97171W        W67052  24.158  34.987  11.041
97172W        W67053   8.351  29.057   0.941
97173W        W67054  41.294   3.739   1.374
97174W        W67055  42.969   2.407  14.371
97175W        W67056  22.698  38.481  14.958
97176W        W67057  18.076  37.418  13.019
97177W        W67058  14.602  18.077  14.328
97178W        W67059  13.221  22.076  11.021
97179W        W67060   6.396   7.783   2.730
97180W        W67061  23.523  16.595  11.529
97181W        W67062   4.844  12.134  12.954
97182W        W67063  39.061   5.304  12.393
97183W        W67064  33.506  44.958   0.388
97184W        W67065  14.293  30.998  13.379
97185W        W67066  39.008   0.380  11.558
97186W        W67067   0.755  36.906  13.509
97187W        W67068  40.012  35.374  14.314
97188W        W67069  39.348   4.446  10.542
97189W        W67070   9.368  17.575   1.906
97190W        W67071   9.207  38.332  14.291
97191W        W67072  40.891   4.799   2.334
97192W        W67073  33.506  31.022   3.766
97193W        W67074  10.334  44.882  13.939
97194W        W67075  28.996  38.943  14.946
97195W        W67076   6.412   0.414  12.386
97196W        W67077   6.335   8.221   1.742
97197W        W67078  25.120  36.577  12.565
97198W        W67079  42.995  35.404   2.723
97199W        W67080  29.574  19.103   1.333
97200W        W67081  18.264  27.516  14.501
97201W        W67082  31.638  33.538  11.381
97202W        W67083   0.749  25.101   5.185
97203W        W67084  29.424   7.262  13.995
97204W        W67085  31.100  21.551  11.463
97205W        W67086   6.410  12.223  11.908
97206W        W67087  39.505  43.856  11.476
97207W        W67088  31.069   9.237  11.571
97208W        W67089  11.137  20.729  11.927
97209W        W67090  10.170  34.610  12.491
97210W        W67091  43.896   9.714   4.353
97211W        W67092  35.861  37.365  11.603
97212W        W67093   5.371  22.093   1.873
97213W        W67094  32.945  33.575  14.904
97214W        W67095   9.387  15.775   9.976
97215W        W67096  44.008  28.087  11.931
97216W        W67097   1.374  27.175  13.982
97217W        W67098  10.775  29.135  13.545
97218W        W67099   6.750  16.682   2.802
97219W        W67100  44.871  17.141  13.903
97220W        W67101   5.304  33.446  10.519
97221W        W67102  10.366  19.127   3.660
97222W        W67103   0.908   2.235   3.271
97223W        W67104  21.233  25.502  10.591
97224W        W67105  31.615  41.999  10.630
97225W        W67106  35.549  32.583   1.284
97226W        W67107  44.290   2.241  12.026
97227W        W67108  32.068  10.179   5.153
97228W        W67109   6.715  11.639  12.343
97229W        W67110   0.950  18.609   2.838
97230W        W67111  42.314  40.840  11.860
97231W        W67112  28.629  10.273  13.351
97232W        W67113  25.691  31.080  13.529
97233W        W67114  28.950  43.355  12.951
97234W        W67115  24.617  38.398  13.515
97235W        W67116  10.785  34.403  14.280
97236W        W67117   8.227   1.381   2.868
97237W        W67118   4.781  31.406   1.234
97238W        W67119  23.686  33.023  14.498
97239W        W67120  10.294   5.841   4.650
97240W        W67121   7.348   9.873   1.779
97241W        W67122   0.262   0.937  12.429
97242W        W67123  17.259  33.488  11.574
97243W        W67124  13.248  27.953  14.829
97244W        W67125  44.972  10.153  14.403
97245W        W67126  27.650  38.963   2.727
97246W        W67127   2.419  20.642   1.244
97247W        W67128  15.643   7.309   1.714
97248W        W67129  14.129   7.786  11.485
97249W        W67130   6.413  28.993   4.628
97250W        W67131  25.117  33.414   2.715
97251W        W67132  31.431  28.650   4.306
97252W        W67133   3.368   9.290  13.456
97253W        W67134  38.940  40.417  10.637
97254W        W67135  41.402  36.011  14.797
97255W        W67136  28.526  33.417  13.865
97256W        W67137  13.699  28.946   1.925
97257W        W67138  12.316  14.196  11.029
97258W        W67139  11.251   1.734   2.390
97259W        W67140  28.549  26.183   2.364
97260W        W67141  12.298  22.597   3.302
97261W        W67142   6.211  10.815   0.819
97262W        W67143  16.195  35.537  14.953
97263W        W67144  30.948  31.444   4.600
97264W        W67145  16.785  17.619  14.849
97265W        W67146  40.853  10.727   1.342
97266W        W67147  40.425  18.558  14.457
97267W        W67148  13.837  43.437   1.737
97268W        W67149   2.943  24.985  14.420
97269W        W67150  38.879  27.670   4.693
97270W        W67151  42.806  44.400  14.333
97271W        W67152   6.842  14.666   4.210
97272W        W67153  41.965   1.823  11.600
97273W        W67154  32.612  27.042   1.282
97274W        W67155  41.324  27.613  14.898
97275W        W67156  16.759   7.750   2.416
97276W        W67157   2.912  19.187   2.304
97277W        W67158  42.855  25.627   1.329
97278W        W67159  19.216  35.900   3.292
97279W        W67160  30.086   7.275  14.366
97280W        W67161  12.133  16.245   2.845
97281W        W67162  22.564  10.779   1.340
97282W        W67163   8.740  21.214   4.328
97283W        W67164   9.887  27.485   2.374
97284W        W67165  44.976   6.795   3.169
97285W        W67166  20.146  10.635  10.462
97286W        W67167  34.537  39.357   2.339
97287W        W67168  14.114  34.447  10.951
97288W        W67169  38.071   0.870   3.858
97289W        W67170   8.832  31.618   2.797
97290W        W67171  17.621  41.444   2.282
97291W        W67172  41.506  37.484  12.532
97292W        W67173  15.207   6.739  12.568
97293W        W67174   7.213  29.664   0.359
97294W        W67175  24.503  18.086   1.442
97295W        W67176   2.803  37.434   3.739
97296W        W67177  41.349  13.229   3.833
97297W        W67178  21.195  41.910  12.058
97298W        W67179  17.201  14.229  14.359
97299W        W67180   5.767  10.303  13.308
97300W        W67181  27.634  38.569   4.188
97301W        W67182  17.696  39.970   1.922
97302W        W67183  35.507   4.780   2.680
97303W        W67184  20.623  19.715  11.059
97304W        W67185  39.909  40.415  14.516
97305W        W67186   2.261   6.340  12.868
97306W        W67187  36.045  33.531   3.352
97307W        W67188  14.627  14.238  13.445
97308W        W67189  17.628  24.717   0.304
97309W        W67190  10.726  30.459   3.181
97310W        W67191  29.104  28.535   1.756
97311W        W67192  35.035  35.921  12.426
97312W        W67193  23.051  42.413   2.178
97313W        W67194  10.834  13.214  10.610
97314W        W67195  27.188  17.203   2.710
97315W        W67196  43.316  31.942  11.568
97316W        W67197  20.095  12.261   0.945
97317W        W67198  30.515  26.110  10.557
97318W        W67199   8.720  40.005  13.539
97319W        W67200  24.163  15.646   0.322
97320W        W67201  33.565  40.804   3.763
97321W        W67202  13.742  35.385  12.949
97322W        W67203  36.083   6.402   3.359
97323W        W67204  37.523  41.292  13.868
97324W        W67205  37.451  19.097  10.954
97325W        W67206  44.322   7.760  11.455
97326W        W67207   6.779   9.239   0.452
97327W        W67208  20.256  39.813  14.472
97328W        W67209  44.877  17.717  11.903
97329W        W67210  23.202  22.516   3.716
97330W        W67211  42.926  26.639  11.433
97331W        W67212  23.585   3.816  14.444
97332W        W67213   7.690  38.852   2.352
97333W        W67214  20.568  24.028  12.858
97334W        W67215  32.421  16.704  14.967
97335W        W67216  12.819  29.451   4.229
97336W        W67217  21.534  16.697  11.946
97337W        W67218  33.525   0.388  15.000
97338W        W67219  25.618  29.072   0.282
97339W        W67220   4.924  33.020   3.250
97340W        W67221   4.256  17.742   4.653
97341W        W67222   7.719  31.105  12.078
97342W        W67223   1.368  15.725  11.612
97343W        W67224  14.223  37.475  12.458
97344W        W67225  14.292  40.312  11.549
97345W        W67226  26.995   0.804   1.333
97346W        W67227  21.169  37.025  10.517
97347W        W67228  39.375  16.249   2.254
97348W        W67229  33.049  37.488  10.437
97349W        W67230   9.863  40.444  10.952
97350W        W67231  38.995  10.717   3.798
97351W        W67232  24.992  34.490   3.705
97352W        W67233  14.201  37.564   5.205
97353W        W67234  13.752  37.956  12.047
97354W        W67235  43.501   8.856  14.403
97355W        W67236  28.947  40.473   2.824
97356W        W67237  20.035  24.489   4.677
97357W        W67238  41.805  28.603   1.883
97358W        W67239  16.095  40.835   3.386
97359W        W67240  36.845  44.425   2.876
97360W        W67241  16.111   3.876   0.289
97361W        W67242   5.732  28.092  12.542
97362W        W67243  10.746   0.748   2.717
97363W        W67244   9.291  28.065   0.414
97364W        W67245  26.633  36.876   0.246
97365W        W67246   7.250   2.879  14.904
97366W        W67247  24.724  21.743  11.065
97367W        W67248  34.584  32.131   4.723
97368W        W67249  31.521   4.215   1.907
97369W        W67250  13.122  17.684  11.935
97370W        W67251   5.886  43.416   1.784
97371W        W67252  36.862  14.602   1.392
97372W        W67253   1.338   3.951  10.527
97373W        W67254   9.210  17.628   4.696
97374W        W67255  23.495  23.156  14.768
97375W        W67256  18.626  30.452   4.307
97376W        W67257  41.400  31.113   1.704
97377W        W67258  34.506   7.202   4.608
97378W        W67259  19.191   9.239  10.436
97379W        W67260   6.251  20.065   3.690
97380W        W67261  40.469   9.332   4.601
97381W        W67262   0.300   7.793  14.385
97382W        W67263  26.000  38.330  14.497
97383W        W67264   5.733  28.569   0.895
97384W        W67265  19.704  10.258   4.788
97385W        W67266   9.856  40.017  12.863
97386W        W67267  37.074  36.848  11.983
97387W        W67268  16.640  22.536  11.977
97388W        W67269   4.359  27.622  14.937
97389W        W67270  28.068  10.278  11.120
97390W        W67271  38.886  28.653   0.242
97391W        W67272   5.761  34.401   2.313
97392W        W67273   5.706   6.423   3.273
97393W        W67274   2.367  36.908  10.921
97394W        W67275   7.698   0.752  13.004
97395W        W67276   9.381   6.357  12.430
97396W        W67277  32.891  31.071  13.815
97397W        W67278   5.371  24.594  12.090
97398W        W67279  17.240  15.728  14.834
97399W        W67280   2.740  20.767  10.515
97400W        W67281  36.857  44.891  12.421
97401W        W67282   8.186  41.845  11.567
97402W        W67283   5.329  21.659  10.413
97403W        W67284  39.467   4.281  11.006
97404W        W67285   8.797  37.582   3.846
97405W        W67286  28.476  32.546  10.945
97406W        W67287  18.290  28.463   0.867
97407W        W67288  34.586  42.455  14.335
97408W        W67289  21.208  15.688   2.182
97409W        W67290  13.345  41.379  13.932
97410W        W67291  38.996  31.575  13.460
97411W        W67292  19.119  42.361   0.346
97412W        W67293  13.603  39.346   3.191
97413W        W67294   6.679  40.340   2.718
97414W        W67295  11.355  36.918   3.748
97415W        W67296  44.897  39.997   4.268
97416W        W67297  33.386  31.510   4.296
97417W        W67298   6.330  21.083   1.396
97418W        W67299  26.161  11.738  14.819
97419W        W67300  42.838  17.633  13.331
97420W        W67301  42.885   3.803  11.871
97421W        W67302   6.828  34.537   3.734
97422W        W67303  20.733  34.044   4.283
97423W        W67304   3.954  16.674  11.510
97424W        W67305  30.514  21.732  10.624
97425W        W67306  10.250   4.884   0.402
97426W        W67307  18.280  41.870  14.466
97427W        W67308  41.497  12.176   3.765
97428W        W67309   3.752  18.210  13.448
97429W        W67310  39.015  35.915  12.900
97430W        W67311   5.383  36.980   1.330
97431W        W67312  15.220  30.516   4.292
97432W        W67313  41.397  19.775   2.202
97433W        W67314  15.170  32.415  14.456
97434W        W67315  44.287  33.015  12.895
97435W        W67316   9.869  21.221  14.323
97436W        W67317  32.140  21.697  13.495
97437W        W67318  36.041   9.341  11.458
97438W        W67319  44.878  26.597  14.288
97439W        W67320  37.868  17.206   2.289
97440W        W67321  18.127  38.504  10.531
97441W        W67322  21.721   5.784  11.439
97442W        W67323   7.864  17.222   9.982
97443W        W67324  26.162  26.574   1.212
97444W        W67325  24.139  30.910  14.421
97445W        W67326   4.389   6.784   3.658
97446W        W67327  37.840  41.904  11.065
97447W        W67328   7.838  17.718  13.408
97448W        W67329  35.085  27.619   0.368
97449W        W67330   4.808  34.943  12.947
97450W        W67331  37.018   7.904  14.475
97451W        W67332   7.901  13.717   1.238
97452W        W67333  36.842  21.664   2.210
97453W        W67334  10.245  13.160  13.415
97454W        W67335  15.225  20.067   2.207
97455W        W67336  29.076  33.388  11.984
97456W        W67337  13.762   6.887   4.317
97457W        W67338  26.483  30.042  14.032
97458W        W67339   7.343  27.942   3.862
97459W        W67340  38.562  39.546   2.315
97460W        W67341  41.792   7.236   1.879
97461W        W67342   5.426  38.978   0.849
97462W        W67343  10.706  20.767  14.952
97463W        W67344  23.647  31.488  12.048
97464W        W67345  33.618   1.897  14.006
97465W        W67346  25.572  18.180  12.540
97466W        W67347  10.773  32.964  11.505
97467W        W67348   6.886   7.748   4.741
97468W        W67349  35.560  34.038  12.075
97469W        W67350  11.371  23.620  11.993
97470W        W67351  21.017  13.133   3.714
97471W        W67352  20.663  28.436  12.847
97472W        W67353   9.370  16.776  12.353
97473W        W67354  43.353  23.178   1.851
97474W        W67355   8.876  38.491  12.490
97475W        W67356  32.617  25.106  14.282
97476W        W67357  14.297   7.719   3.824
97477W        W67358   0.340  11.158   1.812
97478W        W67359  36.347  21.596  11.095
97479W        W67360  25.971  29.669  14.785
97480W        W67361  28.525  13.180  13.833
97481W        W67362  22.016  32.949   2.289
97482W        W67363  18.580   3.319  12.415
97483W        W67364  14.649  28.952   3.632
97484W        W67365   9.857   8.779   3.157
97485W        W67366   6.251  22.694   5.217
97486W        W67367  29.109   0.801  13.846
97487W        W67368   8.874  27.601   4.699
97488W        W67369  22.504  33.959   4.662
97489W        W67370  33.535  22.700   3.683
97490W        W67371  38.542   7.387  13.357
97491W        W67372  18.727  42.381  14.857
97492W        W67373  22.021  22.700  10.505
97493W        W67374  20.108  36.014   5.149
97494W        W67375  34.525  38.829   1.448
97495W        W67376  16.160   5.811   0.768
97496W        W67377  40.863   0.920  11.997
97497W        W67378  33.505  26.168  10.483
97498W        W67379  28.984  20.552   3.869
97499W        W67380  32.398  32.943  10.888
97500W        W67381   8.862   8.792  12.870
97501W        W67382   6.368  36.437  10.945
97502W        W67383  37.988   2.729   3.725
97503W        W67384   7.851  13.290  13.394
97504W        W67385  24.214  38.419  10.897
97505W        W67386  33.567  29.927   3.803
97506W        W67387  20.069  27.492   2.697
97507W        W67388   1.347  35.589  10.530
97508W        W67389  27.594   9.758  10.965
97509W        W67390  13.657  15.178  12.342
97510W        W67391  10.848   9.770  10.952
97511W        W67392  39.432   1.336  10.581
97512W        W67393   7.792  18.228   1.714
97513W        W67394   3.266  40.380   0.948
97514W        W67395  13.782  35.994   0.378
97515W        W67396  11.289  25.186  11.404
97516W        W67397  10.276  39.832   3.739
97517W        W67398   8.214  27.163  10.465
97518W        W67399  22.054  24.079   4.121
97519W        W67400   2.319  20.611   4.231
97520W        W67401   8.375  22.580  11.487
97521W        W67402  30.658  33.986   0.854
97522W        W67403  29.604  10.665   3.736
97523W        W67404   0.808  34.942   1.824
97524W        W67405  31.102  24.554   3.195
97525W        W67406  41.915  14.705  12.440
97526W        W67407  16.188  14.115  12.087
97527W        W67408  27.550  22.250  11.855
97528W        W67409   6.772  13.185   1.906
97529W        W67410  37.423   5.744   2.188
97530W        W67411  16.582  37.554  12.407
97531W        W67412   0.290  35.856   2.795
97532W        W67413  44.297  26.129   0.873
97533W        W67414  25.131  18.749  14.423
97534W        W67415  11.163  26.698   0.853
97535W        W67416  34.894  39.879   1.732
97536W        W67417  31.915  11.859  13.320
97537W        W67418  11.769  26.700  11.904
97538W        W67419  16.610   5.429   1.881
97539W        W67420  37.962   5.213   2.697
97540W        W67421  28.003  31.921  13.517
97541W        W67422   8.896   9.326   1.275
97542W        W67423   5.258   5.738   3.315
97543W        W67424   9.250   9.310   4.825
97544W        W67425  25.987  20.145  11.860
97545W        W67426  31.992   4.223  10.604
97546W        W67427   1.400  38.556   4.314
97547W        W67428  32.935   4.359   3.221
97548W        W67429   0.414  29.621  14.027
97549W        W67430  30.616  22.698   1.746
97550W        W67431  20.274  28.101  13.816
97551W        W67432  23.069  15.771   3.730
97552W        W67433  21.092  35.360   1.812
97553W        W67434  44.808  22.600   3.810
97554W        W67435   4.944  25.596  12.527
97555W        W67436   6.813  29.131  14.028
97556W        W67437   1.784  15.317  10.495
97557W        W67438   6.897  31.475  13.818
97558W        W67439  10.694  21.205  13.891
97559W        W67440  28.507  13.825   0.734
97560W        W67441  30.484   1.276   2.357
97561W        W67442  11.819   3.940  13.446
97562W        W67443   0.293  28.021  11.595
97563W        W67444  12.747   2.799  10.407
97564W        W67445  30.160  23.643  10.934
97565W        W67446  38.367  35.479  11.925
97566W        W67447  31.139  23.143  13.039
97567W        W67448  13.293  39.856  12.046
97568W        W67449  22.666  27.035   4.599
97569W        W67450  28.982  27.173   3.704
97570W        W67451  21.660  21.710  12.386
97571W        W67452  19.618  35.445  13.885
97572W        W67453  43.792  16.166   3.267
97573W        W67454  23.539  18.074   2.759
97574W        W67455  31.585  35.484   1.432
97575W        W67456  27.115  40.006  11.910
97576W        W67457  27.675   6.291  11.881
97577W        W67458  26.703  26.496  11.465
97578W        W67459   1.251  33.400  11.011
97579W        W67460   6.882  41.532  13.410
97580W        W67461  41.324  20.031   0.823
97581W        W67462  25.691   9.334   0.321
97582W        W67463  15.097  16.578   3.258
97583W        W67464   8.224   2.889   2.337
97584W        W67465  14.703  27.552   0.460
97585W        W67466  12.653  28.086   2.669
97586W        W67467  21.188   8.724  14.283
97587W        W67468  16.137   6.262   1.378
97588W        W67469  25.679   1.843  10.498
97589W        W67470  27.994  18.111   1.424
97590W        W67471  20.623  29.607   1.729
97591W        W67472  25.619   4.253  12.037
97592W        W67473  12.742  22.149   1.740
97593W        W67474  40.040   2.240   4.722
97594W        W67475  41.470  36.899  13.875
97595W        W67476  20.048  12.197  11.975
97596W        W67477   1.882  30.152   2.700
97597W        W67478  21.562  39.537  13.337
97598W        W67479   4.374  25.553  13.817
97599W        W67480  22.643  15.285  11.912
97600W        W67481  42.994  15.109   0.329
97601W        W67482  38.051  44.880  13.999
97602W        W67483  34.118   6.341   2.698
97603W        W67484  36.956  13.739  11.965
97604W        W67485  23.520  40.810  13.377
97605W        W67486   0.481  14.628   2.364
97606W        W67487   2.385   9.278  11.494
97607W        W67488  32.003  40.340  13.497
97608W        W67489  10.333  35.516  12.879
97609W        W67490   7.305   8.342  14.445
97610W        W67491  10.363  44.956  13.475
97611W        W67492  17.190  26.647  13.883
97612W        W67493  37.406  35.372  10.588
97613W        W67494  13.234  21.549  13.821
97614W        W67495   0.864  24.090   3.755
97615W        W67496  18.571  30.642  14.933
97616W        W67497  35.872  36.518   3.853
97617W        W67498  12.244  21.124   4.314
97618W        W67499  41.886  44.370   1.898
97619W        W67500  38.027   7.879  14.441
97620W        W67501  43.423  30.540  14.282
97621W        W67502  31.128  13.703  14.494
97622W        W67503  10.346  29.604   3.231
97623W        W67504  10.792   3.368  14.494
97624W        W67505  30.534  17.259   4.604
97625W        W67506   9.836  41.882  14.354
97626W        W67507  32.634  25.648   1.244
97627W        W67508  41.031   3.802  10.554
97628W        W67509  17.221  31.137   4.211
97629W        W67510  23.181  36.857  12.470
97630W        W67511   3.237   8.383   4.739
97631W        W67512  26.462  12.704   3.697
97632W        W67513  23.560   4.718   2.327
97633W        W67514  43.345  29.634  10.627
97634W        W67515  28.941  11.262   1.447
97635W        W67516  28.529  40.045   0.921
97636W        W67517  22.598  37.849  13.027
97637W        W67518   2.454  30.992  10.555
97638W        W67519  34.058  25.542  12.528
97639W        W67520   8.877  12.167   1.264
97640W        W67521   6.791  14.197  12.573
97641W        W67522  20.089  40.334   3.809
97642W        W67523  44.949  24.532  13.996
97643W        W67524  25.083  41.971   0.277
97644W        W67525  36.553  20.657   0.290
97645W        W67526  35.415   2.779   4.257
97646W        W67527  31.474  32.915  14.385
97647W        W67528  19.081  21.620   3.331
97648W        W67529  30.455   8.373   1.228
97649W        W67530   8.701  18.717   0.729
97650W        W67531  44.765  38.847   4.242
97651W        W67532  42.460  38.874  14.797
97652W        W67533  22.526  34.913  11.984
97653W        W67534  25.672   2.459  12.447
97654W        W67535   2.374  30.152   3.169
97655W        W67536  24.090  37.936  13.798
97656W        W67537  16.300   7.331  10.983
97657W        W67538  42.925  11.787   1.424
97658W        W67539  15.257  13.267  12.890
97659W        W67540  11.807  42.000  11.924
97660W        W67541  34.995  31.078  10.924
97661W        W67542  30.649  11.756   1.841
97662W        W67543  21.216  43.895  14.452
97663W        W67544  44.363  40.917  12.351
97664W        W67545   3.746  37.849  13.835
97665W        W67546   2.327  26.641   5.202
97666W        W67547  28.104  12.746   4.255
97667W        W67548  37.971  28.988   2.231
97668W        W67549  29.529  19.650   3.357
97669W        W67550  14.302  35.580  14.370
97670W        W67551  22.155  25.148   1.444
97671W        W67552  33.116   9.369   0.309
97672W        W67553  17.785  28.513  10.491
97673W        W67554  18.660  14.245  11.858
97674W        W67555  15.668  28.655   2.846
97675W        W67556  22.123  42.907  11.609
97676W        W67557  44.363   0.481   0.944
97677W        W67558  37.974  19.277   0.775
97678W        W67559  17.279   5.726  12.527
97679W        W67560   5.402   1.755  10.503
97680W        W67561  37.035  41.498   3.731
97681W        W67562  20.244  31.957  13.808
97682W        W67563  44.909  38.966   0.437
97683W        W67564  25.536  18.126  13.519
97684W        W67565  28.528   8.770   4.152
97685W        W67566  35.397  12.704  12.005
97686W        W67567  37.055  13.636   1.898
97687W        W67568   7.243  19.738   0.358
97688W        W67569  27.513  18.601   4.750
97689W        W67570  13.300  15.667   5.168
97690W        W67571  32.021   7.840  11.029
97691W        W67572  10.348   3.715   3.341
97692W        W67573   5.793  13.165   1.422
97693W        W67574  39.357  21.180  12.575
97694W        W67575  12.351   9.663   3.817
97695W        W67576  29.029  15.264   4.348
97696W        W67577  13.299  27.134   0.756
97697W        W67578   9.188  27.457   0.924
97698W        W67579  39.014  15.186  11.488
97699W        W67580  37.558  14.718  11.422
97700W        W67581  42.893  35.484   4.692
97701W        W67582  18.645   3.794  10.997
97702W        W67583   4.911  27.974   2.404
97703W        W67584  12.771  39.440  11.404
97704W        W67585  11.789  25.036   2.900
97705W        W67586   7.752   1.852  10.986
97706W        W67587  24.047  32.139  11.896
97707W        W67588  14.797   4.365  14.901
97708W        W67589  14.658  39.913  11.490
97709W        W67590  44.817   9.706  12.049
97710W        W67591   4.756   9.708  12.351
97711W        W67592   0.280  40.961   1.413
97712W        W67593  32.018  17.067   3.205
97713W        W67594  38.970  10.756  11.869
97714W        W67595  14.168   8.280   3.662
97715W        W67596  19.059  17.170  13.024
97716W        W67597   0.323  43.896  12.463
97717W        W67598  28.971   0.295   0.818
97718W        W67599   4.328  24.576   3.828
97719W        W67600  21.023   9.219  13.884
97720W        W67601  40.410  22.245   4.139
97721W        W67602  25.572  18.768  12.362
97722W        W67603   6.346   5.423   4.825
97723W        W67604  34.462  24.559  13.331
97724W        W67605  36.959   2.326  12.344
97725W        W67606  41.412  28.066   1.352
97726W        W67607  35.053   1.974  11.508
97727W        W67608  26.699  29.154  12.417
97728W        W67609  23.618  19.168  11.441
97729W        W67610  31.600  22.050  10.894
97730W        W67611  42.371  35.063   3.331
97731W        W67612  42.946  26.473  14.797
97732W        W67613  16.748  37.524  13.806
97733W        W67614  37.903   3.454  11.967
97734W        W67615  33.382  22.669   5.306
97735W        W67616  30.424  11.265  10.501
97736W        W67617   5.790  44.365  13.321
97737W        W67618  24.724  40.308   4.162
97738W        W67619  18.141  42.333  14.826
97739W        W67620  14.786  22.195  11.572
97740W        W67621   9.327   3.360  11.388
97741W        W67622   1.880  40.380  10.986
97742W        W67623  28.571  36.944  12.536
97743W        W67624  19.119  35.020   0.323
97744W        W67625  41.847  33.617   4.120
97745W        W67626  41.496  27.142   1.210
97746W        W67627  22.691   7.310  13.916
97747W        W67628  17.293  10.790  10.952
97748W        W67629  25.516  10.856   0.909
97749W        W67630  35.481  39.964   1.760
97750W        W67631  43.375  32.400  11.578
97751W        W67632  10.721   7.272   3.834
97752W        W67633  12.841  36.460  11.533
97753W        W67634  12.845  27.983   1.859
97754W        W67635   8.377  17.186  11.097
97755W        W67636  28.442  40.505   0.850
97756W        W67637  40.857  42.954  10.911
97757W        W67638  41.520  29.019   0.788
97758W        W67639  16.210   4.867  11.030
97759W        W67640  23.709   2.963  12.549
97760W        W67641  43.293  22.021   3.764
97761W        W67642  14.291  36.033   4.141
97762W        W67643  17.746  14.705  10.970
97763W        W67644  41.955   0.813  13.875
97764W        W67645   2.791  42.935  11.531
97765W        W67646  34.112  40.818  13.918
97766W        W67647  18.088  30.946  12.997
97767W        W67648  24.196  36.488  10.587
97768W        W67649  17.670  21.238   0.454
97769W        W67650  17.786  30.563   3.765
97770W        W67651  31.464  39.427   1.761
97771W        W67652  23.569  44.502  13.523
97772W        W67653  33.055  30.046  13.513
97773W        W67654  18.637  29.660   0.420
97774W        W67655  35.027  32.441  13.531
97775W        W67656  43.275  41.446   0.472
97776W        W67657  38.991   4.813   1.809
97777W        W67658  30.019   1.358  13.051
97778W        W67659   9.801  25.631  11.966
97779W        W67660  40.428  20.248   4.122
97780W        W67661  21.539  34.584   3.832
97781W        W67662  37.514  36.361   3.166
97782W        W67663  43.320  41.033   0.431
97783W        W67664  33.123  18.674  11.051
97784W        W67665  28.630  39.950  12.890
97785W        W67666   0.878  16.667   2.299
97786W        W67667  40.509  30.034  12.563
97787W        W67668  28.093  15.717   3.826
97788W        W67669  39.430   5.912   3.352
97789W        W67670  41.846  35.593  10.439
97790W        W67671   0.957  36.450   4.274
97791W        W67672  33.429  25.594  12.956
97792W        W67673  43.482  22.647  12.927
97793W        W67674  28.952   2.385   0.780
97794W        W67675  39.475  28.028   4.632
97795W        W67676  14.209   0.932  12.376
97796W        W67677  40.365  10.684  10.444
97797W        W67678   1.907  18.552   3.311
97798W        W67679  42.980  26.133   3.279
97799W        W67680  26.085   5.846  11.599
97800W        W67681   4.812  27.996   3.335
97801W        W67682  14.653  29.586  12.991
97802W        W67683  13.205  41.386   5.302
97803W        W67684  28.093  30.582  10.023
97804W        W67685  15.645  42.342  11.085
97805W        W67686   9.678  23.501   0.926
97806W        W67687   5.253  22.181   4.795
97807W        W67688  20.126  41.917   1.712
97808W        W67689  36.015  11.679   2.240
97809W        W67690  23.115  22.105  11.954
97810W        W67691  20.553  37.560   0.349
97811W        W67692  24.031  15.271   3.358
97812W        W67693  28.608   2.896   3.775
97813W        W67694  31.129  14.270  14.368
97814W        W67695   1.965  38.502  14.854
97815W        W67696  33.536  30.474   2.251
97816W        W67697  44.943  19.133  12.860
97817W        W67698  10.673  12.349  11.965
97818W        W67699  24.140  10.811  12.910
97819W        W67700  37.413  41.845  14.901
97820W        W67701  27.582   9.870   1.748
97821W        W67702   0.803  24.706  14.331
97822W        W67703  15.616  11.293  10.611
97823W        W67704   7.336   0.892  14.974
97824W        W67705   3.717  43.898  12.044
97825W        W67706  44.859  29.670  11.398
97826W        W67707  16.270  19.749   3.722
97827W        W67708  26.459  34.937  13.946
97828W        W67709   7.714  34.425  11.545
97829W        W67710  20.187   3.792  10.574
97830W        W67711  19.241  18.640  12.958
97831W        W67712  13.625  22.652  10.470
97832W        W67713  39.056  27.688   3.203
97833W        W67714  44.818  20.134   3.242
97834W        W67715  17.581  26.049   4.687
97835W        W67716  30.968  26.172   1.822
97836W        W67717  12.238  17.646   1.356
97837W        W67718  36.452  30.542  14.510
97838W        W67719  43.879  23.610  14.001
97839W        W67720  13.777  37.470  10.438
97840W        W67721  12.210  19.576   4.269
97841W        W67722  36.973  21.736  10.924
97842W        W67723  10.169  26.972   1.899
97843W        W67724   6.263  36.027  13.449
97844W        W67725  42.503  44.419   3.732
97845W        W67726  26.626   6.295  11.077
97846W        W67727   4.399  35.392   4.605
97847W        W67728  24.993  31.118  10.630
97848W        W67729  44.453  42.948  10.572
97849W        W67730   0.801  34.992   0.753
97850W        W67731   7.270  25.595  11.123
97851W        W67732  21.262   7.818   2.324
97852W        W67733  29.650   3.361  14.772
97853W        W67734  26.495  34.609  13.507
97854W        W67735  18.726  25.666   0.781
97855W        W67736  14.613   9.174  10.991
97856W        W67737  42.846  12.785  13.958
97857W        W67738  29.101  36.419   0.437
97858W        W67739   5.821  31.108   4.765
97859W        W67740   9.161  34.115  11.084
97860W        W67741   2.790  20.621   2.318
97861W        W67742  26.618  28.443   0.789
97862W        W67743   9.708  23.677  13.469
97863W        W67744  44.928  19.669   4.657
97864W        W67745  12.771  12.201  11.539
97865W        W67746   1.391   2.798   4.745
97866W        W67747  26.037   7.397  13.882
97867W        W67748   6.886  44.790   0.262
97868W        W67749  33.415   1.924  10.040
97869W        W67750   1.855  17.075  12.404
97870W        W67751  32.953  34.111  10.967
97871W        W67752   8.863  24.179   3.263
97872W        W67753  23.026  29.467  13.929
97873W        W67754  31.961   5.238   3.648
97874W        W67755  29.554  39.863   4.732
97875W        W67756  17.677  35.586   3.284
97876W        W67757  17.306  21.704  12.949
97877W        W67758  42.974  36.532   4.309
97878W        W67759  23.500  13.637   1.924
97879W        W67760  12.693  36.370  13.340
97880W        W67761  37.980   9.187   2.205
97881W        W67762   3.356  21.047  12.436
97882W        W67763   9.377   3.734  10.434
97883W        W67764  24.674  44.898  11.116
97884W        W67765  17.262  27.672   3.222
97885W        W67766  35.063  40.013   0.439
97886W        W67767  33.600  44.008  12.984
97887W        W67768  37.416  35.956  12.860
97888W        W67769  24.492  18.215  13.486
97889W        W67770  21.172  42.415   2.356
97890W        W67771  25.092  33.611   3.210
97891W        W67772  35.443  30.096  12.410
97892W        W67773  42.437  28.439  13.999
97893W        W67774  27.106  16.110   0.289
97894W        W67775  14.656  20.154  13.950
97895W        W67776  14.804   8.321   1.749
97896W        W67777  34.926  12.613   2.375
97897W        W67778  35.948  20.642   3.336
97898W        W67779   3.824  21.164  11.491
97899W        W67780   0.752  12.341   0.348
97900W        W67781  29.994   1.771   0.248
97901W        W67782   2.458   4.245  14.833
97902W        W67783  40.857   5.895  10.479
97903W        W67784  33.950   7.275  13.977
97904W        W67785   6.423  15.601  10.938
97905W        W67786  12.247  37.461   3.858
97906W        W67787  24.689   5.347  11.982
97907W        W67788  10.747   7.192  11.604
97908W        W67789  33.962   1.771  10.549
97909W        W67790  13.824   3.919  11.523
97910W        W67791  22.544  18.789   4.167
97911W        W67792  21.547   5.354   2.281
97912W        W67793   9.740  40.335   4.600
97913W        W67794  42.794   9.720   1.271
97914W        W67795  10.208   4.792  14.370
97915W        W67796   4.821   7.415  10.009
97916W        W67797  17.139  21.040  14.445
97917W        W67798   5.291  43.333  10.919
97918W        W67799  43.879   0.889  14.967
97919W        W67800  13.775  24.176   1.441
97920W        W67801   4.889  40.440  10.604
97921W        W67802  22.153  26.644   0.768
97922W        W67803  44.473  32.469   4.148
97923W        W67804   2.860   8.215   3.285
97924W        W67805   0.906  12.274  13.422
97925W        W67806  11.797  11.373   2.251
97926W        W67807   1.340  28.465  13.398
97927W        W67808  35.444  35.970  12.452
97928W        W67809  19.100  28.466  13.464
97929W        W67810  43.442  24.146  10.603
97930W        W67811   9.789  32.053   3.753
97931W        W67812  21.225   9.391  10.601
97932W        W67813  23.565  34.940  13.848
97933W        W67814  20.045  20.756  13.842
97934W        W67815  15.271   1.792   2.667
97935W        W67816  17.672   2.802  13.050
97936W        W67817  24.570  25.632  11.036
97937W        W67818  11.199  41.522  13.373
97938W        W67819  14.214   9.681  13.546
97939W        W67820  10.216  18.237   5.154
97940W        W67821   2.328  40.041   1.919
97941W        W67822  33.470  29.599  14.851
97942W        W67823  14.777  24.049  11.125
97943W        W67824  15.714  23.185  12.346
97944W        W67825  27.014  14.729  13.318
97945W        W67826   9.789  37.023   3.651
97946W        W67827  35.064   9.798   0.786
97947W        W67828   2.415  37.073   2.410
97948W        W67829   6.806  24.163   0.925
97949W        W67830  11.741  39.461  14.926
97950W        W67831  14.121  28.939  11.586
97951W        W67832  37.532  38.549   0.249
97952W        W67833  42.326   9.338  12.462
97953W        W67834  19.063   9.848   2.305
97954W        W67835  31.488  15.241   0.372
97955W        W67836   0.877  28.013  10.605
97956W        W67837  22.114  20.260  11.541
97957W        W67838  24.539   8.899  11.504
97958W        W67839   8.380  12.665   2.267
97959W        W67840  42.357  30.945  12.861
97960W        W67841  31.083  10.878  13.493
97961W        W67842  17.784  25.524   4.699
97962W        W67843  22.022   0.424   3.820
97963W        W67844  44.858  26.969  14.358
97964W        W67845  28.012  38.544   1.276
97965W        W67846   1.849  42.903   0.398
97966W        W67847  39.505  41.488  13.026
97967W        W67848   6.381   8.785   5.165
97968W        W67849  19.753  40.540   1.918
97969W        W67850  38.944   7.700   3.674
97970W        W67851  32.984   2.739  13.431
97971W        W67852  27.573  28.460   2.825
97972W        W67853  28.970  17.170  13.967
97973W        W67854   9.378  28.634   2.245
97974W        W67855  36.053   5.922  12.476
97975W        W67856  40.389  43.487  13.959
97976W        W67857  25.089  34.376   0.766
97977W        W67858  20.118  41.497   5.090
97978W        W67859  41.315  20.714   4.228
97979W        W67860  29.589  30.519  12.431
97980W        W67861   7.209  28.565   2.271
97981W        W67862  35.368  32.610   3.279
97982W        W67863  12.645  14.287   3.849
97983W        W67864   8.744  43.889   1.343
97984W        W67865  20.230  27.150   2.259
97985W        W67866  26.474  40.020  10.479
97986W        W67867  36.084  10.303  11.904
97987W        W67868  18.665  44.824   2.369
97988W        W67869  18.262  29.058   2.183
97989W        W67870  41.790   9.284   2.342
97990W        W67871  43.776  38.017   3.746
97991W        W67872  32.138  33.002   2.811
97992W        W67873  40.043   7.717  14.387
97993W        W67874  25.500  32.954  11.527
97994W        W67875  10.800  20.747  12.550
97995W        W67876   6.921  37.439  11.597
97996W        W67877  38.508  11.829   4.293
97997W        W67878   8.870  23.618  11.979
97998W        W67879  33.946  37.851   0.896
97999W        W67880  32.625  38.394  14.431
98000W        W67881   7.237   5.255  11.931
98001W        W67882  44.270  23.735  11.991
98002W        W67883  29.536   8.808   1.281
98003W        W67884   8.366   3.943  11.372
98004W        W67885  22.571  33.438   0.357
98005W        W67886  18.582  40.988   3.633
98006W        W67887   8.361   3.305   2.244
98007W        W67888  27.047  36.928   3.684
98008W        W67889  13.212  15.309   3.773
98009W        W67890  13.132  20.763   1.240
98010W        W67891  26.163  19.193  13.492
98011W        W67892  16.582  24.205  11.527
98012W        W67893  35.561  26.670   0.741
98013W        W67894  34.478  16.252  14.032
98014W        W67895  38.982   9.380   1.360
98015W        W67896  39.382  42.438  13.539
98016W        W67897   6.188  43.430   2.232
98017W        W67898  40.985  28.148  11.935
98018W        W67899  21.619  36.545   4.140
98019W        W67900  13.819  35.516   0.378
98020W        W67901  29.949  26.624  12.461
98021W        W67902  18.241  26.957   0.443
98022W        W67903   3.326  44.446   0.778
98023W        W67904  40.483  33.917  11.432
98024W        W67905  16.674   4.815  11.080
98025W        W67906   4.821  33.548   2.824
98026W        W67907  19.183  19.222   3.358
98027W        W67908  18.726  27.944  14.301
98028W        W67909  27.505  18.620   0.444
98029W        W67910  11.854  31.054  11.004
98030W        W67911  42.524  43.379  11.111
98031W        W67912  30.556  22.170  13.957
98032W        W67913  40.455  40.521  13.924
98033W        W67914  29.512   1.908  10.607
98034W        W67915  44.299  35.950  14.479
98035W        W67916  23.600  17.787  12.850
98036W        W67917  37.003   0.292   3.246
98037W        W67918   4.767  34.958  13.896
98038W        W67919  12.810   8.730  12.837
98039W        W67920  36.379  10.697  13.319
98040W        W67921  15.236  10.730   1.925
98041W        W67922  44.369  19.605  10.088
98042W        W67923  24.980  31.937  13.546
98043W        W67924  26.030  14.140   2.400
98044W        W67925  25.510  19.649  14.366
98045W        W67926  30.910  43.865  10.526
98046W        W67927  43.767  19.643   0.271
98047W        W67928  19.244  34.896   1.252
98048W        W67929  19.186  17.572   3.247
98049W        W67930  26.699  33.387   3.358
98050W        W67931   1.481  34.478  10.457
98051W        W67932  38.950  19.077   4.323
98052W        W67933  42.373  16.109   2.841
98053W        W67934  27.011  42.835  13.043
98054W        W67935  21.034  10.302   5.122
98055W        W67936   9.365  34.375  10.956
98056W        W67937  27.617  22.048  12.344
98057W        W67938  14.152   0.798  14.365
98058W        W67939   8.780  40.033  12.064
98059W        W67940  15.823  42.976  10.945
98060W        W67941  11.267  41.304   2.673
98061W        W67942  24.696  28.098   2.383
98062W        W67943  34.019   4.314  14.346
98063W        W67944  30.014  10.729  13.943
98064W        W67945   8.252   0.814   1.876
98065W        W67946  23.136  34.471  13.913
98066W        W67947  43.891   8.857   2.268
98067W        W67948  38.973  27.950   2.686
98068W        W67949   4.780  44.939  11.098
98069W        W67950  27.994  19.200   2.378
98070W        W67951   5.697  31.106   2.682
98071W        W67952   4.447   9.860   0.911
98072W        W67953   2.237  41.905   0.317
98073W        W67954  41.877  28.047   1.861
98074W        W67955  40.892  44.420  13.903
98075W        W67956  12.139  36.959   4.237
98076W        W67957   4.911   9.288   2.275
98077W        W67958  10.801  30.971  11.512
98078W        W67959  42.359  20.645   1.699
98079W        W67960  29.044   3.434  10.418
98080W        W67961  20.659   3.763   0.256
98081W        W67962  23.585  22.055   0.417
98082W        W67963   9.331  17.781  13.444
98083W        W67964  27.541   3.779   0.249
98084W        W67965   9.358  28.487  12.344
98085W        W67966  39.055  15.616   4.603
98086W        W67967  23.178  33.919  14.379
98087W        W67968  30.019  24.706   2.224
98088W        W67969  24.075  36.870  10.602
98089W        W67970  42.352  29.550  14.515
98090W        W67971  16.141  11.698   3.681
98091W        W67972  41.931  13.838  14.457
98092W        W67973   6.683  36.900   4.134
98093W        W67974  44.271  29.643   0.880
98094W        W67975  30.649  31.509   1.248
98095W        W67976   8.805   6.718  14.878
98096W        W67977  38.018  21.569   1.757
98097W        W67978  10.766  34.611  11.054
98098W        W67979   2.889  20.544   1.843
98099W        W67980  15.636  31.581  11.090
98100W        W67981  18.129  29.069  13.019
98101W        W67982  30.909  21.032   0.761
98102W        W67983  33.939  30.081   4.777
98103W        W67984   8.230  15.314  13.874
98104W        W67985   6.343   9.157  14.462
98105W        W67986  17.624  39.933  13.823
98106W        W67987  36.386  25.571  13.833
98107W        W67988  10.751  16.141   1.444
98108W        W67989  14.621  33.058   3.846
98109W        W67990  22.602  23.557  14.859
98110W        W67991  16.189  35.441   1.343
98111W        W67992  12.223  30.935   4.192
98112W        W67993  30.570   0.807   1.355
98113W        W67994  11.821  17.281   1.391
98114W        W67995   2.944  26.512  12.384
98115W        W67996  13.798  29.438   1.748
98116W        W67997  20.674  18.180   4.751
98117W        W67998  14.330  35.579  14.899
98118W        W67999  25.534  32.634   2.339
98119W        W68000   7.266  35.559  11.601
98120W        W68001  26.513  44.959  14.957
98121W        W68002   7.847   6.778  12.465
98122W        W68003  28.553  19.759   0.362
98123W        W68004   2.854  29.602  14.954
98124W        W68005  33.563  28.094   5.286
98125W        W68006  27.656  18.086  13.869
98126W        W68007   3.766  26.594   2.796
98127W        W68008  23.727   8.292   3.806
98128W        W68009   7.788  11.246   3.706
98129W        W68010  29.095  13.741  11.606
98130W        W68011  21.657  11.174  10.480
98131W        W68012   9.253  25.529   0.753
98132W        W68013  35.358  26.572   1.774
98133W        W68014   1.281   3.293  13.381
98134W        W68015  11.661  44.922  13.316
98135W        W68016  13.687  36.916   5.685
98136W        W68017  37.934  31.562  11.454
98137W        W68018  33.448  39.020   0.757
98138W        W68019   4.747  33.036   1.918
98139W        W68020   9.184  34.873   4.733
98140W        W68021  41.366  28.463   4.273
98141W        W68022  32.472   4.287  13.477
98142W        W68023  17.216   2.238  10.940
98143W        W68024  41.384  33.048   2.396
98144W        W68025  26.119  13.646  14.325
98145W        W68026  38.546  44.833   1.439
98146W        W68027  30.966   0.404  10.020
98147W        W68028  40.848  14.244   4.763
98148W        W68029  42.349  15.636   3.156
98149W        W68030  18.622  36.457  12.339
98150W        W68031   0.880  31.002  13.909
98151W        W68032  17.558  24.182  12.003
98152W        W68033  42.819  42.884  11.543
98153W        W68034  38.932  11.147   3.186
98154W        W68035  10.168   4.313  11.600
98155W        W68036  31.493  42.417   0.434
98156W        W68037  39.005   9.251   2.791
98157W        W68038  35.539  37.951  13.336
98158W        W68039  44.283  35.451   3.172
98159W        W68040  27.502  12.324   1.771
98160W        W68041  15.663  18.715  12.867
98161W        W68042  21.092  14.747  14.375
98162W        W68043  26.586  10.346   5.098
98163W        W68044  30.951  42.469   3.239
98164W        W68045   4.390   0.953  14.861
98165W        W68046   5.300  37.873   2.412
98166W        W68047   7.407  14.259  14.437
98167W        W68048  22.535  29.072  10.058
98168W        W68049   5.716  10.852  12.497
98169W        W68050   5.210  40.902  11.607
98170W        W68051  23.642  11.782  14.898
98171W        W68052  26.465  41.533  12.354
98172W        W68053  40.331  35.863  14.334
98173W        W68054   7.391  28.963  12.448
98174W        W68055   5.249  39.539  13.335
98175W        W68056  19.610  33.912  10.428
98176W        W68057  32.898  14.177  12.987
98177W        W68058  39.815  21.545  11.378
98178W        W68059  35.918   7.784   4.701
98179W        W68060  16.601  13.282   2.334
98180W        W68061  43.019  43.402  14.384
98181W        W68062  19.087  22.575  11.453
98182W        W68063  19.194  25.001   3.862
98183W        W68064   4.229  23.235  14.337
98184W        W68065  35.584  26.145  11.087
98185W        W68066  32.891  11.808  14.355
98186W        W68067  42.944  42.824  12.472
98187W        W68068  44.923  21.117   1.414
98188W        W68069  42.915  32.430  12.408
98189W        W68070  18.569  16.616   3.206
98190W        W68071  21.526  44.378   3.707
98191W        W68072   6.229  22.999   1.794
98192W        W68073  21.208  39.047  13.382
98193W        W68074  29.658   8.310  14.337
98194W        W68075  24.027  13.617  13.011
98195W        W68076  34.008  26.059  10.920
98196W        W68077  12.301   1.957   0.874
98197W        W68078   0.436  23.597   4.796
98198W        W68079  37.455  28.184   3.681
98199W        W68080  16.734  32.497   2.196
98200W        W68081   9.170   7.887   2.397
98201W        W68082  28.467  43.842  11.603
98202W        W68083  41.533  40.815  11.393
98203W        W68084  32.900  29.510   4.670
98204W        W68085   3.219  10.226  11.103
98205W        W68086  34.911  22.045  14.493
98206W        W68087   4.424  26.519  12.387
98207W        W68088  42.333  19.278  13.370
98208W        W68089  32.577  34.427   1.292
98209W        W68090  35.524  23.178  12.949
98210W        W68091  14.672   0.930   0.908
98211W        W68092  10.670   5.393  10.982
98212W        W68093  28.991   8.175   2.261
98213W        W68094  19.177  30.633  10.008
98214W        W68095  20.579  21.183  11.607
98215W        W68096   5.298  31.016   1.899
98216W        W68097  34.443  21.031  11.956
98217W        W68098   9.316  10.316   4.819
98218W        W68099  15.661  13.256  13.839
98219W        W68100  23.708  44.845  14.321
98220W        W68101  24.599  38.841  14.281
98221W        W68102  21.176  17.641   4.798
98222W        W68103  16.641  41.822   0.923
98223W        W68104  18.668  15.202  12.414
98224W        W68105  29.023   6.292  13.928
98225W        W68106  19.771  17.066   1.406
98226W        W68107  41.437  42.479  11.575
98227W        W68108  23.179  36.972   2.771
98228W        W68109  10.802   4.899  10.515
98229W        W68110  22.079   8.900  12.417
98230W        W68111  21.204  10.382  12.833
98231W        W68112  34.880  38.483   4.144
98232W        W68113   5.713  21.697  12.882
98233W        W68114  26.075  12.737   1.382
98234W        W68115   3.315  26.072   1.343
98235W        W68116  31.115  23.101   3.653
98236W        W68117  24.652  30.015  14.440
98237W        W68118  41.423  33.927  12.013
98238W        W68119  32.085  13.714   4.124
98239W        W68120   5.212   5.196   4.829
98240W        W68121  41.031  12.126   2.214
98241W        W68122   9.216  12.352  13.962
98242W        W68123  37.525  44.770   0.739
98243W        W68124   2.789  14.802  14.307
98244W        W68125   0.364  23.103   3.233
98245W        W68126  27.507  14.791  14.379
98246W        W68127  22.610  23.513   4.718
98247W        W68128  12.289   6.375  14.877
98248W        W68129   4.832  10.173  10.412
98249W        W68130  20.090  26.162  11.450
98250W        W68131  28.591  35.394  11.502
98251W        W68132  36.531  14.599  13.489
98252W        W68133   1.916  37.077  10.415
98253W        W68134  27.680  41.960  14.376
98254W        W68135  16.795  11.652   1.733
98255W        W68136  13.809   2.926   0.451
98256W        W68137  33.072   2.845   2.369
98257W        W68138  14.797  16.723   0.821
98258W        W68139  25.132  22.523   4.761
98259W        W68140  43.351  28.967  12.490
98260W        W68141  16.661   4.918  11.490
98261W        W68142   1.758  31.571   4.802
98262W        W68143  16.658  29.585   4.691
98263W        W68144  25.168   1.437  13.308
98264W        W68145  42.369   3.433  14.418
98265W        W68146   1.822  24.531   1.827
98266W        W68147  24.228  32.118  14.839
98267W        W68148   0.825  34.609   2.401
98268W        W68149  23.215  38.367   3.259
98269W        W68150  15.809  24.683  11.939
98270W        W68151  19.044   5.901  14.408
98271W        W68152  23.990  21.093   0.351
98272W        W68153   2.455  38.456  12.440
98273W        W68154  31.090  31.920   1.344
98274W        W68155  22.721  29.521  10.603
98275W        W68156  33.073  33.909   2.898
98276W        W68157  10.352   7.707   3.775
98277W        W68158  42.951  15.582  12.939
98278W        W68159  24.484  10.705   0.730
98279W        W68160  18.675  24.664   2.892
98280W        W68161  27.995  28.141  13.887
98281W        W68162  43.766  22.103   1.697
98282W        W68163   1.313  34.004   2.733
98283W        W68164  27.489  34.108  13.487
98284W        W68165  43.799  34.072   3.305
98285W        W68166  43.774  26.530  14.006
98286W        W68167   4.901  21.195   4.263
98287W        W68168  15.696   6.361   0.355
98288W        W68169  21.030  35.556   3.147
98289W        W68170  40.367  21.236  14.480
98290W        W68171   5.411  33.126  14.849
98291W        W68172  18.599  20.215  11.055
98292W        W68173   2.901  17.592   0.884
98293W        W68174   6.345  30.020   4.728
98294W        W68175  29.929  14.201  11.093
98295W        W68176  36.542  30.458  11.445
98296W        W68177   7.268   9.330   4.143
98297W        W68178   2.374   0.986   4.215
98298W        W68179  22.173  19.090   4.792
98299W        W68180   9.395  16.784  11.458
98300W        W68181   0.970  38.560   3.271
98301W        W68182  43.443  41.496   4.760
98302W        W68183  36.361  10.714   4.749
98303W        W68184  24.684  30.569   3.305
98304W        W68185  31.141   2.456   4.281
98305W        W68186   7.669  44.283  10.990
98306W        W68187  36.435   1.256  10.960
98307W        W68188   4.402  10.738  11.387
98308W        W68189  29.652  14.644   1.265
98309W        W68190  37.087  28.561  10.526
98310W        W68191   1.955  42.517   4.225
98311W        W68192  29.138  44.387   4.746
98312W        W68193   5.272  38.444   2.778
98313W        W68194  23.164  23.125   3.702
98314W        W68195  16.791  11.171   1.378
98315W        W68196  27.486  30.530   4.325
98316W        W68197  18.709  18.782  14.929
98317W        W68198   5.237  24.136  12.017
98318W        W68199   7.403  20.615  10.640
98319W        W68200  29.093  26.582   0.275
98320W        W68201  14.678  36.079   1.248
98321W        W68202  40.913  17.614   2.315
98322W        W68203  18.659  34.930  11.579
98323W        W68204   2.760  42.941   0.954
98324W        W68205  12.333  34.928  14.450
98325W        W68206   9.303  11.292   3.351
98326W        W68207  32.930  33.928   4.332
98327W        W68208  40.885  34.555  12.353
98328W        W68209  31.058   1.934   3.782
98329W        W68210  17.699   4.297   4.615
98330W        W68211  24.176  23.213  12.994
98331W        W68212  33.924   1.879   2.878
98332W        W68213  37.350  36.350  13.308
98333W        W68214  13.271  13.245   1.302
98334W        W68215  39.449  32.018   0.846
98335W        W68216  27.617  26.515   0.271
98336W        W68217  43.350  13.161   2.334
98337W        W68218   1.785  36.991  11.088
98338W        W68219   8.809  36.439   4.673
98339W        W68220  32.988  15.091  10.989
98340W        W68221   2.761  30.498   1.354
98341W        W68222   6.417  16.251  12.931
98342W        W68223  35.090  25.991   2.662
98343W        W68224  19.595   5.417   4.634
98344W        W68225  13.782  12.355  12.401
98345W        W68226  25.531  26.193  14.976
98346W        W68227  43.957  42.388   0.924
98347W        W68228  23.674  38.951  11.951
98348W        W68229   3.230   7.817   0.457
98349W        W68230  39.333  14.262   0.844
98350W        W68231   9.333   2.247  12.340
98351W        W68232  38.427   6.883   2.743
98352W        W68233  11.133   1.387   4.273
98353W        W68234  44.916   3.391  12.071
98354W        W68235   8.328  39.397   2.728
98355W        W68236  25.479  35.443   4.202
98356W        W68237   0.298  27.006  10.503
98357W        W68238  12.811  32.142  12.945
98358W        W68239  14.301  44.275  12.406
98359W        W68240  33.906  10.167  14.385
98360W        W68241  29.615   6.402   2.365
98361W        W68242  24.202  37.414   1.709
98362W        W68243  31.496   4.420   1.431
98363W        W68244  40.529   1.804   0.365
98364W        W68245   8.293  28.124   1.745
98365W        W68246  20.154  19.693  14.413
98366W        W68247  26.961  11.779  13.833
98367W        W68248  42.477  42.019  13.996
98368W        W68249  24.057   2.791  10.926
98369W        W68250   1.749  18.727   4.811
98370W        W68251  17.686  44.462   2.305
98371W        W68252  20.206  17.064  14.479
98372W        W68253   3.409  11.854   0.455
98373W        W68254  27.017  18.650  13.402
98374W        W68255   0.953  34.035   4.816
98375W        W68256  30.067  35.949   2.787
98376W        W68257  40.509  13.273   3.722
98377W        W68258  26.613  18.096   4.748
98378W        W68259   3.343  27.515  14.493
98379W        W68260  19.098   5.784   3.177
98380W        W68261  21.111  33.971  10.434
98381W        W68262  22.057   0.905   0.409
98382W        W68263  11.628  39.054  12.368
98383W        W68264  37.571  30.156   2.369
98384W        W68265  28.075  36.034  10.134
98385W        W68266   6.228  37.041   3.698
98386W        W68267  17.273  28.164  13.509
98387W        W68268   8.165  26.693   4.251
98388W        W68269   0.827  44.773   1.257
98389W        W68270  33.402  42.435   3.352
98390W        W68271  39.331  31.424  11.414
98391W        W68272  12.659  37.065   3.844
98392W        W68273   5.314   7.912  13.050
98393W        W68274  30.532  36.484  14.275
98394W        W68275  14.324  44.824  12.914
98395W        W68276   5.266   9.831  12.494
98396W        W68277  34.608  31.049  13.477
98397W        W68278  25.596  23.608  12.360
98398W        W68279  23.707  20.606  14.409
98399W        W68280  22.178  27.626  14.843
98400W        W68281  38.536  17.799   3.198
98401W        W68282  44.266  22.636  10.505
98402W        W68283   1.322  26.530  13.900
98403W        W68284  11.866  32.609   2.408
98404W        W68285  44.000   9.363   0.946
98405W        W68286  12.202  33.502   4.760
98406W        W68287  11.145  11.753  14.421
98407W        W68288  42.910  25.115  13.867
98408W        W68289  33.597   8.397   3.323
98409W        W68290  30.428  28.125   0.370
98410W        W68291  10.753  44.973   4.655
98411W        W68292  22.744  42.361   1.231
98412W        W68293  24.117   3.853   3.712
98413W        W68294   0.907  38.036   2.693
98414W        W68295  39.876  43.872   4.165
98415W        W68296  14.651  24.501  14.471
98416W        W68297  39.557  39.817   2.709
98417W        W68298  32.983  24.185   2.299
98418W        W68299  13.309  40.020  12.928
98419W        W68300  44.390  11.286  12.410
98420W        W68301  11.339  28.105   1.309
98421W        W68302  25.540  40.328  12.055
98422W        W68303  18.754  30.161  12.908
98423W        W68304  30.116  20.232   4.667
98424W        W68305  25.683  42.350  11.605
98425W        W68306  40.965  35.910   1.404
98426W        W68307   4.304  43.916   0.406
98427W        W68308  12.610  31.027  12.912
98428W        W68309  31.001  32.612  11.378
98429W        W68310   7.404   5.922  11.997
98430W        W68311   8.750  17.599  12.492
98431W        W68312  33.114   4.339  12.369
98432W        W68313  21.655  16.604  10.896
98433W        W68314  29.461  42.490  14.468
98434W        W68315   9.168  34.434  12.087
98435W        W68316  28.938  19.160  13.817
98436W        W68317  19.726   1.391   1.857
98437W        W68318  28.451  11.861  11.881
98438W        W68319   9.170  29.578  13.411
98439W        W68320   4.384  25.605  14.327
98440W        W68321  13.796   2.862   3.264
98441W        W68322   5.424  17.616   3.262
98442W        W68323   2.441   5.815  14.477
98443W        W68324  11.253  12.283   4.705
98444W        W68325   8.341  26.631  12.534
98445W        W68326  28.566  16.757  12.348
98446W        W68327  42.861  20.197  11.061
98447W        W68328  42.353  13.641  11.942
98448W        W68329  42.928  18.074  11.117
98449W        W68330  31.083  33.946  13.914
98450W        W68331  18.721  38.560  12.389
98451W        W68332   6.862  30.532   2.846
98452W        W68333   4.377   8.868  14.409
98453W        W68334  42.912  13.768  13.409
98454W        W68335  43.451   2.339  11.864
98455W        W68336  17.568  19.073   0.887
98456W        W68337  35.092  10.340  13.018
98457W        W68338   8.342   3.360  12.540
98458W        W68339  28.561  42.804   4.673
98459W        W68340  33.476  33.571   3.318
98460W        W68341  36.871  26.182  13.047
98461W        W68342  24.645  18.159  12.413
98462W        W68343   9.232  37.990  14.897
98463W        W68344  39.042   6.345  11.439
98464W        W68345  41.367  28.025   3.238
98465W        W68346  31.051  40.360  13.939
98466W        W68347   2.439  19.239  13.044
98467W        W68348   2.866  44.822  12.929
98468W        W68349  42.423  43.010   1.732
98469W        W68350   1.244  20.269  14.424
98470W        W68351   1.963  25.699  10.425
98471W        W68352   9.732  29.039  10.550
98472W        W68353   7.696   7.700  10.971
98473W        W68354   2.734  35.907   4.689
98474W        W68355  25.611   0.332  10.502
98475W        W68356  18.564  42.286  13.965
98476W        W68357  18.722  26.615  14.871
98477W        W68358  38.920  18.661  10.490
98478W        W68359   5.875  23.192   2.723
98479W        W68360  30.612  15.315  11.990
98480W        W68361  39.559  34.118  12.927
98481W        W68362  42.322  13.780   1.825
98482W        W68363  38.529   8.331   3.259
98483W        W68364   2.865   3.767  14.015
98484W        W68365  15.226   7.235  10.464
98485W        W68366   7.402  39.513   3.222
98486W        W68367  36.373  15.646  14.341
98487W        W68368  10.718  41.890  13.437
98488W        W68369  26.572   6.690  12.342
98489W        W68370  41.462   3.809  12.866
98490W        W68371   0.844  40.548   1.705
98491W        W68372  37.930  40.454  14.937
98492W        W68373  43.806   1.377  14.335
98493W        W68374  15.279   6.843   1.779
98494W        W68375  33.071  13.823   2.298
98495W        W68376  23.643  34.955  14.968
98496W        W68377  27.646   7.266   1.350
98497W        W68378   8.755  35.512  14.372
98498W        W68379  22.654  33.582  13.060
98499W        W68380  41.991  29.992  12.894
98500W        W68381  21.669  11.707   1.741
98501W        W68382   3.392  18.059  13.339
98502W        W68383  27.548  28.479   3.236
98503W        W68384  14.144  25.670   2.331
98504W        W68385  35.381  20.066   4.647
98505W        W68386  38.976  23.000   2.284
98506W        W68387  34.468  18.196   2.396
98507W        W68388   0.788  14.120   2.770
98508W        W68389   3.458  31.926  13.961
98509W        W68390  32.078  44.327   0.846
98510W        W68391  28.469  17.067   2.222
98511W        W68392   3.795   2.731   2.201
98512W        W68393   5.387   8.883  14.416
98513W        W68394  40.000  14.312   1.387
98514W        W68395  22.212  12.346   2.753
98515W        W68396  44.805   2.781   3.633
98516W        W68397  39.320  34.417   4.753
98517W        W68398  40.836  35.080   4.268
98518W        W68399  19.616   6.914   4.281
98519W        W68400  42.906   4.912   1.421
98520W        W68401  41.978   9.318   1.345
98521W        W68402  31.531   2.806   0.434
98522W        W68403  18.715  43.815  10.406
98523W        W68404   6.874  37.013  13.423
98524W        W68405  26.555  36.915  11.879
98525W        W68406  23.716  30.969  11.547
98526W        W68407  13.673  24.547   3.173
98527W        W68408  24.134  21.135   4.116
98528W        W68409  21.168   7.179  12.834
98529W        W68410  44.273  16.221  11.461
98530W        W68411  12.180  30.601  10.450
98531W        W68412  42.857  40.890   2.322
98532W        W68413  12.662  23.205   3.248
98533W        W68414  41.978  17.640  12.947
98534W        W68415  17.709   1.267  13.963
98535W        W68416  22.651  38.499  12.958
98536W        W68417  43.918  36.098   1.290
98537W        W68418  42.345  17.136   2.235
98538W        W68419  19.236  36.894  10.507
98539W        W68420  40.351  42.894   2.786
98540W        W68421  26.010  27.950  13.471
98541W        W68422  29.117  31.902  13.989
98542W        W68423  20.632  25.110  11.076
98543W        W68424  18.581  44.385   0.772
98544W        W68425  32.986  14.617   2.375
98545W        W68426  15.223  25.191   1.696
98546W        W68427   6.352  39.355  10.613
98547W        W68428   0.483  27.475   4.669
98548W        W68429  26.978  26.109   1.910
98549W        W68430  27.970  12.291   1.397
98550W        W68431  40.900  39.964   1.704
98551W        W68432  39.888   1.931  11.508
98552W        W68433   6.417  28.548   1.931
98553W        W68434  36.859  31.929   0.865
98554W        W68435  20.526   6.332  12.008
98555W        W68436  34.995  39.009   1.709
98556W        W68437  23.068  27.028  13.846
98557W        W68438  29.973  21.742   4.163
98558W        W68439  14.834  21.720  12.907
98559W        W68440  29.153   6.276  12.383
98560W        W68441  11.303   3.930   2.201
98561W        W68442  14.279  43.793   4.775
98562W        W68443   3.855  13.209  12.463
98563W        W68444  37.046  28.935  12.565
98564W        W68445  32.116   9.714   1.892
98565W        W68446   9.792  16.239   5.703
98566W        W68447  30.049  25.620   4.824
98567W        W68448  16.666  18.067  12.387
98568W        W68449  29.939  30.468   0.874
98569W        W68450  38.559  34.892   1.228
98570W        W68451  34.600  32.893   2.706
98571W        W68452  13.328  11.692   0.429
98572W        W68453   3.351  14.662  13.325
98573W        W68454  40.848  27.639  12.386
98574W        W68455   8.215   1.760  12.969
98575W        W68456   8.273  30.532   2.204
98576W        W68457  44.489  41.917   0.333
98577W        W68458  20.572  24.555   2.892
98578W        W68459  32.627  28.640  11.998
98579W        W68460  33.581  36.530   3.740
98580W        W68461   3.306  26.697  12.475
98581W        W68462   2.434   0.918  13.458
98582W        W68463  32.418   0.960   1.746
98583W        W68464  17.607  18.118   3.316
98584W        W68465  10.298  36.053  13.425
98585W        W68466   8.215  21.104  12.934
98586W        W68467  28.005  44.316  11.512
98587W        W68468  41.293  42.345  10.604
98588W        W68469  34.968   8.776   0.445
98589W        W68470  31.999  13.646  14.425
98590W        W68471  27.006  13.324  10.532
98591W        W68472  44.849  31.132  13.000
98592W        W68473  35.509  11.835  10.611
98593W        W68474  35.403   1.965   3.190
98594W        W68475  10.364   9.837   0.763
98595W        W68476  16.125   3.833  10.456
98596W        W68477  33.537  16.278   3.841
98597W        W68478   2.275  34.543  12.883
98598W        W68479  43.936   7.199   4.173
98599W        W68480  36.424  19.145   4.702
98600W        W68481   6.777  22.137  13.062
98601W        W68482  42.481   3.217  13.940
98602W        W68483  41.960  18.288   3.863
98603W        W68484   9.809  41.937   4.144
98604W        W68485   2.469  32.016  14.304
98605W        W68486  16.709  37.018   3.179
98606W        W68487  34.889  41.907  10.511
98607W        W68488  16.789   7.253   4.354
98608W        W68489  41.343   1.755  10.572
98609W        W68490  23.186  33.915   2.230
98610W        W68491  21.258  20.567  12.538
98611W        W68492  12.231  34.486   0.284
98612W        W68493  21.087  35.402   1.405
98613W        W68494  36.027  25.977  11.419
98614W        W68495  32.484  14.283   3.211
98615W        W68496   3.443  19.051  12.433
98616W        W68497   7.771   4.725  14.418
98617W        W68498   4.403   3.325   4.250
98618W        W68499  15.627   4.375   0.482
98619W        W68500  35.088  38.973  13.987
98620W        W68501  23.716  27.181   4.236
98621W        W68502  21.564  35.597   2.184
98622W        W68503  33.470  15.278   0.729
98623W        W68504  24.486  27.067  12.418
98624W        W68505   2.860   3.867   4.759
98625W        W68506   0.759  20.654  11.996
98626W        W68507  36.075  21.127  10.945
98627W        W68508   3.932   1.434  11.865
98628W        W68509  37.858  22.744  13.906
98629W        W68510  36.055  21.631  10.945
98630W        W68511  19.073   7.303   2.213
98631W        W68512  15.637  39.433  11.108
98632W        W68513  13.771  34.071   2.199
98633W        W68514  43.790  30.932   1.376
98634W        W68515  15.628   9.267   1.310
98635W        W68516   3.299  14.835  13.027
98636W        W68517  13.647   6.784  10.978
98637W        W68518  27.141   4.820   1.770
98638W        W68519  11.636  36.499   3.818
98639W        W68520   1.779  44.428   2.340
98640W        W68521   9.819  30.116  14.495
98641W        W68522  37.894  18.054   1.441
98642W        W68523  26.091  15.585  14.857
98643W        W68524  35.999  32.441   1.743
98644W        W68525  15.092  19.748   3.804
98645W        W68526  10.226  28.580   3.651
98646W        W68527  38.556  40.543  11.519
98647W        W68528  43.494  10.212  14.396
98648W        W68529  40.352  12.757   4.349
98649W        W68530  41.532  27.155  14.431
98650W        W68531  44.424  37.894   3.670
98651W        W68532  23.192  18.714  14.305
98652W        W68533   6.262   7.362   5.143
98653W        W68534  33.048   7.895   3.810
98654W        W68535  19.560  42.463  13.036
98655W        W68536  34.995  31.985   2.199
98656W        W68537  26.495  34.608  12.877
98657W        W68538  42.524  13.163   4.328
98658W        W68539  11.666   9.371   0.389
98659W        W68540  26.150  12.138  14.910
98660W        W68541   6.730  32.990   3.737
98661W        W68542  36.394  11.713   9.923
98662W        W68543  43.877  43.967   4.314
98663W        W68544  37.427  26.701   1.384
98664W        W68545  21.729  11.702   4.748
98665W        W68546  40.046  35.421   1.219
98666W        W68547  36.089  19.276  13.373
98667W        W68548  22.573  15.140  14.515
98668W        W68549  19.102  18.657  10.906
98669W        W68550  39.013  11.185   4.203
98670W        W68551  15.293  15.118   1.272
98671W        W68552  21.102  26.083   3.262
98672W        W68553  26.597  31.941   2.266
98673W        W68554  21.146  30.066  13.878
98674W        W68555  35.053  14.236   4.622
98675W        W68556  22.666  22.599  13.959
98676W        W68557   9.861  18.769  13.980
98677W        W68558  26.467  20.548   0.948
98678W        W68559  31.942   1.439   2.387
98679W        W68560  37.055   1.768   4.776
98680W        W68561   7.830  10.382   3.700
98681W        W68562  16.213   3.348  10.938
98682W        W68563  25.536   4.245   1.286
98683W        W68564  13.195  42.945  12.054
98684W        W68565   6.260  29.594  13.032
98685W        W68566  23.562  42.811  13.801
98686W        W68567  29.546  33.419  10.413
98687W        W68568  26.120   6.763   3.743
98688W        W68569  41.023  18.111  11.904
98689W        W68570  23.732  28.477   4.624
98690W        W68571  24.014  26.625  12.079
98691W        W68572  25.695  12.805   4.643
98692W        W68573  16.124  17.565   1.846
98693W        W68574  35.093   8.839  11.526
98694W        W68575  19.573   8.776   4.665
98695W        W68576  37.000  15.315   2.722
98696W        W68577  12.838   7.682   2.291
98697W        W68578  13.188  17.694  14.458
98698W        W68579  14.155  28.077  11.855
98699W        W68580  21.107  43.926   2.722
98700W        W68581  27.951  42.490  11.064
98701W        W68582  25.581   7.858   4.778
98702W        W68583  29.652  16.129   2.320
98703W        W68584  11.187  22.674  11.937
98704W        W68585  16.110  22.242  12.571
98705W        W68586  27.146  32.399  12.431
98706W        W68587  32.022  12.148   2.406
98707W        W68588  24.682  44.355   4.163
98708W        W68589  42.853  14.256   0.854
98709W        W68590   3.246  35.925  11.486
98710W        W68591   6.271  28.996   1.253
98711W        W68592  43.972  24.651  10.557
98712W        W68593  43.484  16.130   2.731
98713W        W68594  28.652   4.835  12.576
98714W        W68595  11.358  37.016  13.834
98715W        W68596   3.798  11.129  11.008
98716W        W68597  38.358  13.652   4.774
98717W        W68598  19.644   6.420   0.805
98718W        W68599   0.771  20.726   4.770
98719W        W68600  16.683  37.025  13.932
98720W        W68601   1.780  21.564  13.036
98721W        W68602   8.268  16.283  10.500
98722W        W68603  40.874   0.255   0.864
98723W        W68604   9.815  10.240   1.232
98724W        W68605  34.112  38.920  11.588
98725W        W68606  12.692  18.744   2.368
98726W        W68607  13.621  13.661  13.516
98727W        W68608  37.847  42.368  10.950
98728W        W68609  44.810  36.490   0.788
98729W        W68610  28.948   1.825  10.528
98730W        W68611   8.726  37.559   4.166
98731W        W68612  37.926  20.713   1.778
98732W        W68613  12.120   4.853  13.466
98733W        W68614  11.200  43.442  10.597
98734W        W68615  39.998  23.562   3.190
98735W        W68616  31.571  19.143  10.144
98736W        W68617  32.895  33.380   4.829
98737W        W68618  14.199  42.428   2.854
98738W        W68619  21.057   6.922   2.412
98739W        W68620  21.578  30.529   2.180
98740W        W68621  18.719   4.926  10.137
98741W        W68622  14.821   2.316  11.549
98742W        W68623  22.223  41.826  10.555
98743W        W68624  39.463  19.615  12.553
98744W        W68625   9.281   8.332   3.256
98745W        W68626   4.875  15.635  13.524
98746W        W68627  23.558  27.563  12.416
98747W        W68628  10.854  41.428  13.919
98748W        W68629  18.109  33.598   3.722
98749W        W68630  23.635  15.256  14.386
98750W        W68631   8.387  39.363   3.720
98751W        W68632  10.292  25.012  13.373
98752W        W68633  14.631  11.216   4.709
98753W        W68634  41.293  30.609  10.494
98754W        W68635  26.190  38.064  10.604
98755W        W68636   3.389   6.344  10.645
98756W        W68637  21.619  38.535  14.826
98757W        W68638   3.222  12.338   1.257
98758W        W68639   6.321  37.487   0.761
98759W        W68640  27.597  30.077   0.367
98760W        W68641  22.191  19.267   2.890
98761W        W68642  19.146  32.598   4.146
98762W        W68643  32.935  36.901   1.212
98763W        W68644   9.873  31.911  13.405
98764W        W68645   8.873   2.343   3.191
98765W        W68646   1.261  40.413  10.557
98766W        W68647   9.875  31.038  11.884
98767W        W68648  16.627  10.700   2.671
98768W        W68649  39.488   2.379  11.451
98769W        W68650  12.293  44.269   4.660
98770W        W68651  13.624  21.156  11.924
98771W        W68652   6.227  42.991  14.465
98772W        W68653   8.351  12.658  12.988
98773W        W68654  21.532   3.324  14.275
98774W        W68655  17.153  16.179   3.795
98775W        W68656  37.390  13.739   1.298
98776W        W68657  38.395  18.160   4.213
98777W        W68658  20.203  22.073   4.783
98778W        W68659   5.803  26.480   3.304
98779W        W68660  41.347  22.223   3.269
98780W        W68661   7.709  25.181  13.009
98781W        W68662  29.644  44.930   2.828
98782W        W68663  28.439  42.812   3.706
98783W        W68664  17.083  11.665   0.437
98784W        W68665  14.670  11.631   4.644
98785W        W68666  14.197  39.480  10.926
98786W        W68667  28.650   3.929  12.906
98787W        W68668  12.267  22.174   0.810
98788W        W68669  40.877  33.386   2.257
98789W        W68670  41.488  32.142   3.685
98790W        W68671  30.479   3.355  12.049
98791W        W68672  14.606   4.859   3.692
98792W        W68673  29.554  13.673  10.447
98793W        W68674   5.255  40.954   0.860
98794W        W68675  24.075  29.444  14.778
98795W        W68676  17.144  21.643   4.209
98796W        W68677  21.042  30.596   1.738
98797W        W68678  36.876  17.064   1.221
98798W        W68679  17.681  11.788   2.339
98799W        W68680  36.506  30.030  13.882
98800W        W68681  14.193   0.840  12.961
98801W        W68682  12.655  11.142   0.812
98802W        W68683  19.763   2.236  14.877
98803W        W68684   9.722  44.492   0.260
98804W        W68685  10.293  16.738  10.959
98805W        W68686   9.856  15.243   3.334
98806W        W68687  22.235  26.656   4.636
98807W        W68688  34.982   4.341   3.738
98808W        W68689  28.622  41.493   0.742
98809W        W68690  23.987  14.339  12.013
98810W        W68691  35.921   7.818   0.935
98811W        W68692  43.964  13.622  10.523
98812W        W68693  39.841   6.824   0.293
98813W        W68694  23.538  20.178  10.581
98814W        W68695  27.022  22.703  13.382
98815W        W68696  29.436  41.470  12.925
98816W        W68697   9.391   2.914   3.821
98817W        W68698  40.007  28.629  14.279
98818W        W68699  28.007  16.159   1.249
98819W        W68700  18.700  17.660   1.408
98820W        W68701  41.837  42.015  12.503
98821W        W68702   0.492   5.339   2.691
98822W        W68703  14.249  26.641   3.796
98823W        W68704   7.725   8.847  14.450
98824W        W68705  43.505  28.160  13.499
98825W        W68706  19.677   8.285  12.984
98826W        W68707   0.250  39.446   3.841
98827W        W68708  34.926   9.701   2.212
98828W        W68709  26.459   0.336   3.660
98829W        W68710   7.689  44.803  11.018
98830W        W68711   2.861  38.858   3.711
98831W        W68712  22.608  20.259   1.441
98832W        W68713  26.176  43.008  11.068
98833W        W68714  11.144  41.998   0.740
98834W        W68715  43.893  31.897  13.971
98835W        W68716  37.367  24.032  10.582
98836W        W68717   4.741   6.373   1.330
98837W        W68718  25.081  24.617  10.475
98838W        W68719   9.236  40.879  11.999
98839W        W68720  22.030  10.813   4.113
98840W        W68721  19.285  26.118   1.398
98841W        W68722   2.370  34.890  10.462
98842W        W68723  43.849  23.217   2.180
98843W        W68724  19.633  13.710   1.811
98844W        W68725  33.382  23.543   3.159
98845W        W68726  33.517  16.812   1.353
98846W        W68727  21.039  42.898  14.476
98847W        W68728   8.355  26.494  10.643
98848W        W68729  17.156   5.294  14.960
98849W        W68730   2.291  36.051   4.746
98850W        W68731   8.225  12.617  14.313
98851W        W68732   4.745  14.098   4.686
98852W        W68733  43.957  12.612  11.452
98853W        W68734   2.833   4.291  13.385
98854W        W68735   1.890  24.520  12.345
98855W        W68736  43.824  23.020  10.506
98856W        W68737  34.380  22.518  13.537
98857W        W68738  27.585  22.999  10.074
98858W        W68739  35.433  44.989  12.416
98859W        W68740   0.955  37.553   4.740
98860W        W68741  17.634  17.740   2.357
98861W        W68742   7.234  33.976  13.934
98862W        W68743  23.237   7.337   1.244
98863W        W68744  42.483   1.482   2.821
98864W        W68745  12.254   3.896  11.382
98865W        W68746   1.924   0.400   2.781
98866W        W68747  21.028  25.067  11.922
98867W        W68748   5.400  25.497   1.450
98868W        W68749   0.269  10.304  11.459
98869W        W68750  34.893  27.165  11.123
98870W        W68751  22.566  22.118   2.799
98871W        W68752  17.776  25.593   0.370
98872W        W68753  33.398   1.274  10.592
98873W        W68754   5.410  23.688  14.903
98874W        W68755  20.132   4.397   4.734
98875W        W68756  18.568  30.024  10.577
98876W        W68757  28.123  37.417   0.430
98877W        W68758   9.736  30.608   1.762
98878W        W68759  17.079   5.735  10.899
98879W        W68760  36.857  37.571   4.624
98880W        W68761  35.516   0.350   3.278
98881W        W68762  22.012  28.570  11.507
98882W        W68763  14.282  26.190   0.257
98883W        W68764  18.769  15.137  13.418
98884W        W68765  33.948   5.197   2.246
98885W        W68766  24.034   7.666   3.249
98886W        W68767   4.418  10.730   3.804
98887W        W68768   0.902  38.016   1.285
98888W        W68769  43.451  37.925   0.471
98889W        W68770  38.883  24.697   0.944
98890W        W68771   1.245  15.099   1.434
98891W        W68772   9.886   7.414   0.315
98892W        W68773   6.754  20.765   2.388
98893W        W68774  31.124  41.912   1.231
98894W        W68775  38.854  34.886  11.896
98895W        W68776   3.225  25.707  13.521
98896W        W68777   8.732  25.509  11.079
98897W        W68778  18.737  13.330  11.871
98898W        W68779   8.668  15.283   2.704
98899W        W68780   2.883   3.231  10.931
98900W        W68781  12.799  31.046   0.954
98901W        W68782  10.235   7.817   4.674
98902W        W68783  32.015  35.512   2.771
98903W        W68784  23.686  25.483  13.818
98904W        W68785  32.018  27.454   2.776
98905W        W68786  15.578  34.108  11.888
98906W        W68787  44.405  41.854   1.810
98907W        W68788  15.314  26.058   2.288
98908W        W68789  32.625  18.628   3.260
98909W        W68790  17.655   9.312   4.235
98910W        W68791   6.767  23.496  11.582
98911W        W68792  40.510  21.236  11.567
98912W        W68793  37.854  13.832   3.313
98913W        W68794  10.377   7.288  13.331
98914W        W68795  18.125  24.139  13.892
98915W        W68796  39.466  22.698   2.359
98916W        W68797  21.034  16.729   9.948
98917W        W68798  31.944  20.694  10.578
98918W        W68799  19.199  12.722  13.452
98919W        W68800   0.800   1.404  12.501
98920W        W68801  19.548  44.363  10.479
98921W        W68802  43.278  35.897   2.292
98922W        W68803  23.991  35.430  12.839
98923W        W68804  31.508   5.837   5.172
98924W        W68805  29.031  40.334  13.020
98925W        W68806  29.557   6.305  12.865
98926W        W68807  37.977   8.799   0.425
98927W        W68808   6.855  44.401   1.432
98928W        W68809  39.526   5.786  11.029
98929W        W68810  29.124  29.923   4.183
98930W        W68811  43.876   5.422  11.932
98931W        W68812  29.515  39.913   1.745
98932W        W68813  39.028   6.897  13.860
98933W        W68814  12.761  34.036   2.703
98934W        W68815  21.685  31.556   2.387
98935W        W68816  19.741  43.445  14.279
98936W        W68817   7.273  42.992   3.177
98937W        W68818  32.961  13.251   0.411
98938W        W68819   7.350  36.474  12.085
98939W        W68820  34.016   8.381  12.862
98940W        W68821  32.629  11.210  14.470
98941W        W68822  12.770  15.787   1.404
98942W        W68823   9.649  21.638   4.827
98943W        W68824   7.248  43.346   2.839
98944W        W68825  27.083   7.828  11.423
98945W        W68826  38.415  24.185   2.845
98946W        W68827  14.211  28.552  12.939
98947W        W68828  33.925   8.896   1.819
98948W        W68829  43.787  27.488   3.672
98949W        W68830  33.080  38.543  14.468
98950W        W68831  22.519  17.158   9.950
98951W        W68832  25.164   9.868   4.757
98952W        W68833  31.479  22.188  14.478
98953W        W68834  34.576  29.932  12.964
98954W        W68835  12.734  15.314  11.425
98955W        W68836  41.005   8.699  11.063
98956W        W68837   2.961  25.592   0.362
98957W        W68838  18.646  18.621  13.808
98958W        W68839  39.005  22.707  11.035
98959W        W68840   9.828  31.928  11.583
98960W        W68841  43.929  12.715  12.469
98961W        W68842  41.796   5.889   3.367
98962W        W68843  42.433  36.358   2.265
98963W        W68844  34.033  33.130   3.720
98964W        W68845  37.030   5.919  13.021
98965W        W68846   5.927  40.022  11.509
98966W        W68847  14.689  31.113   4.796
98967W        W68848  39.853   5.437   0.325
98968W        W68849  17.158  42.829  10.466
98969W        W68850   2.399  36.377   0.763
98970W        W68851   7.336  19.286  14.807
98971W        W68852  32.107  20.028   3.770
98972W        W68853   8.289  40.518   4.209
98973W        W68854  10.732  17.654   1.328
98974W        W68855  36.566   5.788  11.909
98975W        W68856  26.615  17.205   3.256
98976W        W68857  20.128  16.306  12.391
98977W        W68858  12.168   9.294   1.340
98978W        W68859  34.895  12.683   5.233
98979W        W68860  23.200  18.219   3.184
98980W        W68861  38.505  36.076   1.697
98981W        W68862  38.450  26.582   4.773
98982W        W68863  30.605  17.202   3.804
98983W        W68864  12.200  33.030  13.947
98984W        W68865  42.467   8.285   0.430
98985W        W68866  30.521  17.093   1.930
98986W        W68867   8.663  10.203   3.156
98987W        W68868  34.080   5.387   0.444
98988W        W68869  44.886  44.430   1.795
98989W        W68870  24.497  18.773   3.802
98990W        W68871  15.595  26.565   1.736
98991W        W68872  32.440  31.443   2.875
98992W        W68873  15.820  17.284   2.748
98993W        W68874  31.458   6.798  14.848
98994W        W68875  26.514  14.747   4.159
98995W        W68876  33.452  37.499  10.450
98996W        W68877  40.927  12.292   1.261
98997W        W68878  44.952  37.536   4.323
98998W        W68879  31.934  19.589   4.351
98999W        W68880   2.440  30.106  10.575
99000W        W68881  17.193  21.115  12.016
99001W        W68882  23.503  37.054   0.726
99002W        W68883  28.134  23.988   3.643
99003W        W68884  21.654   9.189  10.515
99004W        W68885  21.140  29.084   0.449
99005W        W68886   4.915  12.681  12.023
99006W        W68887  18.704  39.015   4.663
99007W        W68888   7.344  41.963  14.356
99008W        W68889  18.163   5.250  11.943
99009W        W68890   3.756   4.426   0.285
99010W        W68891  20.537  41.821   3.383
99011W        W68892   6.852  17.114   4.732
99012W        W68893  23.652  40.378  12.912
99013W        W68894   0.312   7.874  14.832
99014W        W68895  43.939  28.119  10.423
99015W        W68896  35.403   4.937  12.075
99016W        W68897  30.102  12.828  13.839
99017W        W68898   9.887  17.089   0.952
99018W        W68899  43.445  39.911   3.723
99019W        W68900  41.384  30.527  12.391
99020W        W68901  28.633  35.409   2.876
99021W        W68902  39.812   0.796   0.732
99022W        W68903  34.540  35.065  11.085
99023W        W68904  43.440  39.050  14.984
99024W        W68905  40.966   5.848   2.332
99025W        W68906  30.041  40.405  14.434
99026W        W68907  23.611  15.294   1.932
99027W        W68908   2.782  34.944   3.234
99028W        W68909  34.869   2.894   4.837
99029W        W68910  11.709  19.212   1.352
99030W        W68911  13.756   4.254   3.334
99031W        W68912  14.733  24.606   2.240
99032W        W68913  34.416  19.659  13.915
99033W        W68914   7.714  36.445   4.200
99034W        W68915  40.906  11.204   1.854
99035W        W68916  31.470  26.668  14.802
99036W        W68917  15.157  44.904   0.474
99037W        W68918  40.843   4.747  11.398
99038W        W68919  14.624  25.046   2.399
99039W        W68920   2.964   3.766  13.374
99040W        W68921  20.206  24.700  12.426
99041W        W68922  26.174   8.344   3.205
99042W        W68923   3.714  20.040   4.331
99043W        W68924  39.392  23.724  11.859
99044W        W68925  29.492  11.276  13.799
99045W        W68926  10.211   2.902  11.493
99046W        W68927  34.545  32.142  14.369
99047W        W68928   2.723   9.662   0.950
99048W        W68929  37.481  28.015  14.466
99049W        W68930  40.839  12.261   4.732
99050W        W68931  19.624  42.338  10.972
99051W        W68932  17.692  36.016   2.793
99052W        W68933   0.775  19.543   4.276
99053W        W68934  43.771  27.567  11.590
99054W        W68935   9.651   8.365  14.974
99055W        W68936  11.225  18.066  11.402
99056W        W68937   1.775  39.385  13.340
99057W        W68938  24.210  13.120  13.332
99058W        W68939  11.274   9.394   4.308
99059W        W68940  23.675   6.816   1.426
99060W        W68941  36.937  40.002   2.405
99061W        W68942  14.225  38.432  11.453
99062W        W68943  18.614  16.273  13.858
99063W        W68944  41.916  16.675  14.025
99064W        W68945  20.760  44.392  10.053
99065W        W68946  35.469  22.625  12.029
99066W        W68947  14.625   3.305  11.476
99067W        W68948   4.722   4.295   4.729
99068W        W68949  28.656  40.407  10.616
99069W        W68950  38.852  33.049  14.021
99070W        W68951  33.575  33.475  12.090
99071W        W68952  33.101  40.811  11.946
99072W        W68953  18.718  27.075   2.287
99073W        W68954  35.081   6.921  11.966
99074W        W68955   7.850  36.981   0.730
99075W        W68956  12.698  27.162  14.773
99076W        W68957  10.176   1.946  12.976
99077W        W68958  14.175   4.210  10.593
99078W        W68959   3.743   9.220  14.396
99079W        W68960  24.517   9.367  13.981
99080W        W68961   1.265   4.849   4.131
99081W        W68962  21.631  21.099   4.620
99082W        W68963  27.043   9.154   2.368
99083W        W68964  15.720  11.633  10.528
99084W        W68965  16.235  11.349   1.346
99085W        W68966   8.752  24.175   5.164
99086W        W68967   3.389  11.754  11.099
99087W        W68968  21.206  16.798   5.296
99088W        W68969  35.375  44.315   0.309
99089W        W68970  32.993  21.093   4.736
99090W        W68971  29.934  32.522  14.872
99091W        W68972  19.089  31.906   0.757
99092W        W68973  27.022  26.531  10.479
99093W        W68974  27.061  28.054   1.295
99094W        W68975  10.840  31.577   0.837
99095W        W68976   9.351  29.591   4.760
99096W        W68977  18.190  24.035  13.313
99097W        W68978   5.221   6.354  14.882
99098W        W68979   9.725   6.304   3.172
99099W        W68980  41.310  41.495  11.019
99100W        W68981  12.187  15.673  14.875
99101W        W68982  13.816   0.787  14.500
99102W        W68983  44.294  40.414  12.478
99103W        W68984  21.574   1.754   1.868
99104W        W68985  31.528  34.036   4.804
99105W        W68986  25.692  11.291  13.806
99106W        W68987  32.580  30.985  13.484
99107W        W68988  22.177   2.931   4.300
99108W        W68989  21.628   0.857   3.163
99109W        W68990  37.379  39.529   1.339
99110W        W68991  17.265   1.938  11.458
99111W        W68992  15.678   3.267   0.430
99112W        W68993  34.907  40.461  11.513
99113W        W68994  38.405   8.835  11.544
99114W        W68995  10.243  39.405  10.534
99115W        W68996  24.006  44.983  13.983
99116W        W68997  20.731   0.457  13.525
99117W        W68998  31.085   9.673   3.352
99118W        W68999  37.040  29.561   4.773
99119W        W69000   3.804  16.690   3.173
99120W        W69001   7.846   5.311   1.287
99121W        W69002  33.005   3.438  11.033
99122W        W69003  31.143  23.586  13.456
99123W        W69004  25.592  37.998  14.914
99124W        W69005  14.643  16.198   1.767
99125W        W69006  21.017  43.942  12.574
99126W        W69007  20.625  32.489   1.365
99127W        W69008   3.318  40.513   2.833
99128W        W69009  35.434  36.080   4.263
99129W        W69010  39.390  20.572  14.392
99130W        W69011  31.640  44.394  10.900
99131W        W69012  30.432  44.405   2.398
99132W        W69013  27.084  34.517  14.930
99133W        W69014  40.502  25.074   0.375
99134W        W69015  13.756  28.617  12.428
99135W        W69016  10.637  14.767  13.003
99136W        W69017   5.885  30.090  14.986
99137W        W69018   3.283   9.220  14.934
99138W        W69019  13.663  35.949  13.864
99139W        W69020  28.046  41.795   1.797
99140W        W69021  12.670  39.896  11.897
99141W        W69022   3.790  37.955  11.373
99142W        W69023  16.783  17.782   2.856
99143W        W69024  28.122  32.437   4.298
99144W        W69025  40.350   5.374  14.309
99145W        W69026  13.144  40.439  14.788
99146W        W69027  24.692   0.775  14.761
99147W        W69028  13.254  34.398   2.306
99148W        W69029  42.824  40.520   4.137
99149W        W69030   6.806   7.780   4.312
99150W        W69031  28.074  36.960   0.455
99151W        W69032  20.705  28.498   4.334
99152W        W69033   9.320   1.271   4.700
99153W        W69034  18.784   5.902  12.473
99154W        W69035  19.221  37.416  14.015
99155W        W69036  10.766  37.968  13.393
99156W        W69037  26.005  28.963  10.523
99157W        W69038  39.944  15.136  10.441
99158W        W69039  13.130  40.896  14.291
99159W        W69040  40.379   4.252  14.311
99160W        W69041  27.069  43.906   3.360
99161W        W69042  12.123  44.290  11.575
99162W        W69043   4.353  12.775  13.038
99163W        W69044   3.375  39.394   3.670
99164W        W69045  24.191  38.893   4.804
99165W        W69046  42.963  27.149   1.791
99166W        W69047  35.035  22.737   9.933
99167W        W69048  22.169  25.046  11.484
99168W        W69049  24.026  29.569  11.479
99169W        W69050  36.993  18.634   3.239
99170W        W69051  25.129  11.253  14.886
99171W        W69052  21.263  33.009  12.895
99172W        W69053  32.139  20.559  13.834
99173W        W69054  28.669   3.348  14.441
99174W        W69055  10.726  17.787   3.371
99175W        W69056   6.391  16.569   3.733
99176W        W69057  33.507  20.763  14.799
99177W        W69058  28.478  34.613   2.310
99178W        W69059  34.999  21.212  10.592
99179W        W69060  40.384   5.201   4.804
99180W        W69061  21.522  38.991  11.989
99181W        W69062  41.941  32.518   2.297
99182W        W69063  44.463  43.953   4.599
99183W        W69064  35.878   3.298   2.329
99184W        W69065  12.839  37.064   1.210
99185W        W69066  31.060  29.079  14.382
99186W        W69067  15.682  20.565   4.808
99187W        W69068   3.263   9.884   4.214
99188W        W69069  26.995  26.011  14.860
99189W        W69070  21.651   8.321  13.373
99190W        W69071   6.873  24.161  11.103
99191W        W69072  44.860   4.773   1.816
99192W        W69073  16.265   3.394  14.970
99193W        W69074  29.554   4.782   4.651
99194W        W69075  31.045  18.632   5.143
99195W        W69076   6.364  10.754  12.344
99196W        W69077   4.372  29.944   3.210
99197W        W69078   1.316  40.987  13.343
99198W        W69079  10.799  15.144  12.917
99199W        W69080  16.583  39.822  13.983
99200W        W69081  24.658  20.215  10.963
99201W        W69082  14.629  26.616  14.332
99202W        W69083  17.136   5.412  14.374
99203W        W69084  31.138  31.574  14.922
99204W        W69085  19.170   6.809  13.814
99205W        W69086  36.415  34.884   0.359
99206W        W69087  29.602   0.911  13.367
99207W        W69088  28.977  22.022   1.262
99208W        W69089   9.209  14.189  14.861
99209W        W69090  30.074  20.105   4.262
99210W        W69091  36.463  22.630   3.747
99211W        W69092  30.532  23.625   2.763
99212W        W69093  11.247  41.944   4.711
99213W        W69094  36.875   6.212  10.618
99214W        W69095  20.572  44.921   0.773
99215W        W69096  27.117  30.507  11.403
99216W        W69097  25.045  21.579  13.370
99217W        W69098  37.497   6.196   0.378
99218W        W69099  15.809   1.352   1.412
99219W        W69100  13.673  23.605   1.266
99220W        W69101   0.832  34.070   2.298
99221W        W69102  43.377   7.838  12.387
99222W        W69103  42.814   5.861  12.503
99223W        W69104  44.783   5.691  14.890
99224W        W69105   0.819  33.976  12.951
99225W        W69106  11.864  17.683   2.366
99226W        W69107  26.676  23.522  14.799
99227W        W69108  34.873  21.157   0.855
99228W        W69109  42.358  24.548   3.318
99229W        W69110  38.475  40.964   3.636
99230W        W69111  38.871   2.910  12.495
99231W        W69112  36.459  20.745  14.885
99232W        W69113   9.231  14.648   4.796
99233W        W69114  11.664  43.309   4.708
99234W        W69115  33.877  29.498   3.729
99235W        W69116  22.097  18.707   2.810
99236W        W69117   7.367  42.292   1.450
99237W        W69118  22.227  17.100   1.393
99238W        W69119  18.587  28.960   0.366
99239W        W69120  32.604   5.224  12.043
99240W        W69121  16.583   3.367  12.464
99241W        W69122  33.098  39.382  12.385
99242W        W69123  32.027   0.335   1.718
99243W        W69124  37.460  29.062  14.825
99244W        W69125  37.418  34.411  14.394
99245W        W69126   1.846  33.898   2.329
99246W        W69127  42.989  31.111   0.332
99247W        W69128  32.412  14.717   2.405
99248W        W69129  32.945  42.847   1.713
99249W        W69130   0.393  35.867   1.864
99250W        W69131  15.658  13.343  10.058
99251W        W69132  14.657  32.434  12.011
99252W        W69133  41.446  22.610  12.485
99253W        W69134   4.796  43.950  10.138
99254W        W69135  29.596  26.536   4.260
99255W        W69136   2.831  44.973   0.925
99256W        W69137  14.295  27.999   4.307
99257W        W69138  21.689  18.202   5.232
99258W        W69139  39.857   8.884   0.379
99259W        W69140  42.795  32.480   4.667
99260W        W69141  11.264   4.449   4.212
99261W        W69142   3.305  17.242   0.428
99262W        W69143  32.894   3.277  14.474
99263W        W69144  43.459  41.521  13.048
99264W        W69145   5.377  25.024   2.270
99265W        W69146  26.131  18.184  12.380
99266W        W69147  22.162  11.128  14.951
99267W        W69148   6.220  25.680   3.244
99268W        W69149  18.682  11.786  11.548
99269W        W69150  23.235  16.221  12.834
99270W        W69151  25.592  37.942  11.118
99271W        W69152  44.864  13.176   1.915
99272W        W69153  33.574  44.264  13.502
99273W        W69154  28.138  10.282   1.380
99274W        W69155   0.947  43.282  14.797
99275W        W69156  19.257   4.712  13.930
99276W        W69157  28.522  17.120   2.745
99277W        W69158   9.814   3.880  10.600
99278W        W69159  15.629  15.699   3.803
99279W        W69160  18.054  41.967   3.851
99280W        W69161  43.346  17.064  13.930
99281W        W69162  32.137  16.762  14.374
99282W        W69163  33.114   7.389   2.230
99283W        W69164  16.241   5.906  11.464
99284W        W69165  28.046  29.481   3.297
99285W        W69166  14.239  27.471   0.347
99286W        W69167  36.865  42.420   3.788
99287W        W69168  25.521  44.936   2.805
99288W        W69169  36.576   4.345  12.366
99289W        W69170  44.005  28.938  11.938
99290W        W69171   4.756  23.150  13.920
99291W        W69172   2.780  34.491   2.846
99292W        W69173   1.926   7.265  13.890
99293W        W69174  37.440  28.140   4.727
99294W        W69175   9.296  16.789   0.774
99295W        W69176  44.857  18.135   3.778
99296W        W69177   7.226  27.065  13.329
99297W        W69178  17.258  25.112   5.273
99298W        W69179   8.862  41.320   1.773
99299W        W69180   4.929   5.921   1.893
99300W        W69181  22.583  43.836   2.700
99301W        W69182  25.588  12.828   0.420
99302W        W69183  16.794  43.285   2.397
99303W        W69184  28.165   2.467  11.496
99304W        W69185   8.161  23.051   0.774
99305W        W69186  31.472  26.690   2.418
99306W        W69187   3.221  14.256  10.940
99307W        W69188  43.417   5.429  11.124
99308W        W69189  22.027  24.672   1.273
99309W        W69190  29.169  27.583   4.179
99310W        W69191  30.494  37.556  14.282
99311W        W69192   7.382  24.003  13.999
99312W        W69193   7.212  17.140  11.402
99313W        W69194  42.485   6.838   0.914
99314W        W69195  34.391   4.792  14.330
99315W        W69196  30.993   1.301  14.960
99316W        W69197  36.526  32.636  11.540
99317W        W69198  22.697  41.460  11.440
99318W        W69199  17.619  32.017  14.783
99319W        W69200  29.492  15.751  10.011
99320W        W69201  17.118  27.608   0.774
99321W        W69202  42.951  11.821   4.344
99322W        W69203  40.428  35.571  13.974
99323W        W69204  27.631   1.245   0.448
99324W        W69205  36.476  31.920  12.536
99325W        W69206  24.647   2.432  10.928
99326W        W69207  35.947  27.582   2.791
99327W        W69208  21.609  30.109  12.344
99328W        W69209   1.872  12.778  12.987
99329W        W69210  23.157  29.440  11.889
99330W        W69211  33.110  35.542  10.408
99331W        W69212  18.277  13.751  14.902
99332W        W69213  22.724  18.637  13.996
99333W        W69214  41.787  20.768   0.736
99334W        W69215   7.769  16.675   4.769
99335W        W69216  41.369  17.556   2.716
99336W        W69217  40.430   8.857  10.992
99337W        W69218  42.369  28.166   2.185
99338W        W69219  41.895   4.849   3.279
99339W        W69220   5.886   4.720   4.767
99340W        W69221  10.288   2.807   3.816
99341W        W69222  19.706  30.533  10.565
99342W        W69223  29.437  24.122  12.889
99343W        W69224  23.514  14.147   3.696
99344W        W69225  31.022   1.369  14.515
99345W        W69226  13.281  27.601   3.229
99346W        W69227  23.194  12.284   4.250
99347W        W69228  23.199  29.561   0.756
99348W        W69229  42.959  23.500   0.734
99349W        W69230   2.788  43.908  11.953
99350W        W69231  44.499  15.162   1.739
99351W        W69232  22.618  27.999   4.340
99352W        W69233   8.237  44.434   3.285
99353W        W69234  43.315   1.957   0.828
99354W        W69235  44.435   0.763   3.869
99355W        W69236  17.750  26.992  13.810
99356W        W69237  44.945  33.493  12.902
99357W        W69238  18.548   6.381   4.166
99358W        W69239   5.883  31.080   2.333
99359W        W69240  23.111  24.231  14.466
99360W        W69241  37.012  38.882   3.659
99361W        W69242  34.005  10.687  11.545
99362W        W69243  32.053  30.565  14.834
99363W        W69244  22.998   6.218  14.834
99364W        W69245  28.032  22.631  12.838
99365W        W69246  31.981  35.528  13.836
99366W        W69247  22.164  30.511   0.897
99367W        W69248  10.807   6.848   4.780
99368W        W69249  35.458  35.574   1.735
99369W        W69250  14.205   9.845   3.218
99370W        W69251  18.111  41.325   0.850
99371W        W69252   4.899  25.549  14.796
99372W        W69253  29.985  24.646   0.905
99373W        W69254  33.066  34.898  14.924
99374W        W69255  40.853  23.646  14.496
99375W        W69256  30.427  40.971  10.471
99376W        W69257  35.528   4.825  14.295
99377W        W69258  21.186  28.124   3.231
99378W        W69259  29.099  17.130  13.398
99379W        W69260  18.760  35.471   4.226
99380W        W69261  24.498  43.963  10.434
99381W        W69262  13.787  44.456  11.442
99382W        W69263  17.168  42.893   3.204
99383W        W69264  28.499  23.677  14.508
99384W        W69265  21.692  12.321  13.468
99385W        W69266   8.876  30.951   5.319
99386W        W69267  44.443  28.640  10.492
99387W        W69268  20.145  39.820  10.609
99388W        W69269  38.349  19.226   4.813
99389W        W69270  29.101  22.616  13.469
99390W        W69271  30.064  14.336  10.502
99391W        W69272  42.985   6.906  11.415
99392W        W69273  25.509   5.277  13.880
99393W        W69274  22.549  44.978  12.434
99394W        W69275  23.549  38.353   4.249
99395W        W69276  19.138  39.872  13.039
99396W        W69277   5.243  28.506  11.582
99397W        W69278   7.257  39.504   2.830
99398W        W69279  41.332  17.608  13.035
99399W        W69280   1.377   6.830  14.823
99400W        W69281  13.204  13.749   4.734
99401W        W69282  11.839  20.257   0.367
99402W        W69283  14.326  27.493   0.787
99403W        W69284   1.957  31.904   0.948
99404W        W69285  41.853  12.119   1.915
99405W        W69286  33.521   9.193   0.393
99406W        W69287  12.642  10.657  11.447
99407W        W69288  32.985  11.684   2.327
99408W        W69289  43.374  27.982   0.345
99409W        W69290  36.590  28.637  10.428
99410W        W69291   4.760  20.273  11.099
99411W        W69292  18.622  22.724   5.190
99412W        W69293   5.732  27.484  14.298
99413W        W69294  12.207  23.593   4.658
99414W        W69295  15.259   4.803   4.766
99415W        W69296  44.429  44.308   4.736
99416W        W69297   3.423  35.092  14.801
99417W        W69298  39.438  13.665   4.712
99418W        W69299  12.324  44.862  14.460
99419W        W69300  33.462  41.849  12.891
99420W        W69301  34.428  37.854   4.207
99421W        W69302  38.360  42.453   4.720
99422W        W69303   7.338  31.505   0.291
99423W        W69304  34.423  24.516   0.285
99424W        W69305  28.537  30.633  10.519
99425W        W69306  28.079  35.567  12.416
99426W        W69307  19.690  33.069  13.388
99427W        W69308  22.099   1.372  10.542
99428W        W69309   0.414  18.160  12.371
99429W        W69310  22.177  41.042   1.707
99430W        W69311  35.918   5.345  12.433
99431W        W69312  23.211  21.719  13.034
99432W        W69313   5.248   5.794   4.778
99433W        W69314  19.065  36.421   4.198
99434W        W69315  12.130  38.371  13.324
99435W        W69316  20.599  14.596   0.868
99436W        W69317  23.537  21.736   3.168
99437W        W69318  35.034  11.809  13.860
99438W        W69319  34.921   1.409   1.852
99439W        W69320  20.756  32.107  11.573
99440W        W69321  30.555  24.587   2.188
99441W        W69322  36.398   4.402   2.408
99442W        W69323  29.594   8.399   2.406
99443W        W69324  29.001  24.560   2.262
99444W        W69325   1.904  42.505   1.347
99445W        W69326  29.954  33.082   3.772
99446W        W69327  44.350  11.713   1.307
99447W        W69328   7.887  32.430   1.380
99448W        W69329  16.118  37.928   3.680
99449W        W69330  25.570  19.163   1.706
99450W        W69331  25.165  26.055  14.861
99451W        W69332  37.394  29.922  10.961
99452W        W69333   9.715  32.520  10.981
99453W        W69334  26.541  29.437  14.776
99454W        W69335  24.187  20.225   4.339
99455W        W69336  14.679  36.451   1.360
99456W        W69337  15.290  43.869  14.825
99457W        W69338  18.601  44.309  11.515
99458W        W69339  38.450   5.391   1.355
99459W        W69340  11.188   4.412   2.664
99460W        W69341   7.369  18.616  12.568
99461W        W69342  16.604  21.572   2.255
99462W        W69343  22.554  40.921   3.151
99463W        W69344  16.652   8.743  13.548
99464W        W69345  10.736  22.160  13.915
99465W        W69346  24.543  25.005   1.268
99466W        W69347   5.401  39.368   4.689
99467W        W69348  32.138  19.752   3.344
99468W        W69349  30.036  32.449  12.902
99469W        W69350  17.228   3.895  13.433
99470W        W69351  16.248   9.789  11.423
99471W        W69352  29.024  10.310  12.868
99472W        W69353  43.927   0.812   3.641
99473W        W69354  24.671  31.084  10.515
99474W        W69355   6.421  43.327   1.719
99475W        W69356  19.052  37.435   1.271
99476W        W69357  10.741   0.758   1.807
99477W        W69358   4.226  38.004   2.230
99478W        W69359   3.244  37.548   4.246
99479W        W69360  13.289  17.155  10.569
99480W        W69361  44.007  40.926  10.988
99481W        W69362  26.032  44.783   2.722
99482W        W69363  19.652  37.888  14.898
99483W        W69364   6.274  34.885  13.924
99484W        W69365  31.452  42.837   2.338
99485W        W69366  15.217   9.182   2.692
99486W        W69367  16.799  42.846  10.922
99487W        W69368  31.125   3.436   2.230
99488W        W69369  18.616  15.608  10.560
99489W        W69370   9.317  43.766  13.968
99490W        W69371  41.331   0.306   3.316
99491W        W69372  21.697  40.990   0.437
99492W        W69373  21.063  44.504   9.999
99493W        W69374   5.355  21.217   2.183
99494W        W69375  13.719   9.226   2.854
99495W        W69376  13.244  32.955   0.832
99496W        W69377   9.678   0.876  14.410
99497W        W69378  33.962  24.695  13.031
99498W        W69379  23.113  18.106  14.314
99499W        W69380  22.695   2.356   1.302
99500W        W69381  42.512  20.731   2.199
99501W        W69382  41.816   5.882  12.880
99502W        W69383  33.060  20.620   0.448
99503W        W69384  31.102  25.600   3.651
99504W        W69385   3.416  16.086   2.211
99505W        W69386   1.809  33.526  11.408
99506W        W69387  41.999  44.943  10.460
99507W        W69388  37.843  38.560   2.676
99508W        W69389  42.855  37.875   4.626
99509W        W69390  26.075   2.933  11.876
99510W        W69391  29.047   2.866  14.765
99511W        W69392  35.400   6.413  10.995
99512W        W69393   4.393  11.134   0.426
99513W        W69394  38.030   0.853  11.570
99514W        W69395  34.957  30.959  12.542
99515W        W69396  39.946  37.054   2.345
99516W        W69397  35.501  21.609   2.282
99517W        W69398   7.369  22.124  13.036
99518W        W69399  30.107  41.493  13.535
99519W        W69400  14.631  36.546  14.436
99520W        W69401  21.748  35.425   4.139
99521W        W69402  31.948  22.024   4.216
99522W        W69403  14.639  36.013   4.743
99523W        W69404  17.585  34.917   2.887
99524W        W69405   0.468   8.719   1.378
99525W        W69406  40.386  31.572   3.802
99526W        W69407  26.955  13.745  10.639
99527W        W69408   4.254  27.641   1.218
99528W        W69409  21.716  17.718  12.977
99529W        W69410  29.972  29.005   0.453
99530W        W69411   1.763  17.711  14.784
99531W        W69412  33.096  21.685  14.454
99532W        W69413   2.403  12.343   0.951
99533W        W69414  29.152   1.247   4.706
99534W        W69415  28.599  43.826  13.432
99535W        W69416  32.990  43.322   0.384
99536W        W69417  27.662  13.699  13.804
99537W        W69418  15.750   1.308  12.094
99538W        W69419  23.048  35.509   2.280
99539W        W69420  37.492  18.776  10.521
99540W        W69421  43.419  21.048   1.863
99541W        W69422  18.167  28.976  13.984
99542W        W69423  21.553  17.286   4.159
99543W        W69424  41.537  26.993  12.894
99544W        W69425  34.864  31.534  10.571
99545W        W69426  22.545  12.793   1.411
99546W        W69427  41.000  34.039   3.160
99547W        W69428   5.384   9.264   0.764
99548W        W69429   3.424  26.089   3.217
99549W        W69430  17.299  30.055   1.710
99550W        W69431  39.345   0.314  12.090
99551W        W69432  34.032  13.804  11.059
99552W        W69433  28.149  35.003   3.325
99553W        W69434   9.342  40.335  11.522
99554W        W69435   3.714  36.870  10.552
99555W        W69436  14.658  36.448   1.765
99556W        W69437  26.097  34.868  13.320
99557W        W69438  29.450   5.272   3.637
99558W        W69439   9.231  41.397  13.383
99559W        W69440  29.101  34.952   3.748
99560W        W69441  43.483  42.520   0.959
99561W        W69442  37.011  20.717  13.944
99562W        W69443   4.719  40.431   0.922
99563W        W69444   0.381  16.644   2.851
99564W        W69445  36.357   2.386  13.929
99565W        W69446  16.161  13.111   1.761
99566W        W69447  10.797  14.661  12.525
99567W        W69448  22.161  34.491   1.399
99568W        W69449   9.347  39.039   9.977
99569W        W69450  17.670  34.548  10.456
99570W        W69451  41.295   4.338   2.244
99571W        W69452  41.404  29.458  13.865
99572W        W69453  18.604   8.777  11.402
99573W        W69454   7.878  26.489   0.934
99574W        W69455   5.810  42.321   4.802
99575W        W69456  24.722   9.274   4.706
99576W        W69457   9.709  36.098   2.682
99577W        W69458  12.693  20.196   4.331
99578W        W69459  10.239  30.064  11.501
99579W        W69460  23.056  40.913  13.436
99580W        W69461  16.123  44.935  13.908
99581W        W69462  25.505  20.751  12.515
99582W        W69463  35.023   2.325   0.350
99583W        W69464  13.109  44.451  12.454
99584W        W69465  28.592  31.114   0.941
99585W        W69466   4.430  32.041  12.991
99586W        W69467  30.488   1.308  11.552
99587W        W69468   9.773  35.027   0.821
99588W        W69469  40.466   8.185  10.639
99589W        W69470  42.339  23.651  11.548
99590W        W69471   1.255   8.291  13.432
99591W        W69472  35.458  15.109  14.342
99592W        W69473  23.671   8.252   3.353
99593W        W69474  10.237  36.078   2.326
99594W        W69475  32.105  40.818   0.754
99595W        W69476   0.480  18.762  11.970
99596W        W69477  44.830  36.966  11.051
99597W        W69478  11.307  27.537  14.900
99598W        W69479  26.179  36.390   0.781
99599W        W69480   9.245  27.944  13.819
99600W        W69481  28.612  17.686  13.855
99601W        W69482  17.144  26.692  11.977
99602W        W69483   5.293  16.725  13.048
99603W        W69484  31.620  13.324   2.732
99604W        W69485  34.452  19.605  12.373
99605W        W69486  28.170  31.644  14.497
99606W        W69487  15.131  24.080   2.336
99607W        W69488  23.634  44.387   1.324
99608W        W69489  14.599   8.824  13.492
99609W        W69490  15.161  23.009   3.193
99610W        W69491  33.445  22.555   1.737
99611W        W69492  35.909   3.900   4.728
99612W        W69493  36.866  34.598  10.982
99613W        W69494  13.655  20.711   4.232
99614W        W69495  10.851  43.933  13.957
99615W        W69496   4.303  19.061  13.477
99616W        W69497  12.629   6.869  11.052
99617W        W69498  40.452  17.702  13.519
99618W        W69499  18.072   5.769  10.502
99619W        W69500  38.909   4.788   5.223
99620W        W69501  15.184  37.450   5.113
99621W        W69502  27.628  17.181   1.858
99622W        W69503  12.316  38.505   3.858
99623W        W69504  24.713  36.974  13.059
99624W        W69505  13.208   0.834   1.821
99625W        W69506  21.634  25.011   2.810
99626W        W69507  24.486   3.828   2.766
99627W        W69508  21.074  31.974   2.896
99628W        W69509   2.799  44.875   2.348
99629W        W69510  11.840  36.011   0.727
99630W        W69511   1.433  14.333  14.448
99631W        W69512   7.899   3.813   2.310
99632W        W69513  27.067  28.451  14.809
99633W        W69514  24.652  43.334  13.033
99634W        W69515  12.818   9.686  14.836
99635W        W69516  10.324  15.709  11.509
99636W        W69517  19.598  21.548  11.422
99637W        W69518  38.351   6.422   0.950
99638W        W69519   6.400   0.479  11.498
99639W        W69520  18.546  15.198   3.277
99640W        W69521  18.052  12.635   2.288
99641W        W69522   6.393  26.463  14.859
99642W        W69523   6.395   0.888  11.004
99643W        W69524  33.508  12.268   1.452
99644W        W69525  35.920  25.180  14.980
99645W        W69526  23.575   1.441   4.336
99646W        W69527  19.073  41.893  11.944
99647W        W69528  21.064  17.185  13.468
99648W        W69529  11.844  24.072   1.694
99649W        W69530  15.324  27.952   4.706
99650W        W69531  17.647   8.730   2.875
99651W        W69532  26.006  31.101   1.258
99652W        W69533   4.400  32.892   3.814
99653W        W69534  14.638  28.132  10.565
99654W        W69535  24.186  13.250  11.598
99655W        W69536   3.448  40.401  12.556
99656W        W69537   6.406  36.896  13.396
99657W        W69538  33.511   5.439  10.644
99658W        W69539  32.066  37.358  13.883
99659W        W69540  15.788  30.535  10.995
99660W        W69541   3.870  13.751  14.444
99661W        W69542  19.225  16.617   4.605
99662W        W69543  20.666  14.146   2.860
99663W        W69544   8.303  36.490   3.209
99664W        W69545  15.136  41.450   3.751
99665W        W69546  12.728  30.978   1.269
99666W        W69547  35.436   2.358  13.508
99667W        W69548  19.211  12.254  11.583
99668W        W69549   8.661   3.924   0.948
99669W        W69550   9.161  27.481  14.509
99670W        W69551  29.062  15.262   3.189
99671W        W69552  12.749  40.045  14.420
99672W        W69553  41.863  13.237  13.912
99673W        W69554  27.460  21.091   1.698
99674W        W69555  32.075   5.758   2.823
99675W        W69556  36.965   5.895   0.766
99676W        W69557  37.851   7.273   4.799
99677W        W69558  12.264   6.229  12.541
99678W        W69559  35.970  37.039   1.431
99679W        W69560   8.253  31.064   3.867
99680W        W69561  22.540  11.837   4.221
99681W        W69562  28.984  14.249   0.390
99682W        W69563   4.414  11.642  14.454
99683W        W69564  29.597  13.142   2.407
99684W        W69565  27.042  41.471   1.872
99685W        W69566   4.701   5.907  13.840
99686W        W69567  30.556  40.986  10.932
99687W        W69568  26.060  21.615   4.609
99688W        W69569  44.396  32.037  13.871
99689W        W69570   9.812  43.402   0.445
99690W        W69571  15.279  20.622  14.006
99691W        W69572  43.462  16.658  12.422
99692W        W69573  13.796  28.184   4.349
99693W        W69574  35.400   5.316   2.190
99694W        W69575   1.354  37.864   3.635
99695W        W69576   7.714  38.842  12.341
99696W        W69577  33.607  13.611  14.965
99697W        W69578   9.772  31.024  12.418
99698W        W69579  41.292  15.644   2.179
99699W        W69580  14.164  25.625   2.837
99700W        W69581  30.608   4.837  10.985
99701W        W69582  16.621  28.980  10.588
99702W        W69583   0.800  38.928  14.389
99703W        W69584   4.723  10.336   2.782
99704W        W69585  27.479  38.901   1.929
99705W        W69586   7.892  23.525   0.294
99706W        W69587  12.152  28.152  11.599
99707W        W69588  25.061   3.935  12.010
99708W        W69589   1.273  16.094  14.358
99709W        W69590  31.958  16.628  12.066
99710W        W69591  26.611  28.950  14.874
99711W        W69592  27.162   3.860   0.825
99712W        W69593  42.852   5.396  13.939
99713W        W69594  37.850  17.246   9.997
99714W        W69595  11.211  23.586   4.751
99715W        W69596   7.248  24.009   1.265
99716W        W69597  34.408  28.640   2.815
99717W        W69598  24.153  31.421  13.307
99718W        W69599  41.020  43.428   2.801
99719W        W69600  34.566  43.294   2.184
99720W        W69601  11.267  43.509   1.873
99721W        W69602  39.835  39.936   3.777
99722W        W69603  37.398  11.134   0.460
99723W        W69604  35.505  17.691  12.960
99724W        W69605   5.692  20.743  12.956
99725W        W69606  16.236  26.059  10.575
99726W        W69607  44.982   8.855   3.734
99727W        W69608   7.760  29.617   3.248
99728W        W69609   6.253  14.714  13.960
99729W        W69610  11.798  21.758   4.786
99730W        W69611   4.846  11.296  13.875
99731W        W69612   1.463  19.170  12.951
99732W        W69613  30.950  38.867   2.707
99733W        W69614  11.303  31.495  11.402
99734W        W69615   9.759   6.187  11.406
99735W        W69616   4.214  27.568   1.705
99736W        W69617   1.324  19.762  10.961
99737W        W69618   9.204  23.022  12.005
99738W        W69619  19.049   6.889  14.397
99739W        W69620   6.713  38.366  12.342
99740W        W69621  33.396  37.395   4.669
99741W        W69622  18.282   1.977  10.505
99742W        W69623   9.264  38.452   1.874
99743W        W69624  41.813   1.950  13.339
99744W        W69625  35.878  16.719  12.525
99745W        W69626  22.510  16.142   0.387
99746W        W69627  36.981  18.166   0.353
99747W        W69628  26.969  25.713  13.924
99748W        W69629   8.222  32.538  12.553
99749W        W69630   1.387   3.890   2.364
99750W        W69631  19.259  18.212  14.814
99751W        W69632  16.620  28.940  11.459
99752W        W69633   7.786  19.610  12.973
99753W        W69634  41.803  37.970   3.821
99754W        W69635  41.396  18.719  14.478
99755W        W69636   1.817   1.908  11.612
99756W        W69637  40.424  13.242  12.038
99757W        W69638   1.458  11.709   4.235
99758W        W69639  30.641  43.329  11.395
99759W        W69640  13.106  17.635  11.371
99760W        W69641   7.176   9.257  14.013
99761W        W69642  25.670  36.064  10.156
99762W        W69643   8.347  38.550  11.892
99763W        W69644  42.023   6.197  12.065
99764W        W69645  36.907  40.312  10.455
99765W        W69646  19.050   1.306   5.108
99766W        W69647   1.378  39.403  12.071
99767W        W69648  25.474  20.529  10.552
99768W        W69649  43.829  25.546  12.039
99769W        W69650  16.119  19.631  11.532
99770W        W69651  16.799  28.133  11.024
99771W        W69652  44.472   8.809   3.735
99772W        W69653   6.404  43.393  12.844
99773W        W69654  12.146  37.350   1.264
99774W        W69655   0.797  14.701   1.845
99775W        W69656  23.107  32.525  11.860
99776W        W69657  34.537  29.145   1.713
99777W        W69658  37.894  27.948  14.362
99778W        W69659  26.522   9.832   0.441
99779W        W69660   4.881  25.667   3.720
99780W        W69661  38.568  26.080  10.433
99781W        W69662   7.247  38.388  13.414
99782W        W69663  24.608  41.415  12.460
99783W        W69664   7.692  32.393   0.385
99784W        W69665   4.925  41.407  11.928
99785W        W69666  39.535  14.286  10.480
99786W        W69667  35.486  32.918  11.943
99787W        W69668  27.555  11.281   4.238
99788W        W69669   8.676   3.869   0.401
99789W        W69670  17.279  10.818  11.986
99790W        W69671  39.553  37.412  12.997
99791W        W69672  35.919  43.784   1.836
99792W        W69673  32.935   3.836   3.269
99793W        W69674  20.225  32.460  10.419
99794W        W69675  27.612  11.652  13.949
99795W        W69676  39.428  26.151  14.990
99796W        W69677  23.550   5.376  14.836
99797W        W69678  43.511   9.252   2.182
99798W        W69679  21.186  20.690  13.540
99799W        W69680  15.753  41.463   4.276
99800W        W69681  26.457   8.300   1.284
99801W        W69682  17.742  41.886  11.591
99802W        W69683  43.310  44.459  14.990
99803W        W69684  44.811  27.455  12.089
99804W        W69685  27.193  21.080  11.426
99805W        W69686  25.476  27.079  13.904
99806W        W69687  17.256  12.251   0.860
99807W        W69688  34.437  43.785  11.531
99808W        W69689  11.347  39.442  12.998
99809W        W69690   6.776   5.414   4.635
99810W        W69691  24.108  44.820   0.862
99811W        W69692   1.360  40.345  12.824
99812W        W69693  10.688   5.404   1.877
99813W        W69694  22.247  42.827  14.322
99814W        W69695  20.715  18.150   2.195
99815W        W69696   3.823  18.142   1.907
99816W        W69697   1.758  20.110   5.299
99817W        W69698  33.981  11.680   3.164
99818W        W69699   8.764  22.679   1.355
99819W        W69700  26.606  34.369   4.144
99820W        W69701  40.463   1.750   2.306
99821W        W69702  43.403  35.863   3.847
99822W        W69703   0.777   4.746   3.205
99823W        W69704   3.436   6.376  13.389
99824W        W69705   6.894  14.147  12.996
99825W        W69706   1.370  29.987   1.319
99826W        W69707  16.084   7.688   1.243
99827W        W69708  17.728  43.787   0.805
99828W        W69709  16.127  16.120  10.525
99829W        W69710  44.874  11.372  14.990
99830W        W69711   8.315  21.139   9.951
99831W        W69712  14.122  23.004   0.385
99832W        W69713  41.025  13.153   1.239
99833W        W69714  23.212   2.385  14.791
99834W        W69715  14.274   3.388  10.604
99835W        W69716  36.432  25.472   4.321
99836W        W69717  16.670  15.277  12.364
99837W        W69718  43.370   6.422   1.439
99838W        W69719  35.437  20.032   2.223
99839W        W69720  10.645  22.672  14.813
99840W        W69721  10.639   1.816   2.408
99841W        W69722  24.187  37.952  13.033
99842W        W69723   9.722  22.601   1.322
99843W        W69724  35.563   4.820  14.010
99844W        W69725  26.049  24.533  13.851
99845W        W69726  43.010  22.675  11.893
99846W        W69727  10.656  17.642   1.808
99847W        W69728  23.548   8.263  11.551
99848W        W69729   3.259   3.920   5.226
99849W        W69730  39.447  40.853  12.991
99850W        W69731   7.753   3.818  12.458
99851W        W69732  16.599  14.212  13.447
99852W        W69733  11.133  17.143   3.814
99853W        W69734  43.806  23.702  13.002
99854W        W69735   2.937  25.003  10.551
99855W        W69736  39.332   9.288  10.546
99856W        W69737  41.943  23.075   3.819
99857W        W69738  34.073  21.098  14.897
99858W        W69739  11.329  22.730  11.379
99859W        W69740  29.645   3.268   4.335
99860W        W69741  18.691  42.379   2.297
99861W        W69742  32.023  44.980  14.818
99862W        W69743  26.968  39.948  10.567
99863W        W69744  21.548  19.762   2.793
99864W        W69745   8.390  17.244   3.760
99865W        W69746  24.588  24.592  13.466
99866W        W69747  27.943  28.585  14.310
99867W        W69748  36.587  32.026   4.822
99868W        W69749   1.336  31.064   1.803
99869W        W69750  38.053   2.295   2.225
99870W        W69751  15.329   4.856   2.357
99871W        W69752  27.629  44.289   4.258
99872W        W69753   8.768  40.931  13.885
99873W        W69754  24.113  37.949  14.802
99874W        W69755  27.038  20.055  11.563
99875W        W69756  22.585  39.951   1.723
99876W        W69757  41.510  37.395  11.944
99877W        W69758  10.767  25.612  14.030
99878W        W69759  32.084  15.281   4.245
99879W        W69760  35.922   6.690   2.888
99880W        W69761  22.519  13.823   0.771
99881W        W69762   6.414  18.607  13.913
99882W        W69763  27.630  18.675   2.409
99883W        W69764  18.601  24.059   0.336
99884W        W69765  41.018  22.036  14.780
99885W        W69766  37.060   5.849  10.638
99886W        W69767  13.222   0.371   4.176
99887W        W69768  43.913  32.500  10.502
99888W        W69769  34.443   8.369   1.718
99889W        W69770   8.348  20.606  14.951
99890W        W69771  42.325  33.409   1.448
99891W        W69772  21.749  38.519   1.797
99892W        W69773   7.373  41.978  10.645
99893W        W69774  44.283   6.782  14.831
99894W        W69775  19.603   4.821  13.866
99895W        W69776   4.213  37.895   2.831
99896W        W69777  20.109  22.109   2.821
99897W        W69778  34.603  34.058   1.413
99898W        W69779   1.878  27.485   0.773
99899W        W69780  30.554  15.599  14.788
99900W        W69781  12.721   6.820  10.488
99901W        W69782  39.019  12.697   4.316
99902W        W69783  28.144   0.758  11.020
99903W        W69784  42.513  35.493  13.314
99904W        W69785   8.654   3.777  11.078
99905W        W69786  18.650   3.856  10.612
99906W        W69787  43.511  18.182   0.380
99907W        W69788  30.630  41.441   2.703
99908W        W69789  20.216   6.377   0.857
99909W        W69790   0.965  38.534   2.698
99910W        W69791  24.999  15.310  14.943
99911W        W69792  40.922  39.939  11.516
99912W        W69793   3.414  31.528  11.604
99913W        W69794  31.952  29.623   0.400
99914W        W69795  32.519  34.392  13.865
99915W        W69796  13.610  10.307  12.940
99916W        W69797  24.549  29.527   0.258
99917W        W69798  41.865  24.029  13.057
99918W        W69799  41.461  37.914   1.843
99919W        W69800  12.246  28.080   3.678
99920W        W69801  26.028   0.388  13.308
99921W        W69802  14.311  38.435  12.405
99922W        W69803  16.690  24.021  14.825
99923W        W69804   3.733   3.224   3.190
99924W        W69805  15.225  16.784  10.570
99925W        W69806  18.150   4.740   1.290
99926W        W69807  37.974  42.002   1.407
99927W        W69808  41.978  10.757  14.789
99928W        W69809  40.012  17.776   2.709
99929W        W69810  18.571  18.138  12.566
99930W        W69811  44.769   4.825  14.762
99931W        W69812  11.285   9.365  10.913
99932W        W69813   1.426  13.773  13.907
99933W        W69814   2.350  39.946   4.319
99934W        W69815  25.088   8.326  11.122
99935W        W69816  17.567  40.892  12.071
99936W        W69817  41.311  41.476  14.366
99937W        W69818  40.011  33.495   0.854
99938W        W69819   4.933   2.903  13.353
99939W        W69820   1.788  40.895  13.983
99940W        W69821  20.260   3.309  14.874
99941W        W69822  27.668  23.643  10.461
99942W        W69823  42.295  12.782   4.157
99943W        W69824  25.972  11.710   1.377
99944W        W69825  15.313  43.332   0.480
99945W        W69826  28.017  23.008   1.739
99946W        W69827  33.556   2.892  12.907
99947W        W69828  38.971  27.502   0.440
99948W        W69829  44.347  27.674   3.857
99949W        W69830  19.775  39.961   0.245
99950W        W69831  28.105  15.639   1.219
99951W        W69832  31.920  37.356  14.492
99952W        W69833  44.406  35.022   2.289
99953W        W69834  30.472  34.491   0.272
99954W        W69835  18.596  24.659  11.426
99955W        W69836  10.771  31.422  12.841
99956W        W69837  37.450  15.242   0.846
99957W        W69838  10.182  10.830   3.371
99958W        W69839  37.959  32.011   3.860
99959W        W69840   6.797  43.410   1.774
99960W        W69841  10.155  41.793  14.857
99961W        W69842  37.907   2.365  14.288
99962W        W69843  36.570   1.883   0.729
99963W        W69844  21.723  40.439  11.952
99964W        W69845   8.234  35.927  11.937
99965W        W69846   1.978   5.393   1.731
99966W        W69847  37.050  16.291  13.054
99967W        W69848  36.512  22.565  14.770
99968W        W69849  13.760   2.303   2.312
99969W        W69850  24.572   2.256  12.439
99970W        W69851  12.738  20.142  11.986
99971W        W69852  15.155  38.448  12.930
99972W        W69853  34.075   8.235  12.031
99973W        W69854  42.346   1.339  12.396
99974W        W69855  23.172  41.969  13.047
99975W        W69856  19.756   1.442  11.581
99976W        W69857  28.596  44.826   3.303
99977W        W69858  35.565  14.713   4.673
99978W        W69859  35.430  20.699  13.975
99979W        W69860  15.193  44.494  12.048
99980W        W69861  18.771   0.802   3.301
99981W        W69862  37.345  24.023   0.385
99982W        W69863  37.061   5.380  13.042
99983W        W69864  42.342  32.414   0.859
99984W        W69865  39.394   7.343  11.538
99985W        W69866  21.228  30.629  14.418
99986W        W69867  24.587   3.379   4.200
99987W        W69868   3.801   3.366  12.558
99988W        W69869   9.717   5.392   2.239
99989W        W69870  37.513  36.480   1.924
99990W        W69871   2.918  30.033  14.380
99991W        W69872   3.806  43.772   2.359
99992W        W69873   1.856  14.695   0.443
99993W        W69874  27.676  39.528   2.782
99994W        W69875  29.130  32.086  10.905
99995W        W69876  41.880  39.853   1.223
99996W        W69877  17.755  26.065  11.577
99997W        W69878  32.436  27.095   2.733
99998W        W69879  19.602  31.899  12.952
99999W        W69880  11.781   1.365  11.879
    0W        W69881  39.557  30.068  12.862
    1W        W69882  19.079  35.899  11.575
    2W        W69883  20.716  40.810   0.247
    3W        W69884  37.066  15.811   2.320
    4W        W69885   1.388  41.372  14.486
    5W        W69886  20.628  13.768   4.784
    6W        W69887  37.351  11.705  11.374
    7W        W69888  12.847  22.163  14.441
    8W        W69889  33.477  38.417  11.916
    9W        W69890   3.946  31.579   3.327
   10W        W69891  42.500  19.081   0.866
   11W        W69892  29.642  23.032   2.687
   12W        W69893  21.560   9.691  11.919
   13W        W69894  41.907  31.913   3.178
   14W        W69895  42.374   2.904   0.263
   15W        W69896  18.139   2.456  14.487
   16W        W69897  36.469  26.193   0.881
   17W        W69898  21.039  20.104  14.008
   18W        W69899  37.905  22.713  13.416
   19W        W69900  36.977  20.581   2.219
   20W        W69901  16.733  39.341   0.411
   21W        W69902  44.485  29.040  11.968
   22W        W69903  37.891  16.701  14.775
   23W        W69904  34.029  30.606   3.640
   24W        W69905   8.219  20.207   4.353
   25W        W69906  28.551  32.507  11.956
   26W        W69907  18.764  31.563  11.573
   27W        W69908  37.046  37.548   2.240
   28W        W69909  24.199   3.404   0.413
   29W        W69910   9.184  38.521  11.953
   30W        W69911  14.675  16.693   2.731
   31W        W69912  32.961  34.573  14.424
   32W        W69913  44.474   8.353   3.146
   33W        W69914  16.074  26.159  14.936
   34W        W69915  43.335  37.858  10.593
   35W        W69916  43.797  44.421  10.410
   36W        W69917  38.990  37.994   0.839
   37W        W69918  19.051   8.233  12.941
   38W        W69919  13.286  42.936  13.440
   39W        W69920  34.452  11.795   2.359
   40W        W69921  15.179  30.454  13.499
   41W        W69922  43.478   2.858   0.330
   42W        W69923  13.314  17.692   4.782
   43W        W69924  44.777  25.654  14.931
   44W        W69925  34.963  33.012   1.761
   45W        W69926  42.404   4.865   2.389
   46W        W69927  35.431  36.028  11.054
   47W        W69928  40.343  17.731  11.125
   48W        W69929   3.241  31.514   0.366
   49W        W69930   5.800  19.577  11.057
   50W        W69931  43.829   4.388  12.953
   51W        W69932   0.282  31.101   2.757
   52W        W69933  23.717  35.878   3.864
   53W        W69934  21.109  35.989   3.358
   54W        W69935  43.962  16.095   0.333
   55W        W69936   7.362   7.851  12.419
   56W        W69937   6.328  32.059  10.947
   57W        W69938  17.175  19.710   1.782
   58W        W69939  37.929   4.806  10.415
   59W        W69940   7.181  31.510  14.342
   60W        W69941  20.585  40.468   2.765
   61W        W69942  44.421  13.278  10.434
   62W        W69943  34.073   6.712   2.885
   63W        W69944   2.311   1.265   4.718
   64W        W69945  28.062  36.498  13.325
   65W        W69946   2.913  22.721  12.503
   66W        W69947  19.165  11.682   1.911
   67W        W69948   1.458  23.707   1.242
   68W        W69949   2.966  29.068   4.731
   69W        W69950   0.939  34.516  14.988
   70W        W69951  23.177   8.219   4.823
   71W        W69952   9.290  12.286   2.761
   72W        W69953  13.340  30.555   2.712
   73W        W69954  12.288  20.071  13.396
   74W        W69955  29.439  39.989   3.174
   75W        W69956  20.154  41.026   2.409
   76W        W69957   6.690  39.332  12.516
   77W        W69958  44.494  18.692   2.213
   78W        W69959  27.073  23.545  14.767
   79W        W69960  13.645  29.440   2.350
   80W        W69961  25.685  25.095   0.819
   81W        W69962   5.756  14.697   0.255
   82W        W69963  26.671   5.326  11.393
   83W        W69964  26.537  13.667  14.376
   84W        W69965   7.689  11.664  10.990
   85W        W69966  23.572   8.274   0.863
   86W        W69967   2.852  17.629  14.764
   87W        W69968  42.811  17.087   3.172
   88W        W69969  23.169  20.177  12.567
   89W        W69970  19.109  25.103   1.786
   90W        W69971   0.982  11.727   4.785
   91W        W69972  12.724  41.374  14.463
   92W        W69973  19.702   8.208  12.420
   93W        W69974  31.497  21.106   2.851
   94W        W69975  42.801  32.040  14.920
   95W        W69976  10.149  43.373  14.484
   96W        W69977  34.104  35.892   0.447
   97W        W69978  14.237  40.798  10.967
   98W        W69979  41.965  17.578   1.266
   99W        W69980  41.042  10.270   0.285
  100W        W69981  34.395  23.214   2.210
  101W        W69982   4.943  36.895  10.489
  102W        W69983  30.425  17.132   0.960
  103W        W69984  13.607  25.708  14.941
  104W        W69985   3.859  19.155   0.802
  105W        W69986  43.353  27.491   0.881
  106W        W69987  25.609  15.138   4.217
  107W        W69988   1.353  19.169   2.237
  108W        W69989  41.326   9.772   3.267
  109W        W69990  38.409   8.258   2.226
  110W        W69991  30.113   9.365   1.899
  111W        W69992  24.065  36.007   0.467
  112W        W69993  18.186  36.576  11.408
  113W        W69994  21.239   9.306   4.744
  114W        W69995  13.708   8.722  14.328
  115W        W69996  36.392   4.908  13.460
  116W        W69997  17.132  37.998  12.343
  117W        W69998  24.688  40.848  10.459
  118W        W69999   7.172  15.592   1.280
  119W        W70000   7.771  41.896  14.981
  120W        W70001   5.906  30.957   3.848
  121W        W70002  31.583  18.696   2.876
  122W        W70003  16.076  25.647   3.369
  123W        W70004   4.933  34.072   4.179
  124W        W70005  28.086  28.121   0.339
  125W        W70006  30.088   3.431   3.292
  126W        W70007  33.385  12.143  12.434
  127W        W70008  40.458  24.493   0.939
  128W        W70009  10.780  42.472   2.759
  129W        W70010  13.773   7.177  13.838
  130W        W70011   1.375   8.793  13.063
  131W        W70012   4.244  35.499  14.494
  132W        W70013  23.547  16.313   0.260
  133W        W70014  29.169  31.902   0.419
  134W        W70015   3.776  39.826   0.291
  135W        W70016  12.181  31.408  11.033
  136W        W70017  44.415  39.974   4.612
  137W        W70018  14.248   3.737   2.384
  138W        W70019  11.174  12.656   3.249
  139W        W70020  44.304  10.874  11.488
  140W        W70021  31.482  19.080   5.738
  141W        W70022   5.732  43.910   2.371
  142W        W70023  38.914  18.099  11.022
  143W        W70024   3.779  36.441   2.863
  144W        W70025   3.225  32.567  13.967
  145W        W70026   6.314  19.055   4.628
  146W        W70027  19.269  27.946   1.410
  147W        W70028  25.709  27.527  14.385
  148W        W70029  29.541   7.299  11.474
  149W        W70030  18.262  27.143  10.585
  150W        W70031  15.683  12.643   1.239
  151W        W70032  36.422  19.263  11.902
  152W        W70033  26.118  36.525   2.285
  153W        W70034   4.351  36.953  13.855
  154W        W70035  24.596  37.416  14.320
  155W        W70036   1.294  15.666   1.422
  156W        W70037  30.969   5.853  11.016
  157W        W70038  12.265   4.409   0.401
  158W        W70039  10.192   6.850   4.290
  159W        W70040  30.108  19.675  13.317
  160W        W70041  44.297  13.342   4.127
  161W        W70042  26.603   1.949   1.862
  162W        W70043  23.730   4.389  11.521
  163W        W70044  22.589  25.022  14.927
  164W        W70045   8.794  11.648   4.747
  165W        W70046  24.008   2.303  12.435
  166W        W70047   2.262  21.579   3.383
  167W        W70048   6.780  27.569   0.437
  168W        W70049  40.873  41.029   0.780
  169W        W70050   0.797  20.768   1.371
  170W        W70051  35.380  21.626  12.442
  171W        W70052  40.405  31.422  12.364
  172W        W70053  36.024   4.333  12.082
  173W        W70054   8.853  10.341   1.875
  174W        W70055  18.175  16.805   4.651
  175W        W70056  27.534   5.368  11.858
  176W        W70057  39.436   6.852   1.783
  177W        W70058  17.108  33.407   2.697
  178W        W70059   6.835  19.220  14.855
  179W        W70060  22.119  14.809   4.787
  180W        W70061  42.419  40.434   3.851
  181W        W70062  22.180  35.937   0.281
  182W        W70063  34.975  34.443  11.900
  183W        W70064  35.903   6.909  11.933
  184W        W70065   7.765  36.949  13.412
  185W        W70066  12.158  36.479  10.438
  186W        W70067  42.976   4.756  12.435
  187W        W70068  11.768  17.239  13.329
  188W        W70069   7.358  30.484   1.876
  189W        W70070  22.704  20.580   0.342
  190W        W70071  25.634  10.191   2.714
  191W        W70072  22.516  19.117  11.488
  192W        W70073  29.482  18.132  14.486
  193W        W70074  30.999  32.999  13.940
  194W        W70075  12.244  26.095   4.790
  195W        W70076  42.006   1.838   3.734
  196W        W70077   9.363  11.835  11.522
  197W        W70078   0.953  26.047   3.207
  198W        W70079  37.883   1.384   0.896
  199W        W70080   4.940   6.870  14.972
  200W        W70081  27.475  24.506   3.305
  201W        W70082  36.897  26.021  11.433
  202W        W70083  10.834  26.975   1.837
  203W        W70084  43.898  17.245   0.953
  204W        W70085   7.228  16.811   2.848
  205W        W70086  27.102  33.982  13.394
  206W        W70087  20.734   2.940  14.424
  207W        W70088  26.615   7.868  13.884
  208W        W70089   2.852  35.448   2.245
  209W        W70090  37.428  30.988   0.888
  210W        W70091  24.619   0.847   0.298
  211W        W70092  41.377  20.070  12.532
  212W        W70093  22.195  34.897   4.230
  213W        W70094   3.715  33.503   4.134
  214W        W70095  37.963  20.272  12.973
  215W        W70096  16.154  35.895   4.831
  216W        W70097  40.350  30.653  11.496
  217W        W70098  10.817   0.911   4.266
  218W        W70099  29.926   1.381   4.283
  219W        W70100  15.672  30.520  13.316
  220W        W70101   4.275  18.676  14.480
  221W        W70102  36.559  12.620   2.291
  222W        W70103   0.791   8.190  10.567
  223W        W70104   2.295  26.111   2.313
  224W        W70105  19.756  23.166  12.362
  225W        W70106  31.583  18.783   1.277
  226W        W70107   8.231  22.570   4.340
  227W        W70108   5.912  39.811   4.621
  228W        W70109  30.549   0.841   3.307
  229W        W70110  11.674  21.060  12.432
  230W        W70111   0.357   4.276  12.913
  231W        W70112  13.268  28.161   0.386
  232W        W70113  37.081   9.738   4.628
  233W        W70114  17.101   9.664   0.800
  234W        W70115  41.957  17.739   3.665
  235W        W70116  35.997  24.079  10.412
  236W        W70117  20.211   1.243   5.303
  237W        W70118  34.410  33.613   4.660
  238W        W70119  37.859  37.944   1.733
  239W        W70120  19.755  42.461   1.279
  240W        W70121  37.379   6.413  11.532
  241W        W70122  32.998  12.657  13.897
  242W        W70123  41.941  23.544  12.388
  243W        W70124  21.665  33.624   1.417
  244W        W70125  18.602   8.756   5.224
  245W        W70126  26.513  11.193  11.870
  246W        W70127  22.505  40.977   4.641
  247W        W70128  29.589  16.140  13.978
  248W        W70129  18.065  33.620   0.948
  249W        W70130  26.203  32.547   0.296
  250W        W70131  28.149  26.662  13.402
  251W        W70132  13.635  39.909   4.801
  252W        W70133  26.687  14.288  11.539
  253W        W70134  28.438  17.641  10.430
  254W        W70135  32.628  27.602  14.883
  255W        W70136  40.838  44.436  11.972
  256W        W70137  14.700   8.267   3.801
  257W        W70138  37.950  26.580   3.650
  258W        W70139  14.312  34.116   1.809
  259W        W70140  20.229  30.603   2.396
  260W        W70141  32.894  15.217  11.549
  261W        W70142  27.093  28.934   3.654
  262W        W70143  11.687  28.061   0.261
  263W        W70144   0.944   9.256   4.122
  264W        W70145  15.313  13.804   4.280
  265W        W70146  22.720   4.285   4.222
  266W        W70147  44.433  38.930   1.921
  267W        W70148  41.853  16.749   2.719
  268W        W70149  40.408   0.356   4.316
  269W        W70150  10.238   0.842   1.914
  270W        W70151  42.827  24.515  10.574
  271W        W70152  15.778   2.247   1.696
  272W        W70153   7.244   6.414   2.394
  273W        W70154  19.168  34.551  13.395
  274W        W70155   8.378   3.283   3.174
  275W        W70156  38.919  41.362  10.546
  276W        W70157  30.072  23.651   3.659
  277W        W70158  40.361  12.669   3.782
  278W        W70159   1.861  20.555  11.895
  279W        W70160   7.711   1.737   0.767
  280W        W70161  35.453  16.787  11.383
  281W        W70162  39.541  29.556   3.854
  282W        W70163  35.996   3.714  10.591
  283W        W70164   7.217   7.686  13.344
  284W        W70165  24.193   9.206  12.976
  285W        W70166   4.907  28.671   3.272
  286W        W70167  44.356  43.331   2.374
  287W        W70168  43.320   0.312  14.995
  288W        W70169   0.435  44.824   4.657
  289W        W70170  25.685  43.807  11.501
  290W        W70171  16.595   3.896  11.053
  291W        W70172  13.769   9.783  11.956
  292W        W70173  19.203  34.041   0.350
  293W        W70174  25.217  40.863  11.901
  294W        W70175  15.738  32.056  13.512
  295W        W70176  20.563  27.530  11.402
  296W        W70177  36.040  30.632  11.594
  297W        W70178   2.783  15.221  13.973
  298W        W70179  42.400  33.506  12.950
  299W        W70180  36.084  30.138  11.023
  300W        W70181   6.327  18.767  10.906
  301W        W70182  15.323   4.438  12.949
  302W        W70183   5.707  28.156  12.889
  303W        W70184  38.823   2.294  10.929
  304W        W70185  34.113  39.464   3.386
  305W        W70186  30.064  43.980  12.022
  306W        W70187  12.730  29.467  14.976
  307W        W70188  30.037  15.656  14.299
  308W        W70189  12.740   0.792   0.480
  309W        W70190  39.451  37.571  14.483
  310W        W70191   2.311  29.154  14.493
  311W        W70192  39.338  31.061  13.041
  312W        W70193  39.523  13.269   3.350
  313W        W70194  40.429  13.702  14.847
  314W        W70195  32.984  44.396  13.464
  315W        W70196   8.334  41.495   0.940
  316W        W70197   9.392  36.878   3.755
  317W        W70198   4.389  13.279   4.823
  318W        W70199  19.657  37.834  11.442
  319W        W70200  11.648  13.605   0.276
  320W        W70201  21.574  31.131  11.502
  321W        W70202  26.976  30.615   0.794
  322W        W70203  13.177  22.613   2.266
  323W        W70204  19.258  28.106  14.428
  324W        W70205  35.087  36.080  10.510
  325W        W70206  34.467  30.042  10.542
  326W        W70207  31.106  33.045  10.601
  327W        W70208   4.890  34.445   2.758
  328W        W70209  19.540  32.536   2.258
  329W        W70210  44.759  37.905  14.406
  330W        W70211  16.303  16.310  11.498
  331W        W70212  38.424   7.246   1.357
  332W        W70213   0.876  23.233   4.184
  333W        W70214   0.942  25.539   0.739
  334W        W70215  30.425  21.722   1.315
  335W        W70216  33.003  39.538  12.976
  336W        W70217   2.953  11.867  10.988
  337W        W70218  28.965   1.354   0.909
  338W        W70219   0.383  24.095  11.983
  339W        W70220  28.562  38.539   3.292
  340W        W70221  21.187  23.013  11.492
  341W        W70222   2.358  42.332   1.855
  342W        W70223  35.049  10.644  14.416
  343W        W70224  25.994  16.162   1.287
  344W        W70225  13.128  34.386  13.041
  345W        W70226  17.706  20.549  13.856
  346W        W70227  43.823  32.478   0.844
  347W        W70228  37.972  34.574  12.460
  348W        W70229   1.251   2.344   3.299
  349W        W70230   0.938  42.777  14.460
  350W        W70231  20.557  11.363  13.881
  351W        W70232  28.482  16.084   1.781
  352W        W70233  28.540  17.154   4.135
  353W        W70234  21.639  17.601  10.531
  354W        W70235  10.851  26.965  13.950
  355W        W70236  44.358  18.096  14.319
  356W        W70237  36.864  26.666   3.215
  357W        W70238  43.411  27.090   0.857
  358W        W70239   9.796  25.118   0.377
  359W        W70240  40.832  27.134   2.267
  360W        W70241  32.016  37.862  14.941
  361W        W70242  33.972   6.182   1.237
  362W        W70243   2.442  39.477  13.043
  363W        W70244  19.599  40.991  13.384
  364W        W70245  13.210  28.041  14.375
  365W        W70246  30.055  37.339  10.523
  366W        W70247  33.102  17.107  13.319
  367W        W70248  30.927   2.399  11.565
  368W        W70249   4.917  42.918  13.450
  369W        W70250  10.236  21.624  12.950
  370W        W70251  16.149  39.541  12.883
  371W        W70252  30.071  30.505  13.947
  372W        W70253  22.184  33.989  11.890
  373W        W70254  28.036   8.782   1.705
  374W        W70255  41.427   4.219  13.366
  375W        W70256  13.239  21.171   2.363
  376W        W70257   1.388  21.263  11.976
  377W        W70258  28.178  44.376  13.800
  378W        W70259  16.207  18.291   0.870
  379W        W70260  41.008  37.467  13.887
  380W        W70261  35.528   3.399   0.445
  381W        W70262   7.207  19.268  13.941
  382W        W70263   2.764  38.982  12.993
  383W        W70264  16.746  10.246  12.385
  384W        W70265  23.022  44.777   0.251
  385W        W70266  31.449  10.138   2.388
  386W        W70267   6.256  34.403   2.345
  387W        W70268  22.710   8.327  11.859
  388W        W70269   9.326  26.092  11.985
  389W        W70270  39.384  15.672  10.431
  390W        W70271  21.600  36.427  10.643
  391W        W70272  25.017  27.510   2.296
  392W        W70273  26.531   8.211  13.791
  393W        W70274  22.573  11.816  12.484
  394W        W70275  32.586   1.750  11.030
  395W        W70276  37.413  17.149   1.860
  396W        W70277  10.680   7.335  12.477
  397W        W70278  34.052  27.518   1.869
  398W        W70279   9.237  37.486   1.760
  399W        W70280  19.164  35.977   4.335
  400W        W70281   8.349   2.824   0.369
  401W        W70282  31.007  20.741  13.965
  402W        W70283  12.848   1.432   0.872
  403W        W70284   1.273  40.973  10.622
  404W        W70285  41.433  23.132   0.767
  405W        W70286  38.455  15.194   3.844
  406W        W70287   9.836  12.266   4.319
  407W        W70288   6.289  35.965  14.774
  408W        W70289   0.262  21.706   4.137
  409W        W70290  43.885   4.444  11.441
  410W        W70291  39.902  20.598   2.838
  411W        W70292  21.714   6.426   0.434
  412W        W70293  13.742   8.326  13.388
  413W        W70294  43.284  28.987   2.316
  414W        W70295  12.270  10.734  13.316
  415W        W70296  22.065  30.146   2.717
  416W        W70297  33.875  21.592  12.007
  417W        W70298   9.699   5.732  11.422
  418W        W70299  16.151   9.812   3.711
  419W        W70300   3.926  22.514   4.300
  420W        W70301  19.745  19.146  13.350
  421W        W70302   9.744  41.951   4.828
  422W        W70303   0.947  37.922  13.482
  423W        W70304  13.611  34.498  12.351
  424W        W70305  30.162  32.545   3.257
  425W        W70306  40.892  23.057  10.633
  426W        W70307  31.415  20.142  13.376
  427W        W70308  18.175  11.150   3.326
  428W        W70309  13.711   6.720  14.977
  429W        W70310   0.334  20.641   4.721
  430W        W70311  11.320   9.335   3.170
  431W        W70312  38.073  31.136  11.074
  432W        W70313  39.526  10.717  14.397
  433W        W70314  22.636  17.149  10.543
  434W        W70315  14.603  33.584   0.317
  435W        W70316   6.405  17.570   1.773
  436W        W70317   5.921   0.944  13.327
  437W        W70318   6.209  26.123   4.298
  438W        W70319  27.116  41.466  14.857
  439W        W70320  20.161  30.040   1.374
  440W        W70321  17.074  13.656  13.966
  441W        W70322  16.755  15.769   0.935
  442W        W70323  16.254  18.706  11.504
  443W        W70324  21.695  27.190   2.834
  444W        W70325  19.706  24.568   1.793
  445W        W70326  37.358  32.076   9.953
  446W        W70327   5.692  44.311   2.818
  447W        W70328  13.170  42.830  12.418
  448W        W70329  27.662  38.372  11.931
  449W        W70330  31.403   2.436  12.977
  450W        W70331  18.165  24.168   4.659
  451W        W70332  28.041  28.022   1.843
  452W        W70333  16.719  36.394   3.781
  453W        W70334  21.639  26.978   4.196
  454W        W70335  14.182  38.900   1.912
  455W        W70336  10.233  27.948  11.491
  456W        W70337   7.747   1.323  11.373
  457W        W70338   6.335  37.403  13.513
  458W        W70339  18.058   2.365  10.598
  459W        W70340  25.559  33.112  10.595
  460W        W70341   1.934  12.361  10.523
  461W        W70342  42.465  28.553  11.450
  462W        W70343  21.641   5.430   1.305
  463W        W70344  19.261   7.832  10.521
  464W        W70345  26.629  36.518  11.580
  465W        W70346  14.665  18.590   2.269
  466W        W70347   0.454   4.212   1.422
  467W        W70348  31.597  40.906  11.884
  468W        W70349  21.731  37.969   0.355
  469W        W70350  26.509  41.489   2.720
  470W        W70351  34.012  26.541   5.141
  471W        W70352   0.772  26.667   1.847
  472W        W70353   0.754   8.658  13.887
  473W        W70354  10.275  23.635   1.321
  474W        W70355  30.101  17.657  11.074
  475W        W70356  44.936  37.389  14.005
  476W        W70357  23.146  29.098  13.950
  477W        W70358  35.490   7.754  13.898
  478W        W70359  29.962  44.802   2.897
  479W        W70360  41.457  21.178  11.372
  480W        W70361  13.341  42.281  12.580
  481W        W70362  33.969  41.995   4.197
  482W        W70363  22.226  43.904  11.879
  483W        W70364   6.419  20.118  11.462
  484W        W70365  12.828  12.845  14.806
  485W        W70366   4.440   0.492   0.372
  486W        W70367  12.661  18.766   5.753
  487W        W70368  44.922  40.304  11.555
  488W        W70369   9.693  10.247  14.999
  489W        W70370  39.531  18.627   0.901
  490W        W70371  22.525  44.280   1.712
  491W        W70372   2.768  23.149   4.131
  492W        W70373  23.122  27.519   1.248
  493W        W70374  23.131  43.376   2.747
  494W        W70375  28.116  41.512   1.724
  495W        W70376  10.283   1.960   0.433
  496W        W70377  31.501  15.313  13.920
  497W        W70378  43.455   1.954  14.966
  498W        W70379  15.122  35.100  14.800
  499W        W70380  23.705  38.546  14.855
  500W        W70381  31.481  35.074   0.917
  501W        W70382  41.004  36.429   1.306
  502W        W70383  15.216  42.854   0.483
  503W        W70384  31.522   9.815   1.916
  504W        W70385   8.356  29.007   4.213
  505W        W70386  21.691   3.730  11.378
  506W        W70387  16.577  34.887  13.842
  507W        W70388  30.063  16.593   1.765
  508W        W70389  25.147  44.267   3.802
  509W        W70390  11.644  36.970  11.454
  510W        W70391  15.714  28.508  11.950
  511W        W70392  23.603  41.303   3.719
  512W        W70393  35.587   1.259   0.946
  513W        W70394  37.344   7.827   4.780
  514W        W70395   0.326  10.772  14.432
  515W        W70396  25.143  41.382  12.979
  516W        W70397  28.120   5.349  11.594
  517W        W70398  29.510  42.899  12.348
  518W        W70399  22.172  23.034   0.863
  519W        W70400  38.347   4.392  10.998
  520W        W70401  19.094  38.461   4.817
  521W        W70402  32.885  26.157   4.339
  522W        W70403  10.679   9.768  13.892
  523W        W70404  14.321  20.741   4.153
  524W        W70405  33.897  28.600   2.407
  525W        W70406  28.500   4.704  11.578
  526W        W70407  34.963   1.336   3.272
  527W        W70408  32.039  19.163  11.514
  528W        W70409  39.443   7.692  13.336
  529W        W70410  12.361  37.356   3.149
  530W        W70411   2.362  16.597  11.503
  531W        W70412  13.762   8.239   2.696
  532W        W70413  39.323  37.530   1.769
  533W        W70414  28.633  39.916   0.483
  534W        W70415  13.710  44.886   2.258
  535W        W70416   4.894  25.526   0.930
  536W        W70417  37.540  33.091  10.484
  537W        W70418  18.182   2.323   1.922
  538W        W70419  11.188  17.731  10.985
  539W        W70420  27.962  21.089  14.851
  540W        W70421  38.341   5.784   0.748
  541W        W70422  17.147   6.740  12.900
  542W        W70423  31.906  10.282  10.012
  543W        W70424  34.506   6.730   0.287
  544W        W70425  15.753  36.954   4.704
  545W        W70426   8.235  23.659  14.913
  546W        W70427  14.145  33.921  11.393
  547W        W70428   4.368  36.534   3.817
  548W        W70429  25.531  17.640  12.836
  549W        W70430  30.436  42.793   3.190
  550W        W70431  25.050  34.020  10.576
  551W        W70432  23.541  27.686  14.833
  552W        W70433  24.649  35.907   4.745
  553W        W70434   3.324  10.291  10.126
  554W        W70435  28.586  24.010  11.581
  555W        W70436  34.918  12.846   0.300
  556W        W70437   5.361  31.949   4.661
  557W        W70438  26.084  21.530  10.970
  558W        W70439  14.774  14.662   0.873
  559W        W70440  24.974  16.689  11.416
  560W        W70441   0.953   1.389  12.003
  561W        W70442  29.102  44.854   0.424
  562W        W70443  15.753  27.664  12.884
  563W        W70444  21.039  44.830  10.977
  564W        W70445   5.283  27.672   1.910
  565W        W70446  21.564  44.305   9.478
  566W        W70447   9.864  20.556   2.348
  567W        W70448  26.574  39.883   1.779
  568W        W70449  27.564  34.400  12.490
  569W        W70450  38.359   3.292  13.545
  570W        W70451   9.886   9.304   4.655
  571W        W70452  23.161  29.011   0.785
  572W        W70453  17.279  39.835   0.891
  573W        W70454  26.696  29.022   2.321
  574W        W70455  39.013   9.873   2.352
  575W        W70456   3.398  15.804   1.368
  576W        W70457  41.949  12.684   3.233
  577W        W70458  31.644  28.081   3.278
  578W        W70459   9.360  30.023   4.168
  579W        W70460   6.227   3.433   2.665
  580W        W70461  31.553   1.906   0.802
  581W        W70462   6.720  36.380   3.805
  582W        W70463  10.840  44.455   1.717
  583W        W70464  44.782   2.808  14.446
  584W        W70465  37.357  36.539  14.917
  585W        W70466   7.334  15.166   1.269
  586W        W70467  43.400  36.556   4.777
  587W        W70468   7.294  44.010   2.838
  588W        W70469   9.662  23.495   1.448
  589W        W70470  42.785  16.125   1.794
  590W        W70471  19.585  27.575   0.383
  591W        W70472  44.893   4.748  11.420
  592W        W70473   3.713  30.976  12.927
  593W        W70474  11.210   8.349   1.882
  594W        W70475  41.037  40.003  14.844
  595W        W70476   1.401  19.613   0.810
  596W        W70477  40.445  34.101  12.566
  597W        W70478  21.550  22.683  10.969
  598W        W70479  37.462  41.835   4.303
  599W        W70480  32.505  29.523   0.862
  600W        W70481  42.900  12.830  14.494
  601W        W70482  33.410   8.281  14.439
  602W        W70483   5.808  30.952  11.079
  603W        W70484  44.381  13.190  14.308
  604W        W70485  17.644   8.240  11.459
  605W        W70486  35.033  22.123  10.949
  606W        W70487  29.090  22.202  14.789
  607W        W70488  41.317  23.533   2.755
  608W        W70489  41.963  14.185   0.865
  609W        W70490  40.437   9.791  10.408
  610W        W70491  30.978  17.671  14.894
  611W        W70492   7.725  17.123   4.266
  612W        W70493  40.025   4.355  14.499
  613W        W70494   1.300  44.369   0.862
  614W        W70495   3.424  11.284  13.000
  615W        W70496  41.393  14.111  14.980
  616W        W70497   0.457  19.095   3.773
  617W        W70498  12.725  14.601  11.565
  618W        W70499  14.194  31.070   1.346
  619W        W70500  18.065  26.969  12.070
  620W        W70501  39.060   7.403  14.817
  621W        W70502  10.657  32.613  12.079
  622W        W70503  38.943  35.014   3.318
  623W        W70504  34.103   8.269  11.061
  624W        W70505  11.823   4.809   4.671
  625W        W70506  28.015   4.792  11.045
  626W        W70507  43.362  38.470  12.486
  627W        W70508  17.174  36.080   0.406
  628W        W70509   8.252  17.754  14.768
  629W        W70510  14.284  34.557  13.382
  630W        W70511   5.826  11.674  10.563
  631W        W70512   0.930  30.011   3.289
  632W        W70513  22.197  26.563  11.479
  633W        W70514  36.047  42.355   3.867
  634W        W70515  44.933   4.867   1.245
  635W        W70516  35.944   5.415   0.860
  636W        W70517  43.835   9.880   0.409
  637W        W70518  43.940  24.576   3.653
  638W        W70519  39.525  42.942  11.377
  639W        W70520  41.997  39.828  11.024
  640W        W70521  37.985  14.216  11.536
  641W        W70522  24.707   7.717  12.025
  642W        W70523  16.228  34.923   4.158
  643W        W70524  30.503  25.164  14.758
  644W        W70525  29.131  13.247   1.739
  645W        W70526  23.150  16.609   1.823
  646W        W70527  34.514  23.497  14.805
  647W        W70528  22.144  31.085   1.425
  648W        W70529  24.703  35.904  11.993
  649W        W70530  26.603  20.709   3.822
  650W        W70531  38.059   2.827   1.906
  651W        W70532  27.542  29.602  11.981
  652W        W70533   4.255  25.201   3.319
  653W        W70534   2.259   7.197   1.890
  654W        W70535  20.165  40.818   4.304
  655W        W70536   6.258  12.293  10.926
  656W        W70537  24.038  34.081  12.521
  657W        W70538  14.719  11.178  11.539
  658W        W70539  27.633  26.496  12.427
  659W        W70540   9.880  43.393  10.501
  660W        W70541  19.757  43.470   0.433
  661W        W70542   9.385   0.459   3.806
  662W        W70543   5.928  37.033   4.822
  663W        W70544  25.051  21.244  10.014
  664W        W70545  11.633   6.766  13.828
  665W        W70546  17.762   1.483  10.958
  666W        W70547  38.043  17.245   1.291
  667W        W70548  18.702  43.839  13.492
  668W        W70549  12.758   3.311  13.049
  669W        W70550  14.278  33.891   3.727
  670W        W70551  11.282   7.358   0.934
  671W        W70552   5.878  37.350  10.408
  672W        W70553   0.318  33.114  12.378
  673W        W70554  26.995  17.131  11.572
  674W        W70555  11.833   6.369   3.824
  675W        W70556   5.400  22.535   1.804
  676W        W70557   1.975  22.247   1.749
  677W        W70558  36.528  27.572   2.737
  678W        W70559   3.428   4.702   1.740
  679W        W70560  29.047  44.275  11.469
  680W        W70561   6.241   0.746  13.051
  681W        W70562   2.778  17.231  11.949
  682W        W70563  39.372  28.557  10.644
  683W        W70564  35.898  19.683  10.547
  684W        W70565  37.582  38.870   2.227
  685W        W70566  43.358   7.201   4.312
  686W        W70567  23.529  40.378   2.880
  687W        W70568  36.975   1.908  10.939
  688W        W70569  38.891   6.750   0.448
  689W        W70570  25.685  28.169  12.537
  690W        W70571  23.155  16.291   5.802
  691W        W70572   5.271  15.230   3.288
  692W        W70573  42.496  21.150  13.379
  693W        W70574  19.590  16.105  13.969
  694W        W70575  37.078  11.699   2.696
  695W        W70576  16.124  37.344  12.398
  696W        W70577  10.716  43.407  10.973
  697W        W70578  44.905  35.074   4.201
  698W        W70579   5.802   0.425  12.890
  699W        W70580  41.930  16.622   2.233
  700W        W70581  39.912  21.561   2.673
  701W        W70582  44.423  38.878   0.367
  702W        W70583  37.578  32.910   0.283
  703W        W70584  13.792  35.082   2.345
  704W        W70585  29.651  29.452   3.724
  705W        W70586  44.853  33.981  11.059
  706W        W70587  10.149  10.703   4.320
  707W        W70588  37.577  29.599   2.259
  708W        W70589   5.355  31.923  11.035
  709W        W70590   2.793   1.404  11.121
  710W        W70591   5.362  41.043  13.052
  711W        W70592  18.178  34.504  10.456
  712W        W70593  36.008  30.087   4.203
  713W        W70594   5.910  13.758   3.360
  714W        W70595  10.165  44.803   0.798
  715W        W70596  40.973  18.235  10.464
  716W        W70597   7.835  31.597   4.267
  717W        W70598  21.660   0.349  13.318
  718W        W70599  27.951  37.342  10.625
  719W        W70600  40.328  19.601  12.055
  720W        W70601  35.564  19.103   2.892
  721W        W70602  20.540  20.623   2.331
  722W        W70603  19.127  43.826  10.441
  723W        W70604  12.814  38.386   4.793
  724W        W70605   3.857  37.361  13.325
  725W        W70606  17.667   1.918   0.752
  726W        W70607  23.239  19.748   3.309
  727W        W70608   9.188  11.843  11.035
  728W        W70609  44.011  38.338   3.730
  729W        W70610  20.693  44.441   1.905
  730W        W70611  17.636  35.536   2.210
  731W        W70612  35.958  12.707   4.735
  732W        W70613  21.039  27.546   3.800
  733W        W70614   3.907  39.524   1.732
  734W        W70615   7.856  40.952  14.855
  735W        W70616  23.072  36.026   3.304
  736W        W70617  44.912  17.727   1.422
  737W        W70618   9.298  29.094   2.715
  738W        W70619  20.617  23.232  11.032
  739W        W70620   3.421   5.759  14.023
  740W        W70621   0.369   4.841  13.993
  741W        W70622  34.479  15.164   3.291
  742W        W70623  43.282   5.787   4.172
  743W        W70624  44.774  20.204   2.199
  744W        W70625   2.325  21.118   1.743
  745W        W70626  30.623  34.024  14.284
  746W        W70627   8.320  27.000   1.877
  747W        W70628  41.444  35.525  13.446
  748W        W70629  20.055  19.681  12.913
  749W        W70630  40.000   2.900  11.434
  750W        W70631  28.059  27.959  10.921
  751W        W70632  43.320  35.580  10.462
  752W        W70633  24.712  23.004  13.460
  753W        W70634  22.162  15.302  14.956
  754W        W70635  15.729  29.125  13.980
  755W        W70636  13.235   9.368   4.611
  756W        W70637  13.684  30.109  14.282
  757W        W70638  17.715  22.569   1.810
  758W        W70639   6.804  22.159  14.820
  759W        W70640  42.343  26.023   2.211
  760W        W70641  26.559  43.006   2.707
  761W        W70642   3.890  10.172  13.379
  762W        W70643  28.587   0.788  10.904
  763W        W70644   6.850  35.861  10.895
  764W        W70645  25.045  14.736  13.932
  765W        W70646   2.381   1.272  10.512
  766W        W70647  33.966   3.444   3.695
  767W        W70648  31.148  16.656   3.322
  768W        W70649  16.311  21.142   3.689
  769W        W70650  35.446  39.495  13.498
  770W        W70651  34.069  35.917   0.799
  771W        W70652  32.478  29.063   4.695
  772W        W70653  11.656   6.249   2.810
  773W        W70654  25.546   6.781  11.885
  774W        W70655  44.331   9.726  12.411
  775W        W70656  15.148  17.679  12.093
  776W        W70657  26.152  34.055  14.433
  777W        W70658  19.162   3.226   0.751
  778W        W70659  40.327  17.560   2.664
  779W        W70660   7.315  26.603  10.503
  780W        W70661  18.776  14.664  14.805
  781W        W70662  21.744   7.413  13.517
  782W        W70663  24.549   8.191   1.805
  783W        W70664  23.611  21.728   0.281
  784W        W70665   6.327  12.671  13.059
  785W        W70666  44.372  25.134  13.449
  786W        W70667  24.127  36.951  12.969
  787W        W70668  28.073  18.733   4.225
  788W        W70669  13.800  18.636  14.842
  789W        W70670  15.678  15.688  11.473
  790W        W70671  40.474   0.908   5.082
  791W        W70672  41.924  35.508  14.771
  792W        W70673  40.799  17.707   3.383
  793W        W70674  26.462   0.285  14.906
  794W        W70675  20.213   1.386  11.426
  795W        W70676   0.340  31.093  11.536
  796W        W70677   3.718  37.577  13.937
  797W        W70678  43.504  22.503   2.284
  798W        W70679  21.613  35.052   0.397
  799W        W70680  43.811  39.374   4.811
  800W        W70681  20.086   8.188   3.216
  801W        W70682   8.779   0.384   0.447
  802W        W70683  32.550  14.163   1.278
  803W        W70684  14.738  37.548  10.404
  804W        W70685  31.145  15.251  14.453
  805W        W70686  26.560  28.080   4.747
  806W        W70687  20.186  24.708  14.002
  807W        W70688   2.850  21.157   4.713
  808W        W70689  10.648  35.418  13.857
  809W        W70690  10.755  22.623  10.631
  810W        W70691  20.180  15.766   1.362
  811W        W70692   9.839  42.330  15.000
  812W        W70693   5.811  17.103  13.833
  813W        W70694   9.332  23.698   0.370
  814W        W70695  38.823  25.068  14.812
  815W        W70696  29.168  36.048  12.061
  816W        W70697   4.338  24.625  11.593
  817W        W70698  19.631  19.044   1.296
  818W        W70699  12.820  40.389  12.436
  819W        W70700  28.106   7.734   4.197
  820W        W70701  39.555  17.677   0.254
  821W        W70702  22.154  32.634   1.239
  822W        W70703  44.347   6.282  14.899
  823W        W70704  33.898  28.488   4.115
  824W        W70705   2.453  19.242   2.860
  825W        W70706  17.621  13.340   2.240
  826W        W70707  18.752  41.499   4.297
  827W        W70708  23.117  43.331  14.376
  828W        W70709  22.021  15.318  13.024
  829W        W70710  16.193  37.551   0.898
  830W        W70711   2.319  24.488  10.925
  831W        W70712  27.635  14.717   3.760
  832W        W70713  14.198  38.827   9.484
  833W        W70714  31.612  36.064  13.390
  834W        W70715   8.790  24.021   3.757
  835W        W70716  27.681   1.815   4.637
  836W        W70717   9.258   6.869  14.275
  837W        W70718  38.344  19.243  12.991
  838W        W70719  30.652   2.384  11.520
  839W        W70720  44.965  39.504   3.860
  840W        W70721   2.784  36.919   2.307
  841W        W70722  42.494   6.351  12.028
  842W        W70723  13.284  15.259   4.660
  843W        W70724  13.255  36.490  11.092
  844W        W70725  35.854  28.665  11.566
  845W        W70726  26.974  21.708   1.920
  846W        W70727  38.497  14.652  14.851
  847W        W70728  21.635   4.366  13.955
  848W        W70729  33.402  17.703   3.182
  849W        W70730  22.055  16.153   2.314
  850W        W70731  12.757   7.377   2.235
  851W        W70732  15.282  23.547  14.838
  852W        W70733  30.416  34.963   1.384
  853W        W70734  43.862  11.652  12.048
  854W        W70735  40.857  44.941   3.678
  855W        W70736   5.753  25.605   2.339
  856W        W70737  36.974  37.860  13.467
  857W        W70738  13.683   1.804   0.799
  858W        W70739  10.767   4.885  13.892
  859W        W70740  40.978  37.045   2.329
  860W        W70741   6.822  40.853  12.011
  861W        W70742  17.772  29.173  13.955
  862W        W70743  22.124  10.201   4.630
  863W        W70744   3.376   5.836  11.403
  864W        W70745  24.123  44.852  12.083
  865W        W70746  44.933   0.280   0.776
  866W        W70747  39.971   6.228  11.517
  867W        W70748  20.179  29.635   0.931
  868W        W70749  24.024  41.968  14.863
  869W        W70750  34.094  41.443  13.516
  870W        W70751  12.145  15.320  10.414
  871W        W70752  18.132  29.506   4.687
  872W        W70753   9.762  23.650   0.402
  873W        W70754  29.009  32.429  12.361
  874W        W70755  18.751  26.963  10.479
  875W        W70756  40.962  21.562   2.252
  876W        W70757   2.441  40.355  11.873
  877W        W70758  43.895  42.286   0.466
  878W        W70759   1.329  13.814   3.795
  879W        W70760  10.158  39.999   0.477
  880W        W70761  18.684   8.195  10.913
  881W        W70762   5.827  38.965  12.054
  882W        W70763  20.167  27.666   0.845
  883W        W70764  13.791  12.118   0.421
  884W        W70765  35.461  43.482   0.356
  885W        W70766  42.398  44.298   4.299
  886W        W70767   0.888  23.037  11.998
  887W        W70768  29.627  30.577   3.683
  888W        W70769   7.704   0.358   1.335
  889W        W70770  40.502   0.343   2.369
  890W        W70771  27.116   7.245   0.358
  891W        W70772  26.964  28.441  11.521
  892W        W70773  39.973   3.400   4.124
  893W        W70774  20.246  24.034  14.815
  894W        W70775  23.999  12.816   9.954
  895W        W70776  43.765  28.977  12.515
  896W        W70777  37.535  41.407  14.934
  897W        W70778  18.708  43.508  13.503
  898W        W70779   2.255   2.374  14.292
  899W        W70780  39.552  28.940   1.358
  900W        W70781  34.874  15.199   2.797
  901W        W70782  36.588  35.038  10.929
  902W        W70783  21.133  10.703   1.778
  903W        W70784  12.349  40.879   1.268
  904W        W70785  27.979   6.922   4.296
  905W        W70786   9.830  43.831  12.393
  906W        W70787  20.200  27.481   3.298
  907W        W70788  31.499  44.900   4.615
  908W        W70789  11.193  19.086   3.836
  909W        W70790  24.600  15.087   4.794
  910W        W70791  17.204  25.479   9.987
  911W        W70792  43.292  40.013  10.048
  912W        W70793  18.141  14.117  14.876
  913W        W70794  15.293  34.592   0.417
  914W        W70795   5.856  22.632  11.865
  915W        W70796   9.165  42.905  14.923
  916W        W70797   8.319  41.786  13.042
  917W        W70798  29.440  16.733   4.787
  918W        W70799  21.238  43.940   5.675
  919W        W70800  11.753   6.724  13.548
  920W        W70801   4.315  13.140  11.406
  921W        W70802   9.302  30.435   2.311
  922W        W70803  43.467  36.885   3.839
  923W        W70804  14.720  12.222   4.647
  924W        W70805  33.916  35.042   0.912
  925W        W70806  40.323   3.461   2.669
  926W        W70807  10.815  29.544   9.995
  927W        W70808   8.721   4.834  11.382
  928W        W70809  25.534   2.376   3.244
  929W        W70810   0.400  19.770   0.440
  930W        W70811   7.785  24.021   3.351
  931W        W70812  33.466  27.526  11.571
  932W        W70813  31.049  12.779   0.967
  933W        W70814   3.411   4.339  11.535
  934W        W70815   3.942  32.912  11.565
  935W        W70816   2.785  19.152  12.392
  936W        W70817  37.385  31.111   1.443
  937W        W70818   3.761  43.972   3.187
  938W        W70819   2.738  11.319  12.398
  939W        W70820  44.799  32.523  12.062
  940W        W70821   7.263  39.905   3.716
  941W        W70822  13.281  36.999   2.366
  942W        W70823  17.271  43.801   2.273
  943W        W70824  38.447   1.855   3.856
  944W        W70825   0.922  27.567   3.371
  945W        W70826  26.613  44.474  10.515
  946W        W70827  38.356  20.161  12.400
  947W        W70828  41.356  16.711  14.807
  948W        W70829  39.839  23.670  11.612
  949W        W70830  42.351  43.377  10.589
  950W        W70831   0.880  10.306   0.269
  951W        W70832  35.572  36.436  13.389
  952W        W70833  27.097  36.510  12.555
  953W        W70834  22.182  15.267   1.377
  954W        W70835  37.912  34.566   3.358
  955W        W70836  28.661  34.007   2.356
  956W        W70837  24.978   2.921  10.973
  957W        W70838  40.459  31.996  10.889
  958W        W70839  27.130  23.501   0.797
  959W        W70840  31.977  26.009   3.350
  960W        W70841   5.817   1.970   3.211
  961W        W70842  43.468   6.273   3.271
  962W        W70843  41.996   7.320  12.443
  963W        W70844  15.230  44.883   4.613
  964W        W70845   0.805  10.250   2.903
  965W        W70846  29.503  22.139  12.365
  966W        W70847  13.802  23.572   1.730
  967W        W70848  33.875  32.920  10.527
  968W        W70849  22.735  27.064  13.832
  969W        W70850  32.138  24.636   3.170
  970W        W70851   5.259   4.884  11.869
  971W        W70852  13.629  27.525  13.472
  972W        W70853   9.274  35.911  13.956
  973W        W70854  43.984   8.212  12.938
  974W        W70855  39.385   9.735   4.292
  975W        W70856  22.162  12.765   1.284
  976W        W70857  37.028  12.704   0.818
  977W        W70858   0.402  28.568   1.268
  978W        W70859  27.647  13.782  11.004
  979W        W70860   3.726  28.516   0.453
  980W        W70861  41.390  29.652  10.527
  981W        W70862  37.834  35.519  13.963
  982W        W70863  23.233  28.028  10.998
  983W        W70864  27.965  39.985   5.272
  984W        W70865  38.416  18.230  11.381
  985W        W70866   1.879  22.592  10.414
  986W        W70867  39.520  27.948  12.831
  987W        W70868   7.825   4.731   3.717
  988W        W70869   8.867  33.967   3.194
  989W        W70870   1.933  16.670  11.423
  990W        W70871   7.183  42.027   4.655
  991W        W70872  16.809  43.511   2.867
  992W        W70873   5.252  15.823  12.958
  993W        W70874   2.929  39.529   3.307
  994W        W70875  14.170  22.617   5.087
  995W        W70876  39.037  12.768  10.575
  996W        W70877  24.140  27.951  12.957
  997W        W70878   9.726  15.690   0.745
  998W        W70879  32.477   0.974  13.942
  999W        W70880  22.085  37.347   4.725
 1000W        W70881  12.185  34.894   0.855
 1001W        W70882  32.498  26.203   2.754
 1002W        W70883  38.402  39.984  14.834
 1003W        W70884  44.486  26.620   2.294
 1004W        W70885  30.564   5.896   9.485
 1005W        W70886  12.207  16.586   1.279
 1006W        W70887  26.111  40.490   1.751
 1007W        W70888  41.026  35.005   2.380
 1008W        W70889  22.544  32.608   0.795
 1009W        W70890  19.648  26.145   3.147
 1010W        W70891  16.234  17.173   3.788
 1011W        W70892  32.516  13.754  11.973
 1012W        W70893  42.311  33.938  10.424
 1013W        W70894  11.823  10.307   4.257
 1014W        W70895  10.321  29.540  10.411
 1015W        W70896  12.332   5.923   1.783
 1016W        W70897  21.159   2.933   3.702
 1017W        W70898  11.265   5.212   1.773
 1018W        W70899  32.550  42.927  12.836
 1019W        W70900  35.985  24.201   0.348
 1020W        W70901  29.083   6.840   2.681
 1021W        W70902   5.691  21.552  11.916
 1022W        W70903  10.191  25.081  14.371
 1023W        W70904  29.967  24.122  11.992
 1024W        W70905  20.167  29.523  12.556
 1025W        W70906   2.734  26.481   1.804
 1026W        W70907  35.104  43.902  13.386
 1027W        W70908  22.106  12.283   0.455
 1028W        W70909  36.416  23.710  11.005
 1029W        W70910  42.942  29.460   0.317
 1030W        W70911  13.740   0.279  12.508
 1031W        W70912  30.056  24.153   0.853
 1032W        W70913  19.537   6.837   0.848
 1033W        W70914  43.383  34.414  13.031
 1034W        W70915  20.141  22.709   3.666
 1035W        W70916  11.812   9.779  14.397
 1036W        W70917   6.900  26.687   4.627
 1037W        W70918  36.937  44.382   0.872
 1038W        W70919   1.430  42.496   0.382
 1039W        W70920  38.374  28.562   1.753
 1040W        W70921  19.742  25.570  10.460
 1041W        W70922  22.152  32.598   4.165
 1042W        W70923  34.399  25.146   3.256
 1043W        W70924  40.821  13.800   1.397
 1044W        W70925  21.132   9.363  11.510
 1045W        W70926   2.966   8.251  10.595
 1046W        W70927  36.481   7.690  14.841
 1047W        W70928   0.334  13.827   0.767
 1048W        W70929  13.208  20.052  11.584
 1049W        W70930  38.394  25.017  13.962
 1050W        W70931  26.019  22.039  12.545
 1051W        W70932  14.707  10.847   2.747
 1052W        W70933   1.833  34.970   1.385
 1053W        W70934  32.542  11.371  10.476
 1054W        W70935  39.315  14.783  12.879
 1055W        W70936   2.395  41.365   2.382
 1056W        W70937  14.673  29.424  14.291
 1057W        W70938  44.325  26.595  14.914
 1058W        W70939  28.001  29.028  14.016
 1059W        W70940  36.450  35.093   2.684
 1060W        W70941  16.757  12.685   3.210
 1061W        W70942  44.000  23.030  14.438
 1062W        W70943  21.545  13.173   0.292
 1063W        W70944  22.671  19.046   9.625
 1064W        W70945  31.611   5.793   4.213
 1065W        W70946   3.863  26.508   3.732
 1066W        W70947  31.020  22.077  14.954
 1067W        W70948  39.035  25.702  13.990
 1068W        W70949  18.567  28.970   5.318
 1069W        W70950  41.917  43.287   4.624
 1070W        W70951   3.417  24.142   2.368
 1071W        W70952  28.502  17.671   0.822
 1072W        W70953   3.266  33.420   3.331
 1073W        W70954   1.849  39.049  12.370
 1074W        W70955  27.556  15.160  13.425
 1075W        W70956  15.328  34.611  13.871
 1076W        W70957  30.626  23.726   4.214
 1077W        W70958  24.083  11.152   2.225
 1078W        W70959  16.188  40.890  11.387
 1079W        W70960  19.252  30.035   5.234
 1080W        W70961   5.323  32.628   3.757
 1081W        W70962  17.140  35.546   4.294
 1082W        W70963  18.591  44.991  14.383
 1083W        W70964  35.015  12.667  11.068
 1084W        W70965  27.968  32.959  11.886
 1085W        W70966  25.599  32.897   0.755
 1086W        W70967  10.271   6.333   1.239
 1087W        W70968   7.797  11.655   3.858
 1088W        W70969   9.295  26.499  13.796
 1089W        W70970  35.925  12.302   0.373
 1090W        W70971  31.899  10.215  13.003
 1091W        W70972  44.969  14.255  13.834
 1092W        W70973  25.010   3.298   4.155
 1093W        W70974  28.934  31.098  10.565
 1094W        W70975   2.365  21.134   3.343
 1095W        W70976   1.913   4.908   0.441
 1096W        W70977  24.110  43.796  10.498
 1097W        W70978  27.594  13.653  12.345
 1098W        W70979  30.584  18.730  14.865
 1099W        W70980  26.086  15.106   3.375
 1100W        W70981   0.860  42.846   1.775
 1101W        W70982  39.824  23.164  10.606
 1102W        W70983  44.504   4.404   2.180
 1103W        W70984  43.384  44.995   2.665
 1104W        W70985  33.397   1.395   4.122
 1105W        W70986   2.916   0.269   2.195
 1106W        W70987  34.463  37.453  14.977
 1107W        W70988   9.806  35.860  12.402
 1108W        W70989  28.537   2.327   1.299
 1109W        W70990  26.644   4.802  13.330
 1110W        W70991  18.770   0.802  10.050
 1111W        W70992  23.238   8.382   2.718
 1112W        W70993  41.816  38.988  11.503
 1113W        W70994  35.401  42.321  12.527
 1114W        W70995  27.558  29.442   4.767
 1115W        W70996  42.777  43.399  13.998
 1116W        W70997  35.107  11.663  10.543
 1117W        W70998   3.748  31.151  14.320
 1118W        W70999  28.938   1.278   3.702
 1119W        W71000  42.893  34.008  11.879
 1120W        W71001  39.906  21.741   4.699
 1121W        W71002  42.803  19.208   2.672
 1122W        W71003   0.824  17.645  13.833
 1123W        W71004  21.201  26.514   3.635
 1124W        W71005   1.953  34.950  14.467
 1125W        W71006  39.350  44.363  13.017
 1126W        W71007   3.310  26.573   1.795
 1127W        W71008  29.140  27.082  12.944
 1128W        W71009  12.646  18.055   1.725
 1129W        W71010  13.814  21.155   2.767
 1130W        W71011  37.901   1.442  10.141
 1131W        W71012  32.419  21.023   1.285
 1132W        W71013  31.019  37.962   2.678
 1133W        W71014  28.622   8.231  14.433
 1134W        W71015  37.398  29.955   0.961
 1135W        W71016  40.819  39.367   0.435
 1136W        W71017  41.809  32.482   1.927
 1137W        W71018   1.922  43.339   2.190
 1138W        W71019  35.006  32.588   1.829
 1139W        W71020  27.940  21.604  14.429
 1140W        W71021  28.100  17.163  13.516
 1141W        W71022  22.153  28.621   0.387
 1142W        W71023  14.335   8.826   2.822
 1143W        W71024  42.435   9.791   1.919
 1144W        W71025  15.200  30.137   2.379
 1145W        W71026   6.921  23.521  12.446
 1146W        W71027  21.693  16.709   2.871
 1147W        W71028   3.374   7.345   0.305
 1148W        W71029  31.963   3.777   2.377
 1149W        W71030   6.866  10.240  14.020
 1150W        W71031  33.925  44.817   1.240
 1151W        W71032  27.962  35.545  13.043
 1152W        W71033  28.094  28.041  12.514
 1153W        W71034  17.109  32.499  13.909
 1154W        W71035  27.090   6.808   0.936
 1155W        W71036  10.841  17.737  10.929
 1156W        W71037   8.741   0.890   5.159
 1157W        W71038  12.198   2.270   1.330
 1158W        W71039  27.529  21.031  13.934
 1159W        W71040   4.327  18.288  14.961
 1160W        W71041  20.580   3.244   4.177
 1161W        W71042  39.889  30.052   0.767
 1162W        W71043  43.471  18.053  14.945
 1163W        W71044  27.675  32.093  10.147
 1164W        W71045  10.678  23.053   3.176
 1165W        W71046   6.327  31.406   3.756
 1166W        W71047  14.121  31.896   3.736
 1167W        W71048  43.966  10.663   3.364
 1168W        W71049  19.237  33.514   4.780
 1169W        W71050  40.805  11.168  14.831
 1170W        W71051  27.010  34.978  11.391
 1171W        W71052  39.396  30.530  11.035
 1172W        W71053  44.991  37.057   2.290
 1173W        W71054  29.567   7.819   2.257
 1174W        W71055  24.570  18.782   4.694
 1175W        W71056   2.767  44.879  10.887
 1176W        W71057  11.232  44.364   4.297
 1177W        W71058  28.665  10.321   0.738
 1178W        W71059  38.967  10.635  11.053
 1179W        W71060  35.079  43.930  13.934
 1180W        W71061   3.313  18.589   4.242
 1181W        W71062  31.050  30.141   1.892
 1182W        W71063  41.532  44.896   4.275
 1183W        W71064  25.007  20.070   4.771
 1184W        W71065  38.842  22.613   1.230
 1185W        W71066  28.663  25.540  14.948
 1186W        W71067  28.660  40.353   2.378
 1187W        W71068  33.044  29.538  13.912
 1188W        W71069  11.281  24.674  12.391
 1189W        W71070  23.550  40.946   4.606
 1190W        W71071  13.702   7.805   1.268
 1191W        W71072  31.427   5.369  11.121
 1192W        W71073   2.375  25.122  12.051
 1193W        W71074  31.564  10.851   2.675
 1194W        W71075  36.580  30.474   1.767
 1195W        W71076  17.172  26.110  11.108
 1196W        W71077   2.866   5.717   3.238
 1197W        W71078   2.781   7.905   2.229
 1198W        W71079  32.090  38.008  13.007
 1199W        W71080  34.962  30.445  12.053
 1200W        W71081  24.187   3.833  14.426
 1201W        W71082   0.415   2.966  11.014
 1202W        W71083  20.243  25.011   0.937
 1203W        W71084  44.869  27.466  13.372
 1204W        W71085   4.416  44.327   0.251
 1205W        W71086  38.359  15.178   2.220
 1206W        W71087  23.585  21.236  13.401
 1207W        W71088  22.207  30.464   4.325
 1208W        W71089   4.789   3.845  13.880
 1209W        W71090  44.806   8.663   1.443
 1210W        W71091  38.991  18.588  13.412
 1211W        W71092  25.002  24.551  11.114
 1212W        W71093  12.622  44.955   0.279
 1213W        W71094  21.625  14.623   2.277
 1214W        W71095  11.278   6.200  12.347
 1215W        W71096   1.292  32.107   4.312
 1216W        W71097  28.136  42.904  13.358
 1217W        W71098  31.019  21.123  11.464
 1218W        W71099   8.209  31.604   0.863
 1219W        W71100   2.886  27.063  14.276
 1220W        W71101  33.511   2.913  14.425
 1221W        W71102  28.581  29.521   0.821
 1222W        W71103   9.292   9.297  10.409
 1223W        W71104   7.416  30.605   1.273
 1224W        W71105  36.509  15.723  12.455
 1225W        W71106  34.907  29.504  12.468
 1226W        W71107  24.210  39.955   2.349
 1227W        W71108  29.639   2.263   0.844
 1228W        W71109  43.861  21.101   1.786
 1229W        W71110  40.994   1.426  14.331
 1230W        W71111   0.752  18.264  13.533
 1231W        W71112  43.507   7.223  14.766
 1232W        W71113  37.888  24.178   2.407
 1233W        W71114   5.776  11.842  11.073
 1234W        W71115  43.398   5.871   2.675
 1235W        W71116  18.715  34.449  12.362
 1236W        W71117  43.981  11.308  14.300
 1237W        W71118  39.984  18.178   1.276
 1238W        W71119  19.727  23.647   0.938
 1239W        W71120  19.215  19.214  14.385
 1240W        W71121  23.728  43.897   4.170
 1241W        W71122  10.182   6.299  12.084
 1242W        W71123  37.071  24.146  13.525
 1243W        W71124   1.439  35.028   2.719
 1244W        W71125   8.798  32.929   2.189
 1245W        W71126  36.914  17.291  14.485
 1246W        W71127  27.971  35.472   0.395
 1247W        W71128  37.412   2.814  13.924
 1248W        W71129  43.858   3.873  14.422
 1249W        W71130  44.995  28.489  14.363
 1250W        W71131   6.278  14.634  12.980
 1251W        W71132  38.424   6.844   1.872
 1252W        W71133  44.297  36.367  10.963
 1253W        W71134  42.526  33.889   3.642
 1254W        W71135  44.405  20.766  11.897
 1255W        W71136  17.685   7.290  11.018
 1256W        W71137  16.122  10.706   1.427
 1257W        W71138  28.615  44.432  13.921
 1258W        W71139  16.811   2.314   2.234
 1259W        W71140  40.371  24.040   2.354
 1260W        W71141   7.698  14.108   0.477
 1261W        W71142  15.154  21.202   1.717
 1262W        W71143  20.272   6.200  14.018
 1263W        W71144  30.116   0.407  10.593
 1264W        W71145  16.235   0.421   4.205
 1265W        W71146   0.488  16.129  11.971
 1266W        W71147  41.417   4.711  12.480
 1267W        W71148  29.026  21.603  12.497
 1268W        W71149  10.196  17.755   3.785
 1269W        W71150  17.100  18.204  13.851
 1270W        W71151   7.686  34.057   1.930
 1271W        W71152  41.958  16.287   0.859
 1272W        W71153  24.150   1.897  12.022
 1273W        W71154  11.707  23.506   4.156
 1274W        W71155  25.143  21.214   4.743
 1275W        W71156   0.946  32.115  14.365
 1276W        W71157   8.712  39.870  12.511
 1277W        W71158   7.884  16.701  11.925
 1278W        W71159   0.411  21.629  11.950
 1279W        W71160  22.519  24.512  12.492
 1280W        W71161   6.323  13.659   3.772
 1281W        W71162  36.926  41.846   3.165
 1282W        W71163  38.947  11.635  10.546
 1283W        W71164   4.262  20.226   2.315
 1284W        W71165  39.877  14.589   1.398
 1285W        W71166   3.315  44.958   4.816
 1286W        W71167  43.975  11.690   2.822
 1287W        W71168  43.000  24.723   3.162
 1288W        W71169   2.461  23.540   1.217
 1289W        W71170  29.971  23.075  11.493
 1290W        W71171  26.151  40.448   3.748
 1291W        W71172   6.892  15.600  10.636
 1292W        W71173  18.692  27.512  13.902
 1293W        W71174  41.802   5.439   0.371
 1294W        W71175   1.408  23.549  13.518
 1295W        W71176  28.083   0.443  11.548
 1296W        W71177  25.140  40.048  13.799
 1297W        W71178  36.881  31.071  13.798
 1298W        W71179  38.486   6.186  11.118
 1299W        W71180  24.028  17.701   5.132
 1300W        W71181  25.532  10.797   4.702
 1301W        W71182  27.465   5.338   1.722
 1302W        W71183  36.870  28.548   2.313
 1303W        W71184  36.397  44.886   0.339
 1304W        W71185  20.717   6.335   4.616
 1305W        W71186  20.127  19.603   3.727
 1306W        W71187  12.821  39.510  13.548
 1307W        W71188   9.331  38.345   0.299
 1308W        W71189  27.568  23.704  11.380
 1309W        W71190  21.648  36.884  13.400
 1310W        W71191  15.177  11.790  12.490
 1311W        W71192  39.014  17.584   1.834
 1312W        W71193  20.271   5.714  13.937
 1313W        W71194  22.206   0.922  14.941
 1314W        W71195  41.983  19.070  11.094
 1315W        W71196  30.434  29.172  12.425
 1316W        W71197  21.115  13.268   1.263
 1317W        W71198  14.144  36.880   9.651
 1318W        W71199   8.278  23.009  12.359
 1319W        W71200  43.000  14.312   2.663
 1320W        W71201  15.299  32.551   2.397
 1321W        W71202  28.611  41.373  11.882
 1322W        W71203   4.932   9.306   2.778
 1323W        W71204   5.700  31.442   1.922
 1324W        W71205  44.802  26.005   0.269
 1325W        W71206   0.780  14.822   0.847
 1326W        W71207  38.876  38.851  14.877
 1327W        W71208  28.071  17.160   4.673
 1328W        W71209  29.437  10.754  14.794
 1329W        W71210   2.851  42.868   3.662
 1330W        W71211  27.463   6.871  13.328
 1331W        W71212  15.633   6.190   2.259
 1332W        W71213  43.866  32.087   5.205
 1333W        W71214  44.887   5.772   4.208
 1334W        W71215  31.427  19.207   2.316
 1335W        W71216   3.236  30.981  13.534
 1336W        W71217  25.636  31.420   3.666
 1337W        W71218   8.351  43.448   4.773
 1338W        W71219  33.431   5.775   0.820
 1339W        W71220  27.010   8.778   4.780
 1340W        W71221  18.589   4.444  12.367
 1341W        W71222  36.953  31.629  13.345
 1342W        W71223   1.768   4.779   0.907
 1343W        W71224  10.174  20.666   4.811
 1344W        W71225  14.771   3.335   4.341
 1345W        W71226  37.867  18.624   1.228
 1346W        W71227   8.292  36.079  13.977
 1347W        W71228  44.304   3.745   1.840
 1348W        W71229  39.457  38.868  14.983
 1349W        W71230  33.400   7.753   1.807
 1350W        W71231  36.582  16.705   1.798
 1351W        W71232   0.777  34.529   2.888
 1352W        W71233  29.518  16.154  12.880
 1353W        W71234  35.471   0.754   0.439
 1354W        W71235  40.508  11.204   2.350
 1355W        W71236  23.224  27.155  10.605
 1356W        W71237  41.482  19.776   1.218
 1357W        W71238  31.988   4.243  13.415
 1358W        W71239   0.398  34.889   2.898
 1359W        W71240  30.450  25.702  10.576
 1360W        W71241  20.542   1.292   4.117
 1361W        W71242   4.438  26.519   2.365
 1362W        W71243  22.552  42.408  13.381
 1363W        W71244   3.297  20.564  11.597
 1364W        W71245  12.222  34.497  13.810
 1365W        W71246  27.062  25.497   1.848
 1366W        W71247  14.765  12.629  14.862
 1367W        W71248   3.319  42.031   1.921
 1368W        W71249  11.183   2.382  10.965
 1369W        W71250   8.361   8.814  11.056
 1370W        W71251  39.013  13.134   0.245
 1371W        W71252  26.961   6.791   4.743
 1372W        W71253   9.242  42.997   1.702
 1373W        W71254  44.836  12.263  11.549
 1374W        W71255  29.563  36.913   2.816
 1375W        W71256  15.795  18.615   1.898
 1376W        W71257  34.480  38.073   4.677
 1377W        W71258  13.743  11.770  13.053
 1378W        W71259   4.894   4.858  14.418
 1379W        W71260  25.168  44.413   0.262
 1380W        W71261  22.623  38.433  13.495
 1381W        W71262  41.460  23.186  13.038
 1382W        W71263  25.181  22.110  13.803
 1383W        W71264  10.212  25.135  11.919
 1384W        W71265  33.914  13.335  12.826
 1385W        W71266   0.779  12.734  13.406
 1386W        W71267  24.062  29.647  12.428
 1387W        W71268   2.249  28.021  14.946
 1388W        W71269  37.530  18.661  14.391
 1389W        W71270  26.672  36.995  12.543
 1390W        W71271  40.803  10.867   0.317
 1391W        W71272  41.443   8.370  11.104
 1392W        W71273   8.877  12.282   2.393
 1393W        W71274  19.276  39.322  11.010
 1394W        W71275  44.786  38.415   0.736
 1395W        W71276   6.387  22.596  13.938
 1396W        W71277  13.203  44.378   0.422
 1397W        W71278  17.258   4.755  14.815
 1398W        W71279  10.257   4.776   3.808
 1399W        W71280   2.413   4.815   2.239
 1400W        W71281   0.345  39.560   0.874
 1401W        W71282  35.108  12.772   9.995
 1402W        W71283  24.124  30.051   0.757
 1403W        W71284  44.278  26.593   2.753
 1404W        W71285   5.772  21.217  13.039
 1405W        W71286  44.265  43.376   3.674
 1406W        W71287  24.482  44.807  12.074
 1407W        W71288  40.498  21.098  13.489
 1408W        W71289  33.105   5.278  11.424
 1409W        W71290   7.171  18.553  12.029
 1410W        W71291   8.766  27.687  11.601
 1411W        W71292  21.068  36.379  12.021
 1412W        W71293  21.601  31.568  11.916
 1413W        W71294  26.498  18.737   4.784
 1414W        W71295  24.479  32.020  11.556
 1415W        W71296  13.795   4.368  12.460
 1416W        W71297  16.711  12.793  13.321
 1417W        W71298  17.262  40.502  14.890
 1418W        W71299  27.075  26.143   3.349
 1419W        W71300  25.216  22.094  10.624
 1420W        W71301  35.517  43.833  12.354
 1421W        W71302  18.659  34.978   2.304
 1422W        W71303  18.132  39.942  11.869
 1423W        W71304  23.214  17.122  11.500
 1424W        W71305  18.690  33.950   1.329
 1425W        W71306  22.208  17.219  14.471
 1426W        W71307  25.472  31.051   2.349
 1427W        W71308  15.319  18.252  14.995
 1428W        W71309  15.208  18.190   3.341
 1429W        W71310  37.976   6.365  14.859
 1430W        W71311  15.620  39.848  13.455
 1431W        W71312  39.944  43.469   4.608
 1432W        W71313  35.445   8.820   2.351
 1433W        W71314  35.513   8.797  14.774
 1434W        W71315  16.651  24.100   1.444
 1435W        W71316  35.958  27.983   3.715
 1436W        W71317   5.294  14.288  13.950
 1437W        W71318  37.016   4.911  13.337
 1438W        W71319  31.490  26.484   4.307
 1439W        W71320  22.015  41.372   2.240
 1440W        W71321  14.114   7.353   2.220
 1441W        W71322  17.093  21.524   1.446
 1442W        W71323  28.490  29.518   0.279
 1443W        W71324  41.940  20.223  11.076
 1444W        W71325   8.268  32.094  11.424
 1445W        W71326  34.570   6.345  12.892
 1446W        W71327  43.290   3.321  11.897
 1447W        W71328  18.577  20.199   3.183
 1448W        W71329  24.555   3.373  14.773
 1449W        W71330   8.745  14.184  11.859
 1450W        W71331   5.705  15.752   2.288
 1451W        W71332  33.624  30.594   1.412
 1452W        W71333  41.806  39.836   4.747
 1453W        W71334  28.046  39.955  11.452
 1454W        W71335  24.513   0.436  12.395
 1455W        W71336  40.533  34.029   1.327
 1456W        W71337   7.287  18.696   0.294
 1457W        W71338  34.609  11.358   1.847
 1458W        W71339  33.428   2.955   3.370
 1459W        W71340  18.241   6.806   0.813
 1460W        W71341  16.711  31.547  12.992
 1461W        W71342  13.761  17.092   3.630
 1462W        W71343  21.750  36.348   3.760
 1463W        W71344  37.865  29.936  12.524
 1464W        W71345  11.362  15.731   3.703
 1465W        W71346  28.008   0.488   3.228
 1466W        W71347  19.194  15.217  13.839
 1467W        W71348  10.724   7.890   0.445
 1468W        W71349   3.807  40.798   1.371
 1469W        W71350   0.352   6.338   2.772
 1470W        W71351  35.976   7.670  10.527
 1471W        W71352  36.552  24.992   4.300
 1472W        W71353  14.117  11.287   2.278
 1473W        W71354  12.785   6.809  11.983
 1474W        W71355  29.969  12.654  11.075
 1475W        W71356  41.954  25.122   4.701
 1476W        W71357  18.616   4.739  11.908
 1477W        W71358  18.154  25.664  13.859
 1478W        W71359  37.928   1.970   0.407
 1479W        W71360  32.039   9.359   3.824
 1480W        W71361  16.082  10.714   2.286
 1481W        W71362   9.852  16.631   3.669
 1482W        W71363  26.542  23.663   4.288
 1483W        W71364  38.330  44.371   2.284
 1484W        W71365  23.553  12.200   2.225
 1485W        W71366   0.309   1.361   0.452
 1486W        W71367  27.997   2.343  12.391
 1487W        W71368   9.332   7.247   4.735
 1488W        W71369  36.097  19.220   4.708
 1489W        W71370  43.881   7.843   3.851
 1490W        W71371  28.566  18.678  11.960
 1491W        W71372  13.166  43.387  14.418
 1492W        W71373  41.319  22.744  14.010
 1493W        W71374  27.194  30.602   4.743
 1494W        W71375  26.157  20.599   4.632
 1495W        W71376  39.362  12.173  14.513
 1496W        W71377  34.896  34.967   4.730
 1497W        W71378   0.354  30.059  13.898
 1498W        W71379  11.770  40.378   0.829
 1499W        W71380  14.815  22.170   3.259
 1500W        W71381  37.041  30.059   0.374
 1501W        W71382  17.123  35.950  10.125
 1502W        W71383   4.437   1.924  12.444
 1503W        W71384  36.985  32.999   2.341
 1504W        W71385  26.971   1.360   0.870
 1505W        W71386  37.872  29.980  14.513
 1506W        W71387  30.133  36.407   4.644
 1507W        W71388   5.198  35.098   2.846
 1508W        W71389  10.819  28.995  14.392
 1509W        W71390  22.607  28.129  13.431
 1510W        W71391  23.677   7.373  13.957
 1511W        W71392  25.151  23.049  12.533
 1512W        W71393   6.307  24.107  14.027
 1513W        W71394  22.209  17.800   0.948
 1514W        W71395   5.688   9.812   4.827
 1515W        W71396  43.342  41.033  13.886
 1516W        W71397  33.601  25.035   1.265
 1517W        W71398  35.463  13.667  13.437
 1518W        W71399  36.884  42.315   2.876
 1519W        W71400   0.762   0.470  13.059
 1520W        W71401  39.014  40.955  10.556
 1521W        W71402   4.257  32.504  14.357
 1522W        W71403  32.958  14.649  14.356
 1523W        W71404  27.662   3.219  11.116
 1524W        W71405  11.783  27.491  14.389
 1525W        W71406  13.196  18.775   3.386
 1526W        W71407   2.330  19.699   2.857
 1527W        W71408   1.837   6.372   4.659
 1528W        W71409  11.772  30.496  12.475
 1529W        W71410   6.416  39.838   0.762
 1530W        W71411  40.803  39.054   2.828
 1531W        W71412  17.184   7.412   1.307
 1532W        W71413  26.495  17.772   4.210
 1533W        W71414  20.612   0.284   0.784
 1534W        W71415  43.787  35.384   1.263
 1535W        W71416  37.447  22.742  11.393
 1536W        W71417  22.073   8.248  11.545
 1537W        W71418  41.960  25.578   3.333
 1538W        W71419   5.400   0.408  12.999
 1539W        W71420  15.770  41.337   1.831
 1540W        W71421   6.215  11.866   0.349
 1541W        W71422  35.018  15.178   1.734
 1542W        W71423  40.527  41.494   5.163
 1543W        W71424   8.802  16.799  14.433
 1544W        W71425  16.303  29.446  11.036
 1545W        W71426   7.895  40.373  13.329
 1546W        W71427  31.557  19.139   4.148
 1547W        W71428   8.292  33.998   1.902
 1548W        W71429  26.189  41.511   1.264
 1549W        W71430  16.710  44.320   0.481
 1550W        W71431  43.432  24.615  12.076
 1551W        W71432  21.186   2.879   2.879
 1552W        W71433  39.532   8.890   4.745
 1553W        W71434  44.371  23.202  11.588
 1554W        W71435  32.604   6.860  13.395
 1555W        W71436  13.732  19.057   4.330
 1556W        W71437  41.381  32.414  11.957
 1557W        W71438  13.231  23.561  14.846
 1558W        W71439  31.996  19.249  10.971
 1559W        W71440  27.603  19.574   3.776
 1560W        W71441  27.109  19.274  12.542
 1561W        W71442   2.832  14.189  13.371
 1562W        W71443   6.372  38.007  11.118
 1563W        W71444  40.939  35.964   2.709
 1564W        W71445  29.454   3.758   2.277
 1565W        W71446  21.646   4.404  12.915
 1566W        W71447  28.023  43.320  14.967
 1567W        W71448  33.569  32.455   4.226
 1568W        W71449  32.911   5.800   2.223
 1569W        W71450  42.822  37.520   0.839
 1570W        W71451  37.460   3.297  10.551
 1571W        W71452   0.866  44.959  11.081
 1572W        W71453  38.920  33.399   9.997
 1573W        W71454  22.638  31.622  10.992
 1574W        W71455  16.193   9.752   1.840
 1575W        W71456  31.631  41.035  11.484
 1576W        W71457  24.088  40.844   0.307
 1577W        W71458  18.196  10.251   0.446
 1578W        W71459  41.892  18.766  10.464
 1579W        W71460  28.093  24.217   2.388
 1580W        W71461  27.613  19.245  14.899
 1581W        W71462   0.466  30.105  13.421
 1582W        W71463  28.563   9.759  10.965
 1583W        W71464  26.542  34.979  13.371
 1584W        W71465  17.106   8.400   4.714
 1585W        W71466  43.813  44.335  14.297
 1586W        W71467  34.568  32.408   3.648
 1587W        W71468  24.675  42.478  13.427
 1588W        W71469  14.134  44.875  14.435
 1589W        W71470  11.192  24.003   3.296
 1590W        W71471   9.853  10.770   2.685
 1591W        W71472   9.720  27.511  13.968
 1592W        W71473  34.891  31.427   1.254
 1593W        W71474   0.372  31.124   1.819
 1594W        W71475  44.502  40.398   2.847
 1595W        W71476  17.159  10.841  13.928
 1596W        W71477  27.664  17.613  14.862
 1597W        W71478   4.321  24.215  14.509
 1598W        W71479  28.594  16.200   3.342
 1599W        W71480  30.508   2.234   4.791
 1600W        W71481   6.194  25.189  14.772
 1601W        W71482  28.470  34.011  12.469
 1602W        W71483  11.193  10.772   2.268
 1603W        W71484  39.883   5.827   1.875
 1604W        W71485  34.400  29.542  11.525
 1605W        W71486  15.153  13.846  13.452
 1606W        W71487  23.702  18.777  14.484
 1607W        W71488  33.403  41.443  12.074
 1608W        W71489  15.147  20.738  13.485
 1609W        W71490   6.362  34.478  12.995
 1610W        W71491  22.555  14.831   1.702
 1611W        W71492  37.994  43.989   3.226
 1612W        W71493  35.371   9.776  14.760
 1613W        W71494  26.682   7.682   3.644
 1614W        W71495  19.655  14.679   1.786
 1615W        W71496   2.762   2.263  14.763
 1616W        W71497  23.611  38.863  14.438
 1617W        W71498  27.192  34.975   2.850
 1618W        W71499  24.546  34.475   4.767
 1619W        W71500  28.981  35.410  13.932
 1620W        W71501  12.313  26.507   1.904
 1621W        W71502  29.614  25.049   4.303
 1622W        W71503   5.385  19.214   0.412
 1623W        W71504   6.314  34.405   3.845
 1624W        W71505  18.673  10.342   0.344
 1625W        W71506  30.127  27.491   0.322
 1626W        W71507  34.076  27.096   4.236
 1627W        W71508  13.242  14.133   5.290
 1628W        W71509  25.069  35.855   4.337
 1629W        W71510   9.690  36.042  12.946
 1630W        W71511  37.864  18.134   3.669
 1631W        W71512  21.567   8.744   1.704
 1632W        W71513  13.641  17.182  13.924
 1633W        W71514  15.583   7.247   0.853
 1634W        W71515  33.402  40.530  14.807
 1635W        W71516  13.797  35.034   2.701
 1636W        W71517  23.087   5.249  10.893
 1637W        W71518  42.857  33.112   1.926
 1638W        W71519  34.959   4.869   1.811
 1639W        W71520   2.343   6.259   2.753
 1640W        W71521  28.587  13.205   2.416
 1641W        W71522  44.462  30.132  12.980
 1642W        W71523  13.716  34.864  13.795
 1643W        W71524   4.912  27.973  14.279
 1644W        W71525  10.703  19.177   3.745
 1645W        W71526  43.344   7.362  13.420
 1646W        W71527  30.617  24.046  10.474
 1647W        W71528   3.455   7.724   3.162
 1648W        W71529  15.773  36.558  11.019
 1649W        W71530   0.806  18.585  12.370
 1650W        W71531  24.616  20.626   1.915
 1651W        W71532   0.762  30.563   2.256
 1652W        W71533  26.996  28.131   0.734
 1653W        W71534   6.259  40.321  14.972
 1654W        W71535   7.213  37.358   2.240
 1655W        W71536   1.286  36.058  10.435
 1656W        W71537  27.013  13.712   0.939
 1657W        W71538  12.850  25.005  11.611
 1658W        W71539   1.403   6.734   4.241
 1659W        W71540  23.545   8.658   1.257
 1660W        W71541  42.986  42.967   2.790
 1661W        W71542  21.670   7.314   3.640
 1662W        W71543  19.744   0.921  10.543
 1663W        W71544  16.623  27.115  14.780
 1664W        W71545  17.718  12.831  14.411
 1665W        W71546  26.102  40.911   3.199
 1666W        W71547   6.743   1.760  11.481
 1667W        W71548   9.856  34.381  14.436
 1668W        W71549  26.524  11.255  13.329
 1669W        W71550  14.755  35.952  13.001
 1670W        W71551  42.797  10.196  10.497
 1671W        W71552  15.661  27.976  12.023
 1672W        W71553  42.458  22.030   3.299
 1673W        W71554  20.237  30.601  12.003
 1674W        W71555  11.192   1.268  13.822
 1675W        W71556  20.259  25.184  10.065
 1676W        W71557  17.585   2.781  11.415
 1677W        W71558   7.683  31.117   2.214
 1678W        W71559  32.617  26.697   2.256
 1679W        W71560  40.344  31.952  12.079
 1680W        W71561  18.112  17.155  13.988
 1681W        W71562   9.750  35.584  14.393
 1682W        W71563  22.561  13.132  14.014
 1683W        W71564  35.936  43.303  11.502
 1684W        W71565   9.749   4.806   4.626
 1685W        W71566  31.914   2.776  14.932
 1686W        W71567  14.624  28.935  14.852
 1687W        W71568  35.010   6.322   2.399
 1688W        W71569  26.083  14.307  12.553
 1689W        W71570  27.156   7.793   2.235
 1690W        W71571  17.202  27.160  12.501
 1691W        W71572  34.121   1.450  13.973
 1692W        W71573   8.816  21.099   9.920
 1693W        W71574  20.210   9.291  12.014
 1694W        W71575  11.751  42.799   0.814
 1695W        W71576  18.548   7.381   1.750
 1696W        W71577  32.444   8.363   3.704
 1697W        W71578  43.354  33.516   4.616
 1698W        W71579   9.169  37.358   4.793
 1699W        W71580  25.093  25.066  13.355
 1700W        W71581   4.928   0.936   4.230
 1701W        W71582  23.201  28.634   0.257
 1702W        W71583  36.076  16.581   2.200
 1703W        W71584  24.505   3.429  12.852
 1704W        W71585  21.117  35.061  10.613
 1705W        W71586  10.348  13.129   4.719
 1706W        W71587  18.584  24.518  14.359
 1707W        W71588  14.607  44.367  13.396
 1708W        W71589   7.284  14.233   4.620
 1709W        W71590  15.682   7.391  12.840
 1710W        W71591  30.148  24.536  12.051
 1711W        W71592  22.581  42.874  11.918
 1712W        W71593  22.538  19.660   4.240
 1713W        W71594  41.293  32.535   2.356
 1714W        W71595  35.075  24.513   4.142
 1715W        W71596  23.199  32.423  10.419
 1716W        W71597  10.802   0.936   3.675
 1717W        W71598  34.016  33.459   4.826
 1718W        W71599  31.642  22.207  10.436
 1719W        W71600  25.557  15.295  11.388
 1720W        W71601   5.882  22.184   2.808
 1721W        W71602   5.344  42.408   4.783
 1722W        W71603  34.901   6.724   2.752
 1723W        W71604  17.754  22.747  13.472
 1724W        W71605   3.748  25.535  10.895
 1725W        W71606  33.903   9.358   1.713
 1726W        W71607  43.004  43.301   3.254
 1727W        W71608  14.701  13.235  11.378
 1728W        W71609   5.714  23.120  13.498
 1729W        W71610  11.648  10.765   3.636
 1730W        W71611   4.430   6.902   1.231
 1731W        W71612  30.436  20.170   3.223
 1732W        W71613  25.068  39.876   1.224
 1733W        W71614  13.228  14.174   1.888
 1734W        W71615   8.166   3.350   4.255
 1735W        W71616  39.333  21.624  13.801
 1736W        W71617  25.573  29.551   0.822
 1737W        W71618   9.706  14.098   4.742
 1738W        W71619  27.468  15.144   1.396
 1739W        W71620  12.162   6.740  10.407
 1740W        W71621  42.323  30.027   4.765
 1741W        W71622   6.813  14.225  12.025
 1742W        W71623  28.572   2.261  10.511
 1743W        W71624  13.660  44.299   4.828
 1744W        W71625   6.184  41.020   4.307
 1745W        W71626  22.715  18.272   1.252
 1746W        W71627  16.246  30.118   1.248
 1747W        W71628  44.838  41.474   3.783
 1748W        W71629  14.773  18.059  10.600
 1749W        W71630  25.044  43.812  10.942
 1750W        W71631  19.670  28.586  14.832
 1751W        W71632  27.459   1.428   3.828
 1752W        W71633  38.853  36.395  10.133
 1753W        W71634  36.443  38.398  13.384
 1754W        W71635  23.089  11.691   2.262
 1755W        W71636  21.146  24.022   4.283
 1756W        W71637  27.596  17.274   0.906
 1757W        W71638  30.115   1.314  10.631
 1758W        W71639  24.110  27.194  11.053
 1759W        W71640  42.504   5.855   3.354
 1760W        W71641  37.483   7.760  12.416
 1761W        W71642  17.697  44.317   0.301
 1762W        W71643  17.257   0.774   0.388
 1763W        W71644  14.180  16.734   2.879
 1764W        W71645  20.729  30.630   1.247
 1765W        W71646  27.634  15.589   3.812
 1766W        W71647  17.770   4.758  13.998
 1767W        W71648  44.885  40.312   1.386
 1768W        W71649  40.377  15.159  12.970
 1769W        W71650   1.314  27.449  12.963
 1770W        W71651  16.779  33.406   2.380
 1771W        W71652   5.871  23.188  12.389
 1772W        W71653   1.437   3.842  12.906
 1773W        W71654  40.003  27.552   2.773
 1774W        W71655  42.791  16.228  14.928
 1775W        W71656  13.843  18.107   2.196
 1776W        W71657   1.363  37.035   2.287
 1777W        W71658  22.220   4.784   2.729
 1778W        W71659  11.754  22.553   4.218
 1779W        W71660  41.881  12.750  12.949
 1780W        W71661  44.401  35.857   9.923
 1781W        W71662   1.866  13.238   1.297
 1782W        W71663   7.216   6.759  11.609
 1783W        W71664  30.439  35.881   2.411
 1784W        W71665  32.613  28.536  14.443
 1785W        W71666   0.979  34.886   2.895
 1786W        W71667   8.401  20.745  13.427
 1787W        W71668  21.559  31.050  11.896
 1788W        W71669  12.130  44.809  12.540
 1789W        W71670  35.038  43.918  11.436
 1790W        W71671  38.840  14.145  14.784
 1791W        W71672  40.388  11.367   1.430
 1792W        W71673  42.793  38.337   0.760
 1793W        W71674  40.312  15.588   4.772
 1794W        W71675  43.442  40.437  13.361
 1795W        W71676   5.910  22.675   3.270
 1796W        W71677   8.287  28.934   4.657
 1797W        W71678   7.707  21.125  10.954
 1798W        W71679  42.787  41.919  12.437
 1799W        W71680   9.751   6.353   4.834
 1800W        W71681  19.043  14.807   4.225
 1801W        W71682  32.551  38.408   1.920
 1802W        W71683  19.082   1.360  13.420
 1803W        W71684  36.972  15.143  14.336
 1804W        W71685   7.308  37.515  10.481
 1805W        W71686  19.159  23.095  10.951
 1806W        W71687  41.981  39.407  12.826
 1807W        W71688   3.313  38.395  12.946
 1808W        W71689   7.347  25.016   1.233
 1809W        W71690  10.355  30.490   5.192
 1810W        W71691  22.162  42.437   3.821
 1811W        W71692  11.180  38.910  10.553
 1812W        W71693   3.835  42.294  13.319
 1813W        W71694   4.210  22.592   3.366
 1814W        W71695  23.572  29.945  13.847
 1815W        W71696  24.040  31.040   4.781
 1816W        W71697  34.404  18.120  12.022
 1817W        W71698   8.889  29.985  14.950
 1818W        W71699  14.742  39.836   1.329
 1819W        W71700  33.616  12.639   0.737
 1820W        W71701  44.273  27.491   0.383
 1821W        W71702  22.618  37.582   9.959
 1822W        W71703  26.980   9.395  13.500
 1823W        W71704   7.351  43.270  13.798
 1824W        W71705  17.103  43.989   3.226
 1825W        W71706  31.028  13.300  12.502
 1826W        W71707  10.260  34.387   0.403
 1827W        W71708  17.796  12.699   2.670
 1828W        W71709   4.807  17.733   2.366
 1829W        W71710  37.442   3.381   2.879
 1830W        W71711  12.810  17.174   1.243
 1831W        W71712  11.230  30.976   3.852
 1832W        W71713  44.499  20.739   0.742
 1833W        W71714  19.206  43.935  12.519
 1834W        W71715  12.719  36.019   2.234
 1835W        W71716  17.664   7.243  14.507
 1836W        W71717   8.234  35.378   0.788
 1837W        W71718  20.670  29.604  14.457
 1838W        W71719  30.069  17.746  14.907
 1839W        W71720   9.870  39.337  12.357
 1840W        W71721   0.284  27.176  14.984
 1841W        W71722  36.880  31.921  10.421
 1842W        W71723  36.885   6.722  11.544
 1843W        W71724  43.002   3.933  13.946
 1844W        W71725  23.493  12.779  13.037
 1845W        W71726  28.650  35.905   4.288
 1846W        W71727  40.804  21.053   0.890
 1847W        W71728  13.240  34.406  13.457
 1848W        W71729  34.488  16.583  13.322
 1849W        W71730  11.333  41.922  12.474
 1850W        W71731  24.685  35.555   3.839
 1851W        W71732  30.074  38.993   4.736
 1852W        W71733  30.939   6.344   5.584
 1853W        W71734  36.381  14.155   0.756
 1854W        W71735  21.570  28.943   3.758
 1855W        W71736  26.051  43.956  13.483
 1856W        W71737  21.067   0.298  14.365
 1857W        W71738  26.974  24.168  14.433
 1858W        W71739  39.010  44.433   2.414
 1859W        W71740  11.126  20.634   3.380
 1860W        W71741   2.942  23.691  13.450
 1861W        W71742  19.547  35.049  14.029
 1862W        W71743  28.537  27.035  11.405
 1863W        W71744   9.366  29.103   4.305
 1864W        W71745   7.171  23.194   3.826
 1865W        W71746  37.976  15.800  14.320
 1866W        W71747  42.960  13.655  14.907
 1867W        W71748   0.870  24.644  11.462
 1868W        W71749  32.473  38.845   2.717
 1869W        W71750  36.979  20.252   0.734
 1870W        W71751  15.317  34.517  12.369
 1871W        W71752  37.437  41.832  12.850
 1872W        W71753  12.157  36.965  13.449
 1873W        W71754  16.154  23.698   4.603
 1874W        W71755  23.100  11.271   2.756
 1875W        W71756   8.267  28.045  13.374
 1876W        W71757  28.677  18.239  13.397
 1877W        W71758   0.807  33.082  10.965
 1878W        W71759  22.251  16.072   4.274
 1879W        W71760   3.896  17.162  11.588
 1880W        W71761  15.157  30.489  11.381
 1881W        W71762  15.221  38.865   3.800
 1882W        W71763  33.594  11.814  11.030
 1883W        W71764  37.546  29.572  12.366
 1884W        W71765  26.988  35.512  11.903
 1885W        W71766  24.540  30.609   4.787
 1886W        W71767  14.592  30.058  14.840
 1887W        W71768  22.660  33.538  10.516
 1888W        W71769  15.694  17.722  14.467
 1889W        W71770  42.794  29.138   4.687
 1890W        W71771  27.630   8.668   2.729
 1891W        W71772   7.781  11.161  13.029
 1892W        W71773   2.290  29.169  11.049
 1893W        W71774  26.164  35.589  14.471
 1894W        W71775  44.803   2.820   4.298
 1895W        W71776  19.780  34.931   3.820
 1896W        W71777  16.215  34.061  10.557
 1897W        W71778  11.178  10.193  10.412
 1898W        W71779   1.899  20.111  14.795
 1899W        W71780  27.117   3.835   4.306
 1900W        W71781  37.409  18.162   9.996
 1901W        W71782   2.408  35.409  11.075
 1902W        W71783  26.978  24.695   2.266
 1903W        W71784  43.955  25.997  14.368
 1904W        W71785  36.447  23.552   4.720
 1905W        W71786   6.299   9.737  13.471
 1906W        W71787  25.058  29.000   3.723
 1907W        W71788  26.617  24.497  12.351
 1908W        W71789  27.674   3.257   4.151
 1909W        W71790  11.762   3.224  13.335
 1910W        W71791  14.111  12.805  14.811
 1911W        W71792  22.631  10.248  11.916
 1912W        W71793   3.926  25.659  10.617
 1913W        W71794  13.283  25.168   1.338
 1914W        W71795  44.006  13.631  11.438
 1915W        W71796  17.135  33.017  11.601
 1916W        W71797  37.376  44.382   2.237
 1917W        W71798   2.369   1.448  10.923
 1918W        W71799  39.031  19.081   2.871
 1919W        W71800  34.864  35.524   0.254
 1920W        W71801  42.360  38.991  12.441
 1921W        W71802  12.699  29.593   0.465
 1922W        W71803  22.701  44.850   0.950
 1923W        W71804   2.763  27.475  10.463
 1924W        W71805  16.157   2.944  14.935
 1925W        W71806   2.922   0.379  14.914
 1926W        W71807  12.131  22.599   4.268
 1927W        W71808  15.621  29.041  12.901
 1928W        W71809  38.470  32.937  13.522
 1929W        W71810  20.557  16.141  14.905
 1930W        W71811   5.723  34.386   4.324
 1931W        W71812  21.137  15.193   1.339
 1932W        W71813   3.766  11.843   2.286
 1933W        W71814  10.221   2.299   0.804
 1934W        W71815  15.653  18.687  11.895
 1935W        W71816   8.398   7.252  10.540
 1936W        W71817  25.001  19.271   2.182
 1937W        W71818  23.231  41.861   3.746
 1938W        W71819   3.887  14.325   0.960
 1939W        W71820  37.960  41.519  14.787
 1940W        W71821  21.752  42.939  14.021
 1941W        W71822  21.051  24.586   0.803
 1942W        W71823   5.240  29.607  13.493
 1943W        W71824   1.423  23.049   2.775
 1944W        W71825  37.958  33.894  10.520
 1945W        W71826  41.484  27.491  12.932
 1946W        W71827  43.786  29.095  14.322
 1947W        W71828   1.969   1.918  14.027
 1948W        W71829  35.515  12.794  14.464
 1949W        W71830   3.753   2.410   4.624
 1950W        W71831  35.376  27.604   2.755
 1951W        W71832  34.572  28.537  11.501
 1952W        W71833  28.106   4.819  10.435
 1953W        W71834  20.095  18.197  10.155
 1954W        W71835  23.026  34.593  13.447
 1955W        W71836  39.343  22.065   2.671
 1956W        W71837  18.184  30.525   2.722
 1957W        W71838  24.133  26.510   3.850
 1958W        W71839  41.804  23.579  11.447
 1959W        W71840  39.497  35.594  11.940
 1960W        W71841   5.869  32.971   1.880
 1961W        W71842  37.457  10.649  14.466
 1962W        W71843  29.127   1.277  12.986
 1963W        W71844  36.079   7.694   4.296
 1964W        W71845  38.930  41.493  11.397
 1965W        W71846  25.010   1.877  10.613
 1966W        W71847  15.655   9.333  10.500
 1967W        W71848  20.032   3.760   4.244
 1968W        W71849  27.109  26.038  14.437
 1969W        W71850  28.469  38.859   1.406
 1970W        W71851   1.920   4.734  13.923
 1971W        W71852  28.632  28.458  11.924
 1972W        W71853   9.659  27.008  11.417
 1973W        W71854  44.386  15.205  11.572
 1974W        W71855  16.267   0.287  12.440
 1975W        W71856  34.398   3.908  11.501
 1976W        W71857  11.671  10.718   1.266
 1977W        W71858   9.713   2.314   2.719
 1978W        W71859  15.156   8.887   2.820
 1979W        W71860  34.531  34.537  11.591
 1980W        W71861  33.060   0.426   2.289
 1981W        W71862  33.093   3.725   3.809
 1982W        W71863  24.570  20.113  11.982
 1983W        W71864  33.586  16.220  13.863
 1984W        W71865  44.915  32.099   1.830
 1985W        W71866  16.579  19.630   0.459
 1986W        W71867  29.601  42.384   3.331
 1987W        W71868  19.689  26.106   0.768
 1988W        W71869  25.111  28.998  13.814
 1989W        W71870  38.416  41.300   3.823
 1990W        W71871  12.776  20.048  10.564
 1991W        W71872   1.449   7.833  14.888
 1992W        W71873   2.922  23.227   4.747
 1993W        W71874  37.845  41.009   2.191
 1994W        W71875   6.894   0.869  12.924
 1995W        W71876  20.589   4.872   0.442
 1996W        W71877  34.080   8.371   2.807
 1997W        W71878  11.754   2.323   1.278
 1998W        W71879  20.249   5.418  10.632
 1999W        W71880   5.819   9.257  14.412
 2000W        W71881  24.594  17.208  14.307
 2001W        W71882  42.815   4.356   0.390
 2002W        W71883  30.443  37.525  12.011
 2003W        W71884  33.989   5.350  12.829
 2004W        W71885  11.176  25.093  14.800
 2005W        W71886   7.729  35.972   1.386
 2006W        W71887  33.450  34.036  14.436
 2007W        W71888  36.034  12.710   1.446
 2008W        W71889  42.488  24.671  13.894
 2009W        W71890  24.646  13.830  14.441
 2010W        W71891  20.640  21.748  13.834
 2011W        W71892  22.516   2.960  11.060
 2012W        W71893   4.806  14.631   2.189
 2013W        W71894  23.026  20.240  10.488
 2014W        W71895   2.966   0.473   2.764
 2015W        W71896  41.479  40.342  13.944
 2016W        W71897  39.906   2.900   1.723
 2017W        W71898  33.453  33.100  13.875
 2018W        W71899  37.568  37.933   2.415
 2019W        W71900   3.878  26.518  14.276
 2020W        W71901  36.473   9.272  11.473
 2021W        W71902  35.483  42.305   4.760
 2022W        W71903  33.881   2.943   0.359
 2023W        W71904  36.972  36.388  13.848
 2024W        W71905  16.104  27.051   0.310
 2025W        W71906  31.452  41.826   3.665
 2026W        W71907  31.482  42.352   2.690
 2027W        W71908  32.990  20.204  11.103
 2028W        W71909  10.686   5.793   0.886
 2029W        W71910   5.201  39.406   3.652
 2030W        W71911   0.814  27.469   2.878
 2031W        W71912  13.342  35.091   5.224
 2032W        W71913  38.964   1.258  11.541
 2033W        W71914  25.134  20.164   3.204
 2034W        W71915  27.983   8.191   0.966
 2035W        W71916   7.192  17.177  13.465
 2036W        W71917  14.237   3.719  13.895
 2037W        W71918  37.486  10.866  10.551
 2038W        W71919  33.883   4.357  11.064
 2039W        W71920  26.548   7.191  12.366
 2040W        W71921  31.469  23.500  13.383
 2041W        W71922  33.044  22.541  13.965
 2042W        W71923  28.157  29.949   4.132
 2043W        W71924  27.955  44.471   4.313
 2044W        W71925   7.270  44.406  14.403
 2045W        W71926  32.981  14.324  10.619
 2046W        W71927   2.908  15.591  14.876
 2047W        W71928  22.501  34.505   2.206
 2048W        W71929  18.790  30.590   9.988
 2049W        W71930  37.861  11.224  13.020
 2050W        W71931  12.658  24.646   1.773
 2051W        W71932   9.340  19.587   2.215
 2052W        W71933  21.126  32.459   9.966
 2053W        W71934   1.926  18.051  10.610
 2054W        W71935  33.891   1.854   2.387
 2055W        W71936  36.097  28.006   4.745
 2056W        W71937  27.114  32.933  12.072
 2057W        W71938   8.762  18.750  12.561
 2058W        W71939  25.575   1.852  14.867
 2059W        W71940  31.468  10.178   3.151
 2060W        W71941  17.118   1.322  13.915
 2061W        W71942  29.172   9.261  10.434
 2062W        W71943  26.060  26.196   0.961
 2063W        W71944  14.701  27.492   4.175
 2064W        W71945  31.000  32.497   0.809
 2065W        W71946  23.567  17.152   3.692
 2066W        W71947   6.888  19.215   1.848
 2067W        W71948   6.402  10.244  14.488
 2068W        W71949  38.032  41.896  12.471
 2069W        W71950   1.847  14.142  14.996
 2070W        W71951  33.094   8.780   2.838
 2071W        W71952  15.708  19.122  14.873
 2072W        W71953  23.605   0.422  13.972
 2073W        W71954  30.413  13.815   1.261
 2074W        W71955  43.855  10.257   3.163
 2075W        W71956   5.373  27.021   0.350
 2076W        W71957  10.313  44.983  10.900
 2077W        W71958  30.492  16.134  11.568
 2078W        W71959  14.152  30.935   2.264
 2079W        W71960  21.063  40.031   3.664
 2080W        W71961  13.661  38.888   1.721
 2081W        W71962   9.690   8.730   3.780
 2082W        W71963   4.400  17.580   2.238
 2083W        W71964  37.936  41.457   5.161
 2084W        W71965  31.024  12.634  11.930
 2085W        W71966   6.412  14.335   1.752
 2086W        W71967  43.004  34.598   2.358
 2087W        W71968  15.323  13.226   2.216
 2088W        W71969   0.371  35.948  11.077
 2089W        W71970   0.302  31.074   3.656
 2090W        W71971  34.120   4.709   2.823
 2091W        W71972   9.736  27.530  12.953
 2092W        W71973  38.435  42.520  14.922
 2093W        W71974  12.171  41.873  10.965
 2094W        W71975  17.186  16.130  13.380
 2095W        W71976  35.444   1.931  13.460
 2096W        W71977  32.977  33.071   4.609
 2097W        W71978  24.041  18.116  12.843
 2098W        W71979  40.348  29.976   2.888
 2099W        W71980   1.849   4.926  11.912
 2100W        W71981  39.464  11.241  10.581
 2101W        W71982   4.780  13.802   1.933
 2102W        W71983  23.527  25.640   1.371
 2103W        W71984  40.881  10.332  14.772
 2104W        W71985  32.474  22.638  13.928
 2105W        W71986   7.758  44.992  10.522
 2106W        W71987  40.879  12.807   0.873
 2107W        W71988   7.238  41.979   3.748
 2108W        W71989  13.170  32.568   0.758
 2109W        W71990  37.439  32.541  11.979
 2110W        W71991  26.007  10.250  11.041
 2111W        W71992  39.545  32.894   0.959
 2112W        W71993  30.540  43.324  11.111
 2113W        W71994  38.075  30.542   2.381
 2114W        W71995  19.178  31.064  11.004
 2115W        W71996  30.035   8.742   1.737
 2116W        W71997  22.518  11.354   3.328
 2117W        W71998  25.673  22.573   1.914
 2118W        W71999   7.666   8.295   2.861
 2119W        W72000   5.220  17.216   2.419
 2120W        W72001  35.486  27.480   0.879
 2121W        W72002  28.612  19.195   1.404
 2122W        W72003  24.092   2.879  13.882
 2123W        W72004  14.737  17.206  11.862
 2124W        W72005   5.749  14.250  14.779
 2125W        W72006   1.873  10.829   4.741
 2126W        W72007  40.865   6.918  13.436
 2127W        W72008  12.186  22.129   2.888
 2128W        W72009  20.153  23.104   2.357
 2129W        W72010  34.030  44.435  13.522
 2130W        W72011  11.237  26.984   3.145
 2131W        W72012   9.178  17.233   3.868
 2132W        W72013  19.586  36.053  13.824
 2133W        W72014   3.419  37.572  13.440
 2134W        W72015   3.832  27.085  11.595
 2135W        W72016   0.981  22.627   1.404
 2136W        W72017   2.825  30.538   0.858
 2137W        W72018  38.877   9.353   2.216
 2138W        W72019  32.584  42.285   1.877
 2139W        W72020  18.772  29.434  10.025
 2140W        W72021   7.326   4.361   2.891
 2141W        W72022  25.483  35.911   2.788
 2142W        W72023  37.487  23.034   1.215
 2143W        W72024  29.591   1.455  10.638
 2144W        W72025  43.994  39.546   0.818
 2145W        W72026  28.023   5.718   2.816
 2146W        W72027  20.678  25.666   3.314
 2147W        W72028  12.189   5.372   4.132
 2148W        W72029  13.115   9.344  14.465
 2149W        W72030  36.409  18.688   4.679
 2150W        W72031  29.164  20.729   0.951
 2151W        W72032  10.712  25.515   0.393
 2152W        W72033  25.978  22.544  11.106
 2153W        W72034  28.574  44.392   0.739
 2154W        W72035  24.585   1.258   4.227
 2155W        W72036   9.820  13.161   4.178
 2156W        W72037  24.060   0.288   4.726
 2157W        W72038  38.513  28.552   4.329
 2158W        W72039  38.838  20.038  11.510
 2159W        W72040  25.182   8.852   3.242
 2160W        W72041  44.844   3.244  12.962
 2161W        W72042  39.823  44.863   3.835
 2162W        W72043  17.248  38.958  11.518
 2163W        W72044  26.066  12.629   3.827
 2164W        W72045   7.312  20.048   2.800
 2165W        W72046   0.974  36.382   2.257
 2166W        W72047  11.157  41.459  13.871
 2167W        W72048   7.297  23.987  11.471
 2168W        W72049  33.021  10.306  12.518
 2169W        W72050  31.138  35.949  13.323
 2170W        W72051  29.061  15.103  14.310
 2171W        W72052  24.052  37.970   1.862
 2172W        W72053   5.387  41.903  13.975
 2173W        W72054  31.495  20.738  11.892
 2174W        W72055  17.090   3.370  13.903
 2175W        W72056  12.257  30.956  14.949
 2176W        W72057   2.406  40.366   0.466
 2177W        W72058  26.665  13.618   4.272
 2178W        W72059  43.428  13.687  14.943
 2179W        W72060  37.952   7.345  13.442
 2180W        W72061  30.498  15.690   1.776
 2181W        W72062  38.405  21.606   0.740
 2182W        W72063   7.359  22.995  11.935
 2183W        W72064  33.960  29.935   2.313
 2184W        W72065  16.215  35.483   3.149
 2185W        W72066   1.435  10.654   1.396
 2186W        W72067  44.911  44.423   4.754
 2187W        W72068  37.864  27.160  14.937
 2188W        W72069  23.681   4.411  13.920
 2189W        W72070  35.925  13.790  14.866
 2190W        W72071   3.906   2.424  13.874
 2191W        W72072   7.781  33.442   2.854
 2192W        W72073   4.421   1.396  10.593
 2193W        W72074  18.757  30.917  11.585
 2194W        W72075   8.345  24.703  13.338
 2195W        W72076   5.794  42.009   3.292
 2196W        W72077  42.412  29.945  11.566
 2197W        W72078  32.977  39.935  13.401
 2198W        W72079  27.075  36.389  14.446
 2199W        W72080  32.885  39.502   2.876
 2200W        W72081  29.518  16.732  11.120
 2201W        W72082  24.089  26.207   0.767
 2202W        W72083   2.826  40.906  12.882
 2203W        W72084  27.133  23.131  11.544
 2204W        W72085  11.246  22.109   4.611
 2205W        W72086  29.166  33.498  11.561
 2206W        W72087   2.829  35.933  13.349
 2207W        W72088  31.142  40.044  14.842
 2208W        W72089  25.989   5.388   0.270
 2209W        W72090  28.556   8.809   3.691
 2210W        W72091   5.787  14.250  13.994
 2211W        W72092   1.240  42.305  11.957
 2212W        W72093  33.388   1.952  14.333
 2213W        W72094  24.151  15.753  12.460
 2214W        W72095  26.125  37.030   3.331
 2215W        W72096  20.722  15.810   3.216
 2216W        W72097  29.598  14.323   4.192
 2217W        W72098  32.456  43.797  12.866
 2218W        W72099  43.764  36.366   1.867
 2219W        W72100  25.104  39.409   4.139
 2220W        W72101  18.239  18.571   0.774
 2221W        W72102  21.674  26.112   0.788
 2222W        W72103  20.629  20.640  14.315
 2223W        W72104  43.433  39.328  10.617
 2224W        W72105   1.849  18.701  14.922
 2225W        W72106   1.815  28.440   1.375
 2226W        W72107  11.207   4.921  12.392
 2227W        W72108  31.606  21.038  12.883
 2228W        W72109  23.595   1.743  10.920
 2229W        W72110  24.210  32.943   3.705
 2230W        W72111   1.476   0.345   3.316
 2231W        W72112  32.953  35.424   0.966
 2232W        W72113  26.517  24.155  11.941
 2233W        W72114  35.922  36.941  11.378
 2234W        W72115  21.188  36.036   0.421
 2235W        W72116  20.540  41.041  14.420
 2236W        W72117  28.627   4.301  11.950
 2237W        W72118  17.578  25.582   2.358
 2238W        W72119   0.779   7.338   2.698
 2239W        W72120  42.385  18.266   4.702
 2240W        W72121  18.263  20.094   2.793
 2241W        W72122  21.211  10.759  13.987
 2242W        W72123  43.308  28.661  11.547
 2243W        W72124  36.401   2.921  11.038
 2244W        W72125  25.068  42.959  12.906
 2245W        W72126   3.384  18.059   4.726
 2246W        W72127  21.585  41.943   0.350
 2247W        W72128  23.109  39.417   2.409
 2248W        W72129  31.524  17.097  14.837
 2249W        W72130   5.861  41.296  13.438
 2250W        W72131  20.642   5.217  12.928
 2251W        W72132  35.858  26.641  12.020
 2252W        W72133  25.514  28.533   1.443
 2253W        W72134   2.364  15.091  14.970
 2254W        W72135  35.594  14.098  12.013
 2255W        W72136  31.424  11.211  10.901
 2256W        W72137  31.409  34.081  14.352
 2257W        W72138  43.962  14.616   2.898
 2258W        W72139  36.589   2.783  14.985
 2259W        W72140  10.792  14.324   0.249
 2260W        W72141   7.701  43.802   4.225
 2261W        W72142   6.833  14.630  13.820
 2262W        W72143  15.752  31.472   4.787
 2263W        W72144  23.147  35.574  13.522
 2264W        W72145  27.532   4.712   1.740
 2265W        W72146  25.712   1.950   3.778
 2266W        W72147  39.892   3.368   1.734
 2267W        W72148  16.081   0.470   0.252
 2268W        W72149   7.791  19.762  13.457
 2269W        W72150  18.608   9.865  13.941
 2270W        W72151  27.995  29.969  14.451
 2271W        W72152  14.231   9.680   2.261
 2272W        W72153  15.603  19.259  14.297
 2273W        W72154  39.953  15.274  12.951
 2274W        W72155  40.021  17.244  11.470
 2275W        W72156  29.524  11.282   1.367
 2276W        W72157  32.586  34.509   2.674
 2277W        W72158  14.677  22.198   2.267
 2278W        W72159  38.488  27.604   2.223
 2279W        W72160   1.765  37.369  10.643
 2280W        W72161  32.045  37.487   4.277
 2281W        W72162  31.079  32.443  12.356
 2282W        W72163  28.958  36.970  13.913
 2283W        W72164   0.769  41.971  14.018
 2284W        W72165  11.364   5.258   0.476
 2285W        W72166  32.533  42.975  11.019
 2286W        W72167  31.014   3.814  14.819
 2287W        W72168  24.215  18.706   3.780
 2288W        W72169  35.053  23.653   1.258
 2289W        W72170  36.095  16.737   3.238
 2290W        W72171  35.431  38.367   2.323
 2291W        W72172   3.349  20.248   5.236
 2292W        W72173  28.018  11.757   3.864
 2293W        W72174  15.227   0.812  14.472
 2294W        W72175  31.023  23.026   4.775
 2295W        W72176  38.445  32.622   3.687
 2296W        W72177  14.766  23.541  14.876
 2297W        W72178   3.347  21.698   1.326
 2298W        W72179  15.089   5.338   4.656
 2299W        W72180  17.627  35.398  13.869
 2300W        W72181  28.010  13.661  14.290
 2301W        W72182   0.436   7.764   4.652
 2302W        W72183  26.500  27.025   2.275
 2303W        W72184  10.837  33.998  11.540
 2304W        W72185   8.258  39.448  10.957
 2305W        W72186  18.142  36.489  13.041
 2306W        W72187  27.137  26.116  11.878
 2307W        W72188  22.706   9.232  12.839
 2308W        W72189  44.004  41.309  13.410
 2309W        W72190   9.282   3.834   1.358
 2310W        W72191  17.212  25.593  13.505
 2311W        W72192  33.999   9.361  12.845
 2312W        W72193  41.480   9.191   4.174
 2313W        W72194  25.100  10.745  14.373
 2314W        W72195  21.133   1.390   2.689
 2315W        W72196  42.339  20.530  12.885
 2316W        W72197  26.204  17.194   0.423
 2317W        W72198  34.095  31.913   3.351
 2318W        W72199   0.450  21.580  10.996
 2319W        W72200  27.491  14.253  12.479
 2320W        W72201  29.444   4.302  13.863
 2321W        W72202  23.037  17.589   0.456
 2322W        W72203  40.934  10.265   4.650
 2323W        W72204   1.734   7.745  13.475
 2324W        W72205   5.309  36.974  13.358
 2325W        W72206  29.160  23.000  10.920
 2326W        W72207  42.342  33.554  11.474
 2327W        W72208  22.231  22.698  12.493
 2328W        W72209  33.466  28.621  10.636
 2329W        W72210   6.793  33.586  11.420
 2330W        W72211  35.956  36.366  11.105
 2331W        W72212  35.387  38.068  10.601
 2332W        W72213  34.589   2.418  10.421
 2333W        W72214  43.998  44.490   4.714
 2334W        W72215   7.300  38.053  14.450
 2335W        W72216  13.685  13.109   4.269
 2336W        W72217  44.331  18.545  10.432
 2337W        W72218  11.132  25.497   2.227
 2338W        W72219  29.987  22.713   0.738
 2339W        W72220  18.278  17.224  14.809
 2340W        W72221  40.802  15.308   0.386
 2341W        W72222   1.302  17.305  12.361
 2342W        W72223  27.654  19.618  10.549
 2343W        W72224  32.452  37.027   2.186
 2344W        W72225  43.513  24.031   2.713
 2345W        W72226  30.588  36.496  11.563
 2346W        W72227  19.077   7.849   1.359
 2347W        W72228  36.353  39.871   2.796
 2348W        W72229  32.124  31.548  12.495
 2349W        W72230   6.785  30.584  14.406
 2350W        W72231  19.632  39.873  10.489
 2351W        W72232   7.704  44.359   3.266
 2352W        W72233  19.218  34.879  14.438
 2353W        W72234  31.094  40.489   4.638
 2354W        W72235  35.551   7.344  11.023
 2355W        W72236  11.213  22.557   3.866
 2356W        W72237  30.931  29.963   3.362
 2357W        W72238  14.781  21.651   1.328
 2358W        W72239  44.813  17.635  13.833
 2359W        W72240  22.152  27.985   2.406
 2360W        W72241  27.169   2.337  13.028
 2361W        W72242   4.308  11.237   1.734
 2362W        W72243  42.870   2.967   1.220
 2363W        W72244  41.318  28.434  10.499
 2364W        W72245   4.888   7.867  13.539
 2365W        W72246  20.071   2.272  10.974
 2366W        W72247  43.952  39.998  10.585
 2367W        W72248  40.047  41.337   1.282
 2368W        W72249  30.083  13.648   1.292
 2369W        W72250  17.650  42.803   3.632
 2370W        W72251  22.510  38.917   2.714
 2371W        W72252  36.844   6.701   0.386
 2372W        W72253  14.627  20.243   4.757
 2373W        W72254  35.090  29.014  11.486
 2374W        W72255   1.330  18.117  13.533
 2375W        W72256  39.952  36.929   4.164
 2376W        W72257  35.455  35.985  13.491
 2377W        W72258  15.265   8.281  11.015
 2378W        W72259  10.271   7.868   5.296
 2379W        W72260  10.870   8.862   2.872
 2380W        W72261  20.741  38.924   4.120
 2381W        W72262   1.365  21.618  14.409
 2382W        W72263  15.789   4.276   4.302
 2383W        W72264  22.115  38.035   0.291
 2384W        W72265  13.115  31.992  14.839
 2385W        W72266  21.205   9.700  11.024
 2386W        W72267  19.749  18.086  12.059
 2387W        W72268  16.106  24.513   3.250
 2388W        W72269  12.622  43.331   4.711
 2389W        W72270  20.634  37.952  10.935
 2390W        W72271  15.225  17.704   1.820
 2391W        W72272  16.706   2.856   1.232
 2392W        W72273  13.765  37.407   0.912
 2393W        W72274  34.554  34.529   2.382
 2394W        W72275  36.552  10.790   4.151
 2395W        W72276  11.182  25.671  14.990
 2396W        W72277  38.836  41.466   2.402
 2397W        W72278  29.592  44.897  12.908
 2398W        W72279  38.925   6.400   1.429
 2399W        W72280  19.181  13.105   2.807
 2400W        W72281  28.522  28.132  14.992
 2401W        W72282  32.008  27.526  10.589
 2402W        W72283  34.012  11.822   2.864
 2403W        W72284  28.092  10.676   1.749
 2404W        W72285  36.046  26.124  14.501
 2405W        W72286   0.850  42.883   3.298
 2406W        W72287  31.139  21.172   1.291
 2407W        W72288  11.674  42.020   2.284
 2408W        W72289  11.162  35.458   3.370
 2409W        W72290   9.275   1.853  10.600
 2410W        W72291  23.032  10.296  13.495
 2411W        W72292  16.205  30.510  10.443
 2412W        W72293  32.118   7.882  11.574
 2413W        W72294  11.228  44.344   1.221
 2414W        W72295  13.205  33.033   1.378
 2415W        W72296  27.655  24.609  10.544
 2416W        W72297  41.871  33.991  10.964
 2417W        W72298  33.051   2.254   2.867
 2418W        W72299  43.840  18.175  14.970
 2419W        W72300  42.494  43.971  14.344
 2420W        W72301  25.183  30.648  12.481
 2421W        W72302  26.978   4.380  12.483
 2422W        W72303  18.561  39.810  10.102
 2423W        W72304  27.993  22.211  11.556
 2424W        W72305  16.584  26.059  12.085
 2425W        W72306  20.116  40.907   0.766
 2426W        W72307  12.855  16.691   2.847
 2427W        W72308  12.333  30.516   3.658
 2428W        W72309   9.761  27.075  11.939
 2429W        W72310  17.206  26.618   1.265
 2430W        W72311  42.986  23.602   2.417
 2431W        W72312   2.456  24.683  10.555
 2432W        W72313   4.729   2.812   3.770
 2433W        W72314  29.529  26.469  13.488
 2434W        W72315  22.212  31.945  10.557
 2435W        W72316   5.317   2.802  11.503
 2436W        W72317   2.464  37.484   4.720
 2437W        W72318  39.489  23.689  10.488
 2438W        W72319  10.857  41.410  14.936
 2439W        W72320  38.433   3.951  12.949
 2440W        W72321  42.871   6.895   3.371
 2441W        W72322  17.622  14.298   4.216
 2442W        W72323   7.707   1.408  12.994
 2443W        W72324  41.790  38.946  13.442
 2444W        W72325  35.983  21.245  13.986
 2445W        W72326  30.094  24.567  10.525
 2446W        W72327  15.588   8.336   2.334
 2447W        W72328  39.558  30.128   1.312
 2448W        W72329  29.959   8.722  14.877
 2449W        W72330   6.227  29.651  14.768
 2450W        W72331  22.721  16.588   5.645
 2451W        W72332  11.786  11.646  10.092
 2452W        W72333  37.086  30.462  12.464
 2453W        W72334   6.197   0.382  13.490
 2454W        W72335  28.501   0.458   0.284
 2455W        W72336  21.224  34.872  12.835
 2456W        W72337  24.700  13.205  14.393
 2457W        W72338   3.283  28.646   4.692
 2458W        W72339  34.437  32.016   2.201
 2459W        W72340  28.634  36.042  13.808
 2460W        W72341  17.216  31.008   3.680
 2461W        W72342  35.051  41.349   1.855
 2462W        W72343  32.033   4.446  14.881
 2463W        W72344   0.278  33.470  12.550
 2464W        W72345  29.573  14.654   4.235
 2465W        W72346  28.163   7.173  10.475
 2466W        W72347  15.156  12.683   0.246
 2467W        W72348  35.981  41.960   1.825
 2468W        W72349  27.009  15.627  10.516
 2469W        W72350   6.723  26.201   2.871
 2470W        W72351  43.367  13.608  12.556
 2471W        W72352  39.918  17.193   4.748
 2472W        W72353  12.211   6.806  14.321
 2473W        W72354  12.819   5.231  13.893
 2474W        W72355  39.973  22.567   1.237
 2475W        W72356  41.025   9.298   4.751
 2476W        W72357  24.647  27.059   0.280
 2477W        W72358  38.824  44.448   1.770
 2478W        W72359  26.517   2.864  11.582
 2479W        W72360  38.447   6.742  14.379
 2480W        W72361  43.774  26.073  10.966
 2481W        W72362  21.547  18.613  10.470
 2482W        W72363  23.153  17.684   3.731
 2483W        W72364  21.601   9.262  11.457
 2484W        W72365  11.188  32.453   4.618
 2485W        W72366   9.275  41.417   2.871
 2486W        W72367   6.867  23.063  12.877
 2487W        W72368  20.087  33.918  12.951
 2488W        W72369  17.259  22.189   0.868
 2489W        W72370   0.754  40.891   2.221
 2490W        W72371  35.435  20.550   1.274
 2491W        W72372  22.206  37.548   4.131
 2492W        W72373  11.649  29.992  12.874
 2493W        W72374  27.079  31.493  13.052
 2494W        W72375   1.748  11.791   0.903
 2495W        W72376  16.615  21.242   0.310
 2496W        W72377  36.373   0.314  13.028
 2497W        W72378  28.137  36.921  10.611
 2498W        W72379  14.269  17.631   0.427
 2499W        W72380  36.543   4.366   0.350
 2500W        W72381  21.040   2.247  11.013
 2501W        W72382  21.619  27.999   1.391
 2502W        W72383   7.763  10.227  14.973
 2503W        W72384  30.019   1.921  11.455
 2504W        W72385  22.736  10.659   2.216
 2505W        W72386  32.411  14.698  11.122
 2506W        W72387  43.407  32.101   4.695
 2507W        W72388  37.452  36.039  11.127
 2508W        W72389  22.730  36.948   1.756
 2509W        W72390  20.687  13.685  13.429
 2510W        W72391  31.590  18.595   2.239
 2511W        W72392  16.200  20.218   4.615
 2512W        W72393  36.430  31.037  13.013
 2513W        W72394  21.578  14.822   1.225
 2514W        W72395  34.508  30.567  13.969
 2515W        W72396  38.410  14.095   4.192
 2516W        W72397  41.513  11.192   1.289
 2517W        W72398  16.690   7.378   2.403
 2518W        W72399   4.245  13.812  12.866
 2519W        W72400  30.424  27.153   4.159
 2520W        W72401  42.834  38.048  14.289
 2521W        W72402   6.719  36.037  14.478
 2522W        W72403  14.204   6.384   1.340
 2523W        W72404   3.266  20.103   1.251
 2524W        W72405  25.168  30.951   0.781
 2525W        W72406   4.821   2.722  14.816
 2526W        W72407  36.947  38.503  14.433
 2527W        W72408   5.877  37.964   3.797
 2528W        W72409  17.182   8.843  12.374
 2529W        W72410  28.149   3.712  13.411
 2530W        W72411  22.201  17.664   4.609
 2531W        W72412  35.983  29.984   1.887
 2532W        W72413  28.442   6.384  10.510
 2533W        W72414  20.238  26.952   3.386
 2534W        W72415  30.455  10.207  14.480
 2535W        W72416   0.258  28.618  10.571
 2536W        W72417  42.933  38.529  12.562
 2537W        W72418   0.959  25.014  13.054
 2538W        W72419  42.325  33.444   4.732
 2539W        W72420  36.036  13.184  14.845
 2540W        W72421  23.526   6.811  10.418
 2541W        W72422  13.712  12.159  11.460
 2542W        W72423  38.422  40.307  10.459
 2543W        W72424  31.477  32.551  10.546
 2544W        W72425  22.626  42.503   4.765
 2545W        W72426  39.322   6.695  11.572
 2546W        W72427  42.867  21.057  14.828
 2547W        W72428  16.735  33.564  14.849
 2548W        W72429   4.427   8.286   2.185
 2549W        W72430  24.216  10.763   0.747
 2550W        W72431   8.860   3.283   0.263
 2551W        W72432  12.136  43.384  10.926
 2552W        W72433  39.420  39.908   4.225
 2553W        W72434  30.984  25.516   2.360
 2554W        W72435   5.366  43.963   3.275
 2555W        W72436  22.539  39.366   2.706
 2556W        W72437  32.124  14.099   4.258
 2557W        W72438  25.473  10.841  11.991
 2558W        W72439  43.406  19.574  10.443
 2559W        W72440  31.560  39.907   0.310
 2560W        W72441  12.837   7.708  13.330
 2561W        W72442  37.058  29.425   1.848
 2562W        W72443   1.735  44.943  14.291
 2563W        W72444  27.019  26.971   4.299
 2564W        W72445   0.431   6.405  12.888
 2565W        W72446  29.968  31.099   4.177
 2566W        W72447  17.618  20.065   3.782
 2567W        W72448  28.490  35.902  14.974
 2568W        W72449  36.408   3.828   0.434
 2569W        W72450   9.666  34.077  13.946
 2570W        W72451  14.223  13.301  10.936
 2571W        W72452  11.233   6.682  14.878
 2572W        W72453   9.312  24.976  14.444
 2573W        W72454  20.696   4.936   4.813
 2574W        W72455  11.239  24.059  12.072
 2575W        W72456  30.470  27.050  13.322
 2576W        W72457  38.542  18.608   1.387
 2577W        W72458  26.666  13.114  10.496
 2578W        W72459  28.114  31.471   0.837
 2579W        W72460  18.656  32.564   4.153
 2580W        W72461   7.247  36.388   1.808
 2581W        W72462  13.246  28.659  11.447
 2582W        W72463  21.721  44.812   4.138
 2583W        W72464  30.156  24.686   1.900
 2584W        W72465  36.047  41.906  14.313
 2585W        W72466   0.954  28.124  14.806
 2586W        W72467  35.928  42.857   0.242
 2587W        W72468   0.858  33.416  11.485
 2588W        W72469  22.702  22.603  13.319
 2589W        W72470  32.119  31.970  14.913
 2590W        W72471  30.490  23.578  14.494
 2591W        W72472  42.813  12.848  10.075
 2592W        W72473  28.549   0.296  11.993
 2593W        W72474  23.172  16.139   3.755
 2594W        W72475  18.599   7.214   4.325
 2595W        W72476   2.294  22.689   4.632
 2596W        W72477  29.102  42.357  12.827
 2597W        W72478  42.004   3.287   3.693
 2598W        W72479  24.706  38.993  14.911
 2599W        W72480  12.124  16.722   3.269
 2600W        W72481   0.288  31.070  13.449
 2601W        W72482  39.470  33.967  10.888
 2602W        W72483  22.573  32.571  13.437
 2603W        W72484   8.863  16.785  10.496
 2604W        W72485  21.696   4.210   1.252
 2605W        W72486  10.686   8.228   1.375
 2606W        W72487  19.052  12.329   2.664
 2607W        W72488  12.646  16.742   1.851
 2608W        W72489  38.519   3.756   1.761
 2609W        W72490  43.791  42.937   2.407
 2610W        W72491   9.206  28.008   4.601
 2611W        W72492  24.216   2.245   2.360
 2612W        W72493  17.265  16.601  12.995
 2613W        W72494   6.881  12.660  13.869
 2614W        W72495   5.216  21.692  11.121
 2615W        W72496  35.425   8.852   1.248
 2616W        W72497  25.156  30.550   4.719
 2617W        W72498  26.148  25.073  14.964
 2618W        W72499  20.528  27.504   5.092
 2619W        W72500  10.201  26.053   2.232
 2620W        W72501  33.435   9.315  13.481
 2621W        W72502   2.860   1.249   0.429
 2622W        W72503  18.572  42.297   2.724
 2623W        W72504  27.545  13.703   3.719
 2624W        W72505  17.597  43.789  12.062
 2625W        W72506  42.469   8.161  11.492
 2626W        W72507  31.621  23.082  14.425
 2627W        W72508  43.390  19.675  13.405
 2628W        W72509   8.676  41.392  13.532
 2629W        W72510  41.365  40.051   1.273
 2630W        W72511  30.441  40.475   0.392
 2631W        W72512  23.623  22.665   4.648
 2632W        W72513  23.527  32.515  11.100
 2633W        W72514   8.272  10.803  14.789
 2634W        W72515  14.766  21.176  14.366
 2635W        W72516  28.437  10.142   0.245
 2636W        W72517  22.568  37.455  11.546
 2637W        W72518  22.700  21.026   0.271
 2638W        W72519  25.141  18.133   4.715
 2639W        W72520  36.523  20.181   2.387
 2640W        W72521   8.344  30.539  14.513
 2641W        W72522  33.902  26.673  10.976
 2642W        W72523  41.962  20.072   3.270
 2643W        W72524  40.305  36.563  12.459
 2644W        W72525  28.609  16.247   4.167
 2645W        W72526   0.881  29.451   4.769
 2646W        W72527  14.595  23.659   2.245
 2647W        W72528  19.103  13.326   1.265
 2648W        W72529  11.843  17.283   3.366
 2649W        W72530  31.571  11.272   3.815
 2650W        W72531  41.810  23.498   2.779
 2651W        W72532  20.248  41.364  13.430
 2652W        W72533  32.433  19.199   4.284
 2653W        W72534  21.126  13.305   1.840
 2654W        W72535  13.652  42.451  13.943
 2655W        W72536  23.092  41.484  12.432
 2656W        W72537   3.441  22.651  11.551
 2657W        W72538  15.723   4.915  11.129
 2658W        W72539  35.899  31.013   5.278
 2659W        W72540  31.412  27.990  12.847
 2660W        W72541  20.722  24.073  14.387
 2661W        W72542  11.237   6.378  13.997
 2662W        W72543  24.187   2.788  11.387
 2663W        W72544   5.244  29.488   0.265
 2664W        W72545  22.200  37.832   2.692
 2665W        W72546   7.216  37.881   1.735
 2666W        W72547  28.100   1.310  10.644
 2667W        W72548  28.143  35.445  14.824
 2668W        W72549  37.445  19.660  12.557
 2669W        W72550  10.844  14.640  11.415
 2670W        W72551  27.496  26.550   2.674
 2671W        W72552  12.222  42.347   0.964
 2672W        W72553  24.669   8.396  13.814
 2673W        W72554  27.449   0.476  12.945
 2674W        W72555  13.245  28.534  14.984
 2675W        W72556  14.231  30.487   1.250
 2676W        W72557  13.249  38.477  12.917
 2677W        W72558  18.230   1.799   4.314
 2678W        W72559  38.909  26.558  12.384
 2679W        W72560  29.499  21.697  12.867
 2680W        W72561   6.777   0.275  12.927
 2681W        W72562  33.414  25.064   0.759
 2682W        W72563  24.636  25.497   2.736
 2683W        W72564  15.649  19.629  14.980
 2684W        W72565  18.164  30.488  12.450
 2685W        W72566  26.114  24.647  10.973
 2686W        W72567  19.234  12.662   4.789
 2687W        W72568  21.710  43.300  11.387
 2688W        W72569  35.567   1.848  12.046
 2689W        W72570   5.765  12.761  11.969
 2690W        W72571  20.088  42.360  11.901
 2691W        W72572  18.649  16.233   0.738
 2692W        W72573  43.018  33.531   0.341
 2693W        W72574  26.974  17.132   0.471
 2694W        W72575  10.344  31.553   1.271
 2695W        W72576  26.639   3.332  14.865
 2696W        W72577   1.306  33.021  11.444
 2697W        W72578   8.355   0.779   3.706
 2698W        W72579  25.981  32.574   0.773
 2699W        W72580  20.544  33.069  10.510
 2700W        W72581  25.062  37.525   4.146
 2701W        W72582  14.597   6.827  13.327
 2702W        W72583  23.709  22.710   2.683
 2703W        W72584  32.628  36.522   3.715
 2704W        W72585   1.450  22.744   1.750
 2705W        W72586  31.984  42.012   4.142
 2706W        W72587   7.907  27.162  12.984
 2707W        W72588  28.142  11.655  11.099
 2708W        W72589  39.866  25.027  11.412
 2709W        W72590  19.122   6.304  12.936
 2710W        W72591  42.877  15.613   4.286
 2711W        W72592  32.444  17.185  11.513
 2712W        W72593  44.881   5.886   3.813
 2713W        W72594  25.089  39.991   0.799
 2714W        W72595  23.657   2.461   4.341
 2715W        W72596   5.275  26.538   2.245
 2716W        W72597  13.658  12.187  10.512
 2717W        W72598   9.166  42.992  10.463
 2718W        W72599  26.022  34.072   0.422
 2719W        W72600  35.389  39.545   3.149
 2720W        W72601  36.960  44.925  11.585
 2721W        W72602   9.741  29.118   4.229
 2722W        W72603   0.344  43.845   1.318
 2723W        W72604  31.633  25.543   3.320
 2724W        W72605  32.083  44.450  13.353
 2725W        W72606  14.229  42.001  14.823
 2726W        W72607   0.377  10.262   4.209
 2727W        W72608   0.798  24.055   1.750
 2728W        W72609  44.984   6.871   1.733
 2729W        W72610   8.731  36.927   2.764
 2730W        W72611  35.880  31.534   0.394
 2731W        W72612  36.090  16.801  10.562
 2732W        W72613  10.229  23.202  11.113
 2733W        W72614  41.920   5.693  11.506
 2734W        W72615   6.907  43.836   2.351
 2735W        W72616  44.472  13.241   5.142
 2736W        W72617  42.830  40.371  13.419
 2737W        W72618  27.051  34.962   3.235
 2738W        W72619   4.417  16.780   1.755
 2739W        W72620   6.269  21.685   0.747
 2740W        W72621  35.069  30.119   4.630
 2741W        W72622   5.707  39.018   4.674
 2742W        W72623  44.982   5.328  11.965
 2743W        W72624  38.922  22.517  10.587
 2744W        W72625  33.568  39.936   5.261
 2745W        W72626  22.178  37.869   4.163
 2746W        W72627  25.067   1.281  12.882
 2747W        W72628  15.640   3.333   0.864
 2748W        W72629  44.278  12.354   4.231
 2749W        W72630  39.909   5.412  13.460
 2750W        W72631  43.327  21.643   3.213
 2751W        W72632  42.427  43.317   3.180
 2752W        W72633   3.249   9.832  11.474
 2753W        W72634  27.690  23.122  13.966
 2754W        W72635  23.072  29.024  11.909
 2755W        W72636  30.454  20.730   1.360
 2756W        W72637  42.842  14.832  12.064
 2757W        W72638  41.005  14.145  12.462
 2758W        W72639  23.618  31.107   3.292
 2759W        W72640  21.726   4.841   0.467
 2760W        W72641  36.464  26.486   0.919
 2761W        W72642   1.256  38.417   4.793
 2762W        W72643  28.555  24.495   5.133
 2763W        W72644  31.430  31.513  11.936
 2764W        W72645  36.959  39.529   0.356
 2765W        W72646   2.946  32.629   4.644
 2766W        W72647  21.049   3.847  14.830
 2767W        W72648  29.590   2.725   2.764
 2768W        W72649  27.129  20.137  10.967
 2769W        W72650  18.264  39.364  12.862
 2770W        W72651  21.030   7.875  14.355
 2771W        W72652  14.313   2.878  11.500
 2772W        W72653  21.632  38.889  14.938
 2773W        W72654   8.179   3.365   0.474
 2774W        W72655   3.879  38.491   0.439
 2775W        W72656   6.246  39.948   2.678
 2776W        W72657  36.870   4.260   2.310
 2777W        W72658   1.466  35.896  11.557
 2778W        W72659  12.677   8.191   1.806
 2779W        W72660  40.797  37.960   1.724
 2780W        W72661  23.042  23.562  13.806
 2781W        W72662   1.931   9.172   0.344
 2782W        W72663  38.505   7.771  11.571
 2783W        W72664  17.108  42.479   3.352
 2784W        W72665  26.556  11.665   3.296
 2785W        W72666  24.074   2.264  11.949
 2786W        W72667  17.061  12.836   4.703
 2787W        W72668   7.781   3.363   5.081
 2788W        W72669  22.105  32.123  14.862
 2789W        W72670  35.880  19.586  13.417
 2790W        W72671   0.282  12.179  11.561
 2791W        W72672   4.286   5.927  13.350
 2792W        W72673  37.853  24.581   4.160
 2793W        W72674  42.330   1.305   3.677
 2794W        W72675  30.120  12.141  14.990
 2795W        W72676  34.371  19.172  13.347
 2796W        W72677  42.805  21.076  10.606
 2797W        W72678  33.131   9.219  11.986
 2798W        W72679   9.739   7.760   4.334
 2799W        W72680  18.244  32.416  11.087
 2800W        W72681  24.534  39.905  13.012
 2801W        W72682  30.931  37.081   2.770
 2802W        W72683  11.170  22.698   4.177
 2803W        W72684   4.814  14.161  11.936
 2804W        W72685  38.555  10.263   0.870
 2805W        W72686  31.137  40.311   1.222
 2806W        W72687  39.816  21.728   0.822
 2807W        W72688  39.503   8.815   3.328
 2808W        W72689  19.678   7.379  14.026
 2809W        W72690   0.454  41.006  11.960
 2810W        W72691  12.843   8.834   1.236
 2811W        W72692  33.925   0.289  10.491
 2812W        W72693  14.168  17.130   1.713
 2813W        W72694  39.442  21.194  14.845
 2814W        W72695  43.771  44.486  13.865
 2815W        W72696  40.031  43.956  10.497
 2816W        W72697  35.861  10.154   4.137
 2817W        W72698   8.335  24.020  14.990
 2818W        W72699  28.442   8.775  12.092
 2819W        W72700  34.866  15.654  13.794
 2820W        W72701  32.987  10.185  10.023
 2821W        W72702   0.379  24.514   2.180
 2822W        W72703  17.249   0.823  11.954
 2823W        W72704  21.664   2.312  14.890
 2824W        W72705  44.876  39.518  12.443
 2825W        W72706  43.329  26.626   4.602
 2826W        W72707  44.379  10.324   0.475
 2827W        W72708  12.222   6.735   0.462
 2828W        W72709  13.626  40.832  14.983
 2829W        W72710  21.689  31.122  12.877
 2830W        W72711  20.162   4.226   0.957
 2831W        W72712  12.162   0.448   3.166
 2832W        W72713  20.221  35.583   4.123
 2833W        W72714  34.005  14.117  11.501
 2834W        W72715  44.943   1.966  11.434
 2835W        W72716  40.352  44.285  11.463
 2836W        W72717  21.710   9.149   0.392
 2837W        W72718  19.272  33.050  11.551
 2838W        W72719  43.852  41.306   1.857
 2839W        W72720   9.293  24.210  14.013
 2840W        W72721  13.634  35.942   3.856
 2841W        W72722  25.623  13.809  13.497
 2842W        W72723  16.146  34.006  13.317
 2843W        W72724  27.094  33.518   1.221
 2844W        W72725  33.425  42.395  13.865
 2845W        W72726   0.957  29.924   1.235
 2846W        W72727  21.238   8.170  11.471
 2847W        W72728  34.058  18.133   4.615
 2848W        W72729   5.815  21.159   1.214
 2849W        W72730  14.736   0.276   4.787
 2850W        W72731  34.403  25.216   0.883
 2851W        W72732  11.340   2.300   3.299
 2852W        W72733  37.458  20.215   1.864
 2853W        W72734  32.103  44.925  13.935
 2854W        W72735  39.364  34.029   4.127
 2855W        W72736  29.017  29.509  11.377
 2856W        W72737  14.299   5.775   2.671
 2857W        W72738  36.940  23.521   0.440
 2858W        W72739  23.046   8.307  13.322
 2859W        W72740  30.965  14.176   2.334
 2860W        W72741  29.984  41.393  12.456
 2861W        W72742  35.015  37.014   2.281
 2862W        W72743  33.584   6.701   0.910
 2863W        W72744  22.054  39.410   2.832
 2864W        W72745   7.255  15.275  12.575
 2865W        W72746  26.003  19.571  14.286
 2866W        W72747   8.292  31.440   3.158
 2867W        W72748  18.729   3.892   2.257
 2868W        W72749  22.168  30.541  11.409
 2869W        W72750  23.507   5.748   0.733
 2870W        W72751  17.572  19.183  11.980
 2871W        W72752  26.109  11.272   1.413
 2872W        W72753   5.288   2.354   0.744
 2873W        W72754  21.147   7.332  10.160
 2874W        W72755   2.258  37.923  14.296
 2875W        W72756  44.956  21.608  11.120
 2876W        W72757   9.738   7.253   0.786
 2877W        W72758  38.521   0.415  10.034
 2878W        W72759  20.036  34.439  13.437
 2879W        W72760   8.311   0.800   0.726
 2880W        W72761   6.266   6.357  13.052
 2881W        W72762  17.619  34.932  14.784
 2882W        W72763  22.218   9.177   0.414
 2883W        W72764   7.292  19.672  12.340
 2884W        W72765  33.923  44.361  10.002
 2885W        W72766  29.171  40.991  14.805
 2886W        W72767  31.452  30.478  11.430
 2887W        W72768  17.618  10.767  11.129
 2888W        W72769  15.597  41.973  14.468
 2889W        W72770  41.823  32.910  11.598
 2890W        W72771  27.529  17.135  14.443
 2891W        W72772  44.288  43.964  12.567
 2892W        W72773   3.772   8.753  10.406
 2893W        W72774  44.295  11.135  13.473
 2894W        W72775  22.648   6.726   4.218
 2895W        W72776  10.292  15.316   1.921
 2896W        W72777  37.391  34.964  11.873
 2897W        W72778  33.602   8.211   4.294
 2898W        W72779   0.768   8.786   2.894
 2899W        W72780  41.934  42.436   1.837
 2900W        W72781   3.838  31.073   1.290
 2901W        W72782   1.373  29.445  12.973
 2902W        W72783  43.796  14.286   2.771
 2903W        W72784  36.494  30.442  13.399
 2904W        W72785  34.054  36.891  13.849
 2905W        W72786   4.827  15.091   1.697
 2906W        W72787  26.176  12.164   1.746
 2907W        W72788  18.762  24.162  10.643
 2908W        W72789  26.043  34.906   0.931
 2909W        W72790   6.801   7.785  13.861
 2910W        W72791  37.977  36.975  11.959
 2911W        W72792  21.226  42.836  11.551
 2912W        W72793   0.823   3.355  14.842
 2913W        W72794  43.888  30.645  14.842
 2914W        W72795  24.101  13.212  10.515
 2915W        W72796  21.226  27.475   1.442
 2916W        W72797  22.191  10.864   0.269
 2917W        W72798  24.514   3.865   4.728
 2918W        W72799   3.800  20.717  10.509
 2919W        W72800  41.319   3.785  10.992
 2920W        W72801  15.697  12.702   9.982
 2921W        W72802  44.785  31.575   4.668
 2922W        W72803  10.855  11.134  11.570
 2923W        W72804  43.334  41.459   2.886
 2924W        W72805   8.405  25.474  14.788
 2925W        W72806  42.455  35.948   0.965
 2926W        W72807  35.565  28.947  12.939
 2927W        W72808   0.466  44.003  11.040
 2928W        W72809   9.643  30.427  11.981
 2929W        W72810   4.363   2.795  12.940
 2930W        W72811  11.673   4.727   1.323
 2931W        W72812   0.407   7.877   3.291
 2932W        W72813  31.622  26.171   1.824
 2933W        W72814  40.440  44.753   3.367
 2934W        W72815  36.410  12.232   3.733
 2935W        W72816   7.822  39.904  13.004
 2936W        W72817  31.126  10.646   1.700
 2937W        W72818   8.757  11.774  12.543
 2938W        W72819  22.536  29.981   3.247
 2939W        W72820  33.978  28.052   0.776
 2940W        W72821   5.221  26.968  10.940
 2941W        W72822  26.578   2.748  10.459
 2942W        W72823  44.483  13.116  13.058
 2943W        W72824   1.285  31.619   3.794
 2944W        W72825   5.826  41.466  10.976
 2945W        W72826  16.658   4.734  12.396
 2946W        W72827  29.669  28.483  10.909
 2947W        W72828  17.695  40.345   3.633
 2948W        W72829  20.718  43.513  13.425
 2949W        W72830  28.174   7.844   1.359
 2950W        W72831  40.513   0.387  14.303
 2951W        W72832  22.110   5.824   1.801
 2952W        W72833  26.958  33.574  10.029
 2953W        W72834  22.582   3.348   3.192
 2954W        W72835  28.524  16.574   2.848
 2955W        W72836  42.898  41.843  11.555
 2956W        W72837  39.400  10.839   3.829
 2957W        W72838  30.569  11.648  13.977
 2958W        W72839  28.651  40.030   4.817
 2959W        W72840  44.762  26.962  11.106
 2960W        W72841  16.652   3.223   3.663
 2961W        W72842  40.876  17.663   4.685
 2962W        W72843  13.261  30.960   2.384
 2963W        W72844   1.393  14.650   4.172
 2964W        W72845  26.529  36.347  13.345
 2965W        W72846   8.655  14.760   2.783
 2966W        W72847   9.322  36.371   4.133
 2967W        W72848  19.245  28.541   0.358
 2968W        W72849  36.532  10.356   2.303
 2969W        W72850  43.816  36.953  10.497
 2970W        W72851  11.786  34.883   3.271
 2971W        W72852  25.087   4.345   0.844
 2972W        W72853  39.954   4.905  14.334
 2973W        W72854  33.106  28.991  11.991
 2974W        W72855   6.237  35.600  13.385
 2975W        W72856  22.186   4.391   3.187
 2976W        W72857  42.414   6.825  14.799
 2977W        W72858  23.597   4.300  10.935
 2978W        W72859  30.941  42.483  12.870
 2979W        W72860  24.600   6.223  14.366
 2980W        W72861  31.639  34.463  11.586
 2981W        W72862  33.960  10.162  11.382
 2982W        W72863   7.881  42.493  12.055
 2983W        W72864  33.879  17.162  13.902
 2984W        W72865  11.277  23.622   2.272
 2985W        W72866  38.853   4.402   3.783
 2986W        W72867  27.945  17.600   0.854
 2987W        W72868  15.810  28.977   1.229
 2988W        W72869  30.439  40.309   3.805
 2989W        W72870  21.601  31.462   3.844
 2990W        W72871  12.332  26.636   2.744
 2991W        W72872  13.798  33.601   0.317
 2992W        W72873   0.466  23.217  11.911
 2993W        W72874  41.795  31.535   0.889
 2994W        W72875  31.484  44.416   2.330
 2995W        W72876  39.471  21.713  14.491
 2996W        W72877  35.970  32.558   2.242
 2997W        W72878  18.575  17.237  12.550
 2998W        W72879  18.588  13.341  12.439
 2999W        W72880  33.531  13.824  13.847
 3000W        W72881  15.818  21.595  10.549
 3001W        W72882  13.241   8.402  11.904
 3002W        W72883   2.864  33.410   1.860
 3003W        W72884  14.715  26.177  12.569
 3004W        W72885  41.806   8.687  13.873
 3005W        W72886  17.099  13.122   3.203
 3006W        W72887  28.963  31.085   2.830
 3007W        W72888  28.607  24.090   4.625
 3008W        W72889  12.629  42.400   0.838
 3009W        W72890  24.123   6.906  10.909
 3010W        W72891   8.884  32.432   3.845
 3011W        W72892   0.765  23.100  12.873
 3012W        W72893  21.080  27.536  12.073
 3013W        W72894   1.936  41.901  14.339
 3014W        W72895  34.991   5.905  11.463
 3015W        W72896  34.573  39.029   4.263
 3016W        W72897  32.022  20.103   4.143
 3017W        W72898  31.582  15.131   9.636
 3018W        W72899  28.105   0.932   3.703
 3019W        W72900  31.570  29.129  10.620
 3020W        W72901  32.059  37.493   5.289
 3021W        W72902  11.839  23.515  11.552
 3022W        W72903   7.217   5.756  13.863
 3023W        W72904  42.322   4.215   1.701
 3024W        W72905  15.766   9.815  11.085
 3025W        W72906  34.379  36.526   0.891
 3026W        W72907   0.901   9.723   2.222
 3027W        W72908   5.851   2.817   1.277
 3028W        W72909   3.924  25.990   4.286
 3029W        W72910  35.543  11.214   0.730
 3030W        W72911   9.860  16.141   4.214
 3031W        W72912   1.393  26.965   4.223
 3032W        W72913  40.477  17.256   2.884
 3033W        W72914  24.541  40.923  11.469
 3034W        W72915  39.855  33.548  13.967
 3035W        W72916   9.195  16.292  12.364
 3036W        W72917   0.983  37.376   1.769
 3037W        W72918  29.925   5.877  10.154
 3038W        W72919  10.702  21.163  11.084
 3039W        W72920   4.831  42.932  10.121
 3040W        W72921  31.145  44.833  12.863
 3041W        W72922  40.439  13.657   1.375
 3042W        W72923  36.371  30.130   3.378
 3043W        W72924   6.774  33.882  12.935
 3044W        W72925  44.420  44.849  13.804
 3045W        W72926  23.035   1.422   3.658
 3046W        W72927  43.422  19.190  11.895
 3047W        W72928  25.649   1.766   0.281
 3048W        W72929   3.393  30.480  11.933
 3049W        W72930  21.084  28.956   2.737
 3050W        W72931  30.946  35.924   3.773
 3051W        W72932  19.654  29.622  10.425
 3052W        W72933  26.029  17.263   4.351
 3053W        W72934  34.958  37.545   1.853
 3054W        W72935  31.590  25.625   1.378
 3055W        W72936  27.129  42.790  12.527
 3056W        W72937  36.069  18.272   1.883
 3057W        W72938  43.894  10.295  14.945
 3058W        W72939  38.004  39.358   4.697
 3059W        W72940  34.047  21.709   2.306
 3060W        W72941  29.071  15.720  10.960
 3061W        W72942  27.014   8.751   4.131
 3062W        W72943  23.067  17.774  13.320
 3063W        W72944  36.362  28.568   4.127
 3064W        W72945  32.586   7.804  11.583
 3065W        W72946  14.700  22.043   3.736
 3066W        W72947  23.681  38.326  12.870
 3067W        W72948  33.901  11.347  13.052
 3068W        W72949  19.661  31.574   2.682
 3069W        W72950  17.159  43.300  12.026
 3070W        W72951   0.454  13.756   2.272
 3071W        W72952  36.033   3.938   3.345
 3072W        W72953  30.611  39.423   2.718
 3073W        W72954  24.013  21.566   1.445
 3074W        W72955  22.125  32.527   2.227
 3075W        W72956   0.480   3.221   5.157
 3076W        W72957  25.684  35.015   0.449
 3077W        W72958  24.611  12.655  11.592
 3078W        W72959  41.350  16.080  11.562
 3079W        W72960  44.973  12.822  11.947
 3080W        W72961  15.720  28.472  13.521
 3081W        W72962  37.466   8.855  12.851
 3082W        W72963  31.404  44.879  12.506
 3083W        W72964  18.096  26.557  10.469
 3084W        W72965  20.163  19.260  14.906
 3085W        W72966  13.720  18.116  14.882
 3086W        W72967  28.473  40.837  11.054
 3087W        W72968  26.084  39.949  13.938
 3088W        W72969  28.138  12.625   2.788
 3089W        W72970  34.418  11.243  11.578
 3090W        W72971  39.929  40.878   3.640
 3091W        W72972  17.235   8.190  13.514
 3092W        W72973   4.919   8.719   9.960
 3093W        W72974  21.138  21.119   1.711
 3094W        W72975  23.540   3.805   1.255
 3095W        W72976  18.671  38.930   5.183
 3096W        W72977  17.083  13.299  10.562
 3097W        W72978  41.820  29.034   2.268
 3098W        W72979  18.559  27.051   3.746
 3099W        W72980  13.333  26.075   0.326
 3100W        W72981  27.103   5.420  11.528
 3101W        W72982   6.407  32.594  11.039
 3102W        W72983   5.407   3.948  10.514
 3103W        W72984  30.059   0.383  13.825
 3104W        W72985  34.591  41.904  12.551
 3105W        W72986   7.739  15.188  10.544
 3106W        W72987  36.949  42.002  12.580
 3107W        W72988  40.885  44.371   1.869
 3108W        W72989   2.265  24.504  12.572
 3109W        W72990  18.094   2.408   3.842
 3110W        W72991  25.554  34.890  12.042
 3111W        W72992   6.743  15.721   0.773
 3112W        W72993  14.602   0.851   0.442
 3113W        W72994   3.433  28.938  11.054
 3114W        W72995  24.526  33.114   1.824
 3115W        W72996  26.996  42.790  13.928
 3116W        W72997   5.816  41.898  11.872
 3117W        W72998  37.420  30.911   3.200
 3118W        W72999  32.920  26.079   0.443
 3119W        W73000  27.966   9.234   3.357
 3120W        W73001  26.043  26.509   2.792
 3121W        W73002  22.544  37.067   2.789
 3122W        W73003   7.390   6.218   1.435
 3123W        W73004  32.425  33.044   0.805
 3124W        W73005  12.754  15.194   0.921
 3125W        W73006  18.127   7.340   4.774
 3126W        W73007  26.584  40.816  14.858
 3127W        W73008  37.849  11.629   1.885
 3128W        W73009  35.525  14.240   3.648
 3129W        W73010   2.911   6.891  14.410
 3130W        W73011   2.301  36.068  13.933
 3131W        W73012  23.001  36.386   3.314
 3132W        W73013  21.543   9.360  12.447
 3133W        W73014  38.482  38.838   0.907
 3134W        W73015  42.884   0.877  14.012
 3135W        W73016  21.663  25.209  12.363
 3136W        W73017   0.349  19.067  13.431
 3137W        W73018   6.334  39.407   4.293
 3138W        W73019  42.859  25.098   4.771
 3139W        W73020  18.259  24.626   2.767
 3140W        W73021  29.637  16.585   2.710
 3141W        W73022  27.656  41.035   0.919
 3142W        W73023  26.545   3.808  12.901
 3143W        W73024  23.565   9.387   1.751
 3144W        W73025  31.935  17.662  14.021
 3145W        W73026  43.312  38.337   4.344
 3146W        W73027  17.114  11.720  12.865
 3147W        W73028  42.421  35.404   0.955
 3148W        W73029   5.913   4.747   1.324
 3149W        W73030   9.159  13.296   3.758
 3150W        W73031  15.174  32.895  12.483
 3151W        W73032  14.184  41.300   0.896
 3152W        W73033  41.406  21.524  10.441
 3153W        W73034  11.693  21.216   1.224
 3154W        W73035   8.705  15.307   0.418
 3155W        W73036  34.881   7.838   4.329
 3156W        W73037  39.424  15.681  12.460
 3157W        W73038   7.357  25.521   4.168
 3158W        W73039  37.406  35.585   1.865
 3159W        W73040  28.670  13.758   0.414
 3160W        W73041  22.513   5.277   4.768
 3161W        W73042  22.705   7.410  10.501
 3162W        W73043   7.373   6.255   3.308
 3163W        W73044  41.808   3.339  11.950
 3164W        W73045  33.538  44.440  11.579
 3165W        W73046  29.594  32.450  13.548
 3166W        W73047  21.165  34.011   3.711
 3167W        W73048  27.008  30.538  14.816
 3168W        W73049  33.971  39.873   3.859
 3169W        W73050  35.929   0.348  14.503
 3170W        W73051  41.425  15.736  10.609
 3171W        W73052  32.403  12.267   3.281
 3172W        W73053  21.243  42.520  14.029
 3173W        W73054  37.855  19.740  10.429
 3174W        W73055  44.968  32.000   3.769
 3175W        W73056  35.390  10.347   1.808
 3176W        W73057  10.832  36.376  12.870
 3177W        W73058  29.061   6.851   3.173
 3178W        W73059   7.685   4.312   3.765
 3179W        W73060  29.575  30.972   1.902
 3180W        W73061   1.309  27.631  14.380
 3181W        W73062   0.803  22.506   3.734
 3182W        W73063  29.972   6.858  12.061
 3183W        W73064  32.458  34.591   3.700
 3184W        W73065  33.624  34.070  10.012
 3185W        W73066  43.847  40.417  14.308
 3186W        W73067   1.329  25.700  10.528
 3187W        W73068  26.126  24.165  12.571
 3188W        W73069  16.604  17.604   2.307
 3189W        W73070   6.322  24.564   2.358
 3190W        W73071  32.012   3.429  12.449
 3191W        W73072  23.570  42.462  14.831
 3192W        W73073  34.399  42.500   0.757
 3193W        W73074  19.777  34.499  10.466
 3194W        W73075  34.541  33.091  14.957
 3195W        W73076  38.483  25.216  12.976
 3196W        W73077  22.138   5.734   2.805
 3197W        W73078   6.248  24.564  12.397
 3198W        W73079  28.511  27.605   4.215
 3199W        W73080  41.791  13.108   3.195
 3200W        W73081  38.939  36.996   4.706
 3201W        W73082  43.866   6.781   4.688
 3202W        W73083  25.700  22.144  12.437
 3203W        W73084   0.262  11.771  13.927
 3204W        W73085  32.924   0.350   1.744
 3205W        W73086  36.424  18.671   3.853
 3206W        W73087   9.191  30.013   3.274
 3207W        W73088  19.611   1.446  14.360
 3208W        W73089  41.821   4.769  12.531
 3209W        W73090  36.380  43.862  14.438
 3210W        W73091  12.615  11.748   1.233
 3211W        W73092  21.118  28.646   1.240
 3212W        W73093   9.875  43.989  11.082
 3213W        W73094   1.479  10.695   1.913
 3214W        W73095  19.736   2.953  12.921
 3215W        W73096  17.105  19.217   3.654
 3216W        W73097  16.769  41.303  12.061
 3217W        W73098   3.323  32.087   0.467
 3218W        W73099  36.524  37.066   2.773
 3219W        W73100  19.176  29.072   4.315
 3220W        W73101  30.106  38.523  14.329
 3221W        W73102  41.339  10.791   4.322
 3222W        W73103  36.388  30.060  14.820
 3223W        W73104   5.396  16.134   2.704
 3224W        W73105  22.110  19.134  12.984
 3225W        W73106   2.913  32.078   4.354
 3226W        W73107  33.963  27.466  13.830
 3227W        W73108  22.192  17.120   3.287
 3228W        W73109  14.136  11.169  11.091
 3229W        W73110  29.924  40.856  11.523
 3230W        W73111  35.531  25.085  11.032
 3231W        W73112  39.938   6.360  14.027
 3232W        W73113  42.524  34.445  11.497
 3233W        W73114   0.345  40.475  12.923
 3234W        W73115  44.260  17.087  14.823
 3235W        W73116  11.743  12.127  10.908
 3236W        W73117  16.652  12.124  11.430
 3237W        W73118  33.503  12.679  14.778
 3238W        W73119   0.954  15.174   1.365
 3239W        W73120  22.713  30.929  12.412
 3240W        W73121  34.927  10.869  14.972
 3241W        W73122   4.802  28.986   3.856
 3242W        W73123  15.104   0.789   2.803
 3243W        W73124   6.917  26.120  10.891
 3244W        W73125  41.972  25.696   2.407
 3245W        W73126   0.294   7.866  12.999
 3246W        W73127  11.336   5.408  12.363
 3247W        W73128  27.688  10.675   0.883
 3248W        W73129   0.885  10.370   4.665
 3249W        W73130   0.804   6.345   0.273
 3250W        W73131  15.273  20.735  14.895
 3251W        W73132   1.286  39.502   4.349
 3252W        W73133   5.320  28.007   3.832
 3253W        W73134  32.035  22.558  12.416
 3254W        W73135  40.800  12.343  14.027
 3255W        W73136  36.923  13.768  13.368
 3256W        W73137  39.028  24.509   2.194
 3257W        W73138   1.863  29.071  13.958
 3258W        W73139  25.013   4.392   2.725
 3259W        W73140  35.106   0.874  10.479
 3260W        W73141  33.928  43.463  11.579
 3261W        W73142   4.863  23.558   0.853
 3262W        W73143  25.525  40.971  11.496
 3263W        W73144   2.771  32.117  12.956
 3264W        W73145  31.972  42.822   1.406
 3265W        W73146  25.132  42.862  10.482
 3266W        W73147   0.463  20.176  10.958
 3267W        W73148  24.184   8.368   0.789
 3268W        W73149  32.953  38.056   1.743
 3269W        W73150  20.084  17.659   2.369
 3270W        W73151  38.876  19.616  13.796
 3271W        W73152  12.136  13.612   4.302
 3272W        W73153   7.841   0.868   3.181
 3273W        W73154  42.888   4.340  12.001
 3274W        W73155  39.906   8.853  14.897
 3275W        W73156  28.131  30.463   4.245
 3276W        W73157   2.351   6.860   0.939
 3277W        W73158  38.009  16.159   0.892
 3278W        W73159  31.921   9.746  13.345
 3279W        W73160   8.816  37.422   1.777
 3280W        W73161  12.836  11.778  14.773
 3281W        W73162   8.265  19.213  14.347
 3282W        W73163  28.050  14.123  14.839
 3283W        W73164  11.805   8.872  11.520
 3284W        W73165  29.534  43.996  11.500
 3285W        W73166  35.983  38.906  13.844
 3286W        W73167  35.954  10.240   1.920
 3287W        W73168   5.706  40.426   2.706
 3288W        W73169  31.028  39.462  13.986
 3289W        W73170   8.784  26.469  14.351
 3290W        W73171  27.156  35.876   0.807
 3291W        W73172  43.509  22.599   4.306
 3292W        W73173   2.849  15.731   4.689
 3293W        W73174  39.884  27.976  12.505
 3294W        W73175  33.530  26.040   1.383
 3295W        W73176  15.591   0.771  14.410
 3296W        W73177  34.936  31.915   1.755
 3297W        W73178   1.925  22.747  13.438
 3298W        W73179  12.317  23.092  11.565
 3299W        W73180  18.717  11.638   1.778
 3300W        W73181  18.754  38.494   1.829
 3301W        W73182  10.805   7.308  12.082
 3302W        W73183  24.031  29.167   1.813
 3303W        W73184  43.936   9.868  14.506
 3304W        W73185   4.799  16.133   1.888
 3305W        W73186  16.694  10.775  14.864
 3306W        W73187  23.549   2.790  13.440
 3307W        W73188  20.564   2.340  10.494
 3308W        W73189  42.911   3.320  14.891
 3309W        W73190  31.579  11.846   4.693
 3310W        W73191  17.144  33.057  11.917
 3311W        W73192   3.438  14.293   5.237
 3312W        W73193  40.472  15.257  11.546
 3313W        W73194  36.349  14.691  10.414
 3314W        W73195  10.331  10.685  12.868
 3315W        W73196  41.926  17.267  12.527
 3316W        W73197  14.643  16.110  11.019
 3317W        W73198  29.462  13.753  13.338
 3318W        W73199  39.950  34.029   0.293
 3319W        W73200  15.642  14.792  11.087
 3320W        W73201   9.376  21.141  14.408
 3321W        W73202  30.994   0.883   0.397
 3322W        W73203  39.486  20.056  12.915
 3323W        W73204  17.675  41.301  12.378
 3324W        W73205  29.431   7.285   3.828
 3325W        W73206  26.118  33.916   3.808
 3326W        W73207  35.604  19.051   0.936
 3327W        W73208  17.741  22.534   2.900
 3328W        W73209  30.458   3.931   3.803
 3329W        W73210  41.486  20.134   4.656
 3330W        W73211  24.158   8.298   0.458
 3331W        W73212  16.791   8.259   2.341
 3332W        W73213  26.640  37.560  14.828
 3333W        W73214  10.785  12.139  13.931
 3334W        W73215  30.468  40.456   4.734
 3335W        W73216  37.035   6.266  13.926
 3336W        W73217  39.493  20.623  13.897
 3337W        W73218   2.730  28.632  11.435
 3338W        W73219  35.994  44.331  11.862
 3339W        W73220  34.440  21.748   3.724
 3340W        W73221  26.564  16.574   1.815
 3341W        W73222  25.656  16.790  10.557
 3342W        W73223   6.274  27.496   4.744
 3343W        W73224  29.112  35.975   2.863
 3344W        W73225  43.833  29.017   4.808
 3345W        W73226  11.818  22.039  13.511
 3346W        W73227  18.600  26.699  14.360
 3347W        W73228  29.150  28.963  12.472
 3348W        W73229   7.724   8.250   2.298
 3349W        W73230  12.656  31.532  12.577
 3350W        W73231   7.801   5.431   4.642
 3351W        W73232  32.124  12.829   0.258
 3352W        W73233  31.582  14.712   3.381
 3353W        W73234   3.809   0.475   3.192
 3354W        W73235  19.187  20.162  12.396
 3355W        W73236  11.765  42.286   4.693
 3356W        W73237   7.211  37.559  11.083
 3357W        W73238  17.069  21.535  14.876
 3358W        W73239  42.503  21.674   2.862
 3359W        W73240   1.388   6.741   0.935
 3360W        W73241  24.197   0.404   2.225
 3361W        W73242  30.949  30.049   1.277
 3362W        W73243   0.841  24.056   2.833
 3363W        W73244   9.192  42.945  14.436
 3364W        W73245   8.771  37.461   3.179
 3365W        W73246  41.963  12.158  14.992
 3366W        W73247  23.722   8.746  11.856
 3367W        W73248   6.854  32.411  14.786
 3368W        W73249  44.345  27.544   4.815
 3369W        W73250  40.852   5.211   3.289
 3370W        W73251  14.256  26.968  10.544
 3371W        W73252  17.747  20.245   1.775
 3372W        W73253   0.327  39.022  12.082
 3373W        W73254   3.895   0.947  14.023
 3374W        W73255  35.362   7.786   0.309
 3375W        W73256  17.122  17.169   2.715
 3376W        W73257  41.509   6.256  12.495
 3377W        W73258   3.767   9.373  11.501
 3378W        W73259  17.799   7.714   3.387
 3379W        W73260  43.511   7.874   2.340
 3380W        W73261   9.201  13.318   0.749
 3381W        W73262   6.831  20.657   0.917
 3382W        W73263   8.219   3.385  13.912
 3383W        W73264  29.626  25.001   2.744
 3384W        W73265   4.440  35.060   1.824
 3385W        W73266   7.829   9.376  10.554
 3386W        W73267  11.241  42.788   3.213
 3387W        W73268  11.735   6.821   4.753
 3388W        W73269   5.318   5.796  12.059
 3389W        W73270  44.300  25.041  13.905
 3390W        W73271  19.767  18.216  12.927
 3391W        W73272  15.304  18.562   4.635
 3392W        W73273  39.893  29.080  11.448
 3393W        W73274  39.891  35.977  14.878
 3394W        W73275  24.548  26.583  11.060
 3395W        W73276  21.183   8.274  14.856
 3396W        W73277  31.913  31.139   4.185
 3397W        W73278  20.113  40.821   3.340
 3398W        W73279   2.939  33.043  11.936
 3399W        W73280  39.358  44.339   2.690
 3400W        W73281  23.692   7.190  14.467
 3401W        W73282  37.536  43.299  12.887
 3402W        W73283  37.847  15.776   1.289
 3403W        W73284  36.013  23.004  12.521
 3404W        W73285   2.406  28.935   3.150
 3405W        W73286  12.246  10.637   0.245
 3406W        W73287  29.546  28.058   0.945
 3407W        W73288   8.378   3.800  11.995
 3408W        W73289  24.096   7.391   3.708
 3409W        W73290  24.228  34.879   2.876
 3410W        W73291  39.962   3.321   3.684
 3411W        W73292  36.977  11.657   1.237
 3412W        W73293   2.915  21.640  11.094
 3413W        W73294  12.786   7.350   3.306
 3414W        W73295  44.447  37.013  14.990
 3415W        W73296  19.085  24.973   2.398
 3416W        W73297  35.583   1.475  11.978
 3417W        W73298  23.085  30.549   0.846
 3418W        W73299  22.118   9.780   3.859
 3419W        W73300  28.522  33.479  14.843
 3420W        W73301  29.986  24.231  14.496
 3421W        W73302   4.884  27.181   3.635
 3422W        W73303  19.592  12.855   2.889
 3423W        W73304  25.974  20.570   1.413
 3424W        W73305  30.583  26.661   4.264
 3425W        W73306  34.413  14.653   0.827
 3426W        W73307  14.261  21.238   2.292
 3427W        W73308   3.238   3.904  11.051
 3428W        W73309  40.480  15.799  10.496
 3429W        W73310  34.945  34.872   5.317
 3430W        W73311   3.786  35.102  11.945
 3431W        W73312   3.768  28.042  12.838
 3432W        W73313  18.163  15.712   0.308
 3433W        W73314  18.231  19.104  12.548
 3434W        W73315  38.049  42.349   4.680
 3435W        W73316  20.164  37.943   0.445
 3436W        W73317  14.172  44.439  14.958
 3437W        W73318  26.142  38.462   0.915
 3438W        W73319   6.326  33.877  12.443
 3439W        W73320  20.715  42.997  13.906
 3440W        W73321  29.441  38.916   4.209
 3441W        W73322  44.793  42.851  12.993
 3442W        W73323   4.245   7.902  10.922
 3443W        W73324  23.084  36.036  11.968
 3444W        W73325  34.458  32.108  13.333
 3445W        W73326   3.739  39.866  14.795
 3446W        W73327   2.339  34.041   1.229
 3447W        W73328  27.558  10.650   4.152
 3448W        W73329  24.077  29.472   5.285
 3449W        W73330  20.656   1.476   3.842
 3450W        W73331  15.225  21.089   1.407
 3451W        W73332  22.700  28.509  10.934
 3452W        W73333  40.909  18.051   4.728
 3453W        W73334  27.041   3.757  10.994
 3454W        W73335   4.409  18.187   3.648
 3455W        W73336  33.039   6.294  13.817
 3456W        W73337   5.868  31.133  12.017
 3457W        W73338   2.343   2.855  13.820
 3458W        W73339  30.146  14.127   0.282
 3459W        W73340  39.949  44.480  10.444
 3460W        W73341  39.855  40.389   1.370
 3461W        W73342  23.185  32.048   4.218
 3462W        W73343  37.837  19.099   2.249
 3463W        W73344   1.395  28.652  13.797
 3464W        W73345  10.314   7.264   9.997
 3465W        W73346  17.280  43.767  10.993
 3466W        W73347  25.500   7.780  14.330
 3467W        W73348  37.972   5.225   0.447
 3468W        W73349  13.730   2.734   3.678
 3469W        W73350   3.247  38.055   3.357
 3470W        W73351   1.771   6.762  10.560
 3471W        W73352  14.778  10.246   0.478
 3472W        W73353  36.378   9.666   4.624
 3473W        W73354   2.388  16.712   4.713
 3474W        W73355   9.369   2.858   0.841
 3475W        W73356  23.693  37.962   1.321
 3476W        W73357  34.914   3.335   2.867
 3477W        W73358  14.217  26.509   4.225
 3478W        W73359   9.301  43.483  13.834
 3479W        W73360  43.928  33.959   3.805
 3480W        W73361  38.544  32.918   2.190
 3481W        W73362  26.700   3.892   3.779
 3482W        W73363  44.913   0.810  14.929
 3483W        W73364   2.234  17.114  11.072
 3484W        W73365   6.304  38.398  14.363
 3485W        W73366  44.773  24.111  12.488
 3486W        W73367  11.858  43.939  14.326
 3487W        W73368  38.451   6.906   4.610
 3488W        W73369  37.400  24.582  11.961
 3489W        W73370  36.533  39.849   1.931
 3490W        W73371  10.158  43.368  10.938
 3491W        W73372  28.435  28.489   4.115
 3492W        W73373  43.943  44.762   4.649
 3493W        W73374   8.373   9.201  11.006
 3494W        W73375  33.940   9.671   4.678
 3495W        W73376  18.738  27.585  12.498
 3496W        W73377   9.332  21.242  12.041
 3497W        W73378  22.241  42.302  12.051
 3498W        W73379  18.739   8.677   1.268
 3499W        W73380  18.251  37.055  13.423
 3500W        W73381  14.339  29.987   2.764
 3501W        W73382  43.910  27.536   3.386
 3502W        W73383  13.768  11.334  11.095
 3503W        W73384  39.835   1.739   4.337
 3504W        W73385  24.545  31.108  14.378
 3505W        W73386   5.357  35.072   0.244
 3506W        W73387  44.493  41.037  14.480
 3507W        W73388  30.421  13.208   4.353
 3508W        W73389   1.787  40.809  13.050
 3509W        W73390  33.028   6.334  13.017
 3510W        W73391   0.362  35.037  13.488
 3511W        W73392   9.824  22.690   2.859
 3512W        W73393  18.222  34.378  13.007
 3513W        W73394  34.034  24.673  14.385
 3514W        W73395  12.179  35.077   0.387
 3515W        W73396  44.915  22.505   0.844
 3516W        W73397   3.876  42.939  14.835
 3517W        W73398  21.552  37.375  14.465
 3518W        W73399   0.896  21.739   1.740
 3519W        W73400   9.678  22.572   4.618
 3520W        W73401  14.244   3.879   4.805
 3521W        W73402  43.285   2.304  14.470
 3522W        W73403  43.484  27.629   2.713
 3523W        W73404  28.546  23.510   0.908
 3524W        W73405   2.900   7.186  11.045
 3525W        W73406   6.419   2.888  11.551
 3526W        W73407  10.676   7.803   0.916
 3527W        W73408  40.491  26.633  10.130
 3528W        W73409  11.818  30.597   0.452
 3529W        W73410  41.940  26.182   3.342
 3530W        W73411   4.857   8.226  13.033
 3531W        W73412   8.845  13.135  11.595
 3532W        W73413  25.075   7.758  12.373
 3533W        W73414  19.267  16.751   0.933
 3534W        W73415  34.538  24.533   3.187
 3535W        W73416  17.242   2.747   2.322
 3536W        W73417  38.030  21.170   4.767
 3537W        W73418   7.693  39.508   2.783
 3538W        W73419  14.798  33.422  11.056
 3539W        W73420  26.123   1.808  11.385
 3540W        W73421  10.700  12.676  11.121
 3541W        W73422   0.876  44.427   4.780
 3542W        W73423  28.560  23.050   0.857
 3543W        W73424  23.707  13.661   3.673
 3544W        W73425  20.128  40.367  14.961
 3545W        W73426  25.177  29.515   2.665
 3546W        W73427  30.472  21.547  12.020
 3547W        W73428  10.814  13.316   2.330
 3548W        W73429   6.350   4.247  14.476
 3549W        W73430   9.311   7.864   2.826
 3550W        W73431   9.345  32.438  11.372
 3551W        W73432  23.624   9.271  12.072
 3552W        W73433  26.637   2.912   2.682
 3553W        W73434  42.920  14.694  14.944
 3554W        W73435  12.355   8.872   0.270
 3555W        W73436  11.786  12.203  10.153
 3556W        W73437   8.707  29.649  12.013
 3557W        W73438  15.606  14.706   0.285
 3558W        W73439  22.165  36.955   0.945
 3559W        W73440  39.318  36.049   2.776
 3560W        W73441  30.141  44.838  12.999
 3561W        W73442  20.538  38.527   3.335
 3562W        W73443  37.847  19.756  12.351
 3563W        W73444  21.023   3.779   0.825
 3564W        W73445  44.438  40.053   0.307
 3565W        W73446  38.968  18.688   3.165
 3566W        W73447  18.610  11.184   1.376
 3567W        W73448  31.116   8.294   4.788
 3568W        W73449  30.981  19.064  14.851
 3569W        W73450  23.057  23.194   1.695
 3570W        W73451  31.547  44.836   0.871
 3571W        W73452  43.390  15.322  14.284
 3572W        W73453  29.433  21.189  12.526
 3573W        W73454  31.954  23.208  14.408
 3574W        W73455  33.511  32.005  11.515
 3575W        W73456  39.892  24.193   1.838
 3576W        W73457  13.300  23.019  13.043
 3577W        W73458  29.586  21.130   3.163
 3578W        W73459  22.124  28.522   4.162
 3579W        W73460  13.808  18.633   1.915
 3580W        W73461  20.697  18.634   0.372
 3581W        W73462  33.973   8.347  12.420
 3582W        W73463  44.398  23.563  13.373
 3583W        W73464   3.313  11.346  11.463
 3584W        W73465   6.338  15.175   1.880
 3585W        W73466  37.975  23.092   3.642
 3586W        W73467  11.242  26.548  10.519
 3587W        W73468  31.903  14.784   4.726
 3588W        W73469  26.606   1.805   3.208
 3589W        W73470  42.386  30.562   4.648
 3590W        W73471  32.635  14.136   0.783
 3591W        W73472  22.618  15.171  13.014
 3592W        W73473  22.058  28.120   1.427
 3593W        W73474  31.064  24.012   2.871
 3594W        W73475   2.843  43.286   3.214
 3595W        W73476  41.426  40.898   2.888
 3596W        W73477  16.089  41.340   2.393
 3597W        W73478  40.351  20.164  10.491
 3598W        W73479  10.748   3.405   4.336
 3599W        W73480  19.737  25.971   3.843
 3600W        W73481   6.336  13.831  14.020
 3601W        W73482  11.772  37.072   2.242
 3602W        W73483  39.977  23.018  14.352
 3603W        W73484  13.282   1.885   3.750
 3604W        W73485  16.101  26.485  12.051
 3605W        W73486  13.812  38.561   4.309
 3606W        W73487  24.491  21.562   4.161
 3607W        W73488  13.610  10.698   2.328
 3608W        W73489  44.920  21.710   2.356
 3609W        W73490  39.834   7.231  10.994
 3610W        W73491   6.284   0.764   1.428
 3611W        W73492  14.167  24.612   0.923
 3612W        W73493  40.833  35.423  11.123
 3613W        W73494  10.223  25.625   2.704
 3614W        W73495  38.418   5.760  10.429
 3615W        W73496  33.442  27.142   4.290
 3616W        W73497  18.625  33.083  11.014
 3617W        W73498  28.153  13.806  12.502
 3618W        W73499   9.168  14.648  11.084
 3619W        W73500  42.459  20.084  11.593
 3620W        W73501  31.089  44.458  12.502
 3621W        W73502  38.425  22.513   2.769
 3622W        W73503  11.710  35.457   1.241
 3623W        W73504  22.111  27.677   0.741
 3624W        W73505  12.344  18.196   5.748
 3625W        W73506  29.968  37.490  12.849
 3626W        W73507  14.222  16.783  10.564
 3627W        W73508   2.360  33.472  13.954
 3628W        W73509  27.102  40.384  14.911
 3629W        W73510  19.702  43.869  13.547
 3630W        W73511   0.948   2.374  14.490
 3631W        W73512  35.907  35.431  13.320
 3632W        W73513  10.182  29.987   3.803
 3633W        W73514  26.112  38.355  13.500
 3634W        W73515  38.849  11.839  13.811
 3635W        W73516  33.960  40.040   4.207
 3636W        W73517   5.388  15.686   1.904
 3637W        W73518  44.446   8.864  11.439
 3638W        W73519  29.136  44.319   1.382
 3639W        W73520  31.629  25.698  11.546
 3640W        W73521   3.341  14.622   0.448
 3641W        W73522   4.345  32.115  13.368
 3642W        W73523   7.233  38.971  10.611
 3643W        W73524  33.493  29.102  12.026
 3644W        W73525  31.527  11.795   0.261
 3645W        W73526  21.525  40.797  11.429
 3646W        W73527  14.645  15.581   1.707
 3647W        W73528  17.643  28.498  14.420
 3648W        W73529  29.532  33.441  11.569
 3649W        W73530   2.851  19.077   4.627
 3650W        W73531  20.548  28.527   1.318
 3651W        W73532  15.706  12.334  14.831
 3652W        W73533  29.933  29.570  12.950
 3653W        W73534  15.290   2.868   3.228
 3654W        W73535   7.334  14.795  10.423
 3655W        W73536  38.068   7.192   3.292
 3656W        W73537  34.958  25.646   4.181
 3657W        W73538  39.336  28.993  11.115
 3658W        W73539  30.996  13.176  14.855
 3659W        W73540  38.466  33.974   0.316
 3660W        W73541  15.734  25.624  13.915
 3661W        W73542  15.233  21.708  13.919
 3662W        W73543  18.295   9.330   3.732
 3663W        W73544  43.019  12.309   1.710
 3664W        W73545  15.329  15.753   1.877
 3665W        W73546  21.161  39.830   4.659
 3666W        W73547  15.737  36.077  13.338
 3667W        W73548   9.837   7.298   3.198
 3668W        W73549  30.929   4.259  14.311
 3669W        W73550  39.877  27.982  10.547
 3670W        W73551  27.075  39.916  14.339
 3671W        W73552   8.331   2.779  11.900
 3672W        W73553  14.121  24.643   2.308
 3673W        W73554   1.483  28.133  11.016
 3674W        W73555  33.418  29.019   3.293
 3675W        W73556  20.274  38.367   4.318
 3676W        W73557  10.328  39.457   2.408
 3677W        W73558  20.159  42.015  10.611
 3678W        W73559  40.881  36.973  10.469
 3679W        W73560  15.251  25.972  12.390
 3680W        W73561   3.912  43.891  12.829
 3681W        W73562  24.559  32.464  13.360
 3682W        W73563   7.241   1.838  12.085
 3683W        W73564  32.974  21.649   3.209
 3684W        W73565  25.490   8.777  12.577
 3685W        W73566  37.077  23.018  12.061
 3686W        W73567  23.018  23.227   3.217
 3687W        W73568  13.668  29.444  11.065
 3688W        W73569   2.277   3.377  12.401
 3689W        W73570   4.441   9.651   2.309
 3690W        W73571  14.127  19.538   3.800
 3691W        W73572  15.753  32.491  13.924
 3692W        W73573  30.031  14.590   0.765
 3693W        W73574   4.250  12.826   1.880
 3694W        W73575  20.680  38.835  12.521
 3695W        W73576  16.666   0.878   2.219
 3696W        W73577   9.889  27.469  12.543
 3697W        W73578  14.745  13.172  13.426
 3698W        W73579  11.351   2.735  11.959
 3699W        W73580  16.178  17.690   4.329
 3700W        W73581  20.166   6.683  12.484
 3701W        W73582   1.306  15.170  10.466
 3702W        W73583  41.321  41.889   1.257
 3703W        W73584  21.139  38.039  11.094
 3704W        W73585  29.982  18.544  12.459
 3705W        W73586  39.052  34.591  10.488
 3706W        W73587  24.681  44.455  11.560
 3707W        W73588   0.347  20.640  13.047
 3708W        W73589  22.189  28.673  14.877
 3709W        W73590  18.294  28.667   4.124
 3710W        W73591  24.005  19.609  10.436
 3711W        W73592  26.152  34.419  11.533
 3712W        W73593  24.589  28.522  14.875
 3713W        W73594  14.651  31.097   3.239
 3714W        W73595   7.185  34.117  14.464
 3715W        W73596  23.163  22.134  12.984
 3716W        W73597   8.870  26.513   2.213
 3717W        W73598  14.127  25.606  11.897
 3718W        W73599  13.235  10.273  13.005
 3719W        W73600  43.446  14.146   3.814
 3720W        W73601   9.248  18.171  14.935
 3721W        W73602  41.936   2.367   1.759
 3722W        W73603  43.490  33.581   2.782
 3723W        W73604  33.504  40.970  10.079
 3724W        W73605   1.362  27.986  13.899
 3725W        W73606  33.597  10.749   0.828
 3726W        W73607  21.206  14.179  14.371
 3727W        W73608  40.384   6.415  14.856
 3728W        W73609  35.035  10.319   3.147
 3729W        W73610  33.939  35.966  11.931
 3730W        W73611   5.432   9.337   1.250
 3731W        W73612  32.510  29.667   1.405
 3732W        W73613   9.847   7.860  10.590
 3733W        W73614  42.445  42.828   0.942
 3734W        W73615  40.960   2.249  12.503
 3735W        W73616  31.140  16.592   2.314
 3736W        W73617  12.732  31.495   1.435
 3737W        W73618  15.205  19.617  11.410
 3738W        W73619  25.561  14.182   4.796
 3739W        W73620  28.603  15.307   3.754
 3740W        W73621  36.984  29.988  10.639
 3741W        W73622   0.435  37.926   3.805
 3742W        W73623  36.973  26.474   0.454
 3743W        W73624  27.687   4.426   3.280
 3744W        W73625   7.840   4.807  12.447
 3745W        W73626  20.198  16.709   4.744
 3746W        W73627  27.995  31.061  14.899
 3747W        W73628   2.822   6.273  10.427
 3748W        W73629  25.489  18.559  14.320
 3749W        W73630   7.293  29.001   0.851
 3750W        W73631  13.160  10.638   1.214
 3751W        W73632   7.307  23.013  11.004
 3752W        W73633  43.492  38.882  12.470
 3753W        W73634  29.110  39.887   0.734
 3754W        W73635   8.805  40.895  13.046
 3755W        W73636  17.280  15.143   2.204
 3756W        W73637  27.080  10.212  13.398
 3757W        W73638  22.067  13.201   1.396
 3758W        W73639  33.429  19.268   2.285
 3759W        W73640  42.314   3.855  10.475
 3760W        W73641   9.715  19.100  13.359
 3761W        W73642  42.401   0.327   4.723
 3762W        W73643   7.234  41.528   0.478
 3763W        W73644  19.087   2.812  10.441
 3764W        W73645  13.238  27.942  10.901
 3765W        W73646  16.680   8.786   4.143
 3766W        W73647  11.747   6.298  10.595
 3767W        W73648  20.581  25.179   4.343
 3768W        W73649  26.691   6.721  10.459
 3769W        W73650  10.763   1.423   3.260
 3770W        W73651   7.721  11.176  11.559
 3771W        W73652  33.594  19.679  12.954
 3772W        W73653   8.337  15.160   1.874
 3773W        W73654   4.381  33.535  12.982
 3774W        W73655   9.749   7.834  11.446
 3775W        W73656   2.269  20.680  12.984
 3776W        W73657  35.462  38.899  11.964
 3777W        W73658  38.841   8.336   2.739
 3778W        W73659  11.356  22.147   1.899
 3779W        W73660  27.486  32.446  14.453
 3780W        W73661   8.702  19.271   0.801
 3781W        W73662  35.069  27.623  13.521
 3782W        W73663  15.150   9.769   4.275
 3783W        W73664  31.450   1.245  11.562
 3784W        W73665  36.420   3.440  11.585
 3785W        W73666  21.725   4.308  14.466
 3786W        W73667   8.306  25.075   0.944
 3787W        W73668  12.692  27.942   3.357
 3788W        W73669  38.940  22.618   0.818
 3789W        W73670  12.677  30.652   1.695
 3790W        W73671   6.906  35.921   0.836
 3791W        W73672   3.752  18.155  13.965
 3792W        W73673  15.676  31.974   3.664
 3793W        W73674  16.267  23.730   3.689
 3794W        W73675   6.360   4.286  11.122
 3795W        W73676  16.301  35.100   2.672
 3796W        W73677  36.436  24.112   4.817
 3797W        W73678  21.089   6.697  12.548
 3798W        W73679  30.480   0.443  11.115
 3799W        W73680   3.845  27.012  11.090
 3800W        W73681   6.227  41.475   1.794
 3801W        W73682  20.554  16.799  12.897
 3802W        W73683  34.941  30.011  10.563
 3803W        W73684  25.493  39.485  10.512
 3804W        W73685  25.114   1.458   4.800
 3805W        W73686  39.511   1.278  13.802
 3806W        W73687  40.540   9.743  14.384
 3807W        W73688  43.907  20.733  11.128
 3808W        W73689  19.589  37.520   1.860
 3809W        W73690  12.255  28.126   1.380
 3810W        W73691  11.736   0.836   1.714
 3811W        W73692  37.379  42.337   3.854
 3812W        W73693  36.498  23.730  13.013
 3813W        W73694   5.227  28.665  12.955
 3814W        W73695  41.385  12.742   0.960
 3815W        W73696   8.253  37.894   0.956
 3816W        W73697  17.638  28.086  13.525
 3817W        W73698   1.316  43.842   3.252
 3818W        W73699  23.634  33.051   3.262
 3819W        W73700  34.112  10.810  12.435
 3820W        W73701  24.128  24.537   1.448
 3821W        W73702  32.063  26.490  14.464
 3822W        W73703  36.492  39.928  12.998
 3823W        W73704  28.638   5.797  14.928
 3824W        W73705  41.530  17.190  13.419
 3825W        W73706  37.973   4.817   4.329
 3826W        W73707  37.952   1.874   4.278
 3827W        W73708  36.880  13.673   0.782
 3828W        W73709  29.616   5.368   0.247
 3829W        W73710  26.187  31.536   0.335
 3830W        W73711   1.750   8.321  14.917
 3831W        W73712  23.986  31.048  13.430
 3832W        W73713  14.748  38.914  11.571
 3833W        W73714  18.217  26.537   2.820
 3834W        W73715  10.264   7.411  10.467
 3835W        W73716  23.590  26.564   0.776
 3836W        W73717  32.108  32.629   0.729
 3837W        W73718  40.859  25.696  11.418
 3838W        W73719   3.878  41.305   3.177
 3839W        W73720  38.961  10.217   4.138
 3840W        W73721  22.152  15.098  10.909
 3841W        W73722  22.221  31.957   0.776
 3842W        W73723   0.878  15.207  14.338
 3843W        W73724   6.811  19.147  14.300
 3844W        W73725  35.106  10.155  14.479
 3845W        W73726  13.704  12.628  14.991
 3846W        W73727  31.433   3.218   2.375
 3847W        W73728  33.907  28.985   2.679
 3848W        W73729  25.693  11.721   2.272
 3849W        W73730  20.743  40.821   3.773
 3850W        W73731  28.455   9.664  14.353
 3851W        W73732   9.828  12.766   3.364
 3852W        W73733   6.921  38.067   2.757
 3853W        W73734   1.866   7.808  13.003
 3854W        W73735  21.717  21.550   4.719
 3855W        W73736  39.405  18.575  11.392
 3856W        W73737   3.345  15.104   4.680
 3857W        W73738  25.091   2.829  12.049
 3858W        W73739  44.812  28.986  12.894
 3859W        W73740  30.007  13.225  14.861
 3860W        W73741   1.330  12.322   0.942
 3861W        W73742   0.407  26.198  12.531
 3862W        W73743  23.110  32.460   2.340
 3863W        W73744  29.632   9.775   4.291
 3864W        W73745  31.509  28.117   0.834
 3865W        W73746  15.252  27.989   1.792
 3866W        W73747  23.510  11.189   0.440
 3867W        W73748  32.132  20.759   3.304
 3868W        W73749  14.318  21.157   1.318
 3869W        W73750  38.022  12.740  11.858
 3870W        W73751  16.569  18.114   3.343
 3871W        W73752  29.495   9.245   3.779
 3872W        W73753  13.659  31.410  12.052
 3873W        W73754  24.677   2.725   3.328
 3874W        W73755  44.303  17.276   3.826
 3875W        W73756  28.624  21.029  13.830
 3876W        W73757   3.756  34.044  14.390
 3877W        W73758  38.397  27.968  12.565
 3878W        W73759   3.253  28.676  14.852
 3879W        W73760  42.462  14.252  10.537
 3880W        W73761  30.941  17.696   1.828
 3881W        W73762   8.800  41.798   5.243
 3882W        W73763   6.764  25.077   4.179
 3883W        W73764  40.446  13.627   4.687
 3884W        W73765  24.087  31.552   3.842
 3885W        W73766  33.539  34.886  11.414
 3886W        W73767  11.708   4.908  14.384
 3887W        W73768  17.111  10.770  14.423
 3888W        W73769  31.006  20.091  14.854
 3889W        W73770  19.142  29.005   2.374
 3890W        W73771  29.964   2.888   1.402
 3891W        W73772  22.702  16.167   1.903
 3892W        W73773  25.612  40.864   0.901
 3893W        W73774  14.729  25.490   4.603
 3894W        W73775  22.613  31.578   2.378
 3895W        W73776   3.716  24.484   3.195
 3896W        W73777   6.370  17.105  14.905
 3897W        W73778  10.371   2.964  14.323
 3898W        W73779  20.708  35.933  12.078
 3899W        W73780  12.128   8.877   3.706
 3900W        W73781  28.663  38.923  14.283
 3901W        W73782   3.911  16.197   0.379
 3902W        W73783   0.489  10.352  12.077
 3903W        W73784  32.004  23.524   4.794
 3904W        W73785  41.011   4.700   4.785
 3905W        W73786  40.013  36.858  13.045
 3906W        W73787  11.670   8.208   0.375
 3907W        W73788  17.592  19.122  14.498
 3908W        W73789   3.891  21.051  13.996
 3909W        W73790  41.031   6.781   3.305
 3910W        W73791  42.998  27.575   2.758
 3911W        W73792   2.747  42.807   0.373
 3912W        W73793  34.003  40.050  14.344
 3913W        W73794  40.989   9.644   0.926
 3914W        W73795  20.522  21.208   4.754
 3915W        W73796  10.152  26.139  14.465
 3916W        W73797  14.144  10.238   0.763
 3917W        W73798   2.319  16.629  13.354
 3918W        W73799  21.203  30.064   4.228
 3919W        W73800  43.361  15.285   0.432
 3920W        W73801  10.636  19.714   1.839
 3921W        W73802   0.788  18.762  13.035
 3922W        W73803   9.648   2.966   4.291
 3923W        W73804  31.492  12.787   0.896
 3924W        W73805  30.027   1.802   2.333
 3925W        W73806   7.841  20.090   2.857
 3926W        W73807  19.257  28.000   4.610
 3927W        W73808  44.372  38.070  11.952
 3928W        W73809  38.471   5.868   1.248
 3929W        W73810  21.575  19.066  10.944
 3930W        W73811  34.573  24.195  12.009
 3931W        W73812  16.112   3.921  12.444
 3932W        W73813  21.729  30.504   4.298
 3933W        W73814   0.486  17.564  11.444
 3934W        W73815  17.252  18.213   2.387
 3935W        W73816  43.764  30.121   2.391
 3936W        W73817  17.254   1.320  12.055
 3937W        W73818  20.549  30.924  13.469
 3938W        W73819  42.298  27.479   3.732
 3939W        W73820   7.333   6.213  10.433
 3940W        W73821  29.043  31.433  13.869
 3941W        W73822  36.586  35.560   3.695
 3942W        W73823   7.383   8.815   3.851
 3943W        W73824  37.029  16.739   2.304
 3944W        W73825   6.723  13.784  13.395
 3945W        W73826  35.437   0.903  12.882
 3946W        W73827  26.142  33.464  10.939
 3947W        W73828  37.408   1.818  11.857
 3948W        W73829  21.043  11.759  11.119
 3949W        W73830  21.511  22.589  10.515
 3950W        W73831  10.719  35.403  10.953
 3951W        W73832   8.174  20.092   3.321
 3952W        W73833   4.370  22.566   4.263
 3953W        W73834  36.039  24.977  10.893
 3954W        W73835  37.848  28.988  10.482
 3955W        W73836   6.188  33.608  14.381
 3956W        W73837  37.424  38.543   4.708
 3957W        W73838  21.533  13.139  10.515
 3958W        W73839  19.778  22.601   4.190
 3959W        W73840  12.706  41.015  11.125
 3960W        W73841  19.210   5.910   1.409
 3961W        W73842  37.959  28.035   4.298
 3962W        W73843   3.756  33.442  10.622
 3963W        W73844  29.933  10.722   3.244
 3964W        W73845  16.645  10.290  13.809
 3965W        W73846  37.478  18.739   1.361
 3966W        W73847  33.967  33.469  11.027
 3967W        W73848  28.641  43.444  10.570
 3968W        W73849  43.315  37.992   1.729
 3969W        W73850  38.536  24.555  11.447
 3970W        W73851  22.522  21.123   4.151
 3971W        W73852  12.136  27.607   4.135
 3972W        W73853  11.774  40.820   4.646
 3973W        W73854  24.493  11.232  12.362
 3974W        W73855   5.871  17.108  14.841
 3975W        W73856   6.325   0.842   3.343
 3976W        W73857  14.796  39.352   0.399
 3977W        W73858  28.965  41.510   1.711
 3978W        W73859   6.690   5.355   0.942
 3979W        W73860   4.338  36.485  12.828
 3980W        W73861  21.108   4.710   3.218
 3981W        W73862  15.746  10.175   0.962
 3982W        W73863  35.036  12.234  13.823
 3983W        W73864  10.245   2.853  14.835
 3984W        W73865  41.919  21.735  13.539
 3985W        W73866  34.401  30.988  12.953
 3986W        W73867   6.886  13.173  14.022
 3987W        W73868   4.357   3.447  11.438
 3988W        W73869   1.252  41.808   3.236
 3989W        W73870  26.197  23.084  14.344
 3990W        W73871  13.813   7.779   0.343
 3991W        W73872  29.922  22.225   0.438
 3992W        W73873  23.030  18.697   0.336
 3993W        W73874  15.632  13.303   0.313
 3994W        W73875  22.049   5.853   4.648
 3995W        W73876  43.290  13.121  12.037
 3996W        W73877  23.064   5.318  13.458
 3997W        W73878   3.785   0.295   3.784
 3998W        W73879  25.606  25.181   1.871
 3999W        W73880   9.654  35.971   0.289
 4000W        W73881  24.214  43.000   4.604
 4001W        W73882  38.988   4.858   4.785
 4002W        W73883  43.999  30.965   2.728
 4003W        W73884  35.462  15.286   1.327
 4004W        W73885   7.682  40.546  14.808
 4005W        W73886  17.713  24.026  10.981
 4006W        W73887  42.830   7.259   3.687
 4007W        W73888  24.140  11.276  11.938
 4008W        W73889  33.433  31.131   0.771
 4009W        W73890   4.861   6.731  12.892
 4010W        W73891  18.578  29.485  14.016
 4011W        W73892  20.255  10.755  12.938
 4012W        W73893  38.329  36.490  10.603
 4013W        W73894  34.393  33.522  11.520
 4014W        W73895  20.134  33.492  11.095
 4015W        W73896   3.777   3.825  14.795
 4016W        W73897  38.054   3.342   3.637
 4017W        W73898  31.439  42.917  13.356
 4018W        W73899  15.661  44.781  10.044
 4019W        W73900   8.769  18.727   4.176
 4020W        W73901  21.540  38.505   0.371
 4021W        W73902   9.725   1.305   0.838
 4022W        W73903  38.882  10.147   2.666
 4023W        W73904   9.675  26.665   3.358
 4024W        W73905   8.301  30.907   1.770
 4025W        W73906  44.917  20.724  10.422
 4026W        W73907   8.781  22.215  11.391
 4027W        W73908  28.576  24.491  13.896
 4028W        W73909  29.151  37.429   4.624
 4029W        W73910  41.791  15.233   0.300
 4030W        W73911  43.000   2.934  12.487
 4031W        W73912  25.069  24.975  10.940
 4032W        W73913   9.688  23.560  11.122
 4033W        W73914   3.370  21.085  14.302
 4034W        W73915  19.627  33.475   3.830
 4035W        W73916  26.055   7.865  14.838
 4036W        W73917  20.540  28.667   1.814
 4037W        W73918  43.933  43.850  14.912
 4038W        W73919  41.975  23.058   0.863
 4039W        W73920   1.345  40.913   0.281
 4040W        W73921  37.395  15.593  12.895
 4041W        W73922   7.675   2.445   0.876
 4042W        W73923  12.209  18.720   4.334
 4043W        W73924  14.733  23.630   1.711
 4044W        W73925  34.013  35.370   0.967
 4045W        W73926  36.929  17.728  14.026
 4046W        W73927  33.504  32.019  11.978
 4047W        W73928   5.430  13.344  12.001
 4048W        W73929  39.425  30.045  14.350
 4049W        W73930  39.415  10.763  10.967
 4050W        W73931  34.942   8.803  10.144
 4051W        W73932   1.244   8.873   3.204
 4052W        W73933  39.046  22.542   3.808
 4053W        W73934  34.026  36.918  11.954
 4054W        W73935  15.808  17.623   3.210
 4055W        W73936  38.902  34.899   2.850
 4056W        W73937   3.331  38.904   3.787
 4057W        W73938  19.705  16.646  10.976
 4058W        W73939  17.750  32.015  13.923
 4059W        W73940   3.819  30.472   4.645
 4060W        W73941  10.789  26.151   1.238
 4061W        W73942  40.345  20.541  13.852
 4062W        W73943  40.919  14.717  10.506
 4063W        W73944   7.912  10.740   4.831
 4064W        W73945  30.518  41.998  13.861
 4065W        W73946  19.631   8.670  12.065
 4066W        W73947  26.082  30.547   0.841
 4067W        W73948   0.250   8.240   2.858
 4068W        W73949  32.516  18.077  11.922
 4069W        W73950  29.459  13.231   3.801
 4070W        W73951  22.715   3.261  11.890
 4071W        W73952  29.105  32.467   4.257
 4072W        W73953  10.653  18.758   4.338
 4073W        W73954   8.797  10.278  14.006
 4074W        W73955  20.241  31.153  11.027
 4075W        W73956  38.963   9.703  11.451
 4076W        W73957  19.648  36.441   2.848
 4077W        W73958  28.139   3.327   3.198
 4078W        W73959  22.187  23.539   3.156
 4079W        W73960  41.355   9.236   0.851
 4080W        W73961   9.210  33.582   2.707
 4081W        W73962  41.382  40.340  13.313
 4082W        W73963  11.350  15.275  11.487
 4083W        W73964  14.309  28.995  10.462
 4084W        W73965  31.075  29.445   2.415
 4085W        W73966  16.674  14.179   0.347
 4086W        W73967  17.280  36.390   4.275
 4087W        W73968  40.489  40.525  11.079
 4088W        W73969   7.371  19.184  10.996
 4089W        W73970  42.408  40.925   2.318
 4090W        W73971  44.808  35.985  11.044
 4091W        W73972  21.161  19.728  12.881
 4092W        W73973  25.589  10.319  12.984
 4093W        W73974  21.648  19.596  14.029
 4094W        W73975  21.619   5.409   0.791
 4095W        W73976  11.272   7.341   1.829
 4096W        W73977  31.030  13.128   3.314
 4097W        W73978   5.834  36.924  14.358
 4098W        W73979   7.203   7.900  12.060
 4099W        W73980  44.920  17.102   4.819
 4100W        W73981   9.688  39.434  10.530
 4101W        W73982  13.243   4.924   3.684
 4102W        W73983  15.743   3.816   3.226
 4103W        W73984  24.518   8.365  11.925
 4104W        W73985   6.887  12.770   2.308
 4105W        W73986   3.940  32.908   3.341
 4106W        W73987   1.275   3.301   4.641
 4107W        W73988  44.471  32.537  10.506
 4108W        W73989  23.652  35.392   3.758
 4109W        W73990  28.633  40.036   1.713
 4110W        W73991  12.789  41.462   4.624
 4111W        W73992  38.978  37.556  11.491
 4112W        W73993   8.197   0.796   2.179
 4113W        W73994  26.952   5.314  14.827
 4114W        W73995  23.728  34.534   0.802
 4115W        W73996  43.985   1.882   4.609
 4116W        W73997  36.849  35.948  14.296
 4117W        W73998  40.439  20.626  12.001
 4118W        W73999   6.711  42.352  12.862
 4119W        W74000  18.276  44.363  14.025
 4120W        W74001  29.111  11.249  12.908
 4121W        W74002  21.184  39.333   3.654
 4122W        W74003   3.777  42.880  11.579
 4123W        W74004  27.107  32.011   1.700
 4124W        W74005  18.574  20.109  12.347
 4125W        W74006   8.280   5.398   2.844
 4126W        W74007  40.505  25.962   4.113
 4127W        W74008  11.735  19.106  14.371
 4128W        W74009  25.194  35.875  12.859
 4129W        W74010  25.633  20.086  13.815
 4130W        W74011  12.741  38.523  12.918
 4131W        W74012  11.756  39.531  12.938
 4132W        W74013   4.701  26.691  14.944
 4133W        W74014  11.346   4.718   1.699
 4134W        W74015  28.487  31.547  10.906
 4135W        W74016  10.821  37.435  11.052
 4136W        W74017   8.870  38.506   0.820
 4137W        W74018  41.038   3.732   1.776
 4138W        W74019   0.273  14.653  10.412
 4139W        W74020  43.771  35.477  12.512
 4140W        W74021  40.926  40.828   4.838
 4141W        W74022  38.933  18.651   1.895
 4142W        W74023  37.832  40.041  13.405
 4143W        W74024  26.128  26.669  12.479
 4144W        W74025  17.728  14.159  11.577
 4145W        W74026  25.636  35.375   4.693
 4146W        W74027   6.428  27.517  13.349
 4147W        W74028  22.008  23.171   2.747
 4148W        W74029  23.045  39.322  12.830
 4149W        W74030   6.913  16.234   4.343
 4150W        W74031  14.784  30.493  14.289
 4151W        W74032  30.985  11.852   2.280
 4152W        W74033  42.390  29.523  12.448
 4153W        W74034  16.654  37.576  14.277
 4154W        W74035  43.398  19.047   4.267
 4155W        W74036   4.833   9.655   2.676
 4156W        W74037  29.166  19.609   0.792
 4157W        W74038   2.797  13.680   0.340
 4158W        W74039  30.571  24.012   2.192
 4159W        W74040  43.773  40.021   4.705
 4160W        W74041  19.247  37.480   0.460
 4161W        W74042  21.240   4.910   2.880
 4162W        W74043  39.466   0.820   3.289
 4163W        W74044   2.329  16.754  12.580
 4164W        W74045  41.913   3.247  10.604
 4165W        W74046   6.747  20.696  14.448
 4166W        W74047   2.325  26.518  12.398
 4167W        W74048   9.155   0.792  13.043
 4168W        W74049  22.726  26.619   2.352
 4169W        W74050  44.359   1.258   4.331
 4170W        W74051  14.632   3.948  10.964
 4171W        W74052  34.543  20.099   1.301
 4172W        W74053   6.308  35.439   1.250
 4173W        W74054  35.052  36.027   3.635
 4174W        W74055  40.034  11.325  11.544
 4175W        W74056  33.435  28.473  11.042
 4176W        W74057   4.756  30.067  12.565
 4177W        W74058  44.005  13.339   2.702
 4178W        W74059  36.359  19.095   1.273
 4179W        W74060  34.888   4.227  13.326
 4180W        W74061  13.609   9.707   3.807
 4181W        W74062  34.930  23.163   1.427
 4182W        W74063   1.297  40.505  11.605
 4183W        W74064  38.333  38.071  12.873
 4184W        W74065   2.803  32.079   0.781
 4185W        W74066   5.697  38.456   3.748
 4186W        W74067  13.176  17.088   3.789
 4187W        W74068  37.921   3.301   1.414
 4188W        W74069  10.856   9.720  13.026
 4189W        W74070  17.644   0.334   4.711
 4190W        W74071  20.634  30.559  14.900
 4191W        W74072  43.894  37.003   2.769
 4192W        W74073  32.513  12.345  12.532
 4193W        W74074  26.631   2.869  13.907
 4194W        W74075  41.797  38.038  11.568
 4195W        W74076   0.845  34.463  12.904
 4196W        W74077  42.424  14.807   2.898
 4197W        W74078  38.900  21.740   0.958
 4198W        W74079  11.856  29.643  12.459
 4199W        W74080  25.536  15.211   0.472
 4200W        W74081  27.601   8.363  13.049
 4201W        W74082   6.715   1.357  13.469
 4202W        W74083  37.894  44.894   3.381
 4203W        W74084  40.919  43.021  11.991
 4204W        W74085   8.756   9.315  11.395
 4205W        W74086  15.111   8.783   3.182
 4206W        W74087  12.716  23.984  13.369
 4207W        W74088  24.698   2.401   3.794
 4208W        W74089  20.232  19.616   3.220
 4209W        W74090  35.521  26.193  14.953
 4210W        W74091  43.448  12.814   2.822
 4211W        W74092   6.860  32.591  10.944
 4212W        W74093  18.690  37.455   2.383
 4213W        W74094  40.403  39.343   2.256
 4214W        W74095  16.794  17.778   0.317
 4215W        W74096  16.764  40.354   1.718
 4216W        W74097  19.278  41.303   1.932
 4217W        W74098  38.969  36.504  11.458
 4218W        W74099  40.334  16.302  11.595
 4219W        W74100  17.649  30.608   4.263
 4220W        W74101  10.331  42.024   1.360
 4221W        W74102  42.982  42.427   1.297
 4222W        W74103   2.882   1.804  10.560
 4223W        W74104  20.227   4.795  13.943
 4224W        W74105  14.753  20.073   1.851
 4225W        W74106  18.053  31.509  14.800
 4226W        W74107  27.999  13.701   2.235
 4227W        W74108  36.988  40.332  10.963
 4228W        W74109  43.782  43.850   1.882
 4229W        W74110  24.141  38.478  13.993
 4230W        W74111  31.948  40.466   1.745
 4231W        W74112  17.777  30.573   0.343
 4232W        W74113  42.457   5.422  14.422
 4233W        W74114   0.329  31.055  13.027
 4234W        W74115  15.312  22.528  12.042
 4235W        W74116  32.014  40.932   3.657
 4236W        W74117  23.180   5.899  12.512
 4237W        W74118  20.155   8.314  12.987
 4238W        W74119  11.302  44.882  13.424
 4239W        W74120  19.639  15.296  11.590
 4240W        W74121  31.599  37.398   0.842
 4241W        W74122  25.698  42.339   1.743
 4242W        W74123   9.156  18.093  11.609
 4243W        W74124  25.048  36.370  14.796
 4244W        W74125   7.730  44.909  13.402
 4245W        W74126  42.813   9.294   2.885
 4246W        W74127  24.628  27.482   1.921
 4247W        W74128  15.761   4.224  11.860
 4248W        W74129   9.802  44.884  13.890
 4249W        W74130   7.702   4.284   0.939
 4250W        W74131  40.338  14.683  11.119
 4251W        W74132  43.414  19.132  10.997
 4252W        W74133  30.509  14.670   1.374
 4253W        W74134  38.531  33.893   2.220
 4254W        W74135  15.189   2.263   4.767
 4255W        W74136  12.323  30.103   2.331
 4256W        W74137  44.382  42.500   2.901
 4257W        W74138  15.664  23.685   2.287
 4258W        W74139  15.155  39.349  12.388
 4259W        W74140  25.548   5.905  11.129
 4260W        W74141   7.397   8.725  12.872
 4261W        W74142  16.597  23.222   1.264
 4262W        W74143  29.648  41.909  10.950
 4263W        W74144  21.732  28.678  12.845
 4264W        W74145  27.613  35.456   2.310
 4265W        W74146  11.351  28.082   2.784
 4266W        W74147   2.917  32.891   1.412
 4267W        W74148  27.004  27.126  10.610
 4268W        W74149  29.987   9.843   1.697
 4269W        W74150  19.577  20.064  11.042
 4270W        W74151  42.420  33.399  11.885
 4271W        W74152  12.785  25.120   0.944
 4272W        W74153  44.321  40.498   0.370
 4273W        W74154  18.107   0.450  14.802
 4274W        W74155   6.250  22.047  13.064
 4275W        W74156  22.540   8.734   1.815
 4276W        W74157  13.220  41.983   1.224
 4277W        W74158  25.676  37.354  14.439
 4278W        W74159  32.074  43.283   2.244
 4279W        W74160  30.622  41.304   1.711
 4280W        W74161  35.093   2.387   0.801
 4281W        W74162  13.664   4.286  13.543
 4282W        W74163  34.889  38.952   3.301
 4283W        W74164  12.139  12.684  12.565
 4284W        W74165  41.350   2.335   0.365
 4285W        W74166  23.043  22.207   1.911
 4286W        W74167  34.545  26.569  14.485
 4287W        W74168  22.191  11.708  13.951
 4288W        W74169  32.051   8.377  13.537
 4289W        W74170  12.653   7.792   0.314
 4290W        W74171  19.596  18.556  14.450
 4291W        W74172  26.028  29.637  13.881
 4292W        W74173   5.715   9.160   2.723
 4293W        W74174  43.273  33.946  13.494
 4294W        W74175  30.595  32.454  10.972
 4295W        W74176  27.103  27.149   0.258
 4296W        W74177   8.257  21.707  14.892
 4297W        W74178  27.959  22.531   1.812
 4298W        W74179  33.467  12.731   3.793
 4299W        W74180   8.668  39.492  11.878
 4300W        W74181   8.189  22.746   0.418
 4301W        W74182  29.133  26.985   1.901
 4302W        W74183  43.301  32.913   2.251
 4303W        W74184   1.310  32.555   3.819
 4304W        W74185  43.010   7.761   2.781
 4305W        W74186  10.281  13.310  12.415
 4306W        W74187   5.729  35.502  12.390
 4307W        W74188   6.885  18.193   3.307
 4308W        W74189  17.206  31.979   4.646
 4309W        W74190  38.330  15.274  12.403
 4310W        W74191  27.982  38.916  10.029
 4311W        W74192   4.450  34.413   1.434
 4312W        W74193  44.487   3.791  12.956
 4313W        W74194  25.586  44.005   1.882
 4314W        W74195  36.046  18.273  14.923
 4315W        W74196   5.749  41.319   0.748
 4316W        W74197  10.757  21.021   1.745
 4317W        W74198  41.515   4.373  12.501
 4318W        W74199  43.891   9.291   4.152
 4319W        W74200  24.028   6.900   4.311
 4320W        W74201  12.785  30.054   0.388
 4321W        W74202   8.864  19.689  10.580
 4322W        W74203  36.374  40.426   1.713
 4323W        W74204  22.025  36.941  13.429
 4324W        W74205   4.368  14.098  12.034
 4325W        W74206  11.308  42.282  11.578
 4326W        W74207  36.996  25.154  14.338
 4327W        W74208   7.759  31.506  12.403
 4328W        W74209  14.821   6.283   4.127
 4329W        W74210  37.947  28.584   2.814
 4330W        W74211  15.619  42.417   1.916
 4331W        W74212   3.903  19.679  10.515
 4332W        W74213  25.591   7.250  12.416
 4333W        W74214  13.687  15.322   3.674
 4334W        W74215  19.274   3.835  13.018
 4335W        W74216  19.771   8.382   4.700
 4336W        W74217   5.693   8.845  12.981
 4337W        W74218   6.773  34.037   2.344
 4338W        W74219  26.143  25.005   4.816
 4339W        W74220   2.431  30.057   3.681
 4340W        W74221  29.635   9.822  12.891
 4341W        W74222  22.168  44.779  11.493
 4342W        W74223  23.061  33.450   0.342
 4343W        W74224  33.457   1.779  11.075
 4344W        W74225   8.354  23.735   3.273
 4345W        W74226   4.225  33.929   3.828
 4346W        W74227   9.351   3.331  13.340
 4347W        W74228  31.521  22.067   4.268
 4348W        W74229   5.934   5.419  13.376
 4349W        W74230  37.452  40.856   0.348
 4350W        W74231   3.810  18.153  11.947
 4351W        W74232  25.684  43.465  13.856
 4352W        W74233   0.476  33.578  12.033
 4353W        W74234  16.748   0.484   4.717
 4354W        W74235  13.780  41.804   1.372
 4355W        W74236  15.108  15.815   2.381
 4356W        W74237  26.583   4.845  14.811
 4357W        W74238  42.028  22.191  14.917
 4358W        W74239  29.653  36.855   3.321
 4359W        W74240   2.326   6.818   2.294
 4360W        W74241  28.511  36.945   1.442
 4361W        W74242  38.498   7.887   3.214
 4362W        W74243   4.415  35.059  14.451
 4363W        W74244  33.976  14.131   3.274
 4364W        W74245  13.665   7.813   3.858
 4365W        W74246  38.826  44.885  11.124
 4366W        W74247  36.876  15.259   1.285
 4367W        W74248  34.602  12.176   0.921
 4368W        W74249  26.631  14.801   2.837
 4369W        W74250  19.654  32.988  11.411
 4370W        W74251   3.889  21.133   2.708
 4371W        W74252  44.952   5.423   0.308
 4372W        W74253   9.296  30.642   2.723
 4373W        W74254  37.474  13.635   0.902
 4374W        W74255   1.441  39.887  13.362
 4375W        W74256  11.846  20.542  11.565
 4376W        W74257  12.152  16.632   0.856
 4377W        W74258  21.105   1.289  14.003
 4378W        W74259   1.773  37.424  13.962
 4379W        W74260   4.367  16.295  13.339
 4380W        W74261  10.800   4.263   4.789
 4381W        W74262   9.262  16.119  13.863
 4382W        W74263  17.162   9.189   0.735
 4383W        W74264  41.456  44.989   2.787
 4384W        W74265  18.709   0.976   0.897
 4385W        W74266   0.830  22.045  14.780
 4386W        W74267  16.102   0.820  12.907
 4387W        W74268  22.111  25.585  11.054
 4388W        W74269   4.874   6.404  13.376
 4389W        W74270  11.860  18.652  10.999
 4390W        W74271  24.479   6.794  12.386
 4391W        W74272  19.170   9.336  11.588
 4392W        W74273  17.230   6.366   5.198
 4393W        W74274   2.456  15.177   0.269
 4394W        W74275  18.135   2.925   2.344
 4395W        W74276   8.667  38.496   0.288
 4396W        W74277  39.438  15.675  13.799
 4397W        W74278  26.569  16.208   4.656
 4398W        W74279  10.720  12.775  14.940
 4399W        W74280   3.842  28.554  11.396
 4400W        W74281  27.018  35.510   1.696
 4401W        W74282   0.301  36.863  11.056
 4402W        W74283  37.348  35.441  11.552
 4403W        W74284   7.688  31.076  10.512
 4404W        W74285  13.224  41.297   4.316
 4405W        W74286   8.888   0.416   2.408
 4406W        W74287   7.269  11.685   3.656
 4407W        W74288  12.350  32.494  12.829
 4408W        W74289   4.765  30.976  11.010
 4409W        W74290  17.216  38.399  13.440
 4410W        W74291  28.118   4.336   3.173
 4411W        W74292  29.458   3.408   1.769
 4412W        W74293  21.104  33.117  14.774
 4413W        W74294  20.183  41.498   2.884
 4414W        W74295   5.740   2.895   4.660
 4415W        W74296  24.031  31.072  13.995
 4416W        W74297  19.568  36.898  14.846
 4417W        W74298  22.168  24.000   1.910
 4418W        W74299  10.834   3.830  10.918
 4419W        W74300  34.458  15.176  14.875
 4420W        W74301   7.191  32.559   4.639
 4421W        W74302  30.572  33.965  13.958
 4422W        W74303  30.029  39.504  11.123
 4423W        W74304  39.407  32.607   3.271
 4424W        W74305  42.979   8.740   1.727
 4425W        W74306  20.198  37.993  11.072
 4426W        W74307  15.750  43.890   4.705
 4427W        W74308  40.983  27.688  12.054
 4428W        W74309   8.757  33.445  14.873
 4429W        W74310  23.683  40.340  12.458
 4430W        W74311  14.325  35.413   2.356
 4431W        W74312  38.975   9.822   2.718
 4432W        W74313  16.692  19.275   4.726
 4433W        W74314  14.763  29.521   1.312
 4434W        W74315  16.126  24.168   3.717
 4435W        W74316  41.430  44.920   4.628
 4436W        W74317   4.900   2.758   4.166
 4437W        W74318  22.623  33.533  12.504
 4438W        W74319  26.551  34.981  12.546
 4439W        W74320   3.859  10.352  13.859
 4440W        W74321   4.237  28.176  11.452
 4441W        W74322  21.229  25.192   3.813
 4442W        W74323  12.742   2.961   4.256
 4443W        W74324  34.030   8.801   2.380
 4444W        W74325  25.694  14.657  13.826
 4445W        W74326   7.387  37.071   3.735
 4446W        W74327   6.198  27.974  10.405
 4447W        W74328  29.512  22.552   1.311
 4448W        W74329   6.229  30.104  11.995
 4449W        W74330  21.665  33.029   3.374
 4450W        W74331  39.004  20.610   3.318
 4451W        W74332   5.402  17.752   3.823
 4452W        W74333  34.055  33.068  11.025
 4453W        W74334  23.986  27.959  13.827
 4454W        W74335  24.200  37.412   5.310
 4455W        W74336  27.543  27.142  14.311
 4456W        W74337  37.455  23.720   3.372
 4457W        W74338  42.864  40.467  12.045
 4458W        W74339  33.494  17.756   3.818
 4459W        W74340  21.076  19.654  12.022
 4460W        W74341  22.643  17.156   0.831
 4461W        W74342  26.608  40.318   5.090
 4462W        W74343   2.894   6.832   4.350
 4463W        W74344  23.001   6.807   3.815
 4464W        W74345  16.752  44.434  14.949
 4465W        W74346  33.429  15.187   3.355
 4466W        W74347  15.783   8.283   4.655
 4467W        W74348   9.259  36.557  11.901
 4468W        W74349  14.128  35.531  13.988
 4469W        W74350  14.312  10.149  11.547
 4470W        W74351  30.929  28.657  11.949
 4471W        W74352  44.357  13.786   2.779
 4472W        W74353   8.792  33.940  12.524
 4473W        W74354  15.187  32.431   0.849
 4474W        W74355  34.913  44.849   3.660
 4475W        W74356  26.459  31.431  12.007
 4476W        W74357  31.976  23.728  10.439
 4477W        W74358  25.038  32.617  11.088
 4478W        W74359  25.522  16.125   4.728
 4479W        W74360  34.067  43.471   2.710
 4480W        W74361  40.409  39.378   1.770
 4481W        W74362  39.852  10.821  14.379
 4482W        W74363  11.662  12.327  12.529
 4483W        W74364   3.809  26.548  12.037
 4484W        W74365  26.175  21.131   4.295
 4485W        W74366  22.595  16.160  13.860
 4486W        W74367  17.608  12.170   1.830
 4487W        W74368  39.818  44.896  11.511
 4488W        W74369   7.410  42.439   2.207
 4489W        W74370  26.162  22.515  12.503
 4490W        W74371  30.990  41.362   9.957
 4491W        W74372  30.655  20.248  14.789
 4492W        W74373   4.793  27.495   2.237
 4493W        W74374  37.996  26.674   0.757
 4494W        W74375  23.716  38.864  13.029
 4495W        W74376   0.342  21.725   0.433
 4496W        W74377  32.468  29.068  10.456
 4497W        W74378  41.295  26.522  13.007
 4498W        W74379   2.462   0.844  12.542
 4499W        W74380  30.488  17.077  10.486
 4500W        W74381  36.413  39.984  12.400
 4501W        W74382  29.145  23.654  12.542
 4502W        W74383  34.083  36.504  11.043
 4503W        W74384  15.236  25.645   0.416
 4504W        W74385   0.832   1.911   4.776
 4505W        W74386  16.317  15.632  12.399
 4506W        W74387  35.559  42.024  11.442
 4507W        W74388   2.746  29.018   1.716
 4508W        W74389  40.366  14.284   4.668
 4509W        W74390   3.341  41.867   2.765
 4510W        W74391  39.036  37.961   2.243
 4511W        W74392   1.807   4.778  10.408
 4512W        W74393  25.194  10.210  11.576
 4513W        W74394  10.237  35.551  11.594
 4514W        W74395  21.198  21.699   2.844
 4515W        W74396  13.722  37.010  12.571
 4516W        W74397  22.600  35.070  13.376
 4517W        W74398  20.735  34.995   1.891
 4518W        W74399  34.373  35.853   4.798
 4519W        W74400  40.349  12.128   0.419
 4520W        W74401   1.387  19.257  13.970
 4521W        W74402   4.297  17.294   2.880
 4522W        W74403  12.723  35.891   3.750
 4523W        W74404  28.069  21.684  11.995
 4524W        W74405  38.913   3.737  11.881
 4525W        W74406  24.097  11.143   1.898
 4526W        W74407  30.605  37.979  13.508
 4527W        W74408  35.943  28.469  10.554
 4528W        W74409  12.781  23.217   0.476
 4529W        W74410  21.646  16.170  13.004
 4530W        W74411  40.386  17.675   4.647
 4531W        W74412  21.640   6.910  12.016
 4532W        W74413  24.096   8.669  12.483
 4533W        W74414  39.825  34.063  14.900
 4534W        W74415   6.246  19.142  14.901
 4535W        W74416   6.744  39.845  14.365
 4536W        W74417  10.161  10.150  11.440
 4537W        W74418  26.603  20.082   2.388
 4538W        W74419  38.368  19.557   4.346
 4539W        W74420   3.861  44.430   0.889
 4540W        W74421  26.672  44.772   5.139
 4541W        W74422  37.534  11.855   3.765
 4542W        W74423   4.756   9.746  10.962
 4543W        W74424  39.509  10.662   4.254
 4544W        W74425  33.091  20.112   1.877
 4545W        W74426   8.849   9.259  14.876
 4546W        W74427  30.009  44.362  13.418
 4547W        W74428  29.600  26.489   4.810
 4548W        W74429  40.006  29.071  10.577
 4549W        W74430   1.788  27.069  10.507
 4550W        W74431  27.661  23.588  13.803
 4551W        W74432  17.202  24.128  14.930
 4552W        W74433  35.461   2.780  13.513
 4553W        W74434   8.233  25.167  14.795
 4554W        W74435  25.650  43.407   3.305
 4555W        W74436  29.532   7.408   2.372
 4556W        W74437  18.113   8.178  14.803
 4557W        W74438  14.187   1.809  14.506
 4558W        W74439  22.531  39.002  14.943
 4559W        W74440   3.354  22.686   2.264
 4560W        W74441  44.424   3.908  10.546
 4561W        W74442   2.236  40.909  14.980
 4562W        W74443   4.294  15.228  13.542
 4563W        W74444   0.752  32.483   3.379
 4564W        W74445  37.851   8.256  11.957
 4565W        W74446  23.651  11.243   3.274
 4566W        W74447  37.940  13.307   3.823
 4567W        W74448  31.569  19.209  14.847
 4568W        W74449  22.683  11.805   1.878
 4569W        W74450  13.319  20.179  10.507
 4570W        W74451  39.412  41.399   0.437
 4571W        W74452  38.019  10.323  12.525
 4572W        W74453   7.204  17.121  12.900
 4573W        W74454   8.898   0.809  12.411
 4574W        W74455  17.584  32.069  13.522
 4575W        W74456  42.787  17.572   0.734
 4576W        W74457  29.102  36.554  13.519
 4577W        W74458  22.641  14.723  14.359
 4578W        W74459   4.254  42.016  13.985
 4579W        W74460  25.685   4.299   2.790
 4580W        W74461  34.432  17.571   0.370
 4581W        W74462  13.130  30.105  11.464
 4582W        W74463  21.675  39.545  12.046
 4583W        W74464  31.999   3.348   0.269
 4584W        W74465  38.405  28.931  14.819
 4585W        W74466  19.542  22.077   4.160
 4586W        W74467  22.739  35.385  11.942
 4587W        W74468  36.983  16.568   4.336
 4588W        W74469  29.452  42.987  10.448
 4589W        W74470  31.602  10.201  10.618
 4590W        W74471  44.482  40.022   4.281
 4591W        W74472  16.810  44.313   3.210
 4592W        W74473  38.458  21.038   2.224
 4593W        W74474   5.838  10.683  12.028
 4594W        W74475   9.242  14.811  14.409
 4595W        W74476   4.417  23.122  10.540
 4596W        W74477  39.013  11.280   4.814
 4597W        W74478  21.176  40.925  10.440
 4598W        W74479  15.318  36.918   3.272
 4599W        W74480  34.948  17.196   0.827
 4600W        W74481  15.213  20.174  13.049
 4601W        W74482  15.769  31.631  13.939
 4602W        W74483  41.406  30.976  13.533
 4603W        W74484  30.920  14.675  10.956
 4604W        W74485  18.759  11.768   4.694
 4605W        W74486  27.104  18.261  11.611
 4606W        W74487  29.466  38.503  12.561
 4607W        W74488  41.463   6.753  13.348
 4608W        W74489  20.092  30.624  12.986
 4609W        W74490  44.422  26.037   1.304
 4610W        W74491  42.298  14.611  13.448
 4611W        W74492  20.201  21.548  14.819
 4612W        W74493   7.708  12.166   2.240
 4613W        W74494   1.459   5.272  11.880
 4614W        W74495  32.905  40.504  11.896
 4615W        W74496  20.237   5.806  10.889
 4616W        W74497   7.810  24.024   1.322
 4617W        W74498   3.233   4.273  14.994
 4618W        W74499  43.376  31.515  11.128
 4619W        W74500  19.102  27.502   5.143
 4620W        W74501  41.324  24.651  13.357
 4621W        W74502  21.512  15.675   0.903
 4622W        W74503  15.614  27.122   3.275
 4623W        W74504  24.104   9.189   1.766
 4624W        W74505  19.622  14.270   0.802
 4625W        W74506  29.659  18.051  13.461
 4626W        W74507  39.544   6.276  11.583
 4627W        W74508  34.516  20.066  13.371
 4628W        W74509   8.224  15.677  10.604
 4629W        W74510  21.653  17.593  13.529
 4630W        W74511   8.330  31.588  14.894
 4631W        W74512  34.004  12.302   1.815
 4632W        W74513  31.024  43.786   4.154
 4633W        W74514  36.404   6.232  10.056
 4634W        W74515  34.012  41.789  14.457
 4635W        W74516  10.190  39.498  13.953
 4636W        W74517  11.656  40.381  11.871
 4637W        W74518  24.511  25.639  14.391
 4638W        W74519  32.520  31.969  13.341
 4639W        W74520  39.066  26.551   0.471
 4640W        W74521  22.180   2.292  10.556
 4641W        W74522  24.204  22.641  10.490
 4642W        W74523   3.433  30.917   1.319
 4643W        W74524  42.490  16.588  12.979
 4644W        W74525  43.342  28.629   2.310
 4645W        W74526  18.057  16.265   1.434
 4646W        W74527   0.351  24.714  14.374
 4647W        W74528   6.322  11.334  11.371
 4648W        W74529   3.788   2.879  14.907
 4649W        W74530  13.110   7.258   1.284
 4650W        W74531  40.935  31.583  10.590
 4651W        W74532  21.589  33.976   1.898
 4652W        W74533  40.814   8.358   0.424
 4653W        W74534   0.755  33.936   0.289
 4654W        W74535  27.039   0.385   3.189
 4655W        W74536   3.730  38.975   3.381
 4656W        W74537  15.787  42.368  12.567
 4657W        W74538  10.670   7.376   2.202
 4658W        W74539  13.747  40.799   0.790
 4659W        W74540  37.831  25.659   3.170
 4660W        W74541  21.233  29.099   2.217
 4661W        W74542  14.299  31.066  14.507
 4662W        W74543  39.968  21.621   3.821
 4663W        W74544  19.282  29.167  11.471
 4664W        W74545  19.641   5.839   0.280
 4665W        W74546  15.602   0.969   0.813
 4666W        W74547  24.508  17.080  10.570
 4667W        W74548   5.359  16.792   1.914
 4668W        W74549   1.752  15.128  10.941
 4669W        W74550  41.442  41.382   4.255
 4670W        W74551  25.100  12.241  13.956
 4671W        W74552  29.480  20.028   2.260
 4672W        W74553   3.807  15.591  12.022
 4673W        W74554   4.888  23.996   2.675
 4674W        W74555  27.520  39.473  11.885
 4675W        W74556  40.052  36.573  12.040
 4676W        W74557  21.056  24.497  14.909
 4677W        W74558  43.425  41.496   1.268
 4678W        W74559   8.831   4.219  14.765
 4679W        W74560  41.813  40.428   5.162
 4680W        W74561  21.147   2.863  13.833
 4681W        W74562  19.711  44.424   5.782
 4682W        W74563   0.447  28.559  11.441
 4683W        W74564  43.502   2.913  10.529
 4684W        W74565   7.404  33.580  14.287
 4685W        W74566  39.969   2.311   2.277
 4686W        W74567  24.198  26.091   2.828
 4687W        W74568  40.455  15.807  11.054
 4688W        W74569  17.724  25.973   0.353
 4689W        W74570   4.825  22.665  12.952
 4690W        W74571  27.566  22.160  14.310
 4691W        W74572  11.139  40.012   2.663
 4692W        W74573   0.437  31.582   4.713
 4693W        W74574   4.364  41.039   4.278
 4694W        W74575  43.371  23.610   3.161
 4695W        W74576  40.850  10.249   0.899
 4696W        W74577  39.403  19.063   1.273
 4697W        W74578  30.421   5.390   0.735
 4698W        W74579  43.330  28.548   1.415
 4699W        W74580  30.021  18.650   2.758
 4700W        W74581   8.202   5.915  14.816
 4701W        W74582  14.180   0.745  14.790
 4702W        W74583  35.982  27.584  11.496
 4703W        W74584  36.348  26.578   3.179
 4704W        W74585  19.140  23.625   3.277
 4705W        W74586   8.307  18.676   2.893
 4706W        W74587  41.897  14.218   2.873
 4707W        W74588  23.694  34.370  12.925
 4708W        W74589  21.628   9.353  14.451
 4709W        W74590   7.852  37.514  12.006
 4710W        W74591  20.147  37.577  12.963
 4711W        W74592  23.550   0.770   3.769
 4712W        W74593  36.901  38.045   0.431
 4713W        W74594   2.270  44.986  11.872
 4714W        W74595  23.211  42.872   0.806
 4715W        W74596  24.640  10.290   0.468
 4716W        W74597   1.845  10.834   1.344
 4717W        W74598  24.185  19.657   3.843
 4718W        W74599  20.073  16.119   4.207
 4719W        W74600   7.880  36.434   2.384
 4720W        W74601  22.247   7.310   2.667
 4721W        W74602  35.856  13.793  14.006
 4722W        W74603   6.809  14.158  13.335
 4723W        W74604  40.977  32.038   2.729
 4724W        W74605  20.712  37.517   3.379
 4725W        W74606  10.351  28.062  12.371
 4726W        W74607  32.994  42.417  11.878
 4727W        W74608  38.065  36.396   3.668
 4728W        W74609   2.866  23.051  13.381
 4729W        W74610  41.863  16.730   3.776
 4730W        W74611  10.355  31.627  12.502
 4731W        W74612   7.368  33.951   4.191
 4732W        W74613   3.239  18.606   4.757
 4733W        W74614   7.744  24.230   5.088
 4734W        W74615  33.073   0.750   0.301
 4735W        W74616  28.512  40.322   3.776
 4736W        W74617  10.736   3.762   2.710
 4737W        W74618  24.036  29.048   1.289
 4738W        W74619  17.131  15.586   3.345
 4739W        W74620   0.973   6.848  12.089
 4740W        W74621  26.481   7.254   4.749
 4741W        W74622  35.011   4.775   2.823
 4742W        W74623  34.949   4.216   2.676
 4743W        W74624  27.500   5.912  14.873
 4744W        W74625  34.086  29.945   0.435
 4745W        W74626  29.481  25.976  14.400
 4746W        W74627  34.466  33.979   2.313
 4747W        W74628  28.480  21.568  14.418
 4748W        W74629  44.974  30.146  13.345
 4749W        W74630  11.821  44.346   3.370
 4750W        W74631  30.036  21.730  10.633
 4751W        W74632   6.846   0.931  14.791
 4752W        W74633  31.489  25.698  13.408
 4753W        W74634  28.131  38.887   5.160
 4754W        W74635  37.043  40.816   3.795
 4755W        W74636  17.661  38.564   2.787
 4756W        W74637  21.724  28.955  12.883
 4757W        W74638  24.099   5.388  14.953
 4758W        W74639  34.998  42.905  13.878
 4759W        W74640  15.755  12.749  11.911
 4760W        W74641  38.501  13.285   1.877
 4761W        W74642   4.273  35.918   4.313
 4762W        W74643   0.936   2.379  13.985
 4763W        W74644  30.600   2.227   1.446
 4764W        W74645   0.455  16.279   2.755
 4765W        W74646   5.290  14.725  14.890
 4766W        W74647  17.610   7.714   2.396
 4767W        W74648  36.365  27.116   3.648
 4768W        W74649  40.311  10.206  10.159
 4769W        W74650  41.910  24.002   4.233
 4770W        W74651   4.210   9.219  14.328
 4771W        W74652  35.935  31.587  13.454
 4772W        W74653  41.882  42.822  10.930
 4773W        W74654  35.530  10.815  12.457
 4774W        W74655  22.168   5.289  14.839
 4775W        W74656  10.138  14.238   2.854
 4776W        W74657   7.847  37.033  12.384
 4777W        W74658  28.611   9.184  10.467
 4778W        W74659   7.763  41.823   4.124
 4779W        W74660   7.322  13.117  14.879
 4780W        W74661   8.855  26.550  13.546
 4781W        W74662  33.442  19.661   2.855
 4782W        W74663   8.395  24.087   2.892
 4783W        W74664  23.694   4.867   1.328
 4784W        W74665   7.335  14.300   3.189
 4785W        W74666   7.240  18.268  10.465
 4786W        W74667   8.247  10.335  13.016
 4787W        W74668   8.214   8.244   3.166
 4788W        W74669   2.279   6.389  13.313
 4789W        W74670  34.531  16.778   3.156
 4790W        W74671  43.451   1.786   5.292
 4791W        W74672  33.506   0.899   2.264
 4792W        W74673   1.936  16.721   4.773
 4793W        W74674  25.185  16.122   2.179
 4794W        W74675   7.735  39.496   3.852
 4795W        W74676  38.429  44.764   4.829
 4796W        W74677  33.889  44.840  13.902
 4797W        W74678  25.631  24.152  12.496
 4798W        W74679   0.901   5.831   9.970
 4799W        W74680   7.207  13.708  12.074
 4800W        W74681  41.859  30.436  11.061
 4801W        W74682  38.838  42.933  13.955
 4802W        W74683  30.496   2.773   4.160
 4803W        W74684  25.971  28.657  10.493
 4804W        W74685  22.661   1.922  13.491
 4805W        W74686   4.267  14.808   4.270
 4806W        W74687   7.217   2.934   4.289
 4807W        W74688   1.735  18.090   2.265
 4808W        W74689   5.922   0.931  11.483
 4809W        W74690  10.156  42.324  12.828
 4810W        W74691  17.690   8.855  12.078
 4811W        W74692  19.224  12.263   3.862
 4812W        W74693  36.887  26.525   2.284
 4813W        W74694  29.601   6.287  11.398
 4814W        W74695  23.233  35.016   2.322
 4815W        W74696   0.973  22.084   1.297
 4816W        W74697  29.157  28.176   3.834
 4817W        W74698   7.680  32.636  14.347
 4818W        W74699   3.824   3.331   0.963
 4819W        W74700  23.656  29.438   2.872
 4820W        W74701  11.723  18.178  10.090
 4821W        W74702  29.922  19.722   1.351
 4822W        W74703  39.998  43.941  12.492
 4823W        W74704  19.562  13.309   1.935
 4824W        W74705  38.012  32.463  13.985
 4825W        W74706  23.097  38.069   3.663
 4826W        W74707   0.743  12.757   2.718
 4827W        W74708  14.743  18.105  13.932
 4828W        W74709  40.970  10.773   4.826
 4829W        W74710  42.505   6.350  13.424
 4830W        W74711  28.636  36.571   4.281
 4831W        W74712  12.666  33.092   4.750
 4832W        W74713  26.956  19.122   1.889
 4833W        W74714  33.489  19.145   4.724
 4834W        W74715  14.732   7.346   1.837
 4835W        W74716  15.096   9.350  13.450
 4836W        W74717  27.637  22.536   1.874
 4837W        W74718   6.770  26.568  14.429
 4838W        W74719  28.445  10.192   2.810
 4839W        W74720  21.736   0.958  12.558
 4840W        W74721   7.280  37.397   0.906
 4841W        W74722  31.148  28.074  10.090
 4842W        W74723   4.872  34.864  10.415
 4843W        W74724  29.070  12.250  12.550
 4844W        W74725  25.552  10.650  10.617
 4845W        W74726  39.017  33.104   3.748
 4846W        W74727  38.878   7.413  11.416
 4847W        W74728   6.203  18.072   0.753
 4848W        W74729  44.389   7.709  14.991
 4849W        W74730  27.957  11.697  11.898
 4850W        W74731  33.381  11.854   3.817
 4851W        W74732  41.320   0.849   2.708
 4852W        W74733  14.645  19.746   0.440
 4853W        W74734  41.865  18.622  12.866
 4854W        W74735  26.003  10.175   4.826
 4855W        W74736  33.414   5.376   3.663
 4856W        W74737  24.123  23.029   0.815
 4857W        W74738   3.817  39.004  12.430
 4858W        W74739  19.605   7.372  10.501
 4859W        W74740  20.666  39.857  11.909
 4860W        W74741  14.115  40.009   3.386
 4861W        W74742   6.253   5.874  12.039
 4862W        W74743   3.235  18.078   2.398
 4863W        W74744  41.890  18.722   0.438
 4864W        W74745  32.551  32.933   3.824
 4865W        W74746   2.379  30.631   0.769
 4866W        W74747  28.454  37.994  14.361
 4867W        W74748  35.972   6.838  12.380
 4868W        W74749  12.690  21.553  10.936
 4869W        W74750  22.692  16.600   2.228
 4870W        W74751  17.650   2.833  11.906
 4871W        W74752  38.425   7.307  14.870
 4872W        W74753   5.398   9.347  12.492
 4873W        W74754  20.166  28.028  11.038
 4874W        W74755   8.354   9.833   2.665
 4875W        W74756   9.292  31.479   4.708
 4876W        W74757   2.879  15.777  12.366
 4877W        W74758   8.711  34.885   1.257
 4878W        W74759  23.158   5.230   2.367
 4879W        W74760   3.792   3.307   5.144
 4880W        W74761  33.928   9.694  12.380
 4881W        W74762   7.327  31.949  14.313
 4882W        W74763   9.694  16.566   4.624
 4883W        W74764  17.696  30.419   4.837
 4884W        W74765  37.572  20.051  10.476
 4885W        W74766  17.181  16.200  11.426
 4886W        W74767  12.146  21.651  10.631
 4887W        W74768   9.863  15.715   1.336
 4888W        W74769   1.335  13.170  14.820
 4889W        W74770  13.343  23.592   1.391
 4890W        W74771   9.246  43.479  12.823
 4891W        W74772  39.424  19.223  10.929
 4892W        W74773  33.874  26.202   1.449
 4893W        W74774  27.102  21.186   4.187
 4894W        W74775  31.469  15.714   0.384
 4895W        W74776  18.149  39.418  10.943
 4896W        W74777   4.296   8.167  14.346
 4897W        W74778  10.247  21.261   4.654
 4898W        W74779  35.974  30.117  13.414
 4899W        W74780  29.476   8.835  13.468
 4900W        W74781  13.780  17.586   0.455
 4901W        W74782  33.064   3.247  12.420
 4902W        W74783  36.859  27.048  12.398
 4903W        W74784  33.421  21.206   2.244
 4904W        W74785  32.412  16.787   1.751
 4905W        W74786  41.416   6.298   4.772
 4906W        W74787  29.622  42.503   0.397
 4907W        W74788  32.614  26.965   1.784
 4908W        W74789  34.103   1.857  13.809
 4909W        W74790  24.138  36.469  12.451
 4910W        W74791   6.208  16.161  12.052
 4911W        W74792  31.581   4.242  12.093
 4912W        W74793   7.908  15.673   1.338
 4913W        W74794   2.755  35.403   0.308
 4914W        W74795  36.858  42.848  10.893
 4915W        W74796  29.042  36.424   3.665
 4916W        W74797  17.133   1.288  13.435
 4917W        W74798   8.181   1.818  13.482
 4918W        W74799  36.044  21.144   4.722
 4919W        W74800  29.088  30.511  12.985
 4920W        W74801  20.692  18.188  13.520
 4921W        W74802  22.586  20.741   1.889
 4922W        W74803  31.566  33.626  14.354
 4923W        W74804  42.931  32.111  11.543
 4924W        W74805   6.375  28.530  10.437
 4925W        W74806  19.094  33.442   0.389
 4926W        W74807   7.310   4.214   4.764
 4927W        W74808  21.614  28.653   2.313
 4928W        W74809  35.930  32.131   2.276
 4929W        W74810  10.720  18.733  12.044
 4930W        W74811  43.940  19.152   3.374
 4931W        W74812  30.956  38.056   3.343
 4932W        W74813  42.982  20.263  12.889
 4933W        W74814  33.014   0.451  14.963
 4934W        W74815  41.806  14.783   3.293
 4935W        W74816  42.907   8.191  11.528
 4936W        W74817  37.939  37.846   3.368
 4937W        W74818   0.793   6.724  14.304
 4938W        W74819  32.438  44.930   3.808
 4939W        W74820  17.634  15.215   3.178
 4940W        W74821  31.984  26.514   3.735
 4941W        W74822  35.576  21.546  13.984
 4942W        W74823  10.285  43.385  12.435
 4943W        W74824  20.187  17.559  10.977
 4944W        W74825  28.185   7.334   1.409
 4945W        W74826   7.852  33.022  12.375
 4946W        W74827   5.744   5.338  13.947
 4947W        W74828  13.188  33.894   3.326
 4948W        W74829  27.654  12.183  13.449
 4949W        W74830  44.009  13.259   1.427
 4950W        W74831  37.963  44.920   1.746
 4951W        W74832   4.811  20.111  12.031
 4952W        W74833   9.179   7.848  14.825
 4953W        W74834   8.677  26.469   3.188
 4954W        W74835  30.466  19.086  11.467
 4955W        W74836  39.541   7.700   2.419
 4956W        W74837   1.740  15.085  14.841
 4957W        W74838  19.190   6.897   3.336
 4958W        W74839  19.236  37.408   1.701
 4959W        W74840  14.333  20.736  13.965
 4960W        W74841   1.448  23.678  14.870
 4961W        W74842  39.360  25.616  12.913
 4962W        W74843  18.185   0.443   1.744
 4963W        W74844  22.173  43.848   3.217
 4964W        W74845   2.412  24.555   0.377
 4965W        W74846   2.468  33.621   0.855
 4966W        W74847  27.523  43.884  13.054
 4967W        W74848   8.176   6.738   2.688
 4968W        W74849  15.303  39.529  10.623
 4969W        W74850  28.577  32.538   3.186
 4970W        W74851  41.802  43.357   3.379
 4971W        W74852  10.260  14.593   4.779
 4972W        W74853  33.608  16.751  12.046
 4973W        W74854  32.612  42.513  13.944
 4974W        W74855  44.771   6.185  11.469
 4975W        W74856  11.142  44.427  13.499
 4976W        W74857   0.386   8.866   2.395
 4977W        W74858  29.578   6.424  14.481
 4978W        W74859   2.423   9.259   4.252
 4979W        W74860  31.600  12.661   3.776
 4980W        W74861  33.412  11.766  13.455
 4981W        W74862  19.268  30.534   0.311
 4982W        W74863  41.403  40.420   1.365
 4983W        W74864  31.998  20.210  12.362
 4984W        W74865  40.409   1.850  10.967
 4985W        W74866  44.800  19.165  14.275
 4986W        W74867  32.102  11.221   1.336
 4987W        W74868  34.411  32.459   4.175
 4988W        W74869  42.919  44.915  10.960
 4989W        W74870   3.716  12.772   0.336
 4990W        W74871  44.388  36.392  14.358
 4991W        W74872   2.425  30.560  13.462
 4992W        W74873  29.962  27.198   2.739
 4993W        W74874   3.352   8.887   3.710
 4994W        W74875  18.285  21.245  10.890
 4995W        W74876  40.512   9.760   4.661
 4996W        W74877  29.135   4.391  14.021
 4997W        W74878  25.480  39.897  14.961
 4998W        W74879  30.991  18.059   3.818
 4999W        W74880  25.603  34.890  13.947
 5000W        W74881  34.944  23.044  11.974
 5001W        W74882  38.973  19.610  11.044
 5002W        W74883  36.530   6.685  11.377
 5003W        W74884  28.436  40.427   4.618
 5004W        W74885  33.977  23.537   1.327
 5005W        W74886  14.157  40.996   1.230
 5006W        W74887  36.564  30.125   1.919
 5007W        W74888  29.085  23.627   0.416
 5008W        W74889  40.910   0.746   0.743
 5009W        W74890  37.562  43.476  10.928
 5010W        W74891  10.731   2.801   0.269
 5011W        W74892  28.181  37.581  11.877
 5012W        W74893  12.165   4.883  12.082
 5013W        W74894  29.937  42.932   2.800
 5014W        W74895  16.225  23.518   0.307
 5015W        W74896  12.172  12.324   4.611
 5016W        W74897  38.378  26.583   2.810
 5017W        W74898   4.701   0.791   0.791
 5018W        W74899  34.533   5.766   0.922
 5019W        W74900  32.095  31.465   0.857
 5020W        W74901  33.537   1.443  10.932
 5021W        W74902  36.081  20.207   4.172
 5022W        W74903   6.312   6.183  11.082
 5023W        W74904  37.879  35.958  10.579
 5024W        W74905   6.392  20.733   0.367
 5025W        W74906  29.607  20.571   0.866
 5026W        W74907  25.979  42.307  12.006
 5027W        W74908   0.409  34.399  11.415
 5028W        W74909   0.460  16.273   2.347
 5029W        W74910   2.462  12.246  11.881
 5030W        W74911  22.575  38.421  13.935
 5031W        W74912  29.657  31.100  14.818
 5032W        W74913  31.118  30.962   2.227
 5033W        W74914   2.402   8.363   0.857
 5034W        W74915  34.977  16.318   2.816
 5035W        W74916  19.580  21.055   4.610
 5036W        W74917  44.756   5.273  14.910
 5037W        W74918   4.831  28.654   0.922
 5038W        W74919  12.738  22.583  14.852
 5039W        W74920  21.744  32.941  13.450
 5040W        W74921  18.627  44.875  11.522
 5041W        W74922  43.828  44.398  10.952
 5042W        W74923   6.844  33.473  14.998
 5043W        W74924  20.752  31.441  13.963
 5044W        W74925  30.088  10.193   0.464
 5045W        W74926  44.361   8.717  12.936
 5046W        W74927   9.664   7.691   1.247
 5047W        W74928  10.645  35.881  10.472
 5048W        W74929   1.863  44.852   4.204
 5049W        W74930  21.523  10.165  14.375
 5050W        W74931  19.163  18.217   3.810
 5051W        W74932  11.662  35.963   1.271
 5052W        W74933  23.526  11.224  11.523
 5053W        W74934  31.021   7.400   5.110
 5054W        W74935   4.432  30.088   2.251
 5055W        W74936  11.668  35.396  12.009
 5056W        W74937  42.937  18.766  13.035
 5057W        W74938  40.494  21.104  13.025
 5058W        W74939  26.583  10.823   1.743
 5059W        W74940  18.102  37.894  13.921
 5060W        W74941  39.476  11.269  14.503
 5061W        W74942  16.109  21.176   0.446
 5062W        W74943  37.402   5.359  14.815
 5063W        W74944  24.157   4.450   4.274
 5064W        W74945  26.548  41.518   0.388
 5065W        W74946  18.632   7.751   4.169
 5066W        W74947  19.134  24.157  12.915
 5067W        W74948  12.708  41.478  11.562
 5068W        W74949  25.073  14.286   4.349
 5069W        W74950  22.051  26.084  13.868
 5070W        W74951  12.647  20.035  11.454
 5071W        W74952  43.414   3.873  11.421
 5072W        W74953  28.036   2.251   1.349
 5073W        W74954  28.460  26.675   4.257
 5074W        W74955   4.218  35.571  13.986
 5075W        W74956  25.964  28.494   2.670
 5076W        W74957  41.952  25.081  10.093
 5077W        W74958   5.818  37.896   3.297
 5078W        W74959  38.878  10.807  12.435
 5079W        W74960  20.240  39.854   3.750
 5080W        W74961  44.454  29.965  10.570
 5081W        W74962  43.346  10.210   4.293
 5082W        W74963  20.215  24.072   3.332
 5083W        W74964   4.698   9.735  13.816
 5084W        W74965  31.939  15.737  12.418
 5085W        W74966  32.525   5.710   3.629
 5086W        W74967  37.413  31.922  11.881
 5087W        W74968  43.486  34.092  11.487
 5088W        W74969  28.009  38.377   3.837
 5089W        W74970   1.907  19.681   3.797
 5090W        W74971  20.662  32.565  14.770
 5091W        W74972  31.477  42.887  11.012
 5092W        W74973  23.673  44.426  12.559
 5093W        W74974   8.796   9.845   0.245
 5094W        W74975  34.073  35.368  11.464
 5095W        W74976  32.927  44.002  11.527
 5096W        W74977  11.730   3.732   4.222
 5097W        W74978  14.271  35.030  12.501
 5098W        W74979  36.955  30.157  12.439
 5099W        W74980  18.650  12.352  11.396
 5100W        W74981  10.148  38.414  11.076
 5101W        W74982  41.910  37.461   0.304
 5102W        W74983  23.162  16.261  13.331
 5103W        W74984  18.214  17.629   0.438
 5104W        W74985   5.429  44.402   0.425
 5105W        W74986  44.920  35.468   3.184
 5106W        W74987  22.161   0.455  14.914
 5107W        W74988  33.453  42.434  10.484
 5108W        W74989  37.886   0.489   2.782
 5109W        W74990  13.197  19.230   2.696
 5110W        W74991   9.834  16.694  10.616
 5111W        W74992  30.137  35.068   2.287
 5112W        W74993  13.161  26.617  11.548
 5113W        W74994  38.974  26.553   4.161
 5114W        W74995  37.916  12.802   0.435
 5115W        W74996  35.501  42.287   2.723
 5116W        W74997  12.226  12.848   2.300
 5117W        W74998  40.484  15.601  11.563
 5118W        W74999  27.097  13.689   4.604
 5119W        W75000   6.227  26.981   2.719
 5120W        W75001   0.476  25.152  11.467
 5121W        W75002  19.686  39.883  12.530
 5122W        W75003  33.571  44.482   1.836
 5123W        W75004  17.719  14.768   4.270
 5124W        W75005  11.754  34.993  14.963
 5125W        W75006  24.598  38.840   4.225
 5126W        W75007  28.123  38.416  13.865
 5127W        W75008  22.165   3.758   3.725
 5128W        W75009  13.300   2.898   3.342
 5129W        W75010  24.480  23.169  10.932
 5130W        W75011  21.171  13.634  13.878
 5131W        W75012  22.189  44.394  10.938
 5132W        W75013   3.838   8.173   2.879
 5133W        W75014   2.855   8.254  14.445
 5134W        W75015  30.912  14.813   3.768
 5135W        W75016  27.649  39.956  13.332
 5136W        W75017   2.774  44.939  10.555
 5137W        W75018  18.644  32.016  14.914
 5138W        W75019  35.420   3.395  10.470
 5139W        W75020  10.710  38.378   1.869
 5140W        W75021  29.582  10.168  14.436
 5141W        W75022  42.468  37.392  11.895
 5142W        W75023  17.691  38.035   3.349
 5143W        W75024  25.482  12.811  10.014
 5144W        W75025  34.889   8.272  12.483
 5145W        W75026  33.038  16.736  11.393
 5146W        W75027   0.861  40.462  11.372
 5147W        W75028  37.837  14.238   1.698
 5148W        W75029  26.042  16.072  13.937
 5149W        W75030   5.327  43.009  12.929
 5150W        W75031  11.748  39.892  14.291
 5151W        W75032  15.626  29.978   3.194
 5152W        W75033   3.239  13.297  12.852
 5153W        W75034   3.391  15.237   0.305
 5154W        W75035   5.325   8.349  13.915
 5155W        W75036  44.284   9.276   1.359
 5156W        W75037  17.261  33.523   1.928
 5157W        W75038  14.228  42.969   5.112
 5158W        W75039  26.701   6.866  11.881
 5159W        W75040  32.496   8.859   3.229
 5160W        W75041   4.390   5.364  14.406
 5161W        W75042  38.332  14.815  10.633
 5162W        W75043  28.618  26.558  13.438
 5163W        W75044   6.287  20.200   4.197
 5164W        W75045  13.641   8.887   1.326
 5165W        W75046  14.804  17.080   0.434
 5166W        W75047  41.941  20.245  12.058
 5167W        W75048  14.589  24.043   2.812
 5168W        W75049   1.336  39.505   0.332
 5169W        W75050  27.618  35.101  10.602
 5170W        W75051  27.169  14.176  13.054
 5171W        W75052  29.609  13.731  13.002
 5172W        W75053  11.781   1.868  13.533
 5173W        W75054   9.770  22.086   0.305
 5174W        W75055  42.442  39.364  12.864
 5175W        W75056  41.940   1.880   1.371
 5176W        W75057   7.742  35.391  14.007
 5177W        W75058  12.671  41.924  14.434
 5178W        W75059  35.376  20.756   4.205
 5179W        W75060  18.771  44.875   4.173
 5180W        W75061  10.658  40.957   1.401
 5181W        W75062  25.583  43.373  13.362
 5182W        W75063  16.090  20.103  12.421
 5183W        W75064  14.608  39.019   4.683
 5184W        W75065  28.990  14.271   3.702
 5185W        W75066  39.532  10.228  11.911
 5186W        W75067  32.103  23.566  10.077
 5187W        W75068   0.904  39.983  12.419
 5188W        W75069  26.461  19.237  14.407
 5189W        W75070   4.771  25.503   2.668
 5190W        W75071  25.493  40.542   1.324
 5191W        W75072  31.628   7.691   1.877
 5192W        W75073  41.027   0.837  11.486
 5193W        W75074  12.698  37.028  11.046
 5194W        W75075  25.575  19.189   4.153
 5195W        W75076  30.922   1.882   4.735
 5196W        W75077  21.676  30.642   1.315
 5197W        W75078  44.962  13.666  11.965
 5198W        W75079  29.946  25.204   1.845
 5199W        W75080  36.878  33.034   3.247
 5200W        W75081  26.047  26.515   4.251
 5201W        W75082  33.041  25.615  12.961
 5202W        W75083  13.827  19.058  10.415
 5203W        W75084   4.329  33.981  11.019
 5204W        W75085  32.409  34.612  11.996
 5205W        W75086  37.453  30.608   3.750
 5206W        W75087  42.421  28.939  14.288
 5207W        W75088  29.629  10.369   0.460
 5208W        W75089  29.981  28.652   1.894
 5209W        W75090  14.275  22.701  11.431
 5210W        W75091  34.872  27.007   3.336
 5211W        W75092   7.171  33.554  11.422
 5212W        W75093  36.012   3.412   4.755
 5213W        W75094  31.608  42.398  12.866
 5214W        W75095  21.666  34.498   4.169
 5215W        W75096  12.286   5.197   2.304
 5216W        W75097  10.219   9.324   1.867
 5217W        W75098  21.261  43.805  11.558
 5218W        W75099  36.854  40.965   0.940
 5219W        W75100  22.130  16.213   0.740
 5220W        W75101   6.402  27.041   4.671
 5221W        W75102  37.003  25.474   2.179
 5222W        W75103  17.672  18.554  14.318
 5223W        W75104  29.064  26.179  11.041
 5224W        W75105  35.008  20.658   2.862
 5225W        W75106  28.044  26.146   9.954
 5226W        W75107  39.976  34.511  12.362
 5227W        W75108   2.435  36.406  13.832
 5228W        W75109  26.580  42.987  12.470
 5229W        W75110  22.683  37.085  14.026
 5230W        W75111  27.590   9.248  14.512
 5231W        W75112  13.737  36.512   1.802
 5232W        W75113  18.156  27.573   1.260
 5233W        W75114   0.950   7.304  10.020
 5234W        W75115  12.225   1.784  13.805
 5235W        W75116  35.508  41.989   3.724
 5236W        W75117  29.129  18.668  12.495
 5237W        W75118  23.233  15.153  11.995
 5238W        W75119  37.450   8.782   4.753
 5239W        W75120   6.893  15.776  14.832
 5240W        W75121   9.876  14.707   4.818
 5241W        W75122  20.204  37.476  12.433
 5242W        W75123   5.282  31.153   3.832
 5243W        W75124  19.571  14.333   2.683
 5244W        W75125  39.376  38.356  10.462
 5245W        W75126  28.587  44.419  11.593
 5246W        W75127  24.180  30.080  11.450
 5247W        W75128  23.588  14.684  10.405
 5248W        W75129  25.596  25.583  12.859
 5249W        W75130  15.723   2.926  14.428
 5250W        W75131  42.927  15.220   3.835
 5251W        W75132  33.535  40.400  13.409
 5252W        W75133  19.712  23.013   4.767
 5253W        W75134  12.342  10.695  14.814
 5254W        W75135  20.162  43.837   1.283
 5255W        W75136  33.514  11.345  10.094
 5256W        W75137  33.971  14.206  10.918
 5257W        W75138  26.668  26.129  14.957
 5258W        W75139  12.282  28.502   4.818
 5259W        W75140  35.078  44.892   1.446
 5260W        W75141   5.910  23.105  11.055
 5261W        W75142  38.519  24.032   0.821
 5262W        W75143  16.203  39.843  10.422
 5263W        W75144  28.012  16.287   2.860
 5264W        W75145   8.317   0.447   4.676
 5265W        W75146  14.330  40.950   2.719
 5266W        W75147   8.220  21.623   2.761
 5267W        W75148  22.731  17.272  11.968
 5268W        W75149  37.427  30.061  13.319
 5269W        W75150  32.506   7.374   2.887
 5270W        W75151  44.779   6.389   2.706
 5271W        W75152  14.739  40.049   0.370
 5272W        W75153  38.482   3.356   4.300
 5273W        W75154   4.874   9.661  14.389
 5274W        W75155  34.467  29.063  12.365
 5275W        W75156  40.394  41.911  12.566
 5276W        W75157  16.587  23.176  12.843
 5277W        W75158  29.578   0.768  10.928
 5278W        W75159  35.552  23.083   2.384
 5279W        W75160  18.787  38.865   2.361
 5280W        W75161  27.583  24.701  12.982
 5281W        W75162   0.316  32.044  13.010
 5282W        W75163  10.142  38.927   1.924
 5283W        W75164  14.813  20.189   4.171
 5284W        W75165  26.599   6.404  14.885
 5285W        W75166  26.457  36.086  13.527
 5286W        W75167   4.768  13.267   4.231
 5287W        W75168  12.760  22.527  14.346
 5288W        W75169   3.235   0.416   1.316
 5289W        W75170  39.885  39.030   1.765
 5290W        W75171  20.215  15.815  10.474
 5291W        W75172   3.219  37.013   1.227
 5292W        W75173  16.133  35.062   3.369
 5293W        W75174  10.343  11.228   4.222
 5294W        W75175  39.032  18.234   2.187
 5295W        W75176  40.501  15.780   1.748
 5296W        W75177  37.487  18.651  14.794
 5297W        W75178  37.979  19.733  14.959
 5298W        W75179  12.668  30.926  10.051
 5299W        W75180   2.769  39.424   1.388
 5300W        W75181  35.457   6.289   4.642
 5301W        W75182  10.353   3.275   5.087
 5302W        W75183  41.390   0.346  11.999
 5303W        W75184  37.485  30.520  12.408
 5304W        W75185  43.438  29.500  12.559
 5305W        W75186  25.669  20.040  11.987
 5306W        W75187  21.588  41.535  10.982
 5307W        W75188  23.711  30.577  11.883
 5308W        W75189  36.562  41.399   9.950
 5309W        W75190  25.592  21.622   1.743
 5310W        W75191  15.200   5.756  14.924
 5311W        W75192  22.509  11.243  12.898
 5312W        W75193   5.413  34.876  14.968
 5313W        W75194  15.127  37.832   3.744
 5314W        W75195  21.670  37.481  11.539
 5315W        W75196   4.388  16.595  13.889
 5316W        W75197  18.076  42.286   1.894
 5317W        W75198  15.786   7.792  13.341
 5318W        W75199  11.716  33.381  14.403
 5319W        W75200  44.404   1.949   1.447
 5320W        W75201  22.638  32.567  11.426
 5321W        W75202  34.608   0.925   4.666
 5322W        W75203  30.557  16.605   3.355
 5323W        W75204  19.145  16.286  13.497
 5324W        W75205   7.840   3.285   3.242
 5325W        W75206   8.239  34.537  13.395
 5326W        W75207   8.713  42.426  12.566
 5327W        W75208  38.897  42.313  12.539
 5328W        W75209  19.751   1.407   0.822
 5329W        W75210   7.332  40.991   1.263
 5330W        W75211   2.309  32.592  14.472
 5331W        W75212  40.418   5.231   2.726
 5332W        W75213  27.679   5.726  12.959
 5333W        W75214  44.941  27.173  14.783
 5334W        W75215   8.290  26.512   3.798
 5335W        W75216  25.186  30.964   4.712
 5336W        W75217  31.023   7.396   3.726
 5337W        W75218  41.943  12.642   1.700
 5338W        W75219   4.440   4.364  13.481
 5339W        W75220   3.293  45.000  13.467
 5340W        W75221  38.411  24.509  12.047
 5341W        W75222  25.650   6.719   1.929
 5342W        W75223  10.180  18.076   3.271
 5343W        W75224  30.973  22.036  11.016
 5344W        W75225   4.870  19.566   3.330
 5345W        W75226  38.414  11.216   2.741
 5346W        W75227  29.614  16.730   4.122
 5347W        W75228  30.451  19.227  14.401
 5348W        W75229  32.031   5.341   4.281
 5349W        W75230  44.937  11.201  12.956
 5350W        W75231   8.891  28.616   1.837
 5351W        W75232  29.989  20.582   1.750
 5352W        W75233  38.932   1.925   4.753
 5353W        W75234  44.344   8.164   4.807
 5354W        W75235  12.139  41.498   0.857
 5355W        W75236  10.310  15.250  13.408
 5356W        W75237  42.891  39.959  11.909
 5357W        W75238  41.904  38.970   3.839
 5358W        W75239   2.912  29.160   3.653
 5359W        W75240  13.125  26.007   2.311
 5360W        W75241  35.477  30.445   4.193
 5361W        W75242  10.636  34.952   1.736
 5362W        W75243  38.531  13.663  12.545
 5363W        W75244  21.102  18.235   0.304
 5364W        W75245  16.088  26.680  11.549
 5365W        W75246   4.356  13.279  12.829
 5366W        W75247  25.599  11.315  12.999
 5367W        W75248  28.444  19.588   2.266
 5368W        W75249  16.253  14.114   2.326
 5369W        W75250   2.460  20.170  13.523
 5370W        W75251  30.088   1.336  13.808
 5371W        W75252   7.831  29.440   4.233
 5372W        W75253  15.683  32.033   4.260
 5373W        W75254   1.955  40.957   0.355
 5374W        W75255   7.381   1.939   3.386
 5375W        W75256   5.932   0.865  13.973
 5376W        W75257  43.478  23.558  13.061
 5377W        W75258  31.647  26.593  10.642
 5378W        W75259   5.775  25.122   5.233
 5379W        W75260   0.813  11.736   3.694
 5380W        W75261  35.894  37.061   3.720
 5381W        W75262   7.746   8.270  11.554
 5382W        W75263  30.929  14.157  11.399
 5383W        W75264   7.338   1.895   4.731
 5384W        W75265  43.356   7.218   1.870
 5385W        W75266   5.700  19.151   2.668
 5386W        W75267  43.973   3.431  14.963
 5387W        W75268  26.115  11.813   3.366
 5388W        W75269  15.624  21.738   3.296
 5389W        W75270  23.559  21.689  10.488
 5390W        W75271  35.066  13.172  10.519
 5391W        W75272   5.405  37.379   3.257
 5392W        W75273  34.542  22.066  10.462
 5393W        W75274  22.716  11.701   4.690
 5394W        W75275  15.204  26.601   1.736
 5395W        W75276  37.847   9.236   0.783
 5396W        W75277   2.420   4.793   0.425
 5397W        W75278   3.393  30.439   3.166
 5398W        W75279  39.441  29.005   1.922
 5399W        W75280  34.998   1.734   3.371
 5400W        W75281  24.556  39.935   0.304
 5401W        W75282  27.534   7.285  10.515
 5402W        W75283   1.812   0.862  13.961
 5403W        W75284  33.007  24.011   3.825
 5404W        W75285  17.132   9.256  13.874
 5405W        W75286  22.545  28.499  14.026
 5406W        W75287   4.830  44.008   3.835
 5407W        W75288  26.647  19.268  13.934
 5408W        W75289   5.201  32.489  14.822
 5409W        W75290  32.538  29.029  13.307
 5410W        W75291  33.907  36.475   0.460
 5411W        W75292  26.102  11.265  11.051
 5412W        W75293  33.609  14.179  14.309
 5413W        W75294  36.447  12.352  12.565
 5414W        W75295  40.002  35.967   4.200
 5415W        W75296  30.995  10.700  11.993
 5416W        W75297  37.453   7.285   3.185
 5417W        W75298  39.856  39.539   4.704
 5418W        W75299  22.615  42.448  12.381
 5419W        W75300  30.419  29.154   3.240
 5420W        W75301  28.597  37.980   2.325
 5421W        W75302  10.282  10.198   4.221
 5422W        W75303  17.230  38.488   2.259
 5423W        W75304  27.962  27.537   4.631
 5424W        W75305   0.946   6.389   5.088
 5425W        W75306  40.911   7.839  13.859
 5426W        W75307   0.452   2.772  14.914
 5427W        W75308  17.664  42.876   1.228
 5428W        W75309  32.034  20.084   0.796
 5429W        W75310  33.398  31.626   2.234
 5430W        W75311  32.929   7.875  13.008
 5431W        W75312  44.958  41.317   0.408
 5432W        W75313  36.551  43.846  13.383
 5433W        W75314  22.037   6.280  12.405
 5434W        W75315  44.917  28.659   1.233
 5435W        W75316  11.343   2.801  10.470
 5436W        W75317  25.086   2.231   3.290
 5437W        W75318  30.146  34.979  10.424
 5438W        W75319  16.265  36.549   4.240
 5439W        W75320   2.850  44.459  13.800
 5440W        W75321  43.831  22.183   4.225
 5441W        W75322  44.895   5.236  10.951
 5442W        W75323  11.343  43.011   0.418
 5443W        W75324  39.919  28.942   2.285
 5444W        W75325   3.750   1.859  10.043
 5445W        W75326   5.341  12.702  13.852
 5446W        W75327  24.584  15.252   3.784
 5447W        W75328  30.992  34.473   0.460
 5448W        W75329  14.221   0.373   2.764
 5449W        W75330  44.870  11.783  13.472
 5450W        W75331   1.810  29.441  11.463
 5451W        W75332   1.296  33.082   0.260
 5452W        W75333  32.584  22.653  14.298
 5453W        W75334  20.656  33.546   2.801
 5454W        W75335  16.588   9.861   3.162
 5455W        W75336  19.199  17.667  13.446
 5456W        W75337   9.238   7.417   2.231
 5457W        W75338  36.905   4.732   4.611
 5458W        W75339  26.090  14.798  12.352
 5459W        W75340   3.955  27.027  12.909
 5460W        W75341  37.405  43.998   0.382
 5461W        W75342   2.445  19.258  10.596
 5462W        W75343   3.745  27.511  14.892
 5463W        W75344  40.446   2.763   2.291
 5464W        W75345  25.700  19.571  11.464
 5465W        W75346  24.005  17.633   2.201
 5466W        W75347  36.025  10.833  14.840
 5467W        W75348   9.712  39.879   0.342
 5468W        W75349  17.223  20.574   4.806
 5469W        W75350  19.173  37.870   0.322
 5470W        W75351  29.583   4.930  10.494
 5471W        W75352  22.117   5.712   3.851
 5472W        W75353  35.564  33.449  14.511
 5473W        W75354  33.479   8.824  14.967
 5474W        W75355  21.216  31.113  12.939
 5475W        W75356   5.427  15.319  13.839
 5476W        W75357  28.562  28.958   2.281
 5477W        W75358  29.479   7.756   4.608
 5478W        W75359  43.431  39.903   2.268
 5479W        W75360  42.005  19.556   2.835
 5480W        W75361   2.918  24.982   1.383
 5481W        W75362  16.605  23.990   3.784
 5482W        W75363  42.916  24.016  12.067
 5483W        W75364   1.777  23.490  14.866
 5484W        W75365   7.389  39.884  14.486
 5485W        W75366  25.077  23.113  14.839
 5486W        W75367  26.988  11.243  11.856
 5487W        W75368  19.271   3.414  13.377
 5488W        W75369  28.519  34.508  14.942
 5489W        W75370   0.297  28.147   1.867
 5490W        W75371  11.132  28.578  14.025
 5491W        W75372  16.579  28.178   4.718
 5492W        W75373  39.551  23.202   0.464
 5493W        W75374  10.280  43.362   4.790
 5494W        W75375  24.585   2.336   4.327
 5495W        W75376   6.218  23.096  14.019
 5496W        W75377  26.473   8.692  10.030
 5497W        W75378  19.176  15.090  14.895
 5498W        W75379  20.550  21.117   3.322
 5499W        W75380   4.713   8.696  12.416
 5500W        W75381  12.340  24.494   0.856
 5501W        W75382   0.902   9.329   2.356
 5502W        W75383  14.670  44.778  13.479
 5503W        W75384  35.061  10.742   2.225
 5504W        W75385  42.384   1.791  13.895
 5505W        W75386   4.780  34.491   9.992
 5506W        W75387  11.797  24.569  12.372
 5507W        W75388   1.329  14.250  11.969
 5508W        W75389  11.830   7.411  10.412
 5509W        W75390  22.581  15.752   4.266
 5510W        W75391  23.505  14.164  12.064
 5511W        W75392   3.339  16.121  13.042
 5512W        W75393  12.777  25.068   1.395
 5513W        W75394  43.973  33.970   1.290
 5514W        W75395  27.984  17.308   5.119
 5515W        W75396  23.503  12.176  13.465
 5516W        W75397  40.872  14.288   2.875
 5517W        W75398   0.478  31.115  11.118
 5518W        W75399   1.907  17.640  11.062
 5519W        W75400  11.183  11.806   3.752
 5520W        W75401  17.759   8.803   0.274
 5521W        W75402  30.005  34.452  14.883
 5522W        W75403  28.636  44.864  13.894
 5523W        W75404  31.010  31.143  13.977
 5524W        W75405  28.084  19.151   3.215
 5525W        W75406  21.067   9.316   2.323
 5526W        W75407  17.668  23.503   2.722
 5527W        W75408  13.203  27.457   4.737
 5528W        W75409  20.030  24.106  11.045
 5529W        W75410  11.292  32.432  12.494
 5530W        W75411   7.173  22.237  13.383
 5531W        W75412   5.861   1.452  11.864
 5532W        W75413  31.054  32.632  12.876
 5533W        W75414  23.086   5.863   4.311
 5534W        W75415   2.436  28.666   1.744
 5535W        W75416  35.546  43.817   3.239
 5536W        W75417  21.555  22.728  11.527
 5537W        W75418  20.607  26.647   2.861
 5538W        W75419  29.596   4.942  12.854
 5539W        W75420  28.482  29.120  13.913
 5540W        W75421   4.734  32.920  13.833
 5541W        W75422  33.080  36.436  14.887
 5542W        W75423  31.444   0.314  10.440
 5543W        W75424   5.216  14.180  13.525
 5544W        W75425  43.873  43.992  13.429
 5545W        W75426  41.363  39.844   4.196
 5546W        W75427   8.230  31.553  12.572
 5547W        W75428   1.816  12.225   0.305
 5548W        W75429   2.339  18.594   3.789
 5549W        W75430  26.132  27.486   1.242
 5550W        W75431   2.303  23.107  12.991
 5551W        W75432  15.711   1.776   0.866
 5552W        W75433   8.743   9.773   4.326
 5553W        W75434  22.734  27.179  12.860
 5554W        W75435   5.280  37.400  12.066
 5555W        W75436  43.406  35.502  13.385
 5556W        W75437  17.191   5.273   4.152
 5557W        W75438  29.608   8.313  12.073
 5558W        W75439  38.540  17.735   4.636
 5559W        W75440   1.850   1.452  11.595
 5560W        W75441  30.444   3.219  11.491
 5561W        W75442  27.519  42.815  14.351
 5562W        W75443  14.239   2.804   1.896
 5563W        W75444   2.791  24.059  14.879
 5564W        W75445  17.798  34.943  13.842
 5565W        W75446  24.978  25.029   0.840
 5566W        W75447  38.485  40.371  12.018
 5567W        W75448   4.716  39.993   1.915
 5568W        W75449  41.963  32.553  13.823
 5569W        W75450  19.129  35.507   4.113
 5570W        W75451   4.280  15.127   4.325
 5571W        W75452  21.542   8.183  12.007
 5572W        W75453  40.516   6.237  10.910
 5573W        W75454   8.822  42.953   2.753
 5574W        W75455   3.796  13.634   2.358
 5575W        W75456   7.882  42.402  12.541
 5576W        W75457  19.591   4.341  13.968
 5577W        W75458  42.784   7.338   2.902
 5578W        W75459  18.605  23.540   2.252
 5579W        W75460   5.334  39.390   4.121
 5580W        W75461  34.941  24.220  13.950
 5581W        W75462   9.853   2.729   3.320
 5582W        W75463  20.604  32.022  12.518
 5583W        W75464  38.411  31.961   1.434
 5584W        W75465  43.337  37.578   1.759
 5585W        W75466  10.862  29.960   0.387
 5586W        W75467  34.863   8.845   0.734
 5587W        W75468  32.917  21.535  10.504
 5588W        W75469  21.630  31.924   4.811
 5589W        W75470   8.166  43.938   0.309
 5590W        W75471  12.840  16.597   0.325
 5591W        W75472  33.991  31.101   3.651
 5592W        W75473  36.572  19.594  14.368
 5593W        W75474  42.857  43.467  10.404
 5594W        W75475  14.309   2.427   2.859
 5595W        W75476  28.061  11.262  13.353
 5596W        W75477  12.688  27.630  11.556
 5597W        W75478   9.752   9.655  11.070
 5598W        W75479   2.391   5.308  11.461
 5599W        W75480  33.086  35.949   2.699
 5600W        W75481  17.204  12.639   0.371
 5601W        W75482  44.010  18.270  14.500
 5602W        W75483   7.406   2.893   3.694
 5603W        W75484  27.683  33.013  14.360
 5604W        W75485  26.044  12.738   2.709
 5605W        W75486   8.696  34.489   1.918
 5606W        W75487   4.422  14.113  12.393
 5607W        W75488  38.475  33.407   1.705
 5608W        W75489   7.185   5.216   1.426
 5609W        W75490  22.016  31.629   0.931
 5610W        W75491  14.285   3.906  13.331
 5611W        W75492  43.409   6.404  14.032
 5612W        W75493   1.793  36.885   4.825
 5613W        W75494  10.171  38.996   0.764
 5614W        W75495  38.964   1.905  14.364
 5615W        W75496  44.760   3.360   0.244
 5616W        W75497  30.969  42.404  14.874
 5617W        W75498   9.162  44.913  10.420
 5618W        W75499   3.917  11.797   3.316
 5619W        W75500  34.528  13.334   0.372
 5620W        W75501   4.357  15.755   0.395
 5621W        W75502  43.877   7.815  10.932
 5622W        W75503  40.983  13.336   4.730
 5623W        W75504  32.018  24.656   2.345
 5624W        W75505  36.526  43.993  12.542
 5625W        W75506  13.298  16.165  13.954
 5626W        W75507  19.681  12.214   2.888
 5627W        W75508  15.755  43.851   2.841
 5628W        W75509  10.680  31.495  12.050
 5629W        W75510  34.914  27.611  11.900
 5630W        W75511  17.089  10.142  10.997
 5631W        W75512  43.376   2.310  10.530
 5632W        W75513  32.413   9.703  11.917
 5633W        W75514  16.220  10.316   3.247
 5634W        W75515   3.248  44.944  10.899
 5635W        W75516   5.341  30.557  13.810
 5636W        W75517  15.579   7.327  10.940
 5637W        W75518  34.609  20.544   3.793
 5638W        W75519   7.673  26.562   3.783
 5639W        W75520   7.696  21.053   5.259
 5640W        W75521   2.955  40.917  12.064
 5641W        W75522  10.361  43.788   3.720
 5642W        W75523  16.284   8.278  10.915
 5643W        W75524  24.225  26.069  11.403
 5644W        W75525  20.628  15.257   3.812
 5645W        W75526  39.519  16.730  14.994
 5646W        W75527  16.745  31.446  13.428
 5647W        W75528  42.887  19.575   1.905
 5648W        W75529   6.793  36.553  14.485
 5649W        W75530   3.855   6.908  14.026
 5650W        W75531   0.882  33.996   2.730
 5651W        W75532  44.455   0.437  11.488
 5652W        W75533   4.748   8.282   4.833
 5653W        W75534   8.805  22.689  12.848
 5654W        W75535  20.150  19.701   2.390
 5655W        W75536  11.739  10.369  13.457
 5656W        W75537  42.339   9.380   3.164
 5657W        W75538  41.962  32.083  11.056
 5658W        W75539   3.751  18.659  14.335
 5659W        W75540  29.941  17.259  13.513
 5660W        W75541  23.076  13.231   4.167
 5661W        W75542  38.925  10.366  11.599
 5662W        W75543  35.402  42.859  10.624
 5663W        W75544  19.142  33.899  12.084
 5664W        W75545   5.280   3.250  12.462
 5665W        W75546  27.044  13.285   2.330
 5666W        W75547   9.230   9.245  13.017
 5667W        W75548  39.826  14.682  13.362
 5668W        W75549  20.153   8.855  11.409
 5669W        W75550   2.404  38.959  13.945
 5670W        W75551  14.310  29.105   0.322
 5671W        W75552  24.499   4.728  10.525
 5672W        W75553  32.519  44.760  12.444
 5673W        W75554  15.283  14.150  13.406
 5674W        W75555  24.227  36.884  12.063
 5675W        W75556  30.030  36.887   0.377
 5676W        W75557  44.464  17.159   2.853
 5677W        W75558   5.314   1.440  11.015
 5678W        W75559  28.599  12.625  12.990
 5679W        W75560  43.803  43.004   4.603
 5680W        W75561   7.265  29.108   4.803
 5681W        W75562  37.461  44.917   1.826
 5682W        W75563  22.523  30.577   9.997
 5683W        W75564  16.780  37.886   4.283
 5684W        W75565  31.615  25.639  11.912
 5685W        W75566   1.826   3.413  11.487
 5686W        W75567  24.526   2.813   1.275
 5687W        W75568  20.599   5.245   0.882
 5688W        W75569  29.980  35.565  12.940
 5689W        W75570  23.517  12.709  13.483
 5690W        W75571  27.105  15.113  13.945
 5691W        W75572  34.421   0.802   3.246
 5692W        W75573  34.519   4.250  11.074
 5693W        W75574   6.871  20.767  10.599
 5694W        W75575  26.668  26.075   3.180
 5695W        W75576  25.010  34.077   4.608
 5696W        W75577  30.947  17.618   0.914
 5697W        W75578  39.973  12.330  14.007
 5698W        W75579   1.241  36.087   0.427
 5699W        W75580  20.132  13.138   4.690
 5700W        W75581  15.117  29.056  14.022
 5701W        W75582  37.578  24.531   3.688
 5702W        W75583   4.357   7.243  14.484
 5703W        W75584  29.476  29.611   2.837
 5704W        W75585  35.983  13.169  11.561
 5705W        W75586  19.261  35.479   2.302
 5706W        W75587  33.975  30.123  12.511
 5707W        W75588   3.275  37.888  14.349
 5708W        W75589   8.381  44.380  11.064
 5709W        W75590  19.612  22.603   0.357
 5710W        W75591  29.444  32.109  10.917
 5711W        W75592  15.588   9.264   9.966
 5712W        W75593  20.549  32.451  11.053
 5713W        W75594   7.827  42.875  14.498
 5714W        W75595  33.544  16.660   1.829
 5715W        W75596  19.122  30.606  14.476
 5716W        W75597  40.494  44.982  12.855
 5717W        W75598  37.561  19.536   4.829
 5718W        W75599  41.040  32.399  13.369
 5719W        W75600  21.627  28.575   4.641
 5720W        W75601  32.963  39.848   3.300
 5721W        W75602  31.935  32.449  12.387
 5722W        W75603   9.199   4.320  12.967
 5723W        W75604   0.907  31.010   4.175
 5724W        W75605  43.879  13.653  13.874
 5725W        W75606   4.384  22.208   2.873
 5726W        W75607   2.470  13.817  10.906
 5727W        W75608  23.001  25.036  12.428
 5728W        W75609  38.829  17.771   0.762
 5729W        W75610  17.718  17.117  12.399
 5730W        W75611  14.222   2.789  14.514
 5731W        W75612   6.697  43.901  11.442
 5732W        W75613  18.677  13.297  13.883
 5733W        W75614  33.057  12.149   2.811
 5734W        W75615   6.272  17.756  14.464
 5735W        W75616  32.421   0.303   1.219
 5736W        W75617  22.185  34.928  13.850
 5737W        W75618  10.165  25.205  10.468
 5738W        W75619   1.392  20.664  11.026
 5739W        W75620  44.410   2.449  12.882
 5740W        W75621  11.188   7.813   2.707
 5741W        W75622  22.612  12.356  11.065
 5742W        W75623  16.706  40.857  12.426
 5743W        W75624  41.821  42.447  10.515
 5744W        W75625  44.836   1.447   2.805
 5745W        W75626  40.398  21.535  10.917
 5746W        W75627  20.158  14.599  13.432
 5747W        W75628  25.629  37.560   1.232
 5748W        W75629  25.579  24.493   4.264
 5749W        W75630  19.599  41.036  14.918
 5750W        W75631  28.973  11.192  10.503
 5751W        W75632  29.970  17.222   1.412
 5752W        W75633  10.159  35.066  11.562
 5753W        W75634  35.393  15.683  10.603
 5754W        W75635  15.274   1.314   4.799
 5755W        W75636  15.806   3.910   4.745
 5756W        W75637   3.783   2.253   2.282
 5757W        W75638  38.430   1.381   2.768
 5758W        W75639  23.619  44.935   1.450
 5759W        W75640  28.526  11.340  14.891
 5760W        W75641  41.477  31.433  12.467
 5761W        W75642  37.876  25.540   4.348
 5762W        W75643  26.205  33.578   4.132
 5763W        W75644  32.946  10.208  12.826
 5764W        W75645   5.688  15.821  12.466
 5765W        W75646  30.010  19.733   1.809
 5766W        W75647  22.530  44.463  14.996
 5767W        W75648  41.925  21.214   1.329
 5768W        W75649  37.936  34.952  12.964
 5769W        W75650  12.312   7.786   1.256
 5770W        W75651  25.053  18.690   1.244
 5771W        W75652  20.570   4.854  11.973
 5772W        W75653  35.558  33.054  14.819
 5773W        W75654  29.086  18.244  11.857
 5774W        W75655  31.534   5.219  14.314
 5775W        W75656  42.315  31.426  10.446
 5776W        W75657  17.672  41.972  13.348
 5777W        W75658  17.672   6.774  11.519
 5778W        W75659  42.806   5.837  14.952
 5779W        W75660  21.227  28.042   4.151
 5780W        W75661  18.757  30.592   2.690
 5781W        W75662  35.975  40.340   0.425
 5782W        W75663  36.552  13.808  10.557
 5783W        W75664   6.863  22.632  12.414
 5784W        W75665  15.813  38.821   1.412
 5785W        W75666   9.868  31.999   1.310
 5786W        W75667  17.598   8.722  13.881
 5787W        W75668   7.682  21.737  11.858
 5788W        W75669  21.042   4.935  12.493
 5789W        W75670   5.380  11.355   2.756
 5790W        W75671  23.110   2.277  10.967
 5791W        W75672  14.183   9.863  14.397
 5792W        W75673   1.972  30.110  10.605
 5793W        W75674  26.565   1.350  11.469
 5794W        W75675  39.857  14.666  11.028
 5795W        W75676   3.306  21.758  12.417
 5796W        W75677   4.734  29.965  10.612
 5797W        W75678   0.350  28.952  13.492
 5798W        W75679  34.083  24.659   0.804
 5799W        W75680   1.809  41.352   4.819
 5800W        W75681  32.579  36.958   3.340
 5801W        W75682  32.591   5.273   0.836
 5802W        W75683  10.275   3.860  10.408
 5803W        W75684  44.441  31.095   4.306
 5804W        W75685   0.904   7.412  13.341
 5805W        W75686   5.827  30.488  11.056
 5806W        W75687  29.015   4.754   4.172
 5807W        W75688  34.478  44.777   4.684
 5808W        W75689   7.903  10.768  10.605
 5809W        W75690  23.107  32.417  14.938
 5810W        W75691   5.887  12.651   4.255
 5811W        W75692  34.421  17.633  12.479
 5812W        W75693   7.364   3.231   4.216
 5813W        W75694  35.026  17.215   4.331
 5814W        W75695  20.148  29.163  10.445
 5815W        W75696   4.245   2.263   3.283
 5816W        W75697  40.362  29.571  12.867
 5817W        W75698  28.174   2.812   0.841
 5818W        W75699   5.259  27.461   3.321
 5819W        W75700   5.324  10.811   1.864
 5820W        W75701  37.946  26.558  11.479
 5821W        W75702  26.622   4.343  14.457
 5822W        W75703  30.514  31.068  14.420
 5823W        W75704  30.049   0.485   2.672
 5824W        W75705  33.624  24.562  14.962
 5825W        W75706   7.814  31.986  14.788
 5826W        W75707   3.952  24.059   4.690
 5827W        W75708   8.778  15.659   3.204
 5828W        W75709  36.866  37.975  11.104
 5829W        W75710  36.953  10.728   1.349
 5830W        W75711  35.982  38.500   2.304
 5831W        W75712  36.056  25.533   0.882
 5832W        W75713  23.735   3.821  13.504
 5833W        W75714  25.532  30.459   0.794
 5834W        W75715  12.710   1.448  12.540
 5835W        W75716  26.097  29.027   4.330
 5836W        W75717  40.902  41.302   4.641
 5837W        W75718  26.162  38.916  13.462
 5838W        W75719  13.235  22.587   1.805
 5839W        W75720  18.237  29.560   1.879
 5840W        W75721   0.984  26.179  10.411
 5841W        W75722  25.982  35.865   0.758
 5842W        W75723  39.545  35.905   1.870
 5843W        W75724   0.949  35.911  12.466
 5844W        W75725   7.349  22.575  14.314
 5845W        W75726  26.479  22.190  13.362
 5846W        W75727  39.509  25.557  14.360
 5847W        W75728  30.930  42.404  13.368
 5848W        W75729  36.979  36.856   4.213
 5849W        W75730  39.515  28.174  14.993
 5850W        W75731   1.399   7.879  14.010
 5851W        W75732  44.360  11.690   0.812
 5852W        W75733   4.750  15.749   2.322
 5853W        W75734  16.166   3.725   2.844
 5854W        W75735  25.655   8.698  11.512
 5855W        W75736   8.348  30.593  13.548
 5856W        W75737  23.580  23.674  10.603
 5857W        W75738  12.698   7.267  11.904
 5858W        W75739  25.051  15.114   3.770
 5859W        W75740   4.323   2.848  10.448
 5860W        W75741  43.000  25.574   3.186
 5861W        W75742   6.741  15.234  11.106
 5862W        W75743  24.060  32.459   4.240
 5863W        W75744   6.234   7.706  10.584
 5864W        W75745   7.769  30.095   3.827
 5865W        W75746  10.799   9.769  13.351
 5866W        W75747   0.855  23.066   0.360
 5867W        W75748  26.638  28.007  12.350
 5868W        W75749  10.169   6.286  10.502
 5869W        W75750  14.282  40.364   2.245
 5870W        W75751  44.913  16.262  11.859
 5871W        W75752   9.240  27.650   0.483
 5872W        W75753  44.489  29.990  11.886
 5873W        W75754  20.044   1.819  12.010
 5874W        W75755  34.429  14.812  11.936
 5875W        W75756  24.031  11.223   2.896
 5876W        W75757  18.704  12.177   0.837
 5877W        W75758  12.247  30.600   2.664
 5878W        W75759  35.900  34.941   3.304
 5879W        W75760   2.280  20.683   0.790
 5880W        W75761  26.643  41.443   9.937
 5881W        W75762   4.304  34.042  11.914
 5882W        W75763  18.149  31.460  13.311
 5883W        W75764  10.871  39.556  14.907
 5884W        W75765  37.884  30.048  13.912
 5885W        W75766  34.985  24.080   2.901
 5886W        W75767   4.282  25.988   2.254
 5887W        W75768   8.316   7.682   3.227
 5888W        W75769  29.164   0.841  14.301
 5889W        W75770  39.386  17.307   3.678
 5890W        W75771   2.849  22.651   2.304
 5891W        W75772   4.325  26.460  13.479
 5892W        W75773  19.645  33.507  13.416
 5893W        W75774  38.822  38.922  12.469
 5894W        W75775  12.688  10.198   4.325
 5895W        W75776  41.494  28.632  14.506
 5896W        W75777  23.083   9.212  11.026
 5897W        W75778   7.735  12.238   4.706
 5898W        W75779  11.236  15.146  11.021
 5899W        W75780   1.456   1.831  12.559
 5900W        W75781  11.717  42.451  14.516
 5901W        W75782  22.061  36.943   1.419
 5902W        W75783  41.419  27.462   1.269
 5903W        W75784  18.728  23.106  10.478
 5904W        W75785  33.056  23.046  11.602
 5905W        W75786  40.019  19.591  10.597
 5906W        W75787  35.864   9.337   3.642
 5907W        W75788  18.698   5.343   1.227
 5908W        W75789  23.176  43.778   2.873
 5909W        W75790  40.981  15.787   3.871
 5910W        W75791  15.192  26.471   2.399
 5911W        W75792  30.999  39.393  11.949
 5912W        W75793  16.076  38.056   1.722
 5913W        W75794  27.555  44.378  14.388
 5914W        W75795  12.247  21.676   4.339
 5915W        W75796   6.368  40.935   1.292
 5916W        W75797  13.255  21.608  10.932
 5917W        W75798  31.103  44.899   4.226
 5918W        W75799  19.565  27.646  11.978
 5919W        W75800  38.570  43.451   0.300
 5920W        W75801   8.898  18.258  13.915
 5921W        W75802  39.432  22.594   1.301
 5922W        W75803  30.596  13.213   2.877
 5923W        W75804  32.535   3.437   4.646
 5924W        W75805  33.517  13.222   1.716
 5925W        W75806  16.684  43.474  10.928
 5926W        W75807  41.908  40.882  12.463
 5927W        W75808   1.429   2.242   1.892
 5928W        W75809  15.792  34.887  14.417
 5929W        W75810  17.307  22.543  13.438
 5930W        W75811  18.602  37.880   4.759
 5931W        W75812  28.575   6.746   1.371
 5932W        W75813  37.962   4.793   2.776
 5933W        W75814  24.196  40.397  14.373
 5934W        W75815  26.031  21.124  14.410
 5935W        W75816  29.630  33.557  11.061
 5936W        W75817  13.216  40.375  12.903
 5937W        W75818  44.426  33.419  13.970
 5938W        W75819   8.164  29.670  13.852
 5939W        W75820   5.776  41.383   1.812
 5940W        W75821  28.056  38.381  14.513
 5941W        W75822  29.965  42.368   2.697
 5942W        W75823  27.558  34.957   3.367
 5943W        W75824  22.165  26.042   0.841
 5944W        W75825  17.192   4.406   4.643
 5945W        W75826  44.474   2.839  12.475
 5946W        W75827  22.564  17.603  11.885
 5947W        W75828  44.991  11.213   1.244
 5948W        W75829  30.473   1.951  11.557
 5949W        W75830  36.410  33.015  12.842
 5950W        W75831  24.194  24.557   0.416
 5951W        W75832  22.725   2.327   2.801
 5952W        W75833  14.764  16.254   3.754
 5953W        W75834  30.058  12.188  13.478
 5954W        W75835  21.233  38.542   2.734
 5955W        W75836   0.456  35.086  11.081
 5956W        W75837  21.119  35.853   0.776
 5957W        W75838  44.406  37.941  14.385
 5958W        W75839  19.761  41.315  14.985
 5959W        W75840  37.563   2.309   0.847
 5960W        W75841  30.562  42.518   1.309
 5961W        W75842  22.071  25.655   3.293
 5962W        W75843  44.290  38.014   0.839
 5963W        W75844  31.023   0.479   2.233
 5964W        W75845   1.323  41.474  10.939
 5965W        W75846  37.420  30.635  11.968
 5966W        W75847   3.390  25.709   3.812
 5967W        W75848   3.322  29.103   2.352
 5968W        W75849  39.927  38.555   4.754
 5969W        W75850  13.129  32.440  13.386
 5970W        W75851  42.483  25.005   0.745
 5971W        W75852  38.333  39.382  14.890
 5972W        W75853  38.962  44.928   2.715
 5973W        W75854  28.941  18.150  11.392
 5974W        W75855  24.523   8.776  10.459
 5975W        W75856  44.484  16.072  10.607
 5976W        W75857  44.352  21.655  12.950
 5977W        W75858  13.654  29.551   0.390
 5978W        W75859   4.444  37.353  12.425
 5979W        W75860  24.126  37.915  10.628
 5980W        W75861  23.617  24.053  10.481
 5981W        W75862  10.285  39.377   0.756
 5982W        W75863  10.276  15.577   1.730
 5983W        W75864   0.804  39.525  13.935
 5984W        W75865  33.429  35.073   3.278
 5985W        W75866  35.888  33.057   3.216
 5986W        W75867  24.652   7.396  14.816
 5987W        W75868   5.919   4.779  11.119
 5988W        W75869   8.380   0.742  14.492
 5989W        W75870   5.224   1.404  14.498
 5990W        W75871   8.811  35.413   3.823
 5991W        W75872   7.838  21.635   3.659
 5992W        W75873  42.804  39.962  12.447
 5993W        W75874  36.502  15.696  10.464
 5994W        W75875  41.528  24.204   1.366
 5995W        W75876  43.883  44.859   3.268
 5996W        W75877  24.710   6.404   2.212
 5997W        W75878  26.636  35.568  13.954
 5998W        W75879  23.120   3.857   0.919
 5999W        W75880   1.874  29.426   0.338
 6000W        W75881  19.064  12.854  12.897
 6001W        W75882   6.201  33.028   2.804
 6002W        W75883  11.833   1.875   1.867
 6003W        W75884  40.972  30.037  10.621
 6004W        W75885  26.677  37.874   3.302
 6005W        W75886  40.303   2.841   1.389
 6006W        W75887  33.571  30.025  14.875
 6007W        W75888  38.891  34.526  13.890
 6008W        W75889  42.346  31.403  12.986
 6009W        W75890   8.717  35.869   2.669
 6010W        W75891  19.599  32.623   0.928
 6011W        W75892  10.674  39.867   2.354
 6012W        W75893  28.506   4.224   2.193
 6013W        W75894   8.239  40.819  13.396
 6014W        W75895  40.538  18.241   0.816
 6015W        W75896  17.093  40.956  12.396
 6016W        W75897  29.133  31.490   4.681
 6017W        W75898  19.198  15.323  11.961
 6018W        W75899  21.233  43.999   5.155
 6019W        W75900  10.846  26.583  11.509
 6020W        W75901  22.110  42.913   2.783
 6021W        W75902  42.408   1.820  14.769
 6022W        W75903  10.182  43.426  11.392
 6023W        W75904   9.239  14.150  13.793
 6024W        W75905  11.219  38.974  10.906
 6025W        W75906  14.794  25.030  12.845
 6026W        W75907  36.390  36.874  14.803
 6027W        W75908  10.834   5.226  12.422
 6028W        W75909   6.834  24.054  13.546
 6029W        W75910  28.437  41.998  12.424
 6030W        W75911  22.518  12.671  12.952
 6031W        W75912  13.683  43.856  10.987
 6032W        W75913  44.878  32.050   3.225
 6033W        W75914   9.738  30.053   0.323
 6034W        W75915  34.542  13.726  12.035
 6035W        W75916   2.898  29.173  14.509
 6036W        W75917  20.592  44.504   5.171
 6037W        W75918   6.896  37.359  12.933
 6038W        W75919  14.128  36.077  12.074
 6039W        W75920  35.933   2.344   0.767
 6040W        W75921  13.317   9.708   0.847
 6041W        W75922  26.987   8.796  12.908
 6042W        W75923  31.007   0.347   0.875
 6043W        W75924   6.350  32.392   2.277
 6044W        W75925  34.485   9.769  12.055
 6045W        W75926   6.424  14.704   1.421
 6046W        W75927  35.913  30.485   0.799
 6047W        W75928  35.440  40.958  11.584
 6048W        W75929  29.573   8.283  12.891
 6049W        W75930  28.148  25.693   0.822
 6050W        W75931  42.954  19.078  14.786
 6051W        W75932  18.560  33.401  10.991
 6052W        W75933  21.710  40.450   1.353
 6053W        W75934  40.454  10.638  11.461
 6054W        W75935   2.371   1.418   0.341
 6055W        W75936   5.807  19.659  13.331
 6056W        W75937  33.026  15.257   3.759
 6057W        W75938  27.143   3.300   2.817
 6058W        W75939  42.327  30.453   3.854
 6059W        W75940  12.306  38.057   1.878
 6060W        W75941  14.830  27.491   3.867
 6061W        W75942  22.684  39.417  10.556
 6062W        W75943  22.244  11.734  10.604
 6063W        W75944  21.566  36.898   1.887
 6064W        W75945   7.877   6.245   3.786
 6065W        W75946  18.197   6.816   0.415
 6066W        W75947  40.978  23.551  12.942
 6067W        W75948  42.932  27.527   0.962
 6068W        W75949  23.984  16.751  10.571
 6069W        W75950  33.117  36.368   3.824
 6070W        W75951   2.943   6.422  12.869
 6071W        W75952  29.029  11.132   0.888
 6072W        W75953  12.280  32.404   2.779
 6073W        W75954   2.343  23.613   1.916
 6074W        W75955   5.249  17.684   0.458
 6075W        W75956  43.281  32.135  12.501
 6076W        W75957   4.227  14.676  11.521
 6077W        W75958  35.981   7.228   4.643
 6078W        W75959  13.809   1.945  13.319
 6079W        W75960  14.693  33.540  12.349
 6080W        W75961   0.344  24.194  13.355
 6081W        W75962  43.278  20.767   4.185
 6082W        W75963  17.222  28.606   2.375
 6083W        W75964  31.548   9.679   4.624
 6084W        W75965  39.988   6.772   4.300
 6085W        W75966  38.822   7.758  13.482
 6086W        W75967   1.353  30.474  12.923
 6087W        W75968  25.182  23.604  12.862
 6088W        W75969  29.154  11.763  13.432
 6089W        W75970  23.536  41.842   3.657
 6090W        W75971   7.761  23.610  13.814
 6091W        W75972  38.562  38.535  12.458
 6092W        W75973  14.127   5.287   3.342
 6093W        W75974  29.600  25.018  10.968
 6094W        W75975  42.372  17.722  14.973
 6095W        W75976  27.126  35.576   0.293
 6096W        W75977  28.063  41.374   0.905
 6097W        W75978  12.854  40.414   3.215
 6098W        W75979  43.932  25.528  14.794
 6099W        W75980   1.396  28.588  11.119
 6100W        W75981  26.553  43.984   0.761
 6101W        W75982  34.598  24.655  13.888
 6102W        W75983  42.522  38.454  11.572
 6103W        W75984  25.977   2.726  13.372
 6104W        W75985  12.316  39.348   4.768
 6105W        W75986   2.357  38.513   0.293
 6106W        W75987  33.520   0.422   2.750
 6107W        W75988  34.422   3.365   4.318
 6108W        W75989   1.805  31.092   0.316
 6109W        W75990  30.637  13.331  11.592
 6110W        W75991  35.871   4.321  13.005
 6111W        W75992   5.762  23.192  11.936
 6112W        W75993  38.506  12.251  12.393
 6113W        W75994  31.640  14.097   1.419
 6114W        W75995  28.143  43.964  12.053
 6115W        W75996  19.114  38.961   2.738
 6116W        W75997  21.541  10.674  11.029
 6117W        W75998  39.978   5.690  13.337
 6118W        W75999  42.934  16.663  11.001
 6119W        W76000  15.771  21.729   4.145
 6120W        W76001  12.284  18.084   4.281
 6121W        W76002   9.214  19.671   0.911
 6122W        W76003  23.514  24.489   3.838
 6123W        W76004  18.223  27.110  13.475
 6124W        W76005  12.749  19.243  12.403
 6125W        W76006  10.302   9.269  14.938
 6126W        W76007  32.547  28.623   2.717
 6127W        W76008  40.986  31.044   4.750
 6128W        W76009  22.193  43.904  12.888
 6129W        W76010  29.498  11.719  13.425
 6130W        W76011  17.071  40.542   5.247
 6131W        W76012  19.681   5.784  14.435
 6132W        W76013  27.960   4.255   0.826
 6133W        W76014  14.094  33.094  13.436
 6134W        W76015  22.137  35.590   2.711
 6135W        W76016  29.548  24.127  10.474
 6136W        W76017  19.780  41.532  10.892
 6137W        W76018   9.879   5.702   1.306
 6138W        W76019  14.687  35.526   4.686
 6139W        W76020  19.129   8.317   2.757
 6140W        W76021  31.531  30.915  13.027
 6141W        W76022  19.709  36.878  11.498
 6142W        W76023  15.294  39.943  13.930
 6143W        W76024  26.553  28.530  13.057
 6144W        W76025  23.576  44.967  12.952
 6145W        W76026  36.072  38.433   0.866
 6146W        W76027  13.622  37.905   3.766
 6147W        W76028  44.460  32.433  14.441
 6148W        W76029  34.906   5.299   1.791
 6149W        W76030  18.779  14.138  10.059
 6150W        W76031  15.222   7.218  13.813
 6151W        W76032   4.914  22.705  14.388
 6152W        W76033   8.759   3.804   3.838
 6153W        W76034   5.307  34.071  10.597
 6154W        W76035  42.856  15.146   2.407
 6155W        W76036   9.663  27.674  14.501
 6156W        W76037   7.782  32.923  10.602
 6157W        W76038  32.060  40.015   4.248
 6158W        W76039  25.220  44.856   0.478
 6159W        W76040  25.527  43.436  11.486
 6160W        W76041  15.266  33.610   4.603
 6161W        W76042  42.298  21.017   0.263
 6162W        W76043   5.231  36.991  13.933
 6163W        W76044  24.005  31.577  13.801
 6164W        W76045   0.443  34.909   4.178
 6165W        W76046  19.683  44.358   0.440
 6166W        W76047   7.910  11.251   1.779
 6167W        W76048  43.936  19.775  13.379
 6168W        W76049  22.634   2.871   1.811
 6169W        W76050  38.406  25.219   2.197
 6170W        W76051  44.785  11.164  10.995
 6171W        W76052   6.834   0.386   3.184
 6172W        W76053  36.427  21.113  14.765
 6173W        W76054  12.231  39.432  11.994
 6174W        W76055   8.716  29.459  13.941
 6175W        W76056  35.382  29.656   4.254
 6176W        W76057  13.157  18.775   0.923
 6177W        W76058  12.801  11.173   4.248
 6178W        W76059  13.239  23.009  11.081
 6179W        W76060  37.996   8.368   0.471
 6180W        W76061  36.898  44.975   0.730
 6181W        W76062  16.188  15.317   4.781
 6182W        W76063  13.209  35.578   4.322
 6183W        W76064   6.236  26.067  10.590
 6184W        W76065  14.786  34.933   2.229
 6185W        W76066  16.574  37.500   1.283
 6186W        W76067  27.616  40.332  11.595
 6187W        W76068  39.380   1.976   0.883
 6188W        W76069  28.516  44.464   1.824
 6189W        W76070   5.690  16.641   4.745
 6190W        W76071  23.197  11.697  12.383
 6191W        W76072  12.347  34.601  12.541
 6192W        W76073  33.572  34.956   3.854
 6193W        W76074   9.306  20.706   1.443
 6194W        W76075  12.260   3.358   3.717
 6195W        W76076  23.636  43.353   0.771
 6196W        W76077  32.581  42.479  13.495
 6197W        W76078   5.872  17.206   1.914
 6198W        W76079  20.126  28.648   3.713
 6199W        W76080  10.633   0.297   3.367
 6200W        W76081  20.654   5.284   3.299
 6201W        W76082  33.581  24.677  14.325
 6202W        W76083  18.072  15.138   4.698
 6203W        W76084  32.449   2.369  14.823
 6204W        W76085   9.664  24.083  13.413
 6205W        W76086  28.669   6.421  11.933
 6206W        W76087  24.123  29.542  13.981
 6207W        W76088  33.887  19.593  11.101
 6208W        W76089  10.797   0.795   0.731
 6209W        W76090   4.902  24.042  11.472
 6210W        W76091  23.212  35.013  14.997
 6211W        W76092  17.216  31.591   0.801
 6212W        W76093   7.272  37.424   2.899
 6213W        W76094   8.258  33.494   1.288
 6214W        W76095  19.232  16.192  14.495
 6215W        W76096   3.929  43.329  13.816
 6216W        W76097   8.292  30.937  12.923
 6217W        W76098  44.429  23.531   1.286
 6218W        W76099  42.396   5.693  12.568
 6219W        W76100  39.445  36.550  12.478
 6220W        W76101   3.814  41.309   5.169
 6221W        W76102  18.562  41.961  11.011
 6222W        W76103  13.767  10.851   3.854
 6223W        W76104  36.364   5.274   4.809
 6224W        W76105  35.519  14.239   4.805
 6225W        W76106   9.215  44.857   1.826
 6226W        W76107  11.641  26.971  12.384
 6227W        W76108  28.159   9.880  11.977
 6228W        W76109  11.303  42.779  13.917
 6229W        W76110   8.297  16.626   1.889
 6230W        W76111  22.090  10.853   2.196
 6231W        W76112  27.142  20.610   4.182
 6232W        W76113   7.408  30.605  11.608
 6233W        W76114  32.391  19.754  14.462
 6234W        W76115   7.192  11.166  11.389
 6235W        W76116  15.308   0.369  12.897
 6236W        W76117  12.740   1.948   3.364
 6237W        W76118  14.648  20.238  10.549
 6238W        W76119  18.664  25.102   0.313
 6239W        W76120  35.867  36.486  12.910
 6240W        W76121   8.317  21.612   4.275
 6241W        W76122  12.312  24.652   2.858
 6242W        W76123  32.411   8.384  13.976
 6243W        W76124  33.943  34.082   3.203
 6244W        W76125  24.168   0.466  10.039
 6245W        W76126   4.728  26.656  12.908
 6246W        W76127  36.933  19.763   4.651
 6247W        W76128  39.013  40.877  13.324
 6248W        W76129  37.508  37.970  14.799
 6249W        W76130  18.594  22.060   2.259
 6250W        W76131   2.399  26.674   3.722
 6251W        W76132  19.231  13.299   0.833
 6252W        W76133  16.775  13.339  13.374
 6253W        W76134  10.736  30.077   0.859
 6254W        W76135  21.560   1.467   2.826
 6255W        W76136  36.992   5.813  13.494
 6256W        W76137  18.068  25.682  11.374
 6257W        W76138  22.674   6.833   1.776
 6258W        W76139   7.729  25.173  12.483
 6259W        W76140  30.947  34.988   3.697
 6260W        W76141   0.910  39.513  13.004
 6261W        W76142  28.962  15.652   4.248
 6262W        W76143  22.570  11.843   0.368
 6263W        W76144   8.875  29.933   4.341
 6264W        W76145  43.452  23.566  11.482
 6265W        W76146  25.620   0.892  13.379
 6266W        W76147  34.563  30.444   1.913
 6267W        W76148  36.855  20.247   2.192
 6268W        W76149  31.102   7.709   0.265
 6269W        W76150  42.399  44.783  13.971
 6270W        W76151  15.643   9.824  13.497
 6271W        W76152  43.801  32.544  12.036
 6272W        W76153  32.632  15.161  11.026
 6273W        W76154  14.141  14.256   4.246
 6274W        W76155   8.733  37.578  13.877
 6275W        W76156  35.589  12.779   3.812
 6276W        W76157  25.489   2.791  13.379
 6277W        W76158  22.178  42.361  11.544
 6278W        W76159   4.346  32.935  10.540
 6279W        W76160  17.556  26.632  11.964
 6280W        W76161  42.303  31.924   1.854
 6281W        W76162  36.018  19.659   4.608
 6282W        W76163  27.954  14.142   1.246
 6283W        W76164  12.294   4.364   1.211
 6284W        W76165  17.613  33.113   1.210
 6285W        W76166  37.875  22.022   3.680
 6286W        W76167  17.615  29.941  11.494
 6287W        W76168  25.686  18.699  11.432
 6288W        W76169  27.548  42.331   1.360
 6289W        W76170  11.261   8.810  10.941
 6290W        W76171   7.319  38.400  11.427
 6291W        W76172   3.774  11.185  10.431
 6292W        W76173  17.108  18.630  12.912
 6293W        W76174  25.996  36.544  10.430
 6294W        W76175  21.095  20.086   3.812
 6295W        W76176  43.405  22.156  13.911
 6296W        W76177   9.800  40.985  11.996
 6297W        W76178  26.534  38.550   2.367
 6298W        W76179   0.855  12.134   4.308
 6299W        W76180  24.509   9.757  14.800
 6300W        W76181  37.070   4.362  12.910
 6301W        W76182  32.003  24.015  13.933
 6302W        W76183  38.833   3.734   1.842
 6303W        W76184   4.383  41.898  12.454
 6304W        W76185  22.668  24.122  14.360
 6305W        W76186  33.932  28.535  11.488
 6306W        W76187  34.083  13.350   0.399
 6307W        W76188  24.601  24.558  14.297
 6308W        W76189   8.240  11.172   1.742
 6309W        W76190  42.295  27.555   3.193
 6310W        W76191   3.358  33.478   2.203
 6311W        W76192  15.751   3.361  11.510
 6312W        W76193  21.120  21.035   2.752
 6313W        W76194  43.391   9.738   4.795
 6314W        W76195  16.189  20.689  12.827
 6315W        W76196  21.598  44.852  13.525
 6316W        W76197  25.126   6.839   3.830
 6317W        W76198  37.869   6.680   1.737
 6318W        W76199  14.762   4.391   4.291
 6319W        W76200  26.545  31.567   0.304
 6320W        W76201   0.459  27.053   0.338
 6321W        W76202  19.046   5.331   3.379
 6322W        W76203  16.736  17.110  13.482
 6323W        W76204   5.882  34.512  13.477
 6324W        W76205  12.791  36.922   2.259
 6325W        W76206  35.547  23.019   2.723
 6326W        W76207  11.183  16.292  13.947
 6327W        W76208  18.740  13.768  14.802
 6328W        W76209  39.968  31.569  13.957
 6329W        W76210  30.101  25.150  12.872
 6330W        W76211  29.927  22.251  12.095
 6331W        W76212  29.999  37.455   2.346
 6332W        W76213   8.831  37.017   4.246
 6333W        W76214   8.828  43.273  10.571
 6334W        W76215  23.205  36.099  14.402
 6335W        W76216  15.748  38.993   3.631
 6336W        W76217  16.240   0.966   4.604
 6337W        W76218  18.098  14.212   3.676
 6338W        W76219   9.362  22.510  14.502
 6339W        W76220  36.945  23.101   4.710
 6340W        W76221  17.786  38.041  14.844
 6341W        W76222  10.356  14.804  11.413
 6342W        W76223  18.617  29.935   3.734
 6343W        W76224  10.647   4.892   0.267
 6344W        W76225  35.398   6.361   3.713
 6345W        W76226  16.259  17.275  14.916
 6346W        W76227  24.155  26.177  12.441
 6347W        W76228  31.530   6.410  12.913
 6348W        W76229  20.548  16.613   1.385
 6349W        W76230  40.387  43.967  10.963
 6350W        W76231  31.511   6.387   1.711
 6351W        W76232  11.817  13.152  13.472
 6352W        W76233  38.499  37.838   1.281
 6353W        W76234  40.007  14.625   2.700
 6354W        W76235  28.013  34.479  13.348
 6355W        W76236  21.557  36.516  12.485
 6356W        W76237  42.851  35.555  11.561
 6357W        W76238  24.012  12.844  13.511
 6358W        W76239  32.538   5.770  12.907
 6359W        W76240  34.930  10.729   3.830
 6360W        W76241   9.347  20.677  11.609
 6361W        W76242   7.267   2.856  12.850
 6362W        W76243  36.869  20.555   2.703
 6363W        W76244  14.173  22.146   1.699
 6364W        W76245  38.365  19.754  10.413
 6365W        W76246  22.162  29.149   2.690
 6366W        W76247  34.420  29.470  14.842
 6367W        W76248  23.022  15.091   4.740
 6368W        W76249  22.024  22.503  11.092
 6369W        W76250   8.191  39.453  10.437
 6370W        W76251  35.399  25.666  10.959
 6371W        W76252  42.975  19.163   4.124
 6372W        W76253  43.953  35.386   0.800
 6373W        W76254   6.227  11.806  12.510
 6374W        W76255   7.174   3.885   1.368
 6375W        W76256  16.126   8.362  11.541
 6376W        W76257  26.470  12.637   2.282
 6377W        W76258  41.469  12.658  12.346
 6378W        W76259  26.657  40.950  12.865
 6379W        W76260   1.827  15.217   1.291
 6380W        W76261   1.242  17.293  13.910
 6381W        W76262   2.260   9.744   3.647
 6382W        W76263  44.969  35.463   1.319
 6383W        W76264  30.489  25.071   1.297
 6384W        W76265  43.929   8.319  11.121
 6385W        W76266  34.564   2.933   1.711
 6386W        W76267   9.834   4.289  14.869
 6387W        W76268  18.156  38.504  14.770
 6388W        W76269  44.503   1.398   3.782
 6389W        W76270   4.205  19.126  12.537
 6390W        W76271   9.844   0.889   1.864
 6391W        W76272  29.095  16.220  10.591
 6392W        W76273   0.817  25.528   2.200
 6393W        W76274   2.786  16.750  11.571
 6394W        W76275  28.586  42.809   1.324
 6395W        W76276  16.735  25.643  14.304
 6396W        W76277  24.488  24.479   1.778
 6397W        W76278  24.608  15.291   0.770
 6398W        W76279   2.966  42.467  11.543
 6399W        W76280   5.344  33.050  12.854
 6400W        W76281  33.892  28.151  14.484
 6401W        W76282  18.137  25.131  11.981
 6402W        W76283  33.976  40.811   2.881
 6403W        W76284  42.827  33.896  12.552
 6404W        W76285  20.054  40.894  12.075
 6405W        W76286  37.542   2.934  10.956
 6406W        W76287  21.231  35.861  13.464
 6407W        W76288   1.285  22.699  10.472
 6408W        W76289  42.395   8.396  13.974
 6409W        W76290  42.475  15.623  10.446
 6410W        W76291  18.550  18.119  10.059
 6411W        W76292  29.106  42.983  11.571
 6412W        W76293  33.037  22.210   3.744
 6413W        W76294   9.389  44.386  11.460
 6414W        W76295  43.498  44.319  11.999
 6415W        W76296   1.776  44.308   5.086
 6416W        W76297  19.535  11.340   0.908
 6417W        W76298  38.004  30.592   4.266
 6418W        W76299   4.331   6.292   0.934
 6419W        W76300  35.915  30.558  13.417
 6420W        W76301  18.709  30.623  10.468
 6421W        W76302  14.288  43.764  11.591
 6422W        W76303  34.375  14.688   4.702
 6423W        W76304  39.005  24.975   0.727
 6424W        W76305  11.802  42.835  10.996
 6425W        W76306  24.214  20.660  14.852
 6426W        W76307   7.852  42.913  10.092
 6427W        W76308  12.818   3.805   0.838
 6428W        W76309  44.430  26.656  11.599
 6429W        W76310  13.602  32.408   3.826
 6430W        W76311  43.489  30.588   4.636
 6431W        W76312   5.221   1.358   0.857
 6432W        W76313  33.901  11.678  12.839
 6433W        W76314  11.811  23.513   3.341
 6434W        W76315  32.515   6.347  13.463
 6435W        W76316   6.830  43.822  11.100
 6436W        W76317  30.617  16.604  14.992
 6437W        W76318  32.076  36.942  11.926
 6438W        W76319  14.786  29.522   4.303
 6439W        W76320  29.580  29.159  12.354
 6440W        W76321  32.539   1.464  13.341
 6441W        W76322  14.662  31.467   0.448
 6442W        W76323  31.152   5.418   2.762
 6443W        W76324  31.964  40.877   4.691
 6444W        W76325  31.568  37.038  12.348
 6445W        W76326  10.813  42.993   4.833
 6446W        W76327  23.731  16.809  12.900
 6447W        W76328   8.662  13.278  10.574
 6448W        W76329  16.805  35.545  10.560
 6449W        W76330   6.199  16.659   4.168
 6450W        W76331  18.226  11.161   2.692
 6451W        W76332   1.421  41.852   1.874
 6452W        W76333   4.382  27.642  12.423
 6453W        W76334  44.440   0.879   1.342
 6454W        W76335  18.722  38.910   0.479
 6455W        W76336  27.465  38.982  14.875
 6456W        W76337  40.344  42.968   3.694
 6457W        W76338  10.288  31.922  14.288
 6458W        W76339   1.955  11.720  11.068
 6459W        W76340  15.322   9.707   4.675
 6460W        W76341   4.774  39.420   3.675
 6461W        W76342  33.592  18.566   4.712
 6462W        W76343  10.691  34.039   2.742
 6463W        W76344   9.648  20.661   4.630
 6464W        W76345  32.423   7.416   1.883
 6465W        W76346  33.042  36.999   4.224
 6466W        W76347  25.168   8.815  11.479
 6467W        W76348  12.180  36.972  14.456
 6468W        W76349  22.125  13.613  13.414
 6469W        W76350  40.041  14.654  12.501
 6470W        W76351  15.701  40.346   4.823
 6471W        W76352  26.143  11.343  12.023
 6472W        W76353  38.828   3.840   2.314
 6473W        W76354   0.960  43.879  10.966
 6474W        W76355  14.810  21.754  10.515
 6475W        W76356  19.174  24.639  12.351
 6476W        W76357   0.975  12.311   1.308
 6477W        W76358  38.928  30.619   3.655
 6478W        W76359  23.668   9.351  12.905
 6479W        W76360  43.835   4.753   2.896
 6480W        W76361  11.766  22.560  13.041
 6481W        W76362  34.547  19.190   4.675
 6482W        W76363  19.113  19.173  11.044
 6483W        W76364  14.678   0.748   4.254
 6484W        W76365  34.529   3.740   2.818
 6485W        W76366  36.897   0.980  13.966
 6486W        W76367  38.454   0.293  13.307
 6487W        W76368  34.087  42.445   3.282
 6488W        W76369  13.836  16.287   4.191
 6489W        W76370   6.274  33.980  14.822
 6490W        W76371  43.974  33.563   3.183
 6491W        W76372   1.394   2.887   4.219
 6492W        W76373   8.294   2.886  12.894
 6493W        W76374  34.602  11.168  12.880
 6494W        W76375  35.365   2.354   3.759
 6495W        W76376  31.539  23.524  12.893
 6496W        W76377  40.018  17.149  12.580
 6497W        W76378  41.520  17.669   4.723
 6498W        W76379  21.607  28.003  13.046
 6499W        W76380  28.977  24.023   1.758
 6500W        W76381   7.336   8.667   1.771
 6501W        W76382  37.023  40.390   0.961
 6502W        W76383  10.187   3.412   4.667
 6503W        W76384   8.792  42.388   3.267
 6504W        W76385  32.023  11.648  10.988
 6505W        W76386  28.968  26.487   3.316
 6506W        W76387  33.949  44.405  14.790
 6507W        W76388  15.700  10.290   0.454
 6508W        W76389  25.644  38.436  11.399
 6509W        W76390   1.353   3.436   2.205
 6510W        W76391  41.402  36.458   4.684
 6511W        W76392  40.388  35.533  11.093
 6512W        W76393   5.199  35.397  14.496
 6513W        W76394  36.537   7.173   3.241
 6514W        W76395  26.054  42.365  12.832
 6515W        W76396  43.802  39.417  12.012
 6516W        W76397  17.258  31.049  14.411
 6517W        W76398  27.448  42.901  14.973
 6518W        W76399  32.031  33.994  12.550
 6519W        W76400  18.579  34.447  13.902
 6520W        W76401  21.569  32.912  11.440
 6521W        W76402  26.673   3.385  13.366
 6522W        W76403   4.400   5.848   2.193
 6523W        W76404  34.497  42.527   1.868
 6524W        W76405  41.293  38.464   4.644
 6525W        W76406  20.749  21.049  13.346
 6526W        W76407  16.769  22.550   0.792
 6527W        W76408  37.947  17.697   2.399
 6528W        W76409  23.187   5.228   0.943
 6529W        W76410  15.089  36.061  12.529
 6530W        W76411   2.734  17.615  12.378
 6531W        W76412  34.503   7.757  12.511
 6532W        W76413  17.710  34.475   0.924
 6533W        W76414  35.105  10.715  11.509
 6534W        W76415  38.568   2.967   0.818
 6535W        W76416  20.258  35.045   0.358
 6536W        W76417  21.169  41.958   3.279
 6537W        W76418   1.762  26.688   1.800
 6538W        W76419   1.744  34.006   1.291
 6539W        W76420  36.842  15.192   3.840
 6540W        W76421  17.173  13.345  13.038
 6541W        W76422  22.231  34.884  14.793
 6542W        W76423  21.116  28.087  13.484
 6543W        W76424   3.873  30.508  11.878
 6544W        W76425  25.605  42.998  12.918
 6545W        W76426  10.662  14.595  10.894
 6546W        W76427   9.793   7.903   0.844
 6547W        W76428  20.646  11.657   3.346
 6548W        W76429   3.757  27.133  14.450
 6549W        W76430   9.837  39.012  12.543
 6550W        W76431  28.574   4.781   5.264
 6551W        W76432  17.759  21.525  11.906
 6552W        W76433   9.204  33.591  14.464
 6553W        W76434  32.473   7.833   1.725
 6554W        W76435   0.320  32.982   3.837
 6555W        W76436  17.070  42.421   3.865
 6556W        W76437  25.622  16.157  12.070
 6557W        W76438   3.326  18.171  14.013
 6558W        W76439  36.954   3.739  14.366
 6559W        W76440  15.164  38.494  14.483
 6560W        W76441  10.219  14.331   4.676
 6561W        W76442  36.982  23.170  12.472
 6562W        W76443  18.771  42.409   3.165
 6563W        W76444  10.758  28.494  14.909
 6564W        W76445   7.782  42.374  11.386
 6565W        W76446  38.566  36.986  11.577
 6566W        W76447  31.088   9.331  13.394
 6567W        W76448   9.339  24.519  10.463
 6568W        W76449  43.507  31.122   1.345
 6569W        W76450  26.613  41.402  13.009
 6570W        W76451  41.855   6.861   1.352
 6571W        W76452  19.774  27.075  11.613
 6572W        W76453   4.286   9.165  12.095
 6573W        W76454  25.180  23.170   0.879
 6574W        W76455  32.543  34.878   3.337
 6575W        W76456  37.844  20.738  12.560
 6576W        W76457   2.808  33.499  13.439
 6577W        W76458  23.519  41.294   2.310
 6578W        W76459  21.067  28.154  14.813
 6579W        W76460  11.737  23.656   0.843
 6580W        W76461  42.957  44.343   5.233
 6581W        W76462  20.228  43.906  10.454
 6582W        W76463   8.899   0.442   9.984
 6583W        W76464  41.516  10.199   3.692
 6584W        W76465  14.662  30.484   5.310
 6585W        W76466  29.646  24.708   4.300
 6586W        W76467  17.650   4.920   1.348
 6587W        W76468  27.028   9.155   1.435
 6588W        W76469  16.286  42.808   0.899
 6589W        W76470  42.869  30.140  14.304
 6590W        W76471  15.766   5.398  12.378
 6591W        W76472  27.097  28.132   4.778
 6592W        W76473   3.343  27.497   3.301
 6593W        W76474   5.918   6.873  14.773
 6594W        W76475  32.992  32.967  11.928
 6595W        W76476  17.615   8.195  11.086
 6596W        W76477   8.240  10.305   1.718
 6597W        W76478  33.488  21.556  12.060
 6598W        W76479   6.798  39.509  14.449
 6599W        W76480  41.881  32.605   1.265
 6600W        W76481  40.816  13.618  14.924
 6601W        W76482  21.720  19.217   0.410
 6602W        W76483  23.615  24.012  14.998
 6603W        W76484  43.003  29.480  12.447
 6604W        W76485  22.545  27.114  11.394
 6605W        W76486  34.060   5.741  12.093
 6606W        W76487  41.819  42.519   4.132
 6607W        W76488  11.772  22.102   1.815
 6608W        W76489  18.658  37.941   3.674
 6609W        W76490   1.366  15.298  14.784
 6610W        W76491  14.621  23.038   0.825
 6611W        W76492  31.108  20.640   2.750
 6612W        W76493  40.028  19.596   1.435
 6613W        W76494  39.983  37.421  10.564
 6614W        W76495  29.495   0.270   4.781
 6615W        W76496  28.061  15.100  14.795
 6616W        W76497  25.071   0.373   1.291
 6617W        W76498   5.362  39.914  14.909
 6618W        W76499  43.453  15.598  11.938
 6619W        W76500  14.592   8.290   0.810
 6620W        W76501   7.348  27.473  14.328
 6621W        W76502  14.317  26.475   0.398
 6622W        W76503   3.255  20.090   0.449
 6623W        W76504  26.965   5.193  14.416
 6624W        W76505   5.256  40.878   0.370
 6625W        W76506   5.407  24.647  14.910
 6626W        W76507  16.703  20.637   3.785
 6627W        W76508  26.659   8.655   1.323
 6628W        W76509   5.802  20.225  11.542
 6629W        W76510  25.603  30.938   2.884
 6630W        W76511  28.493   6.855  10.470
 6631W        W76512  40.419  18.675  10.444
 6632W        W76513   1.346  25.536  14.997
 6633W        W76514  13.187  16.795   4.778
 6634W        W76515   9.158   5.759  14.331
 6635W        W76516   1.949   9.358  12.413
 6636W        W76517  18.115  11.801  13.420
 6637W        W76518  13.815  15.628   3.827
 6638W        W76519  38.920   2.365  12.941
 6639W        W76520  10.253  12.829  12.446
 6640W        W76521  42.863   5.206  12.427
 6641W        W76522  19.130  18.185   4.301
 6642W        W76523  32.489  22.995   0.376
 6643W        W76524  44.813  23.059  11.939
 6644W        W76525  35.518  36.423   2.264
 6645W        W76526  17.650  23.664   4.196
 6646W        W76527  24.610  22.217   4.239
 6647W        W76528  16.676   0.418  14.822
 6648W        W76529   7.885  10.743  12.454
 6649W        W76530  36.550  11.863  12.578
 6650W        W76531  20.531   0.829   2.354
 6651W        W76532  40.937  10.210  10.144
 6652W        W76533  43.351  40.877  11.406
 6653W        W76534   7.780  24.531  13.403
 6654W        W76535  18.110  31.540   4.307
 6655W        W76536  31.097  10.263   3.149
 6656W        W76537  33.086  35.400  12.002
 6657W        W76538  15.751  33.512  13.504
 6658W        W76539   4.859  19.262  10.888
 6659W        W76540  31.441  31.959  10.474
 6660W        W76541  21.256  11.166   4.267
 6661W        W76542  28.484   9.882   3.185
 6662W        W76543  26.560   6.303   0.838
 6663W        W76544  16.075  38.420   5.304
 6664W        W76545  22.601  23.495   1.271
 6665W        W76546  37.469   9.218   3.644
 6666W        W76547  23.060  23.654  11.889
 6667W        W76548   0.412  40.803  11.037
 6668W        W76549   7.679  33.030  11.434
 6669W        W76550  32.614  40.860   4.232
 6670W        W76551   3.380  12.660  12.404
 6671W        W76552  27.605  28.532   0.311
 6672W        W76553  28.497  33.540   2.218
 6673W        W76554  32.392   7.296   0.946
 6674W        W76555  33.082  14.337  14.312
 6675W        W76556  24.073   6.227   3.351
 6676W        W76557  21.596  38.500  13.482
 6677W        W76558  25.591  12.790  14.345
 6678W        W76559  13.267  42.905   3.277
 6679W        W76560  43.413  34.441   1.359
 6680W        W76561  24.050  23.196  13.326
 6681W        W76562  16.584  15.582  11.450
 6682W        W76563  40.388  43.408   1.750
 6683W        W76564  25.011  41.337   1.278
 6684W        W76565  39.916  31.539   3.820
 6685W        W76566  30.543  43.410  14.420
 6686W        W76567  29.058   7.693   3.271
 6687W        W76568   8.168  19.172   4.179
 6688W        W76569  28.463   2.258   0.778
 6689W        W76570  17.634  34.886  10.537
 6690W        W76571   8.361  39.534  14.811
 6691W        W76572   4.243  16.124  13.049
 6692W        W76573   7.254  43.948   1.400
 6693W        W76574  18.613  25.116  10.934
 6694W        W76575   5.247  11.716  11.481
 6695W        W76576  11.747  18.685  12.568
 6696W        W76577  35.397  13.121  12.093
 6697W        W76578  10.742  33.571   1.917
 6698W        W76579  31.480   2.430   3.850
 6699W        W76580   9.818  34.387  10.493
 6700W        W76581   8.180  13.266  12.932
 6701W        W76582  27.182  22.631   1.238
 6702W        W76583  31.459  12.676  13.965
 6703W        W76584  30.034  19.711  11.378
 6704W        W76585  26.676  44.974   0.860
 6705W        W76586  13.315  27.097  10.593
 6706W        W76587   1.476  25.515  13.457
 6707W        W76588   3.768  41.876  12.861
 6708W        W76589  39.326   0.837  11.409
 6709W        W76590  27.954   6.765  12.011
 6710W        W76591   0.776  10.831  11.412
 6711W        W76592  17.696  27.943   9.994
 6712W        W76593  40.847   0.342  10.989
 6713W        W76594  42.294   6.813  10.539
 6714W        W76595  31.932  39.514   2.262
 6715W        W76596  10.742  41.020  12.534
 6716W        W76597  28.536  21.166   4.175
 6717W        W76598  38.361  36.508  10.907
 6718W        W76599  14.662  31.464  12.544
 6719W        W76600  35.097  13.825  11.433
 6720W        W76601  28.069  22.038  13.869
 6721W        W76602   6.769  43.415   2.898
 6722W        W76603  26.972  30.562   1.771
 6723W        W76604  23.527   0.271   2.185
 6724W        W76605  40.850   1.482   0.451
 6725W        W76606  17.302  28.572   3.155
 6726W        W76607  31.480  17.115   2.385
 6727W        W76608  15.172  39.531   4.601
 6728W        W76609  44.281  31.410  12.444
 6729W        W76610   1.348  32.508  12.905
 6730W        W76611  39.929  26.960   2.873
 6731W        W76612   2.431  39.855  13.873
 6732W        W76613  22.696  34.570   2.718
 6733W        W76614  30.565   9.828  11.502
 6734W        W76615  29.030  36.519   4.262
 6735W        W76616  35.079   3.777  13.908
 6736W        W76617  10.276  10.770   2.309
 6737W        W76618  33.435   1.798   1.809
 6738W        W76619  25.020  19.092  12.990
 6739W        W76620  29.648  35.861  10.042
 6740W        W76621   6.691  43.437   3.783
 6741W        W76622  30.607   2.318  11.055
 6742W        W76623   3.301   0.291   3.806
 6743W        W76624  26.639   4.906  14.369
 6744W        W76625  40.034  22.652  10.971
 6745W        W76626  31.585  30.950  10.921
 6746W        W76627  26.505  22.634  14.318
 6747W        W76628  44.828  12.642  13.963
 6748W        W76629  40.314  25.048  12.853
 6749W        W76630   0.369  38.876   2.810
 6750W        W76631   8.232   6.296   3.757
 6751W        W76632  21.150  37.928   2.296
 6752W        W76633  24.676  29.607   4.312
 6753W        W76634   4.328  25.701  13.508
 6754W        W76635  43.002  27.137  13.924
 6755W        W76636   5.385   4.368  13.525
 6756W        W76637  20.624  36.450   0.448
 6757W        W76638  26.516  26.473   5.276
 6758W        W76639  34.034   0.805  13.003
 6759W        W76640  15.289  23.562   4.284
 6760W        W76641  22.166  12.115  13.356
 6761W        W76642   0.980   4.409  10.903
 6762W        W76643  10.238  15.277   4.198
 6763W        W76644  22.595  38.003   1.886
 6764W        W76645  39.424   2.881   1.699
 6765W        W76646  20.541  28.127   4.686
 6766W        W76647  35.594  33.005  10.535
 6767W        W76648  23.116  17.742   3.338
 6768W        W76649   4.235  26.532   0.301
 6769W        W76650  23.504  16.673   5.171
 6770W        W76651  19.073  15.289   2.842
 6771W        W76652  13.843  13.193  12.404
 6772W        W76653  35.890   2.310  12.869
 6773W        W76654   1.842   7.287   0.350
 6774W        W76655   0.341  15.105   3.151
 6775W        W76656  37.870  10.851  13.547
 6776W        W76657  25.578  37.410  12.940
 6777W        W76658  38.838  40.429   4.755
 6778W        W76659  22.579   7.832   3.789
 6779W        W76660  25.034  30.618   4.251
 6780W        W76661  38.552  33.403   2.712
 6781W        W76662  15.087  19.775   4.238
 6782W        W76663  36.445  22.609   0.436
 6783W        W76664   8.881  12.239   1.756
 6784W        W76665  40.441   7.900   3.371
 6785W        W76666  38.412  38.478  13.899
 6786W        W76667  20.031  39.887  13.338
 6787W        W76668  33.423  26.699   1.918
 6788W        W76669  39.529  34.090   4.808
 6789W        W76670  15.691  22.514   0.372
 6790W        W76671  17.777  14.767   1.290
 6791W        W76672  12.758   6.242  10.643
 6792W        W76673  40.952   4.922  14.942
 6793W        W76674   4.768  30.059  11.462
 6794W        W76675  19.578  28.066  14.020
 6795W        W76676  16.151  40.305   3.736
 6796W        W76677  25.698  10.146   2.300
 6797W        W76678  12.118  14.121   2.840
 6798W        W76679  33.114  11.301   1.366
 6799W        W76680  44.871   3.410   2.180
 6800W        W76681   0.491  43.834  13.342
 6801W        W76682  37.385  12.318  11.976
 6802W        W76683  25.140   5.705   0.813
 6803W        W76684   5.293  13.281   0.446
 6804W        W76685  43.465  20.234   2.863
 6805W        W76686  28.929   6.734   5.087
 6806W        W76687  18.090  14.280   4.148
 6807W        W76688  31.916   9.848  14.961
 6808W        W76689  10.843  33.923   4.246
 6809W        W76690  27.151  34.497   2.185
 6810W        W76691  30.038   9.261  10.621
 6811W        W76692  12.158  13.167  14.953
 6812W        W76693  27.634  10.746   3.146
 6813W        W76694   6.876  35.504   1.887
 6814W        W76695  25.983  41.792  10.892
 6815W        W76696  21.106   4.318   1.264
 6816W        W76697  35.364  31.988  13.427
 6817W        W76698  21.708   8.385  12.495
 6818W        W76699  18.092  13.174  12.095
 6819W        W76700  11.821  12.196  11.453
 6820W        W76701  32.613   5.746   1.259
 6821W        W76702  15.677  44.477   4.632
 6822W        W76703   6.344   1.423   4.635
 6823W        W76704  27.082  14.152  11.965
 6824W        W76705  12.708   4.844   2.816
 6825W        W76706  14.323   8.310  12.890
 6826W        W76707  18.554   6.896  14.990
 6827W        W76708  38.052  21.736  14.409
 6828W        W76709   8.706  36.407  14.338
 6829W        W76710  30.961  40.857  10.607
 6830W        W76711  44.960  10.665  10.570
 6831W        W76712  40.922  30.438  13.496
 6832W        W76713  41.044   3.355   0.454
 6833W        W76714  38.061   1.463  14.027
 6834W        W76715  33.614  11.185  10.914
 6835W        W76716  39.403  12.855  14.364
 6836W        W76717  16.739  14.745   1.884
 6837W        W76718  25.124  41.338  14.461
 6838W        W76719  28.932   9.874  12.871
 6839W        W76720  32.959  44.396   2.237
 6840W        W76721  15.089  15.589   1.383
 6841W        W76722  16.163  36.045   1.839
 6842W        W76723  27.020  37.394  11.530
 6843W        W76724   1.915  32.481  12.901
 6844W        W76725   8.884   1.259   3.828
 6845W        W76726  17.296  33.975   1.694
 6846W        W76727  32.585  17.269  12.905
 6847W        W76728  44.957   0.953   1.715
 6848W        W76729   8.888  11.233  14.820
 6849W        W76730  33.040  40.473   0.889
 6850W        W76731  14.127  38.035   1.301
 6851W        W76732  41.355   2.814  14.466
 6852W        W76733  21.724  12.854  14.285
 6853W        W76734  27.153  20.712  10.603
 6854W        W76735  13.169   6.398  10.964
 6855W        W76736  30.075  32.398   3.868
 6856W        W76737  17.253  32.037  12.829
 6857W        W76738  35.951   8.769   4.119
 6858W        W76739  16.779  38.394   3.183
 6859W        W76740   4.231  16.246  11.463
 6860W        W76741   3.252  16.778  11.577
 6861W        W76742   6.414  40.545   3.157
 6862W        W76743  16.138  32.032   4.146
 6863W        W76744   1.337  30.481   2.325
 6864W        W76745  37.900   8.815   2.217
 6865W        W76746  21.170  33.024  10.915
 6866W        W76747  42.002  29.617   4.220
 6867W        W76748   1.372  39.041  12.981
 6868W        W76749   2.309  29.559   1.821
 6869W        W76750  24.613  44.978   0.465
 6870W        W76751  20.661  34.530   1.446
 6871W        W76752   7.832  18.262  13.905
 6872W        W76753  42.803   8.678   0.409
 6873W        W76754   6.791  42.395  12.416
 6874W        W76755  14.747  31.599   2.303
 6875W        W76756  13.229  16.111  13.363
 6876W        W76757  18.580   7.836   4.734
 6877W        W76758   0.895  39.489   4.783
 6878W        W76759  42.505  12.181  12.825
 6879W        W76760  39.501  30.055  13.938
 6880W        W76761  29.014  28.672   4.615
 6881W        W76762   8.855  14.638  14.764
 6882W        W76763   2.807  18.585  13.955
 6883W        W76764  43.389  30.948   3.629
 6884W        W76765  17.698  12.836  10.491
 6885W        W76766   5.778  19.755   4.778
 6886W        W76767  33.620  26.638  10.608
 6887W        W76768  42.287  26.563  14.992
 6888W        W76769  18.575  28.090   4.737
 6889W        W76770  10.835   8.794   5.136
 6890W        W76771  34.518  25.060  14.953
 6891W        W76772  16.613  36.438   4.696
 6892W        W76773  28.008  40.017  14.815
 6893W        W76774  18.177  22.141   4.666
 6894W        W76775  26.139  37.920  14.364
 6895W        W76776  42.334  30.479   1.372
 6896W        W76777   1.365  15.658  11.872
 6897W        W76778   0.415   7.406  10.994
 6898W        W76779  23.590  35.883   1.710
 6899W        W76780  42.998  10.755  13.475
 6900W        W76781  17.283  10.179   5.150
 6901W        W76782   1.338  25.676   1.920
 6902W        W76783  18.660  21.163   2.244
 6903W        W76784   8.716  41.855  11.518
 6904W        W76785  38.510  21.023  12.847
 6905W        W76786  26.702  33.083   1.245
 6906W        W76787  31.981  37.339  12.905
 6907W        W76788  10.365  11.267  13.545
 6908W        W76789  11.276  10.373  13.517
 6909W        W76790  26.191  19.178  12.374
 6910W        W76791  27.945  29.127  14.304
 6911W        W76792  23.057  19.256   0.921
 6912W        W76793  11.627   8.360   0.846
 6913W        W76794  42.921  11.133   4.821
 6914W        W76795  33.405  21.064  11.983
 6915W        W76796   1.400  39.895  12.895
 6916W        W76797  36.575  42.887  11.862
 6917W        W76798   7.216  11.738   4.750
 6918W        W76799  35.364  40.822   3.703
 6919W        W76800  35.900  44.435   1.801
 6920W        W76801  18.173  35.050  10.998
 6921W        W76802   1.816  19.099  11.100
 6922W        W76803   1.731  31.903   0.427
 6923W        W76804  28.504  39.355  14.991
 6924W        W76805  22.080  31.546  13.491
 6925W        W76806  21.728   5.779  13.948
 6926W        W76807  34.032  28.496   4.606
 6927W        W76808  41.491  11.328  13.996
 6928W        W76809  16.754  31.548  14.868
 6929W        W76810  29.974  35.025  12.894
 6930W        W76811  40.959  26.511  10.557
 6931W        W76812  14.796  38.929  12.511
 6932W        W76813  32.571  23.001   3.169
 6933W        W76814  20.606  14.784   2.410
 6934W        W76815  43.013  33.596  14.406
 6935W        W76816   5.368  32.441   0.920
 6936W        W76817   5.429  42.339   4.142
 6937W        W76818  37.871   6.384   2.867
 6938W        W76819  32.484  40.418   3.329
 6939W        W76820  31.632  26.181   0.786
 6940W        W76821  40.025  17.671   1.854
 6941W        W76822  10.227   7.270   1.307
 6942W        W76823  29.013  29.659  12.953
 6943W        W76824  25.577  33.483  11.070
 6944W        W76825  35.981  38.840   2.307
 6945W        W76826  33.435  23.635   0.393
 6946W        W76827  22.706  11.776  10.914
 6947W        W76828  26.700  10.354  14.908
 6948W        W76829   7.240  34.531  12.997
 6949W        W76830  14.593  41.444  13.355
 6950W        W76831  40.856  15.217   1.833
 6951W        W76832  22.671  11.828  12.947
 6952W        W76833  35.866   1.432   1.408
 6953W        W76834   5.389  13.673  12.912
 6954W        W76835  31.412   3.294   1.426
 6955W        W76836  30.567   5.869   3.156
 6956W        W76837  30.138  12.188  12.429
 6957W        W76838   9.827  11.333   2.892
 6958W        W76839  12.711  34.472  15.000
 6959W        W76840  25.531  37.466  12.092
 6960W        W76841  28.153  24.107  14.476
 6961W        W76842  39.026  33.445  12.886
 6962W        W76843  44.835  19.662  13.956
 6963W        W76844  27.155  20.693   1.330
 6964W        W76845  10.781  41.459   0.329
 6965W        W76846  25.120   3.817   1.379
 6966W        W76847  19.146   8.280   1.333
 6967W        W76848   0.868  43.914  14.393
 6968W        W76849  21.076   4.415  13.473
 6969W        W76850  35.045  12.286   0.401
 6970W        W76851   5.418   2.268   0.300
 6971W        W76852  36.034   9.792  13.391
 6972W        W76853  26.952  32.946   1.415
 6973W        W76854   9.339  26.465  14.375
 6974W        W76855   2.388  33.584   2.898
 6975W        W76856  40.535  32.072   0.772
 6976W        W76857  22.676  23.636   3.365
 6977W        W76858  32.575  28.050  12.433
 6978W        W76859   6.242  42.300  13.030
 6979W        W76860  35.560   4.310  13.423
 6980W        W76861  21.090  30.484   4.692
 6981W        W76862  26.052   7.346  11.453
 6982W        W76863  30.616  43.793   2.361
 6983W        W76864  27.556  38.505   1.766
 6984W        W76865   0.467  23.601   3.328
 6985W        W76866  27.169  35.012   1.776
 6986W        W76867  44.268  42.916   0.923
 6987W        W76868  26.521  16.283   0.454
 6988W        W76869  28.979  32.915  14.023
 6989W        W76870  15.259  41.787  14.907
 6990W        W76871  23.064  14.683  10.495
 6991W        W76872  26.543  20.042   3.825
 6992W        W76873  14.189  40.418  13.944
 6993W        W76874  17.296  17.606   4.605
 6994W        W76875  39.534  11.805   2.366
 6995W        W76876  10.860  41.820  10.573
 6996W        W76877  19.266  27.610  10.570
 6997W        W76878   1.838  32.013   1.306
 6998W        W76879  21.744  24.168   4.331
 6999W        W76880  20.226  15.725   1.751
 7000W        W76881  23.127  11.262  12.541
 7001W        W76882   6.870  20.237   0.775
 7002W        W76883  18.285  15.762   0.960
 7003W        W76884  25.493  24.129   4.733
 7004W        W76885  37.902   8.670   1.842
 7005W        W76886  43.849   1.780  12.889
 7006W        W76887   0.956  36.475   1.447
 7007W        W76888  17.793  39.831   3.350
 7008W        W76889  32.020  34.412   4.119
 7009W        W76890  38.985  35.433   2.786
 7010W        W76891  19.581   9.727  11.494
 7011W        W76892  25.617   1.955  11.066
 7012W        W76893  41.859  26.086   2.362
 7013W        W76894   0.907   1.287   2.278
 7014W        W76895  24.689   9.278   3.334
 7015W        W76896  10.197  44.791   4.210
 7016W        W76897  35.467  20.273  14.867
 7017W        W76898  31.939  34.613   2.371
 7018W        W76899  33.505  26.971  11.101
 7019W        W76900  16.135  14.613   3.244
 7020W        W76901  30.424   0.972  11.558
 7021W        W76902   3.252  10.164   4.708
 7022W        W76903  13.257  11.775  12.578
 7023W        W76904  11.223  19.202   1.695
 7024W        W76905   4.704  14.638  11.528
 7025W        W76906  12.174  28.597  13.808
 7026W        W76907  11.653  27.184  11.069
 7027W        W76908  18.184  34.031  13.853
 7028W        W76909  17.302  25.471   2.743
 7029W        W76910  21.093  16.736   4.615
 7030W        W76911  40.871  23.240   0.758
 7031W        W76912   9.877  10.266  10.514
 7032W        W76913  25.489  26.990   4.165
 7033W        W76914  28.544  34.966  12.992
 7034W        W76915  30.567  37.520  13.925
 7035W        W76916  18.265  30.951  11.111
 7036W        W76917  32.968  30.925   3.238
 7037W        W76918   4.819  23.071  14.368
 7038W        W76919  40.445  37.962  14.922
 7039W        W76920   0.421  17.780   3.778
 7040W        W76921   8.741   6.408  11.066
 7041W        W76922  29.932  37.981   2.888
 7042W        W76923  32.929  34.888  14.447
 7043W        W76924  35.863  40.398  12.426
 7044W        W76925  28.061  22.134   4.149
 7045W        W76926  36.017  23.666  12.982
 7046W        W76927  40.873  18.253  12.392
 7047W        W76928  13.244   6.881  13.933
 7048W        W76929  29.517  15.716   3.153
 7049W        W76930   0.487  19.741   2.683
 7050W        W76931  36.502  15.681   4.301
 7051W        W76932   8.818  30.101   1.334
 7052W        W76933  37.930  31.114   2.850
 7053W        W76934  23.702  14.656   4.629
 7054W        W76935  23.726  13.131  13.407
 7055W        W76936   2.403  37.447  14.282
 7056W        W76937   6.333  41.490   1.246
 7057W        W76938   2.736  31.076   0.763
 7058W        W76939  15.780  33.430  14.308
 7059W        W76940  24.610  33.945   4.712
 7060W        W76941  27.164  39.337   1.725
 7061W        W76942  41.898  36.860  12.505
 7062W        W76943  10.750   9.754  14.868
 7063W        W76944  29.661  42.454  11.410
 7064W        W76945  25.598  37.385   4.691
 7065W        W76946  13.157  30.150   5.749
 7066W        W76947  29.613   7.714  13.057
 7067W        W76948  11.675  30.980   2.286
 7068W        W76949   1.736   2.324  14.382
 7069W        W76950  20.245   0.308  10.893
 7070W        W76951   8.698  34.071  14.403
 7071W        W76952  19.079  16.709  10.940
 7072W        W76953  21.115   6.358  11.504
 7073W        W76954  44.334  20.166  12.472
 7074W        W76955   2.463  17.305   4.217
 7075W        W76956  41.902  37.984  10.537
 7076W        W76957  13.206  21.247  14.282
 7077W        W76958   9.178   6.339   1.814
 7078W        W76959  39.868  43.324   1.225
 7079W        W76960  35.595  17.592   0.963
 7080W        W76961  39.411  16.732  12.410
 7081W        W76962  18.778  37.345   0.878
 7082W        W76963  33.606   5.760  14.930
 7083W        W76964  35.487   5.877  13.005
 7084W        W76965   6.370  14.123   1.397
 7085W        W76966  41.903  43.427  12.854
 7086W        W76967  20.756  15.813  10.126
 7087W        W76968  40.350  42.302   2.363
 7088W        W76969  21.148   1.835   3.706
 7089W        W76970  37.448   3.314  11.393
 7090W        W76971  10.715  26.125   4.150
 7091W        W76972  27.160  16.775  10.569
 7092W        W76973  27.464   0.360   1.718
 7093W        W76974   5.919  34.991   4.295
 7094W        W76975  25.198  17.721  14.982
 7095W        W76976  44.354  38.519  14.802
 7096W        W76977  40.479  12.285  14.415
 7097W        W76978  30.146  33.497   3.727
 7098W        W76979  40.898  43.355  14.281
 7099W        W76980  24.626   0.810  12.356
 7100W        W76981  16.773  44.806  11.009
 7101W        W76982  22.197  10.743   4.757
 7102W        W76983  17.780  35.443   1.770
 7103W        W76984  16.757   4.404  12.374
 7104W        W76985  13.666  13.154  11.521
 7105W        W76986  12.157   3.434  11.409
 7106W        W76987  15.179  13.286   2.840
 7107W        W76988  29.658  16.074   4.147
 7108W        W76989  30.014  31.918  14.479
 7109W        W76990  43.482   9.792   1.234
 7110W        W76991  38.898  23.589  11.441
 7111W        W76992  36.842   4.372  10.545
 7112W        W76993   1.839  38.369  13.874
 7113W        W76994   7.175  27.495   3.173
 7114W        W76995  26.587   9.286   0.767
 7115W        W76996   4.751  22.671  11.381
 7116W        W76997  32.983  21.090  11.538
 7117W        W76998   0.347  29.167  11.435
 7118W        W76999  25.617  26.025  14.327
 7119W        W77000   7.771  37.565   4.647
 7120W        W77001  38.049  42.776   1.836
 7121W        W77002  30.561  33.434   2.270
 7122W        W77003  18.202   6.714   1.775
 7123W        W77004  36.062  13.244   3.714
 7124W        W77005  33.461  12.213  10.087
 7125W        W77006   0.829  37.450   9.931
 7126W        W77007  27.597  31.017  14.352
 7127W        W77008  11.698  21.697  13.801
 7128W        W77009  28.621  34.485  12.436
 7129W        W77010  19.590  13.281  12.013
 7130W        W77011   9.789  17.101   4.725
 7131W        W77012  33.123  43.509   4.673
 7132W        W77013  31.516  29.090   3.302
 7133W        W77014  21.163  29.137  12.080
 7134W        W77015  24.058  11.345   1.327
 7135W        W77016  24.145  23.138   3.351
 7136W        W77017  42.416  17.623  14.504
 7137W        W77018  27.029  14.107  12.504
 7138W        W77019  40.939  33.942  10.593
 7139W        W77020  33.449  41.031   2.748
 7140W        W77021  44.331  21.090   4.645
 7141W        W77022  24.722  35.859  12.410
 7142W        W77023  30.025  16.089   3.781
 7143W        W77024  11.863   5.827  13.392
 7144W        W77025  18.778  39.913  12.989
 7145W        W77026  17.712  10.174  11.444
 7146W        W77027  14.724  12.144   2.723
 7147W        W77028  35.409  42.861   3.197
 7148W        W77029   3.772  43.376   2.328
 7149W        W77030  28.163  17.630  11.116
 7150W        W77031  28.046  24.704   1.806
 7151W        W77032  34.389   2.254   0.271
 7152W        W77033  42.468  15.247   0.841
 7153W        W77034   5.883  15.794  14.450
 7154W        W77035  42.028  38.409  13.401
 7155W        W77036  37.927  32.525   4.130
 7156W        W77037  20.598   0.948  11.496
 7157W        W77038  39.862  33.899  11.051
 7158W        W77039  29.028  32.403  10.526
 7159W        W77040   2.792   9.367  10.421
 7160W        W77041  24.704  30.605   4.196
 7161W        W77042  25.108  43.866  14.310
 7162W        W77043  20.621  41.838  10.531
 7163W        W77044  22.048  19.102   5.228
 7164W        W77045  12.758  13.654   0.249
 7165W        W77046  27.635  38.403   2.184
 7166W        W77047  26.968   9.648  11.939
 7167W        W77048  19.246  25.149  11.426
 7168W        W77049  28.029   5.258  11.089
 7169W        W77050  32.547  24.183  10.478
 7170W        W77051   8.217  15.616  12.848
 7171W        W77052  21.060  10.306   2.825
 7172W        W77053  21.172  34.012  11.087
 7173W        W77054   3.856   9.224   3.191
 7174W        W77055   7.331  27.679   1.390
 7175W        W77056   2.285  40.906  11.496
 7176W        W77057   0.451  33.896   2.212
 7177W        W77058  15.322  18.740  13.987
 7178W        W77059   8.170  33.886   3.287
 7179W        W77060  29.983   3.408  13.424
 7180W        W77061  13.767  28.096  12.929
 7181W        W77062  34.028  19.282  13.379
 7182W        W77063  34.893  10.803  12.405
 7183W        W77064   3.747  10.203   2.741
 7184W        W77065  30.967  38.420  13.471
 7185W        W77066   2.901   1.415   1.868
 7186W        W77067  14.214  39.551  14.793
 7187W        W77068  35.560   3.709   1.741
 7188W        W77069   8.379  38.039   3.787
 7189W        W77070  42.931   3.288   2.220
 7190W        W77071   6.821  37.888   3.161
 7191W        W77072   2.760  39.396   3.682
 7192W        W77073  28.595   5.860   1.835
 7193W        W77074  15.269  10.158   0.253
 7194W        W77075  29.460  16.140  14.900
 7195W        W77076  43.855  12.189   1.442
 7196W        W77077  31.002  20.673   1.373
 7197W        W77078  12.706  15.223  12.537
 7198W        W77079   9.362  35.412  10.950
 7199W        W77080   8.793  29.121  12.866
 7200W        W77081   0.323  18.207   2.336
 7201W        W77082  31.448  27.129   3.666
 7202W        W77083   2.363  11.852  13.327
 7203W        W77084  17.307   0.811   4.170
 7204W        W77085  44.954  21.222   4.343
 7205W        W77086  12.649  17.200  11.574
 7206W        W77087  24.651  14.166  13.330
 7207W        W77088  14.223  30.636   4.830
 7208W        W77089  44.822  34.039  13.977
 7209W        W77090   7.759   1.746  11.525
 7210W        W77091  22.650   8.721   5.208
 7211W        W77092  17.189  40.405  11.074
 7212W        W77093  14.698   3.847   0.827
 7213W        W77094  26.084  32.557   1.213
 7214W        W77095  35.896  28.940   0.785
 7215W        W77096  41.386  44.836   1.722
 7216W        W77097  42.314  42.306   3.810
 7217W        W77098  18.707  36.521   2.886
 7218W        W77099  41.816  39.903   4.236
 7219W        W77100  31.031  21.195   5.094
 7220W        W77101  19.133  30.526  14.762
 7221W        W77102   8.716  41.910  14.788
 7222W        W77103  15.592  14.792   2.178
 7223W        W77104   6.882   2.910   1.833
 7224W        W77105   6.289   8.406  10.470
 7225W        W77106  36.870  38.909  13.032
 7226W        W77107  43.485  12.330  11.874
 7227W        W77108  12.342  17.583  13.991
 7228W        W77109  24.482  36.857  14.821
 7229W        W77110  33.126   2.379  13.524
 7230W        W77111  32.455  42.414  11.119
 7231W        W77112  24.594  37.857   2.219
 7232W        W77113   3.881   6.896  12.920
 7233W        W77114  44.265   7.897   3.154
 7234W        W77115  15.286  29.510  14.931
 7235W        W77116  40.016   7.675   4.731
 7236W        W77117   7.710  25.614  11.127
 7237W        W77118  32.411  39.478  10.621
 7238W        W77119  26.695  39.923  12.073
 7239W        W77120  17.174   2.791   1.398
 7240W        W77121  30.909  12.816   4.274
 7241W        W77122  14.329  39.010  10.448
 7242W        W77123   6.379   5.750   0.816
 7243W        W77124  25.492  28.955   0.861
 7244W        W77125   7.377  23.066   0.936
 7245W        W77126   7.781  30.097  14.969
 7246W        W77127  44.974   5.934   0.477
 7247W        W77128  10.311  29.054   4.326
 7248W        W77129  40.475   0.439  12.544
 7249W        W77130  37.475  37.844  12.421
 7250W        W77131   8.657  14.116  10.521
 7251W        W77132  42.441  32.011  13.922
 7252W        W77133  44.819  37.411   3.692
 7253W        W77134  17.068   3.895  10.905
 7254W        W77135  36.899  34.109  13.472
 7255W        W77136  32.605  30.489   0.304
 7256W        W77137   8.234  29.981  10.570
 7257W        W77138  31.025  26.471  10.589
 7258W        W77139  13.147  29.066  10.437
 7259W        W77140  27.094  35.578   4.236
 7260W        W77141  22.561  37.449   4.821
 7261W        W77142  40.362  22.236  13.936
 7262W        W77143   7.266  24.188   0.883
 7263W        W77144  17.085  14.121  13.378
 7264W        W77145  34.419   9.770  12.548
 7265W        W77146  10.281  33.534  11.108
 7266W        W77147  28.019   3.431  10.956
 7267W        W77148  36.543   9.312   0.300
 7268W        W77149  14.702  27.985  10.060
 7269W        W77150   9.777  21.596   3.776
 7270W        W77151   7.415  16.170   2.251
 7271W        W77152  26.554  31.133  13.029
 7272W        W77153  22.737  26.616   5.193
 7273W        W77154  25.095  28.972  14.851
 7274W        W77155   6.818   9.749   0.785
 7275W        W77156   6.785  23.681  10.507
 7276W        W77157  42.371  35.924   1.432
 7277W        W77158  26.121  15.154  14.403
 7278W        W77159  17.643  25.051   4.225
 7279W        W77160  27.083  14.817  12.544
 7280W        W77161  19.230  43.886   3.726
 7281W        W77162  18.233  32.631   4.800
 7282W        W77163  19.048  15.276   0.798
 7283W        W77164   0.771  21.233  14.285
 7284W        W77165  18.647  39.847   1.726
 7285W        W77166  33.599  36.444  10.914
 7286W        W77167  25.019   9.757  12.454
 7287W        W77168  22.241   3.220   2.676
 7288W        W77169  23.677   4.400  14.378
 7289W        W77170  34.529  12.712   0.301
 7290W        W77171  16.157  21.238  14.887
 7291W        W77172  31.647  12.849  12.455
 7292W        W77173  44.866  31.071  11.965
 7293W        W77174  17.066  24.560   3.347
 7294W        W77175  16.616  19.245   4.239
 7295W        W77176  14.279  34.881  12.930
 7296W        W77177  16.731   6.678  13.383
 7297W        W77178   1.767  24.106  12.996
 7298W        W77179  22.591  30.587   3.195
 7299W        W77180  31.142   2.342   2.765
 7300W        W77181  36.855   7.379   3.702
 7301W        W77182  26.695  11.157  14.987
 7302W        W77183  37.345  31.483  12.832
 7303W        W77184   2.355  19.712  10.607
 7304W        W77185  40.376  16.768   1.258
 7305W        W77186  38.841  16.628   4.628
 7306W        W77187  21.090  36.476   2.870
 7307W        W77188  37.920  15.192   3.339
 7308W        W77189   4.864  20.156   3.339
 7309W        W77190   9.348  33.970   3.732
 7310W        W77191  18.186  32.940   0.325
 7311W        W77192  26.594  34.912  11.006
 7312W        W77193  18.650  42.827  12.432
 7313W        W77194  22.585  42.989   3.821
 7314W        W77195  37.521  27.011  10.949
 7315W        W77196   9.268  14.303  10.026
 7316W        W77197  25.653  38.931   1.873
 7317W        W77198  43.505   9.365  13.994
 7318W        W77199   2.357  43.279   0.316
 7319W        W77200  37.471   5.290   4.332
 7320W        W77201  22.062  28.950   4.766
 7321W        W77202  34.902  31.411   0.918
 7322W        W77203  41.943  25.151   5.290
 7323W        W77204  23.530  41.431   1.300
 7324W        W77205   7.888  25.128   2.228
 7325W        W77206   5.818  19.175   4.732
 7326W        W77207  17.787  12.615  11.421
 7327W        W77208   0.269   0.307  13.899
 7328W        W77209   6.294  18.546  14.780
 7329W        W77210  14.282   8.883  14.856
 7330W        W77211  44.950  41.023   1.409
 7331W        W77212  39.518  10.768   0.744
 7332W        W77213   9.215   3.321   5.274
 7333W        W77214  30.617  40.843   4.706
 7334W        W77215  33.932   7.261   1.426
 7335W        W77216   5.328  29.618  10.635
 7336W        W77217  22.706  24.181   2.865
 7337W        W77218  32.407  43.356  14.482
 7338W        W77219  17.269  26.207  12.382
 7339W        W77220  26.594  39.386   4.311
 7340W        W77221  19.218  41.428  14.773
 7341W        W77222   6.232  39.917  13.834
 7342W        W77223   9.840   1.363  12.496
 7343W        W77224  25.556  18.677  10.491
 7344W        W77225   7.285  38.569  12.516
 7345W        W77226  37.023  29.171  14.990
 7346W        W77227   3.923  27.671   0.820
 7347W        W77228   8.757  39.385   2.239
 7348W        W77229   9.227  10.251  11.567
 7349W        W77230  44.912  43.791  10.504
 7350W        W77231  11.216  22.583  14.919
 7351W        W77232  20.189  44.822   1.826
 7352W        W77233   7.267  20.166   0.800
 7353W        W77234   6.334  34.068   4.623
 7354W        W77235   3.821  15.188  14.506
 7355W        W77236  22.563  20.100   4.746
 7356W        W77237  34.921   5.431   4.261
 7357W        W77238  31.015   1.947  12.497
 7358W        W77239  27.156  41.484   2.892
 7359W        W77240  11.198  34.553   2.378
 7360W        W77241  32.610  43.010   3.192
 7361W        W77242   1.396  12.729   0.394
 7362W        W77243  15.784  34.870  13.524
 7363W        W77244   5.851  28.484  13.547
 7364W        W77245  11.709  22.115   2.301
 7365W        W77246  41.808  10.793   4.323
 7366W        W77247  18.090  17.743   2.268
 7367W        W77248  13.191  28.480   5.191
 7368W        W77249  36.360  26.086  10.435
 7369W        W77250  14.804  28.543  11.412
 7370W        W77251  33.396  18.589  11.957
 7371W        W77252  18.185  15.248   2.748
 7372W        W77253  41.983  21.188  12.984
 7373W        W77254   2.423  40.930   1.908
 7374W        W77255  38.844   6.859  10.540
 7375W        W77256  38.568  23.622   0.405
 7376W        W77257  26.499  18.148   1.760
 7377W        W77258   5.350   0.920  11.951
 7378W        W77259  27.508  22.608   4.753
 7379W        W77260   9.297  39.932  11.545
 7380W        W77261  41.860  20.710  11.499
 7381W        W77262  40.516  18.293   3.820
 7382W        W77263  22.127  42.395   0.432
 7383W        W77264  40.405  26.521  11.574
 7384W        W77265  33.387  24.160   3.751
 7385W        W77266  13.299  16.120  10.112
 7386W        W77267  12.624   5.345  12.075
 7387W        W77268  14.195  33.924  14.014
 7388W        W77269  21.528  21.217   4.216
 7389W        W77270  42.932  14.718  13.057
 7390W        W77271  13.656  41.465   4.780
 7391W        W77272   9.847  25.708  13.056
 7392W        W77273  23.101  43.940   2.363
 7393W        W77274   2.952   9.368   3.238
 7394W        W77275  17.175  15.776  13.918
 7395W        W77276   5.315  18.638   4.642
 7396W        W77277  34.466  33.033   0.328
 7397W        W77278   1.884  41.351   3.370
 7398W        W77279   3.843  14.098  13.477
 7399W        W77280  43.893  40.315  10.532
 7400W        W77281   1.839   5.391   4.614
 7401W        W77282  35.853  12.187   4.752
 7402W        W77283  42.282  38.558  12.916
 7403W        W77284   9.760  26.965   2.694
 7404W        W77285  22.632  30.916  13.514
 7405W        W77286  27.146   3.353   0.732
 7406W        W77287   6.834  23.611   2.258
 7407W        W77288  17.655  17.737   1.888
 7408W        W77289  18.065  25.016  14.385
 7409W        W77290  18.690  35.397   3.256
 7410W        W77291  44.792  11.747   3.861
 7411W        W77292  24.634  22.577   0.795
 7412W        W77293  32.985  16.079  14.385
 7413W        W77294  13.258  27.017  12.571
 7414W        W77295  27.561  28.595  10.911
 7415W        W77296  11.342   3.767  10.643
 7416W        W77297  18.180  15.650   3.343
 7417W        W77298  26.477  39.864  10.941
 7418W        W77299  11.356  44.461   2.825
 7419W        W77300  36.513  10.853   1.822
 7420W        W77301  17.286   0.760  14.389
 7421W        W77302  43.016  42.950  13.417
 7422W        W77303  30.429  43.812   4.814
 7423W        W77304  13.683  42.873   3.378
 7424W        W77305   5.720  34.963   3.688
 7425W        W77306  17.606  10.726   3.173
 7426W        W77307  33.391   1.847   0.835
 7427W        W77308  28.150  32.015  10.079
 7428W        W77309  29.481  40.540   0.284
 7429W        W77310  26.640  15.783   1.874
 7430W        W77311  10.203  33.513  14.855
 7431W        W77312  32.892  11.339   4.126
 7432W        W77313  21.529  36.406   1.879
 7433W        W77314   5.842   3.292   0.289
 7434W        W77315  15.822  40.355   5.163
 7435W        W77316   0.836  28.653  11.375
 7436W        W77317  44.470  30.139  14.480
 7437W        W77318  26.634  14.766  11.495
 7438W        W77319  44.334   3.896   3.261
 7439W        W77320  39.460   6.266   1.739
 7440W        W77321  29.095   6.409   2.777
 7441W        W77322   2.334   4.412  11.410
 7442W        W77323  20.224  15.609   3.351
 7443W        W77324  37.387  32.128   5.229
 7444W        W77325  11.358  12.315  14.335
 7445W        W77326   8.880   3.394   5.171
 7446W        W77327  44.373  17.778  14.891
 7447W        W77328   3.428  43.949   0.949
 7448W        W77329  13.789   8.280   4.317
 7449W        W77330  38.552  30.615  14.913
 7450W        W77331  34.415   8.285  12.572
 7451W        W77332   4.884  12.713   0.902
 7452W        W77333  20.665   9.710  13.413
 7453W        W77334  29.571  33.617  12.878
 7454W        W77335  12.181  26.588  12.933
 7455W        W77336  28.063  19.156   2.776
 7456W        W77337  15.149   8.784   3.772
 7457W        W77338  37.833  19.705  11.430
 7458W        W77339  31.451   1.798  13.506
 7459W        W77340   1.827  39.411   3.782
 7460W        W77341  43.309  27.940  10.014
 7461W        W77342  34.987  41.815  12.913
 7462W        W77343  18.563  10.857   2.807
 7463W        W77344  24.197   6.383   1.404
 7464W        W77345  33.047  17.118  11.924
 7465W        W77346   0.930  12.331   3.819
 7466W        W77347  31.912   7.838   1.812
 7467W        W77348   9.230  20.150   4.691
 7468W        W77349  22.609  38.863  11.423
 7469W        W77350   6.266  28.049   4.147
 7470W        W77351   5.294  41.409   4.353
 7471W        W77352   3.259  37.864   0.936
 7472W        W77353  43.505  30.049  13.971
 7473W        W77354  43.370  40.986   2.188
 7474W        W77355  20.681   8.199  12.069
 7475W        W77356  35.871  28.022   0.342
 7476W        W77357  35.919  37.953  13.965
 7477W        W77358  30.923  39.924   9.962
 7478W        W77359   4.236  34.497   1.774
 7479W        W77360  16.693   1.827   0.954
 7480W        W77361  10.377  21.076   1.280
 7481W        W77362  10.256  35.868   1.821
 7482W        W77363  35.383  29.114   1.421
 7483W        W77364  14.258  42.869  13.797
 7484W        W77365   9.322  16.746   2.286
 7485W        W77366  14.097  38.337  11.034
 7486W        W77367   0.289  11.243  10.600
 7487W        W77368  29.458  36.970  14.945
 7488W        W77369  41.469  31.525   0.408
 7489W        W77370  21.124  11.264  11.100
 7490W        W77371  10.873  17.264  11.074
 7491W        W77372  14.619  39.371  11.913
 7492W        W77373  27.985  28.580   2.690
 7493W        W77374  39.931   4.323  10.529
 7494W        W77375   3.384  35.997   0.889
 7495W        W77376  21.168  32.448   0.925
 7496W        W77377  26.030  13.816   1.836
 7497W        W77378  27.057  36.464  13.397
 7498W        W77379   5.336  32.440  12.543
 7499W        W77380  29.657  14.247   4.819
 7500W        W77381  38.834  32.445  12.041
 7501W        W77382  24.209  11.738  13.386
 7502W        W77383  19.187  33.461  14.954
 7503W        W77384  25.507   6.917   4.727
 7504W        W77385  40.805   7.171   4.280
 7505W        W77386   4.745  42.348   2.760
 7506W        W77387  23.700  19.264  10.895
 7507W        W77388  26.196  21.601   2.823
 7508W        W77389  40.375  23.227   4.721
 7509W        W77390  30.557  10.760  10.957
 7510W        W77391  10.682  10.192  10.506
 7511W        W77392  29.607  25.637  14.874
 7512W        W77393  10.671  13.681  10.527
 7513W        W77394  44.977   7.668   0.384
 7514W        W77395  38.049  36.405   3.270
 7515W        W77396  15.759  29.016   4.638
 7516W        W77397  31.501  11.174   4.809
 7517W        W77398  35.895  16.269  14.793
 7518W        W77399  12.154  25.591   3.362
 7519W        W77400  19.638  44.465   4.221
 7520W        W77401  21.186  27.588  11.112
 7521W        W77402  38.540  11.162  14.850
 7522W        W77403  24.563  40.356   3.670
 7523W        W77404  36.397  17.253  11.949
 7524W        W77405  34.075  33.126   2.333
 7525W        W77406  18.185   2.311   0.819
 7526W        W77407  34.570  12.786   2.349
 7527W        W77408  31.461  33.568   2.192
 7528W        W77409  28.172  38.909   3.192
 7529W        W77410  37.080   9.257   3.721
 7530W        W77411  12.783  13.672   1.826
 7531W        W77412  34.503  12.204   2.238
 7532W        W77413  20.768   2.423  11.386
 7533W        W77414  17.282  44.902  14.856
 7534W        W77415  27.544  33.920   2.342
 7535W        W77416   1.974  18.052   1.448
 7536W        W77417  27.171  30.517  13.907
 7537W        W77418  18.139   3.422  14.310
 7538W        W77419  15.613  10.147   1.866
 7539W        W77420  25.119  33.575   5.112
 7540W        W77421  25.089  44.789   0.935
 7541W        W77422  42.283  36.456   4.715
 7542W        W77423  35.944  36.051   4.165
 7543W        W77424  15.611  41.966   1.741
 7544W        W77425  25.493  18.566   3.867
 7545W        W77426  39.929   7.343  11.932
 7546W        W77427  14.211  40.846  12.875
 7547W        W77428  24.178   9.845   2.304
 7548W        W77429  32.479  23.101  11.513
 7549W        W77430  30.505  18.762   5.762
 7550W        W77431  40.000   7.859  10.452
 7551W        W77432  40.868  36.982   0.376
 7552W        W77433  12.759  20.144   4.651
 7553W        W77434   6.235  34.392  12.563
 7554W        W77435  39.868  32.400   3.378
 7555W        W77436  22.721  39.499  13.414
 7556W        W77437  18.230  22.574  12.568
 7557W        W77438  42.345  34.533  10.464
 7558W        W77439  43.429  32.897  13.028
 7559W        W77440  42.911  36.539   2.840
 7560W        W77441   7.688  25.968  13.319
 7561W        W77442  30.530  30.095  11.433
 7562W        W77443  38.869  37.426  13.425
 7563W        W77444  29.502  33.906   0.800
 7564W        W77445  37.496  12.794  14.909
 7565W        W77446  27.559  24.675   4.795
 7566W        W77447   3.911  44.286  11.992
 7567W        W77448  21.040  41.959   2.687
 7568W        W77449  23.987  19.556   2.734
 7569W        W77450  23.531  40.894  10.958
 7570W        W77451  40.011   7.721  11.529
 7571W        W77452  11.848  16.788   4.344
 7572W        W77453  19.189   0.809  11.599
 7573W        W77454  30.924  23.177  12.530
 7574W        W77455  37.534   4.820   0.754
 7575W        W77456  44.939   9.248  14.876
 7576W        W77457  23.667  12.344   1.796
 7577W        W77458  10.312  36.052   0.770
 7578W        W77459  12.714  35.382  10.542
 7579W        W77460  16.723  11.334  12.090
 7580W        W77461  32.596  23.539  10.898
 7581W        W77462  37.451  27.488  14.760
 7582W        W77463  30.645   6.901  14.425
 7583W        W77464  31.450   4.326   4.167
 7584W        W77465  24.521  27.124   2.814
 7585W        W77466   6.408  31.031   4.745
 7586W        W77467  33.131  27.500   2.814
 7587W        W77468  21.219  38.990  11.042
 7588W        W77469  38.902  41.876  11.004
 7589W        W77470   9.177  30.566   0.467
 7590W        W77471  44.757  13.660  13.497
 7591W        W77472  32.016  36.483  13.846
 7592W        W77473  38.527  15.716   4.161
 7593W        W77474   8.784  44.460  13.524
 7594W        W77475  26.152  32.600  11.525
 7595W        W77476   9.281  18.089  11.049
 7596W        W77477  35.857   7.693   5.261
 7597W        W77478   5.197  34.959   3.765
 7598W        W77479  24.164   7.254   1.330
 7599W        W77480   1.854  17.105   2.861
 7600W        W77481  30.061  28.939   3.705
 7601W        W77482  23.096  35.575  11.476
 7602W        W77483  44.286   1.252  10.523
 7603W        W77484  15.329  27.628   0.745
 7604W        W77485  34.370  26.083  13.332
 7605W        W77486  30.072  39.926  10.551
 7606W        W77487  16.749  13.781   2.296
 7607W        W77488  26.496  39.888  13.032
 7608W        W77489  35.910  13.114  12.842
 7609W        W77490  12.126  44.392   0.341
 7610W        W77491  41.830  33.457   0.320
 7611W        W77492   6.764  28.936  10.623
 7612W        W77493  44.892  36.083  13.402
 7613W        W77494  12.649  18.075  13.872
 7614W        W77495  41.795  32.102   2.740
 7615W        W77496  12.833   4.357  12.051
 7616W        W77497  24.564  38.985   1.901
 7617W        W77498  21.649  38.827  13.404
 7618W        W77499   6.251   8.722  11.863
 7619W        W77500  32.134   9.227  13.310
 7620W        W77501  24.682  29.509   2.254
 7621W        W77502   2.932  31.994   1.915
 7622W        W77503  26.544  34.562   1.698
 7623W        W77504  19.605  42.848   4.773
 7624W        W77505  35.448  23.013   4.747
 7625W        W77506  18.153  14.208  10.480
 7626W        W77507  43.777  19.237   3.819
 7627W        W77508  18.253   6.711  13.492
 7628W        W77509  18.083  21.586  11.596
 7629W        W77510   8.248  10.236  14.794
 7630W        W77511   1.844   8.341   3.665
 7631W        W77512   6.247   2.340   2.324
 7632W        W77513  43.388  21.646  10.977
 7633W        W77514  16.673   2.879  11.876
 7634W        W77515  40.871  34.495   4.189
 7635W        W77516   8.200  15.296  11.874
 7636W        W77517  20.172   6.290   4.322
 7637W        W77518   5.934  12.640  13.015
 7638W        W77519   1.470  17.748   2.344
 7639W        W77520  20.611   5.746   4.184
 7640W        W77521  23.092   5.329   0.446
 7641W        W77522  27.950   4.260  14.800
 7642W        W77523  24.526  39.994   1.745
 7643W        W77524   4.851  43.405  11.889
 7644W        W77525  10.371   1.370  12.373
 7645W        W77526  38.015  18.241   2.897
 7646W        W77527  44.411  33.490   1.317
 7647W        W77528  17.272  42.033  11.544
 7648W        W77529  44.277   8.298  14.800
 7649W        W77530  28.999   9.855   2.278
 7650W        W77531  17.619  12.133   3.362
 7651W        W77532  24.479  25.516  14.006
 7652W        W77533   3.389   4.434   1.405
 7653W        W77534  33.049  32.510  11.448
 7654W        W77535  43.800  23.605  13.416
 7655W        W77536  41.536  43.437  12.366
 7656W        W77537   4.920  23.605  11.964
 7657W        W77538  26.023  26.207  10.093
 7658W        W77539   6.710  17.295  14.838
 7659W        W77540  27.186  14.726  14.025
 7660W        W77541  12.766   5.416  12.366
 7661W        W77542  28.050  10.290   4.826
 7662W        W77543   0.897  21.556  11.017
 7663W        W77544  35.088   7.814  13.046
 7664W        W77545  24.092  33.603   4.348
 7665W        W77546  29.960  11.835  10.628
 7666W        W77547  19.553  33.978  14.864
 7667W        W77548  43.939  15.597   1.451
 7668W        W77549  26.097  43.812   3.741
 7669W        W77550  32.589  43.475   2.897
 7670W        W77551  42.789  40.302   0.464
 7671W        W77552  36.413  25.986   3.800
 7672W        W77553  12.212  28.054   9.475
 7673W        W77554  13.197  20.228   1.890
 7674W        W77555  43.456  39.877  13.491
 7675W        W77556  42.286  10.265  12.042
 7676W        W77557  33.530  14.310  10.643
 7677W        W77558  18.181  25.016  13.866
 7678W        W77559  39.544  40.910  12.569
 7679W        W77560  20.700  10.781   3.184
 7680W        W77561  34.058  40.858  10.959
 7681W        W77562   2.872  31.900   1.396
 7682W        W77563  44.759  11.822   2.208
 7683W        W77564  36.347  23.048   4.257
 7684W        W77565   2.738  19.088   1.298
 7685W        W77566   8.844  26.154  11.554
 7686W        W77567  10.372  18.703   2.373
 7687W        W77568  11.263  28.492   3.715
 7688W        W77569  31.054  35.394   3.798
 7689W        W77570   3.310  34.924  12.053
 7690W        W77571  38.948  36.439   5.191
 7691W        W77572  44.945   4.341   1.307
 7692W        W77573  16.170  27.555   2.288
 7693W        W77574  13.207  26.006   3.330
 7694W        W77575  16.728  26.054  12.984
 7695W        W77576  42.863  38.020  13.350
 7696W        W77577  40.513  14.308   1.902
 7697W        W77578  43.442  20.271   1.450
 7698W        W77579  32.128   3.845  11.560
 7699W        W77580  12.273  38.413  10.429
 7700W        W77581  20.601  44.319  12.970
 7701W        W77582  33.437   6.713   3.664
 7702W        W77583  44.879  14.340   0.280
 7703W        W77584  23.225  13.839  14.877
 7704W        W77585  30.157  30.548   0.371
 7705W        W77586  41.365   6.760   4.137
 7706W        W77587  13.273  41.339   4.725
 7707W        W77588  35.073  38.448   0.356
 7708W        W77589  10.175  22.644  11.438
 7709W        W77590  38.051  27.100   1.216
 7710W        W77591  26.973  40.422   3.769
 7711W        W77592  44.263  30.111  12.544
 7712W        W77593  22.079   9.862   0.843
 7713W        W77594  24.096  41.941  13.818
 7714W        W77595  17.573  15.661   3.231
 7715W        W77596  10.243  23.052  13.393
 7716W        W77597   5.697  26.688  13.394
 7717W        W77598  24.229  23.702   0.947
 7718W        W77599  29.018  41.504   2.337
 7719W        W77600   6.766   3.274  11.938
 7720W        W77601  42.340  10.660   4.649
 7721W        W77602  11.373   2.867  12.395
 7722W        W77603   1.430   6.211  11.583
 7723W        W77604   6.253  30.907  12.054
 7724W        W77605  13.627  43.913  13.866
 7725W        W77606  16.272  11.711   2.186
 7726W        W77607  30.116  22.648  11.893
 7727W        W77608  25.698  44.326  11.912
 7728W        W77609  39.428  10.353   1.336
 7729W        W77610  33.907  42.795  14.909
 7730W        W77611  18.219  32.554  14.958
 7731W        W77612  29.041  28.550   0.308
 7732W        W77613  40.494   1.369   0.734
 7733W        W77614  10.147   1.410  10.607
 7734W        W77615  26.187  39.439  11.894
 7735W        W77616  24.518  38.018   2.710
 7736W        W77617  28.103  32.448   1.394
 7737W        W77618   0.286  29.089   0.383
 7738W        W77619  28.150  12.680  10.014
 7739W        W77620  21.261  15.235   1.862
 7740W        W77621  16.811  20.572   0.307
 7741W        W77622  15.227  35.404  13.374
 7742W        W77623  35.107  22.060   4.722
 7743W        W77624  30.997  30.518  12.864
 7744W        W77625  13.256  44.795  13.898
 7745W        W77626  30.077  34.009  10.532
 7746W        W77627   6.251  42.443  10.496
 7747W        W77628   4.339  39.902   1.893
 7748W        W77629  27.133  31.574  13.493
 7749W        W77630  25.633  22.661   4.235
 7750W        W77631  22.616   9.230  10.496
 7751W        W77632  13.280   4.702   5.285
 7752W        W77633   4.702  42.394   0.447
 7753W        W77634   2.883  19.225   3.273
 7754W        W77635  29.100   1.749   2.246
 7755W        W77636  38.913   5.708   0.946
 7756W        W77637  16.643  18.287   3.698
 7757W        W77638  15.319   7.898  12.532
 7758W        W77639  37.995   7.295  14.357
 7759W        W77640  18.119  13.632  13.450
 7760W        W77641  28.616   7.307   4.687
 7761W        W77642  29.009   3.404   3.698
 7762W        W77643  24.988  38.540  11.890
 7763W        W77644   4.322  23.547   3.199
 7764W        W77645  19.187  39.314  14.769
 7765W        W77646  10.293  22.222   2.882
 7766W        W77647   6.428  23.087  14.474
 7767W        W77648  21.212  36.996   2.308
 7768W        W77649  32.993   6.755  12.907
 7769W        W77650   5.825  22.021   4.304
 7770W        W77651  25.113  21.670  14.404
 7771W        W77652  17.629   6.898   1.447
 7772W        W77653  10.825   1.332  13.985
 7773W        W77654  35.496  41.984   1.934
 7774W        W77655  11.707  10.312   1.731
 7775W        W77656   7.675   3.409   0.909
 7776W        W77657   8.702  35.459   3.196
 7777W        W77658  12.124  41.495  10.548
 7778W        W77659  15.172  42.318  13.447
 7779W        W77660  36.991  17.251   4.825
 7780W        W77661  12.837  18.289   1.284
 7781W        W77662  29.597  15.325   3.724
 7782W        W77663  42.887   5.848   1.290
 7783W        W77664  12.220  21.532   2.713
 7784W        W77665   6.865  13.140   3.799
 7785W        W77666  28.030  29.050  11.442
 7786W        W77667  31.625  20.069  13.839
 7787W        W77668  36.559  15.775  12.908
 7788W        W77669   5.894   1.854   1.727
 7789W        W77670  41.787  38.519   3.377
 7790W        W77671   6.767  37.067   2.306
 7791W        W77672   9.154  22.179  14.293
 7792W        W77673   9.232  37.450  14.417
 7793W        W77674  36.526  28.975   2.314
 7794W        W77675  26.665  20.642  14.905
 7795W        W77676  17.212  19.626  12.481
 7796W        W77677  19.244  42.976   2.265
 7797W        W77678  39.375   5.311   1.210
 7798W        W77679  34.869  18.645   0.909
 7799W        W77680   1.977   5.868   0.384
 7800W        W77681  28.636  16.670   3.267
 7801W        W77682   7.714  13.334   3.745
 7802W        W77683  40.884  15.303   0.806
 7803W        W77684   1.350  19.716  12.096
 7804W        W77685  15.615   6.854  14.466
 7805W        W77686  33.934  18.122   3.656
 7806W        W77687  10.862  26.462  14.437
 7807W        W77688  28.458  13.729  13.323
 7808W        W77689  23.129  35.372   1.373
 7809W        W77690  29.110  30.516   1.267
 7810W        W77691  24.983  10.719  11.946
 7811W        W77692  16.308  10.813   4.786
 7812W        W77693   5.918  17.219   0.359
 7813W        W77694  29.458  16.078   3.262
 7814W        W77695  24.154  34.389   2.851
 7815W        W77696  39.533  32.105   0.405
 7816W        W77697   4.410  23.986  10.891
 7817W        W77698  26.595   7.723  14.860
 7818W        W77699   3.248  36.461  11.547
 7819W        W77700  38.003  20.125   3.650
 7820W        W77701  28.955  19.077  14.346
 7821W        W77702   5.894   3.905   4.677
 7822W        W77703   5.423  20.714  11.375
 7823W        W77704   4.746  39.450   0.347
 7824W        W77705  10.782  42.951   3.689
 7825W        W77706  40.364  19.620  11.612
 7826W        W77707  44.806  15.590  12.037
 7827W        W77708  20.705  30.964  11.052
 7828W        W77709  25.548  32.898   4.794
 7829W        W77710  11.241  37.495   3.184
 7830W        W77711   4.738  22.084   3.335
 7831W        W77712  24.132   8.270  13.411
 7832W        W77713   2.828  39.823   1.783
 7833W        W77714  19.676  26.042  11.569
 7834W        W77715   8.170   6.360  12.429
 7835W        W77716  42.512   0.352  12.835
 7836W        W77717  26.063  10.331  14.861
 7837W        W77718  37.415  39.469   2.758
 7838W        W77719  20.657  36.527   1.914
 7839W        W77720  43.498  12.284   1.430
 7840W        W77721  21.069  14.807   2.738
 7841W        W77722   0.343  38.409  10.895
 7842W        W77723   6.312  36.057   0.789
 7843W        W77724  41.880  41.450   1.239
 7844W        W77725  34.390  19.553   0.919
 7845W        W77726   0.325  35.032   0.476
 7846W        W77727  13.736  15.597   1.803
 7847W        W77728   4.793  34.954  12.364
 7848W        W77729  12.353   9.314   1.796
 7849W        W77730  20.672  16.752   2.891
 7850W        W77731   2.723  42.824  11.109
 7851W        W77732  34.937   1.443  13.816
 7852W        W77733  24.040  10.361   9.936
 7853W        W77734  19.714   5.329  10.983
 7854W        W77735   4.817  29.173  11.581
 7855W        W77736  14.250  42.946  11.500
 7856W        W77737  20.542  13.336  11.579
 7857W        W77738  10.683  34.988   3.364
 7858W        W77739  25.050  17.594   3.374
 7859W        W77740  25.163  11.817   0.930
 7860W        W77741  20.611  37.986  13.514
 7861W        W77742  41.826   8.300  12.384
 7862W        W77743  37.990   1.425  10.433
 7863W        W77744  42.450   6.207   0.379
 7864W        W77745  14.647   5.367   3.717
 7865W        W77746  13.725  27.554   4.175
 7866W        W77747  34.594  37.382   3.265
 7867W        W77748  29.490  40.545  12.033
 7868W        W77749  15.668   9.804   0.961
 7869W        W77750  20.558   6.240   0.915
 7870W        W77751  27.669  18.738   3.215
 7871W        W77752  20.118  20.751  10.592
 7872W        W77753  31.124   6.316  12.443
 7873W        W77754   5.904  35.911  13.547
 7874W        W77755  25.526   0.474  12.033
 7875W        W77756  26.037   7.236   0.477
 7876W        W77757  20.560  38.506   1.408
 7877W        W77758  39.490  14.611  13.835
 7878W        W77759   7.211  37.344  13.325
 7879W        W77760   3.286  15.153  11.062
 7880W        W77761  19.191  30.142   0.818
 7881W        W77762  31.063  44.799  14.494
 7882W        W77763  28.968  40.436   4.673
 7883W        W77764  14.747  32.918  14.300
 7884W        W77765  27.132  29.618   3.372
 7885W        W77766  33.064   9.643   2.387
 7886W        W77767  31.587  18.244  11.481
 7887W        W77768  40.942  35.886  10.489
 7888W        W77769  43.345  26.529   0.788
 7889W        W77770  40.514  19.725  10.038
 7890W        W77771  10.150  17.225   1.361
 7891W        W77772  36.984  14.810   4.201
 7892W        W77773  31.507   7.737  10.125
 7893W        W77774   8.796  15.670  11.572
 7894W        W77775  28.950  35.464  13.393
 7895W        W77776  16.693  11.837  10.965
 7896W        W77777  43.016  12.821  10.486
 7897W        W77778  28.470  25.038   0.900
 7898W        W77779  27.497  23.630   0.776
 7899W        W77780  30.017  27.069  12.556
 7900W        W77781  31.927  25.133  10.496
 7901W        W77782  12.734   0.962  10.902
 7902W        W77783   3.259  19.737  11.440
 7903W        W77784  19.688  39.320  12.353
 7904W        W77785  12.617  10.153  13.433
 7905W        W77786  41.509  17.147  12.940
 7906W        W77787  41.905  13.229  12.842
 7907W        W77788  34.575  11.240  10.519
 7908W        W77789  10.151  13.616  12.428
 7909W        W77790  22.038   6.699   1.422
 7910W        W77791  16.648  34.515  12.460
 7911W        W77792  38.883  28.098   0.425
 7912W        W77793  11.653   0.786  11.584
 7913W        W77794  42.386   6.291  11.509
 7914W        W77795  28.652   2.363  11.969
 7915W        W77796   8.176  24.182   3.308
 7916W        W77797  31.617   8.851   3.732
 7917W        W77798  30.938  42.443   2.210
 7918W        W77799  38.355  14.594   3.730
 7919W        W77800  38.076   8.731  14.357
 7920W        W77801  19.671  35.529   3.766
 7921W        W77802  41.821  44.009   0.262
 7922W        W77803  26.677  15.233  10.627
 7923W        W77804  16.236  22.692  10.979
 7924W        W77805   7.845   1.469   1.740
 7925W        W77806  19.758  28.037  12.828
 7926W        W77807  22.075  19.676   0.923
 7927W        W77808  38.538  22.739  13.940
 7928W        W77809  43.490  39.903   1.267
 7929W        W77810  39.924   0.269   2.824
 7930W        W77811  27.651   7.757  14.370
 7931W        W77812   7.401   4.419   3.774
 7932W        W77813  35.018  34.474   0.818
 7933W        W77814  38.034  38.424   1.860
 7934W        W77815  27.474  30.094  14.940
 7935W        W77816  30.618   9.188   3.847
 7936W        W77817  20.106  10.330  10.904
 7937W        W77818  36.067  14.783  14.903
 7938W        W77819  38.417  29.655   1.784
 7939W        W77820  22.178  22.212   0.262
 7940W        W77821  27.064  36.939   2.675
 7941W        W77822  21.545  15.780   1.804
 7942W        W77823  14.306   6.784  13.443
 7943W        W77824   8.290  21.092  11.990
 7944W        W77825  21.043  44.389  14.447
 7945W        W77826  15.214  36.356  11.611
 7946W        W77827  13.627  35.487   2.680
 7947W        W77828  40.336  38.852  13.024
 7948W        W77829  12.179  30.542   9.454
 7949W        W77830  36.884  18.149   4.655
 7950W        W77831  22.615  11.819  11.859
 7951W        W77832  36.971  36.928  12.455
 7952W        W77833  41.527  37.057   2.741
 7953W        W77834  40.396  25.975  12.089
 7954W        W77835  18.245   1.383   1.282
 7955W        W77836  19.270   6.878   2.746
 7956W        W77837  14.720  10.796  11.565
 7957W        W77838   9.855  11.779   3.182
 7958W        W77839   9.311  14.201  14.402
 7959W        W77840   0.983  21.610  11.959
 7960W        W77841  31.043  15.275  12.928
 7961W        W77842  20.201   3.343   2.824
 7962W        W77843  12.800  28.619   0.738
 7963W        W77844  24.683   3.291   3.817
 7964W        W77845  11.128  25.158   0.376
 7965W        W77846   9.832  11.162  14.940
 7966W        W77847   5.783  34.464  10.609
 7967W        W77848  41.418  11.149  10.905
 7968W        W77849  26.463  43.469   4.336
 7969W        W77850   0.878  13.774  13.001
 7970W        W77851  14.170  30.622   0.273
 7971W        W77852  12.301  17.118  13.802
 7972W        W77853  16.196  22.141   0.332
 7973W        W77854   2.786  36.010  10.405
 7974W        W77855  30.088  37.992  13.946
 7975W        W77856   7.881  19.283  14.812
 7976W        W77857  33.444  31.105   0.307
 7977W        W77858  17.684  39.926   1.219
 7978W        W77859  29.052  31.096   3.860
 7979W        W77860  34.950  13.105   2.808
 7980W        W77861  25.642  20.642   4.144
 7981W        W77862  16.728  28.091   0.341
 7982W        W77863  44.961  12.243  14.396
 7983W        W77864  14.789  44.288  12.881
 7984W        W77865  34.101  24.533   1.289
 7985W        W77866  24.607   5.846   4.314
 7986W        W77867  34.589  34.926  12.988
 7987W        W77868  24.620  13.793   4.239
 7988W        W77869  42.300   6.286  11.022
 7989W        W77870  36.570  26.641  13.467
 7990W        W77871  23.226  41.841   1.255
 7991W        W77872  40.052   2.362   2.697
 7992W        W77873  28.490  37.402  12.529
 7993W        W77874  15.756  14.148  11.983
 7994W        W77875  27.072  42.829  11.862
 7995W        W77876  31.910  20.265  11.586
 7996W        W77877  26.660   6.918   4.794
 7997W        W77878  16.807  29.448   3.652
 7998W        W77879  19.701  31.007  12.889
 7999W        W77880  38.340  30.541  14.287
 8000W        W77881   7.350   6.763  14.887
 8001W        W77882   5.304  30.050   3.767
 8002W        W77883  35.894   8.895  10.923
 8003W        W77884   8.832  12.782   4.689
 8004W        W77885   2.887  33.969   4.218
 8005W        W77886  43.879   6.417  12.971
 8006W        W77887  42.860  28.608   1.700
 8007W        W77888  36.590  20.184  14.935
 8008W        W77889  44.327  16.606   3.171
 8009W        W77890  17.304  11.137   0.399
 8010W        W77891   2.903  26.663  11.547
 8011W        W77892  33.885  22.159   4.153
 8012W        W77893   6.235  14.719  10.537
 8013W        W77894  20.155  25.026   3.637
 8014W        W77895   9.277  30.531   3.848
 8015W        W77896  31.556  35.536  14.333
 8016W        W77897  13.736   3.444   2.834
 8017W        W77898  35.987  16.207   1.281
 8018W        W77899   2.357  23.585  11.504
 8019W        W77900  35.941  10.763  13.953
 8020W        W77901  27.448   1.939  10.514
 8021W        W77902   5.363  11.352  10.968
 8022W        W77903   2.828  13.143   4.597
 8023W        W77904  27.181  24.654  14.941
 8024W        W77905  21.746  39.892   4.683
 8025W        W77906  16.092  34.031   4.219
 8026W        W77907  34.437  14.207   0.862
 8027W        W77908   1.482   0.954   3.285
 8028W        W77909   2.295  18.779  14.929
 8029W        W77910  38.843  13.690  13.439
 8030W        W77911  33.893  33.592   0.781
 8031W        W77912  34.948  11.702  11.373
 8032W        W77913  11.796  16.277   0.424
 8033W        W77914   0.375   8.798   4.214
 8034W        W77915  13.748  40.367  14.362
 8035W        W77916   4.763  11.313   1.781
 8036W        W77917  29.041   7.709   3.835
 8037W        W77918  22.188  17.700   3.683
 8038W        W77919  27.467  10.245   2.189
 8039W        W77920  27.074   5.802   4.349
 8040W        W77921  26.595  44.446  12.073
 8041W        W77922  40.335  32.049   0.417
 8042W        W77923  39.390  21.632  12.089
 8043W        W77924  40.440  28.028  10.609
 8044W        W77925   6.901   7.264  12.528
 8045W        W77926  26.669   3.375   4.211
 8046W        W77927  37.547  17.761  11.052
 8047W        W77928  32.966  35.008   4.354
 8048W        W77929  32.484  31.024  10.965
 8049W        W77930  12.152  28.976  10.419
 8050W        W77931  20.524  43.845  13.867
 8051W        W77932  26.033  39.384  11.549
 8052W        W77933  38.055  40.345  12.374
 8053W        W77934   8.879  35.858  10.414
 8054W        W77935  24.575  36.979  12.369
 8055W        W77936  28.089  28.944  10.405
 8056W        W77937  29.171  23.041   1.334
 8057W        W77938   5.217  30.007  13.533
 8058W        W77939  12.124   2.946   0.457
 8059W        W77940  23.684  26.964   4.671
 8060W        W77941  13.277   3.230  10.511
 8061W        W77942  14.662  17.163   2.768
 8062W        W77943  20.092  22.630  11.560
 8063W        W77944   7.266  33.387   4.173
 8064W        W77945  18.107  39.813   2.295
 8065W        W77946   9.214   2.301   1.868
 8066W        W77947   3.420  29.447  10.499
 8067W        W77948  38.832   6.281   9.931
 8068W        W77949   2.284  25.110   3.261
 8069W        W77950  36.525  25.610   3.847
 8070W        W77951  20.196  22.242  10.528
 8071W        W77952  37.398   8.858   3.661
 8072W        W77953  24.673  18.106  12.978
 8073W        W77954  17.064  30.528  11.553
 8074W        W77955  43.889   5.927  12.051
 8075W        W77956  30.445  31.525  14.374
 8076W        W77957   2.322  18.683  10.428
 8077W        W77958  11.866  43.348  11.542
 8078W        W77959  20.731  36.549  11.608
 8079W        W77960   3.261  22.614   3.327
 8080W        W77961  42.378  17.590   2.356
 8081W        W77962  29.951  16.720   4.304
 8082W        W77963  43.896   2.366   0.752
 8083W        W77964  40.514  29.019  10.918
 8084W        W77965  36.415  44.789   3.214
 8085W        W77966   8.268  41.511   1.399
 8086W        W77967  17.238  26.161  14.387
 8087W        W77968   6.420   9.300  14.982
 8088W        W77969  40.417  34.088   4.278
 8089W        W77970  17.718  10.769  13.345
 8090W        W77971  38.832  39.416  14.443
 8091W        W77972  30.589  26.117  14.366
 8092W        W77973  24.715  24.624   3.700
 8093W        W77974  40.463   8.262   4.697
 8094W        W77975  14.739  31.517  14.883
 8095W        W77976  28.156  22.704  13.848
 8096W        W77977  31.402  44.816  14.300
 8097W        W77978  22.714   8.240  11.034
 8098W        W77979  16.149  12.657   1.801
 8099W        W77980  35.901  34.467  13.995
 8100W        W77981  41.517  18.158  12.994
 8101W        W77982  12.834  41.879   3.846
 8102W        W77983  10.839   3.457  13.545
 8103W        W77984   6.735  33.543  10.567
 8104W        W77985  31.050  25.201  13.960
 8105W        W77986   2.384  31.977   5.241
 8106W        W77987  27.169  26.630  12.557
 8107W        W77988  38.489  39.021   0.323
 8108W        W77989  36.592  41.390   3.182
 8109W        W77990   8.235  11.181  14.428
 8110W        W77991  31.573   7.330   3.742
 8111W        W77992  11.149  41.311  11.575
 8112W        W77993  15.666  19.244  11.920
 8113W        W77994  17.193  16.149   3.334
 8114W        W77995  25.045   1.780  13.856
 8115W        W77996   6.306  10.176   1.339
 8116W        W77997  33.502   3.815   0.883
 8117W        W77998   7.827  12.140  12.825
 8118W        W77999   0.490   7.253  14.793
 8119W        W78000  35.512  20.694  12.464
 8120W        W78001  13.120  30.064   1.342
 8121W        W78002  37.562  44.876  10.408
 8122W        W78003   6.392   3.317  11.040
 8123W        W78004  31.425  34.406  13.921
 8124W        W78005   8.401  34.402  14.314
 8125W        W78006  35.075  36.550   0.272
 8126W        W78007  43.385   8.286  12.364
 8127W        W78008  34.540  21.548  12.829
 8128W        W78009  13.798  34.089   3.668
 8129W        W78010  12.272  27.659   4.779
 8130W        W78011   6.312   3.377   4.799
 8131W        W78012  37.564   8.698  12.546
 8132W        W78013  25.085  44.372   5.158
 8133W        W78014   0.873  22.197   3.845
 8134W        W78015  38.467  40.383   0.885
 8135W        W78016  40.964  38.904   0.364
 8136W        W78017   7.822  38.456   2.791
 8137W        W78018  23.214  10.639  11.508
 8138W        W78019  28.113  22.230  14.455
 8139W        W78020  23.549  27.450   3.202
 8140W        W78021   8.236  10.227  14.415
 8141W        W78022  13.774   0.967   1.845
 8142W        W78023  11.363   9.261  13.064
 8143W        W78024  23.639  42.509  11.592
 8144W        W78025  37.952  40.448   4.115
 8145W        W78026   9.737  25.984   2.741
 8146W        W78027   1.360  32.989  10.488
 8147W        W78028  29.172  21.629   2.286
 8148W        W78029  28.003  35.939   3.725
 8149W        W78030  31.621   0.892  12.341
 8150W        W78031   5.423  19.199   0.758
 8151W        W78032   3.871  38.453   1.933
 8152W        W78033  13.631  42.492   2.696
 8153W        W78034  39.996  39.006   2.803
 8154W        W78035  24.686  18.723  13.310
 8155W        W78036  16.185  39.029  13.822
 8156W        W78037  28.002  36.460   4.341
 8157W        W78038  23.209  11.787   2.839
 8158W        W78039  44.910  25.579   1.370
 8159W        W78040   1.816  13.321  11.468
 8160W        W78041  33.011  23.693   4.302
 8161W        W78042  24.562  10.207   3.337
 8162W        W78043  22.038  26.976   2.212
 8163W        W78044   1.289  28.437  14.862
 8164W        W78045  25.487  27.502   4.215
 8165W        W78046   9.811  15.743   2.372
 8166W        W78047  13.157  36.084  10.030
 8167W        W78048   5.919  18.600  11.608
 8168W        W78049  24.679   0.786   3.375
 8169W        W78050  22.098  17.103  14.796
 8170W        W78051  17.640  30.451  12.515
 8171W        W78052  42.925  39.346   3.355
 8172W        W78053  34.939  33.978   0.967
 8173W        W78054  22.538  27.665   4.334
 8174W        W78055  13.837  27.027   3.675
 8175W        W78056   0.755  23.534  10.995
 8176W        W78057  35.597   5.304   1.812
 8177W        W78058  22.170  10.362  11.606
 8178W        W78059  18.700  28.170   0.479
 8179W        W78060  40.544  41.986  13.052
 8180W        W78061   8.738   1.732  13.435
 8181W        W78062  11.314  32.444   2.802
 8182W        W78063  17.068  18.782  11.458
 8183W        W78064  25.136  16.584   4.666
 8184W        W78065  36.557  35.863   4.757
 8185W        W78066  39.883  23.121   3.227
 8186W        W78067  27.644  36.908   3.705
 8187W        W78068  32.573   6.357   2.271
 8188W        W78069  37.071   0.849  11.517
 8189W        W78070  41.012  42.904   2.796
 8190W        W78071  44.771  21.200   1.897
 8191W        W78072  39.343  38.865  13.958
 8192W        W78073  21.136  10.697  11.398
 8193W        W78074   5.342  16.788  14.031
 8194W        W78075   0.254   1.318  11.986
 8195W        W78076   6.386   5.202  10.490
 8196W        W78077   1.867   6.775  12.084
 8197W        W78078  28.548  27.150  14.304
 8198W        W78079  14.724  20.135   2.735
 8199W        W78080  10.643   6.220  14.900
 8200W        W78081  23.670  42.337   0.913
 8201W        W78082  35.985   9.816  11.587
 8202W        W78083   9.760  43.877   2.185
 8203W        W78084   6.746  13.667  12.544
 8204W        W78085  17.720  34.489   1.313
 8205W        W78086  24.189  40.036   2.740
 8206W        W78087  17.694  39.367   3.178
 8207W        W78088   4.407   5.298   1.918
 8208W        W78089  10.162  42.392   3.693
 8209W        W78090  25.118  24.224   3.187
 8210W        W78091  44.877  33.941   1.277
 8211W        W78092  11.804  36.395  11.045
 8212W        W78093  31.931  43.872   3.199
 8213W        W78094  28.138  16.771  11.073
 8214W        W78095  19.688  17.304  14.806
 8215W        W78096  16.171  40.877  12.059
 8216W        W78097   6.411  16.177   4.201
 8217W        W78098  44.351  26.603  14.505
 8218W        W78099  18.231  10.332  12.063
 8219W        W78100   5.878  15.648   3.735
 8220W        W78101   3.414  12.843   2.263
 8221W        W78102  17.264  13.321   1.386
 8222W        W78103   5.882  25.161  10.941
 8223W        W78104  10.323  31.900  12.575
 8224W        W78105  13.785   5.755  11.998
 8225W        W78106   2.470  13.259   1.367
 8226W        W78107  43.419   0.296   0.338
 8227W        W78108  43.479   0.881  11.883
 8228W        W78109   8.741  23.555   0.462
 8229W        W78110  15.778  29.920  14.987
 8230W        W78111  11.802  36.380  10.157
 8231W        W78112  35.912  14.286   3.847
 8232W        W78113  27.060  23.042  13.996
 8233W        W78114   6.898  15.264  13.860
 8234W        W78115  44.304   5.306   0.838
 8235W        W78116  27.171  18.715   3.308
 8236W        W78117  39.866  25.175   0.932
 8237W        W78118   0.316  24.217  11.442
 8238W        W78119  44.755   3.748   0.280
 8239W        W78120  43.396  26.696  12.428
 8240W        W78121  38.514   6.820  13.462
 8241W        W78122  27.638   7.221   0.802
 8242W        W78123  29.004  41.959   3.860
 8243W        W78124  37.906  26.198   2.726
 8244W        W78125   4.939   7.770  12.053
 8245W        W78126  44.456  21.172  11.527
 8246W        W78127  31.426   1.895   2.215
 8247W        W78128  41.804  43.503   2.887
 8248W        W78129   8.833  28.950   9.955
 8249W        W78130   0.750  28.605   2.407
 8250W        W78131  32.413  36.490  11.439
 8251W        W78132  29.167  25.105   5.113
 8252W        W78133  13.220  22.224  14.320
 8253W        W78134   2.845  28.061  10.916
 8254W        W78135  20.699  36.843  10.950
 8255W        W78136  26.056  36.990   2.690
 8256W        W78137   1.281  32.924  12.389
 8257W        W78138  36.898   2.347   1.325
 8258W        W78139  33.035  22.523   2.899
 8259W        W78140  17.720  20.603   2.852
 8260W        W78141  35.022  27.941  12.010
 8261W        W78142  11.182  29.036   0.299
 8262W        W78143  44.955   3.393  11.540
 8263W        W78144   1.969   7.809  11.103
 8264W        W78145  35.431  19.652  11.926
 8265W        W78146  16.215   5.329   3.859
 8266W        W78147  29.116   2.281   2.384
 8267W        W78148  32.995   6.298  11.035
 8268W        W78149   5.786  26.566   4.299
 8269W        W78150  13.813  40.495   0.356
 8270W        W78151  30.635  25.058   4.665
 8271W        W78152  25.475  31.556  13.027
 8272W        W78153  13.612  43.805  12.900
 8273W        W78154  11.838  16.190   1.891
 8274W        W78155   6.419  21.171   0.245
 8275W        W78156  14.607  25.522   2.828
 8276W        W78157  10.785  21.207  11.446
 8277W        W78158  27.167  36.565   4.329
 8278W        W78159  12.838  44.912   3.288
 8279W        W78160  41.795  10.874   3.214
 8280W        W78161  39.998  31.021   4.783
 8281W        W78162  32.393  40.905  10.470
 8282W        W78163   8.187  20.137  13.887
 8283W        W78164  43.810  13.219   3.232
 8284W        W78165  33.064   3.873  13.032
 8285W        W78166  23.105  41.821   0.802
 8286W        W78167  26.972  11.373   1.257
 8287W        W78168  39.966  41.831   1.714
 8288W        W78169   4.323  39.541   4.209
 8289W        W78170  20.647  10.154  10.586
 8290W        W78171   4.744  22.213   1.901
 8291W        W78172  29.467  42.424   4.247
 8292W        W78173  14.316  33.410  13.532
 8293W        W78174   1.349  26.518   1.739
 8294W        W78175   8.785  35.031  13.513
 8295W        W78176  16.120  32.020   4.735
 8296W        W78177  22.246  43.801   3.862
 8297W        W78178  14.312  11.149   0.451
 8298W        W78179  19.227  44.862   4.158
 8299W        W78180  20.736  43.484   1.779
 8300W        W78181   5.236  40.489   0.930
 8301W        W78182  27.653  23.556  13.449
 8302W        W78183  36.964  31.476   2.755
 8303W        W78184  25.214   6.815  10.895
 8304W        W78185  20.564  31.948   4.116
 8305W        W78186  16.095  40.806  13.330
 8306W        W78187   6.710  13.181   4.337
 8307W        W78188   6.237  37.342   3.771
 8308W        W78189  32.585  16.692   4.797
 8309W        W78190  16.783  11.219   2.287
 8310W        W78191  15.657  23.993  14.836
 8311W        W78192  36.907  29.452   0.752
 8312W        W78193  18.620  40.390   1.861
 8313W        W78194  14.294  18.201   0.337
 8314W        W78195  32.027  38.431  13.521
 8315W        W78196  24.975   1.480   2.319
 8316W        W78197  33.928  33.927  13.541
 8317W        W78198  31.071  11.838  14.973
 8318W        W78199  28.019  26.670  12.457
 8319W        W78200   7.788  44.909  13.968
 8320W        W78201  24.723  28.164  10.595
 8321W        W78202  43.792  26.673  14.808
 8322W        W78203   5.262  17.092  13.525
 8323W        W78204  20.209   8.294  14.283
 8324W        W78205  13.716  16.595   2.748
 8325W        W78206  23.655  44.443  11.110
 8326W        W78207   9.701  11.175  11.515
 8327W        W78208  44.261  31.077  13.844
 8328W        W78209  30.642  16.256  10.053
 8329W        W78210  16.176  20.124   2.393
 8330W        W78211   9.736   5.924   3.343
 8331W        W78212  43.963  21.541  12.903
 8332W        W78213  26.204  11.199  12.467
 8333W        W78214   5.269  13.687   2.879
 8334W        W78215  38.977  37.841  12.539
 8335W        W78216  36.938  44.789  13.377
 8336W        W78217  20.558   5.289   2.255
 8337W        W78218   6.270  12.143   1.767
 8338W        W78219   0.952  28.101   2.701
 8339W        W78220  10.758  10.841   4.212
 8340W        W78221  25.024  16.678  14.814
 8341W        W78222   1.782  44.311  13.502
 8342W        W78223  33.615  23.116   1.228
 8343W        W78224  30.528  42.379   3.337
 8344W        W78225  44.946  39.347   3.158
 8345W        W78226  38.392  31.642   3.344
 8346W        W78227  26.128  25.068   1.791
 8347W        W78228   3.851  33.525  14.997
 8348W        W78229  36.539   4.360   4.779
 8349W        W78230   6.859  39.391   3.310
 8350W        W78231  41.449   5.222   4.174
 8351W        W78232  27.197  44.328  13.902
 8352W        W78233  23.213  41.036   2.299
 8353W        W78234  38.949  40.960   5.085
 8354W        W78235  19.053  24.139  12.489
 8355W        W78236  19.633  28.630  11.978
 8356W        W78237  30.005  29.006   0.949
 8357W        W78238  32.015  28.124   4.604
 8358W        W78239  29.525   7.696   1.711
 8359W        W78240  34.032   0.940  13.929
 8360W        W78241  24.490  27.492  14.341
 8361W        W78242  40.935  27.983   0.819
 8362W        W78243  33.498  40.027  12.009
 8363W        W78244  38.530   7.411  11.475
 8364W        W78245  13.312   1.920   0.748
 8365W        W78246  26.961   9.336  14.018
 8366W        W78247   9.319  33.432  11.007
 8367W        W78248   7.260  26.511  14.766
 8368W        W78249  35.472  43.442   1.296
 8369W        W78250  43.355   2.456  12.543
 8370W        W78251  21.598  24.020  12.504
 8371W        W78252  29.017  41.935  12.030
 8372W        W78253  37.468   8.735   1.357
 8373W        W78254  39.949  10.658   3.373
 8374W        W78255  12.618  42.371  13.417
 8375W        W78256   4.908  29.551  10.069
 8376W        W78257   7.841  23.735   0.883
 8377W        W78258  36.962   1.749   5.737
 8378W        W78259   1.313  32.450   0.480
 8379W        W78260  24.109  44.802  13.518
 8380W        W78261  30.515  34.559   2.738
 8381W        W78262  33.014  13.672  14.471
 8382W        W78263  23.622  39.820   2.386
 8383W        W78264  22.628  42.344  13.966
 8384W        W78265  36.565  29.952   0.748
 8385W        W78266  40.870  34.900   1.300
 8386W        W78267  41.027  34.060   1.450
 8387W        W78268   1.253  37.898   1.362
 8388W        W78269  10.811  22.045   2.798
 8389W        W78270   3.458  25.024  11.073
 8390W        W78271   0.412  27.594  12.904
 8391W        W78272  38.996  13.635   9.999
 8392W        W78273  28.602  38.335   3.831
 8393W        W78274  12.291   5.240  12.541
 8394W        W78275  40.514  41.478   2.750
 8395W        W78276  27.485  34.577   0.788
 8396W        W78277  41.481  11.671   5.107
 8397W        W78278  15.748  30.491   2.297
 8398W        W78279  11.270  24.533   2.297
 8399W        W78280  38.052   7.212  12.519
 8400W        W78281  17.181  21.056  11.465
 8401W        W78282   3.920  13.334  11.492
 8402W        W78283   3.353  13.611   1.897
 8403W        W78284  23.240  35.996  10.451
 8404W        W78285  14.212  22.598  12.013
 8405W        W78286  21.252  37.336   4.170
 8406W        W78287   8.323  21.066  12.348
 8407W        W78288  31.529   9.236   4.221
 8408W        W78289  42.805   6.386   2.330
 8409W        W78290  21.632  19.154   5.242
 8410W        W78291  25.639   0.773  12.432
 8411W        W78292   5.711  31.057  11.553
 8412W        W78293  32.483  38.863  12.827
 8413W        W78294  13.297  20.711   3.869
 8414W        W78295   4.326  14.662  13.398
 8415W        W78296  30.092  32.889   4.792
 8416W        W78297  27.070  23.681  13.431
 8417W        W78298  36.376  20.149   4.707
 8418W        W78299   5.700   0.442   4.709
 8419W        W78300  19.600   0.810   0.965
 8420W        W78301   9.716  13.341  11.542
 8421W        W78302   4.385  21.151   1.735
 8422W        W78303   4.424  44.856   2.835
 8423W        W78304  16.256  17.277   2.370
 8424W        W78305  43.269  14.664  13.509
 8425W        W78306  35.558   4.430   1.786
 8426W        W78307  34.040   8.808   3.633
 8427W        W78308   9.367  13.167   4.676
 8428W        W78309  32.540   5.872  13.317
 8429W        W78310   4.363  21.733  14.292
 8430W        W78311   6.188  24.482  13.376
 8431W        W78312   5.281  25.163  12.068
 8432W        W78313  44.375  38.350   4.665
 8433W        W78314  10.352   7.699   1.326
 8434W        W78315  24.593  38.343   1.935
 8435W        W78316  23.115   6.338   4.764
 8436W        W78317  20.149  35.996  12.461
 8437W        W78318  17.183  43.796   0.257
 8438W        W78319  14.800  13.753  13.818
 8439W        W78320   6.847  24.495  12.361
 8440W        W78321  33.948  39.830   0.245
 8441W        W78322  19.249  15.671  12.838
 8442W        W78323   2.782  25.097   3.315
 8443W        W78324  40.861  36.060  14.446
 8444W        W78325  13.808  32.063   3.704
 8445W        W78326  40.331   2.369  14.429
 8446W        W78327  28.667  42.461   3.360
 8447W        W78328  43.803  19.080   0.833
 8448W        W78329  36.056  13.614   2.861
 8449W        W78330  36.947  21.696  10.549
 8450W        W78331  44.437  22.739   4.198
 8451W        W78332  16.693  31.131  10.510
 8452W        W78333  18.676  13.249   4.657
 8453W        W78334   7.773  20.652  10.515
 8454W        W78335  26.087   5.795  11.918
 8455W        W78336  41.313  38.883  11.592
 8456W        W78337  32.489  27.964  11.539
 8457W        W78338  39.338  17.699  11.407
 8458W        W78339   5.360   3.447   2.366
 8459W        W78340  23.581  27.543   1.765
 8460W        W78341  20.709  10.689  12.964
 8461W        W78342   3.425  44.325   2.680
 8462W        W78343   1.916  23.665   0.933
 8463W        W78344  29.100  33.969   3.721
 8464W        W78345  40.364  41.350  12.369
 8465W        W78346  24.503  10.201  10.626
 8466W        W78347  34.608   5.802   1.738
 8467W        W78348  10.308  18.066  13.034
 8468W        W78349  28.514  41.430  13.036
 8469W        W78350  14.247   9.244  12.357
 8470W        W78351   9.681  20.594  11.412
 8471W        W78352  15.232  34.549  14.341
 8472W        W78353   7.314  22.097  10.639
 8473W        W78354  27.076   8.668   2.372
 8474W        W78355   8.258   4.843   1.274
 8475W        W78356   4.440  34.040  14.003
 8476W        W78357  39.054  36.903  10.959
 8477W        W78358  34.386   9.702  12.908
 8478W        W78359  32.424  40.424  14.839
 8479W        W78360  16.738  35.453   2.749
 8480W        W78361  30.540  26.633  11.110
 8481W        W78362  41.485  16.754  11.014
 8482W        W78363  35.092  27.591   4.600
 8483W        W78364  19.170  14.673  14.935
 8484W        W78365   9.779  17.260  14.448
 8485W        W78366  24.665  38.362  11.487
 8486W        W78367  18.086   3.730   4.717
 8487W        W78368  36.411  28.020   2.394
 8488W        W78369  13.260  23.724  13.353
 8489W        W78370  24.524   6.719   1.752
 8490W        W78371  32.089  18.218  13.328
 8491W        W78372  21.207  23.593   1.393
 8492W        W78373  18.111  42.486   3.747
 8493W        W78374  37.945  17.229   3.700
 8494W        W78375  28.120  43.315   1.813
 8495W        W78376  16.747  39.848   0.738
 8496W        W78377  41.031  40.047   4.700
 8497W        W78378   6.898  23.679   1.891
 8498W        W78379  10.203   7.736   3.370
 8499W        W78380  37.444   3.817   2.873
 8500W        W78381  27.127  20.156  12.533
 8501W        W78382  24.704   5.371  10.960
 8502W        W78383  13.194  26.128  12.415
 8503W        W78384  19.150  13.602  14.283
 8504W        W78385  14.808  22.585   3.725
 8505W        W78386  18.145  12.730  13.972
 8506W        W78387  10.761  12.639   3.646
 8507W        W78388  20.144   8.291   4.678
 8508W        W78389  43.840  34.580   0.809
 8509W        W78390   5.198  14.592   4.656
 8510W        W78391  10.841  31.628  14.977
 8511W        W78392   5.349  44.833  14.480
 8512W        W78393  35.426   3.417   2.783
 8513W        W78394  20.673   4.412   1.241
 8514W        W78395   4.866  26.671   9.955
 8515W        W78396  42.522  27.455   1.306
 8516W        W78397   1.913  31.577  12.529
 8517W        W78398   3.260  26.112   2.193
 8518W        W78399  23.139  11.281   3.746
 8519W        W78400   1.800  44.488   1.910
 8520W        W78401  40.816  29.931  13.797
 8521W        W78402  12.306   3.730   1.821
 8522W        W78403  32.137  20.138  14.015
 8523W        W78404  14.246  44.281   4.351
 8524W        W78405  29.509  20.047   4.837
 8525W        W78406  26.113  18.184   2.300
 8526W        W78407  12.126  41.445   0.293
 8527W        W78408   4.293  19.051   2.759
 8528W        W78409  34.547  22.201   0.355
 8529W        W78410  41.422  13.793   4.693
 8530W        W78411  31.557  38.526   1.850
 8531W        W78412  15.214  44.435   1.260
 8532W        W78413  20.699  35.387  14.356
 8533W        W78414   6.408  32.936   3.381
 8534W        W78415   9.877  41.855  11.081
 8535W        W78416  20.090  28.110  12.069
 8536W        W78417  38.002   1.328   4.813
 8537W        W78418  29.495  15.716   2.817
 8538W        W78419  42.963  12.327   0.359
 8539W        W78420  19.286  10.286  13.456
 8540W        W78421  18.236   8.354  12.017
 8541W        W78422  26.952  18.277  10.637
 8542W        W78423  43.771  19.730  10.902
 8543W        W78424  10.337  35.391   0.481
 8544W        W78425  25.129  11.340   0.448
 8545W        W78426  15.083  13.621   0.860
 8546W        W78427  29.077  12.635  14.387
 8547W        W78428  38.505  43.343   2.348
 8548W        W78429   9.319  42.464  11.564
 8549W        W78430  22.618   0.343  11.064
 8550W        W78431  19.738  38.568   0.840
 8551W        W78432  42.934  12.731   0.731
 8552W        W78433  16.660  29.973   1.225
 8553W        W78434   3.408  27.101  11.477
 8554W        W78435  35.536   2.867   2.885
 8555W        W78436   7.785   7.269  12.498
 8556W        W78437  30.916  23.700   1.419
 8557W        W78438  27.618  14.647  13.024
 8558W        W78439   5.360  33.506  14.339
 8559W        W78440  38.354  35.442   1.244
 8560W        W78441   0.264  40.538  14.021
 8561W        W78442   7.410  37.868  13.400
 8562W        W78443  25.086  44.287   2.848
 8563W        W78444  14.760  28.965   1.717
 8564W        W78445  37.443   0.911   2.851
 8565W        W78446   3.915  33.486  14.392
 8566W        W78447  24.140  41.797   0.767
 8567W        W78448  12.333  10.875  14.408
 8568W        W78449  25.661  15.648  10.423
 8569W        W78450  35.852   9.258   2.329
 8570W        W78451  33.993  25.080  11.947
 8571W        W78452  31.489  36.455  11.048
 8572W        W78453   7.912  34.387   0.743
 8573W        W78454  35.415  31.935   3.293
 8574W        W78455  13.305  15.268  11.984
 8575W        W78456  43.797   2.417   4.221
 8576W        W78457   0.810  25.607  13.464
 8577W        W78458  44.986  10.783   4.730
 8578W        W78459  32.980  22.688  12.419
 8579W        W78460  29.646  38.465   0.791
 8580W        W78461  21.124  36.451   3.285
 8581W        W78462  23.176  21.200  14.350
 8582W        W78463  38.006  24.975   2.701
 8583W        W78464   0.804   8.688   4.159
 8584W        W78465  29.979  30.013  14.467
 8585W        W78466  28.538  26.585   0.801
 8586W        W78467  23.706   5.246  12.923
 8587W        W78468  35.948  36.004  14.999
 8588W        W78469  11.293  42.337   4.807
 8589W        W78470  17.269   6.310  14.312
 8590W        W78471   3.785  34.104  13.840
 8591W        W78472  10.643   1.372   0.945
 8592W        W78473  37.963  19.184   3.707
 8593W        W78474  27.005  40.467  12.902
 8594W        W78475  41.389  30.557  11.555
 8595W        W78476  16.667  12.212   2.714
 8596W        W78477  15.700   6.425   3.241
 8597W        W78478   5.751  25.672  14.420
 8598W        W78479  25.019   1.308   3.174
 8599W        W78480  35.936  25.621  11.393
 8600W        W78481   4.836  29.439  14.428
 8601W        W78482   7.907  19.069   1.711
 8602W        W78483  44.982  11.690  10.891
 8603W        W78484  12.712  16.249  13.970
 8604W        W78485  44.951  26.494  10.469
 8605W        W78486  16.648  20.607   4.214
 8606W        W78487   2.426  38.382  10.941
 8607W        W78488  11.666  43.882  14.942
 8608W        W78489  10.804  40.349  12.058
 8609W        W78490  28.598  27.124   3.694
 8610W        W78491   2.389  19.279  12.480
 8611W        W78492  17.743  38.400  13.977
 8612W        W78493   8.690  31.416  10.951
 8613W        W78494  29.111  28.174   1.815
 8614W        W78495   1.745  11.133  11.876
 8615W        W78496  26.968  14.637  11.031
 8616W        W78497  26.066  36.942   1.354
 8617W        W78498   5.714  34.910  12.403
 8618W        W78499  25.568  15.228  11.914
 8619W        W78500  14.621  39.344  11.599
 8620W        W78501   8.865   5.870  13.361
 8621W        W78502  11.635  20.206  14.411
 8622W        W78503  25.001  21.527   0.914
 8623W        W78504  43.844   2.750   2.229
 8624W        W78505  23.580  16.643   9.638
 8625W        W78506   9.368   6.381   0.426
 8626W        W78507  16.600  43.878  13.307
 8627W        W78508  23.511  20.256  11.993
 8628W        W78509   2.363  21.612  11.040
 8629W        W78510   2.317  10.743   0.777
 8630W        W78511  44.862   8.676  13.499
 8631W        W78512  44.305  39.829   3.812
 8632W        W78513   4.228  32.620  12.461
 8633W        W78514   4.378  18.235  14.405
 8634W        W78515  22.573  10.288   3.201
 8635W        W78516  12.749  22.613  12.537
 8636W        W78517  17.763   1.758   2.295
 8637W        W78518  33.384  15.725  12.397
 8638W        W78519  34.109   9.394  14.825
 8639W        W78520  11.247  15.176   0.739
 8640W        W78521  16.758  42.806   4.264
 8641W        W78522  13.108  29.609  10.585
 8642W        W78523  32.406  26.967  13.025
 8643W        W78524  28.471  42.834  13.905
 8644W        W78525  19.205  44.341  13.023
 8645W        W78526  42.975  40.853   3.761
 8646W        W78527   3.846   2.386  10.916
 8647W        W78528  16.312   3.232  14.287
 8648W        W78529  25.492  18.282  11.045
 8649W        W78530   8.804  10.736  12.834
 8650W        W78531   4.896  15.136  11.877
 8651W        W78532  32.054  13.325   3.758
 8652W        W78533  16.123  32.560   3.641
 8653W        W78534  23.082   2.310   1.767
 8654W        W78535  23.147  28.072  14.936
 8655W        W78536   2.814   5.384   2.318
 8656W        W78537  32.618  24.619  13.933
 8657W        W78538  21.260   7.228  14.778
 8658W        W78539  29.080  36.450  10.982
 8659W        W78540  14.779  14.798   1.294
 8660W        W78541  36.394  27.686  13.517
 8661W        W78542  34.993   9.764  12.932
 8662W        W78543  14.796  42.985   0.779
 8663W        W78544   7.700   8.322  13.486
 8664W        W78545  16.669  31.067  12.551
 8665W        W78546  42.906  15.094   4.667
 8666W        W78547  22.595   5.363   0.352
 8667W        W78548  28.505   3.340   3.794
 8668W        W78549  30.159  14.254  12.394
 8669W        W78550  29.631  42.835   1.721
 8670W        W78551   5.348  30.161   2.270
 8671W        W78552  30.982  40.501  13.036
 8672W        W78553  11.142  40.870  14.805
 8673W        W78554  12.180  37.954  14.793
 8674W        W78555  39.433  24.193  13.980
 8675W        W78556  12.680  42.300  11.524
 8676W        W78557   4.412  13.745  14.465
 8677W        W78558   9.800  21.554  14.881
 8678W        W78559  41.400  39.953  10.964
 8679W        W78560  23.207  37.842  13.416
 8680W        W78561  12.691  24.048  12.401
 8681W        W78562  43.932  44.342  14.925
 8682W        W78563  38.992  40.995   1.414
 8683W        W78564  16.598  41.399  12.900
 8684W        W78565  20.139   9.226  10.569
 8685W        W78566  34.882  41.848   4.728
 8686W        W78567  11.823  23.184   2.318
 8687W        W78568  16.270  15.093  10.535
 8688W        W78569   0.935  15.590  11.600
 8689W        W78570  14.340  22.716   0.908
 8690W        W78571   7.772  18.190   4.789
 8691W        W78572  13.180  31.462  10.634
 8692W        W78573  27.617  25.020   4.136
 8693W        W78574  12.186  39.913   1.333
 8694W        W78575  36.554  11.753   0.853
 8695W        W78576  15.271   5.879   3.794
 8696W        W78577  26.084  15.641  12.871
 8697W        W78578   5.930  14.331   1.420
 8698W        W78579  27.533  38.040   0.811
 8699W        W78580   3.257  22.233  12.341
 8700W        W78581  10.323  27.101  14.411
 8701W        W78582  31.570  38.327   2.414
 8702W        W78583  25.534  12.749   2.800
 8703W        W78584  25.134  18.789   0.731
 8704W        W78585   4.882  27.031   2.389
 8705W        W78586  15.758   4.405  11.456
 8706W        W78587   7.404  25.566   2.811
 8707W        W78588  36.574   0.256  13.884
 8708W        W78589  24.992  20.644  13.337
 8709W        W78590  32.545  26.080  14.004
 8710W        W78591  12.689   3.888   1.812
 8711W        W78592  25.166  11.673   1.898
 8712W        W78593  44.389  33.895  11.972
 8713W        W78594  26.612  30.993   2.406
 8714W        W78595  32.549  39.480   0.437
 8715W        W78596   1.346  17.666  10.903
 8716W        W78597   3.769  36.382   1.267
 8717W        W78598  17.581   9.851   2.357
 8718W        W78599  35.582   0.430   1.435
 8719W        W78600  22.607  40.847   1.711
 8720W        W78601  29.581  23.711   0.392
 8721W        W78602  27.996  41.335  10.911
 8722W        W78603   2.774  18.613  11.595
 8723W        W78604  38.431   5.754  13.050
 8724W        W78605  39.051  20.703   4.259
 8725W        W78606  41.392  22.229   4.693
 8726W        W78607  42.990   2.948  14.963
 8727W        W78608  17.122   4.894   0.773
 8728W        W78609  16.135  19.610   5.230
 8729W        W78610  11.688  14.714  12.954
 8730W        W78611  14.329  31.072  11.939
 8731W        W78612   4.216  36.384  14.488
 8732W        W78613  25.195  43.485   2.178
 8733W        W78614  25.536  20.195   1.830
 8734W        W78615   0.360   6.753   0.470
 8735W        W78616  25.978  39.368  14.350
 8736W        W78617  33.452  22.223  11.969
 8737W        W78618  35.976  23.119  11.086
 8738W        W78619  27.456  11.821   2.869
 8739W        W78620  35.041  23.591  12.937
 8740W        W78621  37.392  27.110   1.312
 8741W        W78622  32.954  41.389  10.424
 8742W        W78623   9.724  20.218   3.796
 8743W        W78624  19.238  30.545  13.430
 8744W        W78625  27.540  26.994   3.846
 8745W        W78626  21.158  21.227   1.361
 8746W        W78627  40.504   5.887   4.345
 8747W        W78628  26.054  37.087  14.814
 8748W        W78629   6.823   7.906  13.406
 8749W        W78630  42.518  24.221   3.710
 8750W        W78631  25.043  16.245   3.319
 8751W        W78632   8.829   8.677  14.491
 8752W        W78633  18.690  28.102   5.147
 8753W        W78634  14.638  12.776   2.381
 8754W        W78635  35.368  37.889   0.954
 8755W        W78636  30.578  17.130  11.037
 8756W        W78637  33.422  24.015  11.424
 8757W        W78638  28.957  26.569   0.889
 8758W        W78639   0.375  22.574   1.437
 8759W        W78640  37.422  15.227   0.452
 8760W        W78641   7.232  33.048   2.191
 8761W        W78642  37.978  29.528   1.873
 8762W        W78643   1.762  19.573   2.322
 8763W        W78644  33.544   5.819  10.966
 8764W        W78645  29.470  33.473   4.776
 8765W        W78646  38.375  38.492   1.824
 8766W        W78647   5.370   7.823  12.070
 8767W        W78648   5.410  41.806   2.718
 8768W        W78649   8.860  13.799  11.027
 8769W        W78650  22.651  43.885  11.878
 8770W        W78651  13.627  40.389  12.042
 8771W        W78652   8.335  25.171   3.655
 8772W        W78653   6.356  42.929   4.660
 8773W        W78654  17.208  24.182   1.255
 8774W        W78655   0.945  18.599  10.534
 8775W        W78656  35.857  35.421   0.267
 8776W        W78657  27.178   0.779  11.544
 8777W        W78658  20.094   0.767  13.979
 8778W        W78659   9.341   7.337  10.911
 8779W        W78660  22.154  12.289   2.305
 8780W        W78661  38.988  21.017  14.023
 8781W        W78662  42.982  24.103  10.587
 8782W        W78663  24.638   8.768   3.851
 8783W        W78664  34.554  17.172  13.922
 8784W        W78665   4.308   9.176  10.459
 8785W        W78666  34.457  15.611   4.152
 8786W        W78667  31.519  18.761   3.291
 8787W        W78668  26.161   1.424  14.926
 8788W        W78669  15.734  33.444  12.481
 8789W        W78670  27.941  28.646   0.928
 8790W        W78671  15.322  10.786   3.778
 8791W        W78672  32.431  27.603   0.304
 8792W        W78673  18.267  35.952  12.024
 8793W        W78674  38.428   6.393   1.250
 8794W        W78675  13.351   6.782   2.227
 8795W        W78676  23.096  31.542  13.391
 8796W        W78677  39.439   4.853   1.765
 8797W        W78678   1.764  44.902   1.351
 8798W        W78679  32.495  30.579  11.104
 8799W        W78680  15.822  37.076   5.256
 8800W        W78681  13.331   1.869  11.044
 8801W        W78682  21.690  39.547   1.285
 8802W        W78683   7.400  12.319   1.336
 8803W        W78684  26.166  34.429  13.454
 8804W        W78685   3.805   9.881   4.136
 8805W        W78686   1.791   8.336  12.473
 8806W        W78687   8.200  37.052   1.227
 8807W        W78688  16.684  23.647   0.483
 8808W        W78689  39.820  43.435   3.161
 8809W        W78690  41.310   6.910  13.987
 8810W        W78691   6.708  23.236  10.518
 8811W        W78692  11.709  38.488   3.807
 8812W        W78693  39.375  37.931   1.362
 8813W        W78694  38.459  13.801  10.891
 8814W        W78695  23.153  37.037  13.910
 8815W        W78696  20.060  26.082   0.398
 8816W        W78697  11.862  27.971   4.217
 8817W        W78698  29.512  17.688   0.419
 8818W        W78699  41.928  25.164  14.476
 8819W        W78700  24.574  18.772   4.317
 8820W        W78701  11.748  15.156   2.260
 8821W        W78702   0.961  37.993  12.488
 8822W        W78703   4.869  35.537   0.745
 8823W        W78704  43.504  40.510  11.078
 8824W        W78705   3.312  19.666  11.102
 8825W        W78706  35.084  34.965   0.450
 8826W        W78707  39.518  22.715   0.391
 8827W        W78708  15.813  22.646  13.972
 8828W        W78709  30.092  21.526  14.305
 8829W        W78710  21.067  11.696  13.384
 8830W        W78711  12.141  10.380  13.428
 8831W        W78712   8.383  27.110  14.353
 8832W        W78713   1.912  30.629   4.283
 8833W        W78714   4.412   2.949  11.093
 8834W        W78715   4.256   3.387  12.842
 8835W        W78716  42.858  33.936   3.196
 8836W        W78717  17.711  10.222   3.713
 8837W        W78718  21.037  39.369  10.527
 8838W        W78719  10.183  15.106  11.088
 8839W        W78720  18.663  27.587   0.393
 8840W        W78721  25.565  24.480  12.442
 8841W        W78722  33.893  20.601   0.260
 8842W        W78723  10.298   4.843   9.994
 8843W        W78724  36.916  42.000  11.110
 8844W        W78725  39.964   4.805   4.625
 8845W        W78726  16.244  25.146  14.381
 8846W        W78727  28.535   0.327   3.266
 8847W        W78728  41.017   6.870   1.215
 8848W        W78729  33.609  44.395   4.260
 8849W        W78730   9.721  33.113   2.269
 8850W        W78731  37.515  10.379  14.356
 8851W        W78732  20.767  17.690  10.629
 8852W        W78733   9.244  21.571  13.856
 8853W        W78734  11.789  15.679  14.005
 8854W        W78735   2.320  38.027  12.536
 8855W        W78736   2.412  18.762  10.903
 8856W        W78737  31.126  42.477  10.568
 8857W        W78738  19.672  27.020   2.399
 8858W        W78739  33.609  33.002   1.342
 8859W        W78740  41.878   1.353  14.330
 8860W        W78741  17.664  27.959   1.859
 8861W        W78742  10.286  36.872   2.821
 8862W        W78743   1.806  28.498   0.727
 8863W        W78744  25.563  15.785  14.856
 8864W        W78745  10.371  36.457  13.324
 8865W        W78746  13.759  14.674  13.408
 8866W        W78747  27.618  30.111  11.591
 8867W        W78748   9.253  37.408  14.830
 8868W        W78749  39.909  32.561  11.038
 8869W        W78750   3.384  39.061  10.629
 8870W        W78751  32.009  31.568  13.946
 8871W        W78752  11.306  32.527  11.530
 8872W        W78753  38.018  44.301   3.207
 8873W        W78754  39.859  31.916   0.945
 8874W        W78755  13.735  12.185  11.037
 8875W        W78756  38.514  21.219   4.629
 8876W        W78757  14.099  33.126   2.844
 8877W        W78758  41.507  38.065  13.908
 8878W        W78759   3.277  22.635   2.765
 8879W        W78760  31.901  28.623   1.903
 8880W        W78761   6.397  23.514   9.989
 8881W        W78762  36.571  24.707  11.904
 8882W        W78763  11.777  36.510  13.858
 8883W        W78764   3.849  21.214  10.482
 8884W        W78765   9.763  35.870   0.864
 8885W        W78766  15.646   2.403  11.448
 8886W        W78767   3.731   9.742  11.391
 8887W        W78768   7.415  35.081  14.862
 8888W        W78769  12.822   0.300  10.481
 8889W        W78770   2.321  35.482  13.459
 8890W        W78771  28.111  11.775  11.517
 8891W        W78772  20.265   2.950   3.198
 8892W        W78773  44.001  14.658   3.255
 8893W        W78774   8.400   5.845   4.196
 8894W        W78775  31.543  19.600   3.791
 8895W        W78776  44.434   4.262  12.832
 8896W        W78777   4.296  22.521  13.447
 8897W        W78778   3.426   4.882   1.299
 8898W        W78779  11.351   0.494   1.368
 8899W        W78780  14.607   9.750  11.609
 8900W        W78781  22.034   5.371  13.848
 8901W        W78782  13.228  18.587  12.955
 8902W        W78783  28.619   9.696   4.128
 8903W        W78784  38.343   0.774   2.739
 8904W        W78785  15.250   1.261  11.553
 8905W        W78786  39.937  44.918   2.307
 8906W        W78787   1.759  10.167   2.696
 8907W        W78788  29.626  23.651  13.845
 8908W        W78789   5.736  22.084   0.426
 8909W        W78790  32.043  44.390  13.927
 8910W        W78791  43.887  20.718   0.738
 8911W        W78792   3.814  42.886  13.813
 8912W        W78793  21.571   5.789   0.934
 8913W        W78794  43.488   6.345  10.946
 8914W        W78795  27.514  36.587  10.955
 8915W        W78796  27.565  22.141  12.908
 8916W        W78797  44.919   0.977  11.445
 8917W        W78798  22.032  12.717   4.312
 8918W        W78799  18.145  42.393   4.242
 8919W        W78800  32.926  38.409  13.456
 8920W        W78801  43.002   7.262   0.961
 8921W        W78802  18.657  10.681   0.871
 8922W        W78803  22.719  38.859   0.735
 8923W        W78804  18.590  12.310  10.551
 8924W        W78805  41.320  39.874   1.859
 8925W        W78806   2.871  39.401  14.446
 8926W        W78807  11.276  29.933   3.859
 8927W        W78808  12.856  11.640   3.252
 8928W        W78809   7.823   3.336  11.374
 8929W        W78810   0.414  27.475   4.341
 8930W        W78811  35.563  15.163   1.914
 8931W        W78812  10.848   4.896   4.799
 8932W        W78813   9.291  30.499   4.272
 8933W        W78814   7.331  14.810   4.234
 8934W        W78815  21.126  11.308   4.693
 8935W        W78816  23.068   3.822  14.793
 8936W        W78817  12.634  13.709  12.367
 8937W        W78818  26.993  42.281  12.924
 8938W        W78819  12.215  39.039   3.278
 8939W        W78820  11.854   6.688  12.385
 8940W        W78821  33.422  21.159  12.869
 8941W        W78822  29.474  15.160  12.509
 8942W        W78823  14.147  31.916   4.298
 8943W        W78824   0.861  21.642   1.249
 8944W        W78825  40.388  44.264   3.776
 8945W        W78826  36.948  36.367   4.336
 8946W        W78827  42.026   7.848   1.304
 8947W        W78828  15.788  21.067   0.810
 8948W        W78829  29.467  18.577  12.025
 8949W        W78830  22.014  16.148  10.414
 8950W        W78831  42.831  38.489   2.757
 8951W        W78832  13.116  31.129  10.432
 8952W        W78833  42.870  36.900   0.856
 8953W        W78834  41.383  28.120   4.784
 8954W        W78835  39.487   0.775  13.060
 8955W        W78836  27.614  16.676  10.518
 8956W        W78837  38.822  14.111  12.443
 8957W        W78838   6.711  41.463   1.429
 8958W        W78839   4.817  39.348   4.805
 8959W        W78840   1.280   4.876  12.531
 8960W        W78841  34.057  35.080   2.315
 8961W        W78842  16.721  34.438  11.512
 8962W        W78843  40.838  32.120  14.331
 8963W        W78844  24.591   2.314   2.286
 8964W        W78845  32.937   3.799   4.614
 8965W        W78846  27.065  30.112  11.082
 8966W        W78847  42.405  34.592   3.777
 8967W        W78848  32.603  25.568   2.755
 8968W        W78849  10.842  10.741   3.230
 8969W        W78850  31.903  26.571   0.463
 8970W        W78851   3.277  39.008  13.836
 8971W        W78852  18.086   4.727   1.775
 8972W        W78853   0.247  18.708   3.738
 8973W        W78854  39.494   6.379   4.287
 8974W        W78855   2.331  40.859   0.303
 8975W        W78856  44.927  17.664   2.343
 8976W        W78857  31.915  20.685   1.803
 8977W        W78858  39.880  11.240   4.299
 8978W        W78859  33.459  16.166  11.597
 8979W        W78860  11.342  42.351  12.995
 8980W        W78861  20.577  44.007  11.934
 8981W        W78862  38.931  13.725  14.764
 8982W        W78863  41.923  21.108   1.726
 8983W        W78864  18.783   3.778  11.439
 8984W        W78865  30.924  38.441  13.919
 8985W        W78866   4.377  26.690   1.746
 8986W        W78867  14.162   0.446   1.934
 8987W        W78868  27.032  16.801   3.251
 8988W        W78869  11.759  24.650   1.358
 8989W        W78870  31.091   8.169  14.894
 8990W        W78871   7.678   8.900  13.055
 8991W        W78872   7.300  21.554  14.428
 8992W        W78873   7.193  40.957   4.831
 8993W        W78874   8.792  18.286   2.839
 8994W        W78875  41.942  13.226   4.797
 8995W        W78876  14.274  27.101   0.776
 8996W        W78877  18.585  13.642  11.123
 8997W        W78878   2.333  17.596   2.225
 8998W        W78879  44.310  16.698   3.747
 8999W        W78880  23.026  12.362   3.862
 9000W        W78881  13.235  39.042   3.193
 9001W        W78882   7.396  33.887  11.490
 9002W        W78883  20.248  33.115   0.809
 9003W        W78884  24.533  40.510  11.931
 9004W        W78885  35.950  41.354   4.776
 9005W        W78886  19.739  32.405   4.620
 9006W        W78887  21.169  39.913  10.573
 9007W        W78888  39.331  26.465  14.334
 9008W        W78889  11.698  23.217   4.684
 9009W        W78890  43.342  24.715  13.917
 9010W        W78891  30.992  41.000  12.061
 9011W        W78892  44.432  40.857   2.255
 9012W        W78893   3.275   2.904   3.855
 9013W        W78894  33.535  24.054  10.503
 9014W        W78895  33.063  32.038  14.780
 9015W        W78896   6.827  22.680  14.317
 9016W        W78897   2.925  19.670  14.296
 9017W        W78898  14.203  35.038   0.739
 9018W        W78899  11.360  11.807   1.436
 9019W        W78900  28.140  43.999  11.391
 9020W        W78901  30.470  26.202  12.934
 9021W        W78902  14.651  35.009   3.861
 9022W        W78903   1.392  27.058  14.923
 9023W        W78904   0.945  37.961   4.140
 9024W        W78905  11.692  44.276   5.190
 9025W        W78906  15.620  12.308   2.247
 9026W        W78907  29.506  10.739   4.793
 9027W        W78908  22.186   6.386  11.409
 9028W        W78909  30.074  25.215  13.394
 9029W        W78910  44.298  29.008   1.863
 9030W        W78911  20.560  38.425  14.426
 9031W        W78912   3.902   0.403   4.760
 9032W        W78913  31.608  25.207  10.641
 9033W        W78914  29.075  39.020  12.362
 9034W        W78915  24.058  26.022  14.429
 9035W        W78916  25.152  37.004   3.686
 9036W        W78917  18.262   7.723  11.070
 9037W        W78918  27.640   2.834   2.209
 9038W        W78919  21.144  21.126  13.002
 9039W        W78920  27.679   9.163  10.966
 9040W        W78921  19.539  19.758  13.455
 9041W        W78922  36.988  33.439   2.349
 9042W        W78923  25.673  25.609   2.371
 9043W        W78924   9.867  10.687  12.088
 9044W        W78925  22.085   4.840   2.305
 9045W        W78926  27.451   4.742   4.201
 9046W        W78927  43.311  41.843   2.198
 9047W        W78928  10.827  33.054  10.423
 9048W        W78929  43.361  23.515   0.343
 9049W        W78930  14.773  42.411   4.610
 9050W        W78931   4.818   7.311   0.881
 9051W        W78932  40.370  35.536   3.847
 9052W        W78933   1.766  29.040   3.737
 9053W        W78934  17.087   2.837  12.091
 9054W        W78935  44.969  26.963  12.558
 9055W        W78936  33.033  40.966  12.535
 9056W        W78937  15.820  26.042   4.122
 9057W        W78938  11.319   8.385   2.398
 9058W        W78939  31.088  19.269  13.505
 9059W        W78940  16.690  38.502  14.920
 9060W        W78941  29.076  26.660  12.041
 9061W        W78942   4.409  15.219  11.461
 9062W        W78943  24.137  35.999   1.900
 9063W        W78944  34.569  10.875  13.936
 9064W        W78945   8.724  16.695   1.211
 9065W        W78946   2.730  36.532  10.517
 9066W        W78947  39.988  27.509  10.922
 9067W        W78948  42.867  23.057  11.431
 9068W        W78949  29.470   2.277  11.519
 9069W        W78950  10.158  14.258   5.274
 9070W        W78951   7.349  34.415   0.255
 9071W        W78952  27.969  16.086  12.030
 9072W        W78953  42.341  20.765   0.874
 9073W        W78954  43.444  26.504   1.332
 9074W        W78955   2.721  24.190  13.825
 9075W        W78956   2.397  29.511   1.259
 9076W        W78957  18.242  35.093  13.427
 9077W        W78958  11.686  22.018   1.426
 9078W        W78959   4.441  36.940   0.778
 9079W        W78960  14.313  34.565   2.404
 9080W        W78961  37.338  35.456   3.789
 9081W        W78962   5.347  35.524   2.287
 9082W        W78963  16.587  22.695  14.838
 9083W        W78964   9.322  19.705   4.262
 9084W        W78965  23.521  17.739   2.349
 9085W        W78966  35.040  21.664   2.800
 9086W        W78967   2.231  37.351  13.840
 9087W        W78968   2.330  30.547  14.395
 9088W        W78969   5.311  26.458   3.217
 9089W        W78970  23.017  29.113  13.508
 9090W        W78971  17.161  32.397  11.100
 9091W        W78972   8.813  11.854   0.929
 9092W        W78973  31.421  14.115   3.719
 9093W        W78974  35.036   9.706   2.895
 9094W        W78975   1.870  37.077  12.085
 9095W        W78976  26.494  39.358  13.868
 9096W        W78977  43.864  41.894   2.766
 9097W        W78978  30.056  39.492  12.885
 9098W        W78979   0.423  25.558   2.775
 9099W        W78980  20.689  43.319   0.252
 9100W        W78981  19.213  14.124   3.743
 9101W        W78982  35.418   3.931  11.493
 9102W        W78983  26.487  35.996  12.084
 9103W        W78984   1.894  40.822   2.401
 9104W        W78985   3.887  35.089   0.926
 9105W        W78986   6.375  19.069  11.466
 9106W        W78987  32.618  27.460   2.679
 9107W        W78988  20.607  23.102  14.017
 9108W        W78989   2.940  34.051   1.839
 9109W        W78990  31.052  28.580   1.883
 9110W        W78991  19.156  43.350  12.470
 9111W        W78992  12.174  19.715  12.502
 9112W        W78993  20.596  36.505  12.940
 9113W        W78994  25.669  29.084   2.850
 9114W        W78995  23.237   6.848  12.483
 9115W        W78996  15.262  16.103   3.658
 9116W        W78997   4.869  44.766   0.395
 9117W        W78998  24.088  21.561   0.260
 9118W        W78999   8.183  40.538   3.208
 9119W        W79000  36.954  14.135  14.798
 9120W        W79001  31.578  16.735   2.828
 9121W        W79002  29.482  33.099   3.245
 9122W        W79003  36.543  37.397   2.707
 9123W        W79004  15.226  11.321  12.026
 9124W        W79005  20.250   8.745  13.504
 9125W        W79006   3.219  23.720   3.638
 9126W        W79007  42.405  20.064   0.407
 9127W        W79008   4.377  14.149   4.643
 9128W        W79009  38.907  29.042  13.034
 9129W        W79010  27.120  20.204   1.247
 9130W        W79011  42.420   5.389  11.986
 9131W        W79012  12.759  42.285  14.782
 9132W        W79013   2.828  15.730   4.190
 9133W        W79014   6.756  31.077  10.512
 9134W        W79015  13.821  34.874   4.200
 9135W        W79016  30.487  17.304  11.396
 9136W        W79017  22.609   0.762  14.818
 9137W        W79018  23.240   4.805  11.940
 9138W        W79019  23.020  23.096   0.481
 9139W        W79020  37.393  22.614   3.270
 9140W        W79021   5.918  12.625   4.702
 9141W        W79022   5.769  10.212   3.287
 9142W        W79023  22.609  35.888  13.421
 9143W        W79024  18.730  11.763  13.815
 9144W        W79025   0.392  20.204   1.240
 9145W        W79026  36.579  43.902  12.921
 9146W        W79027  38.949   4.268   3.235
 9147W        W79028  39.334  43.823   2.726
 9148W        W79029  12.242  34.017   2.340
 9149W        W79030  14.187  33.393  10.945
 9150W        W79031  40.821  27.128  12.365
 9151W        W79032  14.807  10.377  13.008
 9152W        W79033  40.882  25.067  14.390
 9153W        W79034  35.459   3.413   3.322
 9154W        W79035  21.144  20.187  13.435
 9155W        W79036  25.477  13.715   1.375
 9156W        W79037  22.145  17.306   2.772
 9157W        W79038  13.160  35.089   3.697
 9158W        W79039   0.430   0.382  14.388
 9159W        W79040  42.839  16.783   1.853
 9160W        W79041  19.277  28.125   1.736
 9161W        W79042  13.844  19.537  12.096
 9162W        W79043  13.761  33.061  11.408
 9163W        W79044  44.498  35.412   0.955
 9164W        W79045   3.389   9.392   4.733
 9165W        W79046  41.296  22.640   0.266
 9166W        W79047   1.961   7.722  14.443
 9167W        W79048  30.110  14.811  13.847
 9168W        W79049  10.351  20.202  14.385
 9169W        W79050  14.314  12.141  13.421
 9170W        W79051  43.916  11.351  12.086
 9171W        W79052   7.295   1.747   0.931
 9172W        W79053  43.795  30.591   4.332
 9173W        W79054  31.010  22.647   1.824
 9174W        W79055  35.048   1.392   2.802
 9175W        W79056   7.284   0.986   4.137
 9176W        W79057   7.770   9.797  12.492
 9177W        W79058  34.936  18.207  11.065
 9178W        W79059  16.315  18.220  10.588
 9179W        W79060  35.415  24.524   1.906
 9180W        W79061  41.822  39.039  14.928
 9181W        W79062   1.806   1.768   0.794
 9182W        W79063  41.293  30.109  10.462
 9183W        W79064  10.769  22.535   3.863
 9184W        W79065  27.998  32.088  13.047
 9185W        W79066  34.068   4.282   3.199
 9186W        W79067   0.757  13.637  14.406
 9187W        W79068  16.126  17.129   1.825
 9188W        W79069  42.409   9.290   0.416
 9189W        W79070  39.912  33.049   0.841
 9190W        W79071  33.979  29.564  13.000
 9191W        W79072  33.381  43.873  14.507
 9192W        W79073  24.091  21.019  12.536
 9193W        W79074  19.624  12.682   3.866
 9194W        W79075  34.998  37.999  11.957
 9195W        W79076  32.106  19.569   1.835
 9196W        W79077   0.854   8.337  13.866
 9197W        W79078  14.742  32.927   2.375
 9198W        W79079   0.396   5.202   4.129
 9199W        W79080  22.055  14.258   2.221
 9200W        W79081  16.791  34.554   1.755
 9201W        W79082  38.364  32.452   4.613
 9202W        W79083  12.194  23.648   0.291
 9203W        W79084  31.032   7.184   1.330
 9204W        W79085  14.102  30.927  11.028
 9205W        W79086   1.847   8.220  11.122
 9206W        W79087  31.103  13.206   1.436
 9207W        W79088  11.785  14.239   1.841
 9208W        W79089  29.176  24.014  13.926
 9209W        W79090  27.096  43.776  13.900
 9210W        W79091  39.314  43.504  11.873
 9211W        W79092  15.791  27.623   0.774
 9212W        W79093   1.366  23.113   0.286
 9213W        W79094  17.301  29.137  14.363
 9214W        W79095  21.164   8.897  12.853
 9215W        W79096  19.734   9.317   2.254
 9216W        W79097  30.484  40.344   1.795
 9217W        W79098  43.466  41.536   0.900
 9218W        W79099  12.283  13.639  12.431
 9219W        W79100  22.195  13.768  13.862
 9220W        W79101  41.842   2.394   3.794
 9221W        W79102   0.296  25.702  10.563
 9222W        W79103  27.477  37.973  12.571
 9223W        W79104  11.206   8.857  14.921
 9224W        W79105  13.781  30.918   1.858
 9225W        W79106  40.418   2.953   0.919
 9226W        W79107  20.668   9.325  14.480
 9227W        W79108  36.428  25.164   0.766
 9228W        W79109  27.054   2.919  13.990
 9229W        W79110   3.443   6.759   0.339
 9230W        W79111  26.649  20.042  11.994
 9231W        W79112  24.549  13.683   1.745
 9232W        W79113   3.890   7.861  10.960
 9233W        W79114  17.218  31.095  11.440
 9234W        W79115   4.931   0.786  13.965
 9235W        W79116  15.690   9.300  14.291
 9236W        W79117  38.569  38.359   4.790
 9237W        W79118   9.834  15.136  11.116
 9238W        W79119   1.245  39.841  11.895
 9239W        W79120  29.134  43.956  10.589
 9240W        W79121  21.732  22.241  13.815
 9241W        W79122  22.233  33.967   4.150
 9242W        W79123   5.255  42.982   3.340
 9243W        W79124  16.673  24.716   1.786
 9244W        W79125  41.377  25.690  12.407
 9245W        W79126  31.122   3.739  14.461
 9246W        W79127  22.239  24.714  13.820
 9247W        W79128  26.690   7.800  13.422
 9248W        W79129  31.542  43.897  11.396
 9249W        W79130  21.166  17.134   0.245
 9250W        W79131  15.734  36.059  10.126
 9251W        W79132  34.029  26.486   4.163
 9252W        W79133  41.842  20.137  10.533
 9253W        W79134   2.318  34.085  14.988
 9254W        W79135   2.931  10.382  11.415
 9255W        W79136  19.220  18.747   1.363
 9256W        W79137   7.374  10.710   1.807
 9257W        W79138  41.444  27.967   4.247
 9258W        W79139  19.099  40.876  11.863
 9259W        W79140   7.328   2.897  10.569
 9260W        W79141  23.656  27.553  10.587
 9261W        W79142  34.984   0.750  10.112
 9262W        W79143  41.839  34.888  13.844
 9263W        W79144   0.956  20.644   3.356
 9264W        W79145  23.227  42.339  12.009
 9265W        W79146  11.704   3.851  12.062
 9266W        W79147   0.858  14.659  11.427
 9267W        W79148   8.317   3.311  14.475
 9268W        W79149  17.070  33.904   1.263
 9269W        W79150  41.506  30.513   2.733
 9270W        W79151  32.961  24.549   3.291
 9271W        W79152   7.751   3.851  14.002
 9272W        W79153  29.449   6.811  11.506
 9273W        W79154  18.276  20.164  12.485
 9274W        W79155  17.722  14.733  13.817
 9275W        W79156  19.039  40.851   3.193
 9276W        W79157  13.131  34.470  14.032
 9277W        W79158  38.420  32.498  10.466
 9278W        W79159  14.622  23.693  11.118
 9279W        W79160  14.126  14.280  14.795
 9280W        W79161  29.963   9.862  11.881
 9281W        W79162  32.007   0.437  13.908
 9282W        W79163  41.364  16.568  11.594
 9283W        W79164  38.458  43.831   1.781
 9284W        W79165  26.684  15.790   3.335
 9285W        W79166   2.849   9.305   4.822
 9286W        W79167  34.453  43.858   3.334
 9287W        W79168  23.623  17.071  14.506
 9288W        W79169   4.824  10.224  14.937
 9289W        W79170  11.646  26.550  14.765
 9290W        W79171  44.842   1.358  13.981
 9291W        W79172  12.334  31.461  10.440
 9292W        W79173   1.253  31.519  13.002
 9293W        W79174   2.962  26.683  12.038
 9294W        W79175  12.757  37.867  13.478
 9295W        W79176  36.388  35.054  10.635
 9296W        W79177  37.548  32.588  11.484
 9297W        W79178   7.889  15.164  11.605
 9298W        W79179  14.183  10.790  12.937
 9299W        W79180  10.635  12.327   0.313
 9300W        W79181   4.775  41.039  11.495
 9301W        W79182  38.050  16.091  12.494
 9302W        W79183   6.706  23.137   2.249
 9303W        W79184   3.916  38.349   1.341
 9304W        W79185  41.495  16.585   2.368
 9305W        W79186  19.568   3.388   1.762
 9306W        W79187   1.760  17.239  13.962
 9307W        W79188  12.642  29.639  14.372
 9308W        W79189   8.815   2.436   3.778
 9309W        W79190   7.285   2.471  14.987
 9310W        W79191   2.402  37.031   3.733
 9311W        W79192  39.001   5.702  12.477
 9312W        W79193  39.349  35.014   4.343
 9313W        W79194  37.374  11.631   2.295
 9314W        W79195   2.346   6.753   3.796
 9315W        W79196   4.720  23.052   2.413
 9316W        W79197  23.617  16.116  12.948
 9317W        W79198  29.075  26.104  12.505
 9318W        W79199  22.052  10.155  10.491
 9319W        W79200  37.515  37.955  11.596
 9320W        W79201   1.914  10.679   3.232
 9321W        W79202  43.909  39.448   4.209
 9322W        W79203   5.300   9.282  10.526
 9323W        W79204  23.990  44.490   1.338
 9324W        W79205   6.917  27.648   3.183
 9325W        W79206   0.414   5.735  13.900
 9326W        W79207  11.792  43.944  13.312
 9327W        W79208  34.481  29.641   2.413
 9328W        W79209  14.212  43.466   0.301
 9329W        W79210  23.669  27.509  14.509
 9330W        W79211  14.727  23.083  12.480
 9331W        W79212  26.066   1.385  11.437
 9332W        W79213  37.450  40.005  14.374
 9333W        W79214  39.387  20.069  12.505
 9334W        W79215   8.271   7.180  13.055
 9335W        W79216   7.669  44.790   1.773
 9336W        W79217  30.001  38.905   2.196
 9337W        W79218  14.639   4.319   1.901
 9338W        W79219   6.313   0.939  12.416
 9339W        W79220  41.013  15.228   3.264
 9340W        W79221  33.528  42.462  11.604
 9341W        W79222  15.688  19.235  10.435
 9342W        W79223   8.195  39.017   0.453
 9343W        W79224  26.589   2.751   3.771
 9344W        W79225  12.680  42.435   4.150
 9345W        W79226  28.086  40.904   1.826
 9346W        W79227   9.795  27.039   3.162
 9347W        W79228  31.036  43.952  14.763
 9348W        W79229  19.191  32.474   3.222
 9349W        W79230  30.517  31.444  11.865
 9350W        W79231   4.355  34.867  12.871
 9351W        W79232  10.233   5.286  13.455
 9352W        W79233  41.370  21.738  11.952
 9353W        W79234  44.393  19.228  13.485
 9354W        W79235  29.432  17.157   9.947
 9355W        W79236  38.444  40.905  12.013
 9356W        W79237  19.690  33.968   4.745
 9357W        W79238   2.256  11.754  14.836
 9358W        W79239   5.400  13.788   3.817
 9359W        W79240  13.814  43.382   0.306
 9360W        W79241  33.467   3.718  12.518
 9361W        W79242  36.963   1.464   3.215
 9362W        W79243   3.387  43.786   9.972
 9363W        W79244  38.512  17.713  14.371
 9364W        W79245  42.287  41.431  10.907
 9365W        W79246  36.896  34.101   0.280
 9366W        W79247  28.444  21.087   1.845
 9367W        W79248  37.372  29.999   0.439
 9368W        W79249  20.691  21.586   0.817
 9369W        W79250  25.188   9.778   3.279
 9370W        W79251  22.078  40.469   1.698
 9371W        W79252   3.327  23.216   1.711
 9372W        W79253   4.281  43.500   4.739
 9373W        W79254  44.827  21.223   3.657
 9374W        W79255   2.763  10.815   0.342
 9375W        W79256  13.811   3.743   0.391
 9376W        W79257  17.262  12.205  11.061
 9377W        W79258  26.968  12.643   4.269
 9378W        W79259   0.933   9.277  14.809
 9379W        W79260  15.212  23.200  14.388
 9380W        W79261  20.630  28.103   4.352
 9381W        W79262  18.128   9.368   1.932
 9382W        W79263  23.708  28.956  14.884
 9383W        W79264  39.886   8.177  13.350
 9384W        W79265  35.918  26.179  11.946
 9385W        W79266  15.156  29.613  11.094
 9386W        W79267   3.441   1.454  14.975
 9387W        W79268  30.959  13.213  13.876
 9388W        W79269   6.297  23.563  14.961
 9389W        W79270   9.767  18.616   4.713
 9390W        W79271  10.680   2.349   0.825
 9391W        W79272  11.759  36.999   3.203
 9392W        W79273   4.354  39.880   2.709
 9393W        W79274  28.613  30.505   1.932
 9394W        W79275  21.080  42.976   2.232
 9395W        W79276  44.914  40.872  10.615
 9396W        W79277  20.194   1.270   2.843
 9397W        W79278  29.952  41.948   3.339
 9398W        W79279  10.148   0.965   5.253
 9399W        W79280  16.261  10.318  14.996
 9400W        W79281   0.774   5.706  12.008
 9401W        W79282  42.412  37.874  12.847
 9402W        W79283  40.902  28.571   0.436
 9403W        W79284   7.185  12.768   0.410
 9404W        W79285  20.584  26.552   5.290
 9405W        W79286  38.551   0.481   4.771
 9406W        W79287   8.270  25.710   2.323
 9407W        W79288  31.068   2.814  10.592
 9408W        W79289   2.373  28.545  12.376
 9409W        W79290  33.482  40.414   4.755
 9410W        W79291   8.703  42.383  11.106
 9411W        W79292  26.574   3.258  13.794
 9412W        W79293   5.756  23.550  11.945
 9413W        W79294  41.905  19.137   4.801
 9414W        W79295  35.451  24.493   0.478
 9415W        W79296  28.081  28.951  11.905
 9416W        W79297  39.540  26.196  13.353
 9417W        W79298  10.718  16.800  12.989
 9418W        W79299  25.074  23.651   2.770
 9419W        W79300  20.269  14.268   4.673
 9420W        W79301   9.888  21.132  11.052
 9421W        W79302  33.583  27.683  12.069
 9422W        W79303  42.941   0.403  11.021
 9423W        W79304  23.237  36.550   1.732
 9424W        W79305  20.745   5.875  10.456
 9425W        W79306  16.162  33.027   3.780
 9426W        W79307  40.894  22.621   3.301
 9427W        W79308   4.812  32.911   0.822
 9428W        W79309  32.438  15.742  12.899
 9429W        W79310  28.506   7.782   2.189
 9430W        W79311  37.534  18.176   2.385
 9431W        W79312  41.799  21.614  12.828
 9432W        W79313  12.635   7.230  12.574
 9433W        W79314  34.879  38.384  14.904
 9434W        W79315  28.498  16.757   1.244
 9435W        W79316  25.477  19.590  12.948
 9436W        W79317  36.391  16.714   0.891
 9437W        W79318  43.494   8.386  13.814
 9438W        W79319  27.504  35.075  14.788
 9439W        W79320  18.727  32.404  12.395
 9440W        W79321  17.668   8.814   4.600
 9441W        W79322  44.343   2.901   4.658
 9442W        W79323  27.654   5.740  13.463
 9443W        W79324  31.108  31.916   3.690
 9444W        W79325  37.427   6.418  14.477
 9445W        W79326  42.483   8.871  14.932
 9446W        W79327  14.735   4.883   4.792
 9447W        W79328  12.350  43.440  11.526
 9448W        W79329  39.941  36.922   0.957
 9449W        W79330  23.088  22.591   1.875
 9450W        W79331  14.687  27.159  14.497
 9451W        W79332  11.725  44.002  14.029
 9452W        W79333  31.551  31.032  12.369
 9453W        W79334  26.581  25.530   2.346
 9454W        W79335   9.878  21.598  13.471
 9455W        W79336   6.748  41.796   0.397
 9456W        W79337  15.809  17.694  14.773
 9457W        W79338  25.111  37.406   0.818
 9458W        W79339   6.248  14.595  10.899
 9459W        W79340  33.444  25.661  13.826
 9460W        W79341  36.356  13.301  14.012
 9461W        W79342  44.368  28.633   0.732
 9462W        W79343  40.875   5.920   4.792
 9463W        W79344   3.844  38.507  12.342
 9464W        W79345  20.668  35.595  13.525
 9465W        W79346  42.417  23.102  10.981
 9466W        W79347  33.407  24.635  12.411
 9467W        W79348   8.265  26.531  13.030
 9468W        W79349  35.085  40.387  14.276
 9469W        W79350  27.092   3.239   3.847
 9470W        W79351  16.627  19.701  12.016
 9471W        W79352  11.826   4.345   1.696
 9472W        W79353  24.055  34.471   0.743
 9473W        W79354  15.680  23.612  10.616
 9474W        W79355   0.423  34.899   3.763
 9475W        W79356  38.497  32.059   2.832
 9476W        W79357  25.966   9.243  13.879
 9477W        W79358  33.519  43.313  11.868
 9478W        W79359   6.184  22.026  13.922
 9479W        W79360  17.647  41.826   1.915
 9480W        W79361  44.939  40.945   0.338
 9481W        W79362  32.071  40.942   2.230
 9482W        W79363  16.244   2.848   3.316
 9483W        W79364  32.564  38.017  12.339
 9484W        W79365  42.022  15.233   0.844
 9485W        W79366  32.564  43.999  14.826
 9486W        W79367  26.197  40.445   2.774
 9487W        W79368  43.000  22.097   3.206
 9488W        W79369  30.976   4.747   1.829
 9489W        W79370  41.494  36.418  14.838
 9490W        W79371  34.104  38.963  10.475
 9491W        W79372  39.983  36.005   0.764
 9492W        W79373  36.979  43.284  12.384
 9493W        W79374  27.625  39.013  11.502
 9494W        W79375  37.858   9.385   3.243
 9495W        W79376  21.097  37.496  11.006
 9496W        W79377  17.217   0.439   0.280
 9497W        W79378   0.393   0.764   4.712
 9498W        W79379  32.464  43.483  11.416
 9499W        W79380   4.895   6.780  10.460
 9500W        W79381  20.554  28.463  13.811
 9501W        W79382  44.968  23.736   0.344
 9502W        W79383   1.267  24.502  12.449
 9503W        W79384   0.257  35.034   0.904
 9504W        W79385   6.201  41.372   0.823
 9505W        W79386  15.596  19.638  12.554
 9506W        W79387  35.998  29.040  11.990
 9507W        W79388  18.576  16.136  14.417
 9508W        W79389  28.987   1.925   3.643
 9509W        W79390  44.895  33.067   3.238
 9510W        W79391   7.251  31.606   3.305
 9511W        W79392  22.143  14.114  12.560
 9512W        W79393  22.630  23.095  12.953
 9513W        W79394   7.682  31.052  11.514
 9514W        W79395  26.008   1.894   4.307
 9515W        W79396  38.557  36.560   4.813
 9516W        W79397   4.777  22.736  12.455
 9517W        W79398  36.048  32.520   3.175
 9518W        W79399   1.294  44.798  11.521
 9519W        W79400  29.668  29.120   4.287
 9520W        W79401  43.797  43.903  11.413
 9521W        W79402  14.105  13.665   2.665
 9522W        W79403  18.618  15.686  12.919
 9523W        W79404  38.039  44.497   0.819
 9524W        W79405  16.294  22.570  14.765
 9525W        W79406  12.722  30.065   4.643
 9526W        W79407  38.523  11.639  13.051
 9527W        W79408  38.925  35.942  11.105
 9528W        W79409   3.894  27.035   1.419
 9529W        W79410  17.712  10.856   4.686
 9530W        W79411  43.955   4.364  11.071
 9531W        W79412  31.606  29.110  14.889
 9532W        W79413  44.489  24.696  14.925
 9533W        W79414  25.591  38.884   2.866
 9534W        W79415  28.075  15.670   2.719
 9535W        W79416  10.171  25.528  14.958
 9536W        W79417   7.245  19.244   0.913
 9537W        W79418  12.711  34.042   4.836
 9538W        W79419   1.905  10.188   0.934
 9539W        W79420  32.958  26.655   4.834
 9540W        W79421  10.660   4.347  12.847
 9541W        W79422  36.928  18.098  11.032
 9542W        W79423   0.350  29.175  12.563
 9543W        W79424  24.578   8.839   1.704
 9544W        W79425   9.846   5.207   0.410
 9545W        W79426   9.333  33.926  13.401
 9546W        W79427  14.097   5.323   1.791
 9547W        W79428  15.653   6.704   4.720
 9548W        W79429  44.496  15.588  14.781
 9549W        W79430  33.890  21.733  11.521
 9550W        W79431  12.752  15.192   2.755
 9551W        W79432  12.341  17.070   2.259
 9552W        W79433   3.326  37.492   0.817
 9553W        W79434  14.200  39.461   2.870
 9554W        W79435  36.998   1.876   5.203
 9555W        W79436  41.985  28.162  11.121
 9556W        W79437  29.523  36.434  14.990
 9557W        W79438  41.026  30.106   2.385
 9558W        W79439  17.077   8.254  14.947
 9559W        W79440  39.379  34.093   0.381
 9560W        W79441  16.746  12.804  11.002
 9561W        W79442  13.113  27.566   0.403
 9562W        W79443  35.561   3.344   4.636
 9563W        W79444  44.266  39.399  12.888
 9564W        W79445  29.922   1.881   1.335
 9565W        W79446  32.049  22.097   2.790
 9566W        W79447  13.123  10.720   4.819
 9567W        W79448  36.018  39.917  10.933
 9568W        W79449   5.839  42.281  13.836
 9569W        W79450  12.640  38.827  12.378
 9570W        W79451  42.937  22.151   0.732
 9571W        W79452  14.815   5.356  11.890
 9572W        W79453  33.924  36.434  13.419
 9573W        W79454   7.724   3.282   3.658
 9574W        W79455  25.562  44.479  13.898
 9575W        W79456  26.021  24.686  11.976
 9576W        W79457  37.983  15.286   1.815
 9577W        W79458  17.280  38.823   2.215
 9578W        W79459  31.040  27.611  14.328
 9579W        W79460  16.095  31.576   1.417
 9580W        W79461  13.803   1.378  12.984
 9581W        W79462  33.422  20.690   3.642
 9582W        W79463  11.679  31.640   2.405
 9583W        W79464   4.837   4.933   1.737
 9584W        W79465   4.420   0.823   3.358
 9585W        W79466   4.796  19.740   2.210
 9586W        W79467  35.454  13.173   0.889
 9587W        W79468  19.659  28.593   2.797
 9588W        W79469  41.984  25.181  13.480
 9589W        W79470  21.216  34.956   3.834
 9590W        W79471  26.970  22.718  10.137
 9591W        W79472  29.962  12.650  10.604
 9592W        W79473  42.926  27.630   2.211
 9593W        W79474  33.919  44.470   3.751
 9594W        W79475  18.668  42.874   2.402
 9595W        W79476  21.261   3.756  13.824
 9596W        W79477   9.862  20.566  12.919
 9597W        W79478  31.950  12.811   3.248
 9598W        W79479  21.630  38.015   4.744
 9599W        W79480  39.438  34.103   0.798
 9600W        W79481  31.110  26.954   0.292
 9601W        W79482  15.607  30.506  14.416
 9602W        W79483  14.627  15.177  11.887
 9603W        W79484   1.898  21.088   2.414
 9604W        W79485  11.711  13.654  11.900
 9605W        W79486  33.956  25.121   4.140
 9606W        W79487   2.350   6.854   0.359
 9607W        W79488  14.332   8.284  11.074
 9608W        W79489  30.635  30.514   3.334
 9609W        W79490  31.419  37.392   2.373
 9610W        W79491   0.891  12.796  11.434
 9611W        W79492   0.434  22.501  14.858
 9612W        W79493  11.696  30.072   1.340
 9613W        W79494   3.263   7.710  14.404
 9614W        W79495   5.427   0.904   1.423
 9615W        W79496   2.233   7.227   4.314
 9616W        W79497  21.662   1.444  14.283
 9617W        W79498   8.163  30.150  11.406
 9618W        W79499   3.293   4.413  12.958
 9619W        W79500  29.131  39.866   1.851
 9620W        W79501  43.802  38.850   0.262
 9621W        W79502  32.613  13.750   0.479
 9622W        W79503  32.611  15.701  10.975
 9623W        W79504  36.867   3.286   0.422
 9624W        W79505   2.953  19.675  13.481
 9625W        W79506   6.708   2.456  11.571
 9626W        W79507   7.818  10.784  13.454
 9627W        W79508  26.040  37.087   3.867
 9628W        W79509  31.063  23.595   0.911
 9629W        W79510   9.883  26.651  11.510
 9630W        W79511  28.471  41.424  10.624
 9631W        W79512  13.722   5.203  13.852
 9632W        W79513  27.661  43.878   2.710
 9633W        W79514  26.604   4.285  14.993
 9634W        W79515  30.581  23.017   4.293
 9635W        W79516  33.456  23.702   1.379
 9636W        W79517  25.023   6.226   2.258
 9637W        W79518   9.204  30.426  14.975
 9638W        W79519  40.501   4.224   2.668
 9639W        W79520  41.994  31.903   1.348
 9640W        W79521  28.140  27.966  10.030
 9641W        W79522  36.098  35.906  11.513
 9642W        W79523  31.487  34.111   3.383
 9643W        W79524   1.854  41.527  12.454
 9644W        W79525  28.005  21.257  11.422
 9645W        W79526  41.503  41.422  11.451
 9646W        W79527  10.191  23.002   1.700
 9647W        W79528   8.395  27.532   1.296
 9648W        W79529  18.579  14.233   2.374
 9649W        W79530   4.405  14.179   1.242
 9650W        W79531  35.041  36.884   0.849
 9651W        W79532  26.035  22.211  13.905
 9652W        W79533  17.632  44.906  13.416
 9653W        W79534  28.464  19.697  11.477
 9654W        W79535  20.235  24.119   1.273
 9655W        W79536  39.456  24.687   3.246
 9656W        W79537  18.635  25.706  11.570
 9657W        W79538  14.197  25.096   0.481
 9658W        W79539  37.998  18.192   5.122
 9659W        W79540  15.789  32.971   4.740
 9660W        W79541  29.446   4.421   3.312
 9661W        W79542  16.256   2.381  10.895
 9662W        W79543  12.817  36.356   3.718
 9663W        W79544  25.507  34.980  13.024
 9664W        W79545  12.709  38.482   0.789
 9665W        W79546   7.806  11.736  11.545
 9666W        W79547  33.390  17.709  11.513
 9667W        W79548  34.076  29.663  10.974
 9668W        W79549   5.363  20.672   1.238
 9669W        W79550  38.833  24.723   3.245
 9670W        W79551  33.421  30.605  13.829
 9671W        W79552  16.759  10.248  12.017
 9672W        W79553  24.123  42.854  10.561
 9673W        W79554  30.085   3.866  14.319
 9674W        W79555   7.672  41.006   0.453
 9675W        W79556  38.036  18.574  14.973
 9676W        W79557  17.110  10.653  12.502
 9677W        W79558  30.433   7.680   0.423
 9678W        W79559  40.975  39.560  11.982
 9679W        W79560   6.832  11.623   4.731
 9680W        W79561  40.849   3.400   2.676
 9681W        W79562  17.717  41.400  11.500
 9682W        W79563   7.276   4.797  12.343
 9683W        W79564  32.560  25.071  11.478
 9684W        W79565   7.746   5.809   4.668
 9685W        W79566  24.991  35.500   0.455
 9686W        W79567  39.944  37.945   4.747
 9687W        W79568  11.733  43.427  14.293
 9688W        W79569   7.851  26.492  11.591
 9689W        W79570   6.703  33.546  10.934
 9690W        W79571  44.302  15.090   3.280
 9691W        W79572  19.581   0.868   9.963
 9692W        W79573  40.342  40.332  13.548
 9693W        W79574  28.454  25.630   3.706
 9694W        W79575  40.417  13.205  13.373
 9695W        W79576  26.535  33.600  10.525
 9696W        W79577  35.396  41.414  11.386
 9697W        W79578  33.101   9.651  14.971
 9698W        W79579   4.815   8.806   5.162
 9699W        W79580  11.304   9.755  14.007
 9700W        W79581  37.959  12.758  13.899
 9701W        W79582  18.767   5.921  10.929
 9702W        W79583   6.815  35.971  14.939
 9703W        W79584   4.420  29.535   0.384
 9704W        W79585  19.280  28.134  11.863
 9705W        W79586  19.548   7.240  11.599
 9706W        W79587  18.722  18.783  12.383
 9707W        W79588  33.477  12.302  13.005
 9708W        W79589   2.390  39.980  10.439
 9709W        W79590  36.406  17.217  14.413
 9710W        W79591  26.458  25.115  11.878
 9711W        W79592  36.547   2.903  11.994
 9712W        W79593  30.598   1.250   0.778
 9713W        W79594  41.532  25.682   0.356
 9714W        W79595  23.224   5.319   1.778
 9715W        W79596  13.815  34.388  11.013
 9716W        W79597  39.974  13.617  11.584
 9717W        W79598  33.613   7.389  13.401
 9718W        W79599  24.196   7.718  14.826
 9719W        W79600  18.065  26.100  12.346
 9720W        W79601  20.753   8.335   3.166
 9721W        W79602  34.554  38.334   3.304
 9722W        W79603  41.435  19.757   0.278
 9723W        W79604  38.878  34.947  14.925
 9724W        W79605  24.530  21.589  12.473
 9725W        W79606  38.863  11.793   2.862
 9726W        W79607  27.999   3.751   1.448
 9727W        W79608  17.675  41.849   2.885
 9728W        W79609  16.127  20.047   2.725
 9729W        W79610  10.759  10.818  14.951
 9730W        W79611  40.027   8.380   1.271
 9731W        W79612  41.446  20.051  13.957
 9732W        W79613  10.683  21.082   2.715
 9733W        W79614  40.813  23.991   1.347
 9734W        W79615   0.439   2.459   4.257
 9735W        W79616   2.766  27.058   1.918
 9736W        W79617   6.363  38.411  10.992
 9737W        W79618  33.949  23.717  10.888
 9738W        W79619  11.845  13.284   4.664
 9739W        W79620  18.267  11.700  11.520
 9740W        W79621  42.792  11.320   2.292
 9741W        W79622  39.404   7.897   4.835
 9742W        W79623  13.780  14.623   4.122
 9743W        W79624  33.034  44.876   4.812
 9744W        W79625  24.581  35.444  12.393
 9745W        W79626  29.486  42.790   3.869
 9746W        W79627  15.162  10.154   2.221
 9747W        W79628  20.540  21.533   3.265
 9748W        W79629   0.424  40.362  14.923
 9749W        W79630  38.839   6.329  14.417
 9750W        W79631  32.637  14.114   2.830
 9751W        W79632  26.500  38.973  12.827
 9752W        W79633  23.564   4.822  14.300
 9753W        W79634  10.870  15.262   2.181
 9754W        W79635  36.874  15.767   1.773
 9755W        W79636  25.062  16.609   3.641
 9756W        W79637  30.093  27.581  13.345
 9757W        W79638  37.008   0.969  12.436
 9758W        W79639   5.883   1.947   2.278
 9759W        W79640  17.790  41.300   0.954
 9760W        W79641   4.383  40.507   0.920
 9761W        W79642  25.618  13.321  13.011
 9762W        W79643  35.036   9.298   1.429
 9763W        W79644  18.757  19.140  14.870
 9764W        W79645  19.769  36.062  14.397
 9765W        W79646  28.084   0.357  13.505
 9766W        W79647  20.540  39.977  10.997
 9767W        W79648  28.664   0.797   1.218
 9768W        W79649  39.053   7.680   0.283
 9769W        W79650   7.316  39.541  14.400
 9770W        W79651  19.747  24.192  13.868
 9771W        W79652   9.264  21.033  13.847
 9772W        W79653  42.779   3.458   4.679
 9773W        W79654  30.506  21.079   4.235
 9774W        W79655  19.553  17.174  13.469
 9775W        W79656  18.761  21.244  10.031
 9776W        W79657  20.751  34.459  12.039
 9777W        W79658  20.636  11.275   3.652
 9778W        W79659  24.565  34.878   0.457
 9779W        W79660  26.504   8.392   0.763
 9780W        W79661  16.241  28.524  12.533
 9781W        W79662   5.193  35.883   2.783
 9782W        W79663  28.671  24.686  13.476
 9783W        W79664  24.091  19.240  13.326
 9784W        W79665  16.776  42.974   1.280
 9785W        W79666  44.938  32.988   1.856
 9786W        W79667  15.160  43.341   1.786
 9787W        W79668  35.372  14.206  13.330
 9788W        W79669  28.972   7.281  11.947
 9789W        W79670   6.792  31.962   1.906
 9790W        W79671  29.592  19.111   3.719
 9791W        W79672   6.367  39.558   2.327
 9792W        W79673  25.632  32.497   0.901
 9793W        W79674  28.599  17.268  11.505
 9794W        W79675  11.641  15.809   2.307
 9795W        W79676  19.192  35.093   4.272
 9796W        W79677  24.157   1.858   3.703
 9797W        W79678  11.769  35.961   3.158
 9798W        W79679  18.637  36.438   3.675
 9799W        W79680   2.795  22.051   1.236
 9800W        W79681  40.813  38.470  14.960
 9801W        W79682  26.988  20.133   3.156
 9802W        W79683   0.373   8.268   0.339
 9803W        W79684  38.044  32.490  14.805
 9804W        W79685  37.408  30.465  11.081
 9805W        W79686  40.366  21.560  12.513
 9806W        W79687  36.052  33.900   0.856
 9807W        W79688  36.847  38.038   2.251
 9808W        W79689   8.366  16.696   3.789
 9809W        W79690  40.523  37.541  12.503
 9810W        W79691   3.349  39.830   4.703
 9811W        W79692  32.520   9.327  10.577
 9812W        W79693  38.070  13.679   4.698
 9813W        W79694  38.564  36.463  14.881
 9814W        W79695  15.817  41.991  10.581
 9815W        W79696  10.809   7.341   4.163
 9816W        W79697  13.846   4.430  11.874
 9817W        W79698  35.434  28.182  13.032
 9818W        W79699   6.818  37.402   3.315
 9819W        W79700  35.497  23.531   3.366
 9820W        W79701  27.564  44.262   2.736
 9821W        W79702  43.515  17.269  10.994
 9822W        W79703  35.022  13.803   4.296
 9823W        W79704  25.132  27.101  14.761
 9824W        W79705  17.302   0.880   2.741
 9825W        W79706  39.945  30.498  11.612
 9826W        W79707  39.351   6.763   4.822
 9827W        W79708  40.392  35.106   4.209
 9828W        W79709  27.593  14.771   4.641
 9829W        W79710   2.958  24.194  12.407
 9830W        W79711  16.748  28.634  12.365
 9831W        W79712  14.698   7.781  14.311
 9832W        W79713   5.703  10.204  10.902
 9833W        W79714   6.312   4.209   1.401
 9834W        W79715  39.817  25.572   2.333
 9835W        W79716  40.924   5.862  14.762
 9836W        W79717  19.667  35.456  13.392
 9837W        W79718  28.531   2.348  11.377
 9838W        W79719   9.183  12.682  13.414
 9839W        W79720  24.714  27.681  10.566
 9840W        W79721   4.936  16.795  12.349
 9841W        W79722  20.168   5.818  14.766
 9842W        W79723  18.741  40.940  11.530
 9843W        W79724  24.717  36.356   2.841
 9844W        W79725   7.253  42.955  13.309
 9845W        W79726  10.682   6.210   0.275
 9846W        W79727  10.157  14.178   3.327
 9847W        W79728  34.938   9.252  11.594
 9848W        W79729  25.999   3.220   0.812
 9849W        W79730  44.783  17.306   2.763
 9850W        W79731   4.209  13.734  14.835
 9851W        W79732  38.994  27.506  10.953
 9852W        W79733   2.731  41.935  14.510
 9853W        W79734  26.476  43.284  13.051
 9854W        W79735  34.592  11.353  11.005
 9855W        W79736  21.207  16.145  13.883
 9856W        W79737  34.923  29.955   2.361
 9857W        W79738  42.780  27.612  11.022
 9858W        W79739   3.912  17.716  13.887
 9859W        W79740   7.718   1.284  14.957
 9860W        W79741  32.085  21.548  10.441
 9861W        W79742  14.207   9.210  11.479
 9862W        W79743  28.985  30.448  14.325
 9863W        W79744  18.575   6.229   1.696
 9864W        W79745  43.839   9.776   2.733
 9865W        W79746   8.851  31.523  12.563
 9866W        W79747  37.915  13.171  11.060
 9867W        W79748  37.428  30.043   3.276
 9868W        W79749   2.406  11.768  11.525
 9869W        W79750  26.994   0.834   2.315
 9870W        W79751   6.735  27.142  14.869
 9871W        W79752  14.698  23.595  13.335
 9872W        W79753   5.790  43.954  14.970
 9873W        W79754  10.872  11.289   1.219
 9874W        W79755  22.179   3.421   3.695
 9875W        W79756  16.741  14.240  10.541
 9876W        W79757  34.443  30.499  14.998
 9877W        W79758  41.044  29.020  13.418
 9878W        W79759  29.532   7.201   0.963
 9879W        W79760  39.460  18.102   3.169
 9880W        W79761  32.533   7.812  14.414
 9881W        W79762  10.731  11.684  12.483
 9882W        W79763  39.966  21.077  13.447
 9883W        W79764  41.927   0.883   1.733
 9884W        W79765   0.824  18.664  13.328
 9885W        W79766  12.640  32.078  11.400
 9886W        W79767  41.512  20.238   2.336
 9887W        W79768  32.098  31.070  12.503
 9888W        W79769   5.731  34.061  14.779
 9889W        W79770  23.685  35.007   1.924
 9890W        W79771  29.518   8.745   2.384
 9891W        W79772  21.173  32.129  11.067
 9892W        W79773  24.678  30.487   0.957
 9893W        W79774  22.243  34.472  10.438
 9894W        W79775  41.822  11.692  10.902
 9895W        W79776  34.066  11.788  14.927
 9896W        W79777   2.864  24.611  13.981
 9897W        W79778  38.484  44.333   4.800
 9898W        W79779  19.684  20.713  14.451
 9899W        W79780  17.178   4.239  11.470
 9900W        W79781  16.772  18.768   0.770
 9901W        W79782  18.605   2.916   4.251
 9902W        W79783   5.876  38.901   0.766
 9903W        W79784  35.557  15.813   4.617
 9904W        W79785  14.166  12.349   4.339
 9905W        W79786   1.317  22.174   0.483
 9906W        W79787  15.094  33.999  10.535
 9907W        W79788  22.515  40.419  14.945
 9908W        W79789  11.303  31.419  13.417
 9909W        W79790  44.979  25.993  14.772
 9910W        W79791   4.388  30.951   3.631
 9911W        W79792   1.916  37.482   1.770
 9912W        W79793  13.733  40.965  14.353
 9913W        W79794   1.342  34.097  10.509
 9914W        W79795  31.926  10.701   1.366
 9915W        W79796  20.181  23.184  13.441
 9916W        W79797  10.148  35.971  10.460
 9917W        W79798  16.627  28.537  10.637
 9918W        W79799   0.837  14.226  12.829
 9919W        W79800  21.690  15.234   0.323
 9920W        W79801  29.508  16.703   3.771
 9921W        W79802  32.619  32.477  13.424
 9922W        W79803  25.991  25.996  10.627
 9923W        W79804  33.624  43.962   2.668
 9924W        W79805  19.540  25.030   0.461
 9925W        W79806  38.902  34.102   9.963
 9926W        W79807  16.644   5.223  12.931
 9927W        W79808  43.354   2.276   1.306
 9928W        W79809  28.529  12.688  13.985
 9929W        W79810  17.090  26.956  10.423
 9930W        W79811  36.455  35.579  11.548
 9931W        W79812  13.747   6.397  12.525
 9932W        W79813  18.659  19.608   0.964
 9933W        W79814  19.592   7.239   4.162
 9934W        W79815   6.689  12.740   1.772
 9935W        W79816  39.468  12.138   1.934
 9936W        W79817  35.596  15.311   2.817
 9937W        W79818  35.456  13.186   2.417
 9938W        W79819  35.923  11.209   0.886
 9939W        W79820  10.138  39.317  12.084
 9940W        W79821   1.865  28.141  13.868
 9941W        W79822  31.545  23.058  11.423
 9942W        W79823   0.987  39.481   4.124
 9943W        W79824  26.675  14.619  10.906
 9944W        W79825  38.401  30.614   1.746
 9945W        W79826   4.407   2.246   4.598
 9946W        W79827  14.691  18.780  10.586
 9947W        W79828  37.837  44.820  14.957
 9948W        W79829   1.476  37.567   2.329
 9949W        W79830   2.729  10.229   3.159
 9950W        W79831  19.052   3.727  10.550
 9951W        W79832  20.645  43.448   9.997
 9952W        W79833  21.234   3.801  13.397
 9953W        W79834  24.671   3.760   0.967
 9954W        W79835  41.537  27.965  13.801
 9955W        W79836  18.563   2.412   2.246
 9956W        W79837  39.815   5.287   3.840
 9957W        W79838  43.987   7.709   4.599
 9958W        W79839  16.221  30.440   3.747
 9959W        W79840  25.521  22.073  11.433
 9960W        W79841  12.126  20.265  12.428
 9961W        W79842  28.574  21.121   0.832
 9962W        W79843  36.871  40.314   2.211
 9963W        W79844  17.560   1.317  10.423
 9964W        W79845   9.654   5.754  14.287
 9965W        W79846  33.453   3.815  11.999
 9966W        W79847  16.608   0.249  13.905
 9967W        W79848  24.562   9.689   4.276
 9968W        W79849  43.379  23.232  14.865
 9969W        W79850   4.869  24.070  13.485
 9970W        W79851   7.893  41.818   3.221
 9971W        W79852  26.655  13.658   0.451
 9972W        W79853   4.209  42.335  10.494
 9973W        W79854  12.175   7.794  13.315
 9974W        W79855  33.109  29.609  13.506
 9975W        W79856   3.712  27.646  13.891
 9976W        W79857  11.820   6.740  11.937
 9977W        W79858  32.549  16.102  13.932
 9978W        W79859  23.646  35.585  11.491
 9979W        W79860  27.538   8.208   0.956
 9980W        W79861  33.601  37.959  11.864
 9981W        W79862  40.843  18.165   4.142
 9982W        W79863  13.727  31.493  11.505
 9983W        W79864  15.794  27.059  14.288
 9984W        W79865  35.415  10.666   0.295
 9985W        W79866  35.924  32.535  11.948
 9986W        W79867  14.169  19.780   3.183
 9987W        W79868  35.873  32.469  11.456
 9988W        W79869  32.090  13.738   4.799
 9989W        W79870  38.955  37.378  14.432
 9990W        W79871  25.060  27.190  12.477
 9991W        W79872  10.802  15.794   2.223
 9992W        W79873  35.469  22.658   1.237
 9993W        W79874  17.670  20.635   0.874
 9994W        W79875  31.428  10.683   4.598
 9995W        W79876  40.964  43.392  11.490
 9996W        W79877  11.855   2.314  14.482
 9997W        W79878  10.346   1.473   1.879
 9998W        W79879  40.378   7.888  11.882
 9999W        W79880  29.471  39.826  14.281
10000W        W79881  37.088  28.668  14.295
10001W        W79882  10.817   9.388  12.889
10002W        W79883  27.091  25.145   1.823
10003W        W79884  13.774  39.494  14.835
10004W        W79885  31.506   8.751   5.120
10005W        W79886  40.345  33.594   0.260
10006W        W79887  36.976  38.015   4.686
10007W        W79888  44.818  33.116  13.350
10008W        W79889  13.737  26.620  14.763
10009W        W79890  44.858  28.173   0.735
10010W        W79891   4.230  34.480   0.362
10011W        W79892  19.238   1.777  13.912
10012W        W79893  13.244  22.602  12.402
10013W        W79894  16.669  28.074   1.362
10014W        W79895  19.077  26.604   0.811
10015W        W79896  27.452  37.362   4.686
10016W        W79897  15.269   0.929  12.443
10017W        W79898  13.630  37.841  13.401
10018W        W79899  23.664  12.821   0.788
10019W        W79900  16.605  18.270  10.927
10020W        W79901  29.086   2.242   4.626
10021W        W79902  10.268  27.658  12.038
10022W        W79903  36.033  29.061  12.345
10023W        W79904  38.865  12.173  12.973
10024W        W79905  24.568   3.952  13.017
10025W        W79906  38.559  25.504  14.966
10026W        W79907  20.066  43.323  14.428
10027W        W79908  37.850  20.202  14.975
10028W        W79909  38.838  41.948  12.001
10029W        W79910  25.657  30.023   3.295
10030W        W79911  33.006  33.494  10.511
10031W        W79912  10.236  34.429  13.422
10032W        W79913  16.217   8.767  14.896
10033W        W79914   7.730  30.513   4.826
10034W        W79915   4.754  28.106  14.899
10035W        W79916  42.471  40.416  13.034
10036W        W79917  17.665  13.347   3.716
10037W        W79918  36.078  38.498  14.911
10038W        W79919   6.316  44.010   0.956
10039W        W79920  31.048  38.999   3.169
10040W        W79921  30.438  36.853  13.379
10041W        W79922   7.875   2.917   0.265
10042W        W79923  22.246  24.517   0.741
10043W        W79924  32.418  38.005   3.830
10044W        W79925  13.737  43.280   4.766
10045W        W79926   1.936  40.007  11.017
10046W        W79927  37.367  39.510   0.436
10047W        W79928  41.814  10.350  13.501
10048W        W79929  26.651   2.882  12.837
10049W        W79930   3.803  42.925   1.710
10050W        W79931  14.729  36.096  13.331
10051W        W79932  39.920   6.697  14.446
10052W        W79933  19.132  26.166  12.442
10053W        W79934  35.442  27.679   4.641
10054W        W79935   2.901  19.214  14.787
10055W        W79936  33.512  44.277  12.418
10056W        W79937   1.248   9.153  12.428
10057W        W79938  30.515  32.460   0.300
10058W        W79939  14.130  41.851  12.571
10059W        W79940  18.052  13.728   3.649
10060W        W79941  44.404  14.809   2.418
10061W        W79942   0.886   7.196  10.900
10062W        W79943  22.710  22.542   4.331
10063W        W79944  15.125  10.788   4.335
10064W        W79945  30.150  28.575   4.176
10065W        W79946  32.885  18.134   0.875
10066W        W79947  23.591  23.189  12.009
10067W        W79948  36.921  31.069  11.907
10068W        W79949  14.187   1.305   3.670
10069W        W79950   1.955  14.130   0.479
10070W        W79951  25.684   5.306  12.008
10071W        W79952  31.432  38.539  13.308
10072W        W79953  20.129  38.511   3.156
10073W        W79954  11.253  31.068   0.737
10074W        W79955  13.196  32.940  10.441
10075W        W79956  20.264  38.930   0.402
10076W        W79957   7.361  28.566  14.475
10077W        W79958  12.199  32.615  14.472
10078W        W79959  30.959  18.165  10.982
10079W        W79960  14.161  37.858  10.608
10080W        W79961  34.472  17.092  14.856
10081W        W79962  22.006  19.648   1.270
10082W        W79963   9.786  37.461   4.613
10083W        W79964  37.853  21.552  11.488
10084W        W79965  13.821  14.194   1.748
10085W        W79966  13.133  10.198  13.339
10086W        W79967  12.767  34.989  12.519
10087W        W79968  18.747  25.036   0.728
10088W        W79969  24.985  13.766  14.803
10089W        W79970  33.504  39.054   4.143
10090W        W79971  20.047  32.536  10.927
10091W        W79972  36.856  38.057   3.374
10092W        W79973  40.838  16.080  11.069
10093W        W79974  33.907   0.906  13.529
10094W        W79975  27.167  22.150  14.026
10095W        W79976   2.298   3.928  12.055
10096W        W79977  26.492  24.649   1.725
10097W        W79978   9.287   2.845  13.064
10098W        W79979  24.544  26.064   2.782
10099W        W79980  16.119   9.389  12.864
10100W        W79981  40.517  43.379  10.462
10101W        W79982   9.813  16.214   2.896
10102W        W79983  28.658  13.695   2.703
10103W        W79984  31.474  25.503   4.667
10104W        W79985  43.958  11.841   3.365
10105W        W79986   3.756  44.303  12.372
10106W        W79987   8.687  17.680   0.920
10107W        W79988  18.167  18.733  11.865
10108W        W79989  37.021  19.194  13.979
10109W        W79990  11.343  16.653  10.505
10110W        W79991  27.130  44.789   4.629
10111W        W79992  37.861  26.977   4.829
10112W        W79993  13.723  26.511  12.570
10113W        W79994  28.011  39.976   0.928
10114W        W79995  35.495  25.987  11.373
10115W        W79996   9.261  33.512  11.438
10116W        W79997   6.811  15.687  11.588
10117W        W79998  40.526  33.004   3.836
10118W        W79999  20.534  41.986   0.438
10119W        W80000  43.388   5.274   0.471
10120W        W80001  10.379   2.229   3.651
10121W        W80002  29.614   1.796  14.020
10122W        W80003  14.174   5.688  10.419
10123W        W80004  27.509  27.623   0.271
10124W        W80005  10.752  27.105  13.422
10125W        W80006  44.484   3.863   4.334
10126W        W80007  31.924  15.254   4.833
10127W        W80008  10.198  39.399  14.355
10128W        W80009  12.734  40.885   3.642
10129W        W80010   5.380   3.278  13.506
10130W        W80011   1.415   1.239  14.358
10131W        W80012  16.204  37.968   4.190
10132W        W80013  43.414   4.764  14.890
10133W        W80014  16.135  30.092  12.082
10134W        W80015  38.981  18.194  13.009
10135W        W80016   5.216  38.025  12.971
10136W        W80017   8.370  30.118   0.899
10137W        W80018   4.741  15.290  14.443
10138W        W80019  31.462  25.561   4.113
10139W        W80020  34.439  42.783  13.882
10140W        W80021  13.839   3.421  10.611
10141W        W80022   1.804   5.921  12.047
10142W        W80023  18.748   9.740   3.333
10143W        W80024  23.664  37.082  10.450
10144W        W80025  40.899  10.862   1.831
10145W        W80026  13.347  22.160   1.719
10146W        W80027   9.822  28.565   0.278
10147W        W80028  29.461   0.306  13.444
10148W        W80029  39.009   6.718  12.936
10149W        W80030  25.623   6.243  13.429
10150W        W80031   2.365   1.958   2.850
10151W        W80032  14.685  40.368   1.860
10152W        W80033   3.318   6.686  11.392
10153W        W80034  27.655  29.089   0.436
10154W        W80035   2.440  26.110   3.212
10155W        W80036  23.094  11.182  14.791
10156W        W80037  39.332  20.077  14.404
10157W        W80038  25.174  22.575  14.458
10158W        W80039  27.688   0.314   2.790
10159W        W80040  15.257   5.790   3.303
10160W        W80041  32.461   3.723  14.950
10161W        W80042   2.858  23.542  14.999
10162W        W80043  23.132  12.672   3.291
10163W        W80044   9.733  26.529   4.651
10164W        W80045  23.239  44.371  12.013
10165W        W80046  26.548  24.677  13.903
10166W        W80047   4.284  29.621  14.979
10167W        W80048  25.061  19.203  14.351
10168W        W80049  13.192  39.346   2.726
10169W        W80050  41.865  41.885  14.913
10170W        W80051   4.703  10.808   0.815
10171W        W80052  12.699   2.464  14.908
10172W        W80053  26.480  21.688  10.523
10173W        W80054  28.592  21.531  11.521
10174W        W80055  33.948  25.697   0.286
10175W        W80056  11.251  16.647  14.411
10176W        W80057   5.784   0.974   3.149
10177W        W80058  19.058  39.494  13.850
10178W        W80059  43.910  17.740   2.274
10179W        W80060  39.961  36.488  14.025
10180W        W80061  21.056  25.600   2.799
10181W        W80062  23.143  34.007  13.320
10182W        W80063   4.724  39.845   4.671
10183W        W80064  31.539  27.582   2.760
10184W        W80065  32.586  31.477   3.781
10185W        W80066  36.869   6.748  11.048
10186W        W80067  21.250   5.806   3.204
10187W        W80068  38.042  21.249  10.067
10188W        W80069  19.566   0.764   3.784
10189W        W80070  29.032  12.283   1.424
10190W        W80071  40.856  17.556  13.366
10191W        W80072  32.551  19.637  11.492
10192W        W80073  27.642  32.931  10.637
10193W        W80074  17.598  16.260   4.151
10194W        W80075  16.230  35.863  12.375
10195W        W80076  31.511  20.734   2.246
10196W        W80077  11.333  44.365   3.868
10197W        W80078  43.002   0.853  10.561
10198W        W80079  31.956  23.017  14.889
10199W        W80080  18.125   9.710  14.999
10200W        W80081  43.781  34.980  12.465
10201W        W80082  11.696   7.706  14.967
10202W        W80083  39.001   1.909   3.387
10203W        W80084  24.547  30.434   3.714
10204W        W80085  44.900  36.450  14.333
10205W        W80086  10.200   3.779  12.934
10206W        W80087  12.693  20.683   3.360
10207W        W80088   9.247  41.381  10.425
10208W        W80089   0.402   4.252  10.550
10209W        W80090  10.716  18.154   2.225
10210W        W80091   0.902  31.507  14.295
10211W        W80092  34.007   6.769   3.243
10212W        W80093  11.129  40.514  13.324
10213W        W80094  21.534  33.123   1.739
10214W        W80095   1.777  27.568   4.820
10215W        W80096  38.480  42.956  11.077
10216W        W80097   1.261  22.042   0.854
10217W        W80098   9.281  19.209   0.858
10218W        W80099  38.362  25.077  12.377
10219W        W80100  23.126  32.529  14.421
10220W        W80101  15.821  28.162   4.145
10221W        W80102  28.526  20.134  14.833
10222W        W80103  36.940  30.100   4.115
10223W        W80104  41.807  36.418   0.242
10224W        W80105  32.075  42.028   2.301
10225W        W80106   5.395   1.301  13.061
10226W        W80107   6.715  24.480   0.940
10227W        W80108  16.642  19.083  11.960
10228W        W80109  35.433  17.079   4.263
10229W        W80110   7.348   5.857   4.174
10230W        W80111   2.755  33.024  10.940
10231W        W80112  19.228  34.884   0.788
10232W        W80113  29.979  29.967  12.554
10233W        W80114  32.428  39.352   3.798
10234W        W80115  14.781  11.743  13.820
10235W        W80116  24.520  23.034  11.399
10236W        W80117   3.289  15.774  12.845
10237W        W80118   7.375  16.074  13.984
10238W        W80119  29.615  10.242  13.477
10239W        W80120  24.194  29.447   3.672
10240W        W80121  38.472  30.006   4.803
10241W        W80122  19.566  40.516  13.342
10242W        W80123  38.840  27.601  14.993
10243W        W80124  35.951  42.901   3.301
10244W        W80125  44.470  27.653  10.135
10245W        W80126  34.039  14.816  10.478
10246W        W80127  31.066  23.231  14.466
10247W        W80128  15.808  20.613  13.006
10248W        W80129  35.461  15.259   3.633
10249W        W80130  29.164   7.237  13.856
10250W        W80131   7.713  43.814  12.933
10251W        W80132  10.821  24.208  13.000
10252W        W80133  11.258  27.191  14.880
10253W        W80134  40.977  42.401   4.339
10254W        W80135   3.444  11.245   0.345
10255W        W80136  30.457   8.866   3.712
10256W        W80137  43.514  33.017   0.957
10257W        W80138  38.903  39.058  12.917
10258W        W80139  41.401  29.028   4.749
10259W        W80140  35.105  24.989  13.015
10260W        W80141  19.702  41.524   4.286
10261W        W80142  40.001  28.674   2.820
10262W        W80143  21.650   3.442   2.411
10263W        W80144   5.927   3.277   1.440
10264W        W80145  44.805  41.919   2.330
10265W        W80146   0.324   7.683  13.396
10266W        W80147  10.193  33.605  12.838
10267W        W80148  22.076   9.742   4.699
10268W        W80149  44.768  25.636   2.836
10269W        W80150   0.284  44.359  11.437
10270W        W80151  29.644  32.420   1.935
10271W        W80152  12.127  40.353   3.753
10272W        W80153  26.152   7.400  14.852
10273W        W80154  41.927  41.300   4.314
10274W        W80155   6.291  12.180  13.817
10275W        W80156  31.640  18.243   1.212
10276W        W80157  33.538  24.010  11.074
10277W        W80158   0.767  37.576   0.802
10278W        W80159  28.518  29.575   3.691
10279W        W80160  11.216  23.570  10.931
10280W        W80161  28.965  23.571  10.639
10281W        W80162  42.853  19.644   0.961
10282W        W80163   5.231   8.769   3.790
10283W        W80164  35.081   5.813  11.860
10284W        W80165  42.454   6.901   1.789
10285W        W80166  30.451  15.822  11.092
10286W        W80167  23.582  15.723  10.489
10287W        W80168  26.505  36.016   4.792
10288W        W80169  21.077   4.365  12.916
10289W        W80170  37.395  39.450   4.682
10290W        W80171  37.360   3.812   0.453
10291W        W80172   4.248  26.539   9.965
10292W        W80173   4.869   1.302   3.807
10293W        W80174  38.000  36.949   1.851
10294W        W80175  13.815   3.835  10.942
10295W        W80176  42.397  16.685   2.873
10296W        W80177  13.301   7.691  12.386
10297W        W80178  25.087  24.555  13.526
10298W        W80179  26.171  13.623  14.778
10299W        W80180  29.994  40.410   4.256
10300W        W80181  43.959  20.584  14.367
10301W        W80182  22.186   2.285   0.376
10302W        W80183  28.458  40.924  14.883
10303W        W80184   3.778  44.431   3.817
10304W        W80185  29.108  38.069   1.818
10305W        W80186  23.692  38.546  13.871
10306W        W80187   2.815  18.192   1.728
10307W        W80188   9.338  39.930   2.871
10308W        W80189  28.011   6.240   5.117
10309W        W80190  21.562  29.054   4.190
10310W        W80191  43.331  12.281   4.642
10311W        W80192  22.725  37.384   3.239
10312W        W80193   5.248  27.092  13.863
10313W        W80194  32.951  19.645   3.783
10314W        W80195   0.890   8.880  13.338
10315W        W80196   8.355  11.851  12.375
10316W        W80197  32.909  24.523  14.021
10317W        W80198  35.386  35.507   0.484
10318W        W80199  27.635  35.085   4.798
10319W        W80200  37.520  19.675   1.820
10320W        W80201  28.473  33.486  12.534
10321W        W80202  15.211  23.020  13.818
10322W        W80203  20.241   6.403  11.115
10323W        W80204  25.177  27.048   1.720
10324W        W80205  11.730  27.127  13.315
10325W        W80206  31.055   6.392   3.223
10326W        W80207  37.579   5.819   4.620
10327W        W80208  30.475  36.976  10.929
10328W        W80209  41.524  37.382  11.425
10329W        W80210  27.026  37.471  11.978
10330W        W80211  20.028   0.825  11.497
10331W        W80212   5.780  26.981   3.663
10332W        W80213  39.979  41.911  14.295
10333W        W80214  31.050  22.037  13.479
10334W        W80215  26.180  14.175  13.929
10335W        W80216  33.622  28.000   2.332
10336W        W80217  35.564  17.299   3.277
10337W        W80218   8.211  43.887  10.927
10338W        W80219  31.008  34.447   3.852
10339W        W80220  31.441  38.892   0.794
10340W        W80221  38.063   9.835  13.876
10341W        W80222   7.303  36.485   4.211
10342W        W80223  14.290  43.354   4.706
10343W        W80224  14.208   7.745  12.988
10344W        W80225  35.406  26.970  10.499
10345W        W80226   8.755  43.773  13.382
10346W        W80227  16.581  27.651   3.301
10347W        W80228  42.958  35.929   0.361
10348W        W80229  26.569  23.984  14.350
10349W        W80230  40.422  32.549  11.009
10350W        W80231  23.495  13.181  12.825
10351W        W80232  42.518  22.670   2.796
10352W        W80233  33.012  16.605  10.499
10353W        W80234  10.670  27.020  11.082
10354W        W80235  30.007   1.786  13.795
10355W        W80236  35.398  18.682  13.024
10356W        W80237  27.463  19.159   4.154
10357W        W80238  15.666  42.914   1.792
10358W        W80239  44.330   7.269   3.152
10359W        W80240  20.140  36.412   1.913
10360W        W80241   3.424  33.382  14.766
10361W        W80242  27.612  44.455   2.208
10362W        W80243  31.004  25.037  11.987
10363W        W80244  39.932  19.774  10.906
10364W        W80245  14.104  15.701  13.988
10365W        W80246  18.154  24.573   1.835
10366W        W80247   0.346  35.060   4.807
10367W        W80248   7.199  27.056   3.308
10368W        W80249  19.727  41.852  13.377
10369W        W80250   5.244  39.857   3.762
10370W        W80251  19.576  20.596  14.028
10371W        W80252  22.139   8.401   3.264
10372W        W80253  26.110  14.791  14.466
10373W        W80254  29.644  24.022   3.817
10374W        W80255  42.891  30.071  14.775
10375W        W80256  10.253  40.973   2.809
10376W        W80257  13.235  35.003   1.246
10377W        W80258  30.139  13.634   4.794
10378W        W80259  18.621  38.993  12.498
10379W        W80260   1.466   4.343  14.359
10380W        W80261  25.575  23.652  11.452
10381W        W80262  35.567   3.449  13.902
10382W        W80263  40.841  34.414   1.338
10383W        W80264   1.846  30.952  14.443
10384W        W80265  41.983  13.308   3.705
10385W        W80266  37.994  41.899  12.873
10386W        W80267   6.235  11.274   0.884
10387W        W80268   0.433   4.832   2.410
10388W        W80269  27.525  26.627   2.207
10389W        W80270  41.036  24.592  14.388
10390W        W80271  43.986  21.243  14.879
10391W        W80272   9.240  14.148   4.320
10392W        W80273  33.937  27.597  13.399
10393W        W80274  21.658  29.642   0.861
10394W        W80275  31.085   1.766  13.338
10395W        W80276  12.833  26.047  10.589
10396W        W80277  38.866  28.633  12.545
10397W        W80278  44.009   4.929  11.886
10398W        W80279  22.513  26.045   0.770
10399W        W80280  28.946  16.662   2.665
10400W        W80281  31.911  44.388   4.770
10401W        W80282  29.611   2.721  11.110
10402W        W80283   6.880  17.671  11.471
10403W        W80284  36.990  33.990  11.377
10404W        W80285  26.610   4.381  10.456
10405W        W80286  31.025   1.933  13.991
10406W        W80287  24.485   4.713   3.268
10407W        W80288  43.976  44.324   3.336
10408W        W80289  21.616  10.259   2.409
10409W        W80290  37.932  19.191  11.046
10410W        W80291  11.167  39.968  11.446
10411W        W80292  35.082  19.769   9.923
10412W        W80293  18.276  14.656   2.901
10413W        W80294  22.136  10.738  14.850
10414W        W80295  28.124   6.267   3.677
10415W        W80296   3.459  19.742  10.528
10416W        W80297   0.765  38.560  14.388
10417W        W80298   3.767  22.043  13.048
10418W        W80299  24.142  35.538  11.940
10419W        W80300  27.535  21.142  12.397
10420W        W80301  34.508   6.920   2.787
10421W        W80302  12.347  38.906   4.768
10422W        W80303  26.052   6.417   2.672
10423W        W80304  37.031   2.791  10.543
10424W        W80305  29.148  37.430   2.704
10425W        W80306  38.941  30.538   4.343
10426W        W80307   5.907  29.597   1.392
10427W        W80308   2.389  36.948  11.429
10428W        W80309  32.066  10.822   2.731
10429W        W80310   7.241  33.429   2.768
10430W        W80311  28.667  35.462  12.095
10431W        W80312   8.710   2.953   0.381
10432W        W80313  25.502  26.683   1.398
10433W        W80314  34.954  18.077  14.987
10434W        W80315   5.412   6.854   4.257
10435W        W80316  20.668   1.280   5.147
10436W        W80317  40.979  20.178   3.387
10437W        W80318   7.695  44.971   2.736
10438W        W80319  18.771   9.167   0.955
10439W        W80320  43.381   2.327   3.352
10440W        W80321  34.092  29.049  12.005
10441W        W80322  42.300  37.486  10.642
10442W        W80323  14.598  41.343   3.332
10443W        W80324  32.593  25.983   3.790
10444W        W80325   3.385   1.256   4.146
10445W        W80326  35.044  25.155   4.794
10446W        W80327  29.017  34.987  12.954
10447W        W80328  38.445  28.009  13.944
10448W        W80329  27.512  16.655  11.942
10449W        W80330  15.162  21.633   0.311
10450W        W80331  22.110  35.537  11.456
10451W        W80332   1.392   4.207  11.093
10452W        W80333  44.464  13.179  13.345
10453W        W80334  40.890  23.529   1.725
10454W        W80335  24.594  40.508  11.079
10455W        W80336  37.062  23.498   4.749
10456W        W80337   8.237  12.741  10.429
10457W        W80338  38.057  25.057  12.537
10458W        W80339  12.612  43.953   0.899
10459W        W80340  41.954   5.888  10.463
10460W        W80341  34.892  35.406  12.000
10461W        W80342  17.096  14.697   4.158
10462W        W80343  20.593  21.159   1.419
10463W        W80344  19.101  11.314   2.765
10464W        W80345   9.209  18.546  12.394
10465W        W80346  34.945  25.632   1.878
10466W        W80347  35.405   8.386   0.944
10467W        W80348   3.840  12.818   1.276
10468W        W80349  10.223  11.644  10.432
10469W        W80350  33.918  18.737   4.267
10470W        W80351   2.380   0.434  11.519
10471W        W80352  26.014  38.872  11.439
10472W        W80353  37.560  33.523  10.608
10473W        W80354   8.769  28.140   4.781
10474W        W80355  41.031  24.646   0.333
10475W        W80356  40.502   0.372  13.918
10476W        W80357   2.768  42.998   2.691
10477W        W80358  43.398  39.537  14.323
10478W        W80359  20.266  20.148   1.803
10479W        W80360  33.945  36.958   4.635
10480W        W80361   8.751   4.251   0.388
10481W        W80362   9.766   4.313   4.660
10482W        W80363  11.305  19.058  11.121
10483W        W80364  19.173   1.950  10.940
10484W        W80365  44.822  40.964  14.313
10485W        W80366  34.426  27.967  11.388
10486W        W80367  31.974  41.505  11.872
10487W        W80368  18.699  36.058  13.999
10488W        W80369  28.665  23.527  11.872
10489W        W80370   2.864  19.707   1.712
10490W        W80371  36.423  16.747  12.463
10491W        W80372  27.171  13.614  13.510
10492W        W80373  30.094  41.023   1.390
10493W        W80374  10.176  19.056   2.182
10494W        W80375  34.520  42.353   2.389
10495W        W80376  18.584  35.923  14.843
10496W        W80377  18.771  41.845   4.604
10497W        W80378   2.906  13.170  14.968
10498W        W80379   6.755  12.648   0.247
10499W        W80380  30.962  12.143  14.343
10500W        W80381  39.392   4.293  12.424
10501W        W80382  31.593  30.008   1.746
10502W        W80383  12.656  44.936   4.662
10503W        W80384   0.946  19.174  12.997
10504W        W80385  15.177  28.635  14.343
10505W        W80386  35.975  31.573   0.899
10506W        W80387  14.198  30.448  14.895
10507W        W80388   3.927  10.853  11.125
10508W        W80389  20.549  10.679   0.944
10509W        W80390  35.525  36.494  11.542
10510W        W80391   8.734   7.172   1.435
10511W        W80392  41.424  22.159  13.982
10512W        W80393  36.378  36.527   0.247
10513W        W80394  37.931  22.020  14.015
10514W        W80395  32.401  39.553  14.984
10515W        W80396  24.013   6.722  11.897
10516W        W80397  36.919  17.173   3.645
10517W        W80398   1.310  37.962   0.466
10518W        W80399  29.148   7.717  12.880
10519W        W80400  15.779  21.547  12.021
10520W        W80401  29.454  24.986   9.923
10521W        W80402   3.719   9.727   0.467
10522W        W80403  20.619  17.065  11.005
10523W        W80404   4.772   5.200   3.639
10524W        W80405   2.298  36.985  12.982
10525W        W80406  42.432  30.483   0.898
10526W        W80407  24.616  44.411  14.485
10527W        W80408   8.283  21.240  13.820
10528W        W80409   5.201  33.386   1.360
10529W        W80410  37.944   4.238  10.426
10530W        W80411  15.278  42.953  14.996
10531W        W80412  42.838   2.343  11.546
10532W        W80413  13.669  38.871   5.788
10533W        W80414  13.827  40.902   0.409
10534W        W80415   0.874  18.070  12.072
10535W        W80416  41.350  32.441  11.399
10536W        W80417  42.808  15.323   0.823
10537W        W80418  42.444  25.675  13.790
10538W        W80419   2.937  21.650  12.870
10539W        W80420   3.332  29.068  14.358
10540W        W80421   6.681  20.670   4.836
10541W        W80422  18.549  12.336   4.201
10542W        W80423  20.533  10.261   2.357
10543W        W80424   1.416  41.036   2.725
10544W        W80425   3.937  18.732  11.409
10545W        W80426  13.699  30.119   1.339
10546W        W80427  17.182  44.310  10.997
10547W        W80428  18.740   2.275  13.950
10548W        W80429   8.723   5.262  13.434
10549W        W80430  27.513  25.189   2.248
10550W        W80431  12.193  43.853   4.818
10551W        W80432   2.948   1.432   2.195
10552W        W80433  24.493  20.701   3.348
10553W        W80434  22.084  43.823  11.374
10554W        W80435  33.613  42.790  13.391
10555W        W80436   5.259  11.852   1.838
10556W        W80437   3.763  19.537  13.960
10557W        W80438   8.365  33.077  11.952
10558W        W80439  27.460  12.788   1.317
10559W        W80440   5.760  19.541  11.458
10560W        W80441  23.051  26.543  14.759
10561W        W80442  29.143   1.279  10.969
10562W        W80443  40.511  34.895   2.358
10563W        W80444  23.115  35.925  12.950
10564W        W80445  33.930   0.342   2.733
10565W        W80446  10.154  20.753   0.390
10566W        W80447  44.284  34.538  11.575
10567W        W80448  11.845   8.391  14.495
10568W        W80449  34.610   6.201   3.745
10569W        W80450   7.385  20.585  10.911
10570W        W80451   2.405  20.649  13.520
10571W        W80452   3.744  36.921  13.804
10572W        W80453  28.972  24.552  13.926
10573W        W80454  40.484  44.785  13.502
10574W        W80455   2.247   0.750  11.465
10575W        W80456  11.132  28.148  13.001
10576W        W80457  33.985   8.868   4.756
10577W        W80458  10.223   1.247  14.347
10578W        W80459   6.725  31.114  14.308
10579W        W80460  16.782   3.442  11.947
10580W        W80461  14.258  14.167   1.412
10581W        W80462   1.778  20.230   2.256
10582W        W80463  12.329  44.826   3.692
10583W        W80464  38.847  40.002  12.983
10584W        W80465  16.075  32.508  13.504
10585W        W80466   5.826  41.855   2.405
10586W        W80467  37.855   7.743   4.328
10587W        W80468  30.514  23.510  12.350
10588W        W80469  10.750   8.832  11.861
10589W        W80470  29.002  39.825  10.603
10590W        W80471  38.433  28.103   2.200
10591W        W80472  18.145  18.209  11.089
10592W        W80473  26.129  24.624   1.829
10593W        W80474  23.637  28.937  11.574
10594W        W80475  36.404  35.875  11.069
10595W        W80476  44.948  26.080   3.630
10596W        W80477   7.321   0.475   3.189
10597W        W80478  39.027  24.083   4.258
10598W        W80479  33.488  10.301   0.457
10599W        W80480  27.600  37.398   4.124
10600W        W80481   4.363  35.514   4.347
10601W        W80482  14.805  26.186   2.689
10602W        W80483  26.179   5.859   4.168
10603W        W80484   6.769  11.355   4.720
10604W        W80485  18.599   4.264   2.321
10605W        W80486  27.017  29.143  14.921
10606W        W80487  14.724  10.668  10.443
10607W        W80488  10.876  42.501  13.430
10608W        W80489  16.784   8.162   3.324
10609W        W80490  40.045  16.771   1.284
10610W        W80491  12.642   4.885  12.876
10611W        W80492  34.878  25.044   0.335
10612W        W80493  17.799  30.506   2.366
10613W        W80494  43.856   0.342   1.774
10614W        W80495  13.224  28.084  10.067
10615W        W80496  13.231  11.800   4.790
10616W        W80497  14.153   9.648  10.594
10617W        W80498   6.184  30.499  10.506
10618W        W80499  43.861  42.825   3.149
10619W        W80500  38.891  15.195   2.751
10620W        W80501   7.677  41.480  13.988
10621W        W80502  28.628  32.452  13.440
10622W        W80503  19.570  38.329   0.413
10623W        W80504  19.251  31.548   0.442
10624W        W80505  25.162  10.757  11.380
10625W        W80506  32.396  44.987   2.780
10626W        W80507   3.874  23.038  10.478
10627W        W80508   1.816  37.049   2.326
10628W        W80509  16.619   0.902  13.962
10629W        W80510  37.470  32.067   1.223
10630W        W80511  15.717  28.961   9.921
10631W        W80512   9.779  39.953  12.342
10632W        W80513  22.104   5.812   1.391
10633W        W80514   8.312  29.566  12.391
10634W        W80515  25.580  14.223   0.469
10635W        W80516   1.377  42.462  14.489
10636W        W80517  21.751  21.169   3.317
10637W        W80518  13.217  17.268  12.562
10638W        W80519  35.909  11.670   4.822
10639W        W80520  14.612  12.126  13.990
10640W        W80521  34.082  44.281  12.898
10641W        W80522  32.568  22.097   3.381
10642W        W80523  18.217  20.070   0.466
10643W        W80524   9.231  34.550  12.857
10644W        W80525  20.601  33.509   1.336
10645W        W80526  34.064  28.522   0.365
10646W        W80527   5.368  44.402  12.364
10647W        W80528  39.023   9.842   1.824
10648W        W80529  27.978  35.907   0.844
10649W        W80530  33.463  39.520  10.944
10650W        W80531   9.878  16.303   2.404
10651W        W80532  28.023  42.476   2.722
10652W        W80533  12.275   0.753  12.493
10653W        W80534  19.607  36.972   4.231
10654W        W80535  42.941  40.418   1.298
10655W        W80536   2.466   6.719  12.925
10656W        W80537  24.119  30.065  12.027
10657W        W80538  32.508  40.946  13.317
10658W        W80539  25.995  29.602  14.311
10659W        W80540  21.585  29.521   1.754
10660W        W80541  29.976  42.331  10.618
10661W        W80542  22.078  11.797  11.439
10662W        W80543  25.561  36.435  10.956
10663W        W80544  27.147  34.044  12.427
10664W        W80545  26.692  22.085  11.543
10665W        W80546   5.920  22.571  13.843
10666W        W80547  32.448   8.769   4.684
10667W        W80548  39.949  23.602  13.427
10668W        W80549  14.212   8.307   1.737
10669W        W80550  37.877  31.407   1.716
10670W        W80551  44.468  37.964  11.097
10671W        W80552  20.100  28.950   1.908
10672W        W80553  19.209   8.806   1.789
10673W        W80554  39.316  35.036  12.002
10674W        W80555   4.355  37.523   2.867
10675W        W80556  43.477   2.264  12.926
10676W        W80557  13.310  37.381  13.467
10677W        W80558  44.959  13.186  10.441
10678W        W80559  36.445  39.496  11.061
10679W        W80560  34.996  35.524   1.782
10680W        W80561  43.329  44.817   4.622
10681W        W80562  19.080   9.256   1.317
10682W        W80563  10.756  20.694   0.367
10683W        W80564  12.191  22.142  10.638
10684W        W80565  31.143  31.947  13.491
10685W        W80566   7.301  21.715   4.712
10686W        W80567  31.419  17.788   4.752
10687W        W80568  10.812  36.029  14.342
10688W        W80569  33.042  20.104   4.224
10689W        W80570  34.554  24.082   0.732
10690W        W80571   8.187  22.024  13.450
10691W        W80572  20.725  39.939  14.947
10692W        W80573  10.843   6.723  14.291
10693W        W80574  31.576  12.805   3.207
10694W        W80575  43.399  22.010  14.822
10695W        W80576   5.390   4.427  12.489
10696W        W80577  10.284  18.683   2.855
10697W        W80578  34.461   2.909  11.076
10698W        W80579  17.206   6.226  11.891
10699W        W80580  20.559  36.387  10.499
10700W        W80581  23.195  10.381   0.740
10701W        W80582  40.345  19.607   2.247
10702W        W80583  25.110  29.516   2.358
10703W        W80584  18.139  37.567   4.152
10704W        W80585  29.592  28.600   1.824
10705W        W80586  22.667  10.660  12.355
10706W        W80587  11.754  38.077   1.856
10707W        W80588  32.098  34.587   4.736
10708W        W80589   8.779  19.180   2.774
10709W        W80590  21.092  36.431   3.751
10710W        W80591  34.387  26.506  10.599
10711W        W80592  19.547  42.399  13.793
10712W        W80593   1.865  37.076   2.836
10713W        W80594  42.382   6.813  13.514
10714W        W80595  42.851  16.165  12.885
10715W        W80596  12.823   6.258   4.772
10716W        W80597  43.430  16.694  11.116
10717W        W80598  22.705  17.075  13.869
10718W        W80599  40.377  36.588   4.268
10719W        W80600  14.813  36.502  11.421
10720W        W80601  21.122  34.542  12.976
10721W        W80602  29.451  24.654   2.232
10722W        W80603   7.880  23.671  14.999
10723W        W80604   9.278  10.351   1.236
10724W        W80605  38.328  16.734  12.090
10725W        W80606  25.116  25.520   2.182
10726W        W80607   6.845  29.971   3.681
10727W        W80608   2.304   6.757   1.295
10728W        W80609  14.274  23.531   1.373
10729W        W80610  15.716  42.491  13.045
10730W        W80611  21.578  10.353   1.434
10731W        W80612  20.041   1.381   4.732
10732W        W80613  27.034  32.022   3.261
10733W        W80614  38.376  18.790  14.020
10734W        W80615  11.280  14.673  13.048
10735W        W80616  24.535   9.652  12.838
10736W        W80617   7.292  36.062   2.662
10737W        W80618  22.555  20.163  10.512
10738W        W80619   5.242  31.945   1.433
10739W        W80620  41.969   4.829   2.781
10740W        W80621  28.036  32.020  11.996
10741W        W80622   2.364  41.326  10.483
10742W        W80623  10.233   7.375  14.775
10743W        W80624  29.537  36.533   4.266
10744W        W80625  10.815   9.281   0.361
10745W        W80626  19.232  16.311  10.405
10746W        W80627  37.337   0.346   0.928
10747W        W80628  24.035  31.964  10.403
10748W        W80629  39.915   9.683   2.731
10749W        W80630  15.196  10.190   1.373
10750W        W80631   8.790   2.318   0.351
10751W        W80632  21.124  20.609   3.287
10752W        W80633  30.060  12.308   2.836
10753W        W80634  18.586  39.501  13.546
10754W        W80635  37.345  41.395   4.354
10755W        W80636  28.614  30.626  13.990
10756W        W80637  11.220  25.198  14.448
10757W        W80638  43.280   8.293  12.879
10758W        W80639  32.461   5.337  11.570
10759W        W80640  34.464  30.101  14.510
10760W        W80641  10.635   2.826  10.443
10761W        W80642  26.633  43.855  12.958
10762W        W80643  32.484  22.596   4.173
10763W        W80644   7.283  24.498  13.830
10764W        W80645  22.710  11.269  13.946
10765W        W80646  39.330  16.731   0.853
10766W        W80647   0.982  30.486  10.122
10767W        W80648   2.311  43.377  12.536
10768W        W80649  27.005   4.373  13.060
10769W        W80650  16.220  44.472   3.655
10770W        W80651  31.613  29.444   1.324
10771W        W80652   8.676  28.448   3.663
10772W        W80653  44.874  41.020  11.947
10773W        W80654   9.265  38.065  12.534
10774W        W80655  24.570  10.810   3.185
10775W        W80656  42.005  40.312  12.450
10776W        W80657  12.645  11.851   0.388
10777W        W80658  39.349  23.116   4.267
10778W        W80659  40.533  33.468   4.791
10779W        W80660   8.194  43.011   1.377
10780W        W80661   6.703  29.150  12.934
10781W        W80662  17.169  35.375  14.895
10782W        W80663  19.775  14.215   1.433
10783W        W80664   3.838  17.111  13.027
10784W        W80665  35.520   2.745  10.894
10785W        W80666  26.462  27.143   4.330
10786W        W80667  38.354  21.700  14.385
10787W        W80668  36.567  22.241  13.455
10788W        W80669   8.692  17.688  13.353
10789W        W80670  38.977  18.254   4.709
10790W        W80671  31.926  24.494  13.482
10791W        W80672   8.726   7.810  11.855
10792W        W80673  19.564   2.748  13.369
10793W        W80674  19.633  29.096   5.209
10794W        W80675   4.427  20.678   2.341
10795W        W80676  32.516  43.843   3.171
10796W        W80677  36.989  43.908  11.485
10797W        W80678  35.919  38.445  10.504
10798W        W80679  31.931  19.609   0.886
10799W        W80680  40.886  28.078   2.685
10800W        W80681   9.799   8.364   1.263
10801W        W80682   0.329  24.131   0.878
10802W        W80683  25.639   0.455   0.880
10803W        W80684  31.611  13.317   2.182
10804W        W80685   3.799  25.979  12.560
10805W        W80686  37.495   3.461   4.273
10806W        W80687  21.178   0.253  10.426
10807W        W80688   2.440  34.590  12.421
10808W        W80689  25.211  23.058   2.272
10809W        W80690  39.003  40.858   0.940
10810W        W80691   8.201   7.284   4.723
10811W        W80692  25.487  31.018   0.298
10812W        W80693  37.067  10.313   4.284
10813W        W80694  25.568   9.375  11.481
10814W        W80695  17.191  28.112  11.395
10815W        W80696  25.707  29.108  13.897
10816W        W80697  24.604  20.250   4.173
10817W        W80698  13.644  23.524   2.212
10818W        W80699  33.884  15.162   0.956
10819W        W80700  11.216  13.700  11.509
10820W        W80701  40.333  17.307  10.057
10821W        W80702  23.141  38.428  11.093
10822W        W80703  12.661  22.561   4.136
10823W        W80704   1.763  36.369  11.954
10824W        W80705  37.490   2.286   2.384
10825W        W80706   3.952   4.942   1.880
10826W        W80707  44.426  22.123   4.619
10827W        W80708  25.203  41.332  12.565
10828W        W80709  29.560  30.966   4.681
10829W        W80710  20.231  29.059   4.301
10830W        W80711  16.805   0.357  11.976
10831W        W80712  20.609   5.744   1.432
10832W        W80713   7.768  39.859  10.051
10833W        W80714   0.871  27.039   0.270
10834W        W80715  33.888  19.756   4.801
10835W        W80716  12.677  29.046   0.418
10836W        W80717  19.125   3.875   3.778
10837W        W80718  43.281   0.407  10.599
10838W        W80719  15.114  28.006  14.329
10839W        W80720  19.044   4.237   4.780
10840W        W80721  32.944   7.690   2.790
10841W        W80722  39.893   9.349   4.236
10842W        W80723  13.731   2.250   4.119
10843W        W80724  26.073  17.796   4.737
10844W        W80725  31.928  15.600   2.181
10845W        W80726   1.414  23.683  10.564
10846W        W80727   3.729   7.899  13.464
10847W        W80728   8.693  19.110  13.832
10848W        W80729  10.842  41.444   1.791
10849W        W80730   1.433  24.527   3.378
10850W        W80731  44.491  39.948   0.933
10851W        W80732  20.675  11.349   3.163
10852W        W80733  30.161   4.446   2.400
10853W        W80734  31.582  16.655  14.487
10854W        W80735  29.534   5.863   1.904
10855W        W80736  43.802  30.113  14.347
10856W        W80737  31.575   4.701  13.889
10857W        W80738   0.835  32.095   2.860
10858W        W80739   8.763  18.672  14.466
10859W        W80740  24.071  35.566  11.375
10860W        W80741   8.388   9.777  14.475
10861W        W80742  27.551  23.709   3.257
10862W        W80743  10.218   5.847  12.548
10863W        W80744  27.590  23.087   4.172
10864W        W80745  12.667  43.829   1.351
10865W        W80746  24.100  37.909  10.953
10866W        W80747   3.945  33.540   0.730
10867W        W80748  33.909   4.435   1.737
10868W        W80749  22.536  33.005   3.164
10869W        W80750  32.904  44.964  12.394
10870W        W80751  21.513  38.895  12.406
10871W        W80752  22.727  30.993  10.004
10872W        W80753   6.335  27.966  11.507
10873W        W80754  15.809  39.008  14.831
10874W        W80755  30.124  17.266   3.850
10875W        W80756   3.881  30.106   1.898
10876W        W80757  33.606  16.162   5.082
10877W        W80758  14.335  27.511   4.667
10878W        W80759  44.396  34.075  13.323
10879W        W80760  26.118  33.595   1.786
10880W        W80761  35.418  23.507  12.893
10881W        W80762  30.649  12.316  10.542
10882W        W80763  16.754  43.455   1.848
10883W        W80764  17.290  39.524   4.779
10884W        W80765  39.939  37.890  13.790
10885W        W80766  28.582   1.308  14.346
10886W        W80767  28.586   9.731   3.685
10887W        W80768  28.956  36.478  10.420
10888W        W80769  43.492  18.079   5.115
10889W        W80770  35.020  16.602   4.335
10890W        W80771   1.450  21.125  10.570
10891W        W80772  20.224  38.518  13.906
10892W        W80773  15.728  41.852   3.673
10893W        W80774  38.851  32.417   2.204
10894W        W80775  21.605  31.903   3.839
10895W        W80776   9.666  34.431   1.372
10896W        W80777  36.507  27.587  13.872
10897W        W80778   4.719  14.168  14.882
10898W        W80779   0.846   2.826   0.441
10899W        W80780  22.544   1.914   5.314
10900W        W80781  41.321  12.852  11.573
10901W        W80782  26.163  41.351  14.835
10902W        W80783   2.290  31.589   2.861
10903W        W80784  15.757  33.937  11.485
10904W        W80785  22.033  26.560   3.248
10905W        W80786   6.857  32.545  12.911
10906W        W80787   1.898  36.395  12.558
10907W        W80788  39.009  18.110   2.770
10908W        W80789   0.816   7.857  11.393
10909W        W80790  34.474  29.428  13.378
10910W        W80791  43.387  40.857   1.722
10911W        W80792  19.100  17.179  13.535
10912W        W80793  22.184   7.772  13.010
10913W        W80794  33.587   9.771   1.697
10914W        W80795   9.651   1.241  11.874
10915W        W80796  44.771  26.136   2.293
10916W        W80797  42.390  42.993  14.781
10917W        W80798  11.175  20.083  14.013
10918W        W80799  28.602  15.645  14.500
10919W        W80800  44.334  29.569   2.310
10920W        W80801  29.430   6.849  12.992
10921W        W80802  11.719  16.240   5.642
10922W        W80803  10.333  44.403  13.474
10923W        W80804   2.848  43.391   0.781
10924W        W80805   0.469  12.774   0.387
10925W        W80806   9.198  14.716   0.450
10926W        W80807  40.549  25.156  10.584
10927W        W80808  41.410   2.939  11.467
10928W        W80809  17.131  18.108   3.847
10929W        W80810  35.583  11.296   1.859
10930W        W80811   1.252   3.427   3.193
10931W        W80812  16.258   7.287   0.342
10932W        W80813  31.615  33.463  12.460
10933W        W80814  44.450   3.295  13.834
10934W        W80815   7.385  35.888   0.380
10935W        W80816  19.706  23.608   3.204
10936W        W80817   7.239  26.997   0.390
10937W        W80818  25.713   2.854   2.338
10938W        W80819   7.289  15.665  13.322
10939W        W80820  11.175  35.899   1.864
10940W        W80821  35.436  28.640   1.703
10941W        W80822  43.406   0.862   0.396
10942W        W80823  32.563  17.673   1.881
10943W        W80824  21.202  25.638  11.582
10944W        W80825  40.527  34.073  14.873
10945W        W80826  33.470  18.052  11.374
10946W        W80827  20.648  11.137   2.319
10947W        W80828  36.985  28.570   1.347
10948W        W80829   0.302   4.708  11.414
10949W        W80830  32.052   1.845  12.841
10950W        W80831  18.270  10.345   2.864
10951W        W80832  13.304   1.866  13.841
10952W        W80833  37.946  41.292   1.404
10953W        W80834   5.702  14.311   3.746
10954W        W80835   2.403  30.653   4.659
10955W        W80836  35.032  31.069   3.813
10956W        W80837  22.013  13.158   0.298
10957W        W80838  34.969  38.533   3.659
10958W        W80839  36.952   0.360   5.194
10959W        W80840   3.881  30.162  10.943
10960W        W80841  13.795  36.384   5.182
10961W        W80842  22.693  35.457  14.863
10962W        W80843  17.628  23.148  11.556
10963W        W80844  31.467  12.262  14.411
10964W        W80845  17.731  31.036   4.303
10965W        W80846  19.625  14.710   2.667
10966W        W80847  20.250  26.604  13.825
10967W        W80848  43.487  14.825   2.672
10968W        W80849  41.381  12.309  11.513
10969W        W80850   9.814  10.174  10.104
10970W        W80851  10.778  17.780   2.388
10971W        W80852  20.221  42.952  12.092
10972W        W80853  22.641  23.543   2.727
10973W        W80854  12.699   7.866  14.841
10974W        W80855   6.861  34.532  14.800
10975W        W80856  43.380  27.578   4.833
10976W        W80857  36.587  20.690   2.894
10977W        W80858  25.001  41.417   4.717
10978W        W80859  31.541  13.142  12.907
10979W        W80860   5.884  26.613  10.993
10980W        W80861  41.951  10.192  11.546
10981W        W80862  35.961  43.805  10.504
10982W        W80863  41.836  14.327   9.948
10983W        W80864  33.438  17.253  11.443
10984W        W80865  33.452   8.335   3.708
10985W        W80866  21.062  12.116   0.912
10986W        W80867  39.881  17.622  10.606
10987W        W80868   4.826  27.573  10.060
10988W        W80869  21.656  26.007  14.506
10989W        W80870  16.649  40.439  14.896
10990W        W80871  21.748   0.791   4.734
10991W        W80872  30.544   2.878   2.230
10992W        W80873   7.385   0.929   2.704
10993W        W80874  17.574  10.267   1.740
10994W        W80875  30.659  16.293   1.791
10995W        W80876  42.526  26.009  11.513
10996W        W80877  18.577  40.044  11.990
10997W        W80878  36.878   6.797   4.678
10998W        W80879  39.447  24.173   1.385
10999W        W80880  19.155  20.536   4.303
11000W        W80881  31.139   1.445   1.834
11001W        W80882  32.099   2.444   2.408
11002W        W80883   6.409  14.676   4.186
11003W        W80884  32.434  18.051  11.077
11004W        W80885  41.855  11.671   4.335
11005W        W80886  39.486  37.906  11.010
11006W        W80887  22.065  35.979  13.533
11007W        W80888  35.009   8.831  13.966
11008W        W80889  40.421  22.620  11.441
11009W        W80890  38.894  34.501  10.987
11010W        W80891  39.949  31.476   3.164
11011W        W80892  27.991  34.055  12.909
11012W        W80893  34.471   3.930  10.590
11013W        W80894  18.619  31.093   2.717
11014W        W80895  43.381  44.865  12.375
11015W        W80896   5.250   3.951   4.805
11016W        W80897   3.323   2.800   2.718
11017W        W80898   0.951   4.423   1.315
11018W        W80899  35.395  44.811   1.222
11019W        W80900  42.987  28.096   2.809
11020W        W80901  15.283   4.821   0.817
11021W        W80902  13.194  11.763   5.222
11022W        W80903  42.426   1.251   1.300
11023W        W80904   3.712  10.873   1.394
11024W        W80905  12.660  33.392  11.401
11025W        W80906  32.075  14.311  10.985
11026W        W80907  11.136   2.456   1.748
11027W        W80908  14.167   2.322   5.286
11028W        W80909  26.537  12.846   4.193
11029W        W80910  11.695  24.022   5.266
11030W        W80911  42.821  39.900   3.644
11031W        W80912  35.514   7.743  13.045
11032W        W80913  18.258  32.524   1.356
11033W        W80914  29.463  20.652   1.807
11034W        W80915  18.265   1.364   0.330
11035W        W80916  36.441  44.480  10.639
11036W        W80917  27.493   4.424  13.837
11037W        W80918  41.443   2.845  14.912
11038W        W80919   7.910  43.007   4.727
11039W        W80920  26.668  43.921   2.225
11040W        W80921  33.943  26.499   2.792
11041W        W80922  25.495   5.809   4.244
11042W        W80923  37.835  23.105   0.905
11043W        W80924  19.593   5.812   2.688
11044W        W80925  33.498  35.429  14.338
11045W        W80926  14.796  21.088   3.760
11046W        W80927  32.492  24.706   3.806
11047W        W80928  18.197  12.335  12.936
11048W        W80929  19.775  30.559  11.106
11049W        W80930  19.653  14.132  14.788
11050W        W80931   8.675  10.797   1.763
11051W        W80932  16.736  22.143   4.819
11052W        W80933  22.111  35.046   3.808
11053W        W80934  20.220   3.407  10.477
11054W        W80935  40.004  36.845   3.798
11055W        W80936   0.748  36.578  14.847
11056W        W80937  43.974  12.261  13.004
11057W        W80938   6.763  44.474   0.824
11058W        W80939  10.702  26.974  14.446
11059W        W80940  15.759  30.930  12.068
11060W        W80941  23.549   2.904  11.055
11061W        W80942  31.083   6.856  10.940
11062W        W80943  41.295  26.062   0.854
11063W        W80944  23.533  26.544  12.472
11064W        W80945  20.045  32.593   1.277
11065W        W80946  22.672  34.005   0.343
11066W        W80947  29.990  16.122   5.701
11067W        W80948   6.923  23.704  11.908
11068W        W80949   6.215  35.942  10.412
11069W        W80950  23.648   4.407   0.288
11070W        W80951  35.108   8.704  10.933
11071W        W80952  26.576   0.819   0.792
11072W        W80953   6.870  20.164  11.926
11073W        W80954   7.683  24.490  14.493
11074W        W80955  40.052   6.259   2.416
11075W        W80956   8.810  29.587  11.378
11076W        W80957  39.382  20.571   1.320
11077W        W80958  10.253  26.569   1.437
11078W        W80959  18.616  44.000   1.225
11079W        W80960   4.310  12.808  10.634
11080W        W80961  22.173  15.662   2.846
11081W        W80962  12.708  21.733  12.914
11082W        W80963  23.992  18.209   5.168
11083W        W80964  23.506  20.755   0.789
11084W        W80965   3.890  44.282  14.356
11085W        W80966  39.932  28.962   4.750
11086W        W80967  14.127  40.415  14.349
11087W        W80968  12.856  38.368  10.611
11088W        W80969  36.892  43.466   4.640
11089W        W80970   3.336   2.282   3.861
11090W        W80971  40.371  38.963  10.131
11091W        W80972  13.166  38.928   2.331
11092W        W80973  28.575  17.791  11.114
11093W        W80974  40.407  41.484  12.929
11094W        W80975   6.236  44.371  11.540
11095W        W80976  41.957   9.786   4.652
11096W        W80977  28.096  16.653  11.501
11097W        W80978  29.590  19.139  13.855
11098W        W80979   2.934  15.777   1.220
11099W        W80980  41.520  12.726  13.043
11100W        W80981  18.551  18.162   4.298
11101W        W80982  18.093  16.735  14.305
11102W        W80983  13.174  36.445   4.307
11103W        W80984  23.067  36.970   2.267
11104W        W80985  10.250   4.866  12.958
11105W        W80986   2.337   2.830  11.108
11106W        W80987  37.938  15.813   2.709
11107W        W80988  16.711   0.470  13.405
11108W        W80989  13.785   7.322  12.972
11109W        W80990  33.121  32.396  11.977
11110W        W80991  21.114   1.343   3.763
11111W        W80992  19.072   9.877   0.795
11112W        W80993  30.051  16.706   3.311
11113W        W80994  33.472  13.217  14.869
11114W        W80995   9.306  20.165   1.337
11115W        W80996   0.858   7.311   4.697
11116W        W80997  20.698  35.961   0.482
11117W        W80998  40.852  26.063  10.514
11118W        W80999  18.251  40.870   1.451
11119W        W81000  18.572  42.385  14.398
11120W        W81001  33.998  42.990  12.366
11121W        W81002  25.656  30.988   4.163
11122W        W81003  11.737  12.707  12.953
11123W        W81004  21.066  40.034   0.796
11124W        W81005  12.118   9.262   4.838
11125W        W81006  22.194  22.669  13.873
11126W        W81007  11.181   6.223   1.704
11127W        W81008   7.684  30.503  10.415
11128W        W81009  29.103   4.849   0.264
11129W        W81010  34.455  44.303  14.923
11130W        W81011   6.860  30.563   0.263
11131W        W81012  39.064  15.690   0.434
11132W        W81013  16.104  10.384   2.181
11133W        W81014  36.407  17.723   3.309
11134W        W81015  18.652  12.790  13.411
11135W        W81016  42.422  32.486  11.895
11136W        W81017  41.366  13.304  11.460
11137W        W81018   2.300  37.531  14.996
11138W        W81019   1.437  29.465  14.473
11139W        W81020   6.759  16.609  11.919
11140W        W81021  43.020  36.535  10.551
11141W        W81022  38.336   2.900   3.340
11142W        W81023   6.228  25.208  14.020
11143W        W81024  36.396  13.116  10.959
11144W        W81025  20.675  29.134  11.946
11145W        W81026  11.346   8.182  14.360
11146W        W81027  22.094  41.814   2.183
11147W        W81028   2.395  32.447   1.444
11148W        W81029  11.342  14.687   0.359
11149W        W81030  19.266  11.317   2.407
11150W        W81031  18.280   1.776  10.989
11151W        W81032  38.850  16.737  12.094
11152W        W81033   3.460   7.744  10.914
11153W        W81034  42.003   2.450   0.482
11154W        W81035  40.976  32.073  10.534
11155W        W81036  43.289  25.481  12.931
11156W        W81037  29.567  35.105   3.148
11157W        W81038  19.286  44.993  10.464
11158W        W81039   2.796  18.755   1.798
11159W        W81040   2.737  19.190  10.546
11160W        W81041  32.394  13.736   4.791
11161W        W81042  15.267  17.723  13.531
11162W        W81043  31.425  12.144  11.446
11163W        W81044  29.021  40.379  11.406
11164W        W81045  37.836  13.227  10.433
11165W        W81046  12.173  12.762  10.632
11166W        W81047  24.979  19.218  13.470
11167W        W81048  15.607  40.872   3.318
11168W        W81049   3.872  21.517  10.544
11169W        W81050  31.600  21.527  13.376
11170W        W81051   0.252  11.847  12.564
11171W        W81052  22.590  15.222  14.863
11172W        W81053  41.491   0.390  10.579
11173W        W81054  20.588   6.299   0.391
11174W        W81055  32.043  34.040   1.759
11175W        W81056  43.972  14.322  13.436
11176W        W81057  32.589  33.962   0.898
11177W        W81058  36.464  21.213  13.947
11178W        W81059  27.002  44.907  11.860
11179W        W81060  21.734   9.213   3.175
11180W        W81061  11.329  37.344   0.960
11181W        W81062  42.527   6.253  14.779
11182W        W81063  35.896   1.904   3.661
11183W        W81064  16.241  13.157  13.388
11184W        W81065  41.020  38.485   0.941
11185W        W81066  16.079   2.807  10.975
11186W        W81067  29.150  17.146   2.707
11187W        W81068  20.569  15.130  14.495
11188W        W81069  13.335  29.662  12.879
11189W        W81070   5.230  21.541  14.375
11190W        W81071  40.842  44.868  12.956
11191W        W81072  35.902  38.977  10.430
11192W        W81073   0.317  33.567  14.785
11193W        W81074  44.275  20.248  11.111
11194W        W81075  22.502  14.674   9.983
11195W        W81076  10.175  15.585   2.316
11196W        W81077  12.697  33.501   4.269
11197W        W81078  21.138  41.794  13.932
11198W        W81079  11.760  25.519  14.348
11199W        W81080  15.221   4.438   2.199
11200W        W81081  22.100  23.731   0.838
11201W        W81082  11.784  28.623   0.795
11202W        W81083  26.065  37.570   0.730
11203W        W81084  24.186  14.639  14.511
11204W        W81085  17.630  19.575  14.760
11205W        W81086   9.193   1.853   0.909
11206W        W81087  17.646  36.905  11.042
11207W        W81088   3.389  11.233  14.883
11208W        W81089  44.287  41.812   3.285
11209W        W81090  30.125  13.323   1.428
11210W        W81091  17.671   5.799   0.252
11211W        W81092  43.420  34.900   4.621
11212W        W81093   1.326   4.880  12.054
11213W        W81094   3.825  34.998   4.257
11214W        W81095   0.368  33.455   0.411
11215W        W81096   0.395  14.125   4.139
11216W        W81097  41.457  40.020   3.771
11217W        W81098   7.298  42.513   4.626
11218W        W81099   6.861  38.469  13.441
11219W        W81100  41.327  32.949   4.626
11220W        W81101   5.307  20.175  12.411
11221W        W81102  32.042  39.557  14.919
11222W        W81103  42.858  22.603  13.325
11223W        W81104  30.957  29.538   3.217
11224W        W81105  14.835  36.517   2.841
11225W        W81106   1.797  22.073   3.227
11226W        W81107  42.475   6.247   2.297
11227W        W81108  26.646  14.305  13.520
11228W        W81109  10.273  38.502  13.953
11229W        W81110  22.715  34.536  11.858
11230W        W81111  33.101   6.364  10.453
11231W        W81112   3.762  43.971   3.807
11232W        W81113  24.195  21.184  10.535
11233W        W81114   5.203  32.050  12.960
11234W        W81115  15.259  41.501   2.285
11235W        W81116  37.469  22.997   3.806
11236W        W81117  21.046  20.129  10.563
11237W        W81118  33.922  33.894  13.009
11238W        W81119   0.888   7.188   0.752
11239W        W81120   5.807  21.142  13.528
11240W        W81121  41.010  24.504   4.212
11241W        W81122   5.400  22.252   3.187
11242W        W81123  20.212  43.995  11.526
11243W        W81124  33.983  33.475  12.875
11244W        W81125  32.588  13.737  13.915
11245W        W81126  39.455  35.997  13.800
11246W        W81127  17.151   2.318   3.255
11247W        W81128  28.185  31.453   0.480
11248W        W81129  22.072   4.407  13.444
11249W        W81130  25.491  42.802  14.300
11250W        W81131   5.261  19.074   3.676
11251W        W81132  25.188  28.676  14.305
11252W        W81133  21.259  15.270   3.231
11253W        W81134  42.785  12.187   3.213
11254W        W81135   8.163  39.992  12.838
11255W        W81136   8.310  18.551   0.303
11256W        W81137  43.301  31.909  14.403
11257W        W81138   3.761  26.055   1.888
11258W        W81139   5.301  31.559  11.090
11259W        W81140  18.213   8.188   0.862
11260W        W81141  34.034  20.232  14.030
11261W        W81142   7.350  23.642  13.915
11262W        W81143  17.205  18.769   3.688
11263W        W81144  39.022  10.154   3.246
11264W        W81145   6.737   3.375  14.289
11265W        W81146   7.361  20.698  11.588
11266W        W81147   4.790  38.545   1.857
11267W        W81148  18.681   3.941  12.987
11268W        W81149  24.014  33.961  12.084
11269W        W81150  33.441  18.063  10.564
11270W        W81151  43.775  35.551   1.705
11271W        W81152  24.102  11.210  12.990
11272W        W81153  31.446   9.176  13.848
11273W        W81154  34.565   4.314   3.246
11274W        W81155  38.825  36.379   3.162
11275W        W81156  26.206  26.066  14.375
11276W        W81157   6.402  41.021  14.911
11277W        W81158   1.441   0.423   4.207
11278W        W81159  36.553  26.657   3.807
11279W        W81160  42.031  14.109  11.081
11280W        W81161  12.741   2.268   1.930
11281W        W81162  42.324  15.683   2.827
11282W        W81163  18.687   5.775   2.416
11283W        W81164  17.177  26.176   4.178
11284W        W81165  31.618  28.178  12.443
11285W        W81166  37.830  16.240   3.758
11286W        W81167  44.265  10.723   3.863
11287W        W81168  26.984  14.783  11.590
11288W        W81169  41.430  18.575  13.523
11289W        W81170  40.969  38.022   4.671
11290W        W81171  16.304  40.303  13.050
11291W        W81172  14.141  43.297  12.357
11292W        W81173  20.085   9.793   0.953
11293W        W81174  44.786   1.268  12.377
11294W        W81175  18.737  36.395   2.287
11295W        W81176  11.688  30.907   0.404
11296W        W81177   1.827  26.497   1.311
11297W        W81178   0.446  20.562  12.466
11298W        W81179  31.614  31.620   3.187
11299W        W81180   4.717   4.332   1.851
11300W        W81181  12.339  13.190  12.565
11301W        W81182  10.349   6.307  11.613
11302W        W81183  33.425  14.299  14.910
11303W        W81184  16.807  41.814   4.230
11304W        W81185   5.408   2.950  13.474
11305W        W81186  18.754   0.317   4.354
11306W        W81187  15.772  10.358   2.830
11307W        W81188  19.229  21.515  11.993
11308W        W81189  38.369  30.623   1.261
11309W        W81190   8.282  42.308   1.881
11310W        W81191  32.962  29.606   3.302
11311W        W81192   4.271  40.463   4.745
11312W        W81193   6.334   0.408   3.198
11313W        W81194  11.797  24.178  12.428
11314W        W81195  28.949  27.450  12.920
11315W        W81196   0.808  39.360  11.441
11316W        W81197  22.126  18.154   2.711
11317W        W81198  43.996  39.946  14.000
11318W        W81199  19.708  13.337   0.888
11319W        W81200  18.119  10.814   4.138
11320W        W81201  37.927   3.456  14.393
11321W        W81202  29.107  33.498  13.935
11322W        W81203   5.336  27.980  14.973
11323W        W81204  15.598  44.357   3.726
11324W        W81205   5.754  10.762   3.228
11325W        W81206  24.167  14.164   0.313
11326W        W81207  13.675  10.344   1.746
11327W        W81208  35.015  35.881  14.937
11328W        W81209  13.291  33.541   5.202
11329W        W81210  29.605  22.090  11.565
11330W        W81211   1.920  37.970  12.403
11331W        W81212   2.291  29.605  14.820
11332W        W81213  20.656  33.025   2.663
11333W        W81214   4.228  23.081  10.911
11334W        W81215   9.874  36.966   1.897
11335W        W81216   0.851  34.511  10.494
11336W        W81217  36.065  29.096  14.359
11337W        W81218  21.164  28.488   3.858
11338W        W81219   9.739  21.617  13.866
11339W        W81220   8.265  17.229  14.434
11340W        W81221  21.154  10.759   0.864
11341W        W81222  40.933  16.697   1.427
11342W        W81223  23.510  32.602   3.191
11343W        W81224   3.820  10.793   0.431
11344W        W81225  11.661  24.703  13.016
11345W        W81226  29.153   0.386   3.365
11346W        W81227  43.816   5.336  11.609
11347W        W81228  44.979   2.861   2.874
11348W        W81229  43.826  28.955   0.793
11349W        W81230  17.580   6.914   3.832
11350W        W81231  24.223  19.054  12.524
11351W        W81232  22.089  23.590  12.470
11352W        W81233  15.273  41.869  12.944
11353W        W81234   0.453  36.887   0.748
11354W        W81235  16.604  29.128   0.362
11355W        W81236  21.679   3.376   1.375
11356W        W81237   3.447  24.989   4.198
11357W        W81238  18.664  43.422   2.745
11358W        W81239  41.412  15.604   3.229
11359W        W81240  29.478  41.035   4.717
11360W        W81241  24.659   4.367   4.747
11361W        W81242  21.567  30.964  13.520
11362W        W81243  29.944  33.921  14.316
11363W        W81244   5.363  34.497   2.303
11364W        W81245  37.075  30.417  10.621
11365W        W81246  27.963   8.327  12.944
11366W        W81247  38.448  17.209  13.933
11367W        W81248  32.458  29.050   4.166
11368W        W81249  15.814  10.735  11.117
11369W        W81250   1.248  12.702  11.395
11370W        W81251  44.292  44.368   0.940
11371W        W81252  13.719  31.446  11.013
11372W        W81253  16.143   8.216   1.384
11373W        W81254  42.021  11.130   3.266
11374W        W81255  19.747   6.197   2.706
11375W        W81256  18.136  41.535   4.744
11376W        W81257   8.287   9.313   2.886
11377W        W81258   3.450  12.685  10.890
11378W        W81259  16.304  11.184  14.817
11379W        W81260   7.407  30.415  10.988
11380W        W81261  26.991  26.963  11.425
11381W        W81262  28.022   7.379  12.869
11382W        W81263  15.662  23.089   2.697
11383W        W81264   4.711   2.798  10.549
11384W        W81265  13.346  17.598  13.949
11385W        W81266  41.986  41.525   0.340
11386W        W81267   1.891  37.537  13.440
11387W        W81268  16.781  24.609   0.478
11388W        W81269  33.516   5.815   3.729
11389W        W81270   7.269  14.106   1.702
11390W        W81271  35.510   5.868   2.842
11391W        W81272   0.751  35.970   1.235
11392W        W81273  44.445  11.780   3.794
11393W        W81274  34.517  14.165   1.295
11394W        W81275  34.090  19.579   3.252
11395W        W81276  18.090  25.538   4.714
11396W        W81277  32.125  31.416   2.757
11397W        W81278   1.461  39.046   0.378
11398W        W81279  19.564  33.056  10.922
11399W        W81280  29.521  39.984  14.896
11400W        W81281   6.312  17.797   4.755
11401W        W81282  20.587   5.266  12.554
11402W        W81283  12.709  10.339  11.971
11403W        W81284  25.009  26.680  14.446
11404W        W81285   4.800   5.932  14.411
11405W        W81286  23.732  42.872  11.451
11406W        W81287  25.063   6.369  13.933
11407W        W81288  11.845   3.250   0.476
11408W        W81289  36.424  18.700  11.028
11409W        W81290  35.516  12.356  13.881
11410W        W81291  42.295  23.209   1.397
11411W        W81292  44.779  27.553   1.905
11412W        W81293  37.366  25.978  14.291
11413W        W81294  42.305  42.917   3.257
11414W        W81295  29.073  44.816   4.173
11415W        W81296  31.050  16.291  13.940
11416W        W81297  37.061  27.463  10.963
11417W        W81298  32.984  33.503   0.361
11418W        W81299  24.579  24.171   2.338
11419W        W81300  27.675  25.168   3.851
11420W        W81301  41.521  37.932  11.501
11421W        W81302  30.546  18.735   9.972
11422W        W81303  10.243  20.617  13.857
11423W        W81304  18.208  10.380   3.223
11424W        W81305  24.122  20.651   3.687
11425W        W81306  32.927  28.617  13.471
11426W        W81307  15.116  18.707   4.166
11427W        W81308   5.193   0.446   2.836
11428W        W81309  14.110  38.980   3.843
11429W        W81310  14.328  38.397  13.495
11430W        W81311  41.319  33.068  12.534
11431W        W81312   5.714  14.713  13.399
11432W        W81313   3.891  19.235  14.951
11433W        W81314  30.066   2.789   3.266
11434W        W81315  33.018   7.293   1.399
11435W        W81316  44.772  38.531   1.356
11436W        W81317  40.422  40.808  13.827
11437W        W81318  38.369  19.250  12.413
11438W        W81319   1.277  18.105  14.767
11439W        W81320  39.548  31.938  13.947
11440W        W81321  13.825  21.550   4.229
11441W        W81322  19.060  20.532  12.856
11442W        W81323  12.678  25.489  14.999
11443W        W81324  37.902  42.012   4.310
11444W        W81325  40.993   4.827  10.927
11445W        W81326  35.556  20.226   4.285
11446W        W81327  41.296  30.637   0.823
11447W        W81328   7.300   6.192  11.954
11448W        W81329  18.201  35.390   2.758
11449W        W81330  36.041  31.011  13.490
11450W        W81331  27.631   1.785  14.845
11451W        W81332  21.178  44.957   1.711
11452W        W81333   6.874  42.882   4.324
11453W        W81334  25.663  39.996   0.828
11454W        W81335  22.672  14.680   1.307
11455W        W81336  39.967  10.674  12.022
11456W        W81337  36.041  32.465  14.434
11457W        W81338  31.546  39.042   4.737
11458W        W81339   3.435  11.249  10.146
11459W        W81340  16.202  15.233  12.051
11460W        W81341  21.733   3.789   1.340
11461W        W81342  20.533  31.004   2.791
11462W        W81343  43.805  34.872   2.346
11463W        W81344  30.561  27.144  13.941
11464W        W81345  20.626  15.174  10.535
11465W        W81346   9.169  10.806   4.836
11466W        W81347  14.786  29.506  13.794
11467W        W81348  10.163  42.797   4.777
11468W        W81349  13.160  19.169  14.798
11469W        W81350  14.710  12.161  12.896
11470W        W81351   6.353  16.124  11.043
11471W        W81352  32.126  44.330   2.709
11472W        W81353  40.324  10.685   0.300
11473W        W81354  23.224  23.165  14.389
11474W        W81355  39.962  40.036   0.917
11475W        W81356   0.271   4.740  13.057
11476W        W81357  11.815  44.967   1.261
11477W        W81358   5.220  40.511  13.863
11478W        W81359  10.767  40.874  14.277
11479W        W81360  21.748  27.176   4.649
11480W        W81361  10.169  40.407  14.318
11481W        W81362  43.413  42.911  10.906
11482W        W81363   2.340  43.022  13.423
11483W        W81364  24.200  44.398  11.457
11484W        W81365  31.634   7.384   5.322
11485W        W81366  34.465  35.944  13.822
11486W        W81367  15.713  32.071  14.430
11487W        W81368  31.035  20.077  13.944
11488W        W81369  12.671   8.881  11.028
11489W        W81370  10.267  36.374  14.860
11490W        W81371  33.957  34.464   1.854
11491W        W81372  38.551   4.400   1.769
11492W        W81373  23.117  38.029   2.804
11493W        W81374  35.365  38.400   0.298
11494W        W81375  34.542  17.101   3.354
11495W        W81376   2.841  11.682  12.364
11496W        W81377  43.394  30.418  13.063
11497W        W81378  20.082   1.247  12.933
11498W        W81379   9.802  41.929  13.022
11499W        W81380  10.720  36.491  13.518
11500W        W81381  33.596  22.524   0.742
11501W        W81382  37.524  15.734   4.615
11502W        W81383  13.797   6.777  12.404
11503W        W81384  44.318  11.318   1.436
11504W        W81385  44.859   5.876   1.334
11505W        W81386  37.419  28.977   1.256
11506W        W81387  11.654  27.958  10.024
11507W        W81388   2.384  41.009   2.379
11508W        W81389  17.741  39.384  14.489
11509W        W81390  29.472  18.630   1.410
11510W        W81391   3.911  40.467   1.321
11511W        W81392  33.055  24.694   2.850
11512W        W81393  27.996  14.258   5.129
11513W        W81394  41.987  33.929  13.503
11514W        W81395   3.882   8.161  14.460
11515W        W81396   4.245  22.679   1.714
11516W        W81397   9.197   2.358  14.448
11517W        W81398  21.588   7.402  14.444
11518W        W81399  20.737  42.848   2.360
11519W        W81400  42.885  21.261   0.459
11520W        W81401  29.021  43.015  12.018
11521W        W81402  33.012  35.599  12.447
11522W        W81403  41.820  33.622   0.798
11523W        W81404   6.210   8.696  11.385
11524W        W81405  44.897  15.777  14.976
11525W        W81406  44.956   8.817   2.690
11526W        W81407  21.547  19.557  13.545
11527W        W81408  21.092   3.928  10.451
11528W        W81409  19.624   7.771   2.828
11529W        W81410  23.225  42.941   4.253
11530W        W81411  34.871  41.041   2.285
11531W        W81412  10.148  36.862   0.322
11532W        W81413  34.407   8.750   0.281
11533W        W81414   2.860   0.829  14.943
11534W        W81415  22.136  30.632  12.546
11535W        W81416  38.476  31.513  11.561
11536W        W81417  36.567  16.158  11.428
11537W        W81418  41.949  26.037  10.926
11538W        W81419   9.390  14.146   3.713
11539W        W81420  31.632  13.259  12.544
11540W        W81421  41.799  18.588  14.887
11541W        W81422   7.416   3.724   5.235
11542W        W81423  21.683  18.674  12.451
11543W        W81424  44.002  11.205   0.458
11544W        W81425   4.228  27.040  13.341
11545W        W81426  12.146   2.449   3.723
11546W        W81427  41.846  11.349   0.296
11547W        W81428  27.565  40.859  13.879
11548W        W81429  39.407   3.824  10.411
11549W        W81430  42.521  10.794   0.823
11550W        W81431  27.603  27.011   3.170
11551W        W81432   2.297  41.520   2.667
11552W        W81433  32.093  38.401  12.961
11553W        W81434  28.159  32.471  12.975
11554W        W81435  33.403   1.849   1.288
11555W        W81436  40.978  39.059  13.928
11556W        W81437  10.839  15.268  10.584
11557W        W81438  29.631  38.456   3.711
11558W        W81439   9.850  30.029  12.030
11559W        W81440  37.401   0.256  10.577
11560W        W81441   8.676  42.474  14.954
11561W        W81442  37.448  17.236  14.351
11562W        W81443  36.431  44.306   9.988
11563W        W81444  33.536   4.287  13.355
11564W        W81445  38.530  14.202  14.330
11565W        W81446  30.959  44.389   3.311
11566W        W81447  14.255   4.314   3.334
11567W        W81448   0.340  32.011  14.817
11568W        W81449   3.911  41.922  13.486
11569W        W81450  41.477  14.764  10.545
11570W        W81451  18.228  14.614  13.892
11571W        W81452  26.964  10.196  10.494
11572W        W81453  19.269   6.702   3.731
11573W        W81454   6.904  43.808  13.901
11574W        W81455   2.302   0.275  12.967
11575W        W81456  39.969  22.066  11.876
11576W        W81457  24.618   9.383  11.571
11577W        W81458   8.244  32.502   1.736
11578W        W81459  25.567  17.235   4.199
11579W        W81460  41.974  10.140  10.057
11580W        W81461   5.855  32.138   4.613
11581W        W81462  16.273  21.072   2.315
11582W        W81463  16.606   8.354   2.808
11583W        W81464  16.600  17.721  11.407
11584W        W81465  36.068  32.919  11.911
11585W        W81466  24.615  43.021   1.227
11586W        W81467  32.002  13.154  11.872
11587W        W81468  22.647  18.182   2.868
11588W        W81469  21.568  26.984  12.961
11589W        W81470  27.046  43.919  12.445
11590W        W81471  14.148  13.184  14.878
11591W        W81472  35.865  21.203  11.583
11592W        W81473   0.477  32.486  11.862
11593W        W81474  18.073  31.153  14.886
11594W        W81475  24.613   6.712  14.297
11595W        W81476   2.393  22.025   4.732
11596W        W81477  31.557  34.475  13.474
11597W        W81478   6.228  43.825   4.645
11598W        W81479  21.534  32.602   0.800
11599W        W81480  37.903  44.874   3.751
11600W        W81481  38.935  26.996   3.730
11601W        W81482  24.012   5.353  13.390
11602W        W81483  43.870  21.133  14.371
11603W        W81484   4.828   6.407  10.507
11604W        W81485  38.844  36.054   2.885
11605W        W81486  32.066  21.099   2.250
11606W        W81487  34.542  28.151   1.280
11607W        W81488  36.982  30.986  12.476
11608W        W81489  27.097   3.393  13.033
11609W        W81490  15.166  10.177  13.312
11610W        W81491  39.871  41.864  13.976
11611W        W81492   1.847  26.530  12.423
11612W        W81493  17.094  15.637   0.247
11613W        W81494  17.160  44.417  10.028
11614W        W81495   4.377  25.013  10.484
11615W        W81496  18.752  18.131  10.981
11616W        W81497  13.624  28.526   0.438
11617W        W81498  43.428   2.345   4.748
11618W        W81499  13.717  32.455  14.396
11619W        W81500  43.501  26.684   2.337
11620W        W81501  19.549  44.265   9.530
11621W        W81502  18.593  21.076  11.966
11622W        W81503  10.290  12.255   0.285
11623W        W81504  33.033   8.657  11.528
11624W        W81505  44.442  22.624   2.274
11625W        W81506  38.041  43.911   1.289
11626W        W81507  26.169  31.434  13.029
11627W        W81508  30.637  37.392   3.352
11628W        W81509  24.543  28.488  12.395
11629W        W81510  34.080  13.687  14.914
11630W        W81511   8.805   8.267  14.460
11631W        W81512  31.643  26.542   1.426
11632W        W81513  41.989  34.521  10.516
11633W        W81514  23.695  35.401   2.251
11634W        W81515  35.544   1.449  14.294
11635W        W81516  13.820  22.681  11.478
11636W        W81517  17.095  22.667   0.838
11637W        W81518  10.789  14.329   0.905
11638W        W81519   7.296  31.599  13.525
11639W        W81520  10.195  24.000   4.674
11640W        W81521  32.510   6.205  12.495
11641W        W81522   2.797  31.494   2.312
11642W        W81523  30.536  36.848   1.778
11643W        W81524  23.599  18.663   3.735
11644W        W81525  23.082  29.637  13.059
11645W        W81526  24.031  42.439  13.977
11646W        W81527  32.135   5.878  11.452
11647W        W81528  43.297  12.226  12.968
11648W        W81529  15.252  11.231  11.494
11649W        W81530  25.072  34.918   2.871
11650W        W81531  28.107  34.614  11.987
11651W        W81532  37.950  11.642   4.348
11652W        W81533  16.573  10.697  12.972
11653W        W81534  44.347  10.671   2.698
11654W        W81535  23.997  39.835  11.970
11655W        W81536  21.140  35.583   2.269
11656W        W81537  40.541  10.230  11.859
11657W        W81538  13.304  40.996   1.850
11658W        W81539  20.135   1.773  14.283
11659W        W81540   7.187  18.073   2.293
11660W        W81541   1.910  19.072   3.345
11661W        W81542   3.289   9.371  11.439
11662W        W81543  19.539  18.066  13.512
11663W        W81544  35.929  13.732  14.454
11664W        W81545  32.986  34.376   4.122
11665W        W81546  35.085  36.396  13.510
11666W        W81547  32.527   1.405   1.295
11667W        W81548  39.504  10.264  11.423
11668W        W81549  37.412   1.464   4.233
11669W        W81550  25.160  43.851  11.944
11670W        W81551   9.254  39.370   1.701
11671W        W81552  12.146  41.928  12.987
11672W        W81553  23.508   2.245   0.329
11673W        W81554  13.297   8.756  14.881
11674W        W81555  19.683  26.693   3.676
11675W        W81556  10.338  16.676   4.229
11676W        W81557  29.635  17.780   3.642
11677W        W81558   7.679   7.768   2.350
11678W        W81559  20.248  34.071  12.527
11679W        W81560  41.003  40.841   4.276
11680W        W81561  20.522  22.628  12.356
11681W        W81562  36.937  21.197  12.429
11682W        W81563  27.474  32.909   2.902
11683W        W81564  44.990  19.737  13.466
11684W        W81565   7.259   4.891  12.857
11685W        W81566  33.483   6.290  11.024
11686W        W81567  19.700  36.515  13.927
11687W        W81568  12.154  10.242  10.432
11688W        W81569  34.911  24.096  14.308
11689W        W81570   0.319  37.531   2.344
11690W        W81571  39.949  24.638   4.249
11691W        W81572  24.705  32.903  12.856
11692W        W81573  27.511  29.535  10.999
11693W        W81574  36.464  15.648   1.823
11694W        W81575  13.246  12.304  13.950
11695W        W81576   0.918  21.107  12.398
11696W        W81577  40.901  44.502   1.235
11697W        W81578  22.018   2.921  13.841
11698W        W81579  30.014   0.254   0.807
11699W        W81580  39.002  42.978   9.975
11700W        W81581  16.204  42.847  13.827
11701W        W81582   0.921  39.952   0.812
11702W        W81583   6.395  24.158  12.509
11703W        W81584  31.149  17.097   4.761
11704W        W81585  42.799  32.495   1.334
11705W        W81586  19.650   8.777  14.920
11706W        W81587   6.700  24.715  11.089
11707W        W81588  38.819  34.441  10.116
11708W        W81589   6.694  14.256  10.561
11709W        W81590  29.169  42.335  11.579
11710W        W81591   9.659  10.285  11.399
11711W        W81592   2.841   4.710  12.434
11712W        W81593  39.958   7.232  14.795
11713W        W81594  11.855  15.671   1.377
11714W        W81595  34.603  14.277  11.070
11715W        W81596  19.667  39.887  13.430
11716W        W81597   7.212  27.449  13.938
11717W        W81598  27.683  42.504   2.784
11718W        W81599  29.047  29.941  12.368
11719W        W81600  23.537  40.509   1.210
11720W        W81601  34.077  38.457  11.597
11721W        W81602  32.632  24.030  13.457
11722W        W81603  41.348  11.758  13.462
11723W        W81604   6.892   9.248  14.861
11724W        W81605   2.355  34.006  14.335
11725W        W81606   7.683  20.084   3.196
11726W        W81607  41.313  40.910   3.338
11727W        W81608   1.816   4.422   4.600
11728W        W81609  30.091  33.109   1.877
11729W        W81610   1.891  25.585  13.798
11730W        W81611  36.910   2.778   1.829
11731W        W81612   8.860   0.405  13.882
11732W        W81613  11.756   2.418   3.849
11733W        W81614  39.062   7.287   2.269
11734W        W81615  18.199   7.873  13.911
11735W        W81616  36.003  13.214   0.888
11736W        W81617  30.635  30.583  10.533
11737W        W81618   9.703  14.636  11.029
11738W        W81619  22.007  18.713  11.001
11739W        W81620  23.029  21.734  11.942
11740W        W81621  16.812  15.176   1.749
11741W        W81622  28.643  34.967  14.954
11742W        W81623  27.042  19.647  12.350
11743W        W81624  41.331   4.278  10.977
11744W        W81625  10.367  22.502   5.239
11745W        W81626  39.545  35.068  11.097
11746W        W81627   3.952  44.946  12.949
11747W        W81628  34.460  14.763   1.257
11748W        W81629  14.191  27.083  10.978
11749W        W81630  12.771  16.223  12.863
11750W        W81631  32.558  40.437   0.399
11751W        W81632  44.879  33.448  14.805
11752W        W81633  25.969  17.776  10.913
11753W        W81634  10.158   3.950   1.831
11754W        W81635  14.602  11.259  10.587
11755W        W81636   4.727  16.192   5.291
11756W        W81637  17.616  44.419   2.813
11757W        W81638  40.832  38.011   0.811
11758W        W81639   2.898  44.776  14.301
11759W        W81640  14.760  29.121  12.851
11760W        W81641  21.137   2.451   2.225
11761W        W81642  32.462  41.831   3.779
11762W        W81643  44.400  43.446   1.890
11763W        W81644  40.486  40.444   2.694
11764W        W81645  22.115  30.586  11.879
11765W        W81646  40.488   0.400  11.520
11766W        W81647   5.795  39.540   3.192
11767W        W81648  44.383  29.458  14.377
11768W        W81649  32.529   4.262  14.298
11769W        W81650  12.306  41.808   2.284
11770W        W81651  37.441  41.944  11.411
11771W        W81652  24.628  14.793   2.901
11772W        W81653   4.354  26.131  11.398
11773W        W81654   4.416  40.977  14.762
11774W        W81655  35.456  35.493  11.436
11775W        W81656  42.944  21.169  12.070
11776W        W81657   8.164  31.912  14.870
11777W        W81658  10.231  34.520  12.042
11778W        W81659  18.708  20.567   2.178
11779W        W81660  18.061  13.781  11.964
11780W        W81661  35.372  44.403  14.995
11781W        W81662   5.762  29.976   1.795
11782W        W81663  17.142  41.335   4.198
11783W        W81664   2.439   9.339   0.468
11784W        W81665  25.651   3.880  11.943
11785W        W81666  14.254  43.323  14.436
11786W        W81667  11.852  10.693  11.428
11787W        W81668  13.230  20.538   3.276
11788W        W81669  23.990  43.949  12.460
11789W        W81670  12.250   3.425   4.605
11790W        W81671   4.387  27.457   2.235
11791W        W81672  31.939  25.580   1.741
11792W        W81673  39.323   4.862  14.873
11793W        W81674   0.967  28.668  12.947
11794W        W81675  14.718  32.992   0.325
11795W        W81676  28.639  24.115  13.505
11796W        W81677  31.531   0.780   4.823
11797W        W81678  26.180  17.610   2.748
11798W        W81679  27.003   0.932  12.385
11799W        W81680  24.669  43.297  11.917
11800W        W81681  24.711  19.658   3.298
11801W        W81682  10.312   9.183   2.708
11802W        W81683   6.271  22.650   2.708
11803W        W81684  11.858  34.891  13.390
11804W        W81685  32.530  35.406  14.836
11805W        W81686  20.680  20.566  11.052
11806W        W81687   0.401  34.058   4.276
11807W        W81688  44.363  24.717   1.369
11808W        W81689  31.418  37.391   0.291
11809W        W81690  37.830  40.308   2.780
11810W        W81691  30.109  17.222   0.451
11811W        W81692  33.963  26.552  12.534
11812W        W81693  20.563   8.346   1.328
11813W        W81694   4.262  33.623  11.522
11814W        W81695  37.913  30.944  14.883
11815W        W81696  21.153  21.552  12.407
11816W        W81697   0.802  36.420  13.360
11817W        W81698  25.672  34.424  10.422
11818W        W81699  15.783  14.102   4.645
11819W        W81700   5.227  41.847  14.948
11820W        W81701  16.137  33.061   2.688
11821W        W81702   6.229  10.219   4.349
11822W        W81703  33.100  42.958   4.691
11823W        W81704  36.850  43.348   1.818
11824W        W81705  35.366  37.369  14.779
11825W        W81706   9.806  15.596   4.648
11826W        W81707  39.973  38.847  14.988
11827W        W81708  36.428  35.947   4.324
11828W        W81709  11.266   5.401   3.283
11829W        W81710  15.168  29.544   4.124
11830W        W81711  39.502  39.013  11.518
11831W        W81712   9.646  38.977  11.587
11832W        W81713  27.123  32.888   4.352
11833W        W81714  26.477  23.604   5.678
11834W        W81715  23.585   5.247   4.265
11835W        W81716  23.217  43.864   0.897
11836W        W81717  42.352   1.944  11.969
11837W        W81718  34.942  13.805   0.915
11838W        W81719   0.362  34.039  13.321
11839W        W81720  39.865   4.222   0.478
11840W        W81721  42.507  14.170  13.052
11841W        W81722  16.633  39.341  13.518
11842W        W81723  25.691  17.186  12.056
11843W        W81724  40.419  17.114  13.444
11844W        W81725   5.355   3.818   2.322
11845W        W81726  32.449   5.256  12.475
11846W        W81727   7.784  41.338  10.565
11847W        W81728  36.952   7.289  11.498
11848W        W81729  16.083   2.364  11.394
11849W        W81730  25.709  24.165  10.496
11850W        W81731  38.563  33.069  10.467
11851W        W81732  10.298   8.309  12.928
11852W        W81733  15.143  33.617   0.272
11853W        W81734  14.248  37.049   1.793
11854W        W81735  33.043  17.642  13.503
11855W        W81736  24.480  23.560   3.156
11856W        W81737  17.646  36.842  11.463
11857W        W81738  23.589  15.196   2.254
11858W        W81739   8.723  33.428  14.514
11859W        W81740  11.340   0.873  14.941
11860W        W81741  17.244  17.169   1.370
11861W        W81742   2.798   2.833   4.798
11862W        W81743  30.004  13.213   4.310
11863W        W81744  18.755  37.976   2.270
11864W        W81745  39.507  16.729  14.515
11865W        W81746  35.541   9.228   0.446
11866W        W81747  10.331  31.634   1.791
11867W        W81748  13.757  28.588  13.509
11868W        W81749  12.702  26.962  11.942
11869W        W81750   0.955  33.054  11.515
11870W        W81751  15.667  24.197   1.320
11871W        W81752  24.218  37.985  13.506
11872W        W81753  29.664  43.854  13.908
11873W        W81754  21.249  26.614   4.690
11874W        W81755  10.209   7.273   0.959
11875W        W81756  19.206  13.627  11.902
11876W        W81757  10.846  10.345   3.719
11877W        W81758  33.031  36.509   3.347
11878W        W81759   7.377  31.459  13.828
11879W        W81760   3.893  42.325  10.894
11880W        W81761  24.206   8.729  13.478
11881W        W81762  17.642  44.789   1.248
11882W        W81763  38.535  32.038   1.868
11883W        W81764  15.210  39.438  10.892
11884W        W81765   5.230  24.508   1.343
11885W        W81766  39.994  12.655   3.803
11886W        W81767  33.609  28.103   3.149
11887W        W81768   4.873   5.753   3.723
11888W        W81769  37.452  18.716   2.212
11889W        W81770  41.457  10.669  10.459
11890W        W81771   3.737  36.593  10.985
11891W        W81772  13.225  37.996   0.259
11892W        W81773  10.241  42.293   1.811
11893W        W81774   7.353  35.071  12.864
11894W        W81775  35.569  31.491  11.967
11895W        W81776  30.122  30.152  11.474
11896W        W81777  44.396  34.611  12.901
11897W        W81778  36.592  42.281  12.560
11898W        W81779   0.786  12.839   4.288
11899W        W81780  25.199  24.003   4.146
11900W        W81781  12.612   6.195  12.067
11901W        W81782  35.417   0.771   2.686
11902W        W81783   8.322   7.352  11.098
11903W        W81784  22.247  14.701  11.087
11904W        W81785  22.624   9.244  11.928
11905W        W81786   8.404  37.053  12.513
11906W        W81787  39.336  43.509  13.973
11907W        W81788  14.219  42.317  14.885
11908W        W81789  16.298  20.047  14.489
11909W        W81790  34.591   8.183  14.507
11910W        W81791   5.842  42.989  14.444
11911W        W81792  22.689   4.233  14.008
11912W        W81793  41.043   8.224  10.592
11913W        W81794  27.088  40.356  11.054
11914W        W81795  26.096  24.522   2.791
11915W        W81796  19.688  34.039   3.308
11916W        W81797  38.002  23.690  12.534
11917W        W81798  32.593  16.207   2.858
11918W        W81799  18.587  39.471   4.615
11919W        W81800   8.167   6.695   2.268
11920W        W81801  11.758   7.791   3.380
11921W        W81802  14.698  21.084  12.466
11922W        W81803  36.551   8.885   0.883
11923W        W81804   6.735  31.572  12.996
11924W        W81805  15.265  11.137   2.826
11925W        W81806  42.322  42.380   3.320
11926W        W81807  21.634  22.561   1.247
11927W        W81808   1.759   4.299   4.173
11928W        W81809  36.047  24.188   2.807
11929W        W81810  18.218  27.518   5.121
11930W        W81811   5.413  25.174  10.601
11931W        W81812  20.174  41.822   1.231
11932W        W81813  13.716  36.381  10.045
11933W        W81814  22.201  39.063   0.813
11934W        W81815  38.520  35.069  10.928
11935W        W81816   6.182  23.037   0.363
11936W        W81817   3.263  37.378  12.930
11937W        W81818  37.849  27.022   3.374
11938W        W81819   2.780  35.102  11.443
11939W        W81820   2.374  30.929   2.809
11940W        W81821  12.639  42.915  11.472
11941W        W81822  32.407  22.050   1.287
11942W        W81823  29.988  40.002  14.933
11943W        W81824  36.405  30.472   2.776
11944W        W81825  37.484  11.831   1.765
11945W        W81826  27.462  10.222   0.913
11946W        W81827   6.920  15.742  12.440
11947W        W81828   2.268  37.844   2.893
11948W        W81829  12.744   2.460   2.744
11949W        W81830  36.502  20.109   1.248
11950W        W81831  17.586  32.959   4.204
11951W        W81832  10.330  10.784  10.515
11952W        W81833   1.790  33.483  10.038
11953W        W81834  25.500  16.224  12.870
11954W        W81835  26.695  41.945  11.429
11955W        W81836  12.633  25.650   1.338
11956W        W81837  42.963  43.471   3.665
11957W        W81838   7.301   5.285  14.326
11958W        W81839  18.744   6.234  12.855
11959W        W81840  18.559   8.674   4.191
11960W        W81841  37.845  18.110   1.854
11961W        W81842   9.697  17.195   3.698
11962W        W81843  27.450  29.062   3.293
11963W        W81844  10.781  28.545   5.623
11964W        W81845  27.194   7.816   1.226
11965W        W81846   8.164  10.668   0.895
11966W        W81847  13.698   6.688  11.893
11967W        W81848  40.500  31.581  11.931
11968W        W81849  10.212  29.028   2.385
11969W        W81850   2.818   7.804  11.913
11970W        W81851  23.659  15.118  11.110
11971W        W81852   9.324   4.416   0.400
11972W        W81853  32.037  40.924  11.116
11973W        W81854  10.300  32.441   1.866
11974W        W81855  32.019  17.182   0.424
11975W        W81856  25.471  10.858   3.733
11976W        W81857   2.330  38.444  11.896
11977W        W81858   0.275  35.969  13.926
11978W        W81859  11.782   4.425   0.833
11979W        W81860  21.196   9.330   4.230
11980W        W81861   4.224  40.518   1.721
11981W        W81862  12.256  16.235   9.962
11982W        W81863  16.588  35.573   0.246
11983W        W81864  43.008  23.088  14.342
11984W        W81865   9.723   4.935  13.447
11985W        W81866  16.307  22.734   0.739
11986W        W81867  11.642   0.782   3.355
11987W        W81868  20.700  32.082   1.376
11988W        W81869  28.016   4.911  14.874
11989W        W81870  38.571  43.790   4.311
11990W        W81871   4.343  38.502  11.574
11991W        W81872  20.560  14.112   0.432
11992W        W81873  17.125   2.419  13.422
11993W        W81874  31.984  25.178   3.722
11994W        W81875  12.668   8.356  10.585
11995W        W81876  11.254  19.228   3.207
11996W        W81877  41.909  15.814  14.760
11997W        W81878  38.983  22.068   1.362
11998W        W81879  18.555  24.208   0.885
11999W        W81880  18.652   3.268  10.969
12000W        W81881  41.325   3.422  14.028
12001W        W81882  25.018   5.887  14.768
12002W        W81883  20.085  30.540   2.857
12003W        W81884  11.832  27.471  14.027
12004W        W81885  24.608  32.471   1.778
12005W        W81886  22.051  15.088  13.832
12006W        W81887  33.897  23.161   3.362
12007W        W81888  32.126  33.088   3.859
12008W        W81889   6.755  12.650   3.166
12009W        W81890  12.155   6.777   0.785
12010W        W81891  19.545  27.021   0.755
12011W        W81892   1.302   9.704   3.793
12012W        W81893  43.341   0.945  13.848
12013W        W81894  21.209  14.828   3.829
12014W        W81895   4.842  28.933   1.415
12015W        W81896  44.330  32.911  14.293
12016W        W81897  23.701  17.200   9.965
12017W        W81898  16.805  35.555  10.949
12018W        W81899  13.766   6.824  10.510
12019W        W81900  28.553   0.788  11.866
12020W        W81901  20.673  26.481  13.505
12021W        W81902   6.849  26.628   4.126
12022W        W81903   6.823  28.447  11.998
12023W        W81904  30.998  12.736  12.438
12024W        W81905   8.832  25.999  10.601
12025W        W81906  32.909   1.437  13.979
12026W        W81907  40.018   8.168   0.324
12027W        W81908   9.765  19.603   4.716
12028W        W81909  11.201  17.685  12.861
12029W        W81910  34.913   5.314  10.614
12030W        W81911  30.441  12.196  13.481
12031W        W81912  29.980  20.246   1.739
12032W        W81913  38.389  24.091   4.117
12033W        W81914   6.813  24.192   2.767
12034W        W81915  20.641   0.829   5.182
12035W        W81916   3.289   5.240   4.633
12036W        W81917  17.128  25.219  14.005
12037W        W81918  20.089   8.284  10.584
12038W        W81919  23.625  22.739  14.318
12039W        W81920  28.456  25.651  10.641
12040W        W81921   3.236  20.719  12.860
12041W        W81922  32.051   4.379  14.302
12042W        W81923  14.276  11.342  13.015
12043W        W81924  38.493   1.362  13.352
12044W        W81925  29.496  32.965  11.879
12045W        W81926  26.560   4.845   1.745
12046W        W81927  29.670  31.435   3.156
12047W        W81928  12.750   6.371   0.323
12048W        W81929  40.537  32.955  11.942
12049W        W81930  15.242  31.938   0.770
12050W        W81931  43.311  16.624  13.027
12051W        W81932   2.460   7.352   3.236
12052W        W81933  27.571   4.782  12.364
12053W        W81934   0.368  14.773  11.080
12054W        W81935  16.658  11.289   4.658
12055W        W81936   9.810  13.832   1.312
12056W        W81937  29.960  14.160   3.688
12057W        W81938   1.344  11.815  13.948
12058W        W81939  26.490  30.043  13.492
12059W        W81940   1.906  13.817   2.307
12060W        W81941   5.699  18.597   0.906
12061W        W81942   1.381  19.116   0.264
12062W        W81943   9.708  14.637  12.435
12063W        W81944  43.874  17.643  11.570
12064W        W81945  21.639  42.026  13.882
12065W        W81946  38.930   8.308  12.531
12066W        W81947  40.908  37.439  13.318
12067W        W81948  28.946  29.095   1.756
12068W        W81949  36.941  26.466  14.952
12069W        W81950  39.447  33.413  11.435
12070W        W81951  30.488  39.510   3.218
12071W        W81952  32.470  11.332   0.962
12072W        W81953   7.676  19.066   4.140
12073W        W81954  17.664  13.282   0.289
12074W        W81955  19.174  38.569   1.412
12075W        W81956  20.735  12.839   1.415
12076W        W81957   1.353   5.834  10.991
12077W        W81958   9.150  12.835   0.275
12078W        W81959   4.298  23.626  12.915
12079W        W81960  23.500  30.153  12.418
12080W        W81961  19.705  42.391   4.824
12081W        W81962  17.579  11.768  13.810
12082W        W81963   0.742  10.639   0.367
12083W        W81964   1.959   0.282  12.048
12084W        W81965   3.925  21.675   1.214
12085W        W81966  11.319  37.357  14.389
12086W        W81967  31.106  15.774  10.468
12087W        W81968  16.164  27.040  11.051
12088W        W81969  34.107  35.364  13.908
12089W        W81970  33.019  22.672   2.417
12090W        W81971  30.153   5.305  10.895
12091W        W81972  27.622  20.667   0.320
12092W        W81973  43.885  29.608   0.762
12093W        W81974  36.897   3.355   4.750
12094W        W81975  26.524   8.768  11.484
12095W        W81976  17.273  12.693   2.740
12096W        W81977  18.611  31.585  12.097
12097W        W81978  19.069  20.685  14.450
12098W        W81979  23.505   2.415   0.875
12099W        W81980  15.808   0.897  10.495
12100W        W81981  17.181  18.619   2.776
12101W        W81982  44.773  21.052   5.203
12102W        W81983  38.847  37.069  12.368
12103W        W81984   7.767  10.667  10.932
12104W        W81985   7.411  13.604   3.767
12105W        W81986   9.310   3.312  14.502
12106W        W81987  27.963  11.366   4.208
12107W        W81988   5.930  16.756  11.577
12108W        W81989  19.142   6.777  11.497
12109W        W81990  13.746  40.481   2.411
12110W        W81991  35.941  31.916   2.845
12111W        W81992  28.955   7.755   4.220
12112W        W81993  43.916  35.014  11.545
12113W        W81994  10.149  44.816   2.669
12114W        W81995  16.807  33.906   4.135
12115W        W81996  28.954  13.316   4.155
12116W        W81997  11.370  40.808  13.866
12117W        W81998   7.756  41.450   1.828
12118W        W81999  11.811  35.395  13.507
12119W        W82000  13.644  32.572  13.432
12120W        W82001  13.203  21.048   0.384
12121W        W82002  20.526  17.209  14.457
12122W        W82003  25.592  37.436  10.640
12123W        W82004   7.241  21.103  14.315
12124W        W82005  30.579  21.612  11.440
12125W        W82006  31.615  22.611   1.262
12126W        W82007  10.371   2.903   4.734
12127W        W82008  35.446  35.864   3.368
12128W        W82009  12.289   6.778  11.539
12129W        W82010  34.435  31.535  10.449
12130W        W82011  14.740  25.576   4.117
12131W        W82012  22.645  19.250   3.251
12132W        W82013   4.351  17.220  10.564
12133W        W82014  12.235  20.686  13.891
12134W        W82015  38.860  14.094  10.022
12135W        W82016   6.358  43.275   2.719
12136W        W82017  38.441  26.186   1.840
12137W        W82018  34.569  26.531  13.541
12138W        W82019  13.180   3.869   4.180
12139W        W82020  19.178  15.300  10.492
12140W        W82021  36.047  41.417   2.298
12141W        W82022  21.605  18.283   2.369
12142W        W82023  36.449  17.256  12.540
12143W        W82024  15.201  16.618  13.384
12144W        W82025  39.854   1.953  14.782
12145W        W82026  10.788  16.307  13.395
12146W        W82027  14.273  32.568  10.538
12147W        W82028   6.242  40.321  11.590
12148W        W82029   5.893  17.796  12.564
12149W        W82030  14.172  41.813   3.705
12150W        W82031  18.689  37.512   4.767
12151W        W82032  25.510   3.927   1.319
12152W        W82033  36.856  37.452   3.786
12153W        W82034  25.179  12.710  13.505
12154W        W82035  35.056  26.574   2.183
12155W        W82036   7.326  30.154  11.052
12156W        W82037  21.626  16.144   2.360
12157W        W82038  44.435  16.211   2.857
12158W        W82039  38.446  19.045  11.073
12159W        W82040   0.953  34.960  10.920
12160W        W82041  18.702  23.065  14.378
12161W        W82042  24.646  12.725  13.854
12162W        W82043   6.757   1.881   0.413
12163W        W82044  33.125   1.431  12.407
12164W        W82045   5.427  39.017  11.875
12165W        W82046  20.109  33.425  12.872
12166W        W82047  26.463  37.838  10.903
12167W        W82048  25.583  20.763   3.288
12168W        W82049  39.925  32.507  13.339
12169W        W82050  15.293  28.679  11.911
12170W        W82051   5.269  11.745   2.398
12171W        W82052  41.865  21.608  11.057
12172W        W82053  14.700   7.875   2.356
12173W        W82054   7.372  36.958  14.814
12174W        W82055  28.603  35.585   1.730
12175W        W82056  24.984  40.527   0.796
12176W        W82057  11.811  38.538   4.738
12177W        W82058  36.398   2.350  13.374
12178W        W82059   4.796   0.756   4.723
12179W        W82060  11.218  19.100  10.441
12180W        W82061   4.815   7.400   4.297
12181W        W82062  34.395  33.429   2.751
12182W        W82063  17.181   5.421   0.946
12183W        W82064  41.015  28.661   0.763
12184W        W82065  22.175  43.398  11.559
12185W        W82066   0.849   8.852  10.641
12186W        W82067   7.238   3.390  14.987
12187W        W82068   7.798  43.458   0.406
12188W        W82069  24.554  10.658  10.474
12189W        W82070  27.190  42.911  10.458
12190W        W82071  28.593  19.535   1.813
12191W        W82072  12.616  43.880  12.465
12192W        W82073  16.753  31.101  12.868
12193W        W82074   8.681   0.301   2.827
12194W        W82075  23.515  37.069   2.222
12195W        W82076  11.179  36.047  12.080
12196W        W82077  10.302   9.186   2.366
12197W        W82078   7.367  34.056   1.698
12198W        W82079   4.810   3.813   0.436
12199W        W82080  42.476  29.494   2.235
12200W        W82081  27.090  24.117  13.034
12201W        W82082  31.610  35.503  12.007
12202W        W82083  31.449   4.418   3.223
12203W        W82084  16.240  14.642  11.107
12204W        W82085  14.637   2.255  13.063
12205W        W82086  33.106   7.760  14.953
12206W        W82087  15.735  43.462   1.321
12207W        W82088  35.038  33.030  14.874
12208W        W82089   0.269  11.212   0.477
12209W        W82090   9.668   3.886   0.759
12210W        W82091  18.084   8.679  13.863
12211W        W82092  43.306   2.920   3.164
12212W        W82093  19.198  23.029  14.836
12213W        W82094  17.259  21.663  12.054
12214W        W82095  25.038   6.742  13.821
12215W        W82096  42.003  41.319   3.772
12216W        W82097   9.382  32.123  12.560
12217W        W82098  43.485  12.185   2.734
12218W        W82099  13.703  19.136   0.347
12219W        W82100  10.180   0.268  10.059
12220W        W82101  30.944  28.447   0.946
12221W        W82102  25.623   7.230   3.722
12222W        W82103  24.686  32.517   2.235
12223W        W82104  13.117  39.407   1.747
12224W        W82105  25.682  42.466   2.884
12225W        W82106   9.674   9.679  10.623
12226W        W82107  26.193  27.025  14.914
12227W        W82108  14.778  29.038   0.398
12228W        W82109  14.222  20.569  11.061
12229W        W82110  23.628  35.983  14.967
12230W        W82111  35.012  14.102   2.680
12231W        W82112  30.038  44.975   1.249
12232W        W82113  36.473  44.338  12.834
12233W        W82114   9.188  40.471   1.224
12234W        W82115  29.452  11.348  10.978
12235W        W82116  20.703  32.080  14.010
12236W        W82117   5.704  42.301  10.562
12237W        W82118  29.064   4.224  11.440
12238W        W82119  26.587  44.834  12.399
12239W        W82120  29.467  14.149  10.146
12240W        W82121   4.785   2.743  11.973
12241W        W82122  16.761  19.650   1.246
12242W        W82123   7.411   7.852   1.274
12243W        W82124  35.425  22.157   3.212
12244W        W82125  18.136  27.589  10.964
12245W        W82126  28.619  27.009   2.682
12246W        W82127  31.927  22.633  12.843
12247W        W82128  44.417  16.157  14.479
12248W        W82129   2.446   8.399   3.871
12249W        W82130  14.163  32.002  14.312
12250W        W82131  38.057  20.252   0.251
12251W        W82132  32.609  10.172   1.278
12252W        W82133   6.292   7.887   3.669
12253W        W82134  16.800  32.483   4.267
12254W        W82135  43.455  22.014  13.389
12255W        W82136  40.905  12.155   0.775
12256W        W82137  38.072  21.541  12.472
12257W        W82138   7.348  36.881   1.426
12258W        W82139  18.617  36.919  11.910
12259W        W82140  33.900  36.084   3.860
12260W        W82141  27.685  22.068  14.805
12261W        W82142  17.623  34.497  12.985
12262W        W82143  43.866  42.429   2.883
12263W        W82144  33.471  20.053  11.053
12264W        W82145  11.719  26.951  11.422
12265W        W82146  14.109  13.701  11.887
12266W        W82147   6.359   2.759  10.505
12267W        W82148  13.608  36.043  14.405
12268W        W82149  17.149  13.705  11.390
12269W        W82150   9.676  25.981  11.484
12270W        W82151  36.403  24.150  10.502
12271W        W82152  42.483  34.594   1.399
12272W        W82153  22.070  43.408   3.256
12273W        W82154   0.891  29.563  11.953
12274W        W82155   0.972  23.184   4.646
12275W        W82156  26.118  39.993  13.396
12276W        W82157   1.786  16.627   2.366
12277W        W82158  16.188   8.178  14.820
12278W        W82159  14.749  17.759   3.632
12279W        W82160  30.514   8.317   2.305
12280W        W82161  44.346  14.321   3.252
12281W        W82162   5.424  35.396   2.722
12282W        W82163  25.990  23.065   0.833
12283W        W82164  10.324  41.480  14.504
12284W        W82165  33.892   5.390  12.424
12285W        W82166  21.196  20.164  14.877
12286W        W82167  14.287  33.023   4.274
12287W        W82168  42.462  13.612   2.287
12288W        W82169  23.100  40.007   1.257
12289W        W82170  27.543  43.801   2.178
12290W        W82171  28.503   0.845  12.890
12291W        W82172   0.248  44.786  11.554
12292W        W82173  43.485   3.365  12.513
12293W        W82174  29.972  42.803   2.220
12294W        W82175   6.871   2.966  12.020
12295W        W82176   5.308  33.414  14.897
12296W        W82177  34.514  29.017  14.893
12297W        W82178  38.350  33.389  10.565
12298W        W82179  26.675  24.195   3.308
12299W        W82180  42.984  18.185   3.374
12300W        W82181   1.268  36.479  12.025
12301W        W82182  28.010  20.086  12.354
12302W        W82183  35.870   5.276  11.590
12303W        W82184   9.836   4.762  11.104
12304W        W82185  29.466  42.374  13.433
12305W        W82186  25.600  44.917  14.820
12306W        W82187  32.562  16.672   4.282
12307W        W82188   3.273  23.143  14.950
12308W        W82189   5.704  22.710  10.472
12309W        W82190   4.391  28.674  11.568
12310W        W82191  28.969  16.238   0.376
12311W        W82192  44.854  42.410   3.652
12312W        W82193  15.106  25.111   2.179
12313W        W82194  16.606  32.623  13.986
12314W        W82195   3.448  38.961   0.755
12315W        W82196  15.581  22.603   4.698
12316W        W82197  35.923  20.254   4.754
12317W        W82198  27.166  39.038   1.440
12318W        W82199   5.316  17.638  14.893
12319W        W82200  25.087  28.457  12.348
12320W        W82201   5.322  12.791   4.682
12321W        W82202  24.699  17.139   3.844
12322W        W82203  41.473  43.800  11.598
12323W        W82204  16.120  27.069   3.345
12324W        W82205  36.369  16.129   3.321
12325W        W82206   0.912  28.577   1.753
12326W        W82207  20.035  25.520  14.790
12327W        W82208  27.069   7.718   3.151
12328W        W82209  20.064  24.973   0.312
12329W        W82210   7.257   5.742   3.199
12330W        W82211   6.208  38.870   1.291
12331W        W82212  14.690   2.312   1.328
12332W        W82213  43.866  35.581   4.766
12333W        W82214  14.608  26.597   2.372
12334W        W82215  31.031  34.437   9.927
12335W        W82216  30.042   2.947  12.566
12336W        W82217  27.182  23.690   4.770
12337W        W82218  27.054  18.635  12.474
12338W        W82219  23.593  42.904  11.112
12339W        W82220  22.727  21.723  10.901
12340W        W82221   1.932  19.547  12.472
12341W        W82222  38.527  37.561   0.365
12342W        W82223  15.784  33.406  12.014
12343W        W82224  32.626  34.514   3.270
12344W        W82225   0.439  20.615  10.591
12345W        W82226  20.702  40.503  14.030
12346W        W82227  34.956  35.413  14.442
12347W        W82228  39.413  11.239   0.311
12348W        W82229  23.136   5.243   2.836
12349W        W82230  37.038  15.159   4.655
12350W        W82231  37.490   3.351  12.957
12351W        W82232  35.433  13.642   3.648
12352W        W82233  40.046  16.285  10.545
12353W        W82234  22.025  34.454  13.915
12354W        W82235  27.678  17.718   4.118
12355W        W82236  19.204  31.411  14.491
12356W        W82237  42.403  39.351  11.069
12357W        W82238  35.487  12.177   1.732
12358W        W82239   0.883  42.419   1.770
12359W        W82240  36.929   1.739  13.972
12360W        W82241  22.741  37.406  12.520
12361W        W82242  36.004  14.109   1.442
12362W        W82243  14.328   1.355   1.227
12363W        W82244  41.971   7.831  11.911
12364W        W82245  22.027  30.929  14.811
12365W        W82246  12.164  33.611   1.338
12366W        W82247  28.072  34.436  10.110
12367W        W82248  10.202  44.768  12.540
12368W        W82249  37.989  27.656   1.306
12369W        W82250   2.889  16.150   0.310
12370W        W82251   8.242  16.735  10.597
12371W        W82252  41.498  33.058  13.398
12372W        W82253  25.091   3.361   4.748
12373W        W82254  39.404  36.356   1.820
12374W        W82255   0.891  32.572   0.454
12375W        W82256  29.470  21.582  10.541
12376W        W82257  11.134  21.670  11.077
12377W        W82258  15.697  21.113  11.978
12378W        W82259  29.562  31.458  13.348
12379W        W82260   8.258   7.815  10.492
12380W        W82261  20.252  36.099  13.893
12381W        W82262  11.319  32.590   4.149
12382W        W82263   2.349   1.347  11.971
12383W        W82264  15.289  24.108   1.402
12384W        W82265  15.179  10.377  14.856
12385W        W82266  30.105  39.537  11.597
12386W        W82267  41.466  20.089  11.954
12387W        W82268   9.749  14.303  12.977
12388W        W82269  14.819  10.828  13.474
12389W        W82270  31.120  23.158  13.371
12390W        W82271  22.060  23.621   1.706
12391W        W82272  23.679  23.092   4.634
12392W        W82273  37.900  30.099   0.894
12393W        W82274   0.952  37.074  11.535
12394W        W82275  43.827  33.527  10.113
12395W        W82276   8.257   3.817  13.971
12396W        W82277   4.234  16.137  10.936
12397W        W82278  30.584  29.644  11.902
12398W        W82279  10.221   5.228   3.343
12399W        W82280  44.840   2.342  14.947
12400W        W82281  16.165  42.408   3.193
12401W        W82282  36.999  28.056  14.450
12402W        W82283   8.297  10.699  11.966
12403W        W82284  37.348  22.212   2.721
12404W        W82285  38.506   1.805   3.181
12405W        W82286  38.061  30.078  12.896
12406W        W82287  26.695  30.559  13.428
12407W        W82288  12.302  24.130   2.288
12408W        W82289  13.229  38.960   4.608
12409W        W82290   1.468  21.191  13.923
12410W        W82291  23.100   7.196  13.862
12411W        W82292  14.776  31.495  12.031
12412W        W82293  27.041   9.740  12.380
12413W        W82294  25.553  27.578   3.664
12414W        W82295  41.300  20.066  13.322
12415W        W82296   8.658  23.188   0.455
12416W        W82297  38.070  42.398   1.819
12417W        W82298  33.884  33.099   2.772
12418W        W82299  21.689  28.505   1.235
12419W        W82300  32.971  42.023  13.851
12420W        W82301   1.915  40.460   2.713
12421W        W82302  29.932  18.663  14.369
12422W        W82303  28.159  42.389  12.903
12423W        W82304   1.401  43.775  11.485
12424W        W82305   6.284  11.163  12.516
12425W        W82306  21.709   0.825   4.340
12426W        W82307  10.289  17.652   4.125
12427W        W82308   1.930  10.753   0.789
12428W        W82309  10.146   3.727   4.606
12429W        W82310  15.755  32.489  11.957
12430W        W82311   6.839  17.725   0.786
12431W        W82312  34.110  23.619  14.975
12432W        W82313  16.220   4.865  14.910
12433W        W82314  23.687  31.029   4.193
12434W        W82315   0.818  39.026   2.815
12435W        W82316  13.330  41.391   0.466
12436W        W82317   4.218   3.837   0.803
12437W        W82318   4.229  15.194  14.807
12438W        W82319  14.154   7.272  11.439
12439W        W82320  24.094  44.818   4.804
12440W        W82321  30.023   4.944   2.239
12441W        W82322  43.013   4.425  10.532
12442W        W82323   8.300  19.684  14.448
12443W        W82324   9.645  14.120   2.353
12444W        W82325   7.352  38.399  11.055
12445W        W82326  30.563  31.621   4.196
12446W        W82327  14.185  35.364  11.117
12447W        W82328  21.525   6.729   2.264
12448W        W82329  25.170  12.665  10.467
12449W        W82330  36.944  39.405   1.447
12450W        W82331   6.183  12.348   4.292
12451W        W82332  19.087   9.747   3.364
12452W        W82333   3.830  33.980   4.620
12453W        W82334  22.217  44.459   1.414
12454W        W82335  17.220  22.729  11.536
12455W        W82336  27.040  29.988  10.525
12456W        W82337   1.922  36.084   2.718
12457W        W82338  12.301  22.112  11.963
12458W        W82339  24.987  24.528  11.526
12459W        W82340   4.776  44.271   5.248
12460W        W82341  16.701  12.224   4.666
12461W        W82342  19.247   3.256   4.606
12462W        W82343  21.594  44.973  14.470
12463W        W82344  21.591  43.875  14.415
12464W        W82345  34.969  36.017  13.942
12465W        W82346  34.069  25.003  11.601
12466W        W82347  35.360  39.889   4.287
12467W        W82348  23.702  43.491  12.437
12468W        W82349  21.672  11.768   0.376
12469W        W82350  27.160  39.918  14.945
12470W        W82351  24.203  16.270  13.477
12471W        W82352  30.154  19.191  12.572
12472W        W82353  39.395  26.626  10.429
12473W        W82354  17.705  30.100  10.956
12474W        W82355   2.351  25.192  10.424
12475W        W82356   1.310  34.457  14.418
12476W        W82357   7.691   4.892  14.851
12477W        W82358  10.775  16.744   2.416
12478W        W82359  21.747  36.957   1.411
12479W        W82360  17.078  41.946   1.216
12480W        W82361  14.738  38.940   1.259
12481W        W82362  30.917  14.221  13.040
12482W        W82363  27.987  13.830  11.031
12483W        W82364  24.042  13.817  13.313
12484W        W82365  32.139  42.838   4.638
12485W        W82366  25.185  38.353   4.750
12486W        W82367  40.997  32.947  14.780
12487W        W82368  35.483  15.254   4.166
12488W        W82369  24.052  40.388  12.462
12489W        W82370  12.716  26.547  14.411
12490W        W82371   7.859  33.481   0.840
12491W        W82372  26.667  39.354   1.934
12492W        W82373   1.250  35.501  12.906
12493W        W82374  10.774   8.374   4.308
12494W        W82375  40.517  13.732  12.396
12495W        W82376  38.942  34.018   0.427
12496W        W82377   4.387  39.545  14.833
12497W        W82378  12.691  23.638   3.820
12498W        W82379  14.308  37.547   2.232
12499W        W82380  16.768  12.814  14.397
12500W        W82381  40.798  32.996  10.976
12501W        W82382  22.539  25.651   2.760
12502W        W82383  35.598   0.300  10.541
12503W        W82384  35.984  37.556  14.476
12504W        W82385   7.356  28.572  13.476
12505W        W82386  17.665  18.568  12.433
12506W        W82387   7.326  15.654  10.415
12507W        W82388  38.869   1.871  11.987
12508W        W82389  10.863  25.495  11.056
12509W        W82390  12.776  44.404   3.266
12510W        W82391  29.925  20.161   1.328
12511W        W82392  31.019  26.123   0.813
12512W        W82393  20.135  23.689  13.794
12513W        W82394  21.604  42.496   4.172
12514W        W82395  11.350  13.778   4.334
12515W        W82396  26.556   6.305   1.232
12516W        W82397   2.369   3.227  11.962
12517W        W82398   3.934  35.579  11.942
12518W        W82399  22.014   7.758  14.340
12519W        W82400  24.516   9.300   0.732
12520W        W82401   5.708  35.105   0.310
12521W        W82402   7.414  10.141   4.209
12522W        W82403  35.589  38.966  12.464
12523W        W82404  29.063  24.088   0.824
12524W        W82405  44.925  21.538   1.861
12525W        W82406   6.887  30.599  11.016
12526W        W82407  12.637  12.712  14.004
12527W        W82408  20.542  20.198   1.299
12528W        W82409  14.679  12.278   0.322
12529W        W82410  38.936   4.253  13.978
12530W        W82411  14.215  30.647   3.303
12531W        W82412  22.212  40.412  11.598
12532W        W82413  44.423  35.066  11.545
12533W        W82414   8.315  15.788  11.013
12534W        W82415  31.011   4.877  11.932
12535W        W82416  37.462  22.610  11.885
12536W        W82417  21.660   4.711   2.819
12537W        W82418  36.076  43.509  14.961
12538W        W82419  37.049  14.249  12.030
12539W        W82420   4.413  41.462   0.763
12540W        W82421  42.421  43.507   0.476
12541W        W82422  38.820  26.070   3.309
12542W        W82423  22.627  39.000  13.006
12543W        W82424   9.351  37.067  13.877
12544W        W82425  28.032  17.573  11.996
12545W        W82426  35.501  29.170  10.952
12546W        W82427  13.818  20.640   0.429
12547W        W82428  35.999  39.993   0.738
12548W        W82429  25.498  16.808  12.857
12549W        W82430  24.162  30.565   0.283
12550W        W82431  26.566   2.775   0.920
12551W        W82432  15.683  44.457   5.206
12552W        W82433   7.714  23.611  11.926
12553W        W82434  22.581  15.637  13.839
12554W        W82435   7.765   7.870   0.464
12555W        W82436   9.656   1.968  11.906
12556W        W82437  17.185  31.511  12.445
12557W        W82438  25.584  30.929  11.475
12558W        W82439   7.187  40.840   4.297
12559W        W82440  35.548  37.844  11.479
12560W        W82441  30.084   1.975  11.076
12561W        W82442  35.501  17.586  11.515
12562W        W82443  16.701  39.829  11.065
12563W        W82444  22.538  12.137   0.864
12564W        W82445  43.507  32.467  12.571
12565W        W82446  24.225   5.221   0.362
12566W        W82447  14.219   2.337  11.505
12567W        W82448  43.771  39.367   3.715
12568W        W82449  23.653  23.490  13.471
12569W        W82450  26.098  28.531   3.732
12570W        W82451  38.567  43.400   2.771
12571W        W82452  32.614  32.483   4.624
12572W        W82453  35.981   8.839   3.844
12573W        W82454  25.005  38.547  11.403
12574W        W82455  17.081  41.848  12.003
12575W        W82456  25.136  39.889   2.198
12576W        W82457  37.558  14.143  14.993
12577W        W82458  29.115  20.551  11.015
12578W        W82459  32.437  43.820   2.701
12579W        W82460  13.840  35.908  12.501
12580W        W82461  36.999  33.459   3.716
12581W        W82462  27.536  21.729   4.639
12582W        W82463   9.704  17.659   0.968
12583W        W82464  32.603   7.175  14.989
12584W        W82465  16.102  44.974   2.356
12585W        W82466  10.647  24.109   2.179
12586W        W82467  12.831   3.830   1.304
12587W        W82468   1.747  44.292  11.093
12588W        W82469  26.473  30.040   4.153
12589W        W82470   7.667  18.081  12.549
12590W        W82471  31.127  26.055  10.511
12591W        W82472  34.952  43.434   4.714
12592W        W82473  30.643  15.153  14.347
12593W        W82474  10.306  37.528  11.504
12594W        W82475  39.022  37.542  12.887
12595W        W82476  17.772  25.163   2.191
12596W        W82477  37.889  43.351  10.582
12597W        W82478  41.804  42.830   3.698
12598W        W82479  28.630  10.760  10.644
12599W        W82480  24.719  11.238  13.026
12600W        W82481  43.876  39.316  12.912
12601W        W82482  22.184   6.321  11.911
12602W        W82483  14.279  44.868   3.338
12603W        W82484   5.208  42.423  10.471
12604W        W82485   5.745   4.833   2.857
12605W        W82486  19.718  25.136  11.459
12606W        W82487  28.644   3.282   0.946
12607W        W82488   5.924  33.983   0.961
12608W        W82489  28.174  28.502  14.023
12609W        W82490  26.984  21.602  13.927
12610W        W82491  10.357   6.887  11.418
12611W        W82492  14.726  34.914   2.724
12612W        W82493  11.656  17.254   3.867
12613W        W82494  34.401  31.968  14.031
12614W        W82495  25.041  39.843   0.339
12615W        W82496  42.837  39.887   1.814
12616W        W82497  23.148  39.895  13.942
12617W        W82498  31.983  19.170  14.323
12618W        W82499  37.906  38.438  12.434
12619W        W82500   2.457  14.734  11.502
12620W        W82501   5.308   5.703  12.569
12621W        W82502   3.334   1.248  13.869
12622W        W82503  31.635  33.087   4.711
12623W        W82504  23.557   5.744  12.499
12624W        W82505  26.484  34.019  11.526
12625W        W82506  28.019  18.591  12.520
12626W        W82507  11.785   2.238   1.737
12627W        W82508   5.196  35.427   3.316
12628W        W82509   1.825  28.463  11.917
12629W        W82510  22.658  25.699   2.375
12630W        W82511   1.785   9.771  12.554
12631W        W82512  30.481  11.638   5.277
12632W        W82513   9.725  35.986  14.282
12633W        W82514   5.846   4.338  11.390
12634W        W82515   3.779  12.309  12.498
12635W        W82516  41.946  37.990  12.031
12636W        W82517  44.390  27.646   2.285
12637W        W82518  22.060   1.306  14.001
12638W        W82519  37.973  35.030  10.894
12639W        W82520   1.738  30.921  11.424
12640W        W82521  44.009  31.502  12.846
12641W        W82522  20.707   1.959  13.311
12642W        W82523  22.604  32.094  10.929
12643W        W82524  21.596  18.732  11.887
12644W        W82525   9.205  38.027   1.284
12645W        W82526  28.653  43.994   1.343
12646W        W82527   7.807  17.148  14.971
12647W        W82528  31.076  37.877  11.584
12648W        W82529  14.238  26.520   0.923
12649W        W82530   1.844  23.183   1.864
12650W        W82531  39.407   7.264   4.311
12651W        W82532  22.187  18.185  11.986
12652W        W82533   2.953  32.993   4.300
12653W        W82534  14.733  30.572   0.327
12654W        W82535  19.655  16.157  14.856
12655W        W82536  20.735  28.938  14.305
12656W        W82537  19.093  34.116  10.427
12657W        W82538  20.703  31.947   3.708
12658W        W82539  30.650   1.740  11.867
12659W        W82540  37.475  35.487   2.689
12660W        W82541  11.353  20.612  13.048
12661W        W82542  11.149  23.581   1.222
12662W        W82543  11.676  10.693   1.843
12663W        W82544  12.346  13.210   2.888
12664W        W82545   5.749  20.258   0.368
12665W        W82546  16.621  17.302  14.363
12666W        W82547  10.140   3.795  13.870
12667W        W82548  42.387  39.976   2.271
12668W        W82549  44.982  26.191   4.118
12669W        W82550   0.763   3.774  14.393
12670W        W82551   5.283  26.478   0.340
12671W        W82552  15.241  29.550   0.304
12672W        W82553  28.011   1.456   4.183
12673W        W82554  39.449  40.389   1.350
12674W        W82555  36.029   7.809  12.835
12675W        W82556  37.975  15.765   2.228
12676W        W82557  18.072  42.033  10.922
12677W        W82558  28.436  41.015  14.346
12678W        W82559   7.792  28.540  13.905
12679W        W82560  16.715  14.156   1.432
12680W        W82561  23.230  23.528   2.690
12681W        W82562  18.548  36.519   1.390
12682W        W82563   2.948  16.631  13.932
12683W        W82564  35.402   8.888  14.299
12684W        W82565  12.140  24.657   4.718
12685W        W82566  13.735  18.117  14.433
12686W        W82567  20.171  41.944   3.339
12687W        W82568   3.327  44.790   1.771
12688W        W82569  42.924  42.490  11.026
12689W        W82570  23.141   2.740   2.748
12690W        W82571  37.578   0.855  12.023
12691W        W82572  11.776  26.672   2.264
12692W        W82573  29.985   9.692  12.529
12693W        W82574  26.585  18.192   1.451
12694W        W82575  11.682  21.155  10.136
12695W        W82576  44.810  21.677  14.763
12696W        W82577   8.805   9.798  11.589
12697W        W82578  41.929  15.638  13.366
12698W        W82579  22.233  25.625  12.497
12699W        W82580  13.263  21.732  12.026
12700W        W82581  13.305   6.254   2.676
12701W        W82582   1.790  18.686   1.892
12702W        W82583  11.143  28.022   0.367
12703W        W82584  35.387   6.782   0.768
12704W        W82585   2.903   6.890   4.693
12705W        W82586  41.029  13.809   2.671
12706W        W82587  18.087  42.522   2.840
12707W        W82588   5.689  21.202   0.425
12708W        W82589  23.109  27.055   2.393
12709W        W82590  39.941  38.041  11.089
12710W        W82591  20.183  16.274  10.485
12711W        W82592  17.233   6.253   3.801
12712W        W82593  23.591  39.830   1.863
12713W        W82594  37.068  24.597  10.550
12714W        W82595  13.780   1.328  13.826
12715W        W82596  12.349  43.780   3.683
12716W        W82597  31.533   5.919   3.152
12717W        W82598   4.827   4.711   2.747
12718W        W82599  40.547  39.392   3.712
12719W        W82600  23.545  11.720   0.258
12720W        W82601   0.866  21.094   0.941
12721W        W82602  36.006   9.222   1.246
12722W        W82603   8.665   0.810  10.628
12723W        W82604  32.630  35.876   3.818
12724W        W82605  41.325  12.245   2.868
12725W        W82606  27.069   8.289   0.272
12726W        W82607  27.530  43.388  13.537
12727W        W82608  29.144  30.007  12.833
12728W        W82609  35.001  18.149   2.803
12729W        W82610   8.351   4.377   1.236
12730W        W82611  12.733  23.073   1.389
12731W        W82612  37.920  13.825  10.959
12732W        W82613  17.255  11.316   4.652
12733W        W82614  30.507  11.254   2.417
12734W        W82615   7.813   2.866   2.788
12735W        W82616  41.015  42.407   1.271
12736W        W82617  26.996  18.170  12.394
12737W        W82618   1.872  24.650  13.023
12738W        W82619  28.053   8.890  12.437
12739W        W82620  23.015  29.573  11.124
12740W        W82621  44.901  34.424   1.909
12741W        W82622   9.726  38.437  10.564
12742W        W82623  38.976  42.420   0.349
12743W        W82624  29.038   6.882  12.090
12744W        W82625  30.139  40.337   1.274
12745W        W82626  35.492  19.108  11.087
12746W        W82627  21.238  18.759   4.149
12747W        W82628  11.768  42.386   2.769
12748W        W82629   0.923  22.022  13.811
12749W        W82630  30.641  18.741  11.906
12750W        W82631  12.335  29.540   0.730
12751W        W82632   0.776  11.822  11.378
12752W        W82633  21.083  42.372  12.910
12753W        W82634  29.571   5.213  12.576
12754W        W82635   6.837  10.277   1.763
12755W        W82636   7.192   5.229   4.281
12756W        W82637   6.183   2.438  14.492
12757W        W82638  33.951  25.028  14.846
12758W        W82639  32.998  33.062   3.154
12759W        W82640  29.449  41.895   3.845
12760W        W82641   3.253  24.721   2.747
12761W        W82642  37.397  12.841   4.256
12762W        W82643   4.860  32.891   4.306
12763W        W82644   2.914   8.697   4.677
12764W        W82645   9.715  29.626   4.228
12765W        W82646  17.707  35.982   4.783
12766W        W82647  43.874  40.437  12.398
12767W        W82648   6.375  35.912   4.349
12768W        W82649   5.820  22.244   3.172
12769W        W82650  23.512  22.517   4.160
12770W        W82651   0.952  11.322   4.307
12771W        W82652   6.419   8.820  12.979
12772W        W82653   4.801  38.061  13.947
12773W        W82654  27.507  20.637   3.855
12774W        W82655   0.857  29.160  14.959
12775W        W82656  27.529  19.040  13.369
12776W        W82657  12.768  43.456  11.021
12777W        W82658  20.712   8.265   1.819
12778W        W82659  11.627  22.069   3.305
12779W        W82660  17.193   8.330   4.324
12780W        W82661   3.438  34.898  13.475
12781W        W82662   6.371  24.061   3.714
12782W        W82663   0.905  38.405   1.240
12783W        W82664  14.261   7.415  14.881
12784W        W82665  41.356  29.474   0.902
12785W        W82666  37.033  34.375  12.945
12786W        W82667  33.898  37.517  14.960
12787W        W82668  19.219  41.901  10.905
12788W        W82669  34.920   4.758  12.973
12789W        W82670  12.731  31.941   0.940
12790W        W82671  11.361  32.570  12.089
12791W        W82672   9.842  41.348   0.873
12792W        W82673  11.782   9.744  12.985
12793W        W82674  19.681  24.166   2.756
12794W        W82675   6.896  43.923   1.416
12795W        W82676  24.204  28.457  14.403
12796W        W82677  11.661   6.387  13.312
12797W        W82678   8.371   8.806   4.795
12798W        W82679  34.895   7.335   4.182
12799W        W82680  25.572  17.669  14.978
12800W        W82681  13.741  22.566   3.221
12801W        W82682   0.809  18.281  14.395
12802W        W82683  15.599  25.690  14.792
12803W        W82684   9.310  40.007  11.862
12804W        W82685  44.877   0.771   4.153
12805W        W82686  21.048  28.063  12.963
12806W        W82687  15.648   4.853   4.157
12807W        W82688  26.009  35.508  13.451
12808W        W82689   9.682  15.244   0.900
12809W        W82690  34.937  30.582  13.931
12810W        W82691  23.525  36.520   1.849
12811W        W82692  10.198  43.016   2.712
12812W        W82693  34.983  26.647  11.499
12813W        W82694   0.443   7.176  12.059
12814W        W82695  27.564  16.132  11.124
12815W        W82696  15.235  41.821  13.541
12816W        W82697  22.682  25.036  11.050
12817W        W82698  21.088   7.372  10.496
12818W        W82699   6.688  16.129  13.973
12819W        W82700  38.436  16.100   1.819
12820W        W82701  17.147  27.029   4.615
12821W        W82702  25.568  16.301   1.246
12822W        W82703   0.492  25.516   2.290
12823W        W82704  12.349   0.369  13.984
12824W        W82705  27.145  10.771   0.862
12825W        W82706  12.662  19.062   1.813
12826W        W82707   0.964  13.735   1.707
12827W        W82708  42.447  34.482   0.402
12828W        W82709   1.271  38.539   1.414
12829W        W82710  14.171  37.860  13.408
12830W        W82711   6.921  16.097   3.373
12831W        W82712   1.442   8.827   4.306
12832W        W82713   5.339   6.862  13.505
12833W        W82714   3.227  19.743   2.302
12834W        W82715  18.216   8.785   3.858
12835W        W82716  39.532  44.357  14.926
12836W        W82717  14.668  41.984  10.898
12837W        W82718  44.872  12.305  11.951
12838W        W82719  29.065  37.486   1.927
12839W        W82720  21.596  42.521  12.965
12840W        W82721   8.392  19.598   4.289
12841W        W82722  42.407  26.137  14.875
12842W        W82723  33.948  25.066   1.260
12843W        W82724   4.800  24.141   1.401
12844W        W82725  21.060   9.699  12.043
12845W        W82726  31.075  41.409   2.732
12846W        W82727   9.867  27.060  10.994
12847W        W82728   4.261  39.469   1.339
12848W        W82729  33.401  39.315  11.931
12849W        W82730  12.746  36.580  12.929
12850W        W82731  32.908  42.520  14.485
12851W        W82732  32.576   7.901   2.843
12852W        W82733   0.822  17.649   3.635
12853W        W82734  17.625  42.362   2.352
12854W        W82735  24.132   5.363   0.809
12855W        W82736  23.490   4.904  11.073
12856W        W82737  42.879  26.656   1.425
12857W        W82738  43.785  19.765  12.065
12858W        W82739  16.630  32.623  11.118
12859W        W82740  44.761  44.369  13.513
12860W        W82741  32.478  17.150   1.722
12861W        W82742  25.043   3.879   2.817
12862W        W82743  16.738  29.131  12.077
12863W        W82744   5.299   3.823  12.982
12864W        W82745  15.242  39.004   2.895
12865W        W82746  14.711  28.958   4.273
12866W        W82747   8.684  27.505   9.935
12867W        W82748  11.753   4.814  10.421
12868W        W82749  21.069  41.788  14.387
12869W        W82750  25.070  18.761   4.663
12870W        W82751  35.573  28.093   2.695
12871W        W82752  29.510  10.343  10.045
12872W        W82753   0.911  38.950  10.914
12873W        W82754   2.911  26.121   2.765
12874W        W82755  36.923  11.807  14.927
12875W        W82756  30.646  42.889  11.973
12876W        W82757  38.071   6.339  12.443
12877W        W82758   8.721  13.688   4.143
12878W        W82759  31.965  24.983   4.620
12879W        W82760   6.842  22.198  13.883
12880W        W82761  44.270  11.710   2.767
12881W        W82762  11.684   4.938  14.859
12882W        W82763  19.060  23.518   4.176
12883W        W82764  31.026   8.846  10.061
12884W        W82765  25.994   5.860  14.487
12885W        W82766   0.869   1.328   1.890
12886W        W82767  40.919  31.094  13.430
12887W        W82768  18.088  18.157   3.222
12888W        W82769  44.331  27.577   1.330
12889W        W82770  10.335   4.215  14.337
12890W        W82771  21.746   9.669   4.828
12891W        W82772   0.900  12.853   0.838
12892W        W82773  13.263  15.324  10.963
12893W        W82774  37.418  12.741  13.847
12894W        W82775  24.556  18.191   5.121
12895W        W82776  11.268  12.780  12.842
12896W        W82777  13.789  17.097  14.767
12897W        W82778  32.963  30.087  14.932
12898W        W82779  18.686   8.699  13.353
12899W        W82780  16.697  29.434  13.516
12900W        W82781   9.158  43.801   3.649
12901W        W82782  33.052  33.076   2.355
12902W        W82783  16.721   7.303   0.244
12903W        W82784  33.089   8.678  11.115
12904W        W82785   5.419  13.322   3.821
12905W        W82786   5.707  23.683  11.063
12906W        W82787  36.873  24.145  10.495
12907W        W82788  30.139  27.673  11.447
12908W        W82789  26.650  14.623  10.515
12909W        W82790   2.755   8.732   3.671
12910W        W82791  27.128  25.003  11.881
12911W        W82792  23.984  22.557  10.005
12912W        W82793   2.747  33.106  12.529
12913W        W82794   3.338  33.624  11.482
12914W        W82795   6.387  31.598   3.319
12915W        W82796  19.616  13.832  11.128
12916W        W82797  37.001  11.747  13.804
12917W        W82798  43.012  41.499  11.418
12918W        W82799  33.077  43.980   0.340
12919W        W82800  38.446  41.313   4.767
12920W        W82801  24.724  18.568   2.365
12921W        W82802   5.704   1.799   1.215
12922W        W82803  13.653  24.047   4.115
12923W        W82804  15.172  15.279  14.447
12924W        W82805  34.916   8.241   0.465
12925W        W82806  18.129  16.768  11.919
12926W        W82807   5.793   3.379   2.744
12927W        W82808  44.882  28.657   2.862
12928W        W82809   2.786  31.001  14.374
12929W        W82810  37.411   2.314   3.305
12930W        W82811   6.839  42.479   2.284
12931W        W82812  33.525  34.477   3.287
12932W        W82813   9.326  20.238   2.377
12933W        W82814  33.520  30.414   1.712
12934W        W82815  20.595  35.083   1.228
12935W        W82816  27.999  42.518   4.233
12936W        W82817  35.363  10.725  10.991
12937W        W82818   5.811  14.612   0.736
12938W        W82819  31.899  34.924   5.119
12939W        W82820  43.941  21.030   2.399
12940W        W82821  32.459  18.229  10.469
12941W        W82822  37.919  42.336   2.255
12942W        W82823  17.668  33.387   2.245
12943W        W82824   0.383  43.355   0.820
12944W        W82825  38.347   6.417   4.829
12945W        W82826  27.640  29.519   0.744
12946W        W82827  13.832  33.500   4.152
12947W        W82828  40.309  15.809  14.927
12948W        W82829   0.252  33.586  14.422
12949W        W82830  17.602  29.953  14.857
12950W        W82831   6.349   8.655  12.420
12951W        W82832  37.563   2.244  12.428
12952W        W82833  32.954  35.000   4.654
12953W        W82834  42.931   8.886   4.707
12954W        W82835   6.362  20.586   4.834
12955W        W82836   0.912  16.228  14.905
12956W        W82837  39.499  28.446  14.321
12957W        W82838  32.461  13.311  14.454
12958W        W82839   6.705  23.595   0.774
12959W        W82840  32.047  20.523   3.676
12960W        W82841  21.102  27.067   4.820
12961W        W82842  17.711  20.119   3.240
12962W        W82843  27.187   0.743  10.551
12963W        W82844  12.160  26.682   2.377
12964W        W82845  34.070  25.479  11.912
12965W        W82846  28.595  34.914  11.527
12966W        W82847  24.570  29.021  10.467
12967W        W82848  33.411  28.028  12.003
12968W        W82849   6.678  41.322   3.155
12969W        W82850  20.144  24.155   4.324
12970W        W82851  31.585  22.596   4.642
12971W        W82852   6.190  10.384  12.907
12972W        W82853   9.168  14.258   2.876
12973W        W82854  21.152   4.914  14.290
12974W        W82855  11.668   5.248  11.070
12975W        W82856  25.637  30.942  12.515
12976W        W82857  15.585  35.429  14.896
12977W        W82858  12.251  26.170  13.010
12978W        W82859  12.692   1.898  10.905
12979W        W82860   5.405  19.584  12.953
12980W        W82861  20.734  16.578  13.517
12981W        W82862  23.670   3.780  10.993
12982W        W82863  15.275  25.493  14.507
12983W        W82864  32.969   9.386   4.718
12984W        W82865  39.452   6.187  14.957
12985W        W82866  23.010  10.755   2.335
12986W        W82867   4.298  31.585   4.176
12987W        W82868  28.035  16.085  13.862
12988W        W82869  10.165   3.711  14.368
12989W        W82870  18.148  30.632   0.309
12990W        W82871  20.736  28.042   1.742
12991W        W82872  36.912  11.187  14.948
12992W        W82873   2.393   7.743   2.822
12993W        W82874  37.042  37.035  13.915
12994W        W82875  37.972  16.625   1.898
12995W        W82876  44.330  26.506  12.480
12996W        W82877  25.499  26.490   9.977
12997W        W82878  13.742  42.335  14.888
12998W        W82879   0.894  22.537  14.344
12999W        W82880  43.289   5.737   1.318
13000W        W82881  18.069  27.687   1.933
13001W        W82882  16.623  31.498  11.462
13002W        W82883  32.616  19.657   2.680
13003W        W82884  19.273  40.015   2.352
13004W        W82885  21.247  21.264  14.939
13005W        W82886  28.016   3.340   2.823
13006W        W82887  27.460  12.196  14.337
13007W        W82888  17.124  43.272  13.828
13008W        W82889  14.141  25.152   2.900
13009W        W82890  18.781  41.940  13.934
13010W        W82891  33.025  24.592  14.308
13011W        W82892   9.804  12.741   3.658
13012W        W82893  43.985  23.688  11.408
13013W        W82894  27.495  31.573  12.873
13014W        W82895  30.027  35.493  12.462
13015W        W82896  30.653  30.080  11.019
13016W        W82897  37.486  11.182  12.920
13017W        W82898  40.914  36.004   4.747
13018W        W82899  16.734   2.299   4.340
13019W        W82900  30.502   8.714   1.913
13020W        W82901  23.241  18.555  11.522
13021W        W82902  33.957  25.059  10.637
13022W        W82903  24.539  15.202   0.373
13023W        W82904  15.601  19.696  13.938
13024W        W82905  23.182  41.899  12.530
13025W        W82906  40.851   0.898  10.405
13026W        W82907  15.812  25.161   0.749
13027W        W82908   9.211  24.170  13.328
13028W        W82909  21.724  39.849  13.872
13029W        W82910  29.520  28.456   4.683
13030W        W82911  34.569   5.886   4.777
13031W        W82912  21.658  15.252   2.410
13032W        W82913  42.308  24.148   0.308
13033W        W82914   7.867  20.667   2.774
13034W        W82915  20.228  33.471  12.426
13035W        W82916  32.393  18.776  11.540
13036W        W82917  19.223  29.585   2.787
13037W        W82918   0.948  25.043  12.516
13038W        W82919  21.115  29.666  10.467
13039W        W82920  40.901  38.050  13.004
13040W        W82921   9.318   9.174  11.410
13041W        W82922  17.751  16.214   2.765
13042W        W82923  37.421  26.491   1.719
13043W        W82924  12.746  26.092   0.754
13044W        W82925  10.775  25.040   2.665
13045W        W82926  33.130  17.672  14.442
13046W        W82927  25.473  10.641  12.397
13047W        W82928  43.514  43.848  11.414
13048W        W82929  28.456  12.782  11.083
13049W        W82930  34.446  10.829   2.415
13050W        W82931  33.421  18.138  13.822
13051W        W82932  44.005   7.745   4.353
13052W        W82933   6.909  13.625   1.847
13053W        W82934  42.860  14.597  14.315
13054W        W82935  44.302  12.626  14.446
13055W        W82936  12.297  33.004   0.840
13056W        W82937  17.737  11.148  11.429
13057W        W82938   0.483  17.262  10.408
13058W        W82939  38.362  34.565   3.676
13059W        W82940  22.601  39.959  12.930
13060W        W82941  26.636  28.499   1.413
13061W        W82942  41.966  27.011  13.535
13062W        W82943  20.275  22.011   4.119
13063W        W82944   6.256  10.251   3.258
13064W        W82945  17.692  37.042  12.020
13065W        W82946   3.279  32.486   4.321
13066W        W82947  20.736  17.235   2.222
13067W        W82948  13.630  26.979  10.451
13068W        W82949  40.857  26.159  13.931
13069W        W82950   9.395  16.650  10.474
13070W        W82951  39.035  26.571  14.344
13071W        W82952  38.842   5.378  13.027
13072W        W82953  22.232  43.505  13.471
13073W        W82954  17.230  16.254   2.258
13074W        W82955  32.622  41.939  14.390
13075W        W82956  15.793  15.669   0.419
13076W        W82957  40.515  20.193   1.902
13077W        W82958  12.849   3.926  12.563
13078W        W82959  33.065  22.144  11.552
13079W        W82960  38.461  41.042  14.842
13080W        W82961   7.911  18.720   3.386
13081W        W82962  15.326  32.892   2.830
13082W        W82963   1.248  27.963   4.336
13083W        W82964  44.911  18.122  13.311
13084W        W82965  43.997  40.818   3.661
13085W        W82966   4.336  10.751   1.928
13086W        W82967  32.022   2.847  14.420
13087W        W82968  24.033   5.689  11.611
13088W        W82969  23.172  44.972   0.759
13089W        W82970  36.529   0.742  10.908
13090W        W82971   9.700  25.208   3.362
13091W        W82972  26.062  36.050   2.215
13092W        W82973   3.762  41.295   4.748
13093W        W82974   2.257  33.612   3.281
13094W        W82975   7.409  26.576   0.273
13095W        W82976   3.951  19.760  14.886
13096W        W82977  36.467  27.599  10.453
13097W        W82978   2.868  21.181  11.894
13098W        W82979  17.208  35.386  14.362
13099W        W82980   1.320  33.525  13.461
13100W        W82981   9.236  12.839  10.455
13101W        W82982  37.858  43.866   2.805
13102W        W82983  17.677  40.441  12.487
13103W        W82984  30.573   7.759  12.339
13104W        W82985  33.493   6.242   4.183
13105W        W82986  39.521   2.727   0.405
13106W        W82987  40.331  38.375  11.965
13107W        W82988   4.731  20.066   3.831
13108W        W82989  17.125   4.391   1.320
13109W        W82990   8.844  21.181   3.300
13110W        W82991   8.724  13.252  13.460
13111W        W82992  30.936  24.009  14.015
13112W        W82993  15.197  13.796  12.974
13113W        W82994  34.959  31.597  11.003
13114W        W82995  36.914  25.049  13.980
13115W        W82996  40.949  38.883  11.053
13116W        W82997  13.722   5.699   0.356
13117W        W82998  27.098  11.201   0.822
13118W        W82999   6.749  25.155  14.290
13119W        W83000  36.015  22.251   0.964
13120W        W83001  26.069  40.536  11.911
13121W        W83002  10.790   3.384   1.333
13122W        W83003  39.849  41.945  13.360
13123W        W83004  18.107   7.195  12.382
13124W        W83005  15.795  43.856   1.401
13125W        W83006  26.135   4.780  10.910
13126W        W83007  40.033  15.763  14.826
13127W        W83008  21.560  34.955  13.801
13128W        W83009   2.280  22.243   3.696
13129W        W83010  30.419  10.192   0.419
13130W        W83011  44.287  16.584  11.088
13131W        W83012  14.282  43.345   1.722
13132W        W83013  31.579  30.016  11.116
13133W        W83014  16.757  10.749  13.832
13134W        W83015  28.500   8.205  11.924
13135W        W83016  22.207  44.281  12.350
13136W        W83017   8.678  25.080   2.844
13137W        W83018  31.983   7.889   4.642
13138W        W83019  35.386  32.574  11.556
13139W        W83020  27.097   4.931   9.962
13140W        W83021  30.466  21.093  13.490
13141W        W83022  34.556  15.277   2.802
13142W        W83023   1.889  24.977   4.806
13143W        W83024  24.172  22.208  13.969
13144W        W83025  20.217  12.775  13.868
13145W        W83026   5.276   3.396   3.244
13146W        W83027  27.096   4.797  12.526
13147W        W83028  26.469  31.073   1.854
13148W        W83029  22.519  31.479   4.670
13149W        W83030  11.224  20.597  14.838
13150W        W83031  36.396  15.092  11.394
13151W        W83032  30.999  35.394  13.384
13152W        W83033  44.342  43.797  11.856
13153W        W83034   4.816  35.564   2.394
13154W        W83035  28.050  38.335   2.787
13155W        W83036   5.699  11.320   0.878
13156W        W83037  39.345  40.946   1.697
13157W        W83038  35.883   0.347  11.394
13158W        W83039  44.817  40.464  10.564
13159W        W83040  14.192  43.891  10.623
13160W        W83041   2.255  39.902  11.584
13161W        W83042  38.936  12.201  14.414
13162W        W83043   7.345   8.778  10.488
13163W        W83044   0.350  43.388  14.883
13164W        W83045   6.805   1.330  14.381
13165W        W83046  11.803  33.075  12.928
13166W        W83047   1.431  15.271  12.062
13167W        W83048  26.159   9.766  13.056
13168W        W83049  26.139   6.824   0.308
13169W        W83050  23.723  44.388   2.291
13170W        W83051  41.034  38.053   3.298
13171W        W83052   2.412  15.315   3.691
13172W        W83053  34.952  33.474  14.277
13173W        W83054  18.277  40.539  11.939
13174W        W83055  28.455  28.570   3.270
13175W        W83056   7.357  13.810  13.307
13176W        W83057  32.924  16.238  14.770
13177W        W83058  17.738  28.643  14.987
13178W        W83059  41.988  11.743   2.350
13179W        W83060  37.485  30.957   3.630
13180W        W83061  23.683  37.962   1.916
13181W        W83062   3.460  21.247  10.905
13182W        W83063  35.376   8.783   3.247
13183W        W83064  22.523  29.514   4.667
13184W        W83065  23.022  37.474  13.921
13185W        W83066   2.794  28.609   3.146
13186W        W83067  16.079  26.490   0.726
13187W        W83068  21.752  22.595   4.169
13188W        W83069  15.175  23.584   3.692
13189W        W83070  35.998   7.322   1.310
13190W        W83071  31.132  30.944  14.507
13191W        W83072  25.581  38.933   3.235
13192W        W83073  19.699   9.342   1.430
13193W        W83074  43.355  37.847  12.346
13194W        W83075  11.672  31.538   4.716
13195W        W83076  25.967  42.373   4.730
13196W        W83077  17.129  34.538   3.193
13197W        W83078  44.294  40.310  11.083
13198W        W83079  19.768  10.698  11.967
13199W        W83080  26.092  15.635   4.747
13200W        W83081  11.306  29.100  14.495
13201W        W83082   7.374  23.722  13.008
13202W        W83083  44.994   5.853   2.414
13203W        W83084  17.771  43.399  12.357
13204W        W83085   1.930  20.587  12.933
13205W        W83086  20.247  10.267   0.386
13206W        W83087  40.813  22.622  13.444
13207W        W83088  38.985  40.511  14.455
13208W        W83089  36.408  18.185   0.880
13209W        W83090   8.342  17.703   3.742
13210W        W83091  40.507  28.087  13.497
13211W        W83092  14.716  42.318  11.603
13212W        W83093  18.139  28.441   4.789
13213W        W83094  39.057  23.601   0.806
13214W        W83095  36.566   4.880  14.929
13215W        W83096  18.213  32.424   2.896
13216W        W83097  40.382  43.291  14.986
13217W        W83098  25.080  22.171   1.923
13218W        W83099  36.079  16.251  11.886
13219W        W83100   1.874  42.880   2.784
13220W        W83101  38.919  11.291  14.447
13221W        W83102  16.094  36.458   3.323
13222W        W83103  42.485  32.057  10.593
13223W        W83104  21.169  26.003  12.071
13224W        W83105  41.463  15.204   3.348
13225W        W83106   5.879   8.322  14.322
13226W        W83107  36.855  16.582  11.544
13227W        W83108  30.929   3.834   2.390
13228W        W83109  10.196  33.463   0.800
13229W        W83110  30.526   5.194  13.867
13230W        W83111   9.694  44.478  14.400
13231W        W83112   0.785  28.526   2.855
13232W        W83113  25.099   7.718  12.857
13233W        W83114   0.276  10.852  12.950
13234W        W83115  23.174  36.457   0.475
13235W        W83116   1.954  23.070   0.400
13236W        W83117  12.780  22.006   0.466
13237W        W83118  22.131  44.434   4.672
13238W        W83119  14.727  44.328  12.382
13239W        W83120  30.584  17.797  14.969
13240W        W83121  13.196  19.212   3.668
13241W        W83122  34.531  30.965   4.642
13242W        W83123  22.122  35.913  14.850
13243W        W83124  35.424  37.410  12.925
13244W        W83125  12.733   7.778   0.730
13245W        W83126  15.788  38.336   2.379
13246W        W83127   6.196  23.217  12.365
13247W        W83128  23.239  27.178   3.324
13248W        W83129   9.383  33.050   3.329
13249W        W83130  18.692  37.858  10.570
13250W        W83131  40.479   1.776   4.129
13251W        W83132  11.865  15.672  12.902
13252W        W83133   8.884   4.732  12.056
13253W        W83134  16.789  26.083   3.167
13254W        W83135  20.619  41.001  13.414
13255W        W83136  29.175  38.819  11.993
13256W        W83137  27.016  42.504   2.297
13257W        W83138  24.670  17.107  11.497
13258W        W83139   1.976  20.577   0.762
13259W        W83140  31.467  35.526   3.228
13260W        W83141  11.282   7.329   0.279
13261W        W83142   5.864  14.690   4.793
13262W        W83143  37.444   3.293   0.774
13263W        W83144  37.056  19.710  14.013
13264W        W83145   4.228  10.314   0.935
13265W        W83146   1.786  37.948   0.895
13266W        W83147   8.728  25.182  11.070
13267W        W83148  26.133  26.671   0.938
13268W        W83149  17.087  35.588  11.012
13269W        W83150  25.632  22.111   0.404
13270W        W83151  11.141  17.685  12.370
13271W        W83152  27.002  44.961  11.438
13272W        W83153  41.897   8.833   4.138
13273W        W83154  39.483   9.297  12.002
13274W        W83155  10.208  41.994   3.662
13275W        W83156  17.172   8.173  11.069
13276W        W83157  16.594  31.149   2.800
13277W        W83158  13.295  14.622   0.794
13278W        W83159  37.507  21.211   3.361
13279W        W83160  25.566  35.530  14.917
13280W        W83161   5.393   2.781   4.738
13281W        W83162  26.509  42.869   3.681
13282W        W83163  41.876  29.467  14.882
13283W        W83164  21.648  21.705  12.983
13284W        W83165  12.790  15.579  10.057
13285W        W83166  35.516  41.368  14.423
13286W        W83167  23.226  44.915  13.308
13287W        W83168  30.427  20.668  12.409
13288W        W83169  14.103  36.073   1.701
13289W        W83170  25.663  35.390   1.880
13290W        W83171  14.612  43.937  10.444
13291W        W83172  28.079   2.850   2.319
13292W        W83173  23.570  38.352   3.301
13293W        W83174  33.949  29.451  14.950
13294W        W83175  29.085  21.537  10.528
13295W        W83176  41.341   9.274  12.420
13296W        W83177   0.919  19.072  12.034
13297W        W83178   5.711  40.984   4.729
13298W        W83179  33.929  29.640   1.933
13299W        W83180  41.405  25.114  13.999
13300W        W83181  26.088  20.072   3.747
13301W        W83182  41.398  25.119   0.929
13302W        W83183  43.795  32.956  12.839
13303W        W83184   4.258  40.903  13.827
13304W        W83185  20.705  31.004  11.407
13305W        W83186  43.494  42.009   3.668
13306W        W83187  33.521  38.007   1.805
13307W        W83188  13.155  10.172  10.532
13308W        W83189  21.620  43.937   0.334
13309W        W83190  31.633  43.780   1.799
13310W        W83191  30.096  18.786  14.981
13311W        W83192  26.687  26.545  13.798
13312W        W83193  43.302  40.916  11.041
13313W        W83194  35.960  20.130   0.463
13314W        W83195   9.777   0.763   4.200
13315W        W83196  39.516  21.531   2.324
13316W        W83197  35.911  27.971  13.905
13317W        W83198  43.872  22.524   1.820
13318W        W83199   0.985  42.003   2.203
13319W        W83200  11.146   2.876  14.422
13320W        W83201  27.631   2.295   2.230
13321W        W83202  38.955  28.946  14.816
13322W        W83203  35.931   0.819   1.346
13323W        W83204  11.353  16.595   3.716
13324W        W83205  20.189  32.050   2.817
13325W        W83206  38.537  16.091   4.206
13326W        W83207  15.271   6.804   4.212
13327W        W83208   0.965  34.991  14.459
13328W        W83209  26.458   1.883   1.300
13329W        W83210  29.138  39.425   1.311
13330W        W83211  35.873  24.708  11.540
13331W        W83212  44.828  33.128   4.189
13332W        W83213   0.864  23.066  10.911
13333W        W83214   1.927   0.399  13.316
13334W        W83215  24.080  39.946   1.397
13335W        W83216   7.210  14.329   1.331
13336W        W83217  10.268  30.065   3.301
13337W        W83218   3.836  20.746  13.348
13338W        W83219   3.925  14.108   0.473
13339W        W83220  21.127  16.262  14.854
13340W        W83221  13.207  32.885  11.033
13341W        W83222  22.733  13.793  10.600
13342W        W83223  13.781  37.833  14.928
13343W        W83224   3.740  41.309  14.902
13344W        W83225  44.003  42.866  14.513
13345W        W83226  25.111  36.020   2.863
13346W        W83227  18.545  28.171  11.076
13347W        W83228  17.597  28.032  14.798
13348W        W83229  35.529  37.386   0.361
13349W        W83230   9.285  36.953  14.820
13350W        W83231  36.411  23.155  10.591
13351W        W83232  29.543   4.433   4.321
13352W        W83233   6.414  31.052   2.763
13353W        W83234  18.282  16.702  12.911
13354W        W83235  11.146   9.826  13.532
13355W        W83236  40.313  40.967  10.410
13356W        W83237   7.360  34.947  10.536
13357W        W83238  13.163  39.005  14.425
13358W        W83239  14.797  10.266  13.387
13359W        W83240  37.901   2.721   4.353
13360W        W83241  22.148  14.176  10.891
13361W        W83242  10.196   7.304   4.178
13362W        W83243  11.305  25.539   1.309
13363W        W83244  38.837  15.707   5.180
13364W        W83245  27.594  23.006   0.471
13365W        W83246  13.834   5.224  13.318
13366W        W83247   3.338  30.579   0.422
13367W        W83248  39.317  16.654   2.179
13368W        W83249  31.905  13.678   3.372
13369W        W83250   5.785  36.848   0.944
13370W        W83251  39.485   0.873  10.021
13371W        W83252  24.702  26.174  12.441
13372W        W83253  16.621   2.945  12.985
13373W        W83254   2.931  12.257   2.737
13374W        W83255  25.136  14.739  12.015
13375W        W83256   8.383  41.826  10.440
13376W        W83257   9.299  15.782   4.687
13377W        W83258  27.980  19.040  13.374
13378W        W83259  33.417  11.656   2.254
13379W        W83260  37.075  30.933   0.309
13380W        W83261  42.860   0.490   1.814
13381W        W83262  42.402  16.238   1.289
13382W        W83263  36.515  23.032  13.511
13383W        W83264  38.553   7.848   1.450
13384W        W83265   8.703   9.167   2.820
13385W        W83266  15.243   4.359   1.231
13386W        W83267  18.142   9.879   4.822
13387W        W83268   2.297  10.339   2.270
13388W        W83269  35.380  36.928   1.423
13389W        W83270   3.414  29.642   0.378
13390W        W83271   7.689  42.801   3.379
13391W        W83272  10.766  43.839  11.074
13392W        W83273  19.090  11.275  12.973
13393W        W83274   5.888   1.881  12.552
13394W        W83275  27.651  25.013  10.936
13395W        W83276  12.132   4.265  11.560
13396W        W83277   6.408  15.770   4.246
13397W        W83278   2.369  14.259   1.765
13398W        W83279   0.319   1.329  10.576
13399W        W83280  32.480  14.145   9.933
13400W        W83281   4.217  38.557  13.016
13401W        W83282  12.721  25.682   1.811
13402W        W83283   5.340  35.583  11.976
13403W        W83284  14.336   8.307  13.312
13404W        W83285  26.507   3.418   0.841
13405W        W83286  33.447   5.270   4.229
13406W        W83287   1.928   8.866   0.410
13407W        W83288   0.890   2.910  14.359
13408W        W83289  30.515   1.452   1.414
13409W        W83290   5.931  37.372   4.301
13410W        W83291  36.376  44.379  14.968
13411W        W83292  23.598  24.584  10.528
13412W        W83293   6.345  41.956   1.839
13413W        W83294  18.579  31.128  14.983
13414W        W83295   1.351  10.756  11.124
13415W        W83296  44.434   2.416   4.802
13416W        W83297  29.152  20.143  13.417
13417W        W83298  36.367  15.679  11.606
13418W        W83299  21.156  35.915   2.719
13419W        W83300   9.380  18.641   1.761
13420W        W83301   1.849  40.967  11.458
13421W        W83302  27.012   3.439   4.684
13422W        W83303  34.034  31.052  14.358
13423W        W83304   1.812   2.804  13.390
13424W        W83305  41.948   3.951  14.410
13425W        W83306  38.895  40.872   4.264
13426W        W83307  18.066  24.606  11.868
13427W        W83308   3.237   2.379  10.502
13428W        W83309   6.887  21.563  12.382
13429W        W83310  17.719   5.341   4.177
13430W        W83311  25.168  25.687   3.314
13431W        W83312   4.839  37.930   1.219
13432W        W83313  38.896  32.434   4.640
13433W        W83314  33.893   5.308  11.984
13434W        W83315   0.475   3.795  14.376
13435W        W83316  18.188  18.712   3.209
13436W        W83317  40.913  42.782  12.392
13437W        W83318   9.651  26.055  12.085
13438W        W83319  42.959  37.943   0.798
13439W        W83320   9.268   8.746  13.907
13440W        W83321  37.429  39.851  13.875
13441W        W83322  10.306  32.526  10.146
13442W        W83323  42.445  16.261   3.809
13443W        W83324  26.694  20.693  12.450
13444W        W83325   1.331  26.618  12.912
13445W        W83326  43.463  10.235  10.900
13446W        W83327  35.863  25.126  12.358
13447W        W83328  38.948  34.614   5.114
13448W        W83329  26.133  29.605  11.872
13449W        W83330  44.777  43.325   1.867
13450W        W83331   4.210  18.139  13.516
13451W        W83332  35.991  11.655  14.508
13452W        W83333  14.697  20.762   1.743
13453W        W83334  30.558  36.844   2.231
13454W        W83335  43.367  34.972   1.325
13455W        W83336  28.507  35.399  13.900
13456W        W83337  31.029  11.128  13.885
13457W        W83338  24.013  40.313  11.536
13458W        W83339   6.896  43.978   1.838
13459W        W83340  35.554  41.537  13.029
13460W        W83341   1.820  12.171   0.782
13461W        W83342  33.098  32.561   3.281
13462W        W83343  28.132   2.829  11.545
13463W        W83344   4.237  18.201   1.862
13464W        W83345  10.299  37.005  13.385
13465W        W83346  24.097   6.219   0.919
13466W        W83347  33.396  36.402  13.520
13467W        W83348  39.398  18.767  12.483
13468W        W83349  25.033   0.274  14.361
13469W        W83350  13.743  44.904   0.398
13470W        W83351  35.016  28.484   3.195
13471W        W83352  42.871  43.454   4.230
13472W        W83353  20.742   1.840  13.042
13473W        W83354  43.364  18.107  12.950
13474W        W83355  21.647  26.007  12.868
13475W        W83356  23.567  23.023  13.535
13476W        W83357  28.643  37.033   3.374
13477W        W83358  38.845  23.014   3.708
13478W        W83359  14.635  18.787  13.939
13479W        W83360  40.343  22.609  12.424
13480W        W83361  22.154  10.364  12.932
13481W        W83362  26.498   8.691  12.991
13482W        W83363  17.600  37.370  13.348
13483W        W83364   5.906  31.602  11.017
13484W        W83365  12.669  43.419   3.819
13485W        W83366  22.042  34.525  11.918
13486W        W83367  34.372  12.728   3.171
13487W        W83368  32.041  19.252   4.272
13488W        W83369   6.244  32.539  14.989
13489W        W83370  27.974  20.709  13.445
13490W        W83371  14.125   8.774   2.243
13491W        W83372  25.199  24.533   1.303
13492W        W83373  23.701  26.984   1.799
13493W        W83374  36.457   1.311  11.390
13494W        W83375  15.217  20.666  10.557
13495W        W83376  22.181  29.442  11.895
13496W        W83377  19.267  33.981  13.423
13497W        W83378  10.685  10.357   0.355
13498W        W83379  39.410  40.458   4.234
13499W        W83380   8.716  22.169   3.667
13500W        W83381   3.265  12.175  12.946
13501W        W83382  30.626  10.679  12.056
13502W        W83383   2.827   1.282   4.336
13503W        W83384   2.903   8.244   1.849
13504W        W83385   7.177  41.292   3.174
13505W        W83386  12.257  38.366   1.436
13506W        W83387  44.391  34.060   1.833
13507W        W83388  19.556   1.785  12.883
13508W        W83389  31.027   1.274   0.877
13509W        W83390  20.042  24.196  10.053
13510W        W83391  14.635   4.699  12.867
13511W        W83392  42.986  25.065   4.292
13512W        W83393  15.692  25.496  12.563
13513W        W83394  27.668  24.538  12.390
13514W        W83395  18.284  38.835  12.845
13515W        W83396   5.838  41.036   1.730
13516W        W83397  19.556  31.081  13.840
13517W        W83398   2.464  36.846  14.348
13518W        W83399  19.553  44.291   5.191
13519W        W83400  21.077  17.742  14.367
13520W        W83401  13.740  22.228   1.247
13521W        W83402  30.423   6.782  12.422
13522W        W83403  37.998  29.612   2.206
13523W        W83404  11.333  23.633   1.727
13524W        W83405  18.202  28.548  14.913
13525W        W83406  26.679   3.926  12.412
13526W        W83407   5.712  37.846  11.089
13527W        W83408  33.948   6.805   0.863
13528W        W83409  27.057  20.035  14.470
13529W        W83410  39.029  31.921  12.988
13530W        W83411  26.006  18.142  11.609
13531W        W83412  21.253   8.361  13.341
13532W        W83413  18.632  29.528  12.829
13533W        W83414  19.570  33.540   0.828
13534W        W83415   0.280  25.967   2.780
13535W        W83416  16.185  25.202   0.933
13536W        W83417  44.873  16.727  14.804
13537W        W83418  37.857  13.153   4.177
13538W        W83419  41.394  26.996   2.289
13539W        W83420  42.492  26.675   4.290
13540W        W83421  30.106  38.389   2.312
13541W        W83422  41.893  28.491  14.823
13542W        W83423   1.750  27.552   2.854
13543W        W83424  23.600  20.555  12.869
13544W        W83425  44.387  29.156  13.322
13545W        W83426  21.615   7.877   4.328
13546W        W83427   9.236  21.068  11.049
13547W        W83428  10.328  43.925  10.412
13548W        W83429   8.794   2.768   2.214
13549W        W83430   7.715  30.552   9.964
13550W        W83431   4.850  44.859   3.695
13551W        W83432  34.459   6.742  13.509
13552W        W83433  17.307  19.107  13.916
13553W        W83434   3.869  42.970   5.100
13554W        W83435  33.516  38.324   3.168
13555W        W83436  10.740  31.466   3.817
13556W        W83437  23.052  43.997  12.567
13557W        W83438  31.027   5.885   0.278
13558W        W83439  17.798  13.319  11.589
13559W        W83440  34.900  12.616  11.399
13560W        W83441  16.229  24.076  11.098
13561W        W83442  14.314  36.561   3.643
13562W        W83443  38.051  12.687  13.526
13563W        W83444  12.345  20.640   3.655
13564W        W83445  12.690  11.706  14.474
13565W        W83446  44.417  44.858   3.246
13566W        W83447  29.472   6.749   3.170
13567W        W83448  13.712  16.642   3.864
13568W        W83449  38.009  41.398   2.705
13569W        W83450  37.423  10.316   2.382
13570W        W83451  28.487  41.918  14.854
13571W        W83452  31.021   1.470  13.326
13572W        W83453  29.121  37.897   3.324
13573W        W83454   0.808  12.258   1.922
13574W        W83455   6.731  18.278  11.038
13575W        W83456  38.343  22.538   0.783
13576W        W83457  22.240  19.571  14.815
13577W        W83458  42.401   9.288   4.195
13578W        W83459  34.447   0.793  14.779
13579W        W83460  24.563  36.850   2.816
13580W        W83461   7.665  11.770   0.734
13581W        W83462  20.767   2.830   1.441
13582W        W83463  37.988  22.132   1.795
13583W        W83464   5.430  35.967  13.840
13584W        W83465  12.849   4.706   1.877
13585W        W83466  42.508  13.233   0.798
13586W        W83467  15.644  11.759   1.376
13587W        W83468  34.904  40.496   2.820
13588W        W83469  23.598  33.565   4.197
13589W        W83470   5.274  15.605   1.219
13590W        W83471  40.946  23.138  10.989
13591W        W83472  25.984  26.529  11.061
13592W        W83473  38.955  15.197   4.326
13593W        W83474  29.536  30.140  14.426
13594W        W83475  10.638  14.263  13.835
13595W        W83476  18.551   1.308  11.908
13596W        W83477  33.573  33.508   4.298
13597W        W83478  43.436  12.761  13.525
13598W        W83479  26.678  37.866  10.631
13599W        W83480  13.638   0.861  13.022
13600W        W83481  40.504  18.711  12.420
13601W        W83482  32.992  17.184   2.298
13602W        W83483  19.230  25.973  11.377
13603W        W83484  26.464  44.322  13.840
13604W        W83485  31.557  31.644   3.766
13605W        W83486   9.254   1.428   1.899
13606W        W83487  11.290  25.616  12.019
13607W        W83488  16.763  19.078   1.869
13608W        W83489  37.379  12.740   2.346
13609W        W83490  21.104   5.933   3.709
13610W        W83491  11.651  21.047   3.337
13611W        W83492  11.770  31.947  14.838
13612W        W83493  34.005  41.851   3.645
13613W        W83494   0.788  39.516   3.716
13614W        W83495  37.068  43.804   9.965
13615W        W83496  44.952   7.366   0.464
13616W        W83497  43.869  19.769   4.734
13617W        W83498  11.667  17.625  13.357
13618W        W83499  33.520  37.846   0.288
13619W        W83500  44.479  10.149  14.345
13620W        W83501  13.803  17.229   3.252
13621W        W83502  24.664  41.351  11.470
13622W        W83503  13.171  44.334   2.677
13623W        W83504   7.274  10.352  13.904
13624W        W83505  27.632  35.863  11.084
13625W        W83506  30.451  15.172   3.841
13626W        W83507  35.965   5.918  10.936
13627W        W83508  16.735  11.273   3.196
13628W        W83509  18.091  36.409   1.740
13629W        W83510  27.521  11.736  10.436
13630W        W83511  18.551   0.273  13.407
13631W        W83512   1.451   9.209  13.495
13632W        W83513  30.478  43.385  12.095
13633W        W83514   4.701  37.847  13.428
13634W        W83515   7.775  31.950   9.982
13635W        W83516  15.770  37.876   3.382
13636W        W83517  24.022  26.050   0.243
13637W        W83518  34.430   9.868  10.455
13638W        W83519  28.638  15.154   2.206
13639W        W83520   9.687  20.628   0.892
13640W        W83521  28.935  17.673   1.221
13641W        W83522  32.590  16.781  12.359
13642W        W83523  36.885  30.427   3.288
13643W        W83524  27.687  30.460  13.379
13644W        W83525  38.914  21.712  11.567
13645W        W83526  34.988   8.239   1.365
13646W        W83527  40.837  24.508  13.355
13647W        W83528  28.134   4.711   0.860
13648W        W83529  10.731  14.613   3.733
13649W        W83530   8.303   0.403  13.959
13650W        W83531   5.795  14.125   0.956
13651W        W83532  37.530  18.284   1.438
13652W        W83533  13.837  34.600  10.555
13653W        W83534  43.304  42.946   2.268
13654W        W83535   2.955   5.281   0.384
13655W        W83536  29.024   9.674   3.853
13656W        W83537  17.752  15.105   2.868
13657W        W83538  31.598  32.575   4.760
13658W        W83539  21.698  44.006  13.427
13659W        W83540  40.820   7.376   1.807
13660W        W83541   5.887  43.280   2.364
13661W        W83542  42.439  21.605  10.596
13662W        W83543  38.057  39.013  12.432
13663W        W83544  39.417   8.405   0.349
13664W        W83545  39.864  13.682   0.852
13665W        W83546   9.797   4.206   2.670
13666W        W83547  38.408  41.374   0.349
13667W        W83548  30.623  31.565   0.338
13668W        W83549  30.550  27.650   4.659
13669W        W83550  21.037  37.370   1.898
13670W        W83551  25.172  31.964  11.956
13671W        W83552  44.445   6.805  10.419
13672W        W83553   0.808  39.559  10.535
13673W        W83554  35.583  30.016   0.422
13674W        W83555  34.057   8.362  14.839
13675W        W83556  41.834  40.342  13.968
13676W        W83557  38.539  13.202  11.586
13677W        W83558   9.243  16.640  13.399
13678W        W83559  33.586  39.473   2.865
13679W        W83560  13.136  31.506  14.027
13680W        W83561  25.564  37.398   2.733
13681W        W83562  21.063  44.808   0.285
13682W        W83563   0.467   5.308   0.460
13683W        W83564  14.296  40.399   4.113
13684W        W83565  30.986  30.419   4.803
13685W        W83566  33.440  17.799   1.718
13686W        W83567   1.934  16.624  10.937
13687W        W83568   2.358  12.831  14.856
13688W        W83569   0.826   0.397  11.612
13689W        W83570  32.893  39.360  13.845
13690W        W83571  40.337  37.531  14.509
13691W        W83572  36.846  15.720  12.988
13692W        W83573  36.591  26.043   1.933
13693W        W83574  16.267  34.051  12.414
13694W        W83575  41.873  32.561  14.423
13695W        W83576  33.431  27.003  12.885
13696W        W83577   0.379  32.111  10.418
13697W        W83578  34.945  15.690   4.319
13698W        W83579  10.284  20.617  12.052
13699W        W83580  28.631  13.338  10.560
13700W        W83581  19.560  24.505   0.368
13701W        W83582  39.835  35.914   4.729
13702W        W83583  42.453   4.297  13.829
13703W        W83584  39.056  34.520   3.156
13704W        W83585  13.724  43.360  13.459
13705W        W83586  25.984  17.162  14.439
13706W        W83587  16.739   6.721  10.906
13707W        W83588   0.352  14.692   3.636
13708W        W83589  33.488   2.472   1.374
13709W        W83590  14.654  34.534  12.854
13710W        W83591  21.545   5.275  13.970
13711W        W83592   1.765   2.834   4.773
13712W        W83593  34.037  25.549   4.753
13713W        W83594   2.725   2.782  14.891
13714W        W83595  12.322  28.606  11.487
13715W        W83596  43.349  12.724  12.974
13716W        W83597  28.479  39.323  13.960
13717W        W83598  25.694  27.169   3.166
13718W        W83599  23.521   3.946  13.879
13719W        W83600  24.054  24.486   0.836
13720W        W83601  44.442   2.331   0.780
13721W        W83602  33.011  11.169  11.585
13722W        W83603  32.035  21.154   1.433
13723W        W83604   1.322  24.021  12.902
13724W        W83605  14.646  12.330   0.892
13725W        W83606  37.975  25.558   2.899
13726W        W83607  38.476  18.557  12.379
13727W        W83608  21.730  32.032   1.301
13728W        W83609  31.103  29.998  12.000
13729W        W83610  10.684   8.731   1.263
13730W        W83611   8.826  29.456   3.732
13731W        W83612   5.872  20.089  12.540
13732W        W83613  32.129  30.442  12.952
13733W        W83614  27.019  33.576   2.194
13734W        W83615  18.719  23.605  10.595
13735W        W83616  22.171   6.188   4.165
13736W        W83617  11.638  10.229  11.881
13737W        W83618   4.938  35.059   4.747
13738W        W83619  12.788  30.516   5.245
13739W        W83620  12.332   8.242  10.411
13740W        W83621  26.992   6.685  10.504
13741W        W83622  14.646  12.840   2.731
13742W        W83623  41.822  15.677   4.311
13743W        W83624  37.496   3.404   3.229
13744W        W83625  36.347  23.691  10.596
13745W        W83626  16.259  11.686  10.467
13746W        W83627  20.526  40.414   1.695
13747W        W83628   6.248  32.028   0.331
13748W        W83629  30.523  38.394   3.744
13749W        W83630   1.375  40.828   3.687
13750W        W83631  32.565   2.869  11.940
13751W        W83632  26.202  12.779  12.846
13752W        W83633  34.053  41.949   1.267
13753W        W83634  19.124  28.601   4.311
13754W        W83635  36.884  25.601  13.993
13755W        W83636  44.421   9.165   0.411
13756W        W83637  22.243  26.154  13.046
13757W        W83638  26.114  10.350   2.744
13758W        W83639  16.647   6.779  11.452
13759W        W83640  21.744  37.997  14.882
13760W        W83641   5.241  37.416   0.274
13761W        W83642   6.238  14.324   4.199
13762W        W83643  17.189  20.685  14.840
13763W        W83644  33.096   7.716   1.818
13764W        W83645  36.868  24.487   2.183
13765W        W83646  13.336  12.309   3.699
13766W        W83647  40.829  38.529   4.203
13767W        W83648  23.508  29.938   3.200
13768W        W83649  39.021  38.364  11.573
13769W        W83650  42.006  24.030  11.127
13770W        W83651  36.914  43.836   0.912
13771W        W83652   5.760  29.576  12.442
13772W        W83653  22.098  19.618  10.543
13773W        W83654   2.268  39.547   0.478
13774W        W83655   5.232  14.658   3.248
13775W        W83656  29.528  28.533   3.218
13776W        W83657  32.932   7.894  10.528
13777W        W83658  13.711  13.288   3.305
13778W        W83659  12.800  26.701  13.061
13779W        W83660  11.827  37.537  12.370
13780W        W83661  25.674  37.382   4.288
13781W        W83662  16.138  22.142   1.269
13782W        W83663  23.712  11.642  10.502
13783W        W83664   1.456  34.943   3.230
13784W        W83665  14.613  38.406  11.118
13785W        W83666  40.040  24.526   1.345
13786W        W83667  37.012  26.195   3.760
13787W        W83668   3.405  18.203   3.713
13788W        W83669  20.625  22.537   4.345
13789W        W83670  26.670  12.832   1.793
13790W        W83671  34.470  12.697  13.540
13791W        W83672  25.118  34.938  14.285
13792W        W83673  32.913   6.300   2.766
13793W        W83674  42.873  17.184  12.429
13794W        W83675  22.019   9.717  14.772
13795W        W83676  26.129   5.283   1.210
13796W        W83677  11.755  18.577   9.495
13797W        W83678  28.522  39.881   2.842
13798W        W83679  29.152  22.666  11.453
13799W        W83680  24.977  40.394  14.399
13800W        W83681  23.041  30.014  10.941
13801W        W83682  34.604   8.333  13.902
13802W        W83683  24.119  39.316   2.287
13803W        W83684  28.434  44.458  12.996
13804W        W83685   9.361   0.948  13.383
13805W        W83686  14.221  10.851  12.414
13806W        W83687   3.901  39.873   0.938
13807W        W83688  25.578  39.012   1.232
13808W        W83689   7.680  27.665   0.866
13809W        W83690  21.057  10.336   3.233
13810W        W83691  33.890  10.267   0.349
13811W        W83692   4.342  31.139   2.266
13812W        W83693  36.430  10.639  14.298
13813W        W83694  36.059   0.395  12.497
13814W        W83695  16.653   5.302  12.455
13815W        W83696  19.732  21.571  12.937
13816W        W83697  36.919  31.514   2.393
13817W        W83698  16.208  25.015   5.129
13818W        W83699  15.298   2.302  13.457
13819W        W83700  28.471   0.983   2.229
13820W        W83701  28.659  35.508  13.050
13821W        W83702   2.746   5.340   4.701
13822W        W83703  24.991  10.847  10.437
13823W        W83704  17.611  20.589  13.534
13824W        W83705  14.113  39.953   0.925
13825W        W83706   5.824  13.618   2.235
13826W        W83707  36.864  22.734   1.910
13827W        W83708  34.463  43.333   2.698
13828W        W83709   6.244  21.687   4.615
13829W        W83710  24.026  15.686   3.790
13830W        W83711  13.283  24.029  14.939
13831W        W83712   7.231  20.669  13.396
13832W        W83713  38.985  39.839  11.937
13833W        W83714  17.213  20.111   4.328
13834W        W83715  13.329  37.961   1.847
13835W        W83716  19.198  14.820   1.922
13836W        W83717  38.012   0.816   0.270
13837W        W83718  31.903  19.050   2.217
13838W        W83719  20.541   5.807   0.441
13839W        W83720  18.108  30.020   3.226
13840W        W83721  20.529   2.310  14.436
13841W        W83722  23.542  28.025   0.356
13842W        W83723  19.076  16.204   0.244
13843W        W83724  20.554  43.318  14.763
13844W        W83725  21.608  31.433  12.947
13845W        W83726  15.699  30.499   9.995
13846W        W83727  41.518  44.274   2.888
13847W        W83728  23.082  33.559  14.882
13848W        W83729  39.918  36.403  12.833
13849W        W83730  17.624   4.437   1.826
13850W        W83731   6.885  32.997   4.288
13851W        W83732   4.798   7.287  12.344
13852W        W83733  34.487  19.623   4.691
13853W        W83734   2.923  36.584   3.380
13854W        W83735  24.171  28.166   1.772
13855W        W83736  13.721  27.452  11.545
13856W        W83737  14.608   3.878  13.497
13857W        W83738  16.288  41.310  13.906
13858W        W83739   6.786  25.141   0.453
13859W        W83740  34.010  17.664   0.750
13860W        W83741  29.996  32.634   2.855
13861W        W83742  36.503  29.991  11.565
13862W        W83743  35.528  20.620   0.258
13863W        W83744   4.904  42.478  10.412
13864W        W83745  18.637  39.500   3.747
13865W        W83746  18.214  20.128  14.944
13866W        W83747  31.136  22.150  12.533
13867W        W83748  30.454  43.803  13.943
13868W        W83749  24.520  24.069   1.433
13869W        W83750  28.498   8.693   1.831
13870W        W83751  35.056   1.869   5.107
13871W        W83752  29.984  35.864   3.822
13872W        W83753  20.723  19.097   2.859
13873W        W83754  40.481  32.000   2.221
13874W        W83755   0.908  42.459   0.875
13875W        W83756  44.295  40.970   0.877
13876W        W83757  36.412  13.228   0.332
13877W        W83758  12.116  39.891  13.508
13878W        W83759  34.069  16.200  11.439
13879W        W83760  17.593  14.249  14.865
13880W        W83761  32.610   7.310   4.161
13881W        W83762  33.917  38.951  12.829
13882W        W83763  16.568  39.924   3.726
13883W        W83764  43.305  21.240   1.242
13884W        W83765  14.830   6.733   3.695
13885W        W83766  38.488  26.035  12.544
13886W        W83767  31.431  34.481  14.464
13887W        W83768  34.934   8.815   4.253
13888W        W83769   1.843  14.685   1.754
13889W        W83770  41.974  32.918  11.860
13890W        W83771  40.875  32.124   0.249
13891W        W83772  34.562  27.646  13.386
13892W        W83773  11.313  15.748  10.503
13893W        W83774  43.843   8.895   3.735
13894W        W83775   2.285   9.283   1.421
13895W        W83776  10.877  44.922  12.062
13896W        W83777  34.994   8.727   1.820
13897W        W83778   1.373   6.278   1.731
13898W        W83779  33.028  19.214  12.529
13899W        W83780  39.058   0.292   2.870
13900W        W83781  28.050  18.642   0.961
13901W        W83782   5.838   1.348  11.530
13902W        W83783  13.167  14.672   2.873
13903W        W83784  13.126   2.401   1.867
13904W        W83785  40.506   7.215   4.224
13905W        W83786  17.218   1.742   0.791
13906W        W83787  17.693   1.889   3.361
13907W        W83788  14.812  30.588  13.859
13908W        W83789  36.022   1.393  13.049
13909W        W83790  20.622  26.991   0.848
13910W        W83791  44.939  39.946  12.546
13911W        W83792  40.971  32.582  12.436
13912W        W83793   9.198  35.600   4.181
13913W        W83794  38.380  24.570   3.633
13914W        W83795  25.600   7.404   0.904
13915W        W83796  28.627  27.068  13.395
13916W        W83797  12.127  34.469  11.079
13917W        W83798  38.326   3.377  14.457
13918W        W83799   4.379  23.663  11.983
13919W        W83800  18.705  13.670  12.495
13920W        W83801  33.472  33.941  10.498
13921W        W83802  28.086  30.935   0.439
13922W        W83803  27.174   9.258  14.925
13923W        W83804  24.045   2.936  14.441
13924W        W83805  34.451   8.901  13.539
13925W        W83806  42.932  23.628   4.766
13926W        W83807  21.750  27.098  13.452
13927W        W83808  27.993   9.266   4.135
13928W        W83809   2.361  30.510  13.914
13929W        W83810  28.609  34.596   1.834
13930W        W83811  41.876  10.138  13.868
13931W        W83812  17.629   4.284  14.894
13932W        W83813  39.386  35.923   0.792
13933W        W83814  19.044   2.770  14.985
13934W        W83815  18.713  44.887   2.836
13935W        W83816  25.962   3.259  13.495
13936W        W83817   7.281  36.509  14.984
13937W        W83818  10.314  33.571   4.146
13938W        W83819  41.309  37.566   2.779
13939W        W83820  32.531   1.926  13.368
13940W        W83821  41.534  36.501  13.384
13941W        W83822  29.014  38.839   4.296
13942W        W83823  30.515  44.411  14.276
13943W        W83824  38.472  26.996   3.644
13944W        W83825  22.648  27.526  14.513
13945W        W83826  24.216  19.116   1.924
13946W        W83827  38.358  36.460  11.874
13947W        W83828  38.570  16.788  13.442
13948W        W83829  23.091  42.976   2.890
13949W        W83830  27.562  28.075  11.929
13950W        W83831  11.863  12.802  11.107
13951W        W83832  20.614  21.525  11.875
13952W        W83833  34.413   5.920  13.412
13953W        W83834   8.398  26.102  11.002
13954W        W83835  11.678  28.181   2.377
13955W        W83836  15.147   0.327   4.343
13956W        W83837  31.479  30.579   1.866
13957W        W83838  39.443  13.674  10.610
13958W        W83839  18.756  22.116  14.024
13959W        W83840  16.131  30.479  13.015
13960W        W83841  10.365  44.437  14.855
13961W        W83842  20.731  38.946   1.355
13962W        W83843   0.292  31.956   4.189
13963W        W83844  29.430  23.096  12.085
13964W        W83845   6.754  29.145   1.830
13965W        W83846  39.458  15.216   0.345
13966W        W83847  20.164   1.931   4.770
13967W        W83848   9.276  16.275   4.702
13968W        W83849  30.494  42.982   1.313
13969W        W83850  15.713  32.982   0.795
13970W        W83851  39.357  14.173   1.834
13971W        W83852   2.782  15.163   4.660
13972W        W83853  27.467  31.089   2.380
13973W        W83854  40.305  13.129  11.082
13974W        W83855  41.457  30.645  14.922
13975W        W83856  18.075  10.692  14.014
13976W        W83857  25.004  43.511  13.383
13977W        W83858  37.030  19.766   4.267
13978W        W83859  25.964  41.004  14.314
13979W        W83860   2.857  14.232  14.470
13980W        W83861  25.996  37.985  12.935
13981W        W83862  34.958  29.126   4.721
13982W        W83863  41.824  10.877  11.050
13983W        W83864  17.663   8.899   9.965
13984W        W83865  41.948  42.345   2.846
13985W        W83866  11.788  11.360  11.916
13986W        W83867  24.162  35.970  14.356
13987W        W83868  41.807  33.565   2.887
13988W        W83869  17.146  22.590   5.155
13989W        W83870  15.165  18.239  13.925
13990W        W83871  39.819   3.852  11.535
13991W        W83872  43.360  30.921  14.349
13992W        W83873  38.478  42.491   2.298
13993W        W83874  36.881  16.773   3.675
13994W        W83875   1.396  30.063   3.171
13995W        W83876  41.855  23.615  14.887
13996W        W83877  34.018  31.485  10.920
13997W        W83878  10.257   8.849   1.269
13998W        W83879  26.670  19.104   3.746
13999W        W83880  44.950   1.322  11.002
14000W        W83881  15.198  25.029   1.279
14001W        W83882  12.140  43.769  12.472
14002W        W83883  16.208  31.906   1.345
14003W        W83884  27.169  35.388   4.792
14004W        W83885  35.993  24.701   3.351
14005W        W83886  26.169   2.909   2.274
14006W        W83887  44.441  37.513   4.613
14007W        W83888  31.003  11.211   0.752
14008W        W83889  31.006  25.669   0.322
14009W        W83890   2.298  29.551  14.417
14010W        W83891  22.565   5.395  14.994
14011W        W83892   6.307  40.823  11.470
14012W        W83893  19.616   5.202  12.369
14013W        W83894  25.086  26.105   0.297
14014W        W83895   5.219  26.529  10.119
14015W        W83896  12.264  11.673   3.757
14016W        W83897  40.448  16.802  13.336
14017W        W83898  10.357  32.998  11.981
14018W        W83899   4.290  22.149  14.440
14019W        W83900   3.417  22.152   0.920
14020W        W83901  30.659   0.409   1.220
14021W        W83902  28.577  17.572  11.960
14022W        W83903   5.257  30.574  10.502
14023W        W83904   7.410   6.338   1.816
14024W        W83905  28.560  28.507   3.833
14025W        W83906  28.484  40.330  12.013
14026W        W83907   1.293  20.243  10.943
14027W        W83908  41.457   0.411   0.814
14028W        W83909  16.594  31.093  13.439
14029W        W83910   3.775  20.662   3.755
14030W        W83911  28.029   2.278   0.913
14031W        W83912  10.298  14.643   3.701
14032W        W83913  26.571  10.653   4.326
14033W        W83914  13.132  14.110  13.057
14034W        W83915  36.939  37.423   0.400
14035W        W83916  35.054  26.152   4.296
14036W        W83917   1.384  16.280   2.317
14037W        W83918  11.206  38.841  14.987
14038W        W83919  44.326  24.676  10.497
14039W        W83920  39.485  29.651  11.464
14040W        W83921  27.166   1.896  12.867
14041W        W83922  37.406  38.539   4.247
14042W        W83923  41.371  17.301   2.740
14043W        W83924  35.088  11.292  13.335
14044W        W83925  44.847   1.839   2.276
14045W        W83926  31.528   3.266   3.214
14046W        W83927  33.464  14.647  11.975
14047W        W83928  13.199  40.401   2.894
14048W        W83929  14.218   4.740   2.344
14049W        W83930  23.685  10.767  10.412
14050W        W83931   1.865   0.904  13.331
14051W        W83932  39.061   5.350  14.275
14052W        W83933   1.245  24.079  10.905
14053W        W83934  16.186  37.983   2.854
14054W        W83935  17.284  39.059  12.086
14055W        W83936  25.500  28.139   4.214
14056W        W83937  13.107   3.858   0.300
14057W        W83938  38.930   3.890  14.768
14058W        W83939   7.669  31.992  12.852
14059W        W83940  39.047  35.003  11.472
14060W        W83941  25.009   7.350   3.336
14061W        W83942  20.571  10.666   4.157
14062W        W83943  38.383   2.720   1.234
14063W        W83944  33.962  25.085   2.825
14064W        W83945  39.950  41.924  11.062
14065W        W83946  19.065  35.887   2.372
14066W        W83947   0.469  14.713  11.469
14067W        W83948  21.018  41.367  13.919
14068W        W83949  32.995  29.079  11.009
14069W        W83950  44.980  10.381  11.077
14070W        W83951  16.294  23.688   1.859
14071W        W83952  23.031   3.382   0.320
14072W        W83953  37.963  43.423  14.327
14073W        W83954  40.052  32.889  14.911
14074W        W83955  37.529   8.328  13.519
14075W        W83956  42.436  36.925  14.772
14076W        W83957  12.156  12.697   4.190
14077W        W83958  36.020   9.809  12.364
14078W        W83959   3.939  29.932   0.739
14079W        W83960  41.941  35.590  13.991
14080W        W83961   9.167  14.808  12.366
14081W        W83962  14.670   6.230  14.776
14082W        W83963  14.341   1.370  11.928
14083W        W83964  18.725   4.865   4.203
14084W        W83965   2.422  44.002   4.349
14085W        W83966  11.658  21.597   1.224
14086W        W83967  10.188  44.825   1.291
14087W        W83968  13.343  36.869   0.468
14088W        W83969  17.285  11.762   2.700
14089W        W83970  37.547  41.401  11.600
14090W        W83971  38.965   2.803   0.764
14091W        W83972   7.416  24.685   3.707
14092W        W83973  13.745  35.477  14.013
14093W        W83974   0.796  21.082   0.464
14094W        W83975  10.380  20.070   0.459
14095W        W83976  44.484  34.080   3.205
14096W        W83977  21.256  44.869  13.317
14097W        W83978  15.205  17.746   3.255
14098W        W83979   5.425  20.249  14.910
14099W        W83980  40.400  39.484   2.881
14100W        W83981  19.198  29.142  14.926
14101W        W83982  18.109  34.486  11.941
14102W        W83983   3.878  21.081  12.888
14103W        W83984   0.456  35.544   3.252
14104W        W83985  35.970  20.180  10.993
14105W        W83986  17.599  28.498   3.349
14106W        W83987  25.554  31.607  12.483
14107W        W83988  16.264  22.686  14.438
14108W        W83989  13.727  20.188  12.956
14109W        W83990  33.970  35.079   3.384
14110W        W83991  18.141  27.592  13.325
14111W        W83992   5.408  18.197  10.551
14112W        W83993  20.657  36.473   3.379
14113W        W83994  23.511   2.321  11.508
14114W        W83995   2.888   1.809   0.727
14115W        W83996  12.358  42.483   2.242
14116W        W83997  18.107  37.555   3.808
14117W        W83998   5.326  31.553  14.838
14118W        W83999  23.117  27.952  11.402
14119W        W84000  21.045  44.785  10.526
14120W        W84001   0.849   2.268  11.106
14121W        W84002  25.501  10.729  11.551
14122W        W84003  24.491  13.345   1.749
14123W        W84004  11.655   3.888   0.278
14124W        W84005  27.124  18.669  13.797
14125W        W84006   4.294   7.266  12.953
14126W        W84007  29.004  33.442   4.757
14127W        W84008  28.136  11.333   0.443
14128W        W84009  10.750   1.451  12.965
14129W        W84010  38.567  30.924   4.197
14130W        W84011   0.804  27.083   3.208
14131W        W84012  33.963   7.296  12.413
14132W        W84013   4.878  31.456  12.945
14133W        W84014  43.021  21.026   2.758
14134W        W84015  36.347  32.579   4.351
14135W        W84016  31.030  36.539   0.858
14136W        W84017   2.961   6.880   0.293
14137W        W84018  28.967  16.175  13.035
14138W        W84019  18.177  10.639   1.842
14139W        W84020  15.791  40.928   2.206
14140W        W84021  18.154  26.165  11.956
14141W        W84022  26.515  40.963  10.590
14142W        W84023  30.519  29.465   2.902
14143W        W84024   2.723  41.522  13.531
14144W        W84025  28.950   6.428  14.297
14145W        W84026  22.676  35.543  12.521
14146W        W84027  17.197  37.015  13.904
14147W        W84028  36.537   9.183   1.828
14148W        W84029  21.241   1.287  12.446
14149W        W84030  16.270  11.173  13.851
14150W        W84031   9.214   6.801  14.764
14151W        W84032  39.359   5.697   2.871
14152W        W84033  23.228  13.334  10.433
14153W        W84034   8.383  30.067  13.544
14154W        W84035  26.005  14.600  10.988
14155W        W84036   4.280  11.817  11.447
14156W        W84037  25.682   5.318  14.391
14157W        W84038  28.142  14.123   2.902
14158W        W84039   6.803  27.666   2.675
14159W        W84040   4.205  23.525   4.656
14160W        W84041  44.284  40.005   2.216
14161W        W84042  22.201  21.538  10.512
14162W        W84043  38.843  44.824   2.320
14163W        W84044  40.960  10.262   3.349
14164W        W84045  23.024   8.721  11.502
14165W        W84046  28.108  30.965  11.412
14166W        W84047   3.458  11.344   1.840
14167W        W84048  41.803  30.659  12.518
14168W        W84049  44.890   4.287   0.360
14169W        W84050   1.836  32.139  11.516
14170W        W84051   1.478  27.131  10.977
14171W        W84052  20.710   1.971   2.258
14172W        W84053   4.854  44.342  12.991
14173W        W84054  17.237  20.698   1.256
14174W        W84055  16.186  40.353   1.358
14175W        W84056  27.168   1.290  12.058
14176W        W84057   8.364  19.283   1.393
14177W        W84058  34.545  38.927   4.789
14178W        W84059  35.461  43.981  12.870
14179W        W84060   7.337   8.765  12.382
14180W        W84061   7.846  11.265  12.015
14181W        W84062  25.139  39.484  14.492
14182W        W84063  25.592  36.438  13.350
14183W        W84064  40.468  24.040  14.461
14184W        W84065  28.451  42.398  13.905
14185W        W84066   1.303  21.069   4.709
14186W        W84067  30.626  41.403  10.919
14187W        W84068  20.704  14.655   1.752
14188W        W84069  36.972  44.501   9.450
14189W        W84070  17.280  40.042   4.693
14190W        W84071  15.309   7.841   1.732
14191W        W84072   9.877  10.660  13.985
14192W        W84073  37.569  24.668   1.295
14193W        W84074  26.531  41.926   4.645
14194W        W84075  14.684  12.326   3.798
14195W        W84076  23.500  22.008   0.928
14196W        W84077   5.250  31.132  13.445
14197W        W84078  18.288  39.458   1.862
14198W        W84079  10.873  10.189  13.455
14199W        W84080  39.364  23.168   2.821
14200W        W84081  39.020  20.137  10.474
14201W        W84082  10.218   8.865   5.205
14202W        W84083  42.316  16.232  12.952
14203W        W84084  22.120  29.533  13.871
14204W        W84085   5.396  15.655  13.364
14205W        W84086   3.858  44.785   4.675
14206W        W84087   8.655   6.794   2.253
14207W        W84088  33.097   4.868  14.872
14208W        W84089  10.286   2.920   2.720
14209W        W84090  29.096  34.898  10.942
14210W        W84091  36.086  44.340   5.164
14211W        W84092  40.850   3.850  14.915
14212W        W84093   5.716  16.305   2.767
14213W        W84094  23.702  27.064  11.916
14214W        W84095  32.624  43.838   4.352
14215W        W84096  36.080  43.819   4.231
14216W        W84097  26.501  12.758   2.799
14217W        W84098  38.981  31.904   4.336
14218W        W84099  42.818  44.874  14.347
14219W        W84100   3.826   4.433   2.236
14220W        W84101  37.577   9.823   4.686
14221W        W84102  34.043  19.624   2.283
14222W        W84103  11.793  40.877  14.994
14223W        W84104  38.974   6.398   2.277
14224W        W84105   7.408  23.088  14.290
14225W        W84106  17.642   6.328   1.383
14226W        W84107  18.597   9.271  13.943
14227W        W84108  35.566  36.850   3.343
14228W        W84109  43.785  21.028  11.883
14229W        W84110   8.683  42.488   0.399
14230W        W84111  13.715   4.431  10.919
14231W        W84112  13.121  13.115  13.974
14232W        W84113  30.462   0.785  12.967
14233W        W84114   0.816   3.734   2.349
14234W        W84115   6.335   8.379  11.498
14235W        W84116  21.022  34.474  13.914
14236W        W84117  37.526  42.286  12.983
14237W        W84118   5.930  32.079  10.617
14238W        W84119  38.463  23.141   3.327
14239W        W84120  42.989  39.441  14.462
14240W        W84121  38.428   3.749  12.366
14241W        W84122  39.500   7.722  13.004
14242W        W84123  16.776  27.194  12.872
14243W        W84124  11.130  20.117  14.488
14244W        W84125  18.757  44.290   3.713
14245W        W84126  15.693  25.040   4.265
14246W        W84127   8.815  19.123  13.519
14247W        W84128  19.701  37.885  13.925
14248W        W84129  20.184  33.055   4.131
14249W        W84130  20.570  28.610  14.503
14250W        W84131  12.217  16.122   9.473
14251W        W84132  35.467  26.151   0.411
14252W        W84133  30.422  35.881   4.800
14253W        W84134  15.322   5.285   2.328
14254W        W84135  25.590  22.586   0.440
14255W        W84136   3.339  10.318  12.455
14256W        W84137  17.273  39.862  12.432
14257W        W84138  37.523  27.132  14.443
14258W        W84139  41.800  20.125  14.981
14259W        W84140   6.303  38.928   3.750
14260W        W84141   2.727  31.039  11.466
14261W        W84142  19.644  12.821   1.357
14262W        W84143  28.489  18.280  14.896
14263W        W84144  27.027  18.064  14.325
14264W        W84145   7.171  17.654  11.107
14265W        W84146  28.667  26.206   0.285
14266W        W84147  14.180  28.654  11.439
14267W        W84148  40.303   8.383  12.874
14268W        W84149  29.466   8.406   0.279
14269W        W84150   1.905   8.898   2.757
14270W        W84151   1.963  37.548   2.213
14271W        W84152  42.296  34.615   2.253
14272W        W84153  10.264  18.073  13.310
14273W        W84154  14.218  38.945  14.427
14274W        W84155  14.217   6.882  11.049
14275W        W84156  34.453  18.251   1.712
14276W        W84157  15.114  38.826  13.412
14277W        W84158  42.858  41.311   2.865
14278W        W84159  37.573  20.529  11.953
14279W        W84160   4.895  26.979  10.933
14280W        W84161  37.029  36.461  14.761
14281W        W84162  23.997  28.655  10.450
14282W        W84163   6.783  20.242  13.316
14283W        W84164  19.044  33.081   3.365
14284W        W84165  13.627  13.788  10.500
14285W        W84166  37.551   6.741   4.210
14286W        W84167  18.102  32.627   3.653
14287W        W84168  33.507  34.100   2.347
14288W        W84169  43.294  15.295   3.771
14289W        W84170   0.857  32.121   3.817
14290W        W84171   4.874  18.713  13.974
14291W        W84172  11.760   8.278   2.403
14292W        W84173  22.057  30.469  11.068
14293W        W84174  29.596   8.379  14.761
14294W        W84175  37.546   8.829  11.870
14295W        W84176   7.217  19.538   3.340
14296W        W84177  17.073  41.488  11.420
14297W        W84178  44.277  14.139  11.938
14298W        W84179   9.758  37.431  14.771
14299W        W84180  35.877  21.661  14.918
14300W        W84181   4.765   3.258   4.660
14301W        W84182  35.491  39.321  11.857
14302W        W84183   8.300   9.225  12.095
14303W        W84184   5.422  19.721  11.011
14304W        W84185  43.368   2.453   4.212
14305W        W84186  21.023  13.106   4.682
14306W        W84187  22.039   2.810   4.814
14307W        W84188  14.634  36.921   4.776
14308W        W84189   2.936  28.143  14.391
14309W        W84190  32.025  30.083  11.548
14310W        W84191   3.827  28.147   1.446
14311W        W84192  15.318  34.582   2.822
14312W        W84193   3.417  21.553  14.460
14313W        W84194  32.135   9.799   3.320
14314W        W84195  27.636  30.929   2.699
14315W        W84196   4.940  34.414   1.923
14316W        W84197  35.419   5.416  14.833
14317W        W84198  23.735  25.710   3.351
14318W        W84199  19.112  13.700   1.419
14319W        W84200  13.286   2.917   0.477
14320W        W84201  32.071  21.180  12.366
14321W        W84202  31.010   6.332   4.613
14322W        W84203  39.876  25.965   0.463
14323W        W84204  10.642   1.785   0.899
14324W        W84205   8.197  39.944   0.837
14325W        W84206  39.358  31.911   3.173
14326W        W84207  26.188  28.938  13.795
14327W        W84208  28.681  14.819   4.755
14328W        W84209  25.026   5.710   4.785
14329W        W84210  33.498  16.785  12.570
14330W        W84211   8.821  40.928   1.821
14331W        W84212  39.021  35.404  10.984
14332W        W84213  34.925  33.623  12.505
14333W        W84214  12.644  37.854   4.170
14334W        W84215  13.138   7.853   4.636
14335W        W84216  16.177   2.384   1.289
14336W        W84217   2.787   4.393   0.418
14337W        W84218  36.550  42.840  13.536
14338W        W84219  17.766  21.715   3.785
14339W        W84220  16.305   1.333  10.409
14340W        W84221  20.602   3.435  14.889
14341W        W84222   3.934  30.975  10.604
14342W        W84223  40.964   8.742  11.462
14343W        W84224  31.040  34.531   1.425
14344W        W84225  26.117  14.120   0.861
14345W        W84226  39.419   5.902   1.377
14346W        W84227   5.725   7.783  12.922
14347W        W84228  23.033   6.206   9.946
14348W        W84229  16.195  13.683  12.032
14349W        W84230  43.009  33.618   3.186
14350W        W84231   8.687  43.512   1.847
14351W        W84232  26.551  15.632  14.978
14352W        W84233  30.623   1.833   2.736
14353W        W84234   5.912   2.236   2.840
14354W        W84235  15.651  41.013   3.759
14355W        W84236  16.157  31.562  12.484
14356W        W84237  26.486  28.631   5.195
14357W        W84238  13.835  36.576   5.672
14358W        W84239   5.886  42.935   2.361
14359W        W84240  18.772  42.026  11.443
14360W        W84241  26.120   6.311  11.962
14361W        W84242  13.228  28.600   4.267
14362W        W84243   7.812   7.240  11.964
14363W        W84244  44.459  44.497  14.375
14364W        W84245  41.879  42.441  13.427
14365W        W84246  37.000  34.934  14.412
14366W        W84247  11.659  37.083  12.907
14367W        W84248  15.767   5.266   2.883
14368W        W84249  14.654  33.425  14.010
14369W        W84250  29.494   1.360   3.678
14370W        W84251  40.919   0.401   4.158
14371W        W84252  10.720  27.540   1.427
14372W        W84253   8.363   3.877   0.901
14373W        W84254   9.646   0.472  11.064
14374W        W84255  35.380  31.643   2.246
14375W        W84256  32.897  32.142  11.874
14376W        W84257  12.147  26.113  13.996
14377W        W84258  39.382  35.060  13.828
14378W        W84259  20.252  19.584   4.240
14379W        W84260  36.864  38.519  10.940
14380W        W84261  42.841  38.505   0.339
14381W        W84262  34.916   1.455   4.247
14382W        W84263  44.754  13.198  13.850
14383W        W84264  13.665   1.429  11.858
14384W        W84265   5.303   5.330  12.851
14385W        W84266  32.975  14.606   3.701
14386W        W84267   7.896  28.018  12.464
14387W        W84268   5.306  11.829  12.383
14388W        W84269  31.542  44.804  10.514
14389W        W84270  26.648  33.462   4.752
14390W        W84271  31.028  41.376  13.905
14391W        W84272   0.329   0.937  14.497
14392W        W84273   8.265  32.084   2.328
14393W        W84274  31.120  34.444  11.411
14394W        W84275   2.835   0.956  13.458
14395W        W84276  34.934  29.554  13.524
14396W        W84277   9.794   3.430  12.484
14397W        W84278  11.222  26.101  14.290
14398W        W84279  28.966  15.711   2.698
14399W        W84280  40.492  28.681   2.383
14400W        W84281   0.270  18.776  10.409
14401W        W84282  28.449   3.744  14.457
14402W        W84283  10.847  32.471   1.863
14403W        W84284  25.020   7.733  10.527
14404W        W84285  21.625  30.939   0.746
14405W        W84286   1.939  15.784   4.646
14406W        W84287  25.578   1.958   1.894
14407W        W84288  12.356   8.743   1.763
14408W        W84289   5.911  17.092  12.948
14409W        W84290  36.516  39.443  13.064
14410W        W84291  36.582  23.012   2.852
14411W        W84292  40.487   2.852  11.983
14412W        W84293   4.827  33.034  12.389
14413W        W84294   1.789  43.515  10.530
14414W        W84295  40.838  17.755  12.001
14415W        W84296  29.549  16.726   1.274
14416W        W84297   1.246  29.050   0.424
14417W        W84298  24.082  44.831   3.824
14418W        W84299  26.671  29.509   2.882
14419W        W84300  35.439  43.776   4.803
14420W        W84301  18.206   6.913   4.124
14421W        W84302  25.606  44.825   0.818
14422W        W84303   9.181  40.478  12.013
14423W        W84304  13.632  39.927  10.912
14424W        W84305  42.883  25.061   3.375
14425W        W84306  32.486   3.342  10.612
14426W        W84307  35.599   7.904  11.114
14427W        W84308   3.855  17.684  10.985
14428W        W84309  44.309   3.353  10.104
14429W        W84310  38.490   0.815  13.440
14430W        W84311  11.844  27.032  10.526
14431W        W84312  25.477  10.840  11.012
14432W        W84313  42.359  12.178   3.764
14433W        W84314   2.250  39.882   4.664
14434W        W84315  44.875  16.104  11.435
14435W        W84316  11.208  34.483  14.934
14436W        W84317  14.790  24.530  12.870
14437W        W84318  17.715  39.934  12.476
14438W        W84319  36.548  29.611   4.697
14439W        W84320  38.487  18.733  10.959
14440W        W84321  32.003  11.701   1.239
14441W        W84322  37.501  18.583  11.993
14442W        W84323  13.767   8.756  11.493
14443W        W84324  40.410   3.727  14.001
14444W        W84325  36.061  35.574   4.624
14445W        W84326  19.057  30.945  11.423
14446W        W84327  22.549  27.540  12.526
14447W        W84328  44.498   2.324  13.393
14448W        W84329  34.468  44.830  10.589
14449W        W84330   3.918   5.303  14.315
14450W        W84331  42.850  44.307   0.755
14451W        W84332   8.818   6.774  11.965
14452W        W84333   0.414  10.322  13.967
14453W        W84334  32.006  29.547   4.182
14454W        W84335  15.603  30.112   4.782
14455W        W84336   1.758  35.085  12.379
14456W        W84337  24.641   8.702   4.174
14457W        W84338  31.645  10.786   3.361
14458W        W84339  33.523  15.723   3.179
14459W        W84340  18.289  14.740   2.289
14460W        W84341  18.253  12.687   1.893
14461W        W84342  17.704   3.760   4.807
14462W        W84343  26.031  26.503   9.920
14463W        W84344  12.837  14.188  10.632
14464W        W84345   1.759  23.660   2.313
14465W        W84346  35.090  18.768  14.494
14466W        W84347  20.543  29.561   2.845
14467W        W84348  27.101  29.033  10.129
14468W        W84349  15.188   3.919  11.501
14469W        W84350  38.524  13.247   0.464
14470W        W84351  34.872  12.321  11.060
14471W        W84352  43.942  13.290  14.285
14472W        W84353  43.951   2.250   1.851
14473W        W84354  40.369  15.139   0.890
14474W        W84355  33.593  10.210   4.755
14475W        W84356   0.372  26.104  13.010
14476W        W84357  23.527  18.264  13.406
14477W        W84358  38.495   7.404   3.186
14478W        W84359  14.200  23.512   0.445
14479W        W84360  26.061  44.919   3.731
14480W        W84361  37.384  10.366   3.753
14481W        W84362  13.702  22.529   3.761
14482W        W84363  33.026  44.401  13.878
14483W        W84364  24.616  33.441  12.405
14484W        W84365  11.231  24.006  13.947
14485W        W84366  19.043   6.282  13.387
14486W        W84367  18.277  21.605  14.507
14487W        W84368  43.348  27.690  12.941
14488W        W84369  32.108  18.774  14.403
14489W        W84370  43.416  31.019   0.878
14490W        W84371  19.771   2.723   2.788
14491W        W84372   0.889  11.339   3.790
14492W        W84373  11.629   1.483   1.832
14493W        W84374  22.519  24.998  12.006
14494W        W84375  12.280   2.888  12.061
14495W        W84376  28.032  23.597  12.411
14496W        W84377  27.520  21.063  10.503
14497W        W84378  28.014  20.227   4.694
14498W        W84379  20.273  32.421   1.803
14499W        W84380  38.354  12.673  14.980
14500W        W84381   2.900  23.170  11.466
14501W        W84382   1.347  31.948   3.222
14502W        W84383  42.453  18.138  10.918
14503W        W84384  30.926  38.934  14.335
14504W        W84385  24.558  24.597   0.737
14505W        W84386  43.018   9.211  10.411
14506W        W84387  17.710  23.560  13.994
14507W        W84388  32.018  38.054   1.357
14508W        W84389  11.363  15.264   1.447
14509W        W84390   8.785  26.555  10.429
14510W        W84391  14.702  21.745   0.433
14511W        W84392   3.799  14.146  13.019
14512W        W84393  14.650   3.442   5.247
14513W        W84394  13.326  41.965  11.901
14514W        W84395   7.893  39.002   0.962
14515W        W84396  11.347  39.990  11.905
14516W        W84397  18.645  36.362  13.494
14517W        W84398  42.011  21.111  11.488
14518W        W84399  44.921  36.485   1.380
14519W        W84400  35.107  30.109  12.926
14520W        W84401   7.288  10.354   0.845
14521W        W84402   0.924  13.277  11.580
14522W        W84403  42.466  18.751  12.007
14523W        W84404  36.407   6.259   3.201
14524W        W84405  28.598  14.627  14.939
14525W        W84406  41.837  27.619  13.900
14526W        W84407  21.747  19.167   1.309
14527W        W84408  12.290  11.336  14.830
14528W        W84409  33.025   9.668   0.375
14529W        W84410  30.419   5.848  14.480
14530W        W84411   6.307   9.744  13.020
14531W        W84412  10.221   4.237   1.863
14532W        W84413   3.867  15.803  14.910
14533W        W84414  17.583  28.958  12.857
14534W        W84415  44.978  10.750  13.032
14535W        W84416  30.653   2.255   3.704
14536W        W84417  33.040  43.950   2.787
14537W        W84418  26.165   7.890  12.452
14538W        W84419  18.700  30.559   0.847
14539W        W84420  29.652  26.591  12.000
14540W        W84421  10.871  34.433  11.411
14541W        W84422  37.419  15.777   5.106
14542W        W84423  36.478  32.907  13.910
14543W        W84424  43.481  33.073   2.890
14544W        W84425  30.560  43.931  10.412
14545W        W84426  17.722  15.808  11.564
14546W        W84427  37.545  36.959   1.324
14547W        W84428  40.960   8.690   2.857
14548W        W84429   5.304  31.603  14.295
14549W        W84430  28.641   0.342  14.308
14550W        W84431  17.130  20.553  13.472
14551W        W84432  40.342   8.296  11.119
14552W        W84433  19.138  10.809   4.757
14553W        W84434  28.453  11.337   2.759
14554W        W84435  41.028  29.111  13.864
14555W        W84436  18.612   6.379   3.311
14556W        W84437  30.600  33.560  10.936
14557W        W84438  16.094   2.798  13.352
14558W        W84439  23.550  18.615   3.175
14559W        W84440  21.191  22.666  11.008
14560W        W84441  17.802  15.800  14.466
14561W        W84442  23.665  15.260   2.664
14562W        W84443   8.768  24.643   0.265
14563W        W84444  37.527  44.274  12.469
14564W        W84445  22.007  39.351  12.868
14565W        W84446   5.719  26.005   0.302
14566W        W84447  40.322   9.273   0.372
14567W        W84448  39.037  27.996   0.966
14568W        W84449  31.574  19.233   3.839
14569W        W84450  37.529  22.609   2.411
14570W        W84451   6.421  43.812   2.402
14571W        W84452   0.345  30.952   0.773
14572W        W84453   9.819  36.069  10.621
14573W        W84454  33.977  13.636  13.516
14574W        W84455  23.148  34.897   0.274
14575W        W84456   9.389  42.967   4.275
14576W        W84457  35.443   4.814  12.938
14577W        W84458   6.379  25.994   2.321
14578W        W84459  10.373  40.542   1.278
14579W        W84460  28.095   5.322   4.755
14580W        W84461  23.025  32.598  11.387
14581W        W84462  42.305  42.420   2.292
14582W        W84463  27.635  37.012   2.335
14583W        W84464  41.005  24.596   0.965
14584W        W84465  14.682   2.765  13.540
14585W        W84466  18.717  20.616  10.888
14586W        W84467  15.261   7.852   3.382
14587W        W84468  11.667  29.921  14.871
14588W        W84469  31.962   1.288  12.513
14589W        W84470  28.929  21.747  13.379
14590W        W84471  26.118  27.690   2.861
14591W        W84472  15.649  40.854   1.750
14592W        W84473  11.155  42.004   4.208
14593W        W84474  44.855  12.268  10.456
14594W        W84475   9.266  25.662   1.310
14595W        W84476  17.702   4.356  10.520
14596W        W84477   1.873  42.958   0.905
14597W        W84478  41.437  20.528  12.975
14598W        W84479  30.466  36.024   2.743
14599W        W84480   7.835  12.238  11.524
14600W        W84481  29.983  20.141  13.967
14601W        W84482  17.295   7.330  13.037
14602W        W84483  37.475   7.711   2.267
14603W        W84484  36.082  41.945   2.276
14604W        W84485  32.928   3.893   0.781
14605W        W84486   1.424  39.961   2.396
14606W        W84487  40.531  34.999  14.368
14607W        W84488   6.304  25.167   0.378
14608W        W84489  20.042  30.561   4.142
14609W        W84490   6.270   5.730  14.445
14610W        W84491  28.971  28.582   2.267
14611W        W84492   0.414  35.870   2.377
14612W        W84493  42.472  40.508   2.717
14613W        W84494  36.424  39.826   0.297
14614W        W84495  38.414   7.830  11.896
14615W        W84496  21.592  18.706   3.374
14616W        W84497  19.279  29.989  10.640
14617W        W84498  32.979  37.358   1.707
14618W        W84499  18.632  43.787   4.743
14619W        W84500   8.793  43.850  11.062
14620W        W84501   9.805  21.570  10.552
14621W        W84502   7.890  21.050   2.715
14622W        W84503  25.627  31.511  10.530
14623W        W84504  36.934  12.264   1.219
14624W        W84505   0.384  31.523   2.416
14625W        W84506  12.855  33.875  14.862
14626W        W84507  35.086  33.445   2.223
14627W        W84508  42.972  10.169   1.438
14628W        W84509  40.940  28.140  14.913
14629W        W84510  22.044   9.222   0.910
14630W        W84511  28.598  42.366  10.918
14631W        W84512  11.184   3.276   1.723
14632W        W84513  42.780   6.384   3.823
14633W        W84514  33.592  35.030  12.966
14634W        W84515   7.369  22.108   0.276
14635W        W84516  36.036  27.974  11.935
14636W        W84517   9.296   9.369   2.345
14637W        W84518  18.676  17.110   5.159
14638W        W84519   2.830   1.795  14.773
14639W        W84520  34.586  21.224   3.741
14640W        W84521   0.482  30.449  11.427
14641W        W84522  12.300  18.679   3.797
14642W        W84523   3.740  10.754  13.825
14643W        W84524  12.359  19.614   4.814
14644W        W84525  39.981  36.422  13.410
14645W        W84526  13.715  11.325  10.598
14646W        W84527  20.616  33.613   4.696
14647W        W84528   0.778  26.571   5.136
14648W        W84529  13.296   2.861  11.076
14649W        W84530  32.948  17.722   3.732
14650W        W84531  32.964  18.682   0.887
14651W        W84532   1.469  28.947   0.756
14652W        W84533  17.633  14.245   1.223
14653W        W84534  16.152   5.202   0.933
14654W        W84535   2.769  19.248  12.093
14655W        W84536  37.536  36.443  11.099
14656W        W84537  12.160  14.821   4.253
14657W        W84538  41.501  10.861   3.793
14658W        W84539  25.162  20.044   4.344
14659W        W84540  26.607  24.676  11.865
14660W        W84541  13.801  13.127  10.636
14661W        W84542  26.034   4.392   2.664
14662W        W84543   0.475  27.505  10.946
14663W        W84544  39.850  12.615   4.654
14664W        W84545   4.205   5.212  14.904
14665W        W84546   5.788  28.623  12.425
14666W        W84547  25.023  32.435   4.834
14667W        W84548   2.268  28.148  11.931
14668W        W84549  19.610  28.655  13.474
14669W        W84550  22.009  13.352   0.914
14670W        W84551  25.216  39.063   3.327
14671W        W84552  18.189  41.382  11.015
14672W        W84553  27.051  43.311  10.436
14673W        W84554  43.301  12.265   3.279
14674W        W84555  38.377   2.337  13.485
14675W        W84556  41.851  41.307  13.993
14676W        W84557  20.129   6.257   1.857
14677W        W84558  29.579  28.042   3.684
14678W        W84559  19.235  16.262  11.923
14679W        W84560  27.464  41.343  12.362
14680W        W84561   8.190  13.719  14.356
14681W        W84562  14.271  41.043   3.220
14682W        W84563  34.070   2.317   4.175
14683W        W84564  28.983   8.373  10.984
14684W        W84565  27.581  17.113  13.432
14685W        W84566  15.132  38.884  11.034
14686W        W84567   3.836  10.639  10.432
14687W        W84568  39.492   6.273   2.304
14688W        W84569   1.911  25.156  13.373
14689W        W84570  36.566  39.436   3.217
14690W        W84571   5.366  44.960  12.038
14691W        W84572  21.050  11.162  10.427
14692W        W84573  35.407  42.510   4.206
14693W        W84574  14.738   1.828   1.755
14694W        W84575  28.044  19.536   3.756
14695W        W84576  42.814  10.235   0.316
14696W        W84577  26.619  44.897  11.030
14697W        W84578  31.423  17.125   9.955
14698W        W84579  43.515  35.904  14.443
14699W        W84580  18.236  24.715  14.323
14700W        W84581   5.283   2.739  11.049
14701W        W84582  28.471  43.413   3.725
14702W        W84583  33.024  28.602   0.777
14703W        W84584  43.317  10.330  11.472
14704W        W84585  15.671  35.404  13.548
14705W        W84586  22.627   7.861  11.398
14706W        W84587  29.574  21.744  14.871
14707W        W84588   1.289  12.688   1.933
14708W        W84589  18.693  34.408  14.790
14709W        W84590  20.042  17.666   1.713
14710W        W84591  39.477  25.477   1.794
14711W        W84592  40.335  21.682   1.835
14712W        W84593  11.783  19.230   3.326
14713W        W84594  20.562  14.625   1.409
14714W        W84595  38.962   0.924   3.206
14715W        W84596   1.848   9.816  14.344
14716W        W84597  37.024  26.597   4.157
14717W        W84598   9.263  19.637  13.442
14718W        W84599  44.443   9.780  14.419
14719W        W84600   3.733  19.182   3.830
14720W        W84601   5.201  11.627   3.858
14721W        W84602  35.601  29.476  14.920
14722W        W84603   9.824   1.902  12.522
14723W        W84604  10.219  37.840   1.842
14724W        W84605  21.226   1.374  14.767
14725W        W84606  33.890  15.818   3.842
14726W        W84607   7.305  15.163  14.016
14727W        W84608  25.525  24.487  11.050
14728W        W84609  38.909   7.776   3.267
14729W        W84610  40.407  41.474  10.473
14730W        W84611  13.188   8.656   3.749
14731W        W84612   1.379  15.665  13.930
14732W        W84613  17.687  19.670   4.628
14733W        W84614  44.350   9.243   3.332
14734W        W84615  33.607  35.930  11.520
14735W        W84616  21.711  44.465  14.958
14736W        W84617   7.672  29.423  10.945
14737W        W84618  14.809   0.449   1.327
14738W        W84619  25.976  12.649  10.898
14739W        W84620  30.484  33.982  12.387
14740W        W84621   5.275   8.198  14.812
14741W        W84622   4.425  15.742   4.204
14742W        W84623   9.369   8.398  11.000
14743W        W84624  31.515  35.007  13.385
14744W        W84625  11.654  18.095  11.597
14745W        W84626  30.424  44.437   3.706
14746W        W84627  35.109  38.861  13.415
14747W        W84628  22.240  16.607  10.102
14748W        W84629  21.518   2.733  10.949
14749W        W84630  22.676  23.000   4.298
14750W        W84631  31.404  29.589   4.272
14751W        W84632  41.296   0.455   2.764
14752W        W84633  17.246  29.056   1.873
14753W        W84634   7.759   8.329   1.272
14754W        W84635  17.708  20.758   3.377
14755W        W84636  33.119   0.401  11.520
14756W        W84637   5.212  23.005   4.273
14757W        W84638  29.514  22.225   3.838
14758W        W84639  26.579  43.363   3.245
14759W        W84640  17.150  26.113  10.446
14760W        W84641  11.691  10.191  12.949
14761W        W84642  21.257  38.545   1.849
14762W        W84643  25.989  26.653  13.882
14763W        W84644  29.105  11.200   2.858
14764W        W84645  29.093   2.758   4.609
14765W        W84646  16.572  39.049  10.434
14766W        W84647  19.741   1.843  11.589
14767W        W84648  24.973  33.413  11.949
14768W        W84649   1.814  43.480   4.119
14769W        W84650  14.120  27.683  13.461
14770W        W84651  40.962  18.182   0.273
14771W        W84652  43.401  24.564   3.198
14772W        W84653  40.894  35.453   4.619
14773W        W84654  27.104   6.388   4.714
14774W        W84655   1.483   9.677   1.260
14775W        W84656  33.923   0.437   3.167
14776W        W84657  30.633  27.013  10.450
14777W        W84658   6.715   0.357   1.849
14778W        W84659  22.597  18.766  10.623
14779W        W84660  21.612  21.528   1.926
14780W        W84661   4.731  19.761  14.860
14781W        W84662  15.180   9.375  11.033
14782W        W84663  12.681  41.803   0.468
14783W        W84664  27.153   7.691   0.900
14784W        W84665   4.703  18.128   3.235
14785W        W84666   1.870  14.285  12.557
14786W        W84667   9.352  39.451   2.817
14787W        W84668  41.353  21.030   4.748
14788W        W84669   2.813  19.165  14.337
14789W        W84670  26.687   5.855   1.842
14790W        W84671  43.438  27.013  11.393
14791W        W84672   9.848  38.539   3.805
14792W        W84673  41.453  33.904  12.376
14793W        W84674   7.375  17.122   1.254
14794W        W84675  26.023  32.986  11.013
14795W        W84676  41.972  13.110  10.507
14796W        W84677  18.171   8.788   2.808
14797W        W84678  21.563  10.804  12.423
14798W        W84679  26.155  12.289   0.768
14799W        W84680   4.744  20.109   2.738
14800W        W84681  31.634   1.332  14.880
14801W        W84682  15.747  36.982   2.884
14802W        W84683  40.443  11.854   4.738
14803W        W84684  33.599  18.233   1.751
14804W        W84685  21.708  28.597  12.541
14805W        W84686  35.362  31.515   3.851
14806W        W84687  26.588  38.333  11.074
14807W        W84688   0.931  16.713   4.127
14808W        W84689  17.189  42.811  14.390
14809W        W84690  28.954  27.577   1.744
14810W        W84691  36.948  33.478   3.330
14811W        W84692  24.668   0.411  14.487
14812W        W84693  28.570  34.397  11.056
14813W        W84694  19.239  43.415  11.030
14814W        W84695  24.494  19.764  10.939
14815W        W84696  15.156   0.744   4.824
14816W        W84697  18.695  29.470  10.937
14817W        W84698   8.747  18.164   4.275
14818W        W84699   7.286   8.825   5.321
14819W        W84700  10.144  30.551   0.263
14820W        W84701   2.375  30.144   2.200
14821W        W84702  14.306   1.931   2.291
14822W        W84703  36.488  12.301  13.419
14823W        W84704  30.477  32.446  11.869
14824W        W84705  41.858  40.305   2.375
14825W        W84706   7.666  38.036   3.703
14826W        W84707   4.914  29.537   1.283
14827W        W84708  15.097  43.513  12.030
14828W        W84709  26.197   3.790   2.227
14829W        W84710   0.754  41.882  11.961
14830W        W84711  21.728  21.233  10.639
14831W        W84712  37.917  40.383   3.180
14832W        W84713  42.488  40.477  13.456
14833W        W84714  37.474  38.022  11.984
14834W        W84715  17.793  10.211   2.283
14835W        W84716  13.824   9.302  10.628
14836W        W84717  33.551  39.896   4.218
14837W        W84718  23.597  11.794   1.774
14838W        W84719  38.819  16.662  10.485
14839W        W84720   7.831  34.953  14.779
14840W        W84721  43.992  16.749   3.834
14841W        W84722   7.417  26.154   1.766
14842W        W84723   9.744  38.535   2.236
14843W        W84724   3.727  43.946   4.214
14844W        W84725  37.412   1.837  10.593
14845W        W84726  26.020  15.165  11.002
14846W        W84727  43.419  32.550  14.840
14847W        W84728  43.340  10.717  11.118
14848W        W84729  32.577  29.113  12.464
14849W        W84730  21.033  33.095   2.672
14850W        W84731  15.586  32.011  13.004
14851W        W84732   2.396  13.772   1.369
14852W        W84733  28.940  31.113  14.811
14853W        W84734   1.953  29.503   4.798
14854W        W84735  10.636  23.494   4.167
14855W        W84736  26.150  20.070   1.834
14856W        W84737   5.242  23.532  13.426
14857W        W84738   6.914  25.048   1.230
14858W        W84739   5.704  44.264  12.559
14859W        W84740   4.711   1.804   0.966
14860W        W84741  34.494  22.195  14.496
14861W        W84742   4.303  18.161   1.394
14862W        W84743  31.907  12.231  11.091
14863W        W84744  42.959  16.086  11.991
14864W        W84745   4.919  33.464  14.508
14865W        W84746  25.008  36.077   0.922
14866W        W84747  12.271  20.179   3.742
14867W        W84748   2.366  23.534  10.605
14868W        W84749  17.222  29.650   0.257
14869W        W84750  43.767  30.082  11.473
14870W        W84751  39.338  31.506  10.474
14871W        W84752  34.040  26.577  13.376
14872W        W84753  30.082  40.967  10.644
14873W        W84754  35.927  27.030  11.030
14874W        W84755   6.771  22.620  11.998
14875W        W84756  31.028  32.585   2.375
14876W        W84757  36.968  10.852   4.292
14877W        W84758  42.333  10.827   3.717
14878W        W84759   9.673  12.617  11.423
14879W        W84760  16.797  29.608  11.077
14880W        W84761  18.185  36.444   3.312
14881W        W84762   9.834  41.306   2.356
14882W        W84763  43.511  14.310  10.984
14883W        W84764  28.645  14.321  10.940
14884W        W84765  13.169  42.844  14.028
14885W        W84766  34.879  44.906   0.798
14886W        W84767  19.194   7.816   2.839
14887W        W84768  34.908   6.693   4.777
14888W        W84769  36.376  31.574   1.395
14889W        W84770  20.236  19.164  12.366
14890W        W84771   4.219  24.087  12.843
14891W        W84772   4.414  40.400   3.216
14892W        W84773   7.773  44.444  13.330
14893W        W84774  43.469  15.724  12.445
14894W        W84775   5.716  25.639   2.842
14895W        W84776  18.621   9.666  11.914
14896W        W84777  25.159  17.797  11.104
14897W        W84778  44.979  12.219  12.354
14898W        W84779  40.546  25.556   1.334
14899W        W84780   4.372  15.169  12.966
14900W        W84781   2.287   5.376   2.794
14901W        W84782  23.081  24.143   0.387
14902W        W84783  25.709  41.995   1.374
14903W        W84784   3.897  40.434  14.798
14904W        W84785  29.926  25.631   2.339
14905W        W84786   2.333  40.415  12.874
14906W        W84787  11.828   5.204  12.511
14907W        W84788  27.451  35.515   1.794
14908W        W84789   6.837   9.672  14.358
14909W        W84790   4.701  37.455  13.874
14910W        W84791  43.961  23.669   4.350
14911W        W84792  17.559  41.531   1.438
14912W        W84793  42.427  40.317  14.005
14913W        W84794  38.350  35.545   0.873
14914W        W84795   7.317  26.048   4.319
14915W        W84796  19.135  28.120   3.691
14916W        W84797  29.490   5.377  13.798
14917W        W84798  29.538  44.835  13.406
14918W        W84799  28.059  14.699  10.934
14919W        W84800  30.146   3.897   0.326
14920W        W84801  13.830  39.502  10.437
14921W        W84802   6.347   4.368  11.915
14922W        W84803  33.982   3.850   2.242
14923W        W84804   9.190  40.809   3.295
14924W        W84805  21.167   3.827   0.376
14925W        W84806  38.359  34.912   0.945
14926W        W84807  27.645  22.164  13.519
14927W        W84808  10.671  39.975   0.911
14928W        W84809  27.137  21.055  14.770
14929W        W84810   8.306   8.364  10.490
14930W        W84811  42.895  32.899   4.299
14931W        W84812   7.782  16.189   0.745
14932W        W84813   2.760   4.349   2.698
14933W        W84814  25.576  44.460   0.427
14934W        W84815  39.334  21.152   4.832
14935W        W84816  22.695   7.294  14.984
14936W        W84817  17.187  37.467  10.013
14937W        W84818   9.735  43.461  12.469
14938W        W84819  27.544  13.651   0.771
14939W        W84820  26.170   7.685  10.410
14940W        W84821  24.028   7.843  10.552
14941W        W84822  33.608  17.152   2.833
14942W        W84823  12.152  43.311  10.528
14943W        W84824   7.896  20.233  10.411
14944W        W84825  23.641  22.055  12.491
14945W        W84826   1.733   6.834   2.828
14946W        W84827  16.667  36.507  10.431
14947W        W84828   7.667   5.845   3.387
14948W        W84829   8.824  30.949   1.757
14949W        W84830  36.461  24.984  13.966
14950W        W84831   6.301  15.652  12.845
14951W        W84832  25.638  16.691  11.878
14952W        W84833  25.094  40.991   1.763
14953W        W84834  15.665  20.523  13.343
14954W        W84835  12.671   8.858  14.885
14955W        W84836  41.464  20.201  10.550
14956W        W84837   6.381  19.220  11.955
14957W        W84838  42.301  14.279   3.811
14958W        W84839  35.056  29.036  10.909
14959W        W84840  19.220  16.774   2.673
14960W        W84841  36.040   3.906   2.243
14961W        W84842  20.645  42.840   3.324
14962W        W84843   2.346  35.588   1.816
14963W        W84844  34.956   3.291  11.581
14964W        W84845  39.834  15.257  11.995
14965W        W84846  19.569  44.886   2.701
14966W        W84847  35.501  33.972   1.299
14967W        W84848  29.439  41.014  11.578
14968W        W84849  44.442  42.900   3.345
14969W        W84850  28.084  24.484  11.014
14970W        W84851  13.160  23.633  11.522
14971W        W84852  12.642  41.931  12.978
14972W        W84853  42.009  35.959   4.618
14973W        W84854   3.768   1.815   0.891
14974W        W84855   7.909   1.918  13.959
14975W        W84856   2.375  25.135   3.636
14976W        W84857  12.266  27.501   9.664
14977W        W84858  13.298  10.651  12.478
14978W        W84859  19.680  34.600   1.369
14979W        W84860   8.197  23.050  11.058
14980W        W84861  22.677  35.439  13.798
14981W        W84862  16.074   4.835  12.977
14982W        W84863  34.921  40.385   0.256
14983W        W84864  22.619   8.263   4.784
14984W        W84865   7.694  23.669   2.749
14985W        W84866  32.443  40.833  11.945
14986W        W84867  30.463  13.194   1.826
14987W        W84868   6.749  43.321  14.436
14988W        W84869  17.737  35.098   2.401
14989W        W84870  31.108  22.525  14.968
14990W        W84871  42.804  14.339   2.392
14991W        W84872  31.023  33.068   2.221
14992W        W84873  23.038  33.470   4.685
14993W        W84874  15.612  27.494  12.506
14994W        W84875  15.229   2.936   4.161
14995W        W84876  26.527   1.251  11.882
14996W        W84877  23.733  40.496  13.384
14997W        W84878  42.884   7.752  14.290
14998W        W84879  42.782   4.377  13.526
14999W        W84880   6.356  27.559  13.875
15000W        W84881  42.781  33.586  11.904
15001W        W84882  41.301   4.861  11.980
15002W        W84883  33.573  30.037   0.247
15003W        W84884  36.391  27.640  12.558
15004W        W84885  34.561  42.446  10.435
15005W        W84886  23.109   7.304   3.665
15006W        W84887  18.093  32.016  12.436
15007W        W84888   6.822  10.790   0.360
15008W        W84889  31.639  16.267   1.877
15009W        W84890  38.992  32.122   3.754
15010W        W84891  27.491  44.478  14.762
15011W        W84892  21.756  17.137  13.883
15012W        W84893  30.437  39.893   1.708
15013W        W84894   4.919  33.058  13.040
15014W        W84895   4.338  15.177   2.794
15015W        W84896  32.958   7.902   0.810
15016W        W84897  40.318  18.771   2.781
15017W        W84898   3.895  23.173   1.390
15018W        W84899  40.971  30.965  12.416
15019W        W84900   2.902   9.775   3.640
15020W        W84901  43.492  30.475   4.331
15021W        W84902   1.303  35.036  12.444
15022W        W84903  13.628  38.049  12.488
15023W        W84904  31.123  33.415  10.557
15024W        W84905  36.842   9.220   2.692
15025W        W84906  41.398  17.306   2.215
15026W        W84907  11.767  30.563   1.932
15027W        W84908  39.935   9.868  10.496
15028W        W84909  41.351  18.157  13.925
15029W        W84910   1.325   1.309   2.707
15030W        W84911  37.521   1.915  10.897
15031W        W84912  34.088  34.912  12.573
15032W        W84913  35.465  35.577  11.947
15033W        W84914  16.759  11.723   0.424
15034W        W84915  21.713  32.526   1.333
15035W        W84916  24.010  41.845  12.069
15036W        W84917  25.114  31.110  12.893
15037W        W84918  43.771  21.026  12.921
15038W        W84919  27.174  15.303   0.418
15039W        W84920  11.720  15.784   0.341
15040W        W84921  36.095  20.688  13.932
15041W        W84922  25.013  24.194  13.965
15042W        W84923  14.606   7.358  14.356
15043W        W84924  30.569  32.593  14.311
15044W        W84925   9.285  27.555   4.623
15045W        W84926   5.692   4.703   0.480
15046W        W84927  10.862  24.186   3.676
15047W        W84928  26.194   6.320   1.247
15048W        W84929  36.536  14.786   2.823
15049W        W84930  35.070  41.999   0.392
15050W        W84931  15.596  31.541   4.168
15051W        W84932  18.755  23.583   9.977
15052W        W84933  32.023  28.045   2.231
15053W        W84934  23.075  28.625  11.462
15054W        W84935  16.617  14.819   2.224
15055W        W84936  11.698  42.422  13.356
15056W        W84937  42.837   6.895   0.851
15057W        W84938   5.906   8.885   0.961
15058W        W84939  17.584  36.553  10.614
15059W        W84940   7.701  18.272  13.006
15060W        W84941  44.413   0.952  12.446
15061W        W84942  20.074  43.013  12.964
15062W        W84943  15.232  41.986   1.407
15063W        W84944  13.681  11.758   2.706
15064W        W84945  36.376   3.776  10.921
15065W        W84946  39.362  35.560   4.604
15066W        W84947  23.203  44.263   0.741
15067W        W84948  37.546  18.705   0.405
15068W        W84949  34.006  41.819  10.577
15069W        W84950  40.907  41.292  14.432
15070W        W84951  23.635   3.360   2.192
15071W        W84952  40.504  36.470   0.340
15072W        W84953  11.236  27.448  10.979
15073W        W84954  16.714  19.541   4.722
15074W        W84955  16.282  29.989  11.053
15075W        W84956   8.876   8.257  12.873
15076W        W84957  40.817  11.625  13.892
15077W        W84958  29.567  33.593   0.448
15078W        W84959  10.278   5.856  10.435
15079W        W84960  27.479   8.398  13.462
15080W        W84961  25.142  21.725   3.761
15081W        W84962  43.887   6.701  14.851
15082W        W84963  27.595  30.137  13.940
15083W        W84964   3.271  41.905  14.383
15084W        W84965  10.246  13.136  12.853
15085W        W84966  39.048   4.938   1.391
15086W        W84967  12.664  38.523  13.361
15087W        W84968   9.193   1.855  13.428
15088W        W84969  32.015   9.297  14.501
15089W        W84970  22.145  40.342   1.431
15090W        W84971  16.793  23.996  14.485
15091W        W84972  42.915  13.301   3.753
15092W        W84973  16.246   1.750  11.872
15093W        W84974   0.755  11.647   0.901
15094W        W84975  43.343   0.797   2.300
15095W        W84976  37.511  33.409  12.937
15096W        W84977  13.213   1.946   0.253
15097W        W84978  40.311   8.389  12.409
15098W        W84979  44.482   1.796   0.327
15099W        W84980  38.445  33.892   4.823
15100W        W84981  15.257   0.389  11.496
15101W        W84982  27.013  17.653  12.457
15102W        W84983  35.092  38.559   2.749
15103W        W84984   5.383  10.786  12.538
15104W        W84985  14.668  23.148   3.791
15105W        W84986  27.594   0.987  13.466
15106W        W84987  11.164  14.711  11.859
15107W        W84988  16.083  22.649   2.706
15108W        W84989  29.629  19.159   2.221
15109W        W84990  13.779  35.876  13.473
15110W        W84991   6.201  11.254   1.856
15111W        W84992  34.986   9.171   3.224
15112W        W84993  39.504   1.748   2.261
15113W        W84994  41.339  33.547  14.785
15114W        W84995  21.225  26.618   3.359
15115W        W84996  41.871  22.577  12.949
15116W        W84997   1.822  20.113   3.651
15117W        W84998  18.754  26.003   2.758
15118W        W84999   8.860  35.389   2.202
15119W        W85000  24.087   0.401   3.711
15120W        W85001   6.391  24.593   2.890
15121W        W85002  44.347  28.502   1.245
15122W        W85003  30.910   0.315  12.564
15123W        W85004  15.261   2.840  14.321
15124W        W85005   6.385  42.394  10.983
15125W        W85006  38.530  26.990  11.431
15126W        W85007  19.224  29.614   1.430
15127W        W85008  28.056  41.383   2.692
15128W        W85009  24.559  12.255  14.913
15129W        W85010  17.264  22.725   3.737
15130W        W85011  24.206  22.230   4.627
15131W        W85012  27.102   3.280  14.285
15132W        W85013  38.538  38.987  11.914
15133W        W85014  41.328  23.609  14.314
15134W        W85015  38.045  30.085   2.354
15135W        W85016   4.754  35.478   4.618
15136W        W85017  19.679  31.423  14.966
15137W        W85018  31.641  19.569   2.411
15138W        W85019   9.786   0.384  12.360
15139W        W85020  31.570  34.477   2.678
15140W        W85021  40.873  42.363  10.974
15141W        W85022  28.555  19.114  13.845
15142W        W85023  18.654  39.055   1.217
15143W        W85024  24.649   2.406  10.518
15144W        W85025  31.985  20.672  12.982
15145W        W85026  33.613   1.363  14.876
15146W        W85027  26.038  24.042  13.520
15147W        W85028  33.949  20.044  12.979
15148W        W85029   8.789   8.201   0.445
15149W        W85030  25.576  11.828   0.455
15150W        W85031  30.029  42.519   3.861
15151W        W85032  19.644  22.706  10.440
15152W        W85033  31.503  13.831  12.878
15153W        W85034  18.731  42.790   1.867
15154W        W85035  42.444  43.011  13.900
15155W        W85036   4.725  23.180  10.418
15156W        W85037  12.135   7.330  14.370
15157W        W85038  25.060   7.318   4.209
15158W        W85039  20.562  43.512   2.285
15159W        W85040  43.995  12.336   0.414
15160W        W85041  26.688  10.852   0.401
15161W        W85042  24.993  35.595   4.276
15162W        W85043  17.802  18.554   1.929
15163W        W85044  36.491  18.213  12.341
15164W        W85045  28.135  32.503  14.399
15165W        W85046   0.370  24.660  11.107
15166W        W85047  26.000  20.556  14.308
15167W        W85048   3.723  20.571   2.857
15168W        W85049  39.384  23.557   0.937
15169W        W85050  17.705  43.419  14.855
15170W        W85051  24.720  20.684  13.360
15171W        W85052  34.453  29.439   1.392
15172W        W85053  19.236  37.081  12.536
15173W        W85054  35.878  40.904  12.062
15174W        W85055  15.786  16.767   0.780
15175W        W85056  17.106   1.969   2.370
15176W        W85057  37.342  18.062   1.750
15177W        W85058   5.264   2.833  12.492
15178W        W85059  14.286  24.646  12.034
15179W        W85060  27.580  15.311  13.806
15180W        W85061  35.080   8.794   2.824
15181W        W85062  33.906  22.741  11.921
15182W        W85063   7.721  11.643  14.801
15183W        W85064  39.891  30.540   3.316
15184W        W85065  21.657  42.881  14.512
15185W        W85066  21.704  37.367  11.109
15186W        W85067  13.294  10.276   4.336
15187W        W85068  24.012   4.262   3.373
15188W        W85069  32.137  21.215   0.805
15189W        W85070   0.465  26.967  12.013
15190W        W85071  23.150  24.172   4.733
15191W        W85072  24.700  29.474  11.431
15192W        W85073  22.047  43.003  12.982
15193W        W85074  12.720  12.734  11.113
15194W        W85075  17.573  43.829   3.776
15195W        W85076   0.819  20.556  12.980
15196W        W85077  36.420  14.118  10.555
15197W        W85078   5.325   3.278   4.232
15198W        W85079   7.208   2.786  13.908
15199W        W85080  10.875   1.268   1.343
15200W        W85081  39.012  14.144  11.931
15201W        W85082   3.225  17.099  14.808
15202W        W85083  39.368  34.425  12.901
15203W        W85084  21.096  25.537   4.736
15204W        W85085  19.693   6.771   1.706
15205W        W85086   7.371   0.301   0.285
15206W        W85087  19.585   6.888   2.308
15207W        W85088  21.087  36.578   2.303
15208W        W85089  23.096  25.141   3.692
15209W        W85090  35.383  40.895   4.180
15210W        W85091  41.310  19.052   1.389
15211W        W85092  23.990  38.983  13.366
15212W        W85093  32.531  15.239   2.717
15213W        W85094  36.084  14.735   0.397
15214W        W85095  35.572  11.133   3.858
15215W        W85096  11.235  34.027   3.697
15216W        W85097  31.970   5.343  12.030
15217W        W85098  18.263  37.874  11.084
15218W        W85099   1.388  27.602   3.358
15219W        W85100  43.417  36.491  11.472
15220W        W85101   2.324   5.690  10.918
15221W        W85102   9.222  31.560  10.579
15222W        W85103  32.407  18.708   2.337
15223W        W85104  21.168  13.750   1.379
15224W        W85105  25.003  29.061   4.234
15225W        W85106  18.730  40.442  11.386
15226W        W85107   1.450  16.719   1.354
15227W        W85108  17.196   8.772  13.036
15228W        W85109  14.207  37.941  11.107
15229W        W85110  31.985  39.816   1.380
15230W        W85111   3.885   2.945  14.285
15231W        W85112   2.850  37.889  14.293
15232W        W85113  29.504  36.506  11.505
15233W        W85114   2.402   8.374  11.515
15234W        W85115   1.236  43.883   1.380
15235W        W85116  35.039  17.638   0.809
15236W        W85117  25.191  10.741   3.178
15237W        W85118  30.599  37.563  14.799
15238W        W85119  26.665  29.515  12.503
15239W        W85120   4.230  12.194  14.432
15240W        W85121  24.088   1.413   3.289
15241W        W85122  19.095  34.587  14.860
15242W        W85123  29.488   8.751   4.659
15243W        W85124  30.945   4.893   4.138
15244W        W85125  24.078   7.313   1.790
15245W        W85126  25.600  18.557   0.462
15246W        W85127  33.911   8.364   1.696
15247W        W85128  26.081  43.460  12.892
15248W        W85129  41.020   2.745   2.882
15249W        W85130   6.428   9.381  10.945
15250W        W85131  31.598  10.283   0.730
15251W        W85132  30.459  31.517   4.812
15252W        W85133  32.112  10.848  14.420
15253W        W85134  33.902  39.390   0.799
15254W        W85135  15.095  38.460  14.007
15255W        W85136  23.100   2.951  10.468
15256W        W85137   2.386   6.300   4.141
15257W        W85138  36.427  28.474   3.842
15258W        W85139  10.185  39.973   4.722
15259W        W85140  17.764  34.065  11.437
15260W        W85141   1.953  31.962  10.440
15261W        W85142  36.938  17.579  10.537
15262W        W85143   0.905   3.460   3.812
15263W        W85144  21.629  24.507  13.034
15264W        W85145  29.107  11.638  10.901
15265W        W85146  43.471  11.760   2.747
15266W        W85147  34.531  35.923   0.914
15267W        W85148  21.162  27.660  14.853
15268W        W85149  20.139  29.982  12.043
15269W        W85150  16.277  19.614  12.339
15270W        W85151  25.691   2.937  12.481
15271W        W85152  44.931  15.299  14.030
15272W        W85153  34.468   7.293  13.947
15273W        W85154  42.020  21.187   3.720
15274W        W85155  13.644  18.205  10.984
15275W        W85156  42.290  16.180   0.883
15276W        W85157  30.419  38.909   2.186
15277W        W85158  44.476  41.522  14.955
15278W        W85159  29.949  40.921  14.413
15279W        W85160  33.118  17.601   2.335
15280W        W85161  35.590  33.110   3.824
15281W        W85162  14.779  15.134  13.942
15282W        W85163   5.821  11.743  14.842
15283W        W85164  10.818   5.934  14.920
15284W        W85165  14.764  27.174  11.085
15285W        W85166   3.314   0.790   2.396
15286W        W85167  28.590  12.777   0.409
15287W        W85168  30.932  33.951  13.329
15288W        W85169  12.677  30.927  14.992
15289W        W85170  40.976  38.049  11.587
15290W        W85171  40.351  39.496  13.826
15291W        W85172   9.271  41.987   1.425
15292W        W85173  35.367  25.570   2.745
15293W        W85174   6.819  38.024   1.224
15294W        W85175  27.062  36.982  11.431
15295W        W85176  20.208   7.684   0.270
15296W        W85177  30.646   8.288  12.857
15297W        W85178  14.628  35.071  11.513
15298W        W85179  33.068  26.525  11.588
15299W        W85180  33.939   3.392  14.907
15300W        W85181  36.480   1.300   3.364
15301W        W85182  29.621  34.087   0.333
15302W        W85183  32.921  33.406  14.465
15303W        W85184  40.803  16.197  14.502
15304W        W85185  12.615   5.693   2.834
15305W        W85186  43.902  44.304   1.706
15306W        W85187  16.291  42.792  11.062
15307W        W85188  31.492  28.069   3.822
15308W        W85189  31.550   4.243  13.489
15309W        W85190  32.111  43.768   0.440
15310W        W85191  28.681   6.687  14.387
15311W        W85192  14.625  23.229   2.365
15312W        W85193  10.293   0.785  12.512
15313W        W85194  39.062  11.859   4.697
15314W        W85195  35.380   9.217  12.450
15315W        W85196  41.878  37.403   2.415
15316W        W85197   1.414  39.404   2.245
15317W        W85198  38.892  23.719  13.363
15318W        W85199  13.157  40.487   1.237
15319W        W85200   0.372  22.126   1.244
15320W        W85201  25.987  39.012   3.154
15321W        W85202   6.421  35.059   4.324
15322W        W85203  24.596   3.271   2.380
15323W        W85204   7.260   9.235   1.711
15324W        W85205  24.976   5.396   1.430
15325W        W85206  14.226  22.174   3.250
15326W        W85207  21.031  40.331  14.862
15327W        W85208  28.002  35.057  12.936
15328W        W85209  37.396  32.454  12.457
15329W        W85210  31.104  38.035   1.754
15330W        W85211  39.403  38.505  14.007
15331W        W85212  44.887  24.510   3.721
15332W        W85213   7.392  17.694  10.405
15333W        W85214  19.072   8.196  14.004
15334W        W85215  22.541  41.023  10.502
15335W        W85216   9.256  43.283  12.581
15336W        W85217  29.455  11.355   3.172
15337W        W85218  23.728  44.343  14.759
15338W        W85219  21.566   3.322  14.787
15339W        W85220  31.153  11.842   3.761
15340W        W85221  25.076  23.736  13.380
15341W        W85222  44.914   8.721   0.961
15342W        W85223  34.963  11.693   4.748
15343W        W85224  24.558  32.539  14.999
15344W        W85225  40.957   8.841   2.385
15345W        W85226  41.333   6.285  11.925
15346W        W85227  34.869  35.364  13.445
15347W        W85228   6.260  11.846  13.506
15348W        W85229  24.181  31.417  10.460
15349W        W85230  33.559  19.633  13.920
15350W        W85231   2.805  42.399  12.004
15351W        W85232  12.636  28.647   0.269
15352W        W85233  13.341  29.610   2.887
15353W        W85234  26.595  24.706  14.913
15354W        W85235  14.782  41.951  14.766
15355W        W85236  34.018  11.780  14.474
15356W        W85237  36.951  28.652  14.799
15357W        W85238  41.329   3.804  11.959
15358W        W85239  14.157  18.206  13.049
15359W        W85240  21.516  41.808  12.523
15360W        W85241  43.353   7.285  10.529
15361W        W85242  35.449  23.603  13.430
15362W        W85243  18.698  21.251  14.796
15363W        W85244  31.912  14.325  13.332
15364W        W85245  12.226  16.238  10.508
15365W        W85246   2.412   5.335  13.932
15366W        W85247  44.298  14.592  12.929
15367W        W85248  37.552  26.117  14.837
15368W        W85249  35.488  26.702  13.975
15369W        W85250  12.203  19.255   2.775
15370W        W85251  37.465  21.197   4.666
15371W        W85252  14.234  14.766   4.627
15372W        W85253   4.773  25.084  12.836
15373W        W85254  15.256  34.966   1.353
15374W        W85255  36.539  14.302   2.829
15375W        W85256   1.249  38.901   4.790
15376W        W85257  32.907  11.217   3.281
15377W        W85258  24.499  16.673   3.803
15378W        W85259  35.856  26.052  10.519
15379W        W85260  11.709  27.137   0.422
15380W        W85261  24.635  25.158  14.907
15381W        W85262  15.196  41.424  12.933
15382W        W85263   2.873   5.816  14.759
15383W        W85264  44.377  29.127  10.641
15384W        W85265  14.622  40.519  12.837
15385W        W85266   3.942  22.070  12.092
15386W        W85267  36.508  27.537   0.828
15387W        W85268   4.899   7.177   2.248
15388W        W85269  27.010  19.704  14.432
15389W        W85270  24.597  22.729  13.314
15390W        W85271   9.693  15.627   0.303
15391W        W85272  36.464  29.476   1.761
15392W        W85273  10.280  41.435   1.909
15393W        W85274  30.143  31.972   2.712
15394W        W85275   6.254  25.158  10.551
15395W        W85276  24.711  24.532   4.822
15396W        W85277  43.364  39.848   1.829
15397W        W85278  25.544  34.407   4.217
15398W        W85279  28.660  21.532   4.259
15399W        W85280  13.295  21.077   2.770
15400W        W85281   9.851  11.702  12.864
15401W        W85282  20.533  29.152   0.779
15402W        W85283  18.077  33.071   1.290
15403W        W85284  13.267  29.930   3.304
15404W        W85285  41.416  40.961   2.298
15405W        W85286  33.899  21.698   2.887
15406W        W85287   4.450  27.454  13.852
15407W        W85288  35.531  37.052   1.926
15408W        W85289  25.028  29.108  12.888
15409W        W85290   2.843   4.303   4.677
15410W        W85291  33.078   4.890  11.954
15411W        W85292  34.514  32.416  11.500
15412W        W85293  16.118   1.269   2.849
15413W        W85294  32.530  11.786  11.570
15414W        W85295  18.272  40.326  11.073
15415W        W85296  14.763  40.425   4.798
15416W        W85297  26.195  21.732  12.404
15417W        W85298   5.876   2.319   3.201
15418W        W85299  14.623  39.039   2.815
15419W        W85300  13.713  44.315  12.827
15420W        W85301   4.379  14.333   3.348
15421W        W85302  31.899   0.758  11.096
15422W        W85303  44.782  39.054   1.366
15423W        W85304  13.137  18.096   4.621
15424W        W85305  37.082  40.911   1.783
15425W        W85306  16.095  12.198   0.904
15426W        W85307  12.702  33.957  14.343
15427W        W85308  19.075  36.472   2.903
15428W        W85309  17.609  36.457  13.826
15429W        W85310  18.566  15.642   3.313
15430W        W85311   6.700   6.253   4.622
15431W        W85312  36.046  26.157   2.893
15432W        W85313  39.844  44.398  14.327
15433W        W85314  41.984  17.162   2.216
15434W        W85315  21.146  22.062  13.462
15435W        W85316  33.982   3.300  13.841
15436W        W85317   5.908   2.931   4.168
15437W        W85318  17.708  24.162   4.317
15438W        W85319   8.857  11.297   0.773
15439W        W85320  35.436  44.853   3.634
15440W        W85321   6.846  35.462  14.495
15441W        W85322  32.999  30.136  12.824
15442W        W85323  22.083   0.256  14.368
15443W        W85324   1.249   1.464  12.463
15444W        W85325  40.309  36.491  13.055
15445W        W85326  37.946   5.398  14.825
15446W        W85327  35.856  29.070   3.328
15447W        W85328  42.791  38.057   3.365
15448W        W85329  15.800  21.035  12.851
15449W        W85330  16.716  43.979  14.877
15450W        W85331  24.228  21.644  13.964
15451W        W85332  20.101  36.433   0.456
15452W        W85333  17.153  33.391  13.335
15453W        W85334  22.199  32.941   0.295
15454W        W85335  25.670  44.914   1.834
15455W        W85336  18.112  36.438   4.645
15456W        W85337   7.723  25.614   1.403
15457W        W85338   6.217  30.578   1.804
15458W        W85339  14.759  14.590   4.269
15459W        W85340  14.143  18.612  10.590
15460W        W85341  31.604  34.042   3.839
15461W        W85342  13.634  33.508   4.696
15462W        W85343  44.476   7.324  10.047
15463W        W85344   5.875  44.764  13.417
15464W        W85345  21.028  42.000  14.996
15465W        W85346  30.120  33.446   4.127
15466W        W85347  20.205  11.313   1.236
15467W        W85348  20.244  31.147  13.907
15468W        W85349   8.828   9.794   1.373
15469W        W85350  38.877  34.503   3.849
15470W        W85351  41.909   2.358   4.834
15471W        W85352   6.236  19.700  11.871
15472W        W85353   2.783   6.761  12.557
15473W        W85354  22.703   8.246   4.133
15474W        W85355  34.967   2.728  13.374
15475W        W85356   2.308  39.921   0.875
15476W        W85357   4.430  40.921  14.511
15477W        W85358  28.038  35.471   2.300
15478W        W85359   3.839  20.684   0.770
15479W        W85360   4.918  25.684   1.910
15480W        W85361  32.908  20.134   0.780
15481W        W85362  29.583  12.289   3.256
15482W        W85363   1.751  29.424  13.981
15483W        W85364  16.607   1.396  12.352
15484W        W85365  38.861  29.444   1.405
15485W        W85366   5.869   6.897  14.416
15486W        W85367  14.123  42.343  13.918
15487W        W85368   4.940  19.271  13.484
15488W        W85369  17.597  19.756   1.839
15489W        W85370  16.301  33.972   1.809
15490W        W85371  16.596  27.045   1.438
15491W        W85372   2.345   8.703   2.777
15492W        W85373  26.067  36.016   4.804
15493W        W85374  32.000  27.099   3.723
15494W        W85375   7.326   9.260  13.337
15495W        W85376  42.285   9.273   3.822
15496W        W85377  36.578   0.883  13.356
15497W        W85378  34.014  28.981   1.400
15498W        W85379  22.222  23.590  11.525
15499W        W85380  41.368  12.244  14.507
15500W        W85381  20.173  36.571   2.682
15501W        W85382  23.137  31.623  14.852
15502W        W85383  29.603   5.715   1.285
15503W        W85384  23.189  30.497   3.735
15504W        W85385  31.540  16.210   5.139
15505W        W85386  31.927  33.962   4.347
15506W        W85387  11.860   2.829  11.091
15507W        W85388  33.379  14.590  10.569
15508W        W85389  27.966  44.332  13.490
15509W        W85390  40.954  23.025   2.222
15510W        W85391  18.739  15.154   2.278
15511W        W85392   3.846   2.769  11.592
15512W        W85393  38.868  40.424   4.290
15513W        W85394  30.981  15.676   5.273
15514W        W85395  14.145   9.875   1.823
15515W        W85396  10.383  42.502  14.921
15516W        W85397  11.311  20.554  11.525
15517W        W85398  16.149  14.723   4.699
15518W        W85399  24.063  27.032   2.861
15519W        W85400  21.169  12.857  12.856
15520W        W85401  21.161  27.098   3.377
15521W        W85402  38.343  40.828  13.045
15522W        W85403  19.134   3.742   4.836
15523W        W85404  38.959  21.675   0.272
15524W        W85405  43.784  11.747   1.739
15525W        W85406   7.376  34.028   1.212
15526W        W85407   6.807  28.673  10.413
15527W        W85408   8.353  37.377  13.437
15528W        W85409  41.413  15.794   3.635
15529W        W85410  23.006   1.279  12.838
15530W        W85411   4.801  10.812  13.338
15531W        W85412  26.078   4.323  11.467
15532W        W85413  40.856  12.257   3.175
15533W        W85414  20.222   2.781  13.407
15534W        W85415   9.652   2.899  13.963
15535W        W85416  40.985  16.755   0.274
15536W        W85417  10.678  43.471  13.989
15537W        W85418  19.228  34.496  10.559
15538W        W85419  11.339   1.841  10.491
15539W        W85420  14.683   1.326   1.281
15540W        W85421   6.851  12.273   2.285
15541W        W85422   9.225   9.796  11.048
15542W        W85423  39.021  33.520  11.548
15543W        W85424  10.178  22.133  14.847
15544W        W85425  11.771   6.325  14.956
15545W        W85426  11.838  25.141   1.878
15546W        W85427  24.561  44.821  12.947
15547W        W85428  19.224  20.750  11.427
15548W        W85429   3.356  42.435   2.209
15549W        W85430   7.302  33.997   3.831
15550W        W85431  14.802   9.693   0.361
15551W        W85432  40.336  34.912   0.848
15552W        W85433  16.167  40.518  13.323
15553W        W85434   4.347  33.540  13.984
15554W        W85435  19.081  18.669  13.863
15555W        W85436  36.410  43.327  12.022
15556W        W85437  29.602   1.938  13.348
15557W        W85438  27.535  22.019   1.791
15558W        W85439   5.726   3.228  12.016
15559W        W85440  39.550  44.951   2.290
15560W        W85441  15.201  25.117  14.015
15561W        W85442  13.746  38.998  11.521
15562W        W85443  35.082  12.147   1.324
15563W        W85444  34.867  32.035  14.811
15564W        W85445  36.000   0.913  12.549
15565W        W85446  20.603  18.261   0.958
15566W        W85447   4.796  43.436   5.314
15567W        W85448  21.669   0.333   5.184
15568W        W85449  19.285  23.508  14.304
15569W        W85450  22.155   8.319  10.978
15570W        W85451   7.754   7.354  10.085
15571W        W85452  23.037  16.300   3.219
15572W        W85453  30.595  12.832   4.240
15573W        W85454  31.574  12.774  14.498
15574W        W85455  40.354  18.598  14.847
15575W        W85456  19.712  44.939  10.904
15576W        W85457   0.860  10.314   3.148
15577W        W85458  11.860   0.269   3.155
15578W        W85459  33.044  37.552  12.401
15579W        W85460   6.416  11.127   0.348
15580W        W85461  11.804   9.240  10.543
15581W        W85462  18.291  23.648   3.368
15582W        W85463  32.586  30.460  12.393
15583W        W85464  43.807  34.965  11.125
15584W        W85465  15.729  31.568  12.395
15585W        W85466  22.187  24.564   2.347
15586W        W85467  21.537  20.216   3.639
15587W        W85468  13.256  17.080  13.443
15588W        W85469  38.885   9.758  12.425
15589W        W85470  22.009  42.408  12.857
15590W        W85471  13.301  40.347   1.777
15591W        W85472  18.201  28.492  11.886
15592W        W85473   4.239  20.727   0.925
15593W        W85474  41.406  26.604   0.273
15594W        W85475   5.924   5.278  14.507
15595W        W85476   3.397  33.415  10.129
15596W        W85477  36.501  34.881  14.985
15597W        W85478   1.778  25.028  12.577
15598W        W85479  39.895   0.330  11.460
15599W        W85480  36.957   1.936  10.554
15600W        W85481   1.782   9.871   2.839
15601W        W85482   9.341  24.210  12.843
15602W        W85483  20.256  17.185  10.453
15603W        W85484   8.313  43.413  14.305
15604W        W85485   0.371   1.260   0.737
15605W        W85486   5.762   1.930   4.677
15606W        W85487  35.593  27.975   4.714
15607W        W85488  29.110   2.441   4.300
15608W        W85489  18.200  30.616  14.827
15609W        W85490  28.505  20.565   3.296
15610W        W85491  40.952  21.680  13.392
15611W        W85492  29.084  18.156   2.686
15612W        W85493  18.283  18.631   0.247
15613W        W85494  18.674  27.498  11.401
15614W        W85495   3.395  37.495   4.616
15615W        W85496  21.053  24.490   3.820
15616W        W85497   8.300  33.439  13.332
15617W        W85498  23.614  39.393   4.798
15618W        W85499  23.209  24.015  13.342
15619W        W85500  19.192  41.395  11.423
15620W        W85501  30.095  43.803   4.179
15621W        W85502  17.247  36.900  11.435
15622W        W85503  35.577  16.751  14.971
15623W        W85504  40.799  17.652   0.853
15624W        W85505  30.152   1.375   0.267
15625W        W85506  17.696  33.085   3.159
15626W        W85507   4.283   0.462   1.252
15627W        W85508  35.487  11.734   0.831
15628W        W85509  21.021  23.538  12.054
15629W        W85510  26.628   1.338   1.819
15630W        W85511  16.282  12.733  14.484
15631W        W85512   7.386  44.775   1.284
15632W        W85513  38.365  20.733   4.679
15633W        W85514  17.729  20.136   0.782
15634W        W85515  22.585   5.349  12.381
15635W        W85516   3.358  29.558  11.489
15636W        W85517   1.939  28.954   0.271
15637W        W85518   3.786  20.090  13.807
15638W        W85519  12.257  42.317   0.464
15639W        W85520  23.145   8.670  13.406
15640W        W85521  13.187  40.967  11.382
15641W        W85522  38.355   5.728  12.388
15642W        W85523  16.763   3.914  13.539
15643W        W85524  13.202  41.999  12.449
15644W        W85525  23.201  33.990   3.182
15645W        W85526  16.295   3.392  13.059
15646W        W85527  35.062  26.632  14.935
15647W        W85528  35.093  37.391   2.217
15648W        W85529  14.733   0.788   3.270
15649W        W85530  23.603  19.202   9.984
15650W        W85531   8.701  20.690  13.406
15651W        W85532  12.722   3.854  12.059
15652W        W85533  39.422   3.929   4.234
15653W        W85534  33.022  22.209   1.445
15654W        W85535  39.559  13.168   1.779
15655W        W85536  24.486  11.854   2.379
15656W        W85537  41.817  41.422   3.165
15657W        W85538  27.529   7.370  13.047
15658W        W85539   8.842  20.676   2.208
15659W        W85540  29.957  25.627  12.579
15660W        W85541   2.857  37.387   1.847
15661W        W85542  40.960  11.202   3.861
15662W        W85543  27.145  10.175  14.323
15663W        W85544   1.868  21.545   1.294
15664W        W85545  28.942  19.687   4.339
15665W        W85546  32.080   2.439   3.661
15666W        W85547  13.745   8.746  14.824
15667W        W85548  42.899  29.940  13.453
15668W        W85549  32.049  34.967  13.516
15669W        W85550  20.735  39.900   3.320
15670W        W85551  22.071  32.459  13.889
15671W        W85552  11.862  29.931  10.448
15672W        W85553  39.960   8.374   4.115
15673W        W85554  32.451  44.397  10.438
15674W        W85555   0.885  32.034  12.363
15675W        W85556  20.163  15.753   3.693
15676W        W85557  13.330  26.478  12.033
15677W        W85558  42.026  38.002   2.179
15678W        W85559  32.992  26.533   1.274
15679W        W85560   7.214  37.356   5.223
15680W        W85561   6.855   2.754   3.170
15681W        W85562  25.049  28.176   4.231
15682W        W85563  41.388  32.021  11.518
15683W        W85564  14.754  30.485   4.209
15684W        W85565  19.751  23.212  11.973
15685W        W85566  37.349   9.178   4.123
15686W        W85567  15.670  25.557   2.883
15687W        W85568  20.102  24.612   3.267
15688W        W85569  14.747  30.122  11.539
15689W        W85570  27.547   3.363  13.914
15690W        W85571  31.038  31.053   4.115
15691W        W85572  40.803  25.126  14.019
15692W        W85573  20.156  13.117   2.849
15693W        W85574  29.019  18.277   4.642
15694W        W85575  39.356  20.048   3.690
15695W        W85576   5.704  17.762   3.749
15696W        W85577  18.247  27.956   0.727
15697W        W85578   6.199  44.314   0.965
15698W        W85579  44.950  40.037  13.808
15699W        W85580  12.229  15.114   4.348
15700W        W85581  18.767  38.897   3.775
15701W        W85582  36.438   6.307  10.449
15702W        W85583  15.279  22.236   1.875
15703W        W85584   2.325   5.411   3.353
15704W        W85585  26.620  14.805  14.391
15705W        W85586   2.443  22.649   4.341
15706W        W85587  14.303  15.262  12.443
15707W        W85588   4.827  30.469  12.387
15708W        W85589  26.173   2.896  12.967
15709W        W85590  36.042  39.334   2.899
15710W        W85591  41.011  26.474   2.846
15711W        W85592  37.017   8.801   1.431
15712W        W85593  38.841  43.834  14.291
15713W        W85594  37.402   4.324  14.853
15714W        W85595  28.452  37.527   3.179
15715W        W85596  27.098  22.238   3.278
15716W        W85597  18.232  36.389   0.296
15717W        W85598  32.394  20.237  12.412
15718W        W85599  32.993  27.954  14.845
15719W        W85600  16.263  38.862   1.782
15720W        W85601  37.533  31.151  12.932
15721W        W85602  21.204   2.283  11.511
15722W        W85603  38.061   9.208  11.956
15723W        W85604   0.812   4.867  13.940
15724W        W85605  27.611  30.592   3.805
15725W        W85606  24.082  40.902   3.633
15726W        W85607  21.140  34.502   4.291
15727W        W85608   5.693  33.121   1.225
15728W        W85609  25.491  28.450  13.875
15729W        W85610  28.557   7.189  12.363
15730W        W85611  32.090  16.719   2.750
15731W        W85612  18.746  29.547   4.157
15732W        W85613  39.524   2.880  12.524
15733W        W85614  13.807   1.345   2.692
15734W        W85615  21.589  17.781   1.803
15735W        W85616  43.777  15.660   4.806
15736W        W85617   6.335  23.093  14.829
15737W        W85618  28.962  17.079  14.962
15738W        W85619  37.058  32.609  14.839
15739W        W85620  42.796  29.480  11.109
15740W        W85621  20.040  15.155  10.900
15741W        W85622   1.863  27.016   4.729
15742W        W85623   4.361  10.688   3.262
15743W        W85624   5.864  40.909   3.245
15744W        W85625  34.082  41.874   3.379
15745W        W85626  27.511  29.126   0.870
15746W        W85627   3.860  31.497   4.730
15747W        W85628  11.314  23.177  13.337
15748W        W85629   3.434   7.846  14.823
15749W        W85630  25.695   2.758   0.481
15750W        W85631  28.645   8.403   5.266
15751W        W85632   7.176   1.280   1.918
15752W        W85633  17.173   9.230   4.172
15753W        W85634  25.469  22.066  14.785
15754W        W85635  36.979  16.212   4.288
15755W        W85636   9.302   4.854  14.816
15756W        W85637   5.710  18.673  10.993
15757W        W85638  18.106  20.547   0.311
15758W        W85639  17.615  42.413  12.446
15759W        W85640   4.788   6.742   0.815
15760W        W85641  32.540  42.791   4.129
15761W        W85642  12.766  28.605   3.815
15762W        W85643  31.907  39.051  14.360
15763W        W85644  41.435  14.232  11.885
15764W        W85645  16.742   9.694  11.962
15765W        W85646  17.106  42.942  13.029
15766W        W85647  43.832  31.974  10.985
15767W        W85648  28.985  13.214   3.292
15768W        W85649  16.643  23.671   1.437
15769W        W85650   1.344  27.564  10.613
15770W        W85651   8.325  11.823  11.581
15771W        W85652   9.217  13.832  11.604
15772W        W85653  44.784  30.046   2.409
15773W        W85654  36.914   6.684   3.738
15774W        W85655  30.943  18.077   0.431
15775W        W85656  25.030   0.760   3.346
15776W        W85657   3.218  24.142   4.174
15777W        W85658  34.436  34.937  12.579
15778W        W85659  32.413   9.239   4.783
15779W        W85660  17.086  16.668  11.941
15780W        W85661  13.797  44.770  12.419
15781W        W85662  34.007   1.757   1.270
15782W        W85663  25.661  24.713  11.437
15783W        W85664   7.292   0.328  14.810
15784W        W85665   9.682  25.102  14.298
15785W        W85666  12.792  15.730  14.316
15786W        W85667   7.390  30.579  12.457
15787W        W85668  25.563  43.344  12.491
15788W        W85669  18.753  41.397  10.627
15789W        W85670  28.958   4.750   2.845
15790W        W85671  18.611  27.065   2.674
15791W        W85672  12.237   6.404   2.231
15792W        W85673  29.036  13.663   0.352
15793W        W85674  11.683  36.505   2.719
15794W        W85675  36.847  35.596  13.851
15795W        W85676  37.388  34.930  10.955
15796W        W85677  15.816   7.805  14.014
15797W        W85678  37.909  44.986  14.299
15798W        W85679  32.523  18.060   4.758
15799W        W85680  27.978  12.318   3.656
15800W        W85681  31.068  31.513  10.603
15801W        W85682  17.649  39.416   1.910
15802W        W85683  13.306  17.760   5.143
15803W        W85684  27.661  14.616  12.504
15804W        W85685  12.795  33.071  13.509
15805W        W85686   1.965   5.199  12.515
15806W        W85687  36.366   7.877   2.784
15807W        W85688  35.493  19.107  12.961
15808W        W85689  13.649  36.543  10.453
15809W        W85690   4.942   4.290  13.838
15810W        W85691  35.377  32.950   2.281
15811W        W85692  19.046   1.820   0.781
15812W        W85693   2.769  38.518   1.913
15813W        W85694   0.792  32.054   5.170
15814W        W85695  39.502  27.535  13.443
15815W        W85696   4.427   7.335   1.920
15816W        W85697  34.431   7.681  11.929
15817W        W85698  43.907  25.484   3.382
15818W        W85699  14.235  44.438  10.592
15819W        W85700  36.043  11.292  13.985
15820W        W85701  12.124  21.185   0.741
15821W        W85702  12.650  13.666  10.913
15822W        W85703  28.951  41.999  12.521
15823W        W85704   0.751  32.060  14.883
15824W        W85705  32.577  28.184  12.022
15825W        W85706  20.056  25.703  10.596
15826W        W85707  12.144  31.935  11.976
15827W        W85708  38.847  15.105  13.322
15828W        W85709   5.439   0.409   0.325
15829W        W85710  11.344  25.212  10.527
15830W        W85711  37.365  40.961  13.852
15831W        W85712  41.466   2.396  13.367
15832W        W85713  20.582  42.972  14.399
15833W        W85714  35.894  22.679   0.870
15834W        W85715  27.017  17.720  12.087
15835W        W85716  17.239  24.528  14.893
15836W        W85717  40.321  35.993  11.488
15837W        W85718  28.953  14.797  13.856
15838W        W85719  39.459  42.316  11.127
15839W        W85720  22.688  39.929   3.868
15840W        W85721  26.065  14.283  14.921
15841W        W85722  23.583   2.382   2.755
15842W        W85723   5.429  10.377   4.803
15843W        W85724   4.760  24.145   4.771
15844W        W85725   4.436   9.888  11.045
15845W        W85726  39.967  24.122   2.376
15846W        W85727  13.814  12.768  12.011
15847W        W85728  17.646  17.113   3.273
15848W        W85729   2.964  18.688  10.508
15849W        W85730  40.844   0.830  14.440
15850W        W85731  13.637  37.565   2.776
15851W        W85732  37.345  28.625  12.947
15852W        W85733  35.928  37.553   1.383
15853W        W85734   9.754   1.882  10.936
15854W        W85735  19.241  15.239   3.680
15855W        W85736  44.335  20.768  11.123
15856W        W85737   5.294  14.106  14.373
15857W        W85738   5.866  40.304   3.853
15858W        W85739  24.508   3.387  11.892
15859W        W85740   4.923  20.686  14.988
15860W        W85741  41.532   4.388   1.416
15861W        W85742  33.490  29.996  10.960
15862W        W85743  27.944  11.235  12.969
15863W        W85744   7.371   3.744  11.483
15864W        W85745  41.472   6.253   3.193
15865W        W85746  17.296  18.277  10.462
15866W        W85747  29.585  31.490   0.371
15867W        W85748  42.030  42.997  14.959
15868W        W85749  31.503   4.324  13.060
15869W        W85750   8.712  22.022  12.523
15870W        W85751  32.631   4.424   2.351
15871W        W85752  10.722   5.388   0.258
15872W        W85753  28.669  18.764  14.464
15873W        W85754   4.349  24.522   4.693
15874W        W85755  19.126  31.542  12.835
15875W        W85756  13.220   8.303  14.882
15876W        W85757   9.283  34.100   3.290
15877W        W85758  35.991   1.763  11.943
15878W        W85759  44.447   8.383   0.737
15879W        W85760  28.945  25.145  12.566
15880W        W85761  27.942   7.845   0.272
15881W        W85762  23.514  35.980  10.505
15882W        W85763  27.514  27.946   2.231
15883W        W85764  25.670  29.928   1.291
15884W        W85765  33.396  17.263  10.542
15885W        W85766   7.252  23.575   1.308
15886W        W85767  44.902  30.073  10.623
15887W        W85768  31.435  39.835  12.039
15888W        W85769  10.645   2.304  11.038
15889W        W85770  29.929  35.896  11.508
15890W        W85771  17.095  21.147   3.257
15891W        W85772  18.078  40.436   3.292
15892W        W85773  42.838   3.727   3.820
15893W        W85774  44.441  26.050   1.831
15894W        W85775  26.565   9.287  13.526
15895W        W85776  35.361  19.147   4.670
15896W        W85777   1.930  20.713   0.406
15897W        W85778  30.084   0.874  14.501
15898W        W85779  17.296  24.076   0.394
15899W        W85780  29.462  11.859   0.936
15900W        W85781  26.989  29.029  11.387
15901W        W85782  25.607  20.554   2.393
15902W        W85783  43.873   4.864   1.371
15903W        W85784  27.041   8.770   0.274
15904W        W85785  28.565  15.652   1.245
15905W        W85786  22.052   1.249   5.100
15906W        W85787  20.672  31.074  13.808
15907W        W85788   5.271  31.514  10.591
15908W        W85789  39.427  42.973   2.870
15909W        W85790   0.416  41.292   3.290
15910W        W85791  26.652  16.724  14.360
15911W        W85792   2.764  37.451  10.567
15912W        W85793  18.105  10.179  13.032
15913W        W85794  39.903  30.519  12.850
15914W        W85795  31.566  24.091   1.444
15915W        W85796  26.973  32.497   3.827
15916W        W85797  43.468  37.898  12.029
15917W        W85798  34.035   2.243   3.869
15918W        W85799   4.821   2.378   0.248
15919W        W85800  40.320   5.374   1.920
15920W        W85801  35.048  24.714  14.368
15921W        W85802   4.813  41.788   4.170
15922W        W85803   1.939  14.137   3.287
15923W        W85804  20.611  27.052   2.337
15924W        W85805  14.797  11.649  10.073
15925W        W85806  36.051  13.708  11.401
15926W        W85807  44.964  25.614  14.389
15927W        W85808  34.447  12.768  10.973
15928W        W85809  12.836   1.910  12.397
15929W        W85810  21.562   4.339  13.385
15930W        W85811   7.799  13.324  14.396
15931W        W85812  26.988  30.945  12.096
15932W        W85813  16.695  17.156  11.087
15933W        W85814  18.769  24.539  11.114
15934W        W85815  13.844  22.240   0.901
15935W        W85816  14.254  10.154   3.683
15936W        W85817  23.097   2.737   2.355
15937W        W85818  29.543  24.979  14.446
15938W        W85819  42.877  41.961  11.066
15939W        W85820  27.076  24.483   4.260
15940W        W85821  16.094  27.957  13.521
15941W        W85822  44.906   0.979  11.936
15942W        W85823   7.855  31.561   2.240
15943W        W85824  38.071  21.546   1.352
15944W        W85825  44.310   3.785   4.775
15945W        W85826  10.634  35.997  13.451
15946W        W85827  10.286  17.555   2.213
15947W        W85828  44.948  19.124  11.542
15948W        W85829  44.798  34.535  13.958
15949W        W85830   4.731   7.705   1.820
15950W        W85831  23.713   6.724   0.307
15951W        W85832  20.252  27.560  13.391
15952W        W85833  13.700  42.799  12.826
15953W        W85834  24.007   1.240  12.021
15954W        W85835  42.920   9.280   4.650
15955W        W85836  10.247  10.634  14.851
15956W        W85837  15.778   2.852  11.965
15957W        W85838  25.582  26.019  11.897
15958W        W85839  31.917  42.895  13.533
15959W        W85840  32.002  28.933   0.408
15960W        W85841  36.432  21.099  12.368
15961W        W85842  19.599  39.897   4.650
15962W        W85843  11.621  33.006   1.353
15963W        W85844   5.767  35.413  14.291
15964W        W85845  29.171   0.488   4.796
15965W        W85846   7.738   4.405  10.582
15966W        W85847  34.373  14.296  12.015
15967W        W85848  23.578   7.257  11.918
15968W        W85849  44.983   1.758   3.313
15969W        W85850  15.177  15.742   2.759
15970W        W85851  11.348  41.029   1.368
15971W        W85852  12.799  30.448   3.735
15972W        W85853  42.517  18.628  13.530
15973W        W85854  25.650  17.636  13.931
15974W        W85855  19.611  20.259   0.731
15975W        W85856  21.030  34.483   4.629
15976W        W85857   4.771  13.820  14.821
15977W        W85858  35.538  18.782  11.450
15978W        W85859  34.885   8.236   2.242
15979W        W85860  15.785  42.851   9.999
15980W        W85861  36.016  21.642   2.690
15981W        W85862  30.115  33.537   0.961
15982W        W85863  43.272  15.200   1.440
15983W        W85864   1.894   2.234  13.883
15984W        W85865  11.678  36.935  10.617
15985W        W85866  23.543   2.962   2.318
15986W        W85867  30.136  31.564   0.445
15987W        W85868   8.819  13.125   3.164
15988W        W85869  26.636   4.876   3.716
15989W        W85870  16.648   9.796   2.809
15990W        W85871  27.985  33.918  10.562
15991W        W85872   7.682  32.005   0.285
15992W        W85873   2.338   5.811  12.392
15993W        W85874  27.571  20.562  13.884
15994W        W85875  34.558  11.805  13.039
15995W        W85876  31.491   4.933  11.592
15996W        W85877  21.104  37.908   1.730
15997W        W85878  24.013   9.346   3.801
15998W        W85879  24.725  10.865  12.534
15999W        W85880  14.591  33.979   2.389
16000W        W85881  31.447   9.890  11.964
16001W        W85882  10.147  41.886  13.949
16002W        W85883  28.582  11.733   0.268
16003W        W85884   4.241  21.722  10.604
16004W        W85885   4.830  17.108   3.198
16005W        W85886  43.988  22.146  11.585
16006W        W85887  39.852  31.611   1.430
16007W        W85888   7.338  17.749   2.683
16008W        W85889   3.907  31.941   5.092
16009W        W85890  39.826  42.968   0.851
16010W        W85891  30.975  42.281   4.263
16011W        W85892   1.857   7.196  10.630
16012W        W85893  25.642  38.998  12.369
16013W        W85894   8.698  16.300   2.790
16014W        W85895  33.995  22.017  11.987
16015W        W85896  12.127   3.410   0.353
16016W        W85897  13.658  40.519  14.007
16017W        W85898  31.591  42.404   0.928
16018W        W85899  17.228   4.725  11.380
16019W        W85900  13.739  31.977  13.487
16020W        W85901  27.523  40.376   1.708
16021W        W85902  26.576  12.275  11.872
16022W        W85903  20.701  38.437  13.307
16023W        W85904  13.778  19.214   1.934
16024W        W85905  44.932  44.794   1.280
16025W        W85906   3.769  23.006   2.796
16026W        W85907  17.566  32.617  12.017
16027W        W85908  25.530   8.877  12.834
16028W        W85909  30.647  29.636   2.264
16029W        W85910   4.227  42.995  11.565
16030W        W85911  10.716  28.653   3.269
16031W        W85912   3.305   7.249  14.335
16032W        W85913   4.307  43.364  10.526
16033W        W85914  19.537   4.701  14.318
16034W        W85915  22.114  22.567   2.306
16035W        W85916  12.654  28.956   3.744
16036W        W85917  40.853  10.661   2.885
16037W        W85918   3.911  27.071  14.780
16038W        W85919  43.767   8.343   1.839
16039W        W85920  16.569   8.699   1.933
16040W        W85921   3.349  18.211   1.336
16041W        W85922  18.733  34.101  13.389
16042W        W85923  22.598  41.800  14.402
16043W        W85924   8.723  43.410   1.440
16044W        W85925  26.613  24.532  11.608
16045W        W85926  29.649  21.642   0.301
16046W        W85927  32.490  24.083   2.679
16047W        W85928  44.977   2.921   4.692
16048W        W85929  43.514  16.221   2.322
16049W        W85930  14.230  38.065   5.156
16050W        W85931  14.252   7.707  10.470
16051W        W85932   3.415  29.660   4.597
16052W        W85933   8.793  33.020  10.537
16053W        W85934  34.955  42.872   4.293
16054W        W85935  16.628  20.057   4.336
16055W        W85936  29.975  18.619  10.407
16056W        W85937  25.604  38.393   2.795
16057W        W85938   1.466  25.520  13.904
16058W        W85939  28.586   7.873  12.093
16059W        W85940   3.325   8.775   2.288
16060W        W85941  16.727   6.904   2.855
16061W        W85942  21.048  40.494  11.116
16062W        W85943  21.041  21.704   0.369
16063W        W85944  33.456   2.423  13.515
16064W        W85945  33.519   7.178   2.327
16065W        W85946  21.564  31.505  14.409
16066W        W85947  42.887  29.562   0.880
16067W        W85948  23.048  29.579   4.825
16068W        W85949   5.231  24.568  14.475
16069W        W85950  15.746  27.660   0.246
16070W        W85951   0.919   7.686   1.717
16071W        W85952  15.109  17.143   1.381
16072W        W85953  28.063  24.122   5.097
16073W        W85954  10.379  18.714   1.302
16074W        W85955  40.882  26.698  12.881
16075W        W85956  30.957  26.000  13.917
16076W        W85957  36.448  10.868  13.050
16077W        W85958  38.911  13.257  12.835
16078W        W85959  43.477  41.828  10.495
16079W        W85960  38.363  18.052   2.875
16080W        W85961  20.643  27.493  12.067
16081W        W85962   8.654  35.943  13.051
16082W        W85963  25.070   3.743   4.692
16083W        W85964  38.882  27.149   0.794
16084W        W85965   9.257   4.909  12.394
16085W        W85966  39.846  10.736  12.570
16086W        W85967  21.073  16.764   3.636
16087W        W85968   0.384  37.840   1.235
16088W        W85969  38.965  27.082   2.301
16089W        W85970  14.644   6.839   0.256
16090W        W85971  40.311  35.560   4.605
16091W        W85972  40.449  21.655  13.894
16092W        W85973  42.505  31.442   3.293
16093W        W85974   9.651  32.520   4.163
16094W        W85975  21.674   2.234  14.335
16095W        W85976  13.345  27.592   3.866
16096W        W85977  14.658  29.455   2.292
16097W        W85978  34.382   3.722  12.017
16098W        W85979  31.506  33.027   2.849
16099W        W85980  17.303  44.397   5.245
16100W        W85981  35.561  39.440  14.373
16101W        W85982   6.319  10.210   2.182
16102W        W85983  12.786   3.247  11.048
16103W        W85984  27.102  35.420  11.489
16104W        W85985  20.589  11.692  11.555
16105W        W85986  11.834  14.600   1.317
16106W        W85987  10.719  14.340   2.361
16107W        W85988  15.109   3.318   4.327
16108W        W85989  37.363  35.018  11.416
16109W        W85990  29.123  34.459   3.251
16110W        W85991  32.102  37.925  11.946
16111W        W85992  26.960  22.608   2.863
16112W        W85993   5.763  31.566  12.067
16113W        W85994  17.712  37.463  12.986
16114W        W85995   7.344  27.111  13.809
16115W        W85996  15.734  33.605  12.874
16116W        W85997  18.248  44.840   3.762
16117W        W85998  38.057   6.769   1.441
16118W        W85999   2.862  13.740  13.381
16119W        W86000  13.619   7.403  11.056
16120W        W86001   3.712  11.820  14.931
16121W        W86002  34.955   5.358  13.949
16122W        W86003  40.361   3.926   4.155
16123W        W86004   2.833  20.219   2.690
16124W        W86005   4.749  11.173   1.327
16125W        W86006  30.424  13.776  11.858
16126W        W86007  18.589  23.590  12.370
16127W        W86008  18.668  13.823  11.555
16128W        W86009  29.517  22.130  11.110
16129W        W86010  27.004  30.499   3.748
16130W        W86011  33.492  40.005  12.840
16131W        W86012   6.747  25.683   1.796
16132W        W86013  17.596  34.112   3.160
16133W        W86014  33.055   7.202   0.730
16134W        W86015  34.517  31.136   4.332
16135W        W86016  15.798   5.286  14.944
16136W        W86017  33.567  32.571  12.025
16137W        W86018  20.137  27.182  10.601
16138W        W86019  10.229  39.817   2.850
16139W        W86020  31.098   0.793  11.030
16140W        W86021   4.721  39.923  14.298
16141W        W86022  44.795  38.379   3.298
16142W        W86023  20.240  15.694   0.444
16143W        W86024   6.804  27.524  12.501
16144W        W86025   7.745  28.011  11.031
16145W        W86026  16.577  44.756  11.549
16146W        W86027  21.530   5.414  10.643
16147W        W86028  24.567  35.404   2.282
16148W        W86029   8.669  41.490  14.493
16149W        W86030  11.754   3.334   9.949
16150W        W86031  11.158  40.335   2.824
16151W        W86032   1.751   3.867   2.362
16152W        W86033  16.606   9.342   3.694
16153W        W86034  25.006   9.276   5.157
16154W        W86035  26.103  41.508  14.458
16155W        W86036  20.692  31.622   4.143
16156W        W86037  10.779  23.508   3.355
16157W        W86038   2.379   3.778   3.703
16158W        W86039  23.044  30.626   2.387
16159W        W86040   7.678  36.350  12.512
16160W        W86041  11.187  14.167  14.871
16161W        W86042  24.482  36.929   1.814
16162W        W86043  17.296   9.175  14.945
16163W        W86044  22.226  36.979  14.959
16164W        W86045  16.072  28.044  11.584
16165W        W86046   3.822  18.124  14.974
16166W        W86047  41.979   2.900  14.405
16167W        W86048  30.025  16.808   0.936
16168W        W86049   6.428  25.479  14.960
16169W        W86050  37.443  17.587  12.401
16170W        W86051   7.267  40.812   3.173
16171W        W86052  32.635  37.874  12.989
16172W        W86053  40.959  27.098  11.585
16173W        W86054   2.894   1.447  11.893
16174W        W86055  39.446   8.308  12.977
16175W        W86056  14.197  23.169   1.450
16176W        W86057   1.416   2.827  12.986
16177W        W86058  24.054  11.185   4.815
16178W        W86059  29.534   9.822  13.848
16179W        W86060  38.824  21.654   1.224
16180W        W86061  17.104  33.600   5.147
16181W        W86062   8.883   5.860   0.453
16182W        W86063  27.120   8.374   2.765
16183W        W86064  33.543  42.378   4.646
16184W        W86065  24.671  10.675   1.852
16185W        W86066  10.805  25.977  12.967
16186W        W86067  39.554  20.760   4.335
16187W        W86068  28.991  36.949  11.479
16188W        W86069  22.211  40.054  13.373
16189W        W86070  15.797  26.185   1.934
16190W        W86071  28.435  28.093   3.230
16191W        W86072  20.075   8.703   4.270
16192W        W86073  28.163  43.991   3.302
16193W        W86074  21.065  21.109   3.244
16194W        W86075  36.429   9.316  13.951
16195W        W86076  37.924  24.193   0.948
16196W        W86077   4.723  28.507   0.430
16197W        W86078   7.766  16.132  13.347
16198W        W86079  36.004  29.503  10.997
16199W        W86080   4.835   8.709  10.463
16200W        W86081  21.082  10.750   4.352
16201W        W86082  19.153  44.314   5.223
16202W        W86083  15.144  39.973   1.215
16203W        W86084  40.444   1.755  12.408
16204W        W86085  23.573  22.049   3.203
16205W        W86086  40.535  12.707  12.931
16206W        W86087  34.604  33.380   1.231
16207W        W86088   0.485  12.614  11.933
16208W        W86089  23.155  22.150  11.585
16209W        W86090  24.592  43.343  11.094
16210W        W86091  26.020   9.246   4.719
16211W        W86092  13.766  44.797  13.439
16212W        W86093  42.411  19.589  11.428
16213W        W86094  30.955  44.871   1.424
16214W        W86095  19.684  36.467   2.183
16215W        W86096  34.595  10.833  11.884
16216W        W86097   1.327   1.266   3.354
16217W        W86098  38.978  13.686  10.600
16218W        W86099  34.433  37.004  14.888
16219W        W86100  43.976  14.173   1.779
16220W        W86101   2.780  22.157   2.240
16221W        W86102  44.401   3.376   3.257
16222W        W86103  26.690  36.933   2.823
16223W        W86104  31.063   7.786   4.166
16224W        W86105  18.250   2.957  13.941
16225W        W86106   0.380   9.252  14.508
16226W        W86107  24.164  41.392   3.279
16227W        W86108  29.104  29.055  11.877
16228W        W86109  24.055  11.623  12.079
16229W        W86110   4.717  21.555  11.451
16230W        W86111   7.179  44.780  13.353
16231W        W86112  38.392   5.693   0.398
16232W        W86113  35.543  15.634   2.286
16233W        W86114  41.421  16.657   4.834
16234W        W86115  30.588  19.586   0.445
16235W        W86116  26.093   1.828  13.324
16236W        W86117  39.329  20.574   4.609
16237W        W86118  37.997  14.172  10.447
16238W        W86119  23.066  10.829   3.274
16239W        W86120  18.727  24.179  14.821
16240W        W86121  37.345  29.562  11.455
16241W        W86122  11.150   6.873  11.943
16242W        W86123  35.442   8.399   2.805
16243W        W86124  42.791   8.675   0.846
16244W        W86125  17.148  25.486  14.877
16245W        W86126  31.922  29.567  12.982
16246W        W86127  40.497  28.044   1.749
16247W        W86128  38.025   4.421   0.864
16248W        W86129  20.148  29.039  13.429
16249W        W86130  36.360  21.057   0.468
16250W        W86131  11.234  12.272   2.721
16251W        W86132  40.408   7.380   2.820
16252W        W86133  16.246  25.541   1.838
16253W        W86134  32.465  31.069   3.226
16254W        W86135  13.735   3.329   1.364
16255W        W86136  42.876  14.693   4.293
16256W        W86137  39.430   6.788  13.444
16257W        W86138  38.859  40.509   2.410
16258W        W86139  13.277  37.512   2.748
16259W        W86140  38.868  24.575  10.495
16260W        W86141   6.767  18.237  13.485
16261W        W86142  33.481   0.454   3.177
16262W        W86143  30.121  28.456  11.471
16263W        W86144   5.197  27.483   0.323
16264W        W86145  25.178  44.426   4.348
16265W        W86146  43.329  19.683  13.920
16266W        W86147  44.834   5.379   2.852
16267W        W86148   6.849  18.673  10.998
16268W        W86149  29.469   8.162  11.065
16269W        W86150  10.370  26.108   0.353
16270W        W86151  35.058  31.467  11.922
16271W        W86152  44.314  23.194   0.938
16272W        W86153   1.779  34.394   1.390
16273W        W86154  40.930  44.790  13.511
16274W        W86155  31.564  15.625   2.300
16275W        W86156   3.247   3.252   1.301
16276W        W86157   2.463   0.880   3.867
16277W        W86158   6.819  20.219   2.885
16278W        W86159  44.913  25.981   1.923
16279W        W86160  28.591  28.476  10.523
16280W        W86161  25.991   0.964  11.924
16281W        W86162  34.917  42.292  11.120
16282W        W86163  41.889   7.250  11.029
16283W        W86164   5.367  34.979   4.804
16284W        W86165  35.597  30.443  10.547
16285W        W86166   2.469   1.775  11.079
16286W        W86167  32.534   7.351   1.425
16287W        W86168  41.348  29.438   4.704
16288W        W86169  10.761  23.546   0.284
16289W        W86170   3.953  16.269  12.001
16290W        W86171  20.095   6.265  10.560
16291W        W86172  43.867  17.138  12.085
16292W        W86173  24.000   0.947   2.329
16293W        W86174  26.030  12.629   2.178
16294W        W86175  31.106   5.809   4.206
16295W        W86176  35.106  22.137   3.829
16296W        W86177  43.010  36.588  13.021
16297W        W86178  34.419  11.140  12.523
16298W        W86179   6.866  10.198  14.456
16299W        W86180  15.727  43.899   0.383
16300W        W86181   4.722   7.317  10.493
16301W        W86182   8.791  19.688  14.496
16302W        W86183   9.230  25.136   0.872
16303W        W86184  25.072  44.758   1.247
16304W        W86185  30.606  20.740  13.833
16305W        W86186   9.334  32.504   2.341
16306W        W86187  13.308  30.949  10.899
16307W        W86188  22.145  10.792   1.335
16308W        W86189   6.401  41.018  10.953
16309W        W86190  13.789  21.706  12.983
16310W        W86191  18.652  43.927   4.134
16311W        W86192  21.610  29.502   1.282
16312W        W86193   3.299  29.984  14.441
16313W        W86194   6.296  19.687  11.412
16314W        W86195  25.205  17.793  10.530
16315W        W86196  41.998   7.224   1.257
16316W        W86197  44.405  15.218   1.354
16317W        W86198   1.345  21.619  11.609
16318W        W86199  17.064   2.724  12.346
16319W        W86200  29.008  16.692   3.242
16320W        W86201   9.863  40.834   0.258
16321W        W86202  31.947  42.325  14.949
16322W        W86203  22.535  33.502   2.224
16323W        W86204   3.754  18.177  12.993
16324W        W86205  35.484  28.459   1.356
16325W        W86206   8.389   5.397  10.535
16326W        W86207   9.289  17.284  10.058
16327W        W86208   4.289  35.377  11.075
16328W        W86209  12.317  16.635  10.558
16329W        W86210  11.290  35.894  13.512
16330W        W86211  42.848   3.775   2.857
16331W        W86212  35.029   5.879   2.869
16332W        W86213  23.600   3.363   1.279
16333W        W86214   2.774   8.174  12.069
16334W        W86215   7.732  26.513  13.456
16335W        W86216  40.023  21.210   4.769
16336W        W86217  24.193   0.865  12.430
16337W        W86218  13.767  42.825  11.108
16338W        W86219  34.940  33.950   2.413
16339W        W86220  26.174  40.517   2.360
16340W        W86221   4.265  36.541   1.436
16341W        W86222  35.389   1.352  10.601
16342W        W86223  12.663   6.189   1.696
16343W        W86224  20.593   0.296  10.890
16344W        W86225  36.854  12.730   1.845
16345W        W86226  41.951  15.296  14.419
16346W        W86227   1.252  39.853  10.643
16347W        W86228  13.119   7.905  13.355
16348W        W86229   8.756  24.005  10.459
16349W        W86230  42.351  43.950  12.862
16350W        W86231   9.224  37.902   3.713
16351W        W86232   7.270  11.797   4.138
16352W        W86233  23.019   8.755   1.293
16353W        W86234  29.465  30.157  11.375
16354W        W86235  12.739  24.697   0.391
16355W        W86236  12.640  30.100   1.733
16356W        W86237  13.154  17.129  11.878
16357W        W86238  16.085   5.849  14.780
16358W        W86239  26.598  11.863  12.538
16359W        W86240  38.911  11.164  12.853
16360W        W86241  25.029  43.405  13.892
16361W        W86242  34.575  34.386   3.663
16362W        W86243  15.302  41.341   0.357
16363W        W86244  11.127  35.415   4.627
16364W        W86245  37.348  36.050   2.830
16365W        W86246  42.832  10.690   1.779
16366W        W86247  17.581  25.601  11.030
16367W        W86248  38.973   9.834  11.109
16368W        W86249   1.790  36.094   1.333
16369W        W86250  41.840   8.303   0.339
16370W        W86251  19.712  19.204  10.611
16371W        W86252  17.174  28.464   3.861
16372W        W86253  42.823  21.727   3.316
16373W        W86254  30.571  35.425   4.726
16374W        W86255  17.237  23.208  11.599
16375W        W86256  11.137   1.943  13.540
16376W        W86257  41.926  14.219   2.228
16377W        W86258  17.746  43.500  12.073
16378W        W86259  24.619  11.813   0.838
16379W        W86260   9.810  43.846   3.376
16380W        W86261  23.085  28.113   3.809
16381W        W86262  38.332  13.318   3.283
16382W        W86263  37.995  39.895   1.864
16383W        W86264  31.026  34.902  10.533
16384W        W86265  43.899  10.288  10.516
16385W        W86266  18.233  33.062  10.515
16386W        W86267  40.546  13.786   3.221
16387W        W86268  23.209  34.077  10.971
16388W        W86269  32.453  35.438  11.079
16389W        W86270   2.803  34.467  11.871
16390W        W86271  17.589  39.336   4.825
16391W        W86272  11.803  24.533   0.825
16392W        W86273  24.672  42.964  10.549
16393W        W86274   4.313  39.017   1.330
16394W        W86275   3.787  21.073   1.726
16395W        W86276  20.125   6.404  14.369
16396W        W86277  21.162  42.003  12.962
16397W        W86278  23.588  24.192  13.364
16398W        W86279   1.334  13.266  13.514
16399W        W86280  43.452  15.808   3.245
16400W        W86281  20.619  16.609   0.444
16401W        W86282  27.024  44.955  14.807
16402W        W86283  15.645  38.915  12.560
16403W        W86284  19.773  18.240   3.700
16404W        W86285  26.956  35.913  14.922
16405W        W86286  27.657  20.762   0.865
16406W        W86287  21.650  12.209   1.373
16407W        W86288  27.503  32.986   4.724
16408W        W86289  18.078  19.577  13.894
16409W        W86290   8.348  23.096   2.671
16410W        W86291  44.951  31.080   1.725
16411W        W86292  37.840  32.588   0.771
16412W        W86293  23.626   7.359   1.815
16413W        W86294  30.499  44.756   2.734
16414W        W86295  12.214  40.464  10.978
16415W        W86296  11.149  42.800   3.757
16416W        W86297  27.654  32.057  12.348
16417W        W86298  24.064  17.306   1.318
16418W        W86299  15.227  14.159   5.129
16419W        W86300  28.069   8.190   4.770
16420W        W86301  17.132  18.562   4.636
16421W        W86302  26.007  44.309   2.228
16422W        W86303  22.244  23.068  11.402
16423W        W86304  13.310   5.696   1.908
16424W        W86305  19.259  36.462  11.388
16425W        W86306  23.160  42.825   4.647
16426W        W86307   4.810  29.927   1.815
16427W        W86308  37.895   1.905   4.769
16428W        W86309  40.883   9.857  11.111
16429W        W86310  31.544  13.314  14.898
16430W        W86311  15.769  28.679  13.840
16431W        W86312  18.716   7.376  11.886
16432W        W86313  38.842  34.515   0.264
16433W        W86314   0.864   9.739   4.827
16434W        W86315  17.639  43.371   0.825
16435W        W86316  21.105   3.434  10.032
16436W        W86317  33.950  20.036   4.793
16437W        W86318  17.115  25.969   3.656
16438W        W86319  31.023  24.040   2.367
16439W        W86320  35.578  29.065   0.407
16440W        W86321  17.263   1.951   1.327
16441W        W86322  34.603  28.045   4.667
16442W        W86323   2.306  26.208   1.287
16443W        W86324   2.944  15.311  14.759
16444W        W86325  23.181   7.679   1.291
16445W        W86326  15.807  30.084   1.425
16446W        W86327  13.246  17.075   0.737
16447W        W86328   5.796  26.108   4.164
16448W        W86329  44.283  12.338  10.480
16449W        W86330  40.821  44.887   3.329
16450W        W86331  22.724  44.374   1.430
16451W        W86332  17.180  22.529  13.864
16452W        W86333  31.974  32.486  11.061
16453W        W86334  42.867  32.566  11.380
16454W        W86335  22.059  36.861  10.502
16455W        W86336  37.856  20.578  11.501
16456W        W86337  22.070  17.559  11.977
16457W        W86338   9.345  38.993  12.902
16458W        W86339  43.976  17.730   4.682
16459W        W86340  36.399  31.990   4.199
16460W        W86341  30.163  44.885   1.780
16461W        W86342  18.628  18.260  11.493
16462W        W86343  11.217  28.588  12.447
16463W        W86344  24.981  23.229  11.959
16464W        W86345  42.387  42.369  13.032
16465W        W86346   8.253  33.023   1.809
16466W        W86347  37.924   5.406   2.407
16467W        W86348   7.770  23.993   4.165
16468W        W86349  43.929  24.192   2.818
16469W        W86350  25.138  28.951   1.704
16470W        W86351  29.109  28.472   3.380
16471W        W86352   2.394  29.170  11.400
16472W        W86353  14.317  16.123  10.950
16473W        W86354  24.108  41.466   0.875
16474W        W86355  12.637   2.282  12.446
16475W        W86356  24.594  42.507   2.353
16476W        W86357  15.654  29.573  11.572
16477W        W86358  13.248  16.256   2.783
16478W        W86359  14.669   7.700   3.715
16479W        W86360  17.184  31.971   2.881
16480W        W86361  43.842  13.659  12.053
16481W        W86362  12.183  33.619   3.333
16482W        W86363  21.219  17.778  12.837
16483W        W86364  37.071  35.542   2.414
16484W        W86365   6.242  27.102   0.841
16485W        W86366   7.802  15.611   3.327
16486W        W86367  25.061   3.351   1.884
16487W        W86368  10.872   1.960   2.751
16488W        W86369  29.040  12.617  14.945
16489W        W86370  29.498  25.182  12.058
16490W        W86371  16.729  23.596  14.379
16491W        W86372  14.757   7.417   4.149
16492W        W86373  29.569  26.513  11.468
16493W        W86374  22.232   9.722   1.247
16494W        W86375   9.338  36.867   4.177
16495W        W86376  18.591  32.510   1.855
16496W        W86377  18.761  31.916   4.289
16497W        W86378  32.628  31.945  10.951
16498W        W86379  26.518  22.245  14.850
16499W        W86380   6.219  15.314  10.956
16500W        W86381  36.553   7.351   1.730
16501W        W86382  28.976  23.062  10.573
16502W        W86383  17.064  42.384   4.178
16503W        W86384   5.893  39.928   1.935
16504W        W86385   5.197  32.534  11.516
16505W        W86386  10.865  34.409  13.931
16506W        W86387  42.500  44.361   1.374
16507W        W86388   1.421  29.926  13.380
16508W        W86389  17.766  33.562  13.452
16509W        W86390   8.707  32.563  12.072
16510W        W86391  44.334  24.206   4.711
16511W        W86392  43.974  26.601   1.329
16512W        W86393   4.449   0.263   3.640
16513W        W86394   4.300   7.288  14.944
16514W        W86395  10.188   7.304   0.381
16515W        W86396   8.190  21.709   1.222
16516W        W86397  30.162  11.236   3.376
16517W        W86398  42.281  17.285   2.772
16518W        W86399  29.444  38.466   4.315
16519W        W86400  38.878  38.531  10.635
16520W        W86401  26.493  10.863   2.338
16521W        W86402  22.105   1.833   3.274
16522W        W86403  40.903  41.377   0.254
16523W        W86404   5.287  25.469   0.841
16524W        W86405  27.447  15.271  14.970
16525W        W86406  21.622  44.844   3.842
16526W        W86407   1.311  29.587  13.968
16527W        W86408   2.903   1.748  13.930
16528W        W86409  13.308  14.681  14.515
16529W        W86410  36.059  20.266  13.501
16530W        W86411  24.190  10.744   2.206
16531W        W86412   2.449  29.649  11.532
16532W        W86413  16.784  30.533   1.694
16533W        W86414  40.327  39.034   4.622
16534W        W86415   1.879  21.674  10.609
16535W        W86416  26.494   6.848   1.766
16536W        W86417  14.670  31.925  11.000
16537W        W86418  19.204  23.153  14.303
16538W        W86419  10.877   3.849   1.436
16539W        W86420  20.614  14.622  12.949
16540W        W86421   9.151  38.915   0.461
16541W        W86422  13.686  10.247  11.533
16542W        W86423  35.448  17.669   3.309
16543W        W86424  39.931   1.834  12.018
16544W        W86425  37.938  23.005   2.686
16545W        W86426  39.348  19.665   0.431
16546W        W86427  16.250  10.758  11.524
16547W        W86428  10.754  32.104   5.162
16548W        W86429   8.293  37.901  11.976
16549W        W86430  39.882   1.851  10.970
16550W        W86431  20.569   9.648  14.409
16551W        W86432  18.732  27.111   3.241
16552W        W86433  14.147  16.601   2.283
16553W        W86434  43.437  35.091  12.349
16554W        W86435  37.355   9.808  13.948
16555W        W86436  21.209   8.327  13.883
16556W        W86437  44.392  11.636   5.169
16557W        W86438  36.509  44.885   4.683
16558W        W86439  21.244  26.626  10.632
16559W        W86440  26.998  24.692   1.287
16560W        W86441  26.475  33.907   0.341
16561W        W86442  13.277  35.543  10.545
16562W        W86443  14.743   1.907  14.308
16563W        W86444   3.823  27.557   1.362
16564W        W86445  35.359   0.851  10.411
16565W        W86446  30.133  39.875   4.613
16566W        W86447  33.585  24.118   1.255
16567W        W86448  24.075  14.833  13.029
16568W        W86449   3.371  43.376  11.106
16569W        W86450  12.796  31.092  13.456
16570W        W86451  13.796  22.221  11.470
16571W        W86452  18.723  18.074  10.550
16572W        W86453  31.948  12.215   4.820
16573W        W86454  17.275  32.962   2.784
16574W        W86455  40.996  15.669  10.527
16575W        W86456  23.222   9.331  14.820
16576W        W86457  35.444  40.022  11.383
16577W        W86458  35.055  40.411  11.883
16578W        W86459  19.567   2.270  13.520
16579W        W86460  12.759  17.238   4.830
16580W        W86461  30.536  33.431  11.376
16581W        W86462  17.239  14.630   0.814
16582W        W86463  30.031  15.585   3.287
16583W        W86464  14.173  38.558   1.895
16584W        W86465  17.142   2.768  11.581
16585W        W86466   3.250  16.285  11.578
16586W        W86467  35.496   9.351  11.380
16587W        W86468  21.233  12.809   3.712
16588W        W86469   7.893  19.241  13.815
16589W        W86470  13.148  32.931  13.547
16590W        W86471  17.259  10.685  14.771
16591W        W86472  21.550   3.740  10.548
16592W        W86473  11.836   2.461   3.214
16593W        W86474  31.561  36.545  14.481
16594W        W86475   5.205  27.652  14.380
16595W        W86476  31.138  41.807  12.903
16596W        W86477  39.997   9.676  11.976
16597W        W86478  29.562  23.629   0.956
16598W        W86479  32.114  33.595  12.449
16599W        W86480  29.124  33.528  13.546
16600W        W86481  24.116  17.154   4.137
16601W        W86482  37.077  34.085  10.972
16602W        W86483  19.065  19.072  10.618
16603W        W86484  12.845  43.766  10.617
16604W        W86485  38.928   8.368  11.947
16605W        W86486  40.305  36.845  14.770
16606W        W86487  24.206  22.082  13.322
16607W        W86488  32.000   6.815  10.641
16608W        W86489  20.189  42.996  14.453
16609W        W86490  37.032  38.383  14.943
16610W        W86491  25.661  11.715   0.804
16611W        W86492  23.722  32.983  12.395
16612W        W86493   8.324  32.096   3.830
16613W        W86494  35.573  14.111  11.380
16614W        W86495  36.869  36.540   1.756
16615W        W86496  39.020  19.724   3.795
16616W        W86497  33.131  28.442   2.335
16617W        W86498  20.701  28.510  12.419
16618W        W86499  29.545  38.863   0.752
16619W        W86500   7.911  18.257   2.895
16620W        W86501  36.993  14.807  11.051
16621W        W86502   4.922  24.654   1.843
16622W        W86503  20.579  20.639   1.920
16623W        W86504  38.886   1.298  10.053
16624W        W86505  41.865   9.668  13.341
16625W        W86506  44.979  24.094   0.299
16626W        W86507  28.079   7.666  13.001
16627W        W86508  32.914  12.250  14.506
16628W        W86509  36.538  20.663   1.720
16629W        W86510  11.373  10.205  12.402
16630W        W86511   4.809   8.168   2.235
16631W        W86512  22.039  36.482   4.757
16632W        W86513   2.923   2.884   4.189
16633W        W86514  37.446  40.869  10.517
16634W        W86515  31.524  29.437  13.446
16635W        W86516  23.542  15.135  13.955
16636W        W86517   6.368  39.469  13.510
16637W        W86518  17.288  30.428   3.781
16638W        W86519  23.541  24.141  12.035
16639W        W86520  41.935   8.750  12.862
16640W        W86521  38.878  26.645   1.700
16641W        W86522  15.640  19.739   1.890
16642W        W86523  36.987   7.784  11.030
16643W        W86524  23.161  25.985  12.498
16644W        W86525   1.927  29.458   0.834
16645W        W86526  32.637  43.881   0.753
16646W        W86527  31.915   2.447  12.995
16647W        W86528   0.962  32.564  10.521
16648W        W86529   3.823   8.716   4.124
16649W        W86530  27.145   0.759  14.827
16650W        W86531   5.296  44.943   1.739
16651W        W86532   1.807  26.671   0.789
16652W        W86533  12.707   1.332  13.889
16653W        W86534  38.892  12.128   5.132
16654W        W86535  26.079  16.740   4.673
16655W        W86536  15.812  27.948  14.009
16656W        W86537  42.013  22.031   0.849
16657W        W86538  34.554  28.934   0.826
16658W        W86539  19.269  19.172   3.749
16659W        W86540  44.341  25.705   3.223
16660W        W86541  20.084  38.033  10.535
16661W        W86542  19.056   1.316  12.369
16662W        W86543  39.509   0.340   4.170
16663W        W86544  31.139  29.430  14.396
16664W        W86545  11.836  22.024   0.848
16665W        W86546  19.627   8.750  13.830
16666W        W86547   2.739  41.501  12.447
16667W        W86548  26.466   7.840  10.582
16668W        W86549  43.379  30.031  13.479
16669W        W86550   7.769  18.281   3.724
16670W        W86551  13.679   3.457   3.740
16671W        W86552   1.329   3.768   0.946
16672W        W86553  13.289  24.625   1.397
16673W        W86554   4.816  37.357  11.471
16674W        W86555  10.715  18.746   3.182
16675W        W86556  25.177  17.298   3.232
16676W        W86557  34.920  17.617  13.488
16677W        W86558  29.577   4.438   0.340
16678W        W86559  10.716   4.267   1.213
16679W        W86560  38.971   5.299  10.982
16680W        W86561  43.853   1.410   4.317
16681W        W86562  38.409  13.314  13.502
16682W        W86563  20.651  22.597  13.022
16683W        W86564  42.963  13.156   2.826
16684W        W86565  29.071  29.611   4.256
16685W        W86566   1.456  25.988   1.728
16686W        W86567   3.330  37.435  10.084
16687W        W86568  41.453  18.165  14.486
16688W        W86569  24.015   8.762   1.420
16689W        W86570  29.660  16.640   0.876
16690W        W86571  24.185  40.315   9.949
16691W        W86572  30.610  31.141   1.793
16692W        W86573  41.297  16.082  13.512
16693W        W86574  43.503  32.132   4.113
16694W        W86575  19.682  10.645  12.390
16695W        W86576  14.624  42.008  12.518
16696W        W86577  37.919  31.614  14.893
16697W        W86578  37.864  43.908   1.722
16698W        W86579  29.577  19.198  14.332
16699W        W86580  42.482  35.527   3.319
16700W        W86581  40.538  27.151   2.814
16701W        W86582   9.715  21.186  11.953
16702W        W86583  20.550  14.695  14.433
16703W        W86584  40.403  30.021  12.038
16704W        W86585  43.002  41.823   3.765
16705W        W86586  36.375  23.156  14.028
16706W        W86587  24.689  21.067   3.315
16707W        W86588  26.955  20.590  12.468
16708W        W86589  34.898  10.202  11.980
16709W        W86590  13.126   1.364  12.357
16710W        W86591   0.418  35.468  12.854
16711W        W86592  31.480   6.741  11.065
16712W        W86593  17.594  11.637  11.070
16713W        W86594   3.804   9.264   2.814
16714W        W86595  28.642  27.512   3.164
16715W        W86596  26.202  25.164  12.339
16716W        W86597  21.519  12.795   0.482
16717W        W86598   3.861  27.054   4.260
16718W        W86599  10.735  22.519  13.846
16719W        W86600  26.464  22.006  12.899
16720W        W86601  16.738   3.763   2.770
16721W        W86602   1.935  29.459  12.483
16722W        W86603  44.376   2.404   1.719
16723W        W86604  29.458  30.442  10.905
16724W        W86605   6.749   7.207   1.400
16725W        W86606  13.626  20.544  11.409
16726W        W86607  37.893   6.794  14.872
16727W        W86608  40.948   8.792   1.331
16728W        W86609   6.221  38.434  11.966
16729W        W86610   2.764   6.699   1.755
16730W        W86611   8.220  18.069   1.291
16731W        W86612  20.685  12.849   1.846
16732W        W86613  32.009  36.478  13.439
16733W        W86614   6.914  21.514   3.308
16734W        W86615   9.669  43.952  13.478
16735W        W86616   6.321  21.622  14.897
16736W        W86617  32.432  18.785  14.852
16737W        W86618  30.083  38.949   3.260
16738W        W86619   4.758  23.518   4.716
16739W        W86620   6.219  16.630  13.807
16740W        W86621  29.093  35.976  11.555
16741W        W86622  33.969  35.990  13.915
16742W        W86623   3.340   7.177   4.769
16743W        W86624  35.970  27.495  12.961
16744W        W86625  13.147   2.357   4.118
16745W        W86626  29.492   2.767   1.766
16746W        W86627  14.316   3.304   9.920
16747W        W86628  24.618  14.727   1.791
16748W        W86629  32.102  29.973  12.383
16749W        W86630  19.182  39.866   1.850
16750W        W86631   4.240   6.186  14.818
16751W        W86632  25.504  24.085   2.838
16752W        W86633  36.089  39.381  11.575
16753W        W86634  14.199  44.965   0.435
16754W        W86635  44.406  25.057   1.424
16755W        W86636  27.449   6.862  11.875
16756W        W86637  15.138  43.935   2.364
16757W        W86638   9.291  26.987   3.170
16758W        W86639  25.003  13.700  12.088
16759W        W86640   3.908   0.743  13.308
16760W        W86641  27.140   6.883   2.678
16761W        W86642  24.535   6.184   3.280
16762W        W86643  16.235   4.223  11.032
16763W        W86644   2.926  39.929   3.163
16764W        W86645  15.721   2.372  12.470
16765W        W86646   8.311  16.221   1.833
16766W        W86647  37.573   8.853  14.288
16767W        W86648  10.662  31.605   2.235
16768W        W86649  37.904  41.479  10.984
16769W        W86650   5.768  10.250  10.418
16770W        W86651   7.403  15.676   0.873
16771W        W86652  10.375  35.854  11.033
16772W        W86653  24.115   1.383  14.297
16773W        W86654  40.457  20.676  11.528
16774W        W86655  43.322  43.294  12.498
16775W        W86656   9.292  36.586   2.716
16776W        W86657   4.353  38.933  14.954
16777W        W86658  22.211  19.047   0.795
16778W        W86659  33.884   4.869   4.666
16779W        W86660  38.485   2.721  14.397
16780W        W86661  33.941   1.394  11.401
16781W        W86662  39.828  27.167  14.485
16782W        W86663  43.879   0.850   0.311
16783W        W86664  23.502  24.025   2.677
16784W        W86665  14.619  23.713   3.632
16785W        W86666  42.508  27.957   0.776
16786W        W86667  37.085  43.337   2.757
16787W        W86668   0.315  15.592   4.753
16788W        W86669  17.135  37.832   4.673
16789W        W86670  32.038  12.786   1.292
16790W        W86671  34.563  21.700   0.929
16791W        W86672  22.188  21.090  13.833
16792W        W86673  32.095   3.890   5.120
16793W        W86674  40.431  41.889  10.489
16794W        W86675  20.077   3.248   0.413
16795W        W86676  11.725   3.352   5.175
16796W        W86677  39.872  16.235  14.825
16797W        W86678  43.011  22.226   4.349
16798W        W86679  12.154  31.031   5.233
16799W        W86680  14.213   6.680   1.726
16800W        W86681  42.903   8.163   1.778
16801W        W86682  28.569  37.088   4.178
16802W        W86683  20.111  41.338   4.707
16803W        W86684  10.806  40.448  14.951
16804W        W86685   5.340  37.539   4.159
16805W        W86686  41.427  43.812  14.928
16806W        W86687  24.541  44.964   2.713
16807W        W86688  12.178  39.953  11.945
16808W        W86689   2.346  25.124   4.121
16809W        W86690  29.645  13.603   0.475
16810W        W86691   8.315  38.007   4.837
16811W        W86692  32.407  21.020   3.759
16812W        W86693   3.295  25.480   1.695
16813W        W86694  34.605  16.657   4.651
16814W        W86695  39.472  28.659  11.461
16815W        W86696  20.132   7.298   2.248
16816W        W86697  38.357  24.079   3.194
16817W        W86698  11.759   5.354   1.695
16818W        W86699  36.396  29.527  13.883
16819W        W86700   5.742  32.939   2.416
16820W        W86701  27.473  21.190   3.244
16821W        W86702   3.260  38.966  10.067
16822W        W86703  33.096  28.539   4.829
16823W        W86704  41.366  27.570  13.831
16824W        W86705  11.199  27.680   5.141
16825W        W86706  33.605  12.298  14.917
16826W        W86707   1.937  33.413   4.667
16827W        W86708   8.666  15.682   0.251
16828W        W86709  36.543  36.920   4.644
16829W        W86710  14.228  29.083   0.824
16830W        W86711  39.541  20.273  14.868
16831W        W86712  24.686  10.327   1.346
16832W        W86713  11.128  22.546  13.541
16833W        W86714  30.637  15.203   4.200
16834W        W86715  27.052   1.820   0.904
16835W        W86716  14.119  34.915   5.207
16836W        W86717   6.848   9.813  14.981
16837W        W86718  26.634  42.353  12.500
16838W        W86719   0.989  26.107  12.948
16839W        W86720  26.145  40.442   4.732
16840W        W86721   6.224   1.785   4.321
16841W        W86722  32.024  31.514   1.330
16842W        W86723  28.141  43.875  10.952
16843W        W86724  39.385  30.652   2.322
16844W        W86725   2.902   2.954  12.091
16845W        W86726  25.070   7.378  10.906
16846W        W86727   2.323  16.613  13.790
16847W        W86728  37.052  14.317  13.406
16848W        W86729   7.394   4.316   1.808
16849W        W86730  14.201  41.405   3.735
16850W        W86731  15.295   0.895  11.056
16851W        W86732  11.346   0.380   4.350
16852W        W86733   8.345  37.968   3.313
16853W        W86734   8.362   1.735   3.300
16854W        W86735  13.315  39.934   1.335
16855W        W86736   1.829  37.079   1.860
16856W        W86737  30.575  37.487  10.412
16857W        W86738  35.975   4.869  13.052
16858W        W86739  33.029  40.392   1.326
16859W        W86740  44.887  15.166   2.375
16860W        W86741  16.227   0.845   2.805
16861W        W86742  12.856  13.687  14.352
16862W        W86743   2.918  44.972   3.654
16863W        W86744  24.048  27.628  13.522
16864W        W86745  29.603  15.769  11.905
16865W        W86746  29.152  19.081  10.608
16866W        W86747   8.198  28.987   2.755
16867W        W86748   2.255   7.204  12.580
16868W        W86749  30.507  16.808  10.135
16869W        W86750  37.551   0.305   3.638
16870W        W86751   2.401  32.971   1.717
16871W        W86752  28.939  40.442  10.445
16872W        W86753   0.319  28.588  12.926
16873W        W86754  36.505  24.005  13.848
16874W        W86755   3.369  22.587  14.308
16875W        W86756  34.011  24.702  12.399
16876W        W86757  40.434  36.464  11.412
16877W        W86758  35.511   0.478  12.025
16878W        W86759   8.350  29.485   0.962
16879W        W86760   6.822   1.433  11.872
16880W        W86761  44.884  41.433  13.885
16881W        W86762  11.257  36.372   3.865
16882W        W86763  40.365  16.755   0.751
16883W        W86764  20.244  20.205  12.460
16884W        W86765  26.581  24.200   4.135
16885W        W86766  15.098  40.352  13.035
16886W        W86767   1.915  14.208   1.240
16887W        W86768   4.235  17.096   0.294
16888W        W86769  33.462  19.578   3.387
16889W        W86770  43.506  15.821  13.982
16890W        W86771  28.089   0.782   4.837
16891W        W86772  23.595  19.188  12.560
16892W        W86773  15.678  44.476  11.570
16893W        W86774   4.254  37.963   4.640
16894W        W86775   2.277   9.372  13.975
16895W        W86776  30.505  25.509  14.764
16896W        W86777  14.095   2.260   0.360
16897W        W86778  43.016   6.734   4.837
16898W        W86779  32.098   7.300   3.696
16899W        W86780  23.547  36.940  13.019
16900W        W86781  34.085  11.351   2.681
16901W        W86782  17.694  25.635  13.388
16902W        W86783  39.853  14.236  10.518
16903W        W86784  42.872  21.175   0.843
16904W        W86785   4.845  12.719   3.283
16905W        W86786  32.072  26.632  13.857
16906W        W86787  18.066  20.591  10.617
16907W        W86788   4.247   5.318   3.763
16908W        W86789   2.245  27.608   4.822
16909W        W86790   0.926  22.069   2.251
16910W        W86791  32.940   7.373  13.321
16911W        W86792  15.621   2.867   3.356
16912W        W86793   0.950  16.142   1.749
16913W        W86794  11.759  32.131  11.612
16914W        W86795  30.570  32.993  14.837
16915W        W86796   5.325  42.358   1.777
16916W        W86797  14.242  17.683   1.915
16917W        W86798  41.531  17.068   0.841
16918W        W86799  40.925  39.477  14.006
16919W        W86800  11.159   1.301  13.543
16920W        W86801  24.552  13.686  11.464
16921W        W86802  34.584  33.414   0.323
16922W        W86803  16.149  42.836   0.247
16923W        W86804  37.342  19.245   0.757
16924W        W86805  44.408  23.504  11.040
16925W        W86806  27.510  25.099   0.939
16926W        W86807   4.293   2.933  14.779
16927W        W86808  39.966   3.720   3.302
16928W        W86809   6.235  28.071   2.820
16929W        W86810   9.284  43.795  12.007
16930W        W86811  40.430  37.917   1.706
16931W        W86812  19.134   2.349   1.378
16932W        W86813  42.970  43.782  11.428
16933W        W86814  15.139  17.263  11.497
16934W        W86815  30.513   0.980  10.515
16935W        W86816  14.278   1.411   1.849
16936W        W86817  30.555  19.746   0.944
16937W        W86818  18.199  39.001   1.802
16938W        W86819  28.010   0.398  13.900
16939W        W86820   7.399  25.599  12.408
16940W        W86821  29.933  31.572   2.294
16941W        W86822  22.112  40.847   3.845
16942W        W86823   4.302  30.930   1.321
16943W        W86824  28.443  23.571  13.944
16944W        W86825   7.890  38.376   4.695
16945W        W86826  36.489   5.774   2.884
16946W        W86827  28.534   3.890   0.908
16947W        W86828  21.520   9.786  13.438
16948W        W86829  11.640  19.054  10.104
16949W        W86830  38.003  13.701  12.444
16950W        W86831  12.808  14.132  14.892
16951W        W86832  33.507  29.615   0.261
16952W        W86833  27.971  39.361   0.907
16953W        W86834  31.144  13.729  12.066
16954W        W86835   1.810   8.288  14.338
16955W        W86836   8.737  42.970  13.352
16956W        W86837  31.015  19.184   3.861
16957W        W86838  40.406  32.455  10.419
16958W        W86839  42.500   0.385   3.279
16959W        W86840  16.185   7.233   3.723
16960W        W86841  13.148   1.755  12.863
16961W        W86842   0.478  28.104  14.785
16962W        W86843  41.882  19.104  11.882
16963W        W86844  44.772  17.095   2.368
16964W        W86845  36.387  16.605  14.911
16965W        W86846  18.590  24.562  12.898
16966W        W86847  40.496  17.237   4.146
16967W        W86848  14.789   2.789   0.947
16968W        W86849   0.957  10.641  14.954
16969W        W86850  41.300  32.610  10.476
16970W        W86851  31.136  31.047   3.262
16971W        W86852  30.644  40.978   0.481
16972W        W86853   3.319  26.980  13.475
16973W        W86854  20.635  17.638  12.934
16974W        W86855  14.629  11.756  14.849
16975W        W86856  44.427   0.313   1.445
16976W        W86857  36.414  19.209   1.745
16977W        W86858  28.989  18.159  12.514
16978W        W86859  30.527  24.684  14.883
16979W        W86860  41.366  27.675  11.962
16980W        W86861  27.964   1.925   4.156
16981W        W86862  17.175  28.024  13.029
16982W        W86863  26.987  33.973  12.859
16983W        W86864  36.038  27.593  13.910
16984W        W86865  11.746   2.911   1.289
16985W        W86866  25.693  18.262   1.811
16986W        W86867  39.846  21.256  12.460
16987W        W86868  27.595  35.058  13.411
16988W        W86869  28.154  25.691  12.486
16989W        W86870  29.981  27.571  12.457
16990W        W86871  25.057   3.886   3.284
16991W        W86872  33.074  23.156  14.814
16992W        W86873  26.123  23.172   1.405
16993W        W86874  27.688  41.449   2.297
16994W        W86875  20.259  20.154  11.116
16995W        W86876   3.368  39.905   4.304
16996W        W86877  43.002  33.577   2.296
16997W        W86878  23.543   6.362   2.778
16998W        W86879   1.460  36.841  11.475
16999W        W86880  14.826   1.456   2.386
17000W        W86881   0.890  33.978  10.924
17001W        W86882  27.470  29.001   1.343
17002W        W86883   6.294  22.110  13.322
17003W        W86884   8.703  36.878  12.902
17004W        W86885  19.043   7.302  12.988
17005W        W86886  35.868   4.807  12.397
17006W        W86887  34.953  34.990  14.441
17007W        W86888  10.357  37.498   1.260
17008W        W86889  24.132  13.834   4.758
17009W        W86890  16.569  44.456  10.911
17010W        W86891  16.098  38.379   3.708
17011W        W86892  25.211  11.182   4.763
17012W        W86893   0.482  44.802   2.857
17013W        W86894  32.131  26.638  11.548
17014W        W86895  37.061  20.762  13.027
17015W        W86896  33.058  35.437   4.838
17016W        W86897  23.986   5.315  10.507
17017W        W86898   4.746  34.999   0.424
17018W        W86899  35.479  41.965   3.249
17019W        W86900   8.764  24.532   2.899
17020W        W86901  43.507   9.156  12.052
17021W        W86902  32.587   7.285   2.329
17022W        W86903  10.376  17.114   1.722
17023W        W86904  39.999  22.133  10.564
17024W        W86905  27.648  15.692  10.496
17025W        W86906  10.318   5.379  14.784
17026W        W86907  12.644   0.763   1.753
17027W        W86908  32.925  19.589  12.444
17028W        W86909  25.492   4.930   2.771
17029W        W86910  24.031  30.451   2.768
17030W        W86911  11.315  26.025   1.246
17031W        W86912  22.557  29.947   1.932
17032W        W86913  40.499  44.316   0.261
17033W        W86914   2.856  21.201  10.047
17034W        W86915  41.010  11.861   2.716
17035W        W86916  37.872  10.747   1.885
17036W        W86917  13.821  13.731   0.266
17037W        W86918  22.204  37.527  13.810
17038W        W86919  34.481  19.646   1.874
17039W        W86920   3.753  10.234  10.491
17040W        W86921  29.619  23.572   5.181
17041W        W86922   4.751  21.081  12.095
17042W        W86923   8.862  20.067   0.263
17043W        W86924  40.468   7.674  12.417
17044W        W86925  29.067  28.440   2.863
17045W        W86926  41.868  23.563  10.608
17046W        W86927   0.776  40.995  11.487
17047W        W86928  20.648   2.288   2.249
17048W        W86929   2.790   2.766  11.523
17049W        W86930  33.943  42.833   9.959
17050W        W86931  17.737  33.445  13.956
17051W        W86932   0.248   3.331  12.023
17052W        W86933  35.085  35.935  10.892
17053W        W86934  38.348  38.337  11.073
17054W        W86935   7.747   6.230   1.695
17055W        W86936   3.746  41.863  14.925
17056W        W86937   4.742  41.978   2.893
17057W        W86938  23.238  33.503   2.416
17058W        W86939   7.402  20.179  12.348
17059W        W86940  41.388  28.544  14.952
17060W        W86941   0.851  19.666   5.119
17061W        W86942  42.799   7.211  11.003
17062W        W86943   5.911   8.867   4.762
17063W        W86944  38.364  43.970  14.323
17064W        W86945  29.467  21.748   4.775
17065W        W86946   5.333   2.419  11.950
17066W        W86947  30.990  12.682   3.218
17067W        W86948  38.876  34.917   0.767
17068W        W86949   7.380  25.526   3.836
17069W        W86950   2.410  12.153  10.568
17070W        W86951  20.029  29.557  11.456
17071W        W86952  22.610  30.463  14.348
17072W        W86953   8.832  35.370  11.548
17073W        W86954  15.791  27.597  13.417
17074W        W86955  31.953   3.815   4.731
17075W        W86956  26.572  43.317   2.738
17076W        W86957  25.505  43.852   1.216
17077W        W86958  21.660   2.229   4.254
17078W        W86959  19.188  34.380   3.788
17079W        W86960  14.220  37.415  14.767
17080W        W86961  21.022  26.478  13.853
17081W        W86962  12.301   0.823  14.298
17082W        W86963   5.357  43.898   4.654
17083W        W86964  19.563   3.359   4.768
17084W        W86965  22.617  24.141   2.309
17085W        W86966   0.944  18.157  11.430
17086W        W86967  33.972  36.022   4.666
17087W        W86968  21.173  31.622  11.466
17088W        W86969  33.408  21.223  14.333
17089W        W86970  42.493   1.256  14.770
17090W        W86971  15.768   4.883   2.325
17091W        W86972  17.213  25.664   0.309
17092W        W86973  37.032   5.754   3.779
17093W        W86974  44.940  35.016   4.701
17094W        W86975  33.893   8.703   0.909
17095W        W86976  39.874  39.366  13.965
17096W        W86977  24.078  11.683   4.721
17097W        W86978  37.955   8.871  10.914
17098W        W86979  18.627  41.869  11.909
17099W        W86980  41.383   5.279   2.255
17100W        W86981  27.995   5.891   2.416
17101W        W86982  30.556  12.315   1.365
17102W        W86983  40.426  39.901  12.907
17103W        W86984  14.773  40.799  10.482
17104W        W86985  39.975  14.588   3.324
17105W        W86986  24.157  23.550  14.009
17106W        W86987  32.083  26.582   3.261
17107W        W86988  35.023  36.561  12.835
17108W        W86989   9.693   8.847   2.357
17109W        W86990   7.258  17.634   4.287
17110W        W86991  30.930  18.187  14.776
17111W        W86992   2.459   2.826   0.448
17112W        W86993  14.248  24.179   4.650
17113W        W86994  36.556  12.761   1.800
17114W        W86995   9.298  41.911  10.626
17115W        W86996   7.711  23.056   0.883
17116W        W86997  44.973  17.730   3.713
17117W        W86998  21.598  28.100  11.055
17118W        W86999  26.677   3.938  13.531
17119W        W87000  15.706  14.703   1.282
17120W        W87001  30.048  36.437   3.150
17121W        W87002   1.436  40.427   0.909
17122W        W87003  41.856  26.204   3.848
17123W        W87004  20.585  10.764  12.544
17124W        W87005  36.480   2.738  13.362
17125W        W87006  42.340  32.463  11.032
17126W        W87007  30.654  15.768   1.410
17127W        W87008  24.520  15.206  12.940
17128W        W87009  21.120  17.263  12.472
17129W        W87010  15.145  21.684   4.288
17130W        W87011   8.235  36.492   4.721
17131W        W87012  36.402  22.065  12.415
17132W        W87013   7.297  17.686  14.446
17133W        W87014  18.259  41.829  13.481
17134W        W87015  25.515  42.387  12.357
17135W        W87016  22.582  30.508   3.833
17136W        W87017  43.920   7.291   2.854
17137W        W87018  32.999  12.236  12.903
17138W        W87019  44.896  16.568  14.006
17139W        W87020  16.269  23.167   3.221
17140W        W87021  13.262  19.101  12.363
17141W        W87022  15.297  40.020  12.415
17142W        W87023  29.106  43.368   2.780
17143W        W87024  13.334   4.838   2.337
17144W        W87025  23.500  19.107  13.810
17145W        W87026  31.967  43.412   1.700
17146W        W87027  15.117  17.181   2.367
17147W        W87028  23.144   3.259  11.465
17148W        W87029   2.898  26.092   0.319
17149W        W87030  26.508  39.001  12.023
17150W        W87031  28.119   9.386   2.377
17151W        W87032   1.789   1.756  12.985
17152W        W87033   2.240  18.238   3.195
17153W        W87034  35.434  41.402   0.879
17154W        W87035   4.726  36.891   3.217
17155W        W87036  43.480  26.703   3.735
17156W        W87037  35.573  13.165  11.429
17157W        W87038  11.824  23.505   3.650
17158W        W87039   7.238  36.022  11.859
17159W        W87040  25.030  31.543   0.920
17160W        W87041  30.541  12.264   4.684
17161W        W87042  41.394  22.503   3.713
17162W        W87043  43.898  41.502   0.354
17163W        W87044  44.909  14.163   2.308
17164W        W87045  40.024   8.208  14.365
17165W        W87046  36.521  43.477  14.801
17166W        W87047   7.223  33.123   1.403
17167W        W87048   7.299   1.463  12.907
17168W        W87049   4.915  37.398   0.737
17169W        W87050  21.047   0.306  14.835
17170W        W87051  25.500  24.666  12.900
17171W        W87052   3.906  40.529   2.731
17172W        W87053  16.739  21.054  12.081
17173W        W87054   8.846  32.101   0.801
17174W        W87055  10.863  27.128   0.382
17175W        W87056  36.012  15.790   0.454
17176W        W87057  21.661  14.723  12.849
17177W        W87058  32.959  41.835   1.928
17178W        W87059  23.563   4.353   1.387
17179W        W87060   6.225  29.081  10.619
17180W        W87061   0.798  20.737   2.264
17181W        W87062  20.743   3.814   4.686
17182W        W87063  18.549  38.044   2.791
17183W        W87064  18.089  27.114  12.365
17184W        W87065  12.297  22.201   3.767
17185W        W87066  44.991  20.239  14.774
17186W        W87067  25.087  25.560   1.757
17187W        W87068  27.139  12.159  10.431
17188W        W87069  31.008  36.949   4.642
17189W        W87070   2.860   8.720  11.014
17190W        W87071  31.509  24.174   2.236
17191W        W87072  23.632  39.396   1.249
17192W        W87073  19.089  23.013   4.764
17193W        W87074  12.352  27.543   0.726
17194W        W87075  35.988  11.783  13.507
17195W        W87076  15.207  40.813   4.294
17196W        W87077  35.973  38.326   4.329
17197W        W87078  31.063  36.386   2.391
17198W        W87079  40.482  27.089   1.355
17199W        W87080  19.737  24.525   0.934
17200W        W87081  38.842   8.348   1.809
17201W        W87082   2.326   2.440   3.183
17202W        W87083   7.383   9.827   0.838
17203W        W87084  20.633  15.775   1.819
17204W        W87085   0.867   1.329  11.085
17205W        W87086  28.968  35.362  11.943
17206W        W87087  17.297  19.714  14.018
17207W        W87088   3.249  32.112   4.703
17208W        W87089  37.472  13.801  13.381
17209W        W87090  17.161  38.906   4.143
17210W        W87091  29.535  16.236   1.264
17211W        W87092  33.460   6.697  10.438
17212W        W87093  43.790  44.334   2.846
17213W        W87094  33.607  13.791   2.184
17214W        W87095  16.181  23.195   2.263
17215W        W87096  24.553  24.188   4.269
17216W        W87097   7.338   1.284  11.432
17217W        W87098  23.241  26.601   1.897
17218W        W87099  31.896   4.844   2.758
17219W        W87100  44.963   0.912   1.444
17220W        W87101  37.547  29.625  13.033
17221W        W87102   6.201  24.490   3.281
17222W        W87103  28.098  31.906  10.597
17223W        W87104  42.007  30.930  11.098
17224W        W87105  38.358   4.448   3.203
17225W        W87106  44.278  30.127  10.919
17226W        W87107   3.757  32.411  11.893
17227W        W87108  18.596  26.595   4.824
17228W        W87109  36.449  18.134   1.892
17229W        W87110  38.928   1.768   3.701
17230W        W87111  17.637  11.859   3.644
17231W        W87112  40.954  18.751   4.175
17232W        W87113  37.028   0.263  11.525
17233W        W87114  42.028  37.082  10.516
17234W        W87115  14.238  43.405  11.597
17235W        W87116  27.492  44.455  12.516
17236W        W87117   7.312  15.596   1.740
17237W        W87118  20.088   7.822  12.504
17238W        W87119  13.759  17.567  11.557
17239W        W87120   7.685  19.633  11.425
17240W        W87121  11.622  29.135   4.690
17241W        W87122  10.675  20.050  11.390
17242W        W87123  42.380  40.498  10.977
17243W        W87124  10.636  25.171  12.967
17244W        W87125  14.114   7.256  11.084
17245W        W87126  31.609  37.836   1.781
17246W        W87127  28.513  38.466   0.777
17247W        W87128  30.008  43.363   4.247
17248W        W87129   0.835   1.400   0.855
17249W        W87130   9.238  16.131   1.411
17250W        W87131   5.903   5.319   0.461
17251W        W87132  17.729  38.921  10.990
17252W        W87133  16.198  34.507  11.090
17253W        W87134  40.497  10.144   4.830
17254W        W87135  36.536  20.183  11.572
17255W        W87136  21.663  32.006  11.589
17256W        W87137  32.570  34.098  11.117
17257W        W87138  10.138  39.923   2.242
17258W        W87139  33.413  35.542   4.711
17259W        W87140  36.963   0.750   5.160
17260W        W87141  24.085  35.573   0.962
17261W        W87142  39.061   2.952   1.368
17262W        W87143  37.965  15.313   2.286
17263W        W87144  42.507  21.161  13.959
17264W        W87145  17.633   1.366  11.435
17265W        W87146  19.119  17.099   1.389
17266W        W87147  37.570   7.754  14.993
17267W        W87148   9.327   7.779  12.482
17268W        W87149  28.486  18.678  13.017
17269W        W87150  38.908  12.121  11.472
17270W        W87151   2.360  11.835   3.640
17271W        W87152  36.917  15.625   2.801
17272W        W87153   1.786  33.405  13.432
17273W        W87154  11.700  18.694   0.883
17274W        W87155  34.525  14.304  13.337
17275W        W87156  41.383  16.698  14.485
17276W        W87157  28.136  43.371   1.337
17277W        W87158  30.919   6.255  11.474
17278W        W87159  17.296  37.504   1.694
17279W        W87160  39.942   7.697   3.855
17280W        W87161  14.689   4.325  14.469
17281W        W87162  12.824  38.379   0.259
17282W        W87163  30.935  16.577   4.778
17283W        W87164  42.879  13.831   3.714
17284W        W87165  37.848  34.931  13.518
17285W        W87166  28.673  44.406  14.466
17286W        W87167  43.462  29.457  11.938
17287W        W87168  28.663   3.323   2.850
17288W        W87169   6.344  29.016   4.297
17289W        W87170  39.982   9.867   0.861
17290W        W87171  15.229  11.295   3.300
17291W        W87172  16.804  43.828   1.931
17292W        W87173  21.515  31.537   1.271
17293W        W87174  31.120  16.115   4.255
17294W        W87175  17.709  11.273  10.522
17295W        W87176   8.380  35.400   2.774
17296W        W87177  27.947  14.196  11.869
17297W        W87178  18.220  23.509   0.745
17298W        W87179  10.822  20.130   1.858
17299W        W87180  27.616  37.391   2.330
17300W        W87181  18.588  33.028   2.346
17301W        W87182  15.272   3.915  13.454
17302W        W87183  20.703  35.408   1.398
17303W        W87184  27.603  43.993   0.909
17304W        W87185  27.488  40.476   4.667
17305W        W87186  11.336   9.657   1.913
17306W        W87187   4.714  13.227   1.255
17307W        W87188   3.327  39.006  13.429
17308W        W87189   2.287  23.112  13.831
17309W        W87190  40.531  25.183  11.460
17310W        W87191  41.528  11.790  11.938
17311W        W87192  34.905  21.595  10.893
17312W        W87193  17.128  13.686   2.407
17313W        W87194   1.797  28.047   0.484
17314W        W87195  35.524  42.953   2.390
17315W        W87196  33.948  38.520  14.949
17316W        W87197  43.966   8.389  14.869
17317W        W87198   8.204  24.076   4.337
17318W        W87199  40.804   4.902  14.297
17319W        W87200  27.152  28.982   0.438
17320W        W87201  35.545  10.270  13.025
17321W        W87202  22.711  22.744   3.703
17322W        W87203   0.802  33.418  10.453
17323W        W87204  44.386   6.863   2.193
17324W        W87205  29.557  34.978  13.868
17325W        W87206   9.310  19.603   1.449
17326W        W87207  20.546  13.826   2.838
17327W        W87208  41.787  38.455   0.482
17328W        W87209  16.132  25.985   2.254
17329W        W87210  42.955  19.099   1.701
17330W        W87211   8.223  34.447  10.410
17331W        W87212  31.952  10.675  13.455
17332W        W87213  24.089   2.262  14.889
17333W        W87214  36.035  21.579   2.228
17334W        W87215  12.735   0.295  13.396
17335W        W87216  27.195  27.692  11.590
17336W        W87217  23.663  22.746   3.756
17337W        W87218   5.415  29.519  14.877
17338W        W87219  23.574  38.009  14.472
17339W        W87220   2.842  12.755  10.988
17340W        W87221  21.225  44.500  10.442
17341W        W87222  39.506  43.312   2.780
17342W        W87223  28.072  44.814   3.374
17343W        W87224   7.771  27.039   1.785
17344W        W87225   9.280  24.078  12.368
17345W        W87226   9.282  30.953   1.359
17346W        W87227  30.099   1.952   4.734
17347W        W87228  24.194  21.195  14.999
17348W        W87229  43.465  38.430  12.086
17349W        W87230  22.046  16.200  11.046
17350W        W87231  23.636  15.646   2.311
17351W        W87232  14.284  24.658   1.886
17352W        W87233  17.141  21.084   4.780
17353W        W87234  38.371   1.349  12.833
17354W        W87235   2.349   4.709  13.481
17355W        W87236   8.403  22.174  10.413
17356W        W87237  26.568  11.672   4.336
17357W        W87238  43.383   8.351   4.777
17358W        W87239  17.154  28.674  12.842
17359W        W87240  26.193  15.135   0.781
17360W        W87241  15.632  11.223   3.650
17361W        W87242  31.534  35.021  12.877
17362W        W87243  18.667   1.892  10.035
17363W        W87244   8.831  18.109  11.913
17364W        W87245   4.754  41.996  11.430
17365W        W87246   9.221   8.732  12.360
17366W        W87247  12.164  25.568   4.646
17367W        W87248  15.286   1.781   3.204
17368W        W87249  26.701  25.010   2.369
17369W        W87250  31.463   6.246  11.905
17370W        W87251  12.789  20.757  12.367
17371W        W87252   6.349  44.482   5.130
17372W        W87253  11.822  11.184   1.223
17373W        W87254  10.240  25.688  14.374
17374W        W87255  35.468  21.549   3.221
17375W        W87256  12.271  18.131  10.059
17376W        W87257  22.192  23.601   2.197
17377W        W87258  20.539  21.201  14.813
17378W        W87259  41.035  42.419   0.796
17379W        W87260  37.910  37.492  14.867
17380W        W87261   2.339  23.220  14.876
17381W        W87262   5.736  23.719   2.393
17382W        W87263  20.213  25.041   4.700
17383W        W87264   9.871  41.527   1.891
17384W        W87265  23.235  25.645  13.030
17385W        W87266  43.012   1.791  12.488
17386W        W87267  11.312   4.797  13.867
17387W        W87268  39.823  34.999  11.059
17388W        W87269   5.921  32.400   1.770
17389W        W87270  19.138  12.157  12.833
17390W        W87271  11.656   4.925   3.827
17391W        W87272  18.198  33.590   2.392
17392W        W87273  43.798  17.077  10.624
17393W        W87274  23.551  26.203  10.618
17394W        W87275  44.884  44.877   2.665
17395W        W87276  18.787  13.280  14.942
17396W        W87277  33.099   6.224  11.913
17397W        W87278  34.969  18.790  11.533
17398W        W87279   6.685  40.538   2.342
17399W        W87280  25.111   7.321  13.951
17400W        W87281   8.230  39.342  12.980
17401W        W87282  16.104  24.053  14.870
17402W        W87283  30.591  12.636  10.579
17403W        W87284   4.283  15.730   2.773
17404W        W87285  37.087  41.807  13.488
17405W        W87286  35.527   9.202  10.921
17406W        W87287  12.249   8.672  11.856
17407W        W87288  13.314   1.810   4.235
17408W        W87289  29.568  25.651   0.458
17409W        W87290  41.023  37.546  12.909
17410W        W87291   8.183   8.873   0.317
17411W        W87292  12.182  37.527   4.300
17412W        W87293  42.427  21.092   5.111
17413W        W87294  25.190  38.538  13.422
17414W        W87295  27.499   4.304   4.222
17415W        W87296  24.582   6.810  13.829
17416W        W87297  28.151  20.655  11.065
17417W        W87298  30.463  13.314  12.852
17418W        W87299  23.007  15.682  11.412
17419W        W87300   4.402  26.079   0.866
17420W        W87301   6.737  12.685  11.996
17421W        W87302  31.528  17.585  13.399
17422W        W87303   0.408  24.539  10.643
17423W        W87304  10.287  33.106   4.706
17424W        W87305  24.709  18.652   0.401
17425W        W87306  33.124   0.938  13.951
17426W        W87307  19.738  17.244   3.776
17427W        W87308  21.062   1.852  14.295
17428W        W87309  12.719  30.933  10.909
17429W        W87310  20.164  39.822   2.677
17430W        W87311  32.403  18.065   3.207
17431W        W87312   1.385  11.193   1.882
17432W        W87313  35.964   1.791  13.512
17433W        W87314  33.886  39.323  14.278
17434W        W87315   4.287  12.289  12.947
17435W        W87316  17.088  26.014  13.359
17436W        W87317  25.192  40.048   4.234
17437W        W87318  43.956  11.786  14.959
17438W        W87319  34.405   4.353   2.763
17439W        W87320  22.217  27.075  14.868
17440W        W87321  30.445  11.867  11.513
17441W        W87322  19.769  41.919  13.056
17442W        W87323  16.125  26.145  10.896
17443W        W87324   1.962  19.554   0.327
17444W        W87325  25.682  42.936  11.397
17445W        W87326  25.609  12.719  13.472
17446W        W87327   1.885  29.664   5.176
17447W        W87328  21.693  19.620  11.981
17448W        W87329  31.135  33.011   0.753
17449W        W87330  39.962  43.946   0.912
17450W        W87331  32.001  25.644   3.709
17451W        W87332  34.390   6.223   0.297
17452W        W87333   5.345  37.580  12.499
17453W        W87334  34.561  20.614   2.902
17454W        W87335  33.081  14.759  12.550
17455W        W87336  43.367   2.827  13.506
17456W        W87337  11.327  22.246  14.862
17457W        W87338  35.529  12.807  13.520
17458W        W87339  42.426  32.017  14.481
17459W        W87340  28.125  25.023  10.448
17460W        W87341  31.150  30.464   0.291
17461W        W87342   9.366   8.741   5.176
17462W        W87343  16.248   1.387   0.888
17463W        W87344   8.901  37.341   5.090
17464W        W87345  23.238  44.813  11.459
17465W        W87346  34.955  43.915   4.654
17466W        W87347  43.852  19.112  12.464
17467W        W87348  31.915  17.222  12.913
17468W        W87349  14.797   3.785  13.025
17469W        W87350   0.913  37.440  12.950
17470W        W87351  11.630  25.024  12.528
17471W        W87352  15.581  42.282   2.866
17472W        W87353  41.457   7.213   4.661
17473W        W87354  20.762  36.355   4.133
17474W        W87355  12.688  15.586   4.116
17475W        W87356  43.453  40.978  14.367
17476W        W87357  10.243  10.167   2.808
17477W        W87358  16.785  26.512   1.708
17478W        W87359   5.775  18.634   4.286
17479W        W87360  17.787  30.937   3.826
17480W        W87361  10.711   5.734   1.321
17481W        W87362  13.231  29.038  13.314
17482W        W87363  36.095  24.986   1.356
17483W        W87364  17.750  34.933  11.981
17484W        W87365   2.457  14.657   0.332
17485W        W87366   0.799   9.833  12.844
17486W        W87367  35.958  40.373  12.830
17487W        W87368  18.772   0.891  14.359
17488W        W87369  25.178  29.041   0.309
17489W        W87370  27.507  29.934   2.735
17490W        W87371   2.271  33.508   1.899
17491W        W87372  15.750  27.177   1.745
17492W        W87373   8.307   8.803   2.763
17493W        W87374  27.487  40.310  12.478
17494W        W87375  41.384  28.564   1.339
17495W        W87376  19.564  24.602  10.515
17496W        W87377   9.794  19.279   2.351
17497W        W87378  13.197  11.156  14.277
17498W        W87379  33.580  29.609   4.694
17499W        W87380  24.093  27.580   0.373
17500W        W87381   2.252  24.119  10.948
17501W        W87382  23.687  15.118  12.467
17502W        W87383   8.791  30.961   4.153
17503W        W87384   1.893  37.847  14.922
17504W        W87385  24.080   4.229  12.512
17505W        W87386  11.275  26.458  12.904
17506W        W87387  36.010  44.959   4.655
17507W        W87388  43.005  20.111   5.295
17508W        W87389  38.910  17.655   2.682
17509W        W87390  41.009  40.541  14.466
17510W        W87391  44.260  14.231   4.836
17511W        W87392  25.963  38.916  12.962
17512W        W87393   9.673   0.955  10.894
17513W        W87394  28.036   8.715  13.869
17514W        W87395  19.630   4.893   0.347
17515W        W87396  42.826  22.724  14.026
17516W        W87397  18.601  11.199   3.636
17517W        W87398   0.867  35.976   0.742
17518W        W87399  42.301  21.023   2.844
17519W        W87400  19.603  30.088   3.263
17520W        W87401  42.987  33.564  10.404
17521W        W87402  38.359   5.870   4.692
17522W        W87403  27.580  34.036   3.851
17523W        W87404  15.583  10.377   3.245
17524W        W87405  39.936  39.912  11.442
17525W        W87406  30.517  19.146   4.685
17526W        W87407  25.032   4.349   2.180
17527W        W87408  26.193  38.879   2.740
17528W        W87409   4.283  42.812   4.766
17529W        W87410  32.949  27.551   1.702
17530W        W87411  16.618  12.118   3.271
17531W        W87412  17.711  28.012  11.489
17532W        W87413  42.956  22.242  13.384
17533W        W87414   6.701   2.754   2.223
17534W        W87415   4.909  29.582   2.361
17535W        W87416   5.932  13.225   1.924
17536W        W87417  44.929  35.448  13.314
17537W        W87418   3.225   5.277  12.406
17538W        W87419  29.163   7.885   4.633
17539W        W87420  18.671  21.548   2.244
17540W        W87421  12.271  16.742  11.946
17541W        W87422  17.276  41.431   5.254
17542W        W87423  25.698  39.995  11.579
17543W        W87424  38.060   1.855  12.503
17544W        W87425  34.990  31.561   4.818
17545W        W87426  15.167  14.327  11.935
17546W        W87427   5.850  21.203  10.597
17547W        W87428  42.898  26.061   4.627
17548W        W87429  42.994   2.337   1.850
17549W        W87430  19.660  18.564  12.943
17550W        W87431   5.726  33.490  12.352
17551W        W87432  16.688  34.412   2.341
17552W        W87433  29.583  28.487   3.844
17553W        W87434  34.389  27.095   0.771
17554W        W87435  34.072  37.959  10.947
17555W        W87436  30.658  13.680  12.567
17556W        W87437  14.751   4.723  13.836
17557W        W87438  36.362  41.859  11.506
17558W        W87439  20.168  12.360  13.460
17559W        W87440  21.752   5.234  12.897
17560W        W87441   3.763  21.058  14.953
17561W        W87442  14.209  40.313   0.786
17562W        W87443  25.139   8.810   4.778
17563W        W87444   6.714   0.405  13.930
17564W        W87445  39.395  34.058   3.851
17565W        W87446  10.200   4.225  13.011
17566W        W87447   6.393  25.134  10.062
17567W        W87448   5.815  16.706   1.425
17568W        W87449  12.308   1.275  13.924
17569W        W87450  36.941  42.906  12.432
17570W        W87451  16.570  21.729   2.737
17571W        W87452  29.579  24.533   0.387
17572W        W87453  32.612  27.985   4.618
17573W        W87454  14.650  32.929  13.853
17574W        W87455  12.846  24.563  12.569
17575W        W87456  42.942  42.857  14.789
17576W        W87457  14.741  22.086  13.862
17577W        W87458  38.037  41.438  11.913
17578W        W87459   4.381  39.376   0.822
17579W        W87460  41.015   0.366   0.355
17580W        W87461   4.809  22.175  14.001
17581W        W87462  34.967  33.400   3.754
17582W        W87463  10.316   7.668   1.899
17583W        W87464  19.702   1.281   3.237
17584W        W87465  20.177  18.067  12.440
17585W        W87466  43.870  32.901  10.567
17586W        W87467  24.090  16.617  11.004
17587W        W87468  18.146  43.313  11.389
17588W        W87469   1.417  21.023   3.860
17589W        W87470  22.524  43.297   3.345
17590W        W87471  43.466  44.385  12.387
17591W        W87472  44.352  18.652  11.029
17592W        W87473  16.584  31.093  11.985
17593W        W87474   7.383   4.359  11.057
17594W        W87475  21.242  44.317   4.823
17595W        W87476  28.511  31.444   2.831
17596W        W87477  13.710   8.837   4.298
17597W        W87478   3.895  43.884   1.350
17598W        W87479  28.510   3.766  10.586
17599W        W87480  39.341  44.860  14.855
17600W        W87481  26.598   4.333  12.559
17601W        W87482  23.215   8.864  12.399
17602W        W87483  17.748   1.334   3.171
17603W        W87484  14.703  43.941   0.249
17604W        W87485   1.403  17.566  11.973
17605W        W87486  37.003  18.185   3.299
17606W        W87487  17.780  33.404  10.902
17607W        W87488  26.073  31.022   0.879
17608W        W87489  28.935  31.410   1.752
17609W        W87490  33.060  37.379   0.964
17610W        W87491  31.515  23.206  13.903
17611W        W87492  19.234  36.391  11.911
17612W        W87493  24.985   0.773   3.688
17613W        W87494  21.575  17.698  12.484
17614W        W87495  34.911  32.894   2.861
17615W        W87496  11.767  10.327   1.447
17616W        W87497  31.936   2.888  10.989
17617W        W87498  43.889  12.773  10.898
17618W        W87499   3.250  16.307  12.054
17619W        W87500  10.263   2.885   0.819
17620W        W87501   9.825  37.473  13.953
17621W        W87502   9.362  43.463   1.771
17622W        W87503  30.104   3.905  10.439
17623W        W87504  29.654  39.473   0.955
17624W        W87505   1.961  16.299  11.405
17625W        W87506  13.174  43.971  10.932
17626W        W87507  41.882  28.174  11.465
17627W        W87508  13.319  24.973  10.972
17628W        W87509  29.146  41.942  14.881
17629W        W87510  25.515  38.924  14.510
17630W        W87511  24.696  33.466   1.701
17631W        W87512   6.921  37.537  13.936
17632W        W87513  13.696   7.784  11.913
17633W        W87514  27.519  23.640   9.476
17634W        W87515  14.796  13.336   2.709
17635W        W87516  17.701  34.452  11.031
17636W        W87517  40.934  25.536   4.762
17637W        W87518  34.395   8.361  10.529
17638W        W87519  37.432  31.558  14.859
17639W        W87520   2.857   3.254   1.707
17640W        W87521  43.377  34.447  12.450
17641W        W87522  42.799  31.466   3.149
17642W        W87523  43.934  32.064  12.441
17643W        W87524  31.564  19.742   4.182
17644W        W87525  18.586  42.914  10.010
17645W        W87526  11.713  20.126   2.730
17646W        W87527  15.287  20.578   0.288
17647W        W87528  12.748   7.381   0.364
17648W        W87529  35.520  28.617  11.117
17649W        W87530  33.955  20.067   4.347
17650W        W87531  22.672  34.402   3.751
17651W        W87532  19.099  37.577   3.803
17652W        W87533  25.605  29.989  11.560
17653W        W87534   5.700   5.229  12.941
17654W        W87535  44.455  30.975  12.933
17655W        W87536   8.362  25.133   4.758
17656W        W87537  34.590  23.241  11.108
17657W        W87538  21.601  24.510   2.833
17658W        W87539  22.516  44.992   4.251
17659W        W87540  14.658   9.677  14.356
17660W        W87541  20.698  44.948  12.457
17661W        W87542  21.513  33.098  13.927
17662W        W87543  39.438  22.110   1.806
17663W        W87544  12.813  37.854   1.318
17664W        W87545   0.762  31.432  13.334
17665W        W87546  20.654  37.048   2.382
17666W        W87547  22.501   5.408  10.542
17667W        W87548  33.548  38.556  10.474
17668W        W87549   6.371   3.727  13.332
17669W        W87550  13.836  25.478  11.537
17670W        W87551  36.965  43.877   1.221
17671W        W87552   6.855  40.501   4.607
17672W        W87553  19.279   5.863  13.351
17673W        W87554   6.184  37.459  10.159
17674W        W87555  22.227  17.639   0.440
17675W        W87556   6.214  29.164  12.577
17676W        W87557  39.856  22.637   3.843
17677W        W87558  34.883  15.196  13.531
17678W        W87559  42.789  33.994  11.396
17679W        W87560  35.945   6.901  13.307
17680W        W87561   8.402  42.499   0.396
17681W        W87562   5.330  18.179  12.375
17682W        W87563  15.092  13.603  14.967
17683W        W87564  32.067  33.053  14.506
17684W        W87565  13.675   5.895  11.478
17685W        W87566  15.258  28.477  13.434
17686W        W87567   0.833  21.062  10.038
17687W        W87568  39.316  37.501   1.395
17688W        W87569   1.372   1.881  11.503
17689W        W87570  27.619  11.632   0.466
17690W        W87571  21.120  13.758  12.578
17691W        W87572  37.869  17.641  10.959
17692W        W87573   5.280  18.666  14.896
17693W        W87574   8.405  18.237   4.686
17694W        W87575  25.588  29.551  13.016
17695W        W87576   2.233  20.630   3.378
17696W        W87577   5.293  38.493  14.302
17697W        W87578  41.501  14.660   4.689
17698W        W87579  27.508  44.795  11.936
17699W        W87580  21.620  13.673   3.186
17700W        W87581  28.173  38.824   2.853
17701W        W87582  31.951  35.101  13.849
17702W        W87583  17.761  12.689  12.043
17703W        W87584  22.708  16.097   3.369
17704W        W87585  19.670  25.687  12.350
17705W        W87586   4.282  35.900   3.707
17706W        W87587  13.602  35.042  12.348
17707W        W87588  38.341   3.460  13.030
17708W        W87589  42.836  18.277   1.214
17709W        W87590  19.203  14.104   3.168
17710W        W87591  34.056  12.342  13.468
17711W        W87592  23.641   4.387   0.888
17712W        W87593   2.270  35.979  12.535
17713W        W87594  29.565  15.821  11.559
17714W        W87595   9.875  34.916   3.696
17715W        W87596  32.586   0.438  12.387
17716W        W87597  29.437   0.774  12.938
17717W        W87598  25.214  41.348  13.987
17718W        W87599  30.148  35.373   3.646
17719W        W87600  44.823  35.423   3.667
17720W        W87601  23.505  26.010  13.062
17721W        W87602  44.434  15.711  13.482
17722W        W87603  18.754   2.372  11.104
17723W        W87604   3.379  43.451   0.435
17724W        W87605  19.721  16.800   3.846
17725W        W87606  31.961  22.083   5.143
17726W        W87607   9.826  14.808  14.777
17727W        W87608  28.629  12.135   4.619
17728W        W87609  14.157  14.289   1.929
17729W        W87610   4.714   2.811   1.383
17730W        W87611   1.870  18.142   4.686
17731W        W87612  24.164  41.327   1.270
17732W        W87613  35.852   1.284  10.589
17733W        W87614  16.648  30.047  10.899
17734W        W87615   6.316  35.429   4.215
17735W        W87616   9.213  10.142  12.988
17736W        W87617  11.843  25.114  10.161
17737W        W87618  43.336  37.458  12.858
17738W        W87619  16.079  36.445  11.074
17739W        W87620  10.827  11.851  13.475
17740W        W87621  36.589  30.503   3.858
17741W        W87622  33.464  26.134   2.399
17742W        W87623   4.393  29.992  12.475
17743W        W87624  25.660   1.743   3.370
17744W        W87625  44.262  42.376  12.906
17745W        W87626  36.040  41.527   4.168
17746W        W87627  12.831  30.115  12.995
17747W        W87628   2.231  34.553   1.751
17748W        W87629  38.902  12.141  13.345
17749W        W87630  36.092   1.774  10.579
17750W        W87631  27.470   0.828  10.959
17751W        W87632  36.898  37.491  12.081
17752W        W87633  40.528  27.541   0.446
17753W        W87634  36.094  28.569  14.295
17754W        W87635  43.816  16.099   0.842
17755W        W87636  30.102  10.719   0.375
17756W        W87637  24.548  20.667   1.255
17757W        W87638   4.414  43.441   2.274
17758W        W87639   1.412  26.497   0.743
17759W        W87640  43.279  32.129  14.950
17760W        W87641  20.718  38.379  10.934
17761W        W87642  22.035  17.190   0.249
17762W        W87643  27.562   3.833   3.357
17763W        W87644  30.061  33.602   0.425
17764W        W87645   9.326  22.585  12.051
17765W        W87646  43.426  27.481  14.295
17766W        W87647  17.610  37.977  10.931
17767W        W87648   1.243   3.340   0.877
17768W        W87649  36.886  32.471  11.577
17769W        W87650   0.431  33.061   4.150
17770W        W87651  44.338  38.050  10.503
17771W        W87652  32.039  37.007   4.308
17772W        W87653  40.472  13.341   2.351
17773W        W87654  18.707  27.554   4.791
17774W        W87655  29.932   5.283  11.549
17775W        W87656  31.501   8.204   3.382
17776W        W87657  15.135  42.362   2.692
17777W        W87658   6.188   2.743   0.410
17778W        W87659  17.115   3.406   3.373
17779W        W87660  43.473  20.721   3.304
17780W        W87661   9.197  41.865   2.272
17781W        W87662  35.537  24.702  13.044
17782W        W87663  22.169  11.648   4.724
17783W        W87664  24.006  39.843   0.422
17784W        W87665  14.104  32.123   0.903
17785W        W87666  39.426   7.701   3.252
17786W        W87667   0.391  42.959  11.940
17787W        W87668  25.512  23.179  14.780
17788W        W87669  21.227   7.736  11.960
17789W        W87670   7.262  40.859  14.864
17790W        W87671  27.090  12.241   1.842
17791W        W87672   7.273  10.378   5.221
17792W        W87673   3.821   9.363  14.763
17793W        W87674  37.368  42.885   0.800
17794W        W87675   7.329  30.108   2.796
17795W        W87676  27.110  32.141   1.422
17796W        W87677  16.740  39.339  14.496
17797W        W87678  36.495  16.737  11.873
17798W        W87679   0.380  35.586   0.398
17799W        W87680  24.175   8.203  14.407
17800W        W87681  17.750  29.652  12.870
17801W        W87682  20.563   5.817   2.792
17802W        W87683  36.090   0.363   5.254
17803W        W87684   2.227  22.007  14.448
17804W        W87685  21.176  40.470   2.866
17805W        W87686  19.149  40.053  14.874
17806W        W87687  12.658  17.589  12.044
17807W        W87688  18.727   0.273   2.901
17808W        W87689  19.147  30.476   0.782
17809W        W87690  43.437  24.196   3.823
17810W        W87691   9.288  20.597  13.876
17811W        W87692  20.189  16.309  13.849
17812W        W87693   5.276   1.456  11.577
17813W        W87694   2.772  35.948  10.945
17814W        W87695  13.689  36.016  10.448
17815W        W87696  23.568   0.823   3.188
17816W        W87697  30.012  36.468   1.754
17817W        W87698  26.061  23.021  12.910
17818W        W87699  17.073  34.498   2.319
17819W        W87700   1.366  25.174  13.895
17820W        W87701   8.184  32.465   0.396
17821W        W87702   1.938   4.733   1.332
17822W        W87703  10.691  30.151  12.437
17823W        W87704  19.542  31.500   2.407
17824W        W87705  12.626  36.980  13.000
17825W        W87706  37.539  15.776   0.731
17826W        W87707  17.248  23.663   4.685
17827W        W87708  31.094  10.181   3.720
17828W        W87709  10.640  36.395   1.446
17829W        W87710  21.184  18.200   0.918
17830W        W87711  44.990  12.785  11.464
17831W        W87712  13.246   4.230  14.863
17832W        W87713  13.286   4.843  12.498
17833W        W87714  23.720   4.738  13.478
17834W        W87715  26.606  37.067  14.841
17835W        W87716  38.480  15.750  12.470
17836W        W87717   4.774   1.418   2.183
17837W        W87718   4.801   5.879   0.738
17838W        W87719  29.985  18.775   0.759
17839W        W87720  43.331   4.242   3.274
17840W        W87721  44.781  37.834  12.462
17841W        W87722  36.539  41.832   1.415
17842W        W87723   8.803  37.488   2.308
17843W        W87724  34.470  38.831   3.759
17844W        W87725  33.087  37.035   2.272
17845W        W87726  34.971  28.493   1.905
17846W        W87727  37.072   1.950   4.137
17847W        W87728  21.043  20.641  10.470
17848W        W87729  41.387  28.452   4.784
17849W        W87730  11.760   3.765   1.408
17850W        W87731  42.415  35.978  13.925
17851W        W87732  13.752  14.148  12.824
17852W        W87733  36.060  11.799  14.820
17853W        W87734  31.541  15.617   1.924
17854W        W87735  36.461  43.289  13.988
17855W        W87736  24.051  25.500   4.811
17856W        W87737  23.992  33.066   1.734
17857W        W87738   5.801  35.371   4.249
17858W        W87739  20.163   1.917  13.824
17859W        W87740  22.601  17.795   1.210
17860W        W87741  14.271   8.749   4.146
17861W        W87742   8.191  16.782  12.533
17862W        W87743  41.336  37.385  14.374
17863W        W87744   5.272  21.752   4.351
17864W        W87745   8.395  14.640  12.575
17865W        W87746  14.337  21.242  14.965
17866W        W87747  31.580  23.219  12.564
17867W        W87748  21.675   2.308  10.954
17868W        W87749  15.133   0.473   2.786
17869W        W87750  10.363   2.343  13.447
17870W        W87751  37.872  33.908   1.226
17871W        W87752   7.175   8.889  11.533
17872W        W87753  38.021  21.211   2.691
17873W        W87754  30.136   4.312   4.814
17874W        W87755  10.640  13.326   3.781
17875W        W87756  23.635  17.731  11.927
17876W        W87757  34.068  17.175   1.424
17877W        W87758  25.607  29.139  10.597
17878W        W87759  28.508  28.075  11.447
17879W        W87760  16.645  39.445  12.366
17880W        W87761  17.138   8.670   1.917
17881W        W87762  15.743  13.281  13.448
17882W        W87763   2.469   4.354   2.753
17883W        W87764  10.773   3.950  12.988
17884W        W87765  37.523  23.194  10.514
17885W        W87766  10.159  37.921   0.460
17886W        W87767   5.388  11.711   4.168
17887W        W87768  30.487  32.131   0.870
17888W        W87769   3.943   7.214  12.563
17889W        W87770  22.014  27.082   2.860
17890W        W87771  39.039  40.818   0.255
17891W        W87772   9.766  39.883  13.430
17892W        W87773   6.210  22.156   1.738
17893W        W87774  33.954   3.296  12.387
17894W        W87775  44.345  34.954  14.455
17895W        W87776  12.797  31.574  11.966
17896W        W87777   8.327   1.783  12.039
17897W        W87778   6.773  25.213  10.474
17898W        W87779  11.153  38.451   1.913
17899W        W87780  33.915  29.927  11.081
17900W        W87781  37.369  44.812   4.303
17901W        W87782  10.363  10.850  12.040
17902W        W87783  15.725  32.059  11.065
17903W        W87784  11.664  17.257   4.604
17904W        W87785   2.731   5.805  10.538
17905W        W87786  27.614  14.265  12.018
17906W        W87787  24.676  32.586  14.014
17907W        W87788   7.310  31.405   4.114
17908W        W87789  23.082  28.055  12.506
17909W        W87790  44.471  30.912   1.749
17910W        W87791  35.571   8.297   1.759
17911W        W87792  20.222   0.888   0.365
17912W        W87793  26.162  28.519  13.852
17913W        W87794   7.757  29.643  11.928
17914W        W87795  44.482  28.137   3.799
17915W        W87796  29.028  38.518  12.967
17916W        W87797  38.508  26.464   1.362
17917W        W87798  10.278  15.647   0.785
17918W        W87799   2.464   7.784   0.386
17919W        W87800  44.396   5.906   1.884
17920W        W87801  26.165  30.432   4.801
17921W        W87802   2.269  24.039  13.868
17922W        W87803   6.324   4.771  11.400
17923W        W87804   5.213   8.836  12.413
17924W        W87805  16.617  30.031  13.911
17925W        W87806  22.077  21.153   4.692
17926W        W87807  16.651  32.967  13.022
17927W        W87808  42.858  20.163   4.224
17928W        W87809  33.391  12.639   1.897
17929W        W87810   4.316  24.061   3.631
17930W        W87811   1.416  11.283  14.906
17931W        W87812  24.595  11.314  13.409
17932W        W87813  24.010   8.859   2.315
17933W        W87814  36.987  23.711   2.888
17934W        W87815  20.151  44.399  14.290
17935W        W87816  40.033  24.543   3.325
17936W        W87817  22.734  27.948   5.169
17937W        W87818  31.501  14.677  12.417
17938W        W87819  23.064  33.475   1.329
17939W        W87820  13.757   1.769  12.433
17940W        W87821  27.484  37.908  11.558
17941W        W87822  44.991  23.224   3.318
17942W        W87823  20.198  20.671   3.286
17943W        W87824  13.243  26.468   4.353
17944W        W87825  18.742  12.657   2.774
17945W        W87826  17.799   5.394   3.695
17946W        W87827  40.013   1.732   2.408
17947W        W87828  31.139  29.472   4.290
17948W        W87829   1.819  22.197  13.829
17949W        W87830   3.392  13.288   4.284
17950W        W87831  17.770  12.293   4.830
17951W        W87832  13.729  43.014   1.708
17952W        W87833  16.095   5.761   3.777
17953W        W87834  36.393  26.610  14.503
17954W        W87835  24.669  30.444  13.885
17955W        W87836  32.900  20.705   2.736
17956W        W87837   2.419  25.028  14.012
17957W        W87838  44.350  40.818   2.895
17958W        W87839  21.088  30.106   3.863
17959W        W87840  36.552  32.033   0.871
17960W        W87841  24.997  22.720  11.407
17961W        W87842  16.160  13.223   3.158
17962W        W87843  22.512  13.203   3.759
17963W        W87844  37.489  23.634  12.037
17964W        W87845  38.055  14.678   0.352
17965W        W87846  43.366  22.132  12.996
17966W        W87847  28.116  23.212  13.038
17967W        W87848  21.244  22.735   2.316
17968W        W87849  19.692  32.468  13.484
17969W        W87850  29.058   5.320   1.323
17970W        W87851   5.901  28.005   0.382
17971W        W87852   2.760  15.580  11.907
17972W        W87853  27.107  11.836   1.217
17973W        W87854  31.597  27.559  13.949
17974W        W87855  29.984   2.246  14.335
17975W        W87856  42.781   0.811  14.852
17976W        W87857  37.056  24.706   1.413
17977W        W87858  29.926  34.081  14.803
17978W        W87859   1.406  27.575  11.097
17979W        W87860  42.493  24.723   0.353
17980W        W87861  44.780   3.711   0.912
17981W        W87862  20.689  33.006   1.815
17982W        W87863  26.471  41.345  11.510
17983W        W87864  40.344   4.698  13.018
17984W        W87865  14.160  36.418   5.191
17985W        W87866  30.549  32.979   3.277
17986W        W87867  12.303  16.618  14.763
17987W        W87868  16.774   9.674  13.404
17988W        W87869  22.123   1.754  14.465
17989W        W87870  29.557  32.016   1.316
17990W        W87871   0.386   3.373   4.802
17991W        W87872  20.185  28.166  10.086
17992W        W87873   6.776   1.348  12.557
17993W        W87874   1.464  36.047  10.908
17994W        W87875  25.522  24.665  13.415
17995W        W87876  35.985  12.790  12.049
17996W        W87877  12.690  16.605  11.107
17997W        W87878  39.392  39.374   3.295
17998W        W87879  22.701   0.253  12.014
17999W        W87880  22.721  27.166   3.630
18000W        W87881  25.203  32.443   4.274
18001W        W87882  10.321  20.591   4.330
18002W        W87883   0.373  41.502  11.960
18003W        W87884  10.319  14.112  13.986
18004W        W87885  21.678  26.993  14.447
18005W        W87886  34.863  38.040  12.971
18006W        W87887  25.148  31.617  14.487
18007W        W87888  31.550   7.323  13.062
18008W        W87889  33.450   6.795  13.334
18009W        W87890  17.800   8.403   0.803
18010W        W87891  32.461  35.535  10.426
18011W        W87892  17.071  37.422  12.561
18012W        W87893  41.294  32.118   3.201
18013W        W87894  23.580  18.728  14.914
18014W        W87895  37.904  41.463   2.404
18015W        W87896  15.285  38.405   0.360
18016W        W87897  38.976   4.935  12.939
18017W        W87898  40.895  29.122  10.623
18018W        W87899  37.922  13.147  14.470
18019W        W87900  44.964  15.209   2.859
18020W        W87901  35.358  29.618   2.747
18021W        W87902  42.018  31.144   1.770
18022W        W87903   6.694  31.417   3.278
18023W        W87904   5.865   2.756  12.447
18024W        W87905  19.614  42.837   2.801
18025W        W87906   0.388  17.140  12.476
18026W        W87907  21.624  25.124   0.293
18027W        W87908  38.551  29.068  14.305
18028W        W87909  38.047  37.549  10.512
18029W        W87910  26.619  15.223   4.621
18030W        W87911  32.578  20.066  10.496
18031W        W87912  19.227  10.848  11.018
18032W        W87913  43.393  33.039  12.514
18033W        W87914  42.390  29.077   4.785
18034W        W87915  15.597  25.688   1.280
18035W        W87916  37.988   3.357   0.357
18036W        W87917  35.076  14.611   1.383
18037W        W87918  40.374  22.192   3.825
18038W        W87919  36.980  29.925   1.319
18039W        W87920   7.872  20.671   0.353
18040W        W87921  36.561   3.413   0.425
18041W        W87922   9.643  28.573   1.290
18042W        W87923  28.576  39.475  12.948
18043W        W87924  10.370  38.551  14.455
18044W        W87925   8.674  19.667   2.721
18045W        W87926   0.342  18.597  13.907
18046W        W87927  41.037  42.304  10.478
18047W        W87928  19.535  18.294  11.497
18048W        W87929  15.183  16.256  10.414
18049W        W87930   0.304  10.366   0.921
18050W        W87931  28.015  37.528  10.954
18051W        W87932  21.218  31.911   0.954
18052W        W87933  44.936  34.908   0.737
18053W        W87934  39.940   8.398   0.912
18054W        W87935  36.531  31.939  10.500
18055W        W87936  30.961   5.802  10.586
18056W        W87937  41.017  16.075   0.847
18057W        W87938  27.048   2.837   3.667
18058W        W87939  20.749   3.449  10.607
18059W        W87940   8.196  36.949   0.285
18060W        W87941  23.638   8.748   4.601
18061W        W87942  23.151  27.975  13.969
18062W        W87943   2.833  43.433  11.938
18063W        W87944  43.438   3.943  12.510
18064W        W87945  38.905  42.915  14.281
18065W        W87946  17.177   6.725   2.303
18066W        W87947  41.842  24.202  12.038
18067W        W87948  23.511  26.188   3.219
18068W        W87949   8.786  21.144  13.536
18069W        W87950   1.300  23.126  13.536
18070W        W87951   4.836  21.118   3.849
18071W        W87952  39.464  32.530   4.137
18072W        W87953  42.806  11.172  10.030
18073W        W87954  32.566  22.084   0.378
18074W        W87955  34.890  28.973  12.407
18075W        W87956   9.236  41.471   1.802
18076W        W87957  13.260  44.283   4.622
18077W        W87958  21.671   8.728  13.023
18078W        W87959  26.613  22.512   2.780
18079W        W87960  21.715  15.289   1.423
18080W        W87961  40.406  19.631  10.617
18081W        W87962   6.200   3.452  10.584
18082W        W87963  29.606  40.493   0.866
18083W        W87964  25.543   6.245  14.813
18084W        W87965  29.162  43.502  14.404
18085W        W87966  43.500   6.773   2.345
18086W        W87967  16.727  37.338  12.027
18087W        W87968  16.633  43.281  14.026
18088W        W87969   3.946   9.274  11.870
18089W        W87970  32.479  15.200  13.355
18090W        W87971   7.340  41.394  11.590
18091W        W87972  36.430  16.742   3.243
18092W        W87973   8.748  31.105  12.020
18093W        W87974  20.185  34.948  11.377
18094W        W87975  40.546   9.201  11.481
18095W        W87976  19.198   4.221  12.497
18096W        W87977  21.738  22.744   3.673
18097W        W87978  21.100   1.740   4.261
18098W        W87979  35.478  28.177   2.376
18099W        W87980  13.838  29.170   4.813
18100W        W87981  21.588  30.477   3.667
18101W        W87982  39.854   0.331   0.908
18102W        W87983  11.765  18.560   1.922
18103W        W87984  26.993  42.337   4.699
18104W        W87985  12.784  36.044   2.802
18105W        W87986  33.493   3.378   1.717
18106W        W87987   8.712  21.187   4.756
18107W        W87988  10.781  40.342   2.895
18108W        W87989  34.450  32.042   2.886
18109W        W87990  44.438  10.676  12.943
18110W        W87991   7.231  27.595   1.934
18111W        W87992  41.871  17.791   0.952
18112W        W87993  40.894  24.103   1.753
18113W        W87994   5.363  41.342   5.181
18114W        W87995  30.991   7.267   1.869
18115W        W87996  10.158  41.372  10.540
18116W        W87997  14.321  36.533  13.901
18117W        W87998   5.431   4.438   1.746
18118W        W87999  17.776  10.642  11.455
18119W        W88000  42.505  40.344  10.582
18120W        W88001  33.538  17.253  13.868
18121W        W88002  14.677  37.377  11.446
18122W        W88003  32.003  39.826   4.630
18123W        W88004  14.248  16.171  14.850
18124W        W88005   5.317  24.097   1.241
18125W        W88006   7.289   8.216   2.837
18126W        W88007  29.503  41.475  12.423
18127W        W88008  34.531   6.392   3.202
18128W        W88009  42.826  42.908  11.028
18129W        W88010  33.601  35.104  10.592
18130W        W88011   4.759  30.120  13.943
18131W        W88012  12.697   6.327  12.861
18132W        W88013   0.337   1.296   3.348
18133W        W88014  35.456  14.311  13.939
18134W        W88015   2.375  15.169  12.824
18135W        W88016  11.152  10.651   3.708
18136W        W88017  15.632  15.805  11.856
18137W        W88018  20.265  12.639  14.935
18138W        W88019  14.764  33.028  14.986
18139W        W88020   0.778  11.656   0.434
18140W        W88021   6.192  37.347   2.882
18141W        W88022   1.358  37.548  13.045
18142W        W88023   2.852  17.135  14.422
18143W        W88024  42.980  14.256  13.387
18144W        W88025  19.078   2.232  13.801
18145W        W88026  21.527  37.877  10.453
18146W        W88027  43.000  19.636  11.080
18147W        W88028   2.293  17.578   1.436
18148W        W88029  24.021  38.516  10.464
18149W        W88030   1.790  29.588  10.563
18150W        W88031  22.205   8.893  13.365
18151W        W88032  21.689  43.005   0.882
18152W        W88033  20.181  35.531  14.864
18153W        W88034  23.151   6.245  13.498
18154W        W88035   1.950  33.086  12.349
18155W        W88036   6.199  43.939  13.544
18156W        W88037  34.892   9.368   2.880
18157W        W88038   3.793  22.649   3.331
18158W        W88039  38.556  39.540   3.792
18159W        W88040  36.572  39.403  13.355
18160W        W88041  15.083  17.180  12.529
18161W        W88042  24.990  14.103  13.509
18162W        W88043  40.493   1.397   2.363
18163W        W88044   0.969  23.735   0.373
18164W        W88045  16.148  36.520  11.572
18165W        W88046   3.817  28.132  14.275
18166W        W88047  11.134  40.459  12.374
18167W        W88048  22.604  36.400  11.466
18168W        W88049  23.148  14.762   2.204
18169W        W88050  13.127  44.397   0.781
18170W        W88051  16.633   7.704   0.243
18171W        W88052  21.544  15.777  12.383
18172W        W88053  31.637  38.554   3.729
18173W        W88054  33.919   3.305   5.118
18174W        W88055  28.034  35.394  13.869
18175W        W88056  24.537  14.625  13.314
18176W        W88057  35.875  17.221  13.344
18177W        W88058  43.869  27.149  13.411
18178W        W88059  28.447   2.810  12.424
18179W        W88060   0.344  16.072  13.798
18180W        W88061  18.104  44.808  11.888
18181W        W88062  23.993  17.307  10.559
18182W        W88063  21.160  17.141  14.288
18183W        W88064   7.300  26.679   3.212
18184W        W88065  43.930   3.422   2.874
18185W        W88066  24.144  41.333  10.992
18186W        W88067  44.761  11.215   2.718
18187W        W88068   8.742  16.305  12.469
18188W        W88069  32.892   6.820  13.958
18189W        W88070  17.106  42.293  10.908
18190W        W88071  39.556   9.361  12.533
18191W        W88072   3.221  42.834  11.042
18192W        W88073  16.078  13.717  11.561
18193W        W88074  44.890  28.965  13.798
18194W        W88075  17.088  26.167   0.909
18195W        W88076   6.299   6.860   2.291
18196W        W88077   7.797  26.054   0.885
18197W        W88078  33.502  19.757  13.340
18198W        W88079  36.911  23.564  11.405
18199W        W88080  26.958  38.347   4.746
18200W        W88081  34.496  12.813   3.828
18201W        W88082  29.501   9.395  13.511
18202W        W88083  36.087  27.978   3.308
18203W        W88084  38.824   4.318  14.980
18204W        W88085  35.104  35.422   3.864
18205W        W88086  19.662  42.878  10.066
18206W        W88087  25.012  36.988  10.468
18207W        W88088  30.532  12.696  12.925
18208W        W88089   3.904  34.955  11.483
18209W        W88090   0.881  39.043   0.796
18210W        W88091  23.009  25.016   4.784
18211W        W88092   2.867  20.583   0.842
18212W        W88093  32.545  43.354   1.315
18213W        W88094  22.062  40.438   3.740
18214W        W88095  21.253  16.079   0.791
18215W        W88096  42.997   8.238  13.044
18216W        W88097  40.423  26.553  14.901
18217W        W88098  38.409   1.800  12.552
18218W        W88099  40.409  21.578  10.437
18219W        W88100  38.891   4.410   0.274
18220W        W88101  31.974  41.849   0.960
18221W        W88102  37.938   7.359  10.558
18222W        W88103  29.096  22.194  11.479
18223W        W88104   7.723   4.717  11.967
18224W        W88105  15.119  23.660   3.151
18225W        W88106   4.204  26.006   2.788
18226W        W88107   9.862  19.284  10.497
18227W        W88108  26.565  12.316   2.281
18228W        W88109  22.057   0.346  10.469
18229W        W88110  31.142   5.227  14.960
18230W        W88111  44.879  17.739  11.116
18231W        W88112  15.821  15.136  13.825
18232W        W88113  28.111  12.332  14.342
18233W        W88114   2.444   8.727   1.401
18234W        W88115  20.698  26.492   4.634
18235W        W88116  39.809  44.828  13.350
18236W        W88117  10.345  43.998  13.830
18237W        W88118  20.193  38.536  14.802
18238W        W88119  25.978  25.703   4.799
18239W        W88120  18.126  26.554   3.308
18240W        W88121   1.874   0.426  14.303
18241W        W88122  41.392  35.432  10.511
18242W        W88123  15.262  10.734  10.987
18243W        W88124  22.095  34.923  12.987
18244W        W88125  40.309  22.691  11.988
18245W        W88126  21.040  29.536   1.429
18246W        W88127  22.170  12.805   4.800
18247W        W88128  22.117  44.383  14.383
18248W        W88129  21.216  18.102   4.742
18249W        W88130  35.572   6.883  10.564
18250W        W88131  24.982  31.921   1.228
18251W        W88132  23.161  18.204   4.725
18252W        W88133  31.515  11.652   3.633
18253W        W88134  29.626  39.971  10.938
18254W        W88135  36.393  33.929   0.324
18255W        W88136   8.761   7.368  11.016
18256W        W88137   1.452   9.678   2.239
18257W        W88138  43.895  44.896   4.267
18258W        W88139  26.665  43.321   2.284
18259W        W88140  19.593  31.114   1.331
18260W        W88141  18.235   9.846   0.433
18261W        W88142   1.948  12.236  12.871
18262W        W88143  27.049  26.985  14.825
18263W        W88144  24.045   8.720  10.911
18264W        W88145   0.754  19.124   0.859
18265W        W88146  11.819  37.972   2.730
18266W        W88147  11.258  23.535   4.212
18267W        W88148  11.832  42.831  11.920
18268W        W88149  15.162  21.169  13.349
18269W        W88150  34.951  15.797  11.392
18270W        W88151  33.575  12.312   3.261
18271W        W88152  37.516  12.293  13.352
18272W        W88153  35.563  31.018  12.490
18273W        W88154  10.721  14.099   2.848
18274W        W88155  33.120  21.047   2.885
18275W        W88156   4.208  21.090  11.856
18276W        W88157  13.188   3.819  11.483
18277W        W88158  16.211  35.889   2.298
18278W        W88159  35.430  18.553   3.170
18279W        W88160  21.664   1.852  12.892
18280W        W88161  12.611  12.354   1.928
18281W        W88162  26.508   3.371   2.373
18282W        W88163  12.299  13.728   1.926
18283W        W88164  12.672  21.673   4.836
18284W        W88165  31.603  41.952   3.383
18285W        W88166  15.164  18.262   1.825
18286W        W88167  43.994  24.218  12.395
18287W        W88168   5.710   2.355  14.333
18288W        W88169  34.548  43.387   3.657
18289W        W88170   2.750   2.758   3.238
18290W        W88171  20.086   4.352   2.384
18291W        W88172  22.686  22.119   3.208
18292W        W88173   6.249   4.273   2.771
18293W        W88174  39.022   0.935   1.269
18294W        W88175   7.216  27.641   4.183
18295W        W88176  30.595  25.001   3.764
18296W        W88177  11.645  41.011  12.951
18297W        W88178  31.059  17.705  10.460
18298W        W88179  10.859   3.248   2.265
18299W        W88180  20.266   7.880   4.191
18300W        W88181   7.832  43.958  12.048
18301W        W88182  41.425  43.933   1.409
18302W        W88183  24.179  40.309   3.261
18303W        W88184   1.306  15.269   0.961
18304W        W88185   9.287  24.706  14.494
18305W        W88186   5.742  20.698   1.895
18306W        W88187  23.132  19.543   4.832
18307W        W88188  13.819  38.853   4.674
18308W        W88189  29.501  36.031  10.950
18309W        W88190   9.310  25.687  12.024
18310W        W88191  28.507  39.030   4.299
18311W        W88192   2.725  28.511  10.601
18312W        W88193   8.349  10.302  12.452
18313W        W88194  37.455  11.252  11.605
18314W        W88195   0.963  29.964  12.537
18315W        W88196  14.227  29.034  12.350
18316W        W88197  32.554  14.743   1.707
18317W        W88198  35.459  29.655  12.354
18318W        W88199  43.306   2.954   4.260
18319W        W88200   9.306   5.343   2.828
18320W        W88201  37.085  26.678  12.036
18321W        W88202  43.003   5.841   3.356
18322W        W88203   7.188  12.697   4.274
18323W        W88204  32.121  44.993   1.354
18324W        W88205  23.548  30.065  10.534
18325W        W88206   6.362  20.539  13.801
18326W        W88207   9.205  35.506   1.719
18327W        W88208   1.823  23.585  11.877
18328W        W88209  21.521  17.099   0.931
18329W        W88210  23.568  26.525   2.289
18330W        W88211   5.712  24.195  14.908
18331W        W88212   4.320  28.554   3.677
18332W        W88213   6.409  29.535  10.918
18333W        W88214  41.884  34.930   0.253
18334W        W88215   7.234  27.574  10.903
18335W        W88216  35.598  29.527   3.853
18336W        W88217  28.116  37.952  13.389
18337W        W88218  44.979  14.164   5.287
18338W        W88219  11.269   7.311   3.769
18339W        W88220  22.703  29.119  12.016
18340W        W88221  19.276  11.790   2.383
18341W        W88222  36.585  32.987  14.443
18342W        W88223  35.029   4.207  10.497
18343W        W88224   8.767  32.943   1.889
18344W        W88225  14.649  11.188  14.495
18345W        W88226  42.911  14.206   4.195
18346W        W88227  39.314   5.310   2.376
18347W        W88228  44.428  42.968   0.399
18348W        W88229  20.746   2.261  12.469
18349W        W88230  31.069  14.653   4.616
18350W        W88231  15.169  16.254  11.044
18351W        W88232  15.182  19.591  14.481
18352W        W88233  30.623  10.655   4.349
18353W        W88234  29.970  34.503   0.765
18354W        W88235  39.962  17.787   2.186
18355W        W88236  36.550  18.285   3.308
18356W        W88237   9.713  12.795  13.314
18357W        W88238   7.281   2.730   1.346
18358W        W88239  34.520  27.455   0.749
18359W        W88240  33.578   0.334  12.415
18360W        W88241   0.819   3.222   1.233
18361W        W88242  40.384  11.819   2.351
18362W        W88243  14.761  19.169  12.837
18363W        W88244   7.298  24.511   2.364
18364W        W88245  20.215  18.577  10.474
18365W        W88246  38.871  44.494  11.071
18366W        W88247   2.383   1.921   2.205
18367W        W88248  35.089   3.409  12.527
18368W        W88249  43.322  19.547   0.869
18369W        W88250  25.564  41.463  10.529
18370W        W88251  18.713  27.595  11.908
18371W        W88252  19.549  16.100  12.484
18372W        W88253   8.198  31.514  11.371
18373W        W88254  33.484   9.872   0.426
18374W        W88255  31.897  13.615   2.785
18375W        W88256  29.954  23.516  13.319
18376W        W88257  26.964   3.330  10.891
18377W        W88258  22.574  23.048   0.781
18378W        W88259  32.933  36.421  13.353
18379W        W88260  37.988  13.709  10.510
18380W        W88261  16.801   1.798  11.373
18381W        W88262  24.066  29.091   2.833
18382W        W88263   3.319  21.543   3.190
18383W        W88264  43.942  22.532   4.696
18384W        W88265  31.425  30.127   0.447
18385W        W88266   3.880  24.703   2.704
18386W        W88267  35.872  33.602   5.115
18387W        W88268  28.476  17.219   1.919
18388W        W88269  32.524  27.459   3.203
18389W        W88270  43.876   8.221  10.545
18390W        W88271  28.630  17.573  13.500
18391W        W88272  31.043  22.657   2.705
18392W        W88273  12.715  27.042   1.351
18393W        W88274  24.019  15.180  13.340
18394W        W88275  28.520   6.705  12.898
18395W        W88276  15.120  33.930  14.456
18396W        W88277  40.404  44.309  10.136
18397W        W88278  21.697   5.403   3.870
18398W        W88279   3.842  42.970  10.428
18399W        W88280  29.465  14.625  11.101
18400W        W88281  28.990   1.326   1.366
18401W        W88282  30.086  39.385   2.271
18402W        W88283  35.580   0.849  11.987
18403W        W88284   3.224  23.023   2.214
18404W        W88285  40.862  42.799  14.803
18405W        W88286   5.340  42.381  12.533
18406W        W88287  32.052  34.368  10.903
18407W        W88288   6.423   7.336  11.116
18408W        W88289  27.621  20.693  10.603
18409W        W88290   4.733  34.414  12.020
18410W        W88291  32.011   3.355  11.061
18411W        W88292  23.063   4.770   3.149
18412W        W88293   0.437  21.121  10.585
18413W        W88294  28.140  15.176  13.920
18414W        W88295  37.414   3.457  12.044
18415W        W88296  21.025  33.516  13.897
18416W        W88297   3.383  39.971  12.919
18417W        W88298  38.992  39.529   2.315
18418W        W88299   4.897   4.417  13.450
18419W        W88300  16.738  39.016  11.910
18420W        W88301  30.624  15.760  10.422
18421W        W88302  30.514  14.807  14.504
18422W        W88303   8.315  29.455  14.447
18423W        W88304  14.305   3.280  14.760
18424W        W88305  40.897   5.812   1.844
18425W        W88306  37.508  41.472   4.629
18426W        W88307   1.963  21.206   1.285
18427W        W88308   0.264  19.612   4.333
18428W        W88309  15.300  20.620   3.185
18429W        W88310  41.936  16.184   2.718
18430W        W88311  13.723  32.494   4.280
18431W        W88312  20.121   9.241  13.896
18432W        W88313  42.918   7.742  10.488
18433W        W88314  34.922  10.676   0.903
18434W        W88315   0.483   6.909   1.278
18435W        W88316  25.120   2.302  13.367
18436W        W88317  29.445  12.308  12.556
18437W        W88318  17.705  27.545   3.344
18438W        W88319  12.226  10.319  13.797
18439W        W88320   3.953   3.946  11.530
18440W        W88321  44.838  42.835  10.888
18441W        W88322   4.815   1.777  12.927
18442W        W88323  25.192  21.075   2.861
18443W        W88324  38.538  36.906  11.944
18444W        W88325  38.515  11.266   1.814
18445W        W88326   2.839  41.511  10.959
18446W        W88327  12.167  40.863  10.899
18447W        W88328  37.946  40.339   3.862
18448W        W88329  26.956  12.611   2.248
18449W        W88330  37.056  25.486   3.779
18450W        W88331  41.468  24.611   3.786
18451W        W88332  10.305  31.637   0.441
18452W        W88333  20.062   0.270   2.766
18453W        W88334  25.144   9.155  12.436
18454W        W88335  10.147  14.737  11.998
18455W        W88336  34.872   3.762   3.284
18456W        W88337  10.287  33.892   0.397
18457W        W88338  12.246  11.720  12.059
18458W        W88339  17.114   1.771   9.975
18459W        W88340  16.205  24.101  11.984
18460W        W88341  43.942  28.518   1.896
18461W        W88342  24.558  28.635   3.854
18462W        W88343  41.468  22.120   2.735
18463W        W88344   8.214  37.514   0.375
18464W        W88345  42.369   5.274   3.868
18465W        W88346  30.466  30.447  12.580
18466W        W88347   8.782  21.710   2.269
18467W        W88348  21.232  23.537  14.420
18468W        W88349  17.230  19.758  14.436
18469W        W88350  32.401  14.596  12.844
18470W        W88351   1.968   3.866  11.097
18471W        W88352  18.107  23.728  11.576
18472W        W88353  31.565   9.280   1.794
18473W        W88354  39.900  35.071  14.909
18474W        W88355  16.726  20.049  14.942
18475W        W88356  40.345  24.590   4.124
18476W        W88357  40.027  27.101   1.374
18477W        W88358  37.488  11.647   5.165
18478W        W88359  18.608  12.117  14.507
18479W        W88360   4.846  16.602  11.890
18480W        W88361   1.805   8.775   2.416
18481W        W88362  21.730  25.203  13.957
18482W        W88363  33.124   3.442   2.273
18483W        W88364  26.627  19.157  10.907
18484W        W88365  44.807  36.054   0.273
18485W        W88366   8.398   1.383  14.387
18486W        W88367  22.201  29.547  12.831
18487W        W88368  20.589  37.030  10.586
18488W        W88369  14.678   6.208   4.712
18489W        W88370  40.842  18.586  13.930
18490W        W88371  26.993  16.624  12.568
18491W        W88372  23.613  14.658  14.365
18492W        W88373  38.911   5.412   4.645
18493W        W88374  40.501   1.900   3.384
18494W        W88375  44.920  37.033  10.558
18495W        W88376  16.162  43.971   0.850
18496W        W88377  28.561   3.332  12.558
18497W        W88378  32.918  16.148  12.940
18498W        W88379  38.549   3.804   0.888
18499W        W88380  24.586   7.880   0.260
18500W        W88381  36.385  28.983   1.403
18501W        W88382  28.108   0.386  11.027
18502W        W88383  28.463   4.790  10.517
18503W        W88384  30.611  24.006   2.673
18504W        W88385  37.834  15.614   1.907
18505W        W88386  38.468  19.276   3.260
18506W        W88387  20.088  23.536  12.836
18507W        W88388  44.786  29.512  11.077
18508W        W88389  33.082  44.302  12.574
18509W        W88390  42.979  31.449  13.511
18510W        W88391  34.017  29.957  13.850
18511W        W88392  33.424   1.288  14.484
18512W        W88393  44.855  24.993   2.870
18513W        W88394  27.059  22.500  14.013
18514W        W88395  25.173  18.586  13.799
18515W        W88396  27.044   9.756  13.411
18516W        W88397  22.225   0.365   1.709
18517W        W88398  11.358   8.207   1.293
18518W        W88399  34.897   5.322  11.095
18519W        W88400   8.353  15.641  14.804
18520W        W88401   7.667  43.893   4.721
18521W        W88402  32.085  14.708   3.829
18522W        W88403  15.221  31.507  13.891
18523W        W88404  21.536  23.209   3.836
18524W        W88405   5.828  26.058   2.374
18525W        W88406  19.626  24.634  14.773
18526W        W88407  26.505  18.680   2.284
18527W        W88408   3.789  29.643   4.639
18528W        W88409  17.735  37.075   2.223
18529W        W88410  39.540   7.833  14.412
18530W        W88411  34.094  27.133  13.851
18531W        W88412  36.497   9.168   2.289
18532W        W88413  32.073  44.489  12.061
18533W        W88414  26.091   6.368   4.352
18534W        W88415  10.657   6.412   2.379
18535W        W88416  31.002  40.539  11.064
18536W        W88417  24.647   8.337   3.661
18537W        W88418  33.425  19.149   1.815
18538W        W88419  30.012   7.225  10.637
18539W        W88420  33.022  44.417  10.593
18540W        W88421  32.036  22.050  13.348
18541W        W88422  31.611  23.091  13.008
18542W        W88423  24.115  15.660   1.753
18543W        W88424  36.452   2.741  12.426
18544W        W88425  15.224  25.556  13.538
18545W        W88426  42.509  22.234  12.528
18546W        W88427  22.712  15.619  10.157
18547W        W88428  18.720  40.898  10.418
18548W        W88429   3.768  16.272   1.379
18549W        W88430  13.121  26.051   4.323
18550W        W88431  42.390  39.425   1.215
18551W        W88432  30.516  17.135   2.727
18552W        W88433   6.370   1.276   2.282
18553W        W88434  40.881  31.962  14.928
18554W        W88435  15.205  40.860   2.305
18555W        W88436  16.205  39.495   1.321
18556W        W88437  11.755  25.972   1.371
18557W        W88438  20.764  27.585   1.318
18558W        W88439   4.935  24.016  10.470
18559W        W88440  33.539   3.833  14.496
18560W        W88441   8.224  28.516   4.832
18561W        W88442  17.213   7.348  12.400
18562W        W88443   7.861  35.407  10.644
18563W        W88444  25.524  41.340  13.987
18564W        W88445  41.866  39.412   4.199
18565W        W88446  14.765  13.126   4.224
18566W        W88447   1.755   7.368  13.419
18567W        W88448   4.758  34.595  12.529
18568W        W88449   2.853  24.568   2.264
18569W        W88450  18.702   7.274  11.563
18570W        W88451  34.888  41.041  12.854
18571W        W88452  24.165   6.880   3.774
18572W        W88453  42.849  38.917  11.477
18573W        W88454  26.677  43.990  11.877
18574W        W88455   4.944  40.918   2.347
18575W        W88456  36.580  19.271   4.287
18576W        W88457  36.575  23.683   1.696
18577W        W88458  39.403  22.501  13.340
18578W        W88459  14.717   6.261   2.296
18579W        W88460  20.177  33.456   3.293
18580W        W88461  26.071  16.256   2.706
18581W        W88462   1.327  28.185  11.869
18582W        W88463  35.881  28.539  12.831
18583W        W88464   5.806  43.925   4.177
18584W        W88465  39.332   9.663  13.541
18585W        W88466  27.587  42.372   3.820
18586W        W88467  13.291   5.218   3.796
18587W        W88468  34.939  17.194   5.247
18588W        W88469  15.299  39.894   0.831
18589W        W88470   9.716  28.441  12.497
18590W        W88471  43.489  20.173  11.073
18591W        W88472  24.120  32.980  14.470
18592W        W88473   5.271   4.734  13.864
18593W        W88474  35.519  29.067  12.431
18594W        W88475  38.917   4.372  12.059
18595W        W88476  34.039  26.145  14.358
18596W        W88477  10.186  23.496  14.770
18597W        W88478   5.864   6.276   0.803
18598W        W88479  43.766  40.444  14.948
18599W        W88480  15.746  27.100  12.465
18600W        W88481  34.486  13.617   3.634
18601W        W88482  39.023  32.086   0.243
18602W        W88483  28.485  29.992  10.551
18603W        W88484  36.047  24.677  13.806
18604W        W88485   9.209  42.382  11.951
18605W        W88486  34.477  32.047   0.249
18606W        W88487   8.163  20.564  10.567
18607W        W88488  13.635  44.323  13.869
18608W        W88489  44.396   2.323  11.034
18609W        W88490  24.530  35.457  13.543
18610W        W88491  15.735  33.922  12.479
18611W        W88492  26.674  43.819  10.567
18612W        W88493   4.250  11.846   3.828
18613W        W88494  19.660   2.366  11.962
18614W        W88495  42.908  36.403  11.117
18615W        W88496   7.328  36.581   4.703
18616W        W88497  43.911   2.280   2.804
18617W        W88498   4.414  38.569   2.752
18618W        W88499  35.589   0.783   5.232
18619W        W88500  29.032  23.516  14.824
18620W        W88501  15.750  10.235   5.308
18621W        W88502  19.539  39.346  13.961
18622W        W88503  17.695  34.931  12.575
18623W        W88504  17.721   5.765   2.738
18624W        W88505  27.014  11.373  12.990
18625W        W88506   3.323  41.967  14.956
18626W        W88507   4.912   9.677  10.095
18627W        W88508  39.367  16.200  11.901
18628W        W88509  42.372  41.507  12.933
18629W        W88510   3.746  41.982   3.349
18630W        W88511  41.014  33.944   2.377
18631W        W88512  25.971   5.274  13.362
18632W        W88513  42.297  13.139  14.343
18633W        W88514  32.575  35.423   1.919
18634W        W88515  30.110  34.907  13.501
18635W        W88516   1.952   7.316   1.753
18636W        W88517  21.626  32.899   0.466
18637W        W88518   2.807  43.920   1.820
18638W        W88519   5.412  18.176   2.858
18639W        W88520  32.575   2.347  13.505
18640W        W88521  37.920  37.840  14.877
18641W        W88522   6.843   2.760   0.278
18642W        W88523  30.542  20.103   1.219
18643W        W88524  30.415  10.803   1.260
18644W        W88525   2.900  28.048   3.319
18645W        W88526  12.623  29.630   1.894
18646W        W88527  14.176  41.862  14.309
18647W        W88528  36.945  26.587   2.679
18648W        W88529   9.821  37.933   4.648
18649W        W88530   5.383   8.700   2.894
18650W        W88531  35.553  41.443   3.151
18651W        W88532  11.704  42.380   0.735
18652W        W88533  34.069  17.130  13.046
18653W        W88534  39.410  10.165  13.984
18654W        W88535  26.013  22.146  14.315
18655W        W88536  30.537  35.091   0.820
18656W        W88537  10.861  37.984  11.873
18657W        W88538  27.571   1.819   2.202
18658W        W88539  31.917  30.578  14.436
18659W        W88540  44.345  36.520   1.430
18660W        W88541  29.579   5.709  14.495
18661W        W88542  33.054  17.116   3.759
18662W        W88543  35.929  28.098   5.247
18663W        W88544  12.857   8.188  13.890
18664W        W88545  19.196  14.717   2.261
18665W        W88546  18.715  24.123  11.862
18666W        W88547  40.824  10.675  12.341
18667W        W88548  42.330  36.037   0.295
18668W        W88549  41.330  34.075  12.857
18669W        W88550  10.229  12.725   3.309
18670W        W88551  35.893  12.790   3.709
18671W        W88552  35.891  31.609  13.026
18672W        W88553  33.580   8.760  12.002
18673W        W88554  41.495  32.045  11.856
18674W        W88555  30.552  14.289   1.930
18675W        W88556  25.700  16.172  10.932
18676W        W88557  11.135  15.139   3.196
18677W        W88558  29.935  26.030   3.630
18678W        W88559   3.730  14.314  12.442
18679W        W88560  12.740  14.831   2.844
18680W        W88561  21.712  43.429   4.133
18681W        W88562  13.316  30.583  13.322
18682W        W88563  24.520  25.508   3.654
18683W        W88564  25.554   7.175  10.422
18684W        W88565  24.598  37.474   5.129
18685W        W88566  30.414  15.773  13.507
18686W        W88567  11.364   6.771  12.926
18687W        W88568  21.542   6.689  12.395
18688W        W88569   5.285   1.902   3.778
18689W        W88570   8.871  27.609  12.059
18690W        W88571  31.088   3.235  10.086
18691W        W88572  18.267  39.539   2.329
18692W        W88573  12.765  18.209   3.786
18693W        W88574   6.299  31.545  11.094
18694W        W88575  33.124  17.201  10.585
18695W        W88576   8.668  21.132   2.410
18696W        W88577  28.650  22.522  11.440
18697W        W88578  36.018   3.215  13.885
18698W        W88579  42.490  26.542   1.327
18699W        W88580  21.181  28.977   1.858
18700W        W88581   1.265  15.157  14.305
18701W        W88582  30.545  31.412   2.851
18702W        W88583   2.887  37.983  13.846
18703W        W88584  34.572  21.166   0.268
18704W        W88585  25.149  33.471   2.272
18705W        W88586  27.142  13.133  12.034
18706W        W88587  19.751   7.744   3.291
18707W        W88588  43.870   0.951  13.890
18708W        W88589   7.206  19.156  12.368
18709W        W88590  12.624  38.051   4.807
18710W        W88591  16.231  39.878  10.932
18711W        W88592  17.638  12.759  13.895
18712W        W88593  12.657  41.314   3.273
18713W        W88594  31.038  42.307  14.373
18714W        W88595  21.176  15.315   2.321
18715W        W88596   8.870   6.371  12.441
18716W        W88597  41.482  11.326   0.382
18717W        W88598  42.439  10.275  14.889
18718W        W88599  41.334  21.547  13.953
18719W        W88600  35.958  30.560   2.676
18720W        W88601  10.190  36.539  12.407
18721W        W88602   2.323   8.321   4.129
18722W        W88603   4.294   3.717   3.716
18723W        W88604   6.291   6.361  11.605
18724W        W88605   3.325  31.068  11.497
18725W        W88606   9.277   5.328  13.459
18726W        W88607   8.190  19.720   3.770
18727W        W88608  41.452  39.552   3.227
18728W        W88609  42.793  13.712   1.737
18729W        W88610  25.980  33.966   3.203
18730W        W88611  34.944  27.174  14.818
18731W        W88612  43.961  40.443  10.959
18732W        W88613  36.553   9.803   0.916
18733W        W88614  37.951  33.518   1.764
18734W        W88615  39.474  20.669   0.804
18735W        W88616  30.154  30.459   4.612
18736W        W88617  21.726   1.830  13.821
18737W        W88618  29.616  28.992  10.428
18738W        W88619  44.388   9.197   3.823
18739W        W88620  32.130   0.398  13.494
18740W        W88621  39.979  26.571  12.060
18741W        W88622  40.809  15.749   2.190
18742W        W88623  24.061  41.840  11.413
18743W        W88624  19.535  19.745  12.846
18744W        W88625  44.832   0.959  14.460
18745W        W88626  40.327  25.048   2.327
18746W        W88627  17.576  18.143  14.417
18747W        W88628  42.343  15.634  12.871
18748W        W88629  28.951   7.214  13.531
18749W        W88630  30.449  27.550  14.023
18750W        W88631  41.036   4.931   1.717
18751W        W88632  37.564  21.522   0.424
18752W        W88633  41.347  23.009  13.989
18753W        W88634  21.030  40.305   4.117
18754W        W88635  28.113   3.215  12.492
18755W        W88636   1.243  16.238  10.453
18756W        W88637  16.811  19.712  11.124
18757W        W88638  10.140  10.215  10.098
18758W        W88639  14.758   7.348   2.812
18759W        W88640  32.600  21.644   0.771
18760W        W88641   4.344  37.408   3.654
18761W        W88642  43.941  42.308  12.389
18762W        W88643  26.202  26.139   4.732
18763W        W88644  27.518  10.877   4.759
18764W        W88645  40.329  14.759   4.270
18765W        W88646  34.605  26.477  10.949
18766W        W88647  32.560  37.863   3.272
18767W        W88648  38.007  17.619   4.714
18768W        W88649  19.689   8.835  10.624
18769W        W88650  27.447  32.931   4.172
18770W        W88651  34.022   5.782  13.903
18771W        W88652   6.765  23.712   3.647
18772W        W88653   1.416  20.530   1.887
18773W        W88654   7.378   6.288   3.774
18774W        W88655  38.465  37.578  11.560
18775W        W88656  22.602  40.496   4.163
18776W        W88657  32.142  41.963  13.513
18777W        W88658   0.787   9.863  12.533
18778W        W88659  24.227   4.230  14.873
18779W        W88660   5.428  31.631   0.411
18780W        W88661  43.020  27.502  14.387
18781W        W88662  38.565   4.728   1.423
18782W        W88663  11.196  18.291   4.693
18783W        W88664  24.180  42.868  14.996
18784W        W88665  13.170  36.385  12.346
18785W        W88666  22.059   0.388  11.047
18786W        W88667   6.741  43.457   2.385
18787W        W88668   8.661  10.292   4.709
18788W        W88669  40.894   7.327  13.010
18789W        W88670   4.808  18.755  12.910
18790W        W88671  21.204  21.518  11.401
18791W        W88672   2.427  37.496   4.167
18792W        W88673  19.618  25.524   0.414
18793W        W88674  34.400  43.459   0.277
18794W        W88675  13.784  23.499  10.424
18795W        W88676  24.670  37.978   0.836
18796W        W88677  16.110  26.645   4.349
18797W        W88678  27.123   8.699  10.419
18798W        W88679  44.888  13.283  11.390
18799W        W88680  36.003   9.348   0.451
18800W        W88681  32.472  23.523  12.905
18801W        W88682  25.645  18.208  14.779
18802W        W88683  43.428  18.213   1.781
18803W        W88684  20.684   2.963  10.584
18804W        W88685  42.317  28.653  12.852
18805W        W88686   9.377  43.859   2.199
18806W        W88687  39.975  30.085  11.961
18807W        W88688  41.924  38.488  12.983
18808W        W88689  10.686   5.821   2.403
18809W        W88690   1.468  22.683   0.439
18810W        W88691  18.641   6.353  13.492
18811W        W88692  38.330  35.520  11.078
18812W        W88693  28.107   5.278  12.841
18813W        W88694  24.024  16.735   5.779
18814W        W88695   5.249  41.956   4.206
18815W        W88696  16.287  22.176  14.464
18816W        W88697  24.041  30.517   3.177
18817W        W88698  10.178  21.514   1.755
18818W        W88699  21.542  25.206  10.408
18819W        W88700  14.117  27.482  12.411
18820W        W88701  30.152  30.499  14.909
18821W        W88702   7.366  29.172  11.495
18822W        W88703  34.945  30.450   0.797
18823W        W88704  37.443  14.216  10.539
18824W        W88705  39.883  21.116  10.428
18825W        W88706  16.742   1.774   1.747
18826W        W88707  19.256  38.983  13.911
18827W        W88708  12.788   8.307  14.803
18828W        W88709  32.962  30.909   3.649
18829W        W88710  31.533  20.715   4.137
18830W        W88711  38.370  22.722  13.538
18831W        W88712  25.588   9.385  12.514
18832W        W88713   2.775  18.730  14.285
18833W        W88714   6.823  10.785  12.049
18834W        W88715  29.076   7.381  12.423
18835W        W88716  19.076  27.481   1.352
18836W        W88717  20.049  41.962  11.904
18837W        W88718  13.600  36.538   3.239
18838W        W88719  15.611  25.185  10.999
18839W        W88720   8.872  34.090  11.521
18840W        W88721  22.207  40.932  11.510
18841W        W88722  17.093  40.843   2.414
18842W        W88723   7.691  44.465   0.895
18843W        W88724  26.683  11.763   3.722
18844W        W88725  18.558   4.241  11.547
18845W        W88726  21.711  22.192  10.961
18846W        W88727   3.326  28.622   0.433
18847W        W88728  43.870  16.746  14.908
18848W        W88729   3.898   4.856  12.957
18849W        W88730  30.989  41.916  14.965
18850W        W88731  37.835  29.490  10.608
18851W        W88732  36.366  33.882  14.031
18852W        W88733  27.626  43.337   4.227
18853W        W88734  17.560   0.755   3.262
18854W        W88735  38.950  29.468   3.152
18855W        W88736  37.994  27.190  11.421
18856W        W88737  21.203  12.281  11.084
18857W        W88738  26.483   6.755  10.963
18858W        W88739  17.205  36.907  14.479
18859W        W88740  42.905   2.764   1.730
18860W        W88741  38.520  18.059   3.251
18861W        W88742  14.318   6.262   2.327
18862W        W88743  35.464   6.720   2.883
18863W        W88744  21.580  28.589   2.758
18864W        W88745  39.446  41.867   0.281
18865W        W88746  32.544  15.267   3.698
18866W        W88747  12.215  23.993   0.409
18867W        W88748   1.422  17.071   1.871
18868W        W88749  20.056  30.583  12.436
18869W        W88750  31.487  22.522   2.366
18870W        W88751   8.304   4.919  13.043
18871W        W88752  11.652  28.519  14.005
18872W        W88753  27.567  37.374  11.592
18873W        W88754  43.871  27.615   1.705
18874W        W88755  31.470  26.547  13.385
18875W        W88756  39.477  36.994   1.367
18876W        W88757  19.759   3.405  12.960
18877W        W88758  28.501  24.553   3.662
18878W        W88759  17.160  23.036   1.309
18879W        W88760   1.381   9.743  10.992
18880W        W88761  11.288  34.383   1.818
18881W        W88762  24.228  40.400  14.766
18882W        W88763  16.702  25.690  10.899
18883W        W88764  27.168  44.903  13.538
18884W        W88765  18.071  27.488   9.956
18885W        W88766  24.084  23.663   5.227
18886W        W88767  40.938  24.174  10.636
18887W        W88768  39.320   3.864  12.575
18888W        W88769  18.708  20.560   2.687
18889W        W88770  37.863  16.580   0.331
18890W        W88771  29.618  17.790   4.229
18891W        W88772  11.322  29.563   3.332
18892W        W88773  42.935  39.414  12.448
18893W        W88774   8.729   6.402  13.447
18894W        W88775  33.917  10.873   2.810
18895W        W88776   0.249  13.846  14.827
18896W        W88777  13.216  22.007  14.858
18897W        W88778  30.458  19.092  12.890
18898W        W88779  20.724   0.918   4.747
18899W        W88780  23.561  33.567  13.412
18900W        W88781  11.635  31.949  12.389
18901W        W88782  25.587  16.616   4.647
18902W        W88783  37.472  26.691  14.901
18903W        W88784   1.402   1.764   1.435
18904W        W88785  41.364  23.538   0.918
18905W        W88786   3.298  37.856  11.084
18906W        W88787  17.174  22.223   0.251
18907W        W88788  12.195   2.747   2.402
18908W        W88789  41.856  29.624   2.415
18909W        W88790  20.767  13.127   3.751
18910W        W88791  36.072  41.518  14.946
18911W        W88792  20.116   8.286   1.335
18912W        W88793  25.016  42.954  11.931
18913W        W88794   9.237   1.237   1.424
18914W        W88795  12.304   3.246  12.085
18915W        W88796   1.803  12.691   0.369
18916W        W88797   8.331   5.281  14.824
18917W        W88798   2.730  13.682  14.829
18918W        W88799  23.658  17.698  14.929
18919W        W88800  10.189  26.660  14.283
18920W        W88801  25.543  15.272  14.365
18921W        W88802  38.055  12.261  14.455
18922W        W88803   7.268  21.132   4.199
18923W        W88804   7.829  18.055  14.303
18924W        W88805  29.662   9.293   4.146
18925W        W88806  18.715  39.344  14.293
18926W        W88807  17.665  43.431  14.370
18927W        W88808  44.346  39.830   5.272
18928W        W88809  10.700  40.312   3.833
18929W        W88810   8.685   8.179   3.775
18930W        W88811  39.005  39.875   1.258
18931W        W88812  23.598  19.678   2.385
18932W        W88813  21.204  17.263  11.976
18933W        W88814  44.363   9.757  12.960
18934W        W88815  29.042  10.289  14.008
18935W        W88816  23.146   0.813  13.418
18936W        W88817   5.814  36.911  14.822
18937W        W88818  25.513  37.078  11.578
18938W        W88819  40.515  40.931  12.842
18939W        W88820  34.976  44.830   4.203
18940W        W88821  12.669  15.779   2.846
18941W        W88822  34.922  23.109   1.785
18942W        W88823  12.637  37.419   1.332
18943W        W88824   7.903   7.834   5.083
18944W        W88825  18.607  23.704   1.210
18945W        W88826  12.181  31.121   0.425
18946W        W88827  25.023  31.621   3.183
18947W        W88828  13.621  38.472  13.429
18948W        W88829  34.086  14.146   2.805
18949W        W88830  36.467  21.545   1.368
18950W        W88831  39.388  40.874  13.412
18951W        W88832  22.178   7.293   0.318
18952W        W88833  23.635  11.226   4.124
18953W        W88834  40.367  24.674  11.071
18954W        W88835  27.104  26.470  10.083
18955W        W88836  22.565  28.573  11.411
18956W        W88837  32.032  33.101  11.020
18957W        W88838   9.750  31.930  10.611
18958W        W88839  44.902   1.812  14.017
18959W        W88840  19.727   5.231   2.410
18960W        W88841   7.357  10.796   0.288
18961W        W88842  38.955   4.766   9.987
18962W        W88843  12.226  39.477   1.282
18963W        W88844   3.879  24.556  10.592
18964W        W88845  42.340  19.662   3.824
18965W        W88846  33.981  18.068   0.404
18966W        W88847   6.705   2.857   0.919
18967W        W88848  20.272  30.976   2.186
18968W        W88849  10.831  24.087  14.002
18969W        W88850   3.285  13.254  12.074
18970W        W88851  40.825  33.030   3.158
18971W        W88852  16.168   8.351  12.935
18972W        W88853   7.758   5.864   1.812
18973W        W88854  18.142  34.607   3.357
18974W        W88855  36.096  21.579   3.298
18975W        W88856  26.196  14.761  11.878
18976W        W88857   2.339  40.307  12.389
18977W        W88858  27.626  16.717  11.464
18978W        W88859  10.637   9.346  14.968
18979W        W88860  31.066  41.520  11.971
18980W        W88861   4.794  20.067  12.833
18981W        W88862  24.052  24.660   1.849
18982W        W88863  36.934   2.408  11.011
18983W        W88864  24.111  10.768  11.067
18984W        W88865   3.941  15.754   3.147
18985W        W88866  35.484  23.172   4.244
18986W        W88867  28.531   9.245  12.936
18987W        W88868  37.073  21.213   1.284
18988W        W88869   2.879   7.378   1.298
18989W        W88870  43.875  34.607  13.382
18990W        W88871   8.741   3.394   4.188
18991W        W88872  37.436   7.368   1.747
18992W        W88873  41.353   9.159  11.375
18993W        W88874  43.508   9.768   1.902
18994W        W88875  22.051  31.568  14.444
18995W        W88876  14.244  12.255  13.931
18996W        W88877  43.865  15.145   2.261
18997W        W88878  10.343  34.536   0.862
18998W        W88879  41.982   8.210   2.704
18999W        W88880  17.226  40.482  10.475
19000W        W88881  27.007  21.165   0.799
19001W        W88882  22.558  10.742  10.887
19002W        W88883  33.461  39.873  11.550
19003W        W88884  20.572   3.872  12.438
19004W        W88885   8.309  10.349  12.044
19005W        W88886   9.808  35.371  13.482
19006W        W88887   2.229  28.442   2.374
19007W        W88888  24.037  31.948   3.306
19008W        W88889  24.129  14.284  13.963
19009W        W88890  16.763  27.682   3.656
19010W        W88891  43.387  33.385  12.085
19011W        W88892  40.368  42.317  11.065
19012W        W88893  42.026  20.115  11.539
19013W        W88894  30.122  10.270  14.446
19014W        W88895   4.866   4.729  11.863
19015W        W88896  29.999  19.228   2.310
19016W        W88897  34.369  34.863   3.770
19017W        W88898  26.492  35.376   1.401
19018W        W88899  42.483  40.937   0.790
19019W        W88900   6.808  42.781   1.847
19020W        W88901   7.766   0.442  11.063
19021W        W88902  20.066  16.129   0.263
19022W        W88903  25.708  17.243  12.485
19023W        W88904  24.058  32.013   4.185
19024W        W88905  34.052  14.182  12.920
19025W        W88906  39.497  12.793   2.357
19026W        W88907  31.065  35.083  11.085
19027W        W88908  36.887  31.052   4.832
19028W        W88909  11.202  31.426   2.808
19029W        W88910  31.916  24.992  13.898
19030W        W88911  37.853  27.071  14.013
19031W        W88912  37.841  18.295  12.960
19032W        W88913  34.104  37.383  13.440
19033W        W88914  11.633  28.016  13.938
19034W        W88915  28.609  15.123  10.591
19035W        W88916  29.567  10.222  10.430
19036W        W88917   1.252  35.082  14.805
19037W        W88918  35.952   5.404   1.904
19038W        W88919  33.926  13.324  10.436
19039W        W88920  29.667  38.993   3.861
19040W        W88921  13.637  17.583  14.011
19041W        W88922   9.376  22.702   1.908
19042W        W88923  35.414  33.585  12.883
19043W        W88924  42.928  36.004   4.653
19044W        W88925  27.553  24.994  14.385
19045W        W88926  22.213   3.350  13.348
19046W        W88927   4.735  11.725   4.309
19047W        W88928   9.244  12.315  14.800
19048W        W88929   7.729  43.964   3.322
19049W        W88930  16.661  31.469  10.904
19050W        W88931   4.903   5.354  14.418
19051W        W88932  10.213  42.300  10.941
19052W        W88933  31.023  30.005  12.953
19053W        W88934  33.923   0.353  12.844
19054W        W88935  15.235  31.028   0.315
19055W        W88936  44.349  27.491  10.566
19056W        W88937  16.731  41.406  13.792
19057W        W88938  39.351   2.338  11.965
19058W        W88939  28.513   4.307  10.418
19059W        W88940  27.481  14.797  10.928
19060W        W88941  24.139   0.774   0.815
19061W        W88942  10.650   7.720   2.675
19062W        W88943  40.000  20.579   0.825
19063W        W88944  18.177  14.164  13.330
19064W        W88945  22.202  19.600  14.484
19065W        W88946  21.049  29.488   3.215
19066W        W88947  38.830  26.113  13.540
19067W        W88948  11.344   5.349  12.937
19068W        W88949  19.063  20.236  13.954
19069W        W88950  20.096  32.920  14.313
19070W        W88951  20.162  21.575  11.527
19071W        W88952  30.598   1.976  13.004
19072W        W88953  13.343   8.708  10.046
19073W        W88954   1.918  21.666  14.515
19074W        W88955   7.807  14.656  12.067
19075W        W88956  19.086  31.602   1.920
19076W        W88957  14.832  28.035   3.831
19077W        W88958   4.772  30.585   0.794
19078W        W88959  29.670   3.353  13.500
19079W        W88960   1.418  13.113   0.298
19080W        W88961   4.258  18.070   3.269
19081W        W88962  28.493  28.527  12.342
19082W        W88963   7.743  17.745  10.621
19083W        W88964  19.270  17.177  14.815
19084W        W88965  19.182  26.480  14.845
19085W        W88966  38.861  17.253   1.316
19086W        W88967  43.788  12.144   2.291
19087W        W88968   6.795  35.552  13.412
19088W        W88969  19.150  42.951  14.023
19089W        W88970  26.520  23.529   3.658
19090W        W88971   0.915  13.712   3.686
19091W        W88972  40.514  29.154   4.630
19092W        W88973  40.896  28.081  11.434
19093W        W88974   1.450   9.250   0.834
19094W        W88975   6.711   1.331  13.813
19095W        W88976  35.440  32.133   4.600
19096W        W88977  30.162  10.211  13.921
19097W        W88978  43.298  27.052  14.763
19098W        W88979  11.319   1.973  14.445
19099W        W88980  31.910  29.442  10.634
19100W        W88981  26.672   0.430   4.194
19101W        W88982  20.562  10.238   0.729
19102W        W88983  39.534  40.470  10.592
19103W        W88984  31.045  39.877   3.248
19104W        W88985  29.063  12.816  12.981
19105W        W88986  41.309   0.418   1.748
19106W        W88987   4.801  29.589   3.213
19107W        W88988   9.695  23.157   3.753
19108W        W88989   7.372   5.767  12.346
19109W        W88990  39.054  24.082  13.379
19110W        W88991  22.716  37.900  12.522
19111W        W88992  21.693  43.509  11.120
19112W        W88993  24.107  26.562   4.615
19113W        W88994  42.474  39.847  12.868
19114W        W88995   2.395  37.951  11.100
19115W        W88996   6.263  42.399   3.745
19116W        W88997  21.178  17.297   3.833
19117W        W88998  33.578  35.921   3.835
19118W        W88999  10.158  29.107  11.056
19119W        W89000  33.041  11.362   0.269
19120W        W89001  15.769  18.244   3.230
19121W        W89002  19.604  10.807   1.934
19122W        W89003  11.179  29.953  12.537
19123W        W89004  19.778  41.408   2.334
19124W        W89005  44.269  44.331   5.249
19125W        W89006  21.590  14.333  14.879
19126W        W89007  42.882   7.736  13.968
19127W        W89008   4.833   0.885   3.195
19128W        W89009  10.856  27.120   2.204
19129W        W89010  10.875  20.153  13.385
19130W        W89011  10.820  33.012   3.794
19131W        W89012  26.968  32.517   0.937
19132W        W89013  20.765  31.115  14.947
19133W        W89014  38.404  19.209   4.161
19134W        W89015  13.215   3.831   2.820
19135W        W89016  36.441  10.333  14.769
19136W        W89017  20.156  14.654  13.064
19137W        W89018  43.360  26.194   3.328
19138W        W89019  28.498  18.735   4.598
19139W        W89020   4.373  16.283   1.859
19140W        W89021  43.924   4.207  11.992
19141W        W89022  39.876   4.770  12.904
19142W        W89023  24.128  35.095  11.571
19143W        W89024  11.190  23.188   1.415
19144W        W89025  11.866   5.884   3.342
19145W        W89026  35.864  42.331   4.624
19146W        W89027   5.267  38.952   1.892
19147W        W89028   7.274  43.401   0.439
19148W        W89029  18.086  20.756  13.370
19149W        W89030  21.099   3.325  12.558
19150W        W89031  30.931  44.990   2.717
19151W        W89032   5.926  19.161  10.893
19152W        W89033  25.577  44.312   0.883
19153W        W89034  39.344  27.096  10.935
19154W        W89035   1.469   8.848  11.101
19155W        W89036   4.296  41.528   2.345
19156W        W89037  35.012   8.883  13.508
19157W        W89038   8.244  18.654  11.855
19158W        W89039  31.939  35.891   0.928
19159W        W89040  21.250  18.672   1.696
19160W        W89041  38.456  31.448  10.505
19161W        W89042  20.120  13.192  12.914
19162W        W89043  14.314  35.959   3.189
19163W        W89044  11.253   3.925  11.534
19164W        W89045  24.668   3.345  10.499
19165W        W89046  19.550   0.296   4.823
19166W        W89047  20.261  23.535   3.241
19167W        W89048  28.040  30.058  13.312
19168W        W89049  20.638   5.767  14.867
19169W        W89050   3.357   7.340  11.973
19170W        W89051  29.143  13.199   0.755
19171W        W89052   8.389  41.504   0.329
19172W        W89053  26.189  33.548   2.685
19173W        W89054  16.588  43.357  12.927
19174W        W89055   2.898  36.028   4.232
19175W        W89056  22.613  28.456  12.865
19176W        W89057  11.723  39.560  12.539
19177W        W89058  31.987  14.808  13.396
19178W        W89059  22.250  27.001   1.870
19179W        W89060   5.761  32.422  11.924
19180W        W89061  30.517  37.358   1.344
19181W        W89062  30.573  44.370  14.891
19182W        W89063  31.934  30.158   3.313
19183W        W89064  28.074  26.116  12.530
19184W        W89065  11.780  29.066   0.746
19185W        W89066  43.415  30.419  12.471
19186W        W89067  25.026  31.570   4.768
19187W        W89068  38.965  13.835  12.539
19188W        W89069  21.110  10.190  14.407
19189W        W89070   4.264   8.702   4.656
19190W        W89071  12.312  44.299  13.892
19191W        W89072   3.806   7.881   1.715
19192W        W89073  11.277   2.467   3.763
19193W        W89074  11.856  33.127   2.896
19194W        W89075  34.933  37.460   3.811
19195W        W89076  34.486  42.878  14.466
19196W        W89077  20.646  25.967   4.754
19197W        W89078  11.624  24.095  11.921
19198W        W89079   8.163  36.919  13.881
19199W        W89080  33.468  15.595   3.708
19200W        W89081   5.913  34.994  10.556
19201W        W89082  21.532  25.173   1.403
19202W        W89083  21.673  11.821  14.279
19203W        W89084  38.425  30.153   3.816
19204W        W89085  31.968   3.715  14.881
19205W        W89086  18.120  40.985   3.167
19206W        W89087  32.897  39.822  12.837
19207W        W89088  26.092  36.593  11.034
19208W        W89089  15.724  17.114  14.016
19209W        W89090  18.655   0.447  10.615
19210W        W89091  44.349  36.858   0.745
19211W        W89092  35.916   7.889  14.888
19212W        W89093  14.209  16.588  14.810
19213W        W89094  10.188   0.912   2.681
19214W        W89095  35.392  31.585   4.218
19215W        W89096  34.490  34.975   2.345
19216W        W89097   5.883  36.058   4.648
19217W        W89098  15.245   9.376   0.369
19218W        W89099  20.163  22.597   1.224
19219W        W89100  17.243  30.487   0.802
19220W        W89101   7.226  35.978  13.022
19221W        W89102  40.350  38.826  10.596
19222W        W89103  18.247  38.913   3.263
19223W        W89104   8.329  38.926  13.025
19224W        W89105  37.436   4.767  11.978
19225W        W89106  32.890  21.710  13.470
19226W        W89107  22.116  35.556   2.300
19227W        W89108  17.157   7.872  13.413
19228W        W89109  37.029   9.864  11.393
19229W        W89110  30.020  36.885  13.841
19230W        W89111  30.538  33.095  13.923
19231W        W89112  10.144  30.627   2.396
19232W        W89113  33.097  29.105   3.683
19233W        W89114  42.997  39.470  14.776
19234W        W89115  34.600  28.165  12.409
19235W        W89116  12.636   3.233  10.450
19236W        W89117  26.603  27.448  14.461
19237W        W89118  13.135  31.538   0.890
19238W        W89119  14.735  27.008  11.869
19239W        W89120   3.813   7.783   0.801
19240W        W89121  20.721  14.728   3.791
19241W        W89122  18.647  11.727  10.627
19242W        W89123   1.733  15.176   3.311
19243W        W89124  28.079  30.519   2.342
19244W        W89125   9.168   1.962  11.429
19245W        W89126  42.434  22.083   2.687
19246W        W89127  31.618  21.635   2.284
19247W        W89128  41.818  20.753   1.384
19248W        W89129   2.760  13.749  11.530
19249W        W89130  20.188   5.239   4.653
19250W        W89131  19.235  18.109  11.908
19251W        W89132  43.768  30.983   4.136
19252W        W89133  25.059  10.845   0.939
19253W        W89134  27.678  17.751   4.805
19254W        W89135  37.548  26.011  10.495
19255W        W89136  38.889  32.958  12.996
19256W        W89137  33.433  38.366  13.437
19257W        W89138  16.674  32.114  13.514
19258W        W89139  28.105  30.016   0.259
19259W        W89140  31.523   0.818   3.258
19260W        W89141  37.902   1.379  14.456
19261W        W89142  24.518  19.619   4.836
19262W        W89143  23.050  41.496   4.696
19263W        W89144  31.081   9.689   0.899
19264W        W89145  34.098   0.842   0.418
19265W        W89146  15.682   9.877  13.793
19266W        W89147   4.847   0.965  14.511
19267W        W89148  12.238   5.839  10.439
19268W        W89149  14.762  15.190  14.956
19269W        W89150   7.875   1.833  14.825
19270W        W89151  42.496   0.788   1.369
19271W        W89152   2.862  37.903   0.328
19272W        W89153  38.365  36.877   0.371
19273W        W89154   8.273  42.328   0.825
19274W        W89155   9.666  19.144  12.381
19275W        W89156  39.394  28.453   0.277
19276W        W89157   3.791  22.160   0.952
19277W        W89158  23.232  44.980  12.047
19278W        W89159  27.071  32.631  12.075
19279W        W89160  31.051  11.298   0.463
19280W        W89161  35.887   4.287  13.473
19281W        W89162  29.062  36.906  11.940
19282W        W89163  33.528   6.781   3.332
19283W        W89164  27.665  22.995  11.604
19284W        W89165  40.967  35.373  14.880
19285W        W89166  31.523   5.934  12.872
19286W        W89167  25.070  16.811  11.980
19287W        W89168   0.971  36.509   4.734
19288W        W89169  37.970  28.534   4.599
19289W        W89170  25.202  21.675  10.579
19290W        W89171  42.865  35.407   3.193
19291W        W89172  39.948  33.110  13.391
19292W        W89173   3.307   1.733   3.173
19293W        W89174  12.618  26.147  14.428
19294W        W89175  15.698  33.577   2.378
19295W        W89176  29.551  11.812   2.407
19296W        W89177  23.052   8.183   3.647
19297W        W89178   8.182  43.378   3.226
19298W        W89179  44.832  41.824   1.928
19299W        W89180  33.051  43.888  14.403
19300W        W89181  32.933  23.161  11.012
19301W        W89182  17.126  29.651   2.255
19302W        W89183   0.916  15.815  11.951
19303W        W89184  15.196   3.440   2.835
19304W        W89185  22.137  12.349  11.428
19305W        W89186   8.865   4.241  10.958
19306W        W89187   6.920  11.730  14.867
19307W        W89188  16.094  15.230   3.198
19308W        W89189  20.656  31.952  14.289
19309W        W89190  43.304  17.653   2.276
19310W        W89191   3.251   1.931  12.558
19311W        W89192   9.652  29.093   3.289
19312W        W89193  27.608  34.014  13.967
19313W        W89194  24.590  16.586   0.482
19314W        W89195  14.739  35.960  12.006
19315W        W89196   1.754  34.869   4.774
19316W        W89197  27.996   0.923   0.417
19317W        W89198  10.192  17.782  11.404
19318W        W89199  16.629  43.929   4.764
19319W        W89200  28.133  29.023   4.750
19320W        W89201  31.111   3.392  14.798
19321W        W89202  10.829  31.015   0.952
19322W        W89203   0.892  10.152  11.994
19323W        W89204  40.470   2.407  13.420
19324W        W89205  21.167  38.355  12.364
19325W        W89206  30.049  29.567   0.475
19326W        W89207  40.544   0.905  12.035
19327W        W89208  12.118  37.057  12.011
19328W        W89209   9.210  43.909   4.721
19329W        W89210   2.381  40.341   0.935
19330W        W89211   7.367  11.263  10.633
19331W        W89212  17.171  35.578   1.710
19332W        W89213  31.948  27.943   0.464
19333W        W89214  22.703  33.093  14.427
19334W        W89215  35.069   0.289  12.537
19335W        W89216  17.758  28.624   0.791
19336W        W89217  19.748  38.918  11.594
19337W        W89218  22.531  14.701   3.314
19338W        W89219  35.039  21.557   0.873
19339W        W89220  15.589  19.659   3.194
19340W        W89221  22.673  33.624  12.019
19341W        W89222   2.416  32.090   0.394
19342W        W89223  44.346  44.386  11.400
19343W        W89224  42.924   4.347   4.812
19344W        W89225  40.389   0.442   9.928
19345W        W89226  24.493   0.847  14.323
19346W        W89227  43.850  24.007  11.555
19347W        W89228  38.541   8.804   1.222
19348W        W89229   5.868  11.158   4.223
19349W        W89230   4.432  21.638   0.890
19350W        W89231  36.888   3.929   3.815
19351W        W89232   4.215   7.811   4.759
19352W        W89233  14.290  28.988  12.835
19353W        W89234  13.696  31.145  13.039
19354W        W89235   5.703  26.612   3.711
19355W        W89236  42.317  26.492  12.059
19356W        W89237  40.538  39.940  13.514
19357W        W89238   2.432   6.255  12.372
19358W        W89239  23.139  26.476   2.239
19359W        W89240  35.931  42.429  10.896
19360W        W89241  13.171  32.456  10.492
19361W        W89242  27.572  15.809  12.481
19362W        W89243   8.259  28.628  13.414
19363W        W89244  28.530   7.724  12.918
19364W        W89245   2.322  11.239  10.627
19365W        W89246  36.577  43.978   4.826
19366W        W89247  43.992  19.096  11.956
19367W        W89248  23.163  29.514   0.314
19368W        W89249  25.130  37.467  12.370
19369W        W89250   8.390  20.107   4.710
19370W        W89251   7.877  20.551   4.176
19371W        W89252  12.659  39.454   2.727
19372W        W89253  41.897  41.832   4.301
19373W        W89254  17.263  14.591  10.941
19374W        W89255   6.327  25.978   1.222
19375W        W89256  38.401  25.706   1.424
19376W        W89257   3.761  28.093   3.346
19377W        W89258  16.577  11.168  10.460
19378W        W89259   6.310  10.143   9.935
19379W        W89260  35.570  35.895   0.847
19380W        W89261   9.329  25.621   3.822
19381W        W89262  34.931  13.205  12.506
19382W        W89263  40.847  22.252  14.014
19383W        W89264  42.422   7.907   2.823
19384W        W89265  19.092  30.516  12.870
19385W        W89266   3.853   6.884  14.379
19386W        W89267  37.911   4.237  13.526
19387W        W89268  16.713  25.027  12.085
19388W        W89269  24.559  29.518   1.762
19389W        W89270   3.911  27.976   2.398
19390W        W89271  36.965  44.358  13.380
19391W        W89272   5.430  37.973   0.351
19392W        W89273  19.131  14.806  11.400
19393W        W89274  34.413   8.236  13.458
19394W        W89275   8.831  29.470   5.225
19395W        W89276  18.240  19.550   4.796
19396W        W89277  22.015   3.441   1.219
19397W        W89278   0.376  12.767  11.569
19398W        W89279  33.993  38.882  14.853
19399W        W89280   0.325  39.450  11.894
19400W        W89281  23.193  15.689  12.925
19401W        W89282   8.374  36.095   4.149
19402W        W89283  25.661   1.282   0.742
19403W        W89284  42.909   6.341  12.402
19404W        W89285  18.286  16.095   0.315
19405W        W89286  28.947  17.716   3.795
19406W        W89287   4.841  10.378   3.266
19407W        W89288  43.974  44.849   1.249
19408W        W89289  40.442  36.085   9.989
19409W        W89290  34.934   6.811   3.338
19410W        W89291  18.206  24.625   3.676
19411W        W89292  24.092  22.664   1.431
19412W        W89293   2.961  21.111  13.050
19413W        W89294  13.652  41.951  13.002
19414W        W89295   9.153   8.833   3.152
19415W        W89296  44.943   8.237   0.353
19416W        W89297  44.976  14.255   3.358
19417W        W89298   5.705  24.181  14.388
19418W        W89299  28.021  40.829  13.447
19419W        W89300  21.060  42.920  12.892
19420W        W89301  20.217  22.591  10.446
19421W        W89302  37.539  40.925   4.654
19422W        W89303  19.254  26.041   4.150
19423W        W89304  42.027  39.474   4.756
19424W        W89305  19.756  23.703   4.323
19425W        W89306  15.241  21.617   0.756
19426W        W89307  32.091  26.543  11.954
19427W        W89308  16.672  19.609  11.557
19428W        W89309  23.109   9.643  14.315
19429W        W89310  10.280  43.476   0.393
19430W        W89311  37.538   9.235   2.895
19431W        W89312   9.812  38.392  11.110
19432W        W89313  34.036  28.657  11.058
19433W        W89314  13.290   3.791  12.062
19434W        W89315  10.158  44.462   4.287
19435W        W89316   4.366  27.066  12.864
19436W        W89317  16.675   0.825  14.857
19437W        W89318  33.034  21.108   0.360
19438W        W89319   3.839   5.416  10.527
19439W        W89320  38.436  30.008   0.767
19440W        W89321  25.027  31.639   2.333
19441W        W89322   5.340  16.203  12.957
19442W        W89323   2.432  43.828  14.400
19443W        W89324  29.102  38.995  11.544
19444W        W89325  31.618  22.562   2.839
19445W        W89326  23.697  25.517   3.685
19446W        W89327  11.358  18.056   9.597
19447W        W89328  39.363  35.967  14.329
19448W        W89329  31.637   5.863  11.549
19449W        W89330  13.294  43.930   3.250
19450W        W89331  41.886  41.327  10.602
19451W        W89332  33.419  38.911   5.249
19452W        W89333   0.331  26.095   4.680
19453W        W89334  26.618  27.617  13.061
19454W        W89335  14.318  41.825   0.320
19455W        W89336  41.932  23.625  13.823
19456W        W89337  12.212  22.530   1.254
19457W        W89338  18.729  22.513   3.836
19458W        W89339  32.410  37.088  13.906
19459W        W89340   9.668  20.261   1.335
19460W        W89341  11.310   7.278   4.607
19461W        W89342   0.939  24.501   0.827
19462W        W89343  44.410  27.601  11.565
19463W        W89344   4.337   7.341   0.738
19464W        W89345  13.118  33.124   1.871
19465W        W89346  18.690  15.299  14.959
19466W        W89347   7.688  31.529   0.319
19467W        W89348  36.382  22.661   1.836
19468W        W89349  41.369   5.780   3.637
19469W        W89350  17.737  36.077  14.928
19470W        W89351  12.772  11.315  12.056
19471W        W89352  42.339  43.869  11.111
19472W        W89353  28.499  26.501  14.509
19473W        W89354  38.505  16.696   2.255
19474W        W89355  30.609  18.782   4.153
19475W        W89356   0.798  31.053   0.931
19476W        W89357  16.799  33.065  12.088
19477W        W89358  28.136  36.486  14.385
19478W        W89359  30.420   3.392   2.383
19479W        W89360  34.116   4.854   4.321
19480W        W89361  31.106  44.346   2.260
19481W        W89362  37.357  28.938  11.606
19482W        W89363   7.238   3.884   2.288
19483W        W89364  22.239  16.794   1.914
19484W        W89365  34.024  17.146   3.808
19485W        W89366  28.016  17.099  10.418
19486W        W89367   3.903  14.676   3.183
19487W        W89368  21.550  31.548   3.253
19488W        W89369  11.764  31.091  11.588
19489W        W89370  34.409  34.981  11.445
19490W        W89371  38.480  25.994  11.591
19491W        W89372   0.278   2.241   3.806
19492W        W89373  14.626   1.279  12.472
19493W        W89374   1.790  43.499   4.632
19494W        W89375  27.148  28.046  12.988
19495W        W89376  42.362  25.069   2.742
19496W        W89377   8.353  11.818  14.930
19497W        W89378  31.130  37.891  12.905
19498W        W89379   5.754  44.925  11.401
19499W        W89380   8.894  14.246  11.450
19500W        W89381   5.324  15.189   4.756
19501W        W89382  41.405  37.420  11.122
19502W        W89383  36.908  13.617  10.458
19503W        W89384  33.913  38.999   2.312
19504W        W89385  42.326  34.990   1.854
19505W        W89386  15.287  21.177   3.232
19506W        W89387  37.066  24.216   3.318
19507W        W89388  25.558   3.424   3.244
19508W        W89389  37.381  31.048   1.885
19509W        W89390   8.326  41.008  14.954
19510W        W89391   2.905   6.685  12.858
19511W        W89392  19.591  28.153  10.440
19512W        W89393  43.494  11.712   9.920
19513W        W89394  14.166   4.769   1.249
19514W        W89395  15.713   8.304   4.177
19515W        W89396  14.783  44.987  13.860
19516W        W89397  40.319  16.086  11.008
19517W        W89398  28.960  35.511   0.885
19518W        W89399   7.416  36.044   3.285
19519W        W89400   5.918   7.881  14.834
19520W        W89401  37.399  22.560   1.285
19521W        W89402  35.940  37.982  12.931
19522W        W89403   6.712  19.617  12.438
19523W        W89404  42.424  44.760   4.816
19524W        W89405  26.105  22.689   2.256
19525W        W89406   9.722  17.776  10.938
19526W        W89407  44.916  18.658  13.904
19527W        W89408  38.896  39.977   1.847
19528W        W89409  13.133  31.929   2.334
19529W        W89410  37.989  12.255   0.931
19530W        W89411   3.843  30.636  13.945
19531W        W89412  29.587   1.296  13.428
19532W        W89413   3.816  30.653  11.582
19533W        W89414  34.939  32.086  13.508
19534W        W89415  28.530  28.039   1.386
19535W        W89416  26.576  20.745  11.418
19536W        W89417  44.505   7.292   0.428
19537W        W89418  14.829  25.045  14.509
19538W        W89419  18.772   0.411   3.183
19539W        W89420   4.843  28.961   2.785
19540W        W89421  24.115  21.152   3.215
19541W        W89422  41.312  37.492   2.349
19542W        W89423  18.105  44.840   2.784
19543W        W89424  36.425   6.825  12.376
19544W        W89425   4.286  38.877   4.722
19545W        W89426  20.057  38.965   3.856
19546W        W89427   7.910  31.518   3.272
19547W        W89428  22.641  32.047   2.203
19548W        W89429  18.743   2.908  11.477
19549W        W89430  21.148  39.451   1.729
19550W        W89431  17.156  20.135   2.831
19551W        W89432  20.524   8.663   1.444
19552W        W89433  14.246  20.065  11.036
19553W        W89434  41.814  22.103   1.365
19554W        W89435  30.062  24.557  14.317
19555W        W89436   1.302  39.465  14.478
19556W        W89437  39.364  38.021  13.531
19557W        W89438  39.524  26.957  12.890
19558W        W89439   4.848  40.916   2.861
19559W        W89440  37.469  33.432   1.920
19560W        W89441  34.052  19.053   3.275
19561W        W89442  32.928  11.263   0.954
19562W        W89443  18.546  14.340   4.281
19563W        W89444  21.067  33.904   0.289
19564W        W89445  44.975  21.198  14.941
19565W        W89446  16.098  23.008  14.287
19566W        W89447  41.839  25.572  14.434
19567W        W89448  13.684  38.882   0.472
19568W        W89449   0.904   3.274  11.591
19569W        W89450  17.789  27.984   2.215
19570W        W89451   9.354  23.241  11.454
19571W        W89452  35.873  26.087  11.110
19572W        W89453  35.016  26.026  14.310
19573W        W89454  35.489   0.358   0.382
19574W        W89455  25.608  23.018   0.463
19575W        W89456  26.600  37.386  14.439
19576W        W89457  27.666  11.291  11.418
19577W        W89458  22.196   3.887  10.558
19578W        W89459  43.424  42.445   0.389
19579W        W89460  39.910  13.137   4.811
19580W        W89461  44.859  44.311   2.193
19581W        W89462  26.166   9.244  12.544
19582W        W89463  23.663  20.675  13.524
19583W        W89464  14.802  30.634  12.440
19584W        W89465  12.195  19.534   3.782
19585W        W89466   3.856  34.566  14.025
19586W        W89467  16.209  11.629   0.783
19587W        W89468  35.403  26.982  11.425
19588W        W89469   2.823  17.561  13.807
19589W        W89470  41.408  14.324   0.843
19590W        W89471  24.678  26.143  11.933
19591W        W89472  14.713  25.668  13.359
19592W        W89473  39.358  21.565   3.362
19593W        W89474  40.499  44.364  11.060
19594W        W89475   1.743  10.744   4.141
19595W        W89476  30.090  25.493   2.761
19596W        W89477  38.406   2.391  14.929
19597W        W89478   9.250  31.938   3.842
19598W        W89479  41.440  18.117  11.410
19599W        W89480  14.190  35.889   0.305
19600W        W89481  43.402  19.040  12.467
19601W        W89482  27.690  15.793  11.905
19602W        W89483  12.319  30.444   5.646
19603W        W89484  35.871  43.422   3.355
19604W        W89485  10.780  37.896   3.386
19605W        W89486  29.618  44.342  14.281
19606W        W89487  40.958  14.709  13.413
19607W        W89488  23.716  37.535  10.966
19608W        W89489  12.194  28.644   1.393
19609W        W89490   0.963   0.796  13.854
19610W        W89491   6.272   5.728   2.241
19611W        W89492  22.620  16.613   1.441
19612W        W89493  17.699  30.501   2.669
19613W        W89494  14.305   2.931   0.950
19614W        W89495  11.819   8.170  10.543
19615W        W89496  36.043  33.988  14.983
19616W        W89497  32.464  33.490   1.805
19617W        W89498  27.080   8.391  14.463
19618W        W89499  30.626   2.793  14.829
19619W        W89500  38.468  33.102  14.009
19620W        W89501   4.256   3.461   0.293
19621W        W89502  15.788   2.367   2.243
19622W        W89503   7.887  18.666  12.001
19623W        W89504   3.452  37.554  12.403
19624W        W89505  36.045  40.911  12.893
19625W        W89506   9.309  22.114  14.921
19626W        W89507  42.897  11.764   2.266
19627W        W89508  16.268  41.820  11.120
19628W        W89509  21.544  44.823   3.299
19629W        W89510  36.091   8.300  10.965
19630W        W89511  12.621  10.791  13.052
19631W        W89512  34.007  33.387   3.345
19632W        W89513  32.423  21.703  14.510
19633W        W89514   3.248  17.155   1.300
19634W        W89515   8.777  38.524  12.048
19635W        W89516  21.521  19.258  14.828
19636W        W89517  31.460  42.896   1.225
19637W        W89518  42.843   3.728  10.978
19638W        W89519  29.165  32.576  14.977
19639W        W89520  13.823  28.573  13.927
19640W        W89521   2.297  22.713  14.276
19641W        W89522   6.208   0.810   1.856
19642W        W89523   8.779  29.495   1.214
19643W        W89524   2.361   4.379  11.936
19644W        W89525   0.372   6.385  14.831
19645W        W89526   9.678  36.856  14.941
19646W        W89527  28.176   3.843   3.338
19647W        W89528  40.367   6.834   0.319
19648W        W89529  22.702  23.526  12.567
19649W        W89530  12.665   5.883  12.034
19650W        W89531  30.987  29.435  10.422
19651W        W89532   4.813  20.249  14.422
19652W        W89533  12.165  21.717  12.444
19653W        W89534  42.911  29.570  13.340
19654W        W89535  22.138  21.177   3.367
19655W        W89536  26.625  38.938  11.442
19656W        W89537  33.923  16.202  11.991
19657W        W89538   7.699  15.587   4.700
19658W        W89539  43.910  26.112  14.812
19659W        W89540  32.077  39.882  10.957
19660W        W89541   3.810  15.714   2.213
19661W        W89542  38.849  19.570   3.343
19662W        W89543  36.433  21.218  13.420
19663W        W89544   5.865  18.649  12.360
19664W        W89545  35.910   6.791  13.034
19665W        W89546  15.303  12.265  11.969
19666W        W89547  44.928  24.046   0.894
19667W        W89548   9.774   6.304  11.981
19668W        W89549  11.243  20.709   1.335
19669W        W89550  15.781  30.011  11.435
19670W        W89551  29.641  27.050  11.462
19671W        W89552  19.264   6.341  11.118
19672W        W89553  34.606  16.088  13.334
19673W        W89554  32.497   1.865  14.460
19674W        W89555  36.079  25.697   1.310
19675W        W89556  20.656   5.361   2.666
19676W        W89557   8.240  43.017  11.526
19677W        W89558  36.401  21.743  11.411
19678W        W89559  37.516   1.260  12.963
19679W        W89560   5.718  36.593  12.911
19680W        W89561  27.489  28.090  13.824
19681W        W89562   9.302   4.878  10.628
19682W        W89563   3.258  17.664   4.193
19683W        W89564  21.522  21.517   4.217
19684W        W89565  12.145  10.698   4.687
19685W        W89566   2.311   4.800  11.872
19686W        W89567  20.096  32.142   0.788
19687W        W89568   6.781   7.398   3.315
19688W        W89569  27.622  17.602   2.776
19689W        W89570  44.452  34.569   9.951
19690W        W89571  39.917  39.868  10.552
19691W        W89572  43.311  14.290   0.294
19692W        W89573  22.740   6.231   4.644
19693W        W89574  15.768  28.481  10.617
19694W        W89575   4.432  29.937   3.782
19695W        W89576  31.897  13.815  10.422
19696W        W89577  41.380   2.422  11.549
19697W        W89578  29.150   3.775   1.876
19698W        W89579  44.946  15.577  12.919
19699W        W89580  23.131  17.072  12.536
19700W        W89581  36.003  27.083  12.503
19701W        W89582   8.679  21.023  11.417
19702W        W89583  13.824  16.638  11.929
19703W        W89584   6.808  42.781  14.295
19704W        W89585  32.408  19.180   0.401
19705W        W89586   7.250  31.610   4.752
19706W        W89587   0.419   1.292   4.643
19707W        W89588  10.177  35.545   2.825
19708W        W89589   2.724  23.038  12.837
19709W        W89590  35.513  20.056   1.282
19710W        W89591  40.330   2.390  13.978
19711W        W89592  27.029  31.558  11.557
19712W        W89593  27.683  25.696   3.317
19713W        W89594   6.796  27.020  13.505
19714W        W89595  28.568  17.192  13.862
19715W        W89596  16.596   3.889  10.592
19716W        W89597  39.481   8.273   4.761
19717W        W89598  24.708  34.425   4.204
19718W        W89599  42.022  19.072   1.855
19719W        W89600  28.051   7.671   2.319
19720W        W89601  42.987  15.651   2.834
19721W        W89602  41.441  40.976   1.254
19722W        W89603  36.925  14.318   1.250
19723W        W89604  40.999  27.143   0.348
19724W        W89605  41.302  42.804   4.721
19725W        W89606  44.339   0.460  10.423
19726W        W89607  17.196  40.949  10.927
19727W        W89608  24.099  12.785   2.774
19728W        W89609   9.871  10.278   3.707
19729W        W89610  23.098  35.554   3.706
19730W        W89611  15.737   5.887  14.492
19731W        W89612  14.115  43.471  13.837
19732W        W89613  38.987  32.982   4.838
19733W        W89614  33.462  11.712  10.487
19734W        W89615  31.099  36.525  10.631
19735W        W89616   8.404  38.034  14.397
19736W        W89617  36.869  13.234  11.503
19737W        W89618  35.973   9.173  14.386
19738W        W89619   2.796  32.489  11.894
19739W        W89620  38.000  43.969  10.499
19740W        W89621  37.546  12.802  12.429
19741W        W89622  27.999  16.169  14.327
19742W        W89623  42.900  16.734   2.202
19743W        W89624  29.523  30.018  11.105
19744W        W89625  43.426  27.174   3.347
19745W        W89626   6.405  28.516  14.419
19746W        W89627  19.692  22.597  13.023
19747W        W89628  20.761  31.113   0.322
19748W        W89629  37.575  38.912  13.018
19749W        W89630  16.303   0.275   1.726
19750W        W89631   4.835   6.773  12.048
19751W        W89632  28.479  32.425   1.254
19752W        W89633  28.478  28.171   2.727
19753W        W89634  18.607  39.423   4.144
19754W        W89635  20.149  26.027  14.405
19755W        W89636  21.531  44.350   3.339
19756W        W89637   1.848   3.258   0.896
19757W        W89638   4.838  25.219   1.267
19758W        W89639   3.908  12.819   3.691
19759W        W89640  11.368  28.531   1.263
19760W        W89641   1.812  34.894   0.463
19761W        W89642  11.697  31.409  10.636
19762W        W89643   5.886  35.593  10.443
19763W        W89644  38.021  26.643  12.051
19764W        W89645  12.675  28.105   3.762
19765W        W89646  39.366  23.160  14.432
19766W        W89647  32.620  30.026  13.948
19767W        W89648   5.281   0.981   3.662
19768W        W89649   5.424  28.138   1.437
19769W        W89650  40.373  27.604   4.798
19770W        W89651  24.041  18.736   1.250
19771W        W89652  11.264  42.945  12.956
19772W        W89653   1.307  41.446   1.852
19773W        W89654  18.754  11.628   0.950
19774W        W89655  40.357  29.000   1.932
19775W        W89656  14.790  39.343   2.246
19776W        W89657   5.222   9.235   1.882
19777W        W89658  12.799  22.232  10.411
19778W        W89659  11.783  18.743   1.276
19779W        W89660  33.557  22.235  14.018
19780W        W89661   2.281  38.371   2.897
19781W        W89662  24.038  40.334  10.922
19782W        W89663  36.870  43.317  14.943
19783W        W89664  40.948   3.229   2.370
19784W        W89665  20.578   9.232   4.305
19785W        W89666  27.142  19.735  11.526
19786W        W89667  33.526  43.302   0.317
19787W        W89668  36.349  35.033   1.814
19788W        W89669   2.266  14.139  14.836
19789W        W89670   7.256  32.400   1.909
19790W        W89671  44.336  38.425  10.981
19791W        W89672  12.342   3.871  10.475
19792W        W89673  15.129  26.090  14.945
19793W        W89674  19.193   5.306   3.667
19794W        W89675   3.890   6.357   4.818
19795W        W89676  15.263  13.152  13.356
19796W        W89677  27.457  18.131   4.117
19797W        W89678  13.336  29.077   1.883
19798W        W89679   5.342  11.791   0.308
19799W        W89680  38.520  38.454   0.305
19800W        W89681   1.922  39.923   3.734
19801W        W89682   2.935  40.943  14.907
19802W        W89683  14.325  15.600  10.574
19803W        W89684  35.099  28.642   4.823
19804W        W89685   1.405   5.369  14.790
19805W        W89686  20.198  30.130   5.609
19806W        W89687   5.244  29.465   4.745
19807W        W89688  12.823  21.637   1.421
19808W        W89689  20.633   4.433  14.334
19809W        W89690  39.333  39.935  10.893
19810W        W89691  37.466   6.850   0.826
19811W        W89692  13.124  10.273  11.585
19812W        W89693   2.940  10.757  12.828
19813W        W89694   0.975  19.674   1.363
19814W        W89695  35.428  40.447   2.890
19815W        W89696   0.839   9.693  14.991
19816W        W89697  24.230  14.691   2.823
19817W        W89698   1.423  17.259   0.256
19818W        W89699  26.486  33.115  13.811
19819W        W89700  33.107   7.740  11.474
19820W        W89701  27.016  15.591  10.945
19821W        W89702  29.020   3.382  14.484
19822W        W89703   8.352  36.356   1.754
19823W        W89704  43.888  35.470  10.544
19824W        W89705  23.024  10.712  12.031
19825W        W89706  30.502   0.759   0.784
19826W        W89707   9.644  16.579  12.507
19827W        W89708  20.547  20.120  14.284
19828W        W89709  22.576  33.406   1.393
19829W        W89710   8.192  14.328  13.816
19830W        W89711  43.500  40.896   0.860
19831W        W89712  14.258  16.145   3.185
19832W        W89713  33.045  22.735  11.049
19833W        W89714   1.791   9.195  10.500
19834W        W89715  33.092   9.781   4.719
19835W        W89716  31.914   2.399   4.732
19836W        W89717  44.910  31.030  13.482
19837W        W89718  38.063  13.320  12.350
19838W        W89719  24.185  41.476   2.390
19839W        W89720   4.443   1.814  11.093
19840W        W89721  17.800  10.246   1.400
19841W        W89722  13.259  30.565   0.921
19842W        W89723  28.148   2.751   4.724
19843W        W89724  18.279  23.640  11.868
19844W        W89725  24.616  32.984   0.390
19845W        W89726  18.288  34.003   4.760
19846W        W89727  18.139  36.906   2.316
19847W        W89728  25.573  16.679  14.796
19848W        W89729  44.906   9.842   1.345
19849W        W89730  21.739  43.474   3.870
19850W        W89731  35.055  17.305  13.910
19851W        W89732   8.655   0.332   3.794
19852W        W89733   3.388  32.969   0.917
19853W        W89734  22.215   9.814  12.949
19854W        W89735  11.194  38.073   0.462
19855W        W89736   5.273  35.457   3.690
19856W        W89737  33.107   1.426   4.281
19857W        W89738  35.015   4.224  12.833
19858W        W89739  42.422  13.660   3.293
19859W        W89740  16.735  38.998   3.330
19860W        W89741   7.796   7.816  14.958
19861W        W89742  29.103  37.368  13.837
19862W        W89743  30.108  26.507   2.186
19863W        W89744  16.611  15.588  13.012
19864W        W89745  37.581  10.158   2.880
19865W        W89746  21.151  27.948   5.178
19866W        W89747  30.935  25.025  10.902
19867W        W89748  17.678   1.300   0.925
19868W        W89749   4.380  43.887   3.303
19869W        W89750   3.444  41.302  13.954
19870W        W89751   0.425  21.719  14.025
19871W        W89752   9.705   7.330  14.340
19872W        W89753  15.126  29.081  11.416
19873W        W89754  10.349  19.625  12.035
19874W        W89755  30.541   6.395   1.233
19875W        W89756  28.144   6.915   2.350
19876W        W89757   0.430  41.829  12.467
19877W        W89758   5.255  41.345  14.875
19878W        W89759  22.187  41.348   4.771
19879W        W89760   4.771   1.926   1.281
19880W        W89761  38.561  15.819   2.673
19881W        W89762  13.728   1.875   1.424
19882W        W89763  30.629  17.608   2.703
19883W        W89764  24.491  36.983  14.389
19884W        W89765   8.253  18.145   4.206
19885W        W89766  37.964  37.986   4.117
19886W        W89767  31.469  18.166   5.683
19887W        W89768  21.614   4.806  14.383
19888W        W89769  25.980  35.090  10.976
19889W        W89770   0.778  38.396  11.893
19890W        W89771  22.209  43.430  13.951
19891W        W89772   6.301  23.121   3.647
19892W        W89773  33.020  43.016   2.412
19893W        W89774   5.430  43.967  11.437
19894W        W89775  36.864  42.897   3.312
19895W        W89776  12.164  30.936   2.718
19896W        W89777  39.423  27.552  10.439
19897W        W89778  28.109  11.715  14.766
19898W        W89779  18.185   3.290  11.953
19899W        W89780  42.342  31.906   0.244
19900W        W89781  39.977  26.644   0.416
19901W        W89782  39.925  31.962  12.903
19902W        W89783   8.741  43.353  14.816
19903W        W89784  21.741   7.397   3.285
19904W        W89785  25.972   0.429   2.376
19905W        W89786   4.814  10.770  14.876
19906W        W89787  22.714  22.696   1.729
19907W        W89788   5.301   0.880  12.349
19908W        W89789  28.953   7.331   4.730
19909W        W89790  19.055   0.811   3.209
19910W        W89791   1.296  29.644  13.320
19911W        W89792   5.879  41.789   1.397
19912W        W89793  26.568  18.573  11.927
19913W        W89794  24.108  25.153  11.856
19914W        W89795  23.045  26.691  13.943
19915W        W89796  32.460  11.797  11.873
19916W        W89797   4.285  44.381   4.651
19917W        W89798  21.090  25.692  12.853
19918W        W89799  15.787  40.929  12.560
19919W        W89800  15.141  39.369  14.928
19920W        W89801  28.646  43.828   4.155
19921W        W89802  22.708  20.245   0.249
19922W        W89803   7.399   1.802  14.845
19923W        W89804  14.250  16.624   4.187
19924W        W89805   3.285  22.639   1.831
19925W        W89806  44.815  31.071   3.325
19926W        W89807  34.585  25.073   1.321
19927W        W89808  11.181  10.383  10.890
19928W        W89809  10.852   3.360  13.916
19929W        W89810  19.598   2.268  12.923
19930W        W89811  33.571  25.619   2.846
19931W        W89812   8.188  25.070   2.329
19932W        W89813  35.008  32.405   4.790
19933W        W89814  11.200  37.546   4.785
19934W        W89815  32.521  17.305  13.507
19935W        W89816  37.883  15.725  10.019
19936W        W89817  27.461  18.085  10.920
19937W        W89818  20.632  33.575  14.384
19938W        W89819  13.128  30.423   3.838
19939W        W89820  17.115  16.602   0.947
19940W        W89821  30.431   9.321   2.744
19941W        W89822  22.076  30.001  12.041
19942W        W89823  30.606  27.148   1.718
19943W        W89824  13.324  34.499   1.301
19944W        W89825  33.018   5.867  13.869
19945W        W89826   4.255   0.413  11.539
19946W        W89827  38.392   1.892  11.489
19947W        W89828   7.675   5.229   0.820
19948W        W89829  43.846   0.468   1.399
19949W        W89830  29.478  25.552  11.462
19950W        W89831  30.161  33.115   0.258
19951W        W89832  44.933  35.961   0.862
19952W        W89833   2.795  16.629   0.766
19953W        W89834  33.065  41.006  14.442
19954W        W89835  25.586  15.774   0.948
19955W        W89836  26.576  19.581   1.802
19956W        W89837  14.620  44.886  11.540
19957W        W89838   1.407   7.870   3.148
19958W        W89839  32.535  17.205   4.151
19959W        W89840  16.713   5.355   3.276
19960W        W89841   2.849  10.864   4.194
19961W        W89842  28.539  42.836   0.305
19962W        W89843  35.860  34.434  11.931
19963W        W89844   8.881  19.717  12.418
19964W        W89845   6.280  42.303  12.465
19965W        W89846   3.901   0.972   3.831
19966W        W89847  15.089  16.074   0.745
19967W        W89848  23.999  41.895   3.791
19968W        W89849   1.866  22.594   1.404
19969W        W89850  18.787  11.671   5.092
19970W        W89851  38.018  29.035   1.266
19971W        W89852   2.758   9.823  12.473
19972W        W89853  37.848  39.497   2.700
19973W        W89854  37.446  35.003   1.918
19974W        W89855  27.537  40.965   3.342
19975W        W89856  19.064   6.718   1.251
19976W        W89857  38.979  29.489  14.410
19977W        W89858  43.459  37.969   2.816
19978W        W89859  16.312  20.628   1.307
19979W        W89860   6.410  25.536   4.643
19980W        W89861  10.156   2.238  11.453
19981W        W89862  16.262  33.533  12.436
19982W        W89863  38.912  13.666  13.958
19983W        W89864  34.375   5.425  12.353
19984W        W89865  40.390   2.415   4.617
19985W        W89866  25.592  28.622  12.570
19986W        W89867  11.688  23.144  12.055
19987W        W89868  26.503  35.935  12.836
19988W        W89869   1.358   0.752  11.017
19989W        W89870  44.302  12.234  11.959
19990W        W89871  28.478  24.698  14.504
19991W        W89872  20.710  10.747   2.782
19992W        W89873  11.355  42.488   1.408
19993W        W89874  44.424  37.487   3.768
19994W        W89875  12.208  16.771  11.375
19995W        W89876   7.217   8.246  13.484
19996W        W89877   8.811  32.004  12.410
19997W        W89878   0.471  42.316   0.833
19998W        W89879  37.461  21.704  12.083
19999W        W89880   5.881  43.791  13.904
20000W        W89881   9.647   3.884   4.651
20001W        W89882  18.202  28.483  12.441
20002W        W89883  43.397  38.513  14.330
20003W        W89884  32.092  24.618   0.412
20004W        W89885  12.146  14.621   3.220
20005W        W89886  21.106  15.577   2.700
20006W        W89887  33.503  44.801  12.566
20007W        W89888   0.825  23.033   1.759
20008W        W89889  44.870  27.665   2.693
20009W        W89890   0.804   2.392   2.745
20010W        W89891  28.444   4.775   4.341
20011W        W89892   7.740   3.283   2.882
20012W        W89893   1.438  40.397  13.341
20013W        W89894  24.166  20.262  13.335
20014W        W89895  40.040  17.216  11.076
20015W        W89896   5.763  18.156  11.384
20016W        W89897  16.585   1.788   2.895
20017W        W89898   8.774  11.363   4.180
20018W        W89899  34.535  42.414   4.258
20019W        W89900  28.524  31.509   0.314
20020W        W89901  15.593   0.436  10.411
20021W        W89902   4.933  15.797  11.959
20022W        W89903  26.456  23.647   5.260
20023W        W89904  19.046  13.690   2.903
20024W        W89905  15.736  35.433   0.941
20025W        W89906  18.085  10.637  13.455
20026W        W89907  11.176  17.577  13.896
20027W        W89908   5.261  18.251   0.752
20028W        W89909  19.174  24.986  10.592
20029W        W89910  32.102  14.648   0.785
20030W        W89911  37.503  28.096   1.284
20031W        W89912  10.237  38.844   0.426
20032W        W89913  25.532  44.369  10.524
20033W        W89914  38.475  15.673   0.380
20034W        W89915  23.700   1.772   0.390
20035W        W89916  26.587  18.693  14.844
20036W        W89917   6.302  10.299   0.740
20037W        W89918  34.095  19.091  11.459
20038W        W89919  25.619  29.965   1.774
20039W        W89920  35.979  14.630   3.385
20040W        W89921  28.182  30.562   1.255
20041W        W89922   8.738  21.563  14.501
20042W        W89923  39.338  22.689  13.027
20043W        W89924  34.601   1.893   0.283
20044W        W89925   5.289  39.028  12.871
20045W        W89926  22.212  39.389  13.432
20046W        W89927  35.460  38.398   2.684
20047W        W89928  15.138  33.899   4.619
20048W        W89929  38.822  11.784   5.218
20049W        W89930  30.542  32.928  12.015
20050W        W89931  14.777   1.831  11.520
20051W        W89932  32.509  15.811  11.552
20052W        W89933  37.898  10.781   4.194
20053W        W89934  15.146  17.169   3.737
20054W        W89935  38.489  33.917   4.221
20055W        W89936  26.570  30.582  14.827
20056W        W89937  24.649  34.973   2.700
20057W        W89938  17.763  33.438  12.569
20058W        W89939  21.695  11.329   4.822
20059W        W89940  43.372  24.497   4.238
20060W        W89941  29.002  20.183  14.412
20061W        W89942   3.340  11.363  13.829
20062W        W89943  41.326  14.259  13.027
20063W        W89944  43.897  18.645   0.352
20064W        W89945  38.517   2.839  13.827
20065W        W89946  31.573  25.004  11.012
20066W        W89947  16.256   0.836   0.254
20067W        W89948   5.433  10.760  13.421
20068W        W89949  17.161  26.997  11.514
20069W        W89950  26.491  38.568   2.747
20070W        W89951  37.481  40.852  14.300
20071W        W89952   4.757   7.845   2.861
20072W        W89953  18.148  38.409   4.768
20073W        W89954  33.403  28.462  13.060
20074W        W89955   0.830   9.792   3.695
20075W        W89956   4.325  31.608   3.741
20076W        W89957  31.414  27.123  11.881
20077W        W89958  40.338  27.505  13.366
20078W        W89959  22.176  43.368   1.216
20079W        W89960  39.347  41.426   0.933
20080W        W89961  20.643  40.961   2.348
20081W        W89962  44.436   3.757  11.027
20082W        W89963  25.203  25.496   2.805
20083W        W89964  43.898  31.985  14.942
20084W        W89965   0.962   6.809  14.784
20085W        W89966   2.859  41.487   0.464
20086W        W89967  27.450  20.766   1.388
20087W        W89968  41.011  35.076  11.530
20088W        W89969  23.008  11.190  13.535
20089W        W89970  31.479  31.648  14.409
20090W        W89971  41.018  18.685   3.771
20091W        W89972  22.653  39.812  11.408
20092W        W89973   9.389  38.008  13.433
20093W        W89974  38.859   6.213   3.643
20094W        W89975  33.065  18.708   1.901
20095W        W89976  35.009  13.251  11.857
20096W        W89977  24.042   6.424  11.495
20097W        W89978  30.000  28.484  11.005
20098W        W89979  20.543  12.614  14.819
20099W        W89980  10.248  33.080  14.425
20100W        W89981  33.620  25.006   4.784
20101W        W89982  32.901  44.371   1.793
20102W        W89983  14.301  28.006  13.920
20103W        W89984  14.590  28.930   3.315
20104W        W89985  17.635  21.740   1.274
20105W        W89986  26.648  26.089  10.546
20106W        W89987   1.829   0.925   4.240
20107W        W89988  34.005  39.872  13.537
20108W        W89989   9.710  32.128   5.174
20109W        W89990  36.522  33.039   1.239
20110W        W89991  39.395  12.674   1.709
20111W        W89992  42.499   5.318   1.212
20112W        W89993  15.803  25.102  11.978
20113W        W89994  15.191  24.509   1.447
20114W        W89995   1.329   3.813  12.472
20115W        W89996   0.487  30.652  12.537
20116W        W89997   2.459  28.184   2.206
20117W        W89998  24.138  28.174  11.605
20118W        W89999  43.319  43.380  11.378
20119W        W90000  42.994  38.904  12.969
20120W        W90001  24.502  17.259   0.825
20121W        W90002  22.995  42.370   3.224
20122W        W90003  15.757   2.383  11.893
20123W        W90004  32.942   4.942  11.513
20124W        W90005  29.628  32.493  12.882
20125W        W90006   3.399  20.086  14.791
20126W        W90007  11.738  39.964   0.864
20127W        W90008  36.968  11.816   3.289
20128W        W90009  43.990  14.765  11.109
20129W        W90010  18.737  17.756   1.701
20130W        W90011  10.205  39.393   1.858
20131W        W90012  41.921  40.507   3.360
20132W        W90013   1.803  13.644  12.508
20133W        W90014  39.475   2.854  11.870
20134W        W90015  21.634  29.944  10.584
20135W        W90016   9.860   8.895  11.398
20136W        W90017  15.629  26.143  11.464
20137W        W90018  24.614   4.814   1.877
20138W        W90019   5.278  23.511  10.530
20139W        W90020  16.309   6.220  13.333
20140W        W90021  35.563   9.201  14.308
20141W        W90022  36.873  25.084   2.760
20142W        W90023  34.482  20.058  13.814
20143W        W90024  30.118  41.495   2.206
20144W        W90025   9.387  42.423   3.861
20145W        W90026   5.711  28.983   3.331
20146W        W90027  35.472  25.186   3.824
20147W        W90028  44.371   4.250   4.230
20148W        W90029  25.101   3.909  12.508
20149W        W90030   4.405   7.237   0.260
20150W        W90031  38.935   7.824  11.899
20151W        W90032   5.860  30.597   3.652
20152W        W90033   0.440  23.995   3.226
20153W        W90034  11.861   5.306  11.462
20154W        W90035   6.184   9.209   4.752
20155W        W90036  41.951  17.177   0.900
20156W        W90037  31.132  14.666   1.819
20157W        W90038  33.937   6.679  14.375
20158W        W90039  27.065  40.525  11.875
20159W        W90040  27.575  13.790   3.309
20160W        W90041  39.013   3.414   9.937
20161W        W90042  44.946  40.970  14.905
20162W        W90043  17.201  36.890  13.028
20163W        W90044  16.592  35.049  10.605
20164W        W90045  39.501   8.780   4.257
20165W        W90046  14.828   0.492  11.948
20166W        W90047   7.901   6.911   3.170
20167W        W90048  25.979  22.245  14.887
20168W        W90049  20.176  40.402  12.849
20169W        W90050  15.596   7.273  13.332
20170W        W90051  21.190  37.496   5.126
20171W        W90052  22.515  12.742   4.323
20172W        W90053  31.011  38.358  12.069
20173W        W90054  26.474   8.380  10.996
20174W        W90055  37.978   1.923  11.380
20175W        W90056  44.386  17.668  10.913
20176W        W90057  12.688  38.457  14.969
20177W        W90058   7.321  43.405  13.403
20178W        W90059   3.712   7.717   1.334
20179W        W90060  14.132  22.063  13.312
20180W        W90061  42.472   3.736   3.172
20181W        W90062  22.728  43.409   0.841
20182W        W90063  11.164  23.501  13.454
20183W        W90064   3.807  11.137   1.221
20184W        W90065   9.851  12.214  11.917
20185W        W90066  44.401  39.351   4.737
20186W        W90067   0.748   7.673  12.015
20187W        W90068   0.765  22.212  14.361
20188W        W90069  24.047  20.242   0.859
20189W        W90070  43.471   5.854  11.027
20190W        W90071  36.378  38.881   1.426
20191W        W90072  27.579  37.868   4.691
20192W        W90073  13.827   4.872  10.914
20193W        W90074  20.176  27.510   1.803
20194W        W90075  34.493  17.154  12.990
20195W        W90076  13.291  14.774   3.846
20196W        W90077  44.478  21.673  10.556
20197W        W90078  39.998  10.280   9.934
20198W        W90079  29.571  24.548  13.062
20199W        W90080  10.290  17.721   2.766
20200W        W90081  12.165  30.617   3.185
20201W        W90082  16.186   8.837   2.210
20202W        W90083  23.996  14.297  12.936
20203W        W90084  17.656  21.240   1.283
20204W        W90085  34.384   3.343   4.621
20205W        W90086   4.942  15.722  12.837
20206W        W90087  44.962  17.612   4.259
20207W        W90088  14.327  41.365  12.497
20208W        W90089  40.348  25.486  11.067
20209W        W90090  33.601  17.205   4.211
20210W        W90091  32.128  17.629  10.456
20211W        W90092  26.020  22.040  12.044
20212W        W90093  16.685   4.304  14.902
20213W        W90094  24.514  41.870   3.775
20214W        W90095  31.928   5.310  14.502
20215W        W90096  16.722  42.395  10.912
20216W        W90097  30.067  24.539   2.833
20217W        W90098   9.878  42.522  11.890
20218W        W90099  44.800   9.855  10.626
20219W        W90100  37.085  42.490  12.375
20220W        W90101  20.109  19.572  10.635
20221W        W90102  26.053  15.292   2.842
20222W        W90103  43.312  17.097   3.163
20223W        W90104  38.070  34.389   4.790
20224W        W90105  17.741  11.646  12.865
20225W        W90106  26.074  10.661  10.492
20226W        W90107   0.972   0.964   0.956
20227W        W90108  33.908  11.319  13.924
20228W        W90109   7.713   2.468   3.790
20229W        W90110   0.402   0.856  12.863
20230W        W90111  33.391  37.461  11.936
20231W        W90112  40.902  34.437   1.927
20232W        W90113  22.731  44.467   2.369
20233W        W90114   2.299  14.327  13.810
20234W        W90115  41.018   3.308  12.389
20235W        W90116  23.583  18.740  10.998
20236W        W90117  13.677  18.076  11.947
20237W        W90118  31.616  26.966  12.447
20238W        W90119  38.066   7.807   3.313
20239W        W90120  44.792  36.405  10.907
20240W        W90121  22.220  37.924   2.294
20241W        W90122  35.056  19.284  10.600
20242W        W90123  20.694  24.681  12.024
20243W        W90124  17.068   9.765   3.309
20244W        W90125  39.496   8.702  10.440
20245W        W90126  19.740  33.476  11.092
20246W        W90127  20.680  24.493  13.061
20247W        W90128  35.377   4.211   3.784
20248W        W90129  29.512  21.566   3.217
20249W        W90130  14.221  22.105  14.815
20250W        W90131  15.169  44.334   1.845
20251W        W90132   4.245  23.238   4.634
20252W        W90133  15.252  29.955   3.764
20253W        W90134  20.214  20.716  13.371
20254W        W90135  13.767  21.724  14.920
20255W        W90136  27.092  39.834  11.496
20256W        W90137  35.013   8.705   3.231
20257W        W90138  19.158  38.388   0.298
20258W        W90139  15.686  33.409  10.547
20259W        W90140  31.086  33.902  12.371
20260W        W90141  22.743  14.332  10.001
20261W        W90142   1.367  42.393   1.242
20262W        W90143  26.017  34.077  13.423
20263W        W90144  10.653   0.373   4.229
20264W        W90145  10.731  11.817   2.232
20265W        W90146  29.136   0.345   1.701
20266W        W90147  25.143  40.798  14.404
20267W        W90148  39.877  28.454  11.909
20268W        W90149  21.205  25.614  13.986
20269W        W90150  17.674  15.108  14.917
20270W        W90151  32.055  10.337   4.662
20271W        W90152  40.004  29.568   4.216
20272W        W90153  43.845   5.256   1.906
20273W        W90154   2.455   1.806  14.375
20274W        W90155  37.477  14.097  12.575
20275W        W90156   9.332  10.708   4.115
20276W        W90157  16.721  16.689  14.298
20277W        W90158  31.107   5.439  13.982
20278W        W90159  28.594  23.174  13.376
20279W        W90160  20.700  22.008  10.594
20280W        W90161  13.703   4.301   2.807
20281W        W90162   4.234  37.346   0.788
20282W        W90163  41.861  31.494   3.631
20283W        W90164  11.212   2.454  14.420
20284W        W90165  27.175  30.075   2.718
20285W        W90166  18.769  23.130  13.929
20286W        W90167   9.328  12.715   1.705
20287W        W90168  39.514  10.737  14.868
20288W        W90169   5.917  27.136  12.013
20289W        W90170   5.743  30.028  14.379
20290W        W90171   0.494  37.535  12.089
20291W        W90172  17.736  25.498   0.806
20292W        W90173  27.594  41.456   3.636
20293W        W90174  37.838  21.552  10.443
20294W        W90175  40.847   0.799   2.669
20295W        W90176  39.324  22.688   4.767
20296W        W90177  20.053  14.110   2.679
20297W        W90178  11.140  22.720  13.024
20298W        W90179  33.560  20.053   2.255
20299W        W90180   0.871   0.869   3.243
20300W        W90181  40.002  39.479   0.319
20301W        W90182  28.477   7.825   0.299
20302W        W90183   2.259  19.165   1.827
20303W        W90184  42.343  19.065   3.722
20304W        W90185  26.984   7.244  10.946
20305W        W90186  37.402  37.382  10.081
20306W        W90187  19.697   0.884  11.580
20307W        W90188   4.879  41.311  13.315
20308W        W90189  14.746  40.471   2.369
20309W        W90190  28.107   9.154   1.351
20310W        W90191  24.483  38.482  12.855
20311W        W90192  17.763  19.171   2.218
20312W        W90193  10.831   4.406  10.542
20313W        W90194  11.355   8.777   1.395
20314W        W90195   5.421   0.953   2.706
20315W        W90196  29.474  41.017  14.763
20316W        W90197  17.605  25.086   1.818
20317W        W90198   4.355  31.617   1.210
20318W        W90199   7.228  36.978   4.678
20319W        W90200  28.986   4.208  14.996
20320W        W90201  12.827  39.496   9.975
20321W        W90202  16.174   6.192   3.674
20322W        W90203  10.294  37.381   1.923
20323W        W90204  29.134   4.270  14.455
20324W        W90205  36.999  27.078   2.825
20325W        W90206  30.595   8.780   4.794
20326W        W90207   7.837  30.560   1.887
20327W        W90208  38.450  31.146  10.623
20328W        W90209   2.878  21.261  14.332
20329W        W90210  12.183  30.987  13.478
20330W        W90211  39.354  27.134   1.420
20331W        W90212  43.423  14.098   1.329
20332W        W90213   9.815  18.163  11.971
20333W        W90214  28.678  40.359   1.369
20334W        W90215  33.887  28.089   4.182
20335W        W90216  13.696  29.099   3.820
20336W        W90217  23.071  27.451   3.867
20337W        W90218   1.413  29.983  14.816
20338W        W90219   4.437  17.643   4.181
20339W        W90220   2.343  15.297   4.252
20340W        W90221  42.313  36.972  10.922
20341W        W90222  12.229  11.853  10.927
20342W        W90223   1.900  14.667   4.138
20343W        W90224   6.829  40.383  11.877
20344W        W90225   1.890  22.682  13.019
20345W        W90226  43.311   7.839   3.695
20346W        W90227  15.192  29.602   2.328
20347W        W90228  43.846   7.750   1.374
20348W        W90229  40.370  43.286   2.305
20349W        W90230  32.599   4.276  12.041
20350W        W90231  35.009  29.601   3.314
20351W        W90232   5.309  17.170  11.575
20352W        W90233  23.075  16.590  14.010
20353W        W90234  37.528   4.887  13.947
20354W        W90235   4.226  20.669  10.515
20355W        W90236  31.641  24.568   1.334
20356W        W90237  37.496  23.096   0.263
20357W        W90238  11.764  39.939  13.368
20358W        W90239   2.465  20.723   3.848
20359W        W90240  28.477  31.438   4.729
20360W        W90241  32.515   9.653   3.737
20361W        W90242  31.497  20.190  11.602
20362W        W90243  26.998  35.855   1.355
20363W        W90244  37.417  37.366   3.834
20364W        W90245  29.657  15.199  10.490
20365W        W90246  25.517  19.771   2.728
20366W        W90247  41.467  33.478   2.748
20367W        W90248  38.950   0.930  14.967
20368W        W90249  39.427  11.677   4.773
20369W        W90250  11.352  12.798   0.472
20370W        W90251  36.416   7.258  12.508
20371W        W90252  24.578  28.013  13.854
20372W        W90253  33.498  18.726  14.387
20373W        W90254   3.738  38.386  13.421
20374W        W90255   7.302   5.396  13.830
20375W        W90256  10.806  22.724  11.099
20376W        W90257  44.458  19.126   4.184
20377W        W90258  22.188  34.067  11.097
20378W        W90259   6.229  33.476   3.852
20379W        W90260  34.447   8.739   0.914
20380W        W90261  41.911  25.036   1.377
20381W        W90262  36.064  30.038   0.391
20382W        W90263  27.142  37.876  11.424
20383W        W90264  10.345  12.656   0.780
20384W        W90265  27.467  25.576   2.192
20385W        W90266  17.263  12.210   4.270
20386W        W90267  24.142   3.725   0.368
20387W        W90268  23.239  27.158  14.906
20388W        W90269  43.833  28.154   1.833
20389W        W90270  29.607  20.547   2.371
20390W        W90271  37.837  30.530   0.775
20391W        W90272  12.320  39.840  12.469
20392W        W90273  14.679   2.294   3.168
20393W        W90274   2.877  30.635  13.448
20394W        W90275   0.257  35.996   3.839
20395W        W90276  11.185  35.966  13.862
20396W        W90277   1.836  23.536   1.784
20397W        W90278  31.453   0.331   3.331
20398W        W90279  29.017  19.284  11.026
20399W        W90280  23.632  24.174   3.672
20400W        W90281  44.916  22.526  10.920
20401W        W90282  30.461   3.409  10.985
20402W        W90283  38.940  16.703   3.314
20403W        W90284  11.272  10.251   0.243
20404W        W90285  41.863   7.831  12.406
20405W        W90286  21.749  37.527  12.863
20406W        W90287  14.683   4.719  14.892
20407W        W90288   8.257  12.329   0.391
20408W        W90289  26.164  30.543  13.431
20409W        W90290  37.026   5.323  13.319
20410W        W90291  13.342   8.168   2.344
20411W        W90292  31.426  18.701   3.730
20412W        W90293  17.718  29.655   0.448
20413W        W90294  10.381   2.375   2.211
20414W        W90295  25.606  33.398   2.183
20415W        W90296   1.745  29.039  10.929
20416W        W90297  28.654  25.016   2.314
20417W        W90298  38.400   5.440   4.229
20418W        W90299  25.983  18.546  10.624
20419W        W90300  29.074  12.341   3.720
20420W        W90301  21.695  11.865   0.842
20421W        W90302  43.780  42.280   4.154
20422W        W90303  12.663  43.784  13.953
20423W        W90304  28.579   8.247  12.363
20424W        W90305  42.364  39.814   4.823
20425W        W90306  12.610  33.431  13.894
20426W        W90307   3.401  21.622   1.815
20427W        W90308  28.592   3.943   3.824
20428W        W90309  21.690  38.964   0.885
20429W        W90310  36.357  11.782   2.285
20430W        W90311  23.586  10.846   1.263
20431W        W90312   4.884  10.812  11.974
20432W        W90313   1.435  22.590  14.436
20433W        W90314  32.978   7.847  10.959
20434W        W90315  31.458  25.122   0.319
20435W        W90316   8.191   1.356   3.151
20436W        W90317   1.769  35.869   3.775
20437W        W90318  23.092  14.164  10.909
20438W        W90319  27.509   3.361   1.319
20439W        W90320  11.656  44.888  10.460
20440W        W90321  40.536  24.713   3.733
20441W        W90322  42.879   7.382  12.351
20442W        W90323   7.204  22.738  11.855
20443W        W90324   8.381  29.000   1.757
20444W        W90325  28.075  36.566  12.885
20445W        W90326  22.704   3.828   3.632
20446W        W90327  24.661   5.252  14.920
20447W        W90328  44.918   2.904  13.464
20448W        W90329  34.595  25.975   3.822
20449W        W90330  19.705  31.918  10.996
20450W        W90331  39.404   4.414   4.124
20451W        W90332  12.702   3.837  14.298
20452W        W90333  39.538  18.081   4.224
20453W        W90334  19.222  16.158  10.916
20454W        W90335  12.226   7.297  14.023
20455W        W90336  13.316  15.710   3.653
20456W        W90337  27.651  21.665   2.218
20457W        W90338  20.271  28.479  14.818
20458W        W90339  18.769  30.642  12.957
20459W        W90340  44.354   1.959   2.786
20460W        W90341  24.526  24.037  11.543
20461W        W90342   1.760  28.441   0.483
20462W        W90343  14.284  44.904  12.510
20463W        W90344   9.337  32.410  14.422
20464W        W90345  30.087  20.169  11.404
20465W        W90346  31.477  24.973  13.530
20466W        W90347  20.532  41.481  12.404
20467W        W90348  36.954  25.114   1.427
20468W        W90349  43.929   6.380  12.089
20469W        W90350  35.075  26.643   2.888
20470W        W90351  28.514  38.477  11.975
20471W        W90352  22.108  40.916  13.451
20472W        W90353   8.273  37.995  12.359
20473W        W90354  30.092   1.441   3.371
20474W        W90355  26.613  16.682  11.454
20475W        W90356  31.511  29.021  12.901
20476W        W90357  40.440  23.225   3.239
20477W        W90358  40.014  17.229   2.245
20478W        W90359  21.031   8.855   5.308
20479W        W90360  27.171  28.154  13.460
20480W        W90361   4.887  43.983  12.575
20481W        W90362  21.048  40.902  11.025
20482W        W90363  27.679  14.718  11.899
20483W        W90364  37.840  40.868  11.890
20484W        W90365  28.605  40.836   0.476
20485W        W90366  40.023  31.553  12.462
20486W        W90367  25.033  28.532   1.879
20487W        W90368  44.833  43.835  11.888
20488W        W90369   8.753  10.685   4.707
20489W        W90370  10.289   5.762  10.052
20490W        W90371  23.720  22.233  13.360
20491W        W90372  22.607  15.298  13.510
20492W        W90373  13.761  11.626   4.242
20493W        W90374   6.721  17.762   4.200
20494W        W90375   6.394  24.200  12.070
20495W        W90376   2.868  40.878  11.453
20496W        W90377  10.305   3.385  13.542
20497W        W90378  42.849  35.994  10.133
20498W        W90379  11.224  13.272  10.578
20499W        W90380  19.176  42.475   1.759
20500W        W90381  24.681  34.467  14.372
20501W        W90382   3.876  40.516   3.841
20502W        W90383  10.344  29.962   0.910
20503W        W90384  11.770  23.169  14.350
20504W        W90385   8.298   5.808  11.403
20505W        W90386  27.037  33.898   2.783
20506W        W90387  32.403  34.945  13.335
20507W        W90388   3.744  39.468   0.245
20508W        W90389  16.088   4.886   4.737
20509W        W90390   7.335  39.395  10.514
20510W        W90391  36.943  24.557  12.975
20511W        W90392  28.134   0.349   1.764
20512W        W90393  43.428  29.922   1.322
20513W        W90394  18.205  28.038  12.411
20514W        W90395  42.020   1.242   2.716
20515W        W90396  21.096  30.930  10.414
20516W        W90397  34.392  18.226  12.905
20517W        W90398  31.060  16.153  11.039
20518W        W90399  33.398  30.033   1.895
20519W        W90400  26.102  10.365   0.887
20520W        W90401  36.444  36.899   0.402
20521W        W90402  40.507  20.104   0.441
20522W        W90403  27.069  29.927   4.644
20523W        W90404  16.099  16.774   2.296
20524W        W90405  44.263  19.758  12.391
20525W        W90406  36.554  33.988   1.378
20526W        W90407  14.115  39.036  14.783
20527W        W90408  33.400  24.096   2.668
20528W        W90409   7.357  34.413  14.369
20529W        W90410  15.088  18.644   1.362
20530W        W90411  22.009  25.565   1.819
20531W        W90412  42.921  41.439   4.658
20532W        W90413  11.753   1.807  11.884
20533W        W90414  10.681   0.932  11.873
20534W        W90415  16.126  10.847  14.339
20535W        W90416  40.499  40.913  12.378
20536W        W90417  33.939  14.154   2.301
20537W        W90418  27.557  36.446   3.833
20538W        W90419   7.749  29.048  11.517
20539W        W90420   2.727  11.307   1.281
20540W        W90421  17.629  15.792  10.523
20541W        W90422  14.297   1.865  13.428
20542W        W90423  41.017  33.986  13.887
20543W        W90424  30.658  25.661  11.400
20544W        W90425  28.104   3.405  12.019
20545W        W90426  20.712  24.145  10.927
20546W        W90427  39.835  31.999  10.928
20547W        W90428  28.633  35.095   2.774
20548W        W90429   0.797  32.473   0.764
20549W        W90430  20.673  30.550   2.800
20550W        W90431  26.663  15.777  12.404
20551W        W90432  26.668  38.041  12.987
20552W        W90433  26.585  31.145   1.348
20553W        W90434  12.304   4.290  13.376
20554W        W90435  20.166   1.434  11.971
20555W        W90436  35.980  42.832  11.575
20556W        W90437   0.896  22.184   2.833
20557W        W90438  38.341  44.890  11.598
20558W        W90439  37.565  38.073  10.916
20559W        W90440   4.205   2.857   2.757
20560W        W90441  11.708  43.922  12.970
20561W        W90442  22.070  34.492   2.866
20562W        W90443  14.686   6.692   4.780
20563W        W90444  20.577  15.225   4.246
20564W        W90445   7.388  11.192  13.008
20565W        W90446  29.436  26.094  12.070
20566W        W90447  33.896   4.366  12.044
20567W        W90448  38.919  41.825  13.500
20568W        W90449  27.495  43.388   0.480
20569W        W90450  12.239  37.857   4.804
20570W        W90451  42.803   2.225  13.814
20571W        W90452  31.965  16.218   0.264
20572W        W90453  28.534   2.293  11.116
20573W        W90454  20.705  20.265  11.106
20574W        W90455  43.016  16.088   3.193
20575W        W90456  21.641  43.804  13.015
20576W        W90457  39.323  13.705   3.677
20577W        W90458  19.191  15.102   3.324
20578W        W90459  38.996  23.077   4.815
20579W        W90460  31.442   6.311   0.463
20580W        W90461  19.775   7.780  11.473
20581W        W90462   9.824  27.181  14.880
20582W        W90463  22.671  31.120  10.633
20583W        W90464  10.211  20.640   2.705
20584W        W90465  10.805  44.758   2.312
20585W        W90466  35.470  32.527  14.476
20586W        W90467  43.418   9.795  11.864
20587W        W90468  15.730  25.468   1.751
20588W        W90469  43.428  34.615   4.683
20589W        W90470  26.145   9.345   4.257
20590W        W90471   2.437  36.054   1.829
20591W        W90472  21.106  12.256   4.646
20592W        W90473  44.278  14.279  10.533
20593W        W90474   0.349  28.680   4.166
20594W        W90475  24.008  26.519   5.300
20595W        W90476  27.650  15.784   0.856
20596W        W90477  37.536  13.648  10.520
20597W        W90478  44.413  37.946   4.146
20598W        W90479  44.390  18.634   4.691
20599W        W90480  17.083  36.900   1.221
20600W        W90481  43.413   4.391   1.271
20601W        W90482   8.219  14.776   1.375
20602W        W90483  23.512  10.741  12.447
20603W        W90484  43.966  16.085   2.398
20604W        W90485  13.751  11.182  12.938
20605W        W90486   2.748  16.164   2.257
20606W        W90487  35.071  19.066  12.519
20607W        W90488  14.659  28.623   3.314
20608W        W90489   2.837  44.330   2.861
20609W        W90490  41.956  12.776  12.436
20610W        W90491   1.800  26.073   4.636
20611W        W90492  28.122  22.047   1.373
20612W        W90493  35.943  14.787  12.360
20613W        W90494   0.840   1.308   1.235
20614W        W90495  38.065  42.430   3.870
20615W        W90496  19.686  24.666  13.917
20616W        W90497  23.113  26.603   5.238
20617W        W90498  42.458  37.457   2.877
20618W        W90499  24.051  31.960   2.269
20619W        W90500  25.125  29.424  13.965
20620W        W90501  11.367  24.094   2.747
20621W        W90502   8.691  38.334  12.969
20622W        W90503  43.372   6.684   4.750
20623W        W90504  17.668   2.326   2.674
20624W        W90505  30.518  43.443   0.773
20625W        W90506  27.546   9.380  11.873
20626W        W90507  27.586  31.152   1.310
20627W        W90508  19.543  32.515  13.844
20628W        W90509   6.363   2.428   2.718
20629W        W90510  29.653  11.283  13.339
20630W        W90511   2.768  22.716   0.773
20631W        W90512  43.307   3.340  13.925
20632W        W90513  38.465  38.976  14.973
20633W        W90514  26.204  25.590  10.895
20634W        W90515   0.912  19.267  13.448
20635W        W90516  22.745  21.125   3.739
20636W        W90517   0.458  39.846  10.479
20637W        W90518  39.843   1.928  13.835
20638W        W90519  34.498  17.178   2.879
20639W        W90520  29.087  32.416   2.260
20640W        W90521  44.404  11.252  10.004
20641W        W90522  20.757   4.207  11.421
20642W        W90523  11.796   2.438  14.003
20643W        W90524   1.867  42.491   1.790
20644W        W90525  41.978  35.553  12.066
20645W        W90526   1.303  44.364  12.380
20646W        W90527  24.983  43.361   3.291
20647W        W90528  44.894  19.702  11.898
20648W        W90529  37.941  10.774  11.966
20649W        W90530  11.353   5.417   4.801
20650W        W90531  35.593  29.653  13.379
20651W        W90532   6.694  19.779  11.422
20652W        W90533  20.069  12.773   3.762
20653W        W90534   3.878  28.984  13.362
20654W        W90535  41.301   8.699   2.254
20655W        W90536  24.046  40.427  13.358
20656W        W90537   5.430  22.670  10.022
20657W        W90538   4.447  35.990  10.962
20658W        W90539  28.476  43.276   2.305
20659W        W90540  14.812  40.855   4.278
20660W        W90541  24.187   4.891  10.086
20661W        W90542   2.248  20.598   2.305
20662W        W90543  38.861  16.106   0.868
20663W        W90544  17.141  16.743  13.998
20664W        W90545   8.655  23.097   4.795
20665W        W90546   4.884  25.129  14.319
20666W        W90547  18.078  16.625   4.333
20667W        W90548   1.307  15.152   3.698
20668W        W90549   2.283  14.203   3.634
20669W        W90550  41.946  40.474   3.782
20670W        W90551  11.687  43.322   1.764
20671W        W90552   8.309  18.159   3.758
20672W        W90553   8.717  33.947   4.609
20673W        W90554  14.812  30.446   1.393
20674W        W90555  22.623  31.589   1.759
20675W        W90556  24.177  13.664  13.891
20676W        W90557  12.611  13.154   3.151
20677W        W90558   0.813   7.835  11.090
20678W        W90559  25.566  18.086  13.053
20679W        W90560  31.410   1.828   4.766
20680W        W90561  19.114   3.753   2.891
20681W        W90562  35.855  10.269  11.014
20682W        W90563  24.535   0.938   4.254
20683W        W90564  44.292   1.762  10.157
20684W        W90565  19.606   1.466   5.119
20685W        W90566   4.329   5.431  13.514
20686W        W90567  13.128   0.967  11.104
20687W        W90568   2.943  40.924   0.464
20688W        W90569   3.264  34.009   3.689
20689W        W90570  16.714  18.783   3.855
20690W        W90571   3.221  19.041   4.838
20691W        W90572  27.609   3.884   2.831
20692W        W90573  13.206  43.483  13.398
20693W        W90574  39.480   1.337   0.416
20694W        W90575  39.034  37.431  11.002
20695W        W90576  28.603  38.925   4.640
20696W        W90577  44.462  21.073   1.717
20697W        W90578  11.236  29.170  13.821
20698W        W90579  41.334   6.283   0.471
20699W        W90580  13.166  31.059   4.775
20700W        W90581  14.257   3.440  12.060
20701W        W90582  28.457  19.115   3.742
20702W        W90583  18.121  31.407   1.805
20703W        W90584  17.758   7.393   4.199
20704W        W90585  28.593  33.876   4.657
20705W        W90586   9.240   4.846   4.784
20706W        W90587  17.738  20.133   4.768
20707W        W90588  21.051  14.275   3.836
20708W        W90589  44.289  42.818  11.052
20709W        W90590  26.967   9.818   2.703
20710W        W90591  24.228   7.347  12.824
20711W        W90592  24.994  22.667   0.341
20712W        W90593  31.908  12.181  14.877
20713W        W90594  29.479   1.445  14.400
20714W        W90595  35.529  22.521  10.531
20715W        W90596   8.320   7.180  14.850
20716W        W90597  10.149  23.515   3.276
20717W        W90598  14.117   2.281  12.827
20718W        W90599  32.921  39.924  11.982
20719W        W90600  37.048   0.282  14.476
20720W        W90601  21.518  14.203  11.091
20721W        W90602  22.728  15.182   2.234
20722W        W90603  17.230  41.868  14.942
20723W        W90604  12.854  40.969   0.336
20724W        W90605  37.929   3.371  10.953
20725W        W90606  36.353  16.785  10.040
20726W        W90607  25.601  22.145  10.580
20727W        W90608  28.969  35.961   1.718
20728W        W90609   2.789  38.848  11.967
20729W        W90610   7.725   8.796  11.914
20730W        W90611  37.949  27.602  10.588
20731W        W90612  37.016  22.232  12.455
20732W        W90613   2.916   3.776  14.490
20733W        W90614  41.530  35.488   1.803
20734W        W90615  32.576  17.708  10.498
20735W        W90616  20.572  39.376   4.166
20736W        W90617  14.690  12.691   3.777
20737W        W90618  21.715   2.375   4.708
20738W        W90619  28.079  21.695  13.015
20739W        W90620  22.223  20.733   4.625
20740W        W90621  36.897  17.236   3.151
20741W        W90622  27.573  20.259   0.469
20742W        W90623  33.507  39.483  11.404
20743W        W90624  24.072  11.654   2.876
20744W        W90625  17.077   7.802  11.496
20745W        W90626  29.443  32.112   3.870
20746W        W90627   9.746  10.783  10.561
20747W        W90628  32.457  16.142   5.680
20748W        W90629  19.285   8.373   3.824
20749W        W90630  31.929  17.186  11.457
20750W        W90631  13.841  18.710   1.237
20751W        W90632  28.447  40.515  12.401
20752W        W90633  15.637  44.408  10.078
20753W        W90634  18.243   6.743  14.771
20754W        W90635  28.174   9.341  11.427
20755W        W90636   5.356  27.646   4.205
20756W        W90637   7.332  18.134  14.451
20757W        W90638  13.145  14.699   4.332
20758W        W90639  17.151  14.794  12.906
20759W        W90640  17.264  19.215  11.075
20760W        W90641  22.244   0.924   2.275
20761W        W90642   2.936  34.912  14.813
20762W        W90643  39.352  24.021  11.886
20763W        W90644  37.569   3.239  14.433
20764W        W90645  24.216   6.217  11.079
20765W        W90646  44.927   2.808   1.859
20766W        W90647  15.743   4.801   3.680
20767W        W90648  15.154  34.896   4.116
20768W        W90649  12.224  20.611  14.451
20769W        W90650   5.734  18.280   2.267
20770W        W90651  36.425  11.171  11.573
20771W        W90652  16.094   4.715   4.231
20772W        W90653  18.225  19.154  14.407
20773W        W90654  12.131   4.806  10.945
20774W        W90655  38.857  24.677  12.955
20775W        W90656  34.961  24.080   4.763
20776W        W90657  16.705  11.634  13.474
20777W        W90658  32.141  11.308  14.365
20778W        W90659  19.615   1.380  12.075
20779W        W90660  10.310   2.952  13.061
20780W        W90661   3.885   4.228   2.708
20781W        W90662  12.165  11.328  10.483
20782W        W90663   7.287  24.984  14.924
20783W        W90664   3.839   8.850   0.452
20784W        W90665  16.094  42.285  14.994
20785W        W90666   5.870  35.867   3.761
20786W        W90667  22.720  33.618   1.754
20787W        W90668  14.273  10.773   2.830
20788W        W90669  19.587  43.999  11.394
20789W        W90670  18.059  27.128   1.422
20790W        W90671  19.673  21.707  11.018
20791W        W90672   3.730  30.938   4.760
20792W        W90673   0.835  43.335   1.328
20793W        W90674  31.145  13.328  11.971
20794W        W90675  30.012  19.661  12.066
20795W        W90676   6.271  14.289  11.456
20796W        W90677  17.708  32.139   4.785
20797W        W90678  27.962  17.640   3.781
20798W        W90679  18.225  43.800  10.940
20799W        W90680   2.229  32.068  12.983
20800W        W90681  17.092  37.005   0.468
20801W        W90682  32.426  28.929   1.796
20802W        W90683  34.116   8.217  13.996
20803W        W90684  27.485   6.422   3.191
20804W        W90685  30.993   2.727  13.996
20805W        W90686  20.588  22.144   2.291
20806W        W90687  35.049  25.474   3.673
20807W        W90688  39.330   5.830  13.468
20808W        W90689  42.393  33.484  12.424
20809W        W90690  33.536   6.321   1.735
20810W        W90691  21.230  31.624  13.986
20811W        W90692   4.881  24.532   3.149
20812W        W90693  27.993  32.131  13.880
20813W        W90694   3.282  15.099   4.130
20814W        W90695  22.189   0.455  12.370
20815W        W90696   5.714  19.700  14.409
20816W        W90697  22.741   2.469  11.997
20817W        W90698  12.202  19.719  10.558
20818W        W90699  42.952  29.079  10.976
20819W        W90700  10.319  24.607   1.277
20820W        W90701   9.297   1.867  14.293
20821W        W90702  30.138  28.508  14.491
20822W        W90703  10.165   1.366   3.167
20823W        W90704  35.433  11.828  12.558
20824W        W90705  18.222  13.754   1.842
20825W        W90706  36.989   3.366  13.836
20826W        W90707   1.384  17.594  12.407
20827W        W90708  26.485  29.608   5.259
20828W        W90709   4.250  25.539   0.914
20829W        W90710  26.465  29.497  12.928
20830W        W90711   6.779  18.699   3.220
20831W        W90712  16.227   8.823   1.325
20832W        W90713  12.343   2.251  13.843
20833W        W90714  44.815   1.478  12.966
20834W        W90715   4.352  41.438  10.509
20835W        W90716  21.741  22.045   0.368
20836W        W90717  20.111   1.853  14.844
20837W        W90718  25.670   4.727   2.349
20838W        W90719  15.153   2.248  10.551
20839W        W90720  22.514  20.707  11.001
20840W        W90721  39.455  34.015   2.251
20841W        W90722   9.772  22.639   0.331
20842W        W90723   8.771   1.795  14.017
20843W        W90724  22.625  43.951   1.273
20844W        W90725  28.579  39.318   3.173
20845W        W90726  34.565  43.318   1.930
20846W        W90727  16.624  39.459  14.948
20847W        W90728  17.121  22.166   1.864
20848W        W90729  13.216  13.701  11.079
20849W        W90730  22.731  24.093  10.454
20850W        W90731  21.518  29.532  11.927
20851W        W90732   6.708  38.894  12.438
20852W        W90733   0.384   0.397   3.357
20853W        W90734  10.650  17.591  12.462
20854W        W90735   2.421  35.099  13.904
20855W        W90736  30.478  21.550   3.828
20856W        W90737   4.708  12.168  13.901
20857W        W90738  21.239  42.853   0.777
20858W        W90739  31.984  19.596  11.379
20859W        W90740  14.197  10.351   0.274
20860W        W90741  22.643  32.130  13.352
20861W        W90742   2.460  36.460   0.345
20862W        W90743   2.915  42.028   1.328
20863W        W90744  44.802  10.715   3.286
20864W        W90745  24.668  22.556   1.307
20865W        W90746  14.788  28.114  11.442
20866W        W90747  35.027  24.566   0.735
20867W        W90748  21.062  31.412   1.240
20868W        W90749  40.947  20.684  13.336
20869W        W90750   4.878  24.621  14.350
20870W        W90751  21.521  17.614   3.236
20871W        W90752   0.890   3.850  10.472
20872W        W90753   3.933  19.286   4.609
20873W        W90754  33.974  16.278   0.430
20874W        W90755  19.716  17.069  14.461
20875W        W90756   6.356  11.834   0.789
20876W        W90757   8.840  44.841  14.867
20877W        W90758   2.310   6.350  11.385
20878W        W90759  23.138  28.462  13.864
20879W        W90760  18.223   7.324  12.927
20880W        W90761  15.309  34.558  10.494
20881W        W90762  34.085  19.718   2.701
20882W        W90763  34.097   3.388   4.756
20883W        W90764  29.002  16.790   2.294
20884W        W90765  20.265  16.758  12.452
20885W        W90766  42.959  35.400  12.493
20886W        W90767   0.276  40.363  12.479
20887W        W90768   6.301  41.463  11.527
20888W        W90769  22.007  42.284   2.838
20889W        W90770  29.645  35.389   0.735
20890W        W90771  42.948   8.285   0.315
20891W        W90772   2.912  28.937   1.403
20892W        W90773  37.349  41.792   3.266
20893W        W90774  16.573  26.185   0.469
20894W        W90775  11.133  26.487   1.800
20895W        W90776  38.563  33.085  12.949
20896W        W90777   9.310  27.461  13.487
20897W        W90778  33.436  28.983  14.400
20898W        W90779   2.906  33.915   4.788
20899W        W90780  32.921  35.517   2.866
20900W        W90781  24.487  12.788   2.268
20901W        W90782  31.600   6.245  13.809
20902W        W90783  23.680  18.617   4.309
20903W        W90784  27.532  38.484   3.745
20904W        W90785  43.834  24.196   1.753
20905W        W90786  35.004   7.808  10.575
20906W        W90787  13.343  13.203  12.424
20907W        W90788  34.554   9.318  12.963
20908W        W90789  24.019  43.991  14.835
20909W        W90790  17.184   4.281   0.854
20910W        W90791   3.871  41.323  11.451
20911W        W90792  17.251  14.819   2.843
20912W        W90793   3.867   0.306   1.265
20913W        W90794  37.538  21.161  11.430
20914W        W90795  20.680  23.608   1.241
20915W        W90796  28.061  28.043   3.210
20916W        W90797  25.081  26.632  11.029
20917W        W90798   9.184   3.250   2.321
20918W        W90799  44.930  15.205   1.228
20919W        W90800  23.577  33.982  11.404
20920W        W90801  23.156  35.520   4.136
20921W        W90802  38.985  30.450   5.258
20922W        W90803  44.803  28.020  10.506
20923W        W90804  16.155  38.890  12.829
20924W        W90805  38.452   3.942   2.288
20925W        W90806  35.420  20.685   1.767
20926W        W90807   0.895  38.980  14.984
20927W        W90808  26.574  21.238   3.217
20928W        W90809  43.778  40.308   2.876
20929W        W90810  13.122  19.176  11.001
20930W        W90811  17.237  17.174  14.970
20931W        W90812  31.065  43.439   0.259
20932W        W90813  39.993  13.256  11.873
20933W        W90814   8.191  17.067  14.985
20934W        W90815  43.425  10.777  12.093
20935W        W90816   1.927  17.761  13.377
20936W        W90817  18.243   2.412  13.801
20937W        W90818  39.883  12.119  12.022
20938W        W90819  14.174   2.394   3.385
20939W        W90820  11.188  28.049   0.757
20940W        W90821  17.682  33.945  13.335
20941W        W90822  22.626  11.365  10.470
20942W        W90823  25.651  40.351   3.281
20943W        W90824  34.992   3.249  14.402
20944W        W90825  41.444  43.374  14.820
20945W        W90826   9.204  28.949  14.303
20946W        W90827  42.021  43.386  12.092
20947W        W90828  31.029  24.625  12.361
20948W        W90829  43.400  33.444  14.510
20949W        W90830   9.365  15.310  13.029
20950W        W90831  43.348  36.860   4.708
20951W        W90832  41.446  18.121   3.704
20952W        W90833  30.999  43.309  12.868
20953W        W90834  34.064   3.241   3.336
20954W        W90835  32.929   5.868  11.056
20955W        W90836   9.292  28.082  13.400
20956W        W90837  27.470  19.619   2.827
20957W        W90838  42.842   3.762   4.216
20958W        W90839  28.086  34.963  10.538
20959W        W90840  21.719  11.162   3.814
20960W        W90841   3.256  38.912   2.258
20961W        W90842  12.724  35.525   1.763
20962W        W90843   8.833  32.966  14.884
20963W        W90844  23.079  16.256  12.575
20964W        W90845  42.938  22.560   4.177
20965W        W90846  28.472  30.002  13.055
20966W        W90847  41.942  14.833   2.333
20967W        W90848  44.440   9.376  14.997
20968W        W90849  17.288   7.337   4.659
20969W        W90850  40.851   5.382   1.228
20970W        W90851  38.929  36.883  13.462
20971W        W90852  28.582  33.592   4.616
20972W        W90853  34.951  33.940  10.451
20973W        W90854  24.688  14.630  12.031
20974W        W90855  12.157  38.883  13.318
20975W        W90856  17.159  18.169   5.279
20976W        W90857  31.904  40.508  14.498
20977W        W90858  36.503  34.892  11.904
20978W        W90859  40.935  23.165  12.521
20979W        W90860  16.189  15.174  14.870
20980W        W90861  10.660  14.614   1.838
20981W        W90862  44.825  15.166  12.440
20982W        W90863  28.493   9.184   1.837
20983W        W90864  14.748  33.548   2.259
20984W        W90865  25.503  19.713  13.897
20985W        W90866  40.844  33.471  11.483
20986W        W90867   8.404   8.693  12.875
20987W        W90868  10.370  35.487   3.861
20988W        W90869  21.165  34.871   0.945
20989W        W90870   0.444  20.199  11.488
20990W        W90871  30.049   8.373   1.921
20991W        W90872   3.231  44.434  10.475
20992W        W90873  40.048  43.292   3.801
20993W        W90874  29.984  10.315  13.494
20994W        W90875  11.666  22.007   3.697
20995W        W90876  39.451  19.612   0.770
20996W        W90877  34.488  41.917  13.395
20997W        W90878  15.634  18.261  14.913
20998W        W90879  37.337   6.902  10.610
20999W        W90880  12.832   6.783  14.277
21000W        W90881   4.788  21.194   5.202
21001W        W90882  39.912   3.403  11.609
21002W        W90883  44.887   2.297   1.357
21003W        W90884   4.860  39.522  14.996
21004W        W90885  26.006  30.570  14.363
21005W        W90886  25.632   1.732  13.891
21006W        W90887  25.967  30.911  14.331
21007W        W90888   3.728  15.121  11.568
21008W        W90889  21.030  19.218   1.446
21009W        W90890   8.363  33.386  12.467
21010W        W90891  15.327  35.459  12.378
21011W        W90892  25.660   8.370   4.285
21012W        W90893  18.655  10.302  14.890
21013W        W90894  38.543  27.092  14.371
21014W        W90895  29.629  37.498   5.093
21015W        W90896  28.179  40.414   3.276
21016W        W90897   5.844  35.904  11.387
21017W        W90898  44.290   6.386   2.224
21018W        W90899  12.320  36.006  11.985
21019W        W90900  20.634  12.243   2.710
21020W        W90901  10.635  42.377   0.949
21021W        W90902  42.821  31.537   4.160
21022W        W90903  43.801  36.916  12.876
21023W        W90904  14.781   6.709   4.202
21024W        W90905  26.092   8.764   4.272
21025W        W90906  42.464   7.375   4.753
21026W        W90907  41.419  25.170   4.828
21027W        W90908  19.062  34.435  11.084
21028W        W90909   1.841  26.992  11.887
21029W        W90910  15.781  14.323  14.900
21030W        W90911  42.951  33.043  11.955
21031W        W90912  24.075  30.076   1.317
21032W        W90913   2.750  40.992  14.463
21033W        W90914  34.533  29.427  13.935
21034W        W90915  41.413  41.995  14.967
21035W        W90916  32.565  34.968  12.502
21036W        W90917  44.395  12.244  14.469
21037W        W90918  16.619   9.222   1.327
21038W        W90919  23.094  40.343   2.232
21039W        W90920  38.958  16.188   0.475
21040W        W90921  30.128   8.361  12.569
21041W        W90922   5.713  28.098  14.906
21042W        W90923   4.427  17.610  13.512
21043W        W90924  20.581  16.762   3.678
21044W        W90925  37.462  17.773  14.786
21045W        W90926  14.615  10.876   3.379
21046W        W90927  18.074   2.383  12.439
21047W        W90928  36.418  10.236   4.599
21048W        W90929  18.238   5.311   1.301
21049W        W90930  39.837  24.500   1.697
21050W        W90931   5.288  38.825   3.654
21051W        W90932  19.138  42.823  14.374
21052W        W90933   5.852  39.358  12.534
21053W        W90934  25.671  29.557  10.641
21054W        W90935  23.664   1.959  14.423
21055W        W90936  33.943  36.043   1.753
21056W        W90937  29.501  36.066  12.937
21057W        W90938  21.572  18.152  11.902
21058W        W90939  28.176   6.205  10.902
21059W        W90940  24.480   7.773  14.343
21060W        W90941  20.140  11.847  14.988
21061W        W90942  15.703  21.550   0.953
21062W        W90943   8.294  32.914   2.417
21063W        W90944   4.205  37.457  12.834
21064W        W90945   1.420  43.414   0.761
21065W        W90946  37.929  29.654  11.454
21066W        W90947  24.606   5.336   1.375
21067W        W90948  20.684   4.701  13.450
21068W        W90949  26.120  21.237   2.375
21069W        W90950  28.122  28.633  12.067
21070W        W90951  44.350  40.021  13.362
21071W        W90952  43.821  39.546   0.482
21072W        W90953   4.741  37.979   3.833
21073W        W90954  33.559  32.122  14.387
21074W        W90955  21.216  38.456  11.051
21075W        W90956  31.424  22.245   4.726
21076W        W90957  35.978   7.735   3.281
21077W        W90958  15.813  15.112   1.230
21078W        W90959   7.237   5.288  10.928
21079W        W90960  17.695  27.625   1.840
21080W        W90961  32.516  32.424  12.948
21081W        W90962  18.627   5.784  14.468
21082W        W90963  43.013  42.931   2.210
21083W        W90964  40.969   4.304  13.354
21084W        W90965   1.319  15.760   3.342
21085W        W90966   1.295  29.446   0.273
21086W        W90967  28.141  32.093   4.135
21087W        W90968   9.246  31.936   1.868
21088W        W90969  19.541  32.123   2.764
21089W        W90970   7.185   6.308   4.232
21090W        W90971  37.993  28.993   3.253
21091W        W90972   1.947  30.139   4.763
21092W        W90973  40.461  38.325  12.890
21093W        W90974  25.688   5.815   3.312
21094W        W90975   4.361   0.432  14.456
21095W        W90976  31.107   6.808   2.820
21096W        W90977  32.017  16.731   4.333
21097W        W90978  41.426  25.202   1.436
21098W        W90979  16.203  31.482   2.728
21099W        W90980  20.176   3.260   1.926
21100W        W90981  15.606  37.852   2.324
21101W        W90982  37.945  13.302   4.833
21102W        W90983  12.643  39.809  11.080
21103W        W90984  43.834  26.640   9.971
21104W        W90985  10.840  27.123  12.002
21105W        W90986  14.818  40.484   3.662
21106W        W90987   4.873  10.309   4.748
21107W        W90988   1.928   7.787   3.376
21108W        W90989  14.320  18.567  12.408
21109W        W90990  15.278  23.144   4.600
21110W        W90991  31.645   8.182   4.114
21111W        W90992  40.905  40.901  13.421
21112W        W90993   2.443  35.910  14.498
21113W        W90994  44.395   0.356   3.156
21114W        W90995  31.137   6.271   5.309
21115W        W90996   1.372  17.742  13.335
21116W        W90997  19.567  24.486  11.973
21117W        W90998  40.454  27.975  11.911
21118W        W90999  33.951  20.186   0.772
21119W        W91000   1.809  16.260  13.970
21120W        W91001  37.373  42.889  13.899
21121W        W91002  43.318  19.701   4.171
21122W        W91003  39.047  20.599   2.682
21123W        W91004   4.920   0.766   1.218
21124W        W91005  42.008   1.825   0.293
21125W        W91006  36.039  30.010  12.448
21126W        W91007  31.532  19.143  12.410
21127W        W91008  35.880  19.744   1.713
21128W        W91009  11.772  38.430  14.471
21129W        W91010  23.988  26.510  12.959
21130W        W91011  28.178  39.976   4.745
21131W        W91012  20.601  10.152   1.710
21132W        W91013   6.224  28.007  13.808
21133W        W91014  18.588  25.107   4.830
21134W        W91015  40.805  31.979   4.312
21135W        W91016  32.001  36.580   1.320
21136W        W91017  41.985  22.069  12.995
21137W        W91018  10.243  14.765  11.035
21138W        W91019  30.496  32.395   4.264
21139W        W91020   3.378  16.707  13.047
21140W        W91021  23.182  38.907  14.940
21141W        W91022  29.075  38.363   1.705
21142W        W91023  31.134  43.494   4.213
21143W        W91024  30.541  39.843   2.239
21144W        W91025  11.668  26.067  13.312
21145W        W91026  15.789  14.596   5.092
21146W        W91027  44.828  22.010  12.908
21147W        W91028  29.610  37.940  10.977
21148W        W91029  26.485  31.124  12.427
21149W        W91030  30.058  33.058  13.389
21150W        W91031  34.598  20.595  12.500
21151W        W91032  28.106   0.748  14.398
21152W        W91033   4.808   5.790  13.002
21153W        W91034   9.878   8.304   3.353
21154W        W91035  19.181   1.284   0.780
21155W        W91036   2.423  21.716  14.898
21156W        W91037   1.260  28.521   3.752
21157W        W91038   6.396  37.569  10.520
21158W        W91039   7.787   0.904  13.844
21159W        W91040  29.172  19.649   1.755
21160W        W91041  36.866   0.868  10.895
21161W        W91042   7.409  18.266   4.644
21162W        W91043   5.854   8.682   4.129
21163W        W91044  17.782  29.540   2.831
21164W        W91045   5.734  44.854  12.979
21165W        W91046   8.358  20.115  11.111
21166W        W91047  24.982  16.230  12.897
21167W        W91048  38.060   6.811   2.262
21168W        W91049  35.896  22.506   4.830
21169W        W91050   7.711  43.482  14.874
21170W        W91051  28.595  41.983  14.415
21171W        W91052  17.285  44.924   2.251
21172W        W91053  36.019  21.205   2.766
21173W        W91054  34.887  33.552  12.877
21174W        W91055   9.697  32.906  13.451
21175W        W91056  40.394   0.818  10.898
21176W        W91057  40.532  17.179   3.686
21177W        W91058   0.416  20.061   3.805
21178W        W91059  31.130  11.680  13.933
21179W        W91060  14.240  18.678   2.300
21180W        W91061   8.769  42.330   2.855
21181W        W91062   5.701  41.526   2.279
21182W        W91063   6.392  29.473   3.376
21183W        W91064   9.735   8.316   4.726
21184W        W91065  13.697   5.926   1.345
21185W        W91066   4.230  41.530   2.891
21186W        W91067   0.918  16.806   2.678
21187W        W91068  27.611   3.376   2.277
21188W        W91069   7.194  39.559   4.162
21189W        W91070  34.071  25.681   1.250
21190W        W91071  14.173  17.736  10.559
21191W        W91072   8.277   1.787  14.344
21192W        W91073  35.402  34.024  14.821
21193W        W91074  29.065   0.298  13.316
21194W        W91075  37.514  31.934   0.480
21195W        W91076  27.031  25.613   2.255
21196W        W91077  10.674  31.922  14.916
21197W        W91078  23.581  40.911   2.695
21198W        W91079  14.681  21.622  12.419
21199W        W91080  24.683  19.076   3.742
21200W        W91081   5.845  39.408   2.212
21201W        W91082  10.857  37.536  11.451
21202W        W91083  40.436  26.952  12.842
21203W        W91084   3.832  27.614  10.520
21204W        W91085  43.436  16.166   4.328
21205W        W91086  39.009  24.117   3.763
21206W        W91087   4.848   2.724  10.047
21207W        W91088  31.071  42.993  10.143
21208W        W91089  35.497  29.444   1.211
21209W        W91090  22.016  14.800  11.559
21210W        W91091  30.100  37.546  14.994
21211W        W91092  19.713  39.947  14.364
21212W        W91093   8.315  26.145  12.354
21213W        W91094  30.526  42.507  11.908
21214W        W91095  25.636   9.879   2.892
21215W        W91096  20.274  34.889   2.898
21216W        W91097  36.490   6.878   4.164
21217W        W91098  20.618  24.219   2.895
21218W        W91099  42.845  30.470   4.249
21219W        W91100   3.447  36.388   5.269
21220W        W91101  10.184  21.617  13.986
21221W        W91102  38.026  12.674   1.807
21222W        W91103   1.915  39.468   4.133
21223W        W91104  43.444  37.371  12.359
21224W        W91105  17.615  14.637  13.052
21225W        W91106   5.298  36.073   4.350
21226W        W91107  38.552  41.428  12.382
21227W        W91108   8.718  32.457   4.247
21228W        W91109  35.975   4.727  12.041
21229W        W91110  22.643   9.184   9.994
21230W        W91111  42.290   1.852  11.069
21231W        W91112  20.545  39.502   0.873
21232W        W91113  34.066  41.791   1.757
21233W        W91114   7.865  23.050   1.257
21234W        W91115  31.483  25.965  14.760
21235W        W91116  25.476   3.718  14.000
21236W        W91117  40.932   1.329  14.985
21237W        W91118  31.901  34.920  11.422
21238W        W91119  18.202   3.923  11.915
21239W        W91120  39.355  31.023   0.401
21240W        W91121   7.912  22.182  11.955
21241W        W91122   7.702  13.702  14.322
21242W        W91123  15.612   7.205  12.355
21243W        W91124  44.476   2.383  13.856
21244W        W91125  33.927  25.088   5.189
21245W        W91126  42.998   4.822   3.298
21246W        W91127  18.658  25.043   4.220
21247W        W91128  20.704  21.648  13.509
21248W        W91129   1.778  38.440  12.492
21249W        W91130  40.841  40.473  13.932
21250W        W91131  36.982  23.506   3.860
21251W        W91132  29.083  19.219   0.431
21252W        W91133  31.969   4.443   2.901
21253W        W91134  18.289   1.394   1.745
21254W        W91135   9.369  22.611  12.499
21255W        W91136  19.726  12.637   4.240
21256W        W91137   1.867  22.621   2.725
21257W        W91138  11.300  36.575  14.322
21258W        W91139  29.101  13.803  14.953
21259W        W91140  19.738  12.847  13.884
21260W        W91141  30.984  40.520  14.944
21261W        W91142  32.993  44.303  10.962
21262W        W91143  43.868  38.513   4.698
21263W        W91144   2.779  36.064  12.980
21264W        W91145   1.875  32.947  11.607
21265W        W91146  31.532   9.738   3.702
21266W        W91147  34.413  27.191  10.429
21267W        W91148  38.032  15.621  10.624
21268W        W91149  38.047  36.001   2.205
21269W        W91150  37.034  11.142   2.781
21270W        W91151  31.901  15.647   1.221
21271W        W91152   4.717   9.316   3.688
21272W        W91153   1.398  44.298   2.339
21273W        W91154  42.350  34.602   4.263
21274W        W91155  25.503  38.831  10.127
21275W        W91156  22.031  19.159   0.477
21276W        W91157  41.924  36.054  10.048
21277W        W91158  20.621  40.398   1.283
21278W        W91159  41.825   4.943   0.908
21279W        W91160   4.289   6.204  10.986
21280W        W91161  26.117  29.577  11.488
21281W        W91162  13.190  10.792  11.532
21282W        W91163  35.095  24.584  11.886
21283W        W91164  14.616  21.046   2.722
21284W        W91165  33.059   5.216  14.891
21285W        W91166  19.550  36.431  11.408
21286W        W91167  15.816  19.132   0.780
21287W        W91168  23.088  12.827  13.995
21288W        W91169  13.245  33.445  10.582
21289W        W91170  39.336  38.888  11.982
21290W        W91171  43.769  28.648   3.668
21291W        W91172  21.552  16.317  11.093
21292W        W91173  14.741  18.135  13.438
21293W        W91174  29.492  34.402  10.974
21294W        W91175  30.961  29.472  12.408
21295W        W91176   5.912  21.063  13.980
21296W        W91177  14.216  17.710  12.555
21297W        W91178   2.293   0.317   0.964
21298W        W91179   6.870   4.923  14.826
21299W        W91180  16.120  21.676   0.901
21300W        W91181  24.993  42.910   1.789
21301W        W91182   4.291  41.358  12.039
21302W        W91183  15.092   3.405  11.934
21303W        W91184  34.515  26.987  13.519
21304W        W91185  25.113  42.378   1.727
21305W        W91186  40.959  12.706   4.629
21306W        W91187  13.760   7.758  12.561
21307W        W91188  12.775  19.174  13.489
21308W        W91189  22.015  25.611   4.637
21309W        W91190   4.813  21.221  12.503
21310W        W91191  13.690  41.417   1.818
21311W        W91192  41.316  16.153   3.682
21312W        W91193  28.183  19.660   2.299
21313W        W91194  24.128  41.330  14.822
21314W        W91195   6.736  44.764  13.364
21315W        W91196  17.073  32.575   1.258
21316W        W91197   8.405   0.329  12.019
21317W        W91198  44.500   1.393  13.053
21318W        W91199  38.849  35.440  14.333
21319W        W91200  18.204   4.282  12.883
21320W        W91201   5.912  17.567   4.126
21321W        W91202  17.193   5.888  14.913
21322W        W91203  21.565  10.716   0.734
21323W        W91204  14.335  29.056   2.183
21324W        W91205  18.712  11.786  14.294
21325W        W91206  27.667  38.368  13.978
21326W        W91207  34.410  34.069   0.758
21327W        W91208   2.755  44.316  12.980
21328W        W91209  13.129   3.218  11.438
21329W        W91210  43.941   7.218  10.902
21330W        W91211  13.629  11.849  11.957
21331W        W91212  18.609  15.747  13.366
21332W        W91213  23.514  11.182   1.711
21333W        W91214  12.813  20.185  10.982
21334W        W91215  35.471  13.676   2.216
21335W        W91216  42.888  35.865   1.706
21336W        W91217  40.463  43.271   4.311
21337W        W91218  10.225   7.224  13.908
21338W        W91219   6.792   5.270  14.950
21339W        W91220  11.336   4.936   4.189
21340W        W91221  31.152  34.480   2.888
21341W        W91222  41.892  42.798  14.404
21342W        W91223  19.201  32.628  10.617
21343W        W91224  17.703  40.336   3.155
21344W        W91225  29.080  20.761   4.680
21345W        W91226  44.500   8.754   4.195
21346W        W91227  19.054   7.208   3.774
21347W        W91228   4.319  33.989   2.195
21348W        W91229  33.886  28.981  10.419
21349W        W91230  41.429   8.715   0.845
21350W        W91231  31.610  43.852   0.840
21351W        W91232  17.729  29.628   1.806
21352W        W91233  27.496  23.213  14.398
21353W        W91234  20.222  29.502   0.429
21354W        W91235  34.565  30.052   4.783
21355W        W91236  10.876   6.210   1.433
21356W        W91237  44.421  18.649   5.269
21357W        W91238  28.153  26.954  14.825
21358W        W91239  27.574  13.773   1.791
21359W        W91240  17.075  12.290  13.856
21360W        W91241  19.087  31.103   2.812
21361W        W91242  25.012  23.119   4.758
21362W        W91243  14.159  33.945  12.370
21363W        W91244   2.327  34.068   0.343
21364W        W91245  26.981  32.460   0.453
21365W        W91246  23.082   9.348   4.784
21366W        W91247  28.627  29.467   3.282
21367W        W91248  24.184  14.158  10.158
21368W        W91249   0.953   0.780  11.459
21369W        W91250   0.472  23.033   1.829
21370W        W91251   6.394  30.034   4.344
21371W        W91252  32.479  32.088   4.826
21372W        W91253  10.277  43.789   3.257
21373W        W91254  19.564  23.077   0.418
21374W        W91255  31.970   7.367  11.942
21375W        W91256  18.655  20.586   1.312
21376W        W91257   5.396   4.237   0.868
21377W        W91258   3.400  12.339  13.809
21378W        W91259  18.694  16.225   3.747
21379W        W91260  11.294  23.995  14.981
21380W        W91261  24.643  38.973   1.255
21381W        W91262  24.638  23.561   4.733
21382W        W91263  28.930  35.429   3.351
21383W        W91264   0.451  20.248   3.359
21384W        W91265  37.411   8.315   3.147
21385W        W91266  28.040  42.780  14.358
21386W        W91267  38.005  20.128  13.463
21387W        W91268  16.088  20.711   0.291
21388W        W91269   9.293  15.098   2.849
21389W        W91270  35.561   8.367  12.444
21390W        W91271  32.462  19.238   0.773
21391W        W91272  26.064  35.404   0.766
21392W        W91273   3.422   5.255  13.436
21393W        W91274  37.349   6.716  12.450
21394W        W91275  22.194  20.111   1.358
21395W        W91276  14.213   2.352   4.119
21396W        W91277  40.526  37.883   3.818
21397W        W91278  12.777  15.747   5.172
21398W        W91279  19.693   7.890   3.709
21399W        W91280  24.204   8.172   1.880
21400W        W91281   9.278   6.874   3.193
21401W        W91282  13.711  25.156  10.909
21402W        W91283  17.116  18.593  14.491
21403W        W91284  43.335  21.213   4.148
21404W        W91285  37.086  33.005  13.347
21405W        W91286  24.214   0.356  12.921
21406W        W91287  37.541  14.140   4.830
21407W        W91288  20.221  19.187   1.270
21408W        W91289  17.111  25.031   0.476
21409W        W91290   4.787   8.745  11.598
21410W        W91291   4.872  40.444   3.757
21411W        W91292  43.420  43.917   1.857
21412W        W91293  25.992  42.791  13.354
21413W        W91294   5.792   8.688   0.361
21414W        W91295  41.855  39.318  14.299
21415W        W91296  41.372   6.346  14.865
21416W        W91297  35.600  41.518   4.342
21417W        W91298  19.721  32.567  14.776
21418W        W91299  26.104   2.356   0.964
21419W        W91300  14.672  41.955   1.731
21420W        W91301   6.288   8.228   4.201
21421W        W91302  20.163   3.765  11.929
21422W        W91303  30.608  18.769  13.910
21423W        W91304  36.891  16.599   1.705
21424W        W91305   5.834  29.637   3.211
21425W        W91306  38.388  13.646  14.338
21426W        W91307   4.378  26.976   1.913
21427W        W91308  25.969  39.342   3.661
21428W        W91309  11.137  33.423  14.759
21429W        W91310   0.846   1.242  11.421
21430W        W91311  44.362  13.210   0.481
21431W        W91312  10.786  10.799  13.315
21432W        W91313  36.536   6.208  14.897
21433W        W91314  40.450  38.964  13.530
21434W        W91315  41.344  42.511  13.415
21435W        W91316  18.195  32.046   1.212
21436W        W91317  40.890   3.237  11.925
21437W        W91318  22.653  24.637  12.841
21438W        W91319  41.452  40.541  11.026
21439W        W91320  20.687  32.114  11.110
21440W        W91321  36.068  37.866  10.504
21441W        W91322   2.251  23.001   2.303
21442W        W91323  30.979  32.509   2.851
21443W        W91324  43.836  42.354  14.775
21444W        W91325  19.124  19.233  12.038
21445W        W91326  30.590  27.445   3.801
21446W        W91327   2.893  27.182  11.868
21447W        W91328  37.438  10.350  11.531
21448W        W91329  23.126  17.141   1.865
21449W        W91330  39.380  22.722   2.734
21450W        W91331  34.888  15.102  12.896
21451W        W91332   1.855  31.149   4.287
21452W        W91333   9.163   9.260  12.359
21453W        W91334  18.562  41.927   4.293
21454W        W91335  23.672  12.713  11.058
21455W        W91336  21.693  26.562  10.923
21456W        W91337   3.849   9.383   1.915
21457W        W91338   7.734  22.156   2.793
21458W        W91339   9.354   0.759   2.862
21459W        W91340  32.046   6.371   5.256
21460W        W91341  26.203  15.175   2.393
21461W        W91342  17.604  13.214  14.398
21462W        W91343  13.134  17.696   0.854
21463W        W91344  36.997  23.697   3.210
21464W        W91345  44.880  26.464  14.806
21465W        W91346  40.306  36.041   1.293
21466W        W91347   7.814   2.398   3.147
21467W        W91348  44.469  16.597   4.333
21468W        W91349  10.330  10.385   4.807
21469W        W91350  43.364  16.692   1.729
21470W        W91351  27.165   4.376   0.398
21471W        W91352  25.147   8.302  12.841
21472W        W91353  24.553   9.289  14.342
21473W        W91354  24.676  27.577   4.740
21474W        W91355  24.994  26.032  11.875
21475W        W91356   1.924  32.473   3.169
21476W        W91357  32.963  28.442  11.896
21477W        W91358   8.248  12.252   3.152
21478W        W91359  33.505  21.039   1.895
21479W        W91360  43.865   1.954  10.470
21480W        W91361  31.070  36.546  13.378
21481W        W91362  11.343  17.277  11.490
21482W        W91363  25.156  12.622  13.870
21483W        W91364   5.813  42.347  12.498
21484W        W91365  30.923  31.130   4.770
21485W        W91366  34.375  11.354  13.541
21486W        W91367  34.576  14.106   2.278
21487W        W91368  26.490  37.003   3.861
21488W        W91369  29.568  15.301  12.066
21489W        W91370  20.208  25.474  14.408
21490W        W91371  20.749  21.193  12.363
21491W        W91372  19.547  41.947   1.837
21492W        W91373   7.834  37.460  10.533
21493W        W91374  40.807  21.132  10.933
21494W        W91375  17.062  31.094  13.859
21495W        W91376  14.279  31.437   1.778
21496W        W91377  31.475  34.044  13.349
21497W        W91378  27.084   1.747  13.897
21498W        W91379  15.306  43.493  13.497
21499W        W91380  41.958  14.715   0.361
21500W        W91381  15.688  15.688  11.037
21501W        W91382  18.602  17.211  13.887
21502W        W91383  36.445  18.052  11.592
21503W        W91384   8.745   3.221   3.235
21504W        W91385  30.133  39.409   2.792
21505W        W91386  13.215  31.645   2.257
21506W        W91387   8.323  27.687  14.927
21507W        W91388  30.003  22.151   3.738
21508W        W91389  33.975   0.882   0.815
21509W        W91390  25.074  43.506  12.564
21510W        W91391  14.288   2.368  11.092
21511W        W91392   7.403  38.016  11.986
21512W        W91393  44.774   2.293   0.855
21513W        W91394  19.551  10.663  12.998
21514W        W91395  26.695  43.422  14.940
21515W        W91396  30.159  21.045  12.433
21516W        W91397  18.700  36.002   4.611
21517W        W91398   3.763   6.274   0.838
21518W        W91399  23.588   0.814   2.700
21519W        W91400  38.552  23.208  12.871
21520W        W91401  23.232  25.011  12.093
21521W        W91402  26.978  42.314   0.932
21522W        W91403  39.327   5.405  13.524
21523W        W91404   1.863  39.950   0.949
21524W        W91405   3.328  13.690   2.806
21525W        W91406  24.087  13.181   4.312
21526W        W91407  13.173  22.579   1.422
21527W        W91408  21.531  18.617   2.314
21528W        W91409  23.230   0.445  10.546
21529W        W91410  36.424   0.847   1.764
21530W        W91411   6.893  40.328  14.509
21531W        W91412  24.515  15.146   2.209
21532W        W91413  18.646   6.694   3.313
21533W        W91414   7.867  12.173   0.811
21534W        W91415   3.292   7.261  12.908
21535W        W91416  42.360  10.356  12.377
21536W        W91417  33.529  14.145  13.879
21537W        W91418  37.401  28.521  13.358
21538W        W91419   2.403  39.543  13.505
21539W        W91420  17.307   4.246   4.132
21540W        W91421   6.826  40.871   0.933
21541W        W91422  27.111  37.469   1.851
21542W        W91423  17.145  35.955  12.555
21543W        W91424  21.209  13.790   3.737
21544W        W91425  42.428  44.270   1.837
21545W        W91426  35.029  30.953  10.517
21546W        W91427  41.988  10.231  11.122
21547W        W91428  40.494  19.777  13.329
21548W        W91429  29.645   8.876  12.566
21549W        W91430  18.111  29.543  13.803
21550W        W91431  14.640   3.428  12.510
21551W        W91432  33.475  18.725   1.708
21552W        W91433  31.589  35.379  11.522
21553W        W91434  12.272  44.996   3.379
21554W        W91435  39.550  13.265   2.229
21555W        W91436  25.526  27.628  11.539
21556W        W91437   3.871   8.174  13.956
21557W        W91438   5.289   3.907  13.533
21558W        W91439  19.680  40.902  10.643
21559W        W91440  31.979  10.333  10.449
21560W        W91441  10.844   5.746   1.806
21561W        W91442  19.080  33.056   4.781
21562W        W91443  41.792  14.661   3.738
21563W        W91444  11.277  26.146  13.530
21564W        W91445  35.373  31.974  10.946
21565W        W91446  40.450  20.725  11.049
21566W        W91447  12.690  29.036  11.511
21567W        W91448  24.155  38.849  13.000
21568W        W91449  19.597  21.709  10.500
21569W        W91450  35.552   1.864   1.748
21570W        W91451  32.926   8.761   4.686
21571W        W91452  38.425  32.515  11.921
21572W        W91453  37.343  34.007  14.999
21573W        W91454  44.860  42.926   3.800
21574W        W91455  26.625   7.290  10.601
21575W        W91456   7.259  23.648  13.359
21576W        W91457  10.724  36.485  13.873
21577W        W91458   2.442  32.518   0.926
21578W        W91459  20.163  29.047   0.921
21579W        W91460  31.127  17.065  13.047
21580W        W91461  43.959   2.955  11.012
21581W        W91462  29.028  23.520  13.010
21582W        W91463  40.500  42.897  11.609
21583W        W91464  23.597  40.800   1.921
21584W        W91465  14.283  38.438   4.238
21585W        W91466  31.483  25.500   1.744
21586W        W91467  39.847  44.423   1.404
21587W        W91468   4.240  44.763  14.473
21588W        W91469  18.083  22.085   2.270
21589W        W91470   1.923   9.314   4.269
21590W        W91471  36.922  12.299   0.284
21591W        W91472   3.380  22.007  13.801
21592W        W91473  19.140  23.539  12.878
21593W        W91474  14.595  24.034   4.161
21594W        W91475  13.758  34.907  10.430
21595W        W91476  28.056   7.791   0.912
21596W        W91477  34.500  28.119   1.885
21597W        W91478  29.171   4.740  11.027
21598W        W91479   8.880  42.305  14.472
21599W        W91480  27.601  41.806   1.241
21600W        W91481  43.823   1.800   3.235
21601W        W91482  37.442  16.810  12.394
21602W        W91483  27.978  38.920  13.021
21603W        W91484  27.528  28.462  14.806
21604W        W91485   9.387  12.709   1.294
21605W        W91486  11.634  15.132   3.360
21606W        W91487  33.577  36.014  13.484
21607W        W91488   4.844  44.821  12.062
21608W        W91489  30.441  41.880   4.306
21609W        W91490  29.028  40.452   1.778
21610W        W91491  14.594  17.129  14.955
21611W        W91492  11.697  32.554  14.927
21612W        W91493  13.329  34.373  10.620
21613W        W91494  25.054  15.192   2.348
21614W        W91495  12.208  24.574  12.371
21615W        W91496  31.952  18.604  14.864
21616W        W91497  14.126  11.759   2.355
21617W        W91498   2.465  41.483   4.805
21618W        W91499  38.853  43.944  10.446
21619W        W91500  22.728   9.350  13.833
21620W        W91501  14.238  18.053  13.834
21621W        W91502   8.192  38.850   3.804
21622W        W91503  34.534  12.726   2.746
21623W        W91504  10.647  37.498  14.453
21624W        W91505  13.812  33.129  14.792
21625W        W91506  30.938  34.945   1.915
21626W        W91507  20.700  26.115  11.541
21627W        W91508  31.569  36.523  13.384
21628W        W91509  32.939  14.190  13.359
21629W        W91510  18.648  14.662   1.739
21630W        W91511  11.797  27.958   3.207
21631W        W91512  28.653  18.108  14.476
21632W        W91513  36.477  16.591   0.320
21633W        W91514  19.603  18.107   2.257
21634W        W91515  15.123   2.433  11.463
21635W        W91516  18.204   1.906  14.512
21636W        W91517  22.585  35.514   1.379
21637W        W91518  43.992  44.778  13.488
21638W        W91519  39.502  17.584  14.317
21639W        W91520   4.304  44.421  10.420
21640W        W91521  17.292  43.363   4.176
21641W        W91522   7.870  38.075  11.473
21642W        W91523  11.684  14.121  10.921
21643W        W91524  41.907   3.324   0.334
21644W        W91525  21.213  22.237  12.394
21645W        W91526  37.071  43.001  13.994
21646W        W91527  42.333  35.460  11.953
21647W        W91528  35.073   2.779   1.826
21648W        W91529  36.395  29.667   1.425
21649W        W91530  42.884  35.874  10.513
21650W        W91531  16.127  27.178   2.672
21651W        W91532  23.579  13.349  12.552
21652W        W91533   0.787  22.679   4.204
21653W        W91534  38.543  30.585  10.926
21654W        W91535  21.751  42.010  11.989
21655W        W91536  13.640  24.656  11.994
21656W        W91537  22.109  20.598  11.536
21657W        W91538  14.216  18.286  10.553
21658W        W91539  29.966  12.796   2.345
21659W        W91540  39.822  16.109   2.670
21660W        W91541   2.722  37.938   3.152
21661W        W91542   4.356  32.436   2.196
21662W        W91543   2.890  44.861  13.378
21663W        W91544  12.225  38.859   9.979
21664W        W91545  39.852  44.459   0.766
21665W        W91546  19.272  17.115  11.063
21666W        W91547  35.529  33.460  11.605
21667W        W91548   8.875   2.848   1.256
21668W        W91549  24.507   7.758  13.982
21669W        W91550   6.686  19.641  10.411
21670W        W91551  40.880  42.925  13.915
21671W        W91552   6.902   1.891   1.748
21672W        W91553   9.181  12.708  12.454
21673W        W91554  11.845  26.039   3.191
21674W        W91555  43.785  18.651  10.583
21675W        W91556  10.670   4.843   1.797
21676W        W91557  13.141  35.463   0.867
21677W        W91558  13.601   9.278   4.145
21678W        W91559  26.547  22.508  11.871
21679W        W91560  15.179  29.586  14.475
21680W        W91561   5.747  19.693   2.393
21681W        W91562  14.655  18.788   5.256
21682W        W91563  17.629  28.964  12.348
21683W        W91564  42.381  12.139  10.920
21684W        W91565  16.181  17.119  12.459
21685W        W91566  14.668  34.427  10.945
21686W        W91567  18.645  11.690   4.135
21687W        W91568  23.672  16.770   4.221
21688W        W91569  18.294  44.332   4.295
21689W        W91570   1.908  28.996   2.710
21690W        W91571  13.160   4.869  12.886
21691W        W91572  42.864  30.051  12.060
21692W        W91573  19.120  34.449   0.811
21693W        W91574  36.580  13.663  14.484
21694W        W91575  31.090  14.280   5.121
21695W        W91576  30.433  14.270   0.316
21696W        W91577   4.416  15.295  12.578
21697W        W91578  32.908  43.431  11.010
21698W        W91579  43.369   8.846   3.188
21699W        W91580  33.025  41.520  11.021
21700W        W91581  18.229   4.744   2.776
21701W        W91582  34.990  34.549   2.756
21702W        W91583  35.998  15.818   0.856
21703W        W91584  43.291  15.135  12.372
21704W        W91585  40.876  37.467   4.709
21705W        W91586  40.509  37.851  12.416
21706W        W91587  14.166   6.314  14.863
21707W        W91588  22.608  36.523  12.972
21708W        W91589  28.545   5.287   2.344
21709W        W91590  25.573   2.390  12.015
21710W        W91591  23.507  30.642  12.897
21711W        W91592  19.054  22.639   4.181
21712W        W91593  15.098  30.066  10.895
21713W        W91594  26.677  43.854  14.306
21714W        W91595  21.125  27.033   0.824
21715W        W91596   4.716  43.275   2.357
21716W        W91597  44.834  30.470   2.349
21717W        W91598  15.111   5.347  10.540
21718W        W91599  28.935  41.810  14.479
21719W        W91600  13.734  16.794  13.969
21720W        W91601   0.957  11.702  13.938
21721W        W91602  16.168  44.934  10.572
21722W        W91603  37.393   6.823  11.605
21723W        W91604  24.652  39.984  10.520
21724W        W91605   3.717   7.379   3.640
21725W        W91606  12.727  10.179   9.922
21726W        W91607  18.651  22.128   0.370
21727W        W91608  16.172  15.618  13.413
21728W        W91609  34.417  25.064   1.929
21729W        W91610   8.793  18.234  14.950
21730W        W91611  44.453  11.705   4.621
21731W        W91612   8.884  26.701   5.083
21732W        W91613  13.161  37.957  10.514
21733W        W91614  32.095  32.063   4.610
21734W        W91615   2.353  27.071  11.045
21735W        W91616  42.790   7.905   0.325
21736W        W91617   8.663  41.328  14.022
21737W        W91618  29.119  41.535  12.447
21738W        W91619  25.578  34.465   0.280
21739W        W91620  21.732  43.484  12.470
21740W        W91621   1.908  44.442   1.302
21741W        W91622  38.017  27.629  14.320
21742W        W91623   2.808  17.192   1.349
21743W        W91624   8.740  27.117   4.716
21744W        W91625  37.954  20.651  10.549
21745W        W91626  26.615  15.186  11.083
21746W        W91627   7.856  36.396   4.746
21747W        W91628  12.611  29.550   2.364
21748W        W91629  24.024  14.311  12.567
21749W        W91630  29.025  36.083  14.886
21750W        W91631   6.809  41.491  12.866
21751W        W91632  23.138  24.132   1.744
21752W        W91633  40.513  19.766   3.856
21753W        W91634  20.682  26.096   1.771
21754W        W91635  30.965  33.889  10.639
21755W        W91636  38.064  17.577   3.312
21756W        W91637  15.811   0.822  10.971
21757W        W91638  16.570  29.961  10.519
21758W        W91639  10.715  10.671  12.496
21759W        W91640  43.874  29.624  11.522
21760W        W91641  34.023  21.221  12.562
21761W        W91642  19.055  23.664  10.594
21762W        W91643  30.044  17.711  10.146
21763W        W91644  41.806  34.565  13.978
21764W        W91645  39.942  20.128   3.730
21765W        W91646  19.706   0.451  12.472
21766W        W91647   4.432  31.460  14.435
21767W        W91648  30.106  16.689   2.222
21768W        W91649  29.127  41.511  11.396
21769W        W91650  36.022  37.339   2.663
21770W        W91651  29.576  40.524   5.262
21771W        W91652  15.667  41.940   0.301
21772W        W91653  28.579  26.472   4.674
21773W        W91654  38.849  41.923  12.425
21774W        W91655  16.756  33.444   4.716
21775W        W91656  22.145  14.278   0.957
21776W        W91657  33.417  38.023   4.311
21777W        W91658  29.993  21.085   1.360
21778W        W91659  12.852  10.757   3.148
21779W        W91660   5.270  13.320   3.164
21780W        W91661  43.923  38.866  12.380
21781W        W91662  37.378   1.251   1.809
21782W        W91663  38.439  36.938   4.833
21783W        W91664  44.799  22.045   3.180
21784W        W91665  43.823  10.369  12.061
21785W        W91666  10.322  38.830  11.611
21786W        W91667  20.536  39.902  12.940
21787W        W91668  36.051   4.287   3.718
21788W        W91669   5.696  12.284   0.268
21789W        W91670   4.880   7.296   5.095
21790W        W91671  22.640   5.692   0.482
21791W        W91672  24.698  16.579   1.922
21792W        W91673   4.366  20.213  13.032
21793W        W91674   0.437  26.159  10.617
21794W        W91675  16.072  42.031  12.058
21795W        W91676   4.853  44.905  12.524
21796W        W91677  28.141  17.175   2.269
21797W        W91678   5.868  12.216  14.487
21798W        W91679  37.428  38.332   0.728
21799W        W91680  16.605  34.112  14.929
21800W        W91681   7.775   2.910   3.224
21801W        W91682   2.745  39.440  10.468
21802W        W91683  43.444   9.654  13.526
21803W        W91684   1.906   2.761  14.379
21804W        W91685  19.634  22.095  10.091
21805W        W91686  36.582  33.130   2.780
21806W        W91687   3.928  36.053  14.766
21807W        W91688  22.687  37.878   0.360
21808W        W91689  29.594  17.730   3.150
21809W        W91690  20.064   1.248   3.176
21810W        W91691  29.502  20.707  11.595
21811W        W91692  21.560  26.011  13.881
21812W        W91693  10.258  20.043   3.692
21813W        W91694  22.548  23.084  12.068
21814W        W91695  31.957  21.610   4.253
21815W        W91696  21.077  14.180   2.672
21816W        W91697  44.955  21.107  14.302
21817W        W91698   0.859  30.960  12.844
21818W        W91699   6.765   0.802   3.649
21819W        W91700  44.380  27.505  12.041
21820W        W91701  35.415  38.358  10.496
21821W        W91702   1.387  32.916   1.741
21822W        W91703  43.858  30.485   0.960
21823W        W91704  43.349  13.644   1.372
21824W        W91705  38.963  17.697   3.323
21825W        W91706  23.223  41.440  14.482
21826W        W91707  26.050  42.518   3.798
21827W        W91708  11.163  29.977  14.413
21828W        W91709  41.832  26.953  11.126
21829W        W91710   1.880   6.285  14.295
21830W        W91711  43.012  16.598  10.129
21831W        W91712  36.504   2.328   2.788
21832W        W91713  16.600  44.864  13.390
21833W        W91714  10.312   4.847  14.915
21834W        W91715  24.113  30.115   0.339
21835W        W91716  26.486   9.151   5.250
21836W        W91717  29.042  32.916  13.380
21837W        W91718  11.264   9.221  10.409
21838W        W91719  22.521   4.346   1.876
21839W        W91720  21.063  44.264  11.491
21840W        W91721  12.810   4.846  10.897
21841W        W91722   2.415  21.604  13.505
21842W        W91723   9.884  22.218  13.464
21843W        W91724  11.253  12.263   1.361
21844W        W91725  33.058  39.041   0.917
21845W        W91726   7.175  19.616   0.893
21846W        W91727   3.420  27.591  13.021
21847W        W91728   2.931  22.514  10.566
21848W        W91729  30.042  24.504   3.853
21849W        W91730  39.518  37.852  12.384
21850W        W91731  25.012  33.951   0.299
21851W        W91732  13.223  39.062  12.487
21852W        W91733  30.521  26.112  13.976
21853W        W91734   1.886  10.153   3.836
21854W        W91735  42.381  20.533  11.565
21855W        W91736  20.649  18.754   4.205
21856W        W91737   7.365  35.500   2.180
21857W        W91738  26.634  39.909  13.929
21858W        W91739  37.838  30.965  10.447
21859W        W91740  19.666  41.958   3.702
21860W        W91741  42.283  20.631   2.750
21861W        W91742  14.316  36.956  12.417
21862W        W91743  32.477  36.397  14.878
21863W        W91744  22.225  42.495  10.952
21864W        W91745   6.319   7.728   0.454
21865W        W91746  25.061  29.622  14.961
21866W        W91747  14.131  28.577  12.420
21867W        W91748   6.343  31.082   1.801
21868W        W91749  31.619  43.425  13.437
21869W        W91750  17.180  27.061   4.168
21870W        W91751  44.879  19.717   3.383
21871W        W91752   0.861  35.366   2.814
21872W        W91753  23.578  29.634  14.385
21873W        W91754   5.384  29.171   2.726
21874W        W91755   9.393   3.868   3.728
21875W        W91756  30.449  37.880  12.952
21876W        W91757   7.276   4.901  11.377
21877W        W91758  38.991   4.434   2.364
21878W        W91759  24.171  11.833  11.021
21879W        W91760  17.796  30.065   5.748
21880W        W91761  25.055  16.616   1.357
21881W        W91762   7.287   5.872   0.885
21882W        W91763  21.676  20.058   4.818
21883W        W91764  23.552  21.201  14.950
21884W        W91765  20.083  41.863   0.355
21885W        W91766  19.270  12.685  13.913
21886W        W91767  25.669  37.952   2.257
21887W        W91768  11.298  10.658  11.465
21888W        W91769  11.172  43.834   2.389
21889W        W91770  42.812   2.416   1.341
21890W        W91771  12.354  24.676   4.255
21891W        W91772   5.211  27.940   1.852
21892W        W91773  13.230  16.746   4.303
21893W        W91774  21.262  26.200  11.085
21894W        W91775  42.519  26.087  14.348
21895W        W91776   3.344  21.059  13.823
21896W        W91777  19.150  42.356   0.951
21897W        W91778  42.389   8.278  14.826
21898W        W91779  33.125  16.728   5.125
21899W        W91780  23.714  13.139   3.227
21900W        W91781  38.926   9.343  10.515
21901W        W91782  19.758  42.803   3.320
21902W        W91783   5.237  38.412   4.149
21903W        W91784  44.336   5.228  12.571
21904W        W91785  20.661  36.070   3.365
21905W        W91786   5.393  24.669   2.400
21906W        W91787  14.722  11.271   4.188
21907W        W91788   6.183   0.959   0.276
21908W        W91789  21.554  34.522  10.468
21909W        W91790   6.248  27.468   3.661
21910W        W91791  40.803  29.921   2.901
21911W        W91792   4.804  17.595  12.556
21912W        W91793  42.494   6.832  12.486
21913W        W91794  40.457  31.629  13.331
21914W        W91795  39.896   6.824   0.917
21915W        W91796  36.034  25.074   2.840
21916W        W91797   5.730  26.539  11.903
21917W        W91798  37.482  44.496   5.246
21918W        W91799  34.055  10.338  14.840
21919W        W91800  12.337  10.657   0.878
21920W        W91801  25.512   1.969   0.783
21921W        W91802   9.231  11.183  13.424
21922W        W91803  25.104  17.087  14.976
21923W        W91804  38.428  34.528   4.728
21924W        W91805   9.261  42.453  14.485
21925W        W91806  12.149   2.385  12.963
21926W        W91807   2.941  43.440   4.157
21927W        W91808   6.891  12.185   3.802
21928W        W91809  26.014   7.858   3.234
21929W        W91810   5.417  44.924   3.684
21930W        W91811  23.732   0.491   0.388
21931W        W91812  16.730  29.608   1.219
21932W        W91813  33.903  34.548  14.366
21933W        W91814   4.791  36.077   1.791
21934W        W91815  35.956   5.207  13.316
21935W        W91816   8.708  19.695   1.852
21936W        W91817  41.511  25.215  11.550
21937W        W91818  20.100  35.479   1.318
21938W        W91819  30.000  42.425   4.327
21939W        W91820  41.944  33.424   3.637
21940W        W91821  37.475   6.327  14.922
21941W        W91822  31.461   0.858   1.273
21942W        W91823  25.994   3.258   0.459
21943W        W91824  20.264  29.157   3.343
21944W        W91825   2.389  37.446  11.505
21945W        W91826  32.597  33.037  12.025
21946W        W91827   7.857  41.475  13.460
21947W        W91828  11.260   8.402  10.578
21948W        W91829  38.880   6.395  11.003
21949W        W91830  16.221   5.240   2.213
21950W        W91831  24.505  39.558   0.455
21951W        W91832  32.107  21.226   3.223
21952W        W91833  13.817  21.511  13.393
21953W        W91834  42.943  41.478   0.308
21954W        W91835  36.392  37.930   0.298
21955W        W91836  43.344  35.463   4.331
21956W        W91837  16.086  38.020  10.435
21957W        W91838   9.359  36.358   0.452
21958W        W91839  21.218  29.524  12.355
21959W        W91840  36.527  28.617   4.776
21960W        W91841   1.748   0.940  14.435
21961W        W91842  32.555  17.654   4.814
21962W        W91843  11.153  27.616   4.203
21963W        W91844  37.504  27.142   2.857
21964W        W91845   6.715  39.876   4.345
21965W        W91846  23.015  24.172   2.778
21966W        W91847   5.734   5.793  13.790
21967W        W91848  19.098   6.389   0.938
21968W        W91849   7.255  10.841  11.449
21969W        W91850   2.436  31.053  11.509
21970W        W91851  31.043  23.493  11.973
21971W        W91852  29.667  43.973  10.592
21972W        W91853  21.179  32.593  13.060
21973W        W91854  31.428   7.669  14.915
21974W        W91855   8.803  22.632  12.397
21975W        W91856  31.530  42.311  11.015
21976W        W91857  42.033  40.020   1.823
21977W        W91858  12.802  12.769   3.231
21978W        W91859   1.862  16.142   2.813
21979W        W91860  20.040  11.704   0.812
21980W        W91861  15.192  12.297  14.277
21981W        W91862  13.613  11.849  14.773
21982W        W91863  28.152  26.104   3.746
21983W        W91864  19.662  14.123   1.813
21984W        W91865  11.321  14.818   1.217
21985W        W91866  21.519  33.525   1.738
21986W        W91867  43.970   3.216   1.719
21987W        W91868  35.965  17.307   5.251
21988W        W91869   0.401  33.935  10.610
21989W        W91870  10.645   3.923  12.579
21990W        W91871   9.320  19.228   1.257
21991W        W91872  39.502   0.365  10.644
21992W        W91873  32.093  32.564  11.416
21993W        W91874   1.935  41.982  13.438
21994W        W91875  32.027  28.539   0.422
21995W        W91876   2.828  10.826   3.782
21996W        W91877  38.460   1.912  14.355
21997W        W91878   2.862   4.235  12.029
21998W        W91879  10.371  35.953  12.828
21999W        W91880  28.568   2.950  10.476
22000W        W91881  15.271  38.867   2.216
22001W        W91882  22.236  28.478  14.299
22002W        W91883  31.983  38.986   4.213
22003W        W91884   6.192  16.770  14.344
22004W        W91885  39.341  35.426   2.204
22005W        W91886  38.944  11.149   1.865
22006W        W91887  33.584  27.492   3.348
22007W        W91888  19.636   0.394  11.504
22008W        W91889   7.705   7.809   3.315
22009W        W91890   8.875   7.754  12.996
22010W        W91891   5.433  16.094  10.460
22011W        W91892  43.417  29.433   2.738
22012W        W91893  44.881  24.229   4.119
22013W        W91894  33.120   5.693  14.361
22014W        W91895  30.659  12.802  13.984
22015W        W91896  10.208  39.472   1.286
22016W        W91897  12.735  35.463  11.406
22017W        W91898  17.758  16.296  10.416
22018W        W91899  23.619   9.689   2.214
22019W        W91900  18.736   6.753  14.504
22020W        W91901  33.603  11.824   0.747
22021W        W91902  17.133  23.061   3.183
22022W        W91903  17.571  34.034  14.338
22023W        W91904  28.044   9.873   0.277
22024W        W91905   4.345   5.769  13.810
22025W        W91906  17.074  15.096   2.745
22026W        W91907  35.408  32.041  12.035
22027W        W91908   0.435   8.836  13.320
22028W        W91909  23.541  36.066   4.263
22029W        W91910  23.160   9.744   3.710
22030W        W91911  23.153  22.145  11.104
22031W        W91912  13.797   1.759  14.398
22032W        W91913   7.739   9.796  14.884
22033W        W91914  37.400  35.996   9.943
22034W        W91915  43.938  22.604   2.232
22035W        W91916  28.452   1.898  14.933
22036W        W91917   1.949  22.182  14.816
22037W        W91918  20.089  39.043  14.789
22038W        W91919   2.913  39.001  12.427
22039W        W91920  35.374  17.096   3.719
22040W        W91921  19.263  26.977  13.974
22041W        W91922  37.420  43.901  12.544
22042W        W91923  26.000  36.872  12.015
22043W        W91924  22.104  33.101  12.400
22044W        W91925  39.900  15.783   1.703
22045W        W91926   3.346   2.392   1.797
22046W        W91927  27.133  17.721   0.893
22047W        W91928  30.163  13.636  13.492
22048W        W91929  34.110   3.313  14.393
22049W        W91930  34.538  37.481   2.224
22050W        W91931  14.111  35.533  12.929
22051W        W91932  40.813  26.466  11.530
22052W        W91933  33.016  11.193  13.462
22053W        W91934   0.386  43.811   0.806
22054W        W91935  30.445  38.477  13.307
22055W        W91936  10.876  28.472  14.480
22056W        W91937   9.247  36.420   3.766
22057W        W91938  25.125   6.241   3.363
22058W        W91939   0.972  28.617  12.457
22059W        W91940  14.639  10.296  13.849
22060W        W91941  14.722   7.193  12.482
22061W        W91942   3.710   4.803  13.858
22062W        W91943  32.053  23.622  12.826
22063W        W91944  24.601  28.069  14.289
22064W        W91945   8.876  14.113  12.866
22065W        W91946  28.112  28.601  12.436
22066W        W91947  42.365  15.643  12.024
22067W        W91948  28.066  33.508   0.325
22068W        W91949  19.547  29.941  12.876
22069W        W91950   1.352  38.040   4.627
22070W        W91951  20.162   3.225   4.837
22071W        W91952  36.487  31.096   2.813
22072W        W91953  18.091  13.727  10.577
22073W        W91954  17.618  18.067   4.158
22074W        W91955   9.188  42.008  13.481
22075W        W91956  16.223  39.026  12.063
22076W        W91957  11.237  19.203   5.652
22077W        W91958  32.957  42.479  10.557
22078W        W91959  25.638  42.958  14.961
22079W        W91960   2.388  35.563   2.853
22080W        W91961  39.874  27.135  10.912
22081W        W91962  30.507   5.885  11.006
22082W        W91963  21.022   7.896  14.961
22083W        W91964  29.011  19.583  13.035
22084W        W91965  36.505   3.217   4.166
22085W        W91966   2.408  43.816  14.814
22086W        W91967  38.878  30.132   2.878
22087W        W91968  31.979  19.617  10.608
22088W        W91969  11.807   2.361  12.870
22089W        W91970   5.283  33.461  12.886
22090W        W91971  18.291   3.827   2.837
22091W        W91972  28.116  35.534   4.761
22092W        W91973  33.600  41.957   2.901
22093W        W91974  36.545  38.069   1.927
22094W        W91975  30.018  18.211   2.680
22095W        W91976  40.948  37.383   0.727
22096W        W91977  17.721  39.369  13.839
22097W        W91978  21.086  23.146  14.963
22098W        W91979  19.674  36.464  12.948
22099W        W91980  21.143  42.426  12.493
22100W        W91981   5.237   5.341  13.436
22101W        W91982  40.990  39.836  14.386
22102W        W91983  24.179  35.934  14.023
22103W        W91984  19.564  37.065   4.662
22104W        W91985   6.916  41.960  11.586
22105W        W91986  16.742   6.391  14.432
22106W        W91987  30.552  13.236  14.803
22107W        W91988  35.386   9.780   2.417
22108W        W91989  19.730  30.943  11.039
22109W        W91990  23.999  27.543  10.901
22110W        W91991  12.275  42.419  11.485
22111W        W91992  17.709  41.867  10.458
22112W        W91993  19.228  22.512   0.954
22113W        W91994   3.375  36.939  10.574
22114W        W91995  15.150  37.982  12.925
22115W        W91996   6.419  42.812  13.358
22116W        W91997  41.859  19.581  11.107
22117W        W91998   9.319   4.304  12.036
22118W        W91999  17.276  35.064   3.864
22119W        W92000   9.860  19.169   0.771
22120W        W92001  41.814  34.441   0.931
22121W        W92002   6.265  31.949   0.913
22122W        W92003  34.105  15.684   0.935
22123W        W92004  38.398  41.457   1.306
22124W        W92005  20.147  37.021   1.712
22125W        W92006  35.950  39.340  12.993
22126W        W92007  38.908  32.603   1.297
22127W        W92008  40.390  26.625  10.473
22128W        W92009  21.541  40.462   0.911
22129W        W92010  14.741   4.856   0.316
22130W        W92011  16.753  36.990  11.940
22131W        W92012  42.386  22.619   4.263
22132W        W92013  18.144  29.052  11.520
22133W        W92014  37.850  16.658  11.375
22134W        W92015  40.354  36.044  13.508
22135W        W92016   2.770  14.755  10.464
22136W        W92017  35.050   1.903  12.002
22137W        W92018  37.992   8.310  12.947
22138W        W92019   7.905  44.375  10.604
22139W        W92020   3.934  40.026  13.374
22140W        W92021  27.588  18.104  10.495
22141W        W92022  17.120   2.432  14.422
22142W        W92023  27.617  42.494  12.013
22143W        W92024   7.912   5.356  11.028
22144W        W92025   8.295  26.551  10.007
22145W        W92026  40.380  28.148  11.403
22146W        W92027  28.649  21.703  13.461
22147W        W92028  15.204  37.869  11.032
22148W        W92029  21.135  30.922   0.265
22149W        W92030  29.961   3.311  11.987
22150W        W92031  38.397  17.156  13.421
22151W        W92032   0.950   9.311  12.094
22152W        W92033  38.029  26.640   4.336
22153W        W92034  26.189  33.404  13.511
22154W        W92035  15.754  33.519   3.751
22155W        W92036  13.704  24.692   1.213
22156W        W92037  14.157   6.680  14.393
22157W        W92038   5.396  13.667   1.312
22158W        W92039   1.871   1.284   2.302
22159W        W92040  31.908  21.235   0.285
22160W        W92041  30.619   7.218  10.617
22161W        W92042  14.673  16.664   9.985
22162W        W92043  16.315  34.561  10.480
22163W        W92044   9.394  22.565  14.923
22164W        W92045  28.934  20.620  12.927
22165W        W92046  11.793  41.309  12.051
22166W        W92047  18.190   9.383  11.456
22167W        W92048  28.595  18.686   2.372
22168W        W92049   8.206  28.020  12.063
22169W        W92050  32.022  15.328   0.869
22170W        W92051  13.815  38.015  12.948
22171W        W92052  34.006  38.570   2.405
22172W        W92053  31.932  33.042  12.850
22173W        W92054  32.398  25.156   5.281
22174W        W92055  13.222   5.224  12.019
22175W        W92056  34.414  14.597  10.487
22176W        W92057  19.645  31.550  14.494
22177W        W92058  21.078   9.273   3.848
22178W        W92059  34.989  27.169   1.761
22179W        W92060  17.645  16.766   3.211
22180W        W92061  14.704  19.184   2.238
22181W        W92062  41.475  43.994   3.671
22182W        W92063  36.860  40.309   1.699
22183W        W92064  25.584  27.636   1.253
22184W        W92065  39.489   1.389   4.268
22185W        W92066  19.215  13.695  12.539
22186W        W92067  22.532  39.825  10.975
22187W        W92068  33.971  38.075  11.999
22188W        W92069  40.974   0.283  13.994
22189W        W92070  39.519  15.683   4.642
22190W        W92071  35.059   2.285   2.673
22191W        W92072  11.736  24.087   0.918
22192W        W92073  31.543  32.013  14.804
22193W        W92074  14.239  25.545  12.896
22194W        W92075  15.086  33.442   3.793
22195W        W92076  44.932  30.062   1.862
22196W        W92077  26.091   9.378  13.477
22197W        W92078  20.615  32.430   1.803
22198W        W92079  19.535  27.025   4.138
22199W        W92080  13.332  21.204   1.450
22200W        W92081  29.105   5.298  13.430
22201W        W92082  23.606  39.395   2.343
22202W        W92083  10.703  42.847  12.096
22203W        W92084  37.964  22.737   1.236
22204W        W92085  28.952  38.996  13.453
22205W        W92086   4.277  43.875  11.960
22206W        W92087  20.626  32.409   2.835
22207W        W92088  18.252  19.074   0.766
22208W        W92089  19.062   1.944  11.882
22209W        W92090  44.282  35.967   2.868
22210W        W92091  38.029  24.983  11.001
22211W        W92092   4.732  27.587  11.957
22212W        W92093  15.731   4.740   4.789
22213W        W92094   8.758  34.913   0.367
22214W        W92095  44.326  17.749   1.218
22215W        W92096  37.452   5.748  12.022
22216W        W92097  10.875  26.464  12.991
22217W        W92098  21.730  24.090   0.871
22218W        W92099  12.166  33.526   0.836
22219W        W92100  22.610   6.859  13.544
22220W        W92101  13.336   3.925  14.825
22221W        W92102  30.121   0.480  10.951
22222W        W92103  37.021  44.009  13.943
22223W        W92104  38.959  41.827   3.236
22224W        W92105  14.614  22.586  12.095
22225W        W92106  12.751  28.090  13.313
22226W        W92107  10.201  15.161  14.515
22227W        W92108  22.570   2.308   0.905
22228W        W92109  21.742  13.746  14.880
22229W        W92110  21.732  31.625  10.406
22230W        W92111  26.186  27.459   3.656
22231W        W92112   8.273   7.775   0.902
22232W        W92113  34.904  28.678  13.491
22233W        W92114  10.870  19.755  14.881
22234W        W92115  22.647   1.955   2.899
22235W        W92116   6.328   8.858   3.188
22236W        W92117  29.960  20.197  13.053
22237W        W92118  41.991  17.656  13.944
22238W        W92119  23.593  21.237   4.330
22239W        W92120  21.676   2.229  11.399
22240W        W92121   8.680  41.977  13.004
22241W        W92122  29.043  27.101   0.766
22242W        W92123  37.832  20.156  13.965
22243W        W92124  29.929  37.498   1.314
22244W        W92125  11.365   3.377   0.436
22245W        W92126  35.896  42.824  14.443
22246W        W92127   5.818   8.299  12.345
22247W        W92128  19.140  37.998  12.537
22248W        W92129  32.594  41.326   4.180
22249W        W92130  37.533  18.584   4.314
22250W        W92131  41.006  38.850  12.536
22251W        W92132  16.279  42.949  12.347
22252W        W92133   3.782  28.118   1.861
22253W        W92134  39.362  34.395  12.363
22254W        W92135  34.090  14.295   0.269
22255W        W92136  18.052  16.756  14.987
22256W        W92137   0.358  16.229   1.354
22257W        W92138  25.014  20.590  12.570
22258W        W92139  24.039  34.096  13.915
22259W        W92140  21.542   9.869  12.579
22260W        W92141  19.677  42.509  14.296
22261W        W92142   0.300  19.227  10.961
22262W        W92143   6.762   5.911  10.934
22263W        W92144  16.748  33.410  11.956
22264W        W92145  43.334  34.002   2.253
22265W        W92146  17.576  33.464  11.524
22266W        W92147  33.385  15.805  11.983
22267W        W92148  30.114  27.540  14.327
22268W        W92149   4.308  24.624   1.381
22269W        W92150  32.929  10.254  11.043
22270W        W92151  11.358  17.281   1.323
22271W        W92152   2.778  28.968  11.013
22272W        W92153   3.756  38.404  12.003
22273W        W92154  12.855  20.652  14.841
22274W        W92155  39.543   2.268  13.904
22275W        W92156   5.435   1.295   3.808
22276W        W92157  38.522  14.102  12.858
22277W        W92158  37.448  27.120  11.545
22278W        W92159  29.086   1.252   3.335
22279W        W92160   8.873  18.221  11.559
22280W        W92161  31.979  18.161  11.564
22281W        W92162  22.172  32.410  12.494
22282W        W92163  20.041  21.116   4.711
22283W        W92164  29.460  39.434  13.794
22284W        W92165  15.123   2.893  12.578
22285W        W92166  17.666  41.894  14.943
22286W        W92167  31.122  39.445   2.341
22287W        W92168  31.445  28.600  13.061
22288W        W92169  11.343   6.396  14.968
22289W        W92170   9.376  24.603  11.561
22290W        W92171   0.802  30.094  10.889
22291W        W92172   9.676  24.545  11.390
22292W        W92173  28.142  24.605  13.376
22293W        W92174  26.621  10.670  12.370
22294W        W92175  12.675  24.664  11.875
22295W        W92176  43.876  20.269  11.439
22296W        W92177  37.070  25.192   3.343
22297W        W92178  27.653   4.222  13.428
22298W        W92179  18.251  33.886   1.232
22299W        W92180  14.225  20.657  14.814
22300W        W92181   0.800  31.110   1.363
22301W        W92182  37.414   9.189  11.999
22302W        W92183  29.488  32.925   2.742
22303W        W92184  32.073  44.880   0.325
22304W        W92185   6.243  41.467   3.206
22305W        W92186  12.818  30.594   2.283
22306W        W92187   6.882   4.887  11.069
22307W        W92188  37.978  42.894   5.193
22308W        W92189  35.415  19.048  11.559
22309W        W92190  41.434  36.090   4.782
22310W        W92191  29.554  11.179   3.670
22311W        W92192  44.437  30.549  11.026
22312W        W92193   8.751  37.881  14.759
22313W        W92194  28.679  14.188  11.955
22314W        W92195   5.243  20.126  12.868
22315W        W92196  11.155  17.189   1.708
22316W        W92197   1.260  38.826  14.327
22317W        W92198  11.839  16.097  11.504
22318W        W92199   1.244  39.438  13.892
22319W        W92200  27.557  26.096   3.820
22320W        W92201  33.038  39.479  10.577
22321W        W92202  40.919  17.634   2.830
22322W        W92203  18.674  43.509  12.824
22323W        W92204  27.995  40.314  13.061
22324W        W92205   6.898   0.939   4.131
22325W        W92206  28.501   4.408  12.988
22326W        W92207   0.828  44.494   2.391
22327W        W92208  35.938   3.245   3.767
22328W        W92209  29.548  30.539  11.504
22329W        W92210  23.544  42.023  14.477
22330W        W92211  28.076  31.518   4.635
22331W        W92212  29.464  20.701  14.438
22332W        W92213  37.478   2.412   2.760
22333W        W92214  15.091  13.808  13.965
22334W        W92215  41.402   7.317  13.547
22335W        W92216  39.499   6.862   3.666
22336W        W92217  42.427  31.495  14.318
22337W        W92218  43.309  35.408  14.024
22338W        W92219  13.638  35.046  13.435
22339W        W92220  17.070  29.043   0.728
22340W        W92221  27.131  12.712  11.079
22341W        W92222  15.786  32.585   1.758
22342W        W92223  36.869  22.507  12.467
22343W        W92224  19.651  14.214   3.821
22344W        W92225  18.094   2.822  14.780
22345W        W92226   6.870  37.574   4.211
22346W        W92227  16.613  34.894  13.446
22347W        W92228  35.053   1.743  13.004
22348W        W92229  19.607   4.366  12.886
22349W        W92230  35.876   1.312   4.755
22350W        W92231  14.722  20.639  12.516
22351W        W92232  16.722  43.945   2.676
22352W        W92233  32.004  43.429  12.473
22353W        W92234  22.013  12.199   1.739
22354W        W92235  31.639  19.107  14.386
22355W        W92236  14.648   5.337   4.628
22356W        W92237   1.840  16.090  13.454
22357W        W92238  41.516  33.383  13.915
22358W        W92239  44.011   6.734  10.596
22359W        W92240   8.677  16.120   2.354
22360W        W92241  16.291  36.940   3.786
22361W        W92242  44.003  41.804  14.815
22362W        W92243  37.873  37.381  13.324
22363W        W92244  23.208  29.959   0.420
22364W        W92245   9.884  38.892   2.740
22365W        W92246   0.745  14.256  10.605
22366W        W92247  26.481  34.598   0.756
22367W        W92248  23.074  38.932   2.290
22368W        W92249  20.714  42.956   2.861
22369W        W92250  35.433  18.732   4.205
22370W        W92251   7.676  41.447  12.047
22371W        W92252  28.639  13.336  10.153
22372W        W92253  37.867   3.921  14.778
22373W        W92254  25.059   1.470   4.191
22374W        W92255  15.164  36.032   3.286
22375W        W92256  28.612  16.128  10.964
22376W        W92257  20.092  21.231   5.085
22377W        W92258  37.431  16.604  11.609
22378W        W92259  42.942  42.974   3.766
22379W        W92260   9.686  42.457   4.776
22380W        W92261  20.667  18.251   0.423
22381W        W92262  11.710  20.537   0.928
22382W        W92263  17.103  30.103  12.987
22383W        W92264   6.704  30.034  11.487
22384W        W92265  19.598  32.575  12.830
22385W        W92266  11.724  43.896   0.897
22386W        W92267  26.645   3.317   2.884
22387W        W92268  22.074  20.667   4.210
22388W        W92269  43.939  16.210  12.429
22389W        W92270  21.555  37.980   3.294
22390W        W92271  37.422  27.004   3.268
22391W        W92272  40.045   9.177  10.893
22392W        W92273  22.573  34.406  13.011
22393W        W92274  41.437  40.416  11.567
22394W        W92275  26.693   7.862   2.340
22395W        W92276  40.316   1.266   1.357
22396W        W92277  19.735   8.214  13.957
22397W        W92278   7.182  41.858  11.015
22398W        W92279  41.924  17.608  12.480
22399W        W92280  21.181  10.225  14.888
22400W        W92281  44.439  15.310   4.165
22401W        W92282  31.414   1.972  12.420
22402W        W92283   5.280  32.612  10.917
22403W        W92284  22.615  13.641   1.265
22404W        W92285  33.039   4.424  10.621
22405W        W92286  11.274  44.771   1.432
22406W        W92287  34.375   3.885   0.800
22407W        W92288  20.056   0.963  11.984
22408W        W92289  31.904   9.372   2.835
22409W        W92290  25.981  21.692   1.418
22410W        W92291  18.731  24.712   3.747
22411W        W92292  12.707  14.739   2.265
22412W        W92293   3.334  39.376   4.115
22413W        W92294   4.232   3.260   0.808
22414W        W92295  41.811   1.267   2.191
22415W        W92296  37.553  44.901   3.225
22416W        W92297  43.386  21.562   4.784
22417W        W92298  38.840  23.049   0.430
22418W        W92299  29.425   2.414   4.601
22419W        W92300  27.574  13.769  12.963
22420W        W92301  41.964   5.224  11.973
22421W        W92302  39.952  23.175  11.110
22422W        W92303   5.247  23.130   2.839
22423W        W92304  29.630  10.183   2.675
22424W        W92305  43.455   5.230  14.788
22425W        W92306  23.624  25.598   4.129
22426W        W92307  34.413  36.586  13.925
22427W        W92308   1.320  36.032   2.340
22428W        W92309  34.017  12.685   3.680
22429W        W92310  42.897   2.934   4.655
22430W        W92311  13.638  33.067   3.786
22431W        W92312  43.869  29.926  13.048
22432W        W92313  27.585  20.127  11.520
22433W        W92314  24.999  14.299   3.274
22434W        W92315  21.645  27.092   2.229
22435W        W92316   2.328  38.981  10.897
22436W        W92317  10.289  36.566   2.368
22437W        W92318  12.218  43.014   2.888
22438W        W92319  30.441  30.045  13.792
22439W        W92320   4.832  31.536  14.417
22440W        W92321  15.176  37.057  14.456
22441W        W92322  16.088   1.321  12.051
22442W        W92323  33.530  27.136  14.359
22443W        W92324  18.093  19.575  10.577
22444W        W92325  36.871   0.477   2.874
22445W        W92326  14.213  38.464   1.381
22446W        W92327  10.647  13.630   4.179
22447W        W92328  37.865   7.765  10.565
22448W        W92329   4.854   5.218   1.319
22449W        W92330  18.272  35.540   3.782
22450W        W92331  18.162   7.733  11.875
22451W        W92332   6.695  32.942  11.990
22452W        W92333   3.751  30.027   2.226
22453W        W92334  44.758  30.460   0.803
22454W        W92335   9.783  11.762  11.933
22455W        W92336  17.561  34.411  13.457
22456W        W92337  11.827  41.291  10.608
22457W        W92338  27.653  24.626   2.246
22458W        W92339   8.174  19.256   2.222
22459W        W92340  37.952  28.526  13.420
22460W        W92341  36.870  29.435  10.438
22461W        W92342  21.249  21.673   1.306
22462W        W92343  11.776  34.552  12.578
22463W        W92344  20.087  22.593  14.817
22464W        W92345  38.060   2.346  13.859
22465W        W92346  18.555  44.999  11.866
22466W        W92347  15.252  38.351  12.502
22467W        W92348  42.295  32.550  14.505
22468W        W92349  41.851  10.817   1.784
22469W        W92350  39.017   2.397  12.526
22470W        W92351  11.679  34.882   4.158
22471W        W92352  37.394  10.360  14.833
22472W        W92353   4.737  27.124   1.442
22473W        W92354   8.285  37.422  11.883
22474W        W92355  28.459   8.724  11.129
22475W        W92356  16.311  41.496  12.007
22476W        W92357  36.458  23.041   4.708
22477W        W92358  16.683   7.222   1.400
22478W        W92359  27.063  11.253  14.924
22479W        W92360  14.741  16.287  14.000
22480W        W92361  10.750  39.488   1.291
22481W        W92362   9.653  16.266  14.311
22482W        W92363   1.475   0.260  10.556
22483W        W92364   4.222  21.558   3.192
22484W        W92365  13.813  24.652   1.777
22485W        W92366   0.903  35.993   3.215
22486W        W92367   9.712  18.690  13.035
22487W        W92368  23.037  17.166  14.453
22488W        W92369  26.978  16.809  13.874
22489W        W92370   4.931   7.224   0.373
22490W        W92371  24.002  29.986  13.911
22491W        W92372   1.821  14.256   4.676
22492W        W92373  16.743  22.141  14.856
22493W        W92374   3.337  10.144   2.286
22494W        W92375  34.403  24.688  11.923
22495W        W92376  30.944  44.779   4.680
22496W        W92377  40.928  36.069   4.301
22497W        W92378  35.025  13.804   1.335
22498W        W92379  32.629  34.916   4.725
22499W        W92380  42.508   2.846   3.774
22500W        W92381  41.378  30.636   4.247
22501W        W92382  39.514  22.614  10.985
22502W        W92383  37.526  21.258  14.381
22503W        W92384  16.601  11.186   0.354
22504W        W92385   9.723  33.567  14.811
22505W        W92386  21.218  22.634   1.319
22506W        W92387  26.081   8.272  10.414
22507W        W92388   0.324  13.178   0.324
22508W        W92389   6.786  14.107  13.985
22509W        W92390  22.237  41.937  14.471
22510W        W92391   2.362  11.667   3.166
22511W        W92392  34.057  12.290  11.484
22512W        W92393  15.777   2.264   0.271
22513W        W92394   5.772  26.152  11.068
22514W        W92395   8.288   2.289  11.875
22515W        W92396  24.188  34.374  10.001
22516W        W92397  39.936  33.580  14.454
22517W        W92398  27.061  24.650  11.898
22518W        W92399  14.816  32.445   0.453
22519W        W92400  40.807  33.481   1.232
22520W        W92401  19.608  43.444  11.110
22521W        W92402  40.329  17.693  12.823
22522W        W92403  43.978   0.828  10.943
22523W        W92404   5.856  15.200  10.416
22524W        W92405  34.587  17.099   1.267
22525W        W92406  38.002  12.849   3.216
22526W        W92407  15.704  40.837   4.147
22527W        W92408  44.304  28.932   2.702
22528W        W92409   1.396  21.023   3.214
22529W        W92410  33.937  10.219  12.868
22530W        W92411  28.046   4.208  12.955
22531W        W92412  37.426  13.174   1.928
22532W        W92413  20.537  42.363   3.688
22533W        W92414  29.601  11.748  12.420
22534W        W92415  26.548  38.833  12.387
22535W        W92416  33.105  25.647   4.782
22536W        W92417   8.316   2.839   2.684
22537W        W92418  38.925  28.993   9.990
22538W        W92419  18.224   8.179  11.005
22539W        W92420  22.562  33.042   2.827
22540W        W92421   7.798  19.574  10.112
22541W        W92422  41.313  42.329  13.060
22542W        W92423   1.356   0.361  11.980
22543W        W92424  32.065  13.609   1.718
22544W        W92425  15.086  18.146   2.664
22545W        W92426  29.963  33.581   4.732
22546W        W92427  40.439   4.447   1.273
22547W        W92428  28.551  14.797   1.916
22548W        W92429  29.982  41.511   4.124
22549W        W92430   7.682  18.644   2.827
22550W        W92431   2.784  32.511   4.321
22551W        W92432   3.883  35.095  12.861
22552W        W92433  25.205  25.006  12.078
22553W        W92434   4.212  20.094  12.091
22554W        W92435  26.495   1.373   3.677
22555W        W92436  17.103  41.292   9.981
22556W        W92437   6.197  14.663  13.421
22557W        W92438  25.049  13.144   2.391
22558W        W92439   8.670  33.480   3.763
22559W        W92440  18.734  21.232   1.341
22560W        W92441  12.817  21.636   3.769
22561W        W92442  17.758  29.108  10.555
22562W        W92443  29.019  11.835   2.778
22563W        W92444  25.560   2.280  10.937
22564W        W92445  39.548  42.825  12.421
22565W        W92446  24.031  34.019   1.384
22566W        W92447   7.859  41.897  10.909
22567W        W92448  32.110  15.127   1.784
22568W        W92449  43.840  40.465  14.011
22569W        W92450  15.819  20.761  14.514
22570W        W92451   1.472   4.293   0.278
22571W        W92452   5.301   9.741   2.803
22572W        W92453   3.413  25.541   4.667
22573W        W92454  23.561   9.168   1.255
22574W        W92455   2.346   1.829  12.833
22575W        W92456   1.801   7.387  13.055
22576W        W92457  41.325  43.894   0.833
22577W        W92458  11.799  18.078   0.269
22578W        W92459  32.926  12.270  10.423
22579W        W92460  25.218  26.603  13.481
22580W        W92461  24.615  33.898   1.719
22581W        W92462  40.479  15.724  14.279
22582W        W92463  12.245   2.800   1.446
22583W        W92464   2.426  22.093  14.877
22584W        W92465  36.009  31.141  12.361
22585W        W92466   2.349  16.287   2.404
22586W        W92467  30.415   1.805  14.002
22587W        W92468  39.041   2.759  10.911
22588W        W92469   4.756  43.972  11.537
22589W        W92470   2.818  14.638  14.827
22590W        W92471  13.781   3.913  13.516
22591W        W92472  31.528  15.296  13.459
22592W        W92473  13.171  17.182  14.002
22593W        W92474  17.774  10.151   4.322
22594W        W92475   3.251   5.771  12.042
22595W        W92476  26.544  39.453   5.213
22596W        W92477  14.130   8.281  12.083
22597W        W92478  43.451  41.928   1.865
22598W        W92479  17.108  32.627  10.470
22599W        W92480  42.321   6.292   4.800
22600W        W92481  11.328  28.044  10.497
22601W        W92482   5.708  43.868   0.425
22602W        W92483   1.746  19.777  14.487
22603W        W92484  40.041  20.524   1.740
22604W        W92485  36.409  31.031   3.840
22605W        W92486  12.292   0.280   0.913
22606W        W92487  21.715  10.746   4.244
22607W        W92488  34.048  12.749  11.082
22608W        W92489  28.613   3.881   2.248
22609W        W92490  21.079  15.709  10.558
22610W        W92491   3.788  30.491   0.855
22611W        W92492  29.961   7.362   3.784
22612W        W92493   4.763  21.255  13.518
22613W        W92494  24.009  34.061   4.131
22614W        W92495  26.192  13.105   0.462
22615W        W92496  43.457   8.396  13.410
22616W        W92497  16.184  12.823   2.799
22617W        W92498  38.867  18.283   1.269
22618W        W92499  16.288  43.908  10.557
22619W        W92500  35.921  39.416   1.380
22620W        W92501  25.055   5.877   1.862
22621W        W92502  39.320  41.306   4.215
22622W        W92503  12.262  40.530   4.124
22623W        W92504  20.593  43.279  14.439
22624W        W92505  33.521  40.045  10.049
22625W        W92506  41.404  10.683  14.849
22626W        W92507  41.837  20.726   4.114
22627W        W92508  22.666   0.481   0.455
22628W        W92509  22.083  42.876   3.854
22629W        W92510  24.123  33.097   0.341
22630W        W92511   9.801   4.379   4.331
22631W        W92512   5.799  44.328  12.020
22632W        W92513  41.531  28.121   2.798
22633W        W92514  28.566  28.499   1.333
22634W        W92515  40.310  34.004   0.460
22635W        W92516   2.724   0.276  11.581
22636W        W92517   0.433   2.358  12.552
22637W        W92518   7.811  22.505   3.187
22638W        W92519   6.207  19.538   1.863
22639W        W92520  11.324  34.425   1.260
22640W        W92521  13.765  40.011  14.312
22641W        W92522  44.485  33.540   4.254
22642W        W92523  33.932  37.444   0.777
22643W        W92524  28.009  10.841  12.836
22644W        W92525  14.277  10.677  14.782
22645W        W92526  27.471  35.442  10.586
22646W        W92527  24.627  20.551  12.087
22647W        W92528   5.308  39.849   4.223
22648W        W92529  36.964  29.504   0.434
22649W        W92530  31.140   2.266   1.357
22650W        W92531  42.343  11.289   2.885
22651W        W92532   2.886  29.050   4.229
22652W        W92533  20.574  24.566   4.178
22653W        W92534  22.546   1.464  14.966
22654W        W92535  44.913  40.513  12.397
22655W        W92536  14.162  42.015  13.532
22656W        W92537  26.671   0.430  12.437
22657W        W92538  23.026  42.785  13.043
22658W        W92539  44.987  44.433  11.973
22659W        W92540  15.590  29.505  13.804
22660W        W92541  14.717  22.673  14.812
22661W        W92542  35.391  14.127   2.195
22662W        W92543  10.250  14.797  14.497
22663W        W92544  43.017  36.421   3.160
22664W        W92545  36.472  43.394   2.747
22665W        W92546  28.147  11.759   4.225
22666W        W92547  15.225   5.264   0.735
22667W        W92548  29.127  13.749  14.379
22668W        W92549  38.827  21.559   4.120
22669W        W92550  13.722  22.228   4.146
22670W        W92551  27.473  27.496   3.276
22671W        W92552   8.806  32.478   2.813
22672W        W92553  44.978  22.555  11.525
22673W        W92554  28.554  38.412   2.823
22674W        W92555  31.445  15.613  10.911
22675W        W92556  19.077  26.640   1.698
22676W        W92557  27.970  15.791  10.910
22677W        W92558  43.793  10.366  14.485
22678W        W92559   7.673   8.694  13.528
22679W        W92560  19.629   3.885  10.918
22680W        W92561  34.567  39.331  14.297
22681W        W92562   4.890   6.809  11.522
22682W        W92563  42.999  44.881   2.311
22683W        W92564  33.475  17.599  12.453
22684W        W92565   1.250   9.382  11.082
22685W        W92566  18.182  34.030   0.903
22686W        W92567  40.456   9.769  14.764
22687W        W92568  36.894  41.505  11.120
22688W        W92569  22.504  23.570   0.298
22689W        W92570  19.657  27.642   1.371
22690W        W92571  27.508   7.394   0.419
22691W        W92572  12.750  11.691  12.526
22692W        W92573  21.704  38.843   2.403
22693W        W92574  37.570   3.712  13.486
22694W        W92575  11.174  37.085   0.387
22695W        W92576  27.175  37.915   4.143
22696W        W92577   3.854  15.084   3.172
22697W        W92578   4.866  43.941   4.353
22698W        W92579  29.956  19.084  13.438
22699W        W92580   1.484   2.338   3.698
22700W        W92581  24.678  17.196  12.008
22701W        W92582  16.215   7.686  12.342
22702W        W92583  27.150  18.174   2.187
22703W        W92584   8.371  44.448  13.970
22704W        W92585  27.498   1.822   3.800
22705W        W92586  28.481  37.435  14.306
22706W        W92587  20.579  29.508  10.968
22707W        W92588   3.283  44.963  12.936
22708W        W92589  11.366  30.103  13.390
22709W        W92590  20.642  25.193   4.636
22710W        W92591  21.515  14.679   2.822
22711W        W92592   3.302   6.848   4.184
22712W        W92593  23.169  14.237   3.682
22713W        W92594  35.061  38.842   5.152
22714W        W92595  19.618  38.976  12.463
22715W        W92596  23.058  11.315   0.330
22716W        W92597   6.923   8.808  10.629
22717W        W92598  33.618  42.872   5.104
22718W        W92599  17.276  37.854  13.860
22719W        W92600   2.898  14.200   4.116
22720W        W92601   2.467  39.357   1.216
22721W        W92602  28.542   7.792  14.507
22722W        W92603  32.037  13.706  11.860
22723W        W92604   7.229  32.503  11.383
22724W        W92605  42.513  42.433   4.757
22725W        W92606   9.758  21.673   1.698
22726W        W92607   8.763  40.420   0.751
22727W        W92608  34.981  22.633  11.090
22728W        W92609  18.221  40.045   0.306
22729W        W92610  36.459   8.771   1.766
22730W        W92611   0.976  20.043   4.307
22731W        W92612  31.023  17.632  14.282
22732W        W92613  30.128  26.968  12.829
22733W        W92614  24.632  14.704  10.553
22734W        W92615  25.655  29.072  11.085
22735W        W92616   9.751  31.139   4.137
22736W        W92617   2.318  14.685  13.312
22737W        W92618  26.531  14.778   1.357
22738W        W92619  13.308  24.992   2.791
22739W        W92620  20.759  29.110   0.319
22740W        W92621  30.635  37.019  11.442
22741W        W92622   7.873  31.483   2.872
22742W        W92623  26.485  33.910  14.935
22743W        W92624  41.970  33.458  13.963
22744W        W92625  12.165  13.810   0.457
22745W        W92626   7.768   7.777  13.847
22746W        W92627   6.194  29.096  14.299
22747W        W92628  15.209  31.919   1.935
22748W        W92629  29.538   8.660  11.544
22749W        W92630  29.624  42.941   1.325
22750W        W92631   6.291  19.151  12.967
22751W        W92632  25.703   8.322   0.434
22752W        W92633  42.000  20.163  13.972
22753W        W92634  34.095   0.423  14.875
22754W        W92635  17.769   7.911  12.445
22755W        W92636   9.689  38.326  14.010
22756W        W92637   2.849  16.766  14.798
22757W        W92638  42.304  44.783   2.279
22758W        W92639   4.305  10.863   0.251
22759W        W92640  15.116  44.830  12.494
22760W        W92641  38.330  34.565  12.466
22761W        W92642   0.374  16.625  10.635
22762W        W92643  31.019  36.588   4.346
22763W        W92644   1.252  25.565  13.048
22764W        W92645  38.872  16.107   3.224
22765W        W92646  26.134   0.279   0.761
22766W        W92647  31.966  42.901  12.870
22767W        W92648  33.426  38.828  11.418
22768W        W92649  42.399   1.827   1.337
22769W        W92650  21.737  18.072  10.930
22770W        W92651  26.023  16.148  12.964
22771W        W92652  33.563  37.839  13.537
22772W        W92653  36.467  36.470  13.981
22773W        W92654  32.541  18.721   4.167
22774W        W92655   9.340  12.725  12.963
22775W        W92656  44.376   8.682  12.062
22776W        W92657   2.452  19.708  12.981
22777W        W92658  29.160  39.057  10.635
22778W        W92659  17.750  29.576  13.393
22779W        W92660  16.624  24.979  14.935
22780W        W92661  30.591  24.501   1.821
22781W        W92662   3.302   6.788  14.860
22782W        W92663  38.912  32.060   3.310
22783W        W92664  31.533  25.985   0.333
22784W        W92665  44.964  34.055   3.203
22785W        W92666  18.272  12.227  11.598
22786W        W92667  19.692  29.933   4.339
22787W        W92668  10.293  23.578  10.513
22788W        W92669  12.672  12.838   4.709
22789W        W92670   6.706  20.743   4.115
22790W        W92671  30.025  10.254  14.987
22791W        W92672  41.481   1.774   4.348
22792W        W92673  16.797  11.784   4.353
22793W        W92674  34.568   1.958  14.888
22794W        W92675  16.196  44.477  10.149
22795W        W92676  31.600  41.913   4.653
22796W        W92677  22.034  11.678   4.186
22797W        W92678  41.962   2.880  12.082
22798W        W92679  22.511  41.952  11.097
22799W        W92680  30.480  21.029   1.392
22800W        W92681  27.514  25.567   1.854
22801W        W92682  39.968   0.395  12.881
22802W        W92683  34.439   6.811   3.630
22803W        W92684   6.304  33.958  12.966
22804W        W92685   1.433  38.346  12.437
22805W        W92686  41.519  29.538   0.256
22806W        W92687  11.813  34.613   2.208
22807W        W92688  43.013  12.759  11.041
22808W        W92689  14.620  24.093   0.943
22809W        W92690  42.919  28.542   2.364
22810W        W92691   0.760   2.937  10.636
22811W        W92692  13.112  22.602   0.303
22812W        W92693   5.214  35.860  11.930
22813W        W92694  23.994  21.564   1.900
22814W        W92695  38.004  40.449   4.794
22815W        W92696   0.359  40.873  14.771
22816W        W92697  28.498  31.622  12.852
22817W        W92698   2.895  30.136   0.361
22818W        W92699  34.900  20.569   3.247
22819W        W92700  39.546  43.497   2.411
22820W        W92701  25.676   8.322  13.970
22821W        W92702  37.514  26.652   0.476
22822W        W92703  18.062  28.943   1.280
22823W        W92704   1.483  29.523  10.998
22824W        W92705   3.451   8.362  14.429
22825W        W92706  37.899   1.449   3.284
22826W        W92707   3.409  26.173  11.934
22827W        W92708   2.840  35.009   1.382
22828W        W92709   5.730  40.477  12.876
22829W        W92710  31.964  12.726  14.358
22830W        W92711  33.968   8.187   2.223
22831W        W92712  21.240   8.888   1.928
22832W        W92713  11.232   9.717   4.267
22833W        W92714  10.667  10.872  13.953
22834W        W92715   1.952  34.525   4.246
22835W        W92716   9.752  26.105  14.285
22836W        W92717  43.928  33.901   1.743
22837W        W92718  32.419  30.914   4.189
22838W        W92719  26.010   8.749   2.695
22839W        W92720   5.315  39.899   0.391
22840W        W92721  20.594  28.629   3.687
22841W        W92722  35.932  32.050   0.247
22842W        W92723  31.973   5.245  11.041
22843W        W92724  40.976   9.661   3.289
22844W        W92725  24.197  21.263   5.225
22845W        W92726  15.795  19.585   0.307
22846W        W92727  33.980   0.333   3.803
22847W        W92728  36.027  29.160  11.056
22848W        W92729  39.442  37.528  12.469
22849W        W92730   3.217   3.395   4.727
22850W        W92731  10.316  28.603  12.857
22851W        W92732  28.177  40.888  14.278
22852W        W92733  41.479  41.834  12.546
22853W        W92734  17.242  24.717  13.469
22854W        W92735  38.438  23.141  13.850
22855W        W92736  17.068  16.319  14.504
22856W        W92737  36.434  31.986  11.859
22857W        W92738  36.469  38.568  10.949
22858W        W92739  34.417  15.648   0.906
22859W        W92740  44.337   1.239   4.689
22860W        W92741  31.964  11.798  12.500
22861W        W92742   2.415  10.204   0.308
22862W        W92743   8.214  17.600  12.409
22863W        W92744  11.836  16.116  14.282
22864W        W92745  19.766  42.504   4.348
22865W        W92746   7.800  25.677   3.313
22866W        W92747  35.071  16.291  12.092
22867W        W92748  24.193  40.992  12.824
22868W        W92749  39.006  35.591  13.979
22869W        W92750  10.151   9.156  13.436
22870W        W92751  17.214  37.832   0.353
22871W        W92752   2.247  21.754  11.597
22872W        W92753  11.139  35.579  13.402
22873W        W92754  14.152  21.199   3.156
22874W        W92755   7.859  39.364  10.950
22875W        W92756  34.520  15.150  11.874
22876W        W92757  27.599   7.786  13.047
22877W        W92758  22.022   1.382   4.270
22878W        W92759   6.707  17.239   0.884
22879W        W92760  10.305   3.457   0.439
22880W        W92761   3.278  15.779   0.304
22881W        W92762  44.921  18.284   0.870
22882W        W92763  15.633   6.868  12.527
22883W        W92764  15.715   3.397   1.312
22884W        W92765  40.846  21.254   1.773
22885W        W92766  14.817   0.747  13.529
22886W        W92767  37.445  21.570   1.400
22887W        W92768  11.669  42.932  12.348
22888W        W92769   7.222  22.103  13.878
22889W        W92770  15.811  44.970   4.793
22890W        W92771   7.813  41.998  10.624
22891W        W92772   7.244  21.032   2.321
22892W        W92773   8.243   2.290  12.958
22893W        W92774  42.488  39.374   4.615
22894W        W92775  35.987  20.559   1.821
22895W        W92776   9.815  33.963  14.456
22896W        W92777  22.545  26.143  12.007
22897W        W92778   6.320  23.620   0.322
22898W        W92779  39.936   5.907  11.124
22899W        W92780   4.819  13.622   3.247
22900W        W92781  14.775   7.352  13.460
22901W        W92782  32.423   1.839  12.019
22902W        W92783  31.412  15.759   2.896
22903W        W92784   3.794  42.401  13.873
22904W        W92785   8.235  18.654  14.972
22905W        W92786  42.444   7.753  13.913
22906W        W92787  40.409   9.877  11.465
22907W        W92788  20.601  38.939   4.607
22908W        W92789  21.731  15.820   2.225
22909W        W92790  34.562  22.071   3.359
22910W        W92791   2.325   5.760  14.960
22911W        W92792  41.872  35.511  12.859
22912W        W92793   0.343   6.891   4.308
22913W        W92794  25.597  11.285  10.968
22914W        W92795  14.772   9.887   3.829
22915W        W92796  39.821  11.326  12.401
22916W        W92797  18.194  18.579  14.323
22917W        W92798  26.479  27.087   0.840
22918W        W92799   1.919  43.863   1.722
22919W        W92800   0.465  41.519  11.587
22920W        W92801  40.314  40.540  12.983
22921W        W92802  36.460  26.609   9.995
22922W        W92803   2.471  29.142   9.924
22923W        W92804  39.389  20.171   2.838
22924W        W92805  10.157  37.969   3.658
22925W        W92806  14.698  34.612   3.330
22926W        W92807  44.824  37.526   3.350
22927W        W92808  28.489   2.773  11.588
22928W        W92809  14.677  29.069  11.874
22929W        W92810  21.199  37.429   1.239
22930W        W92811  39.412   7.190  12.433
22931W        W92812  20.114   8.729   3.249
22932W        W92813  31.569  26.515   3.314
22933W        W92814  36.948  29.509  14.483
22934W        W92815  17.788   4.787   4.701
22935W        W92816   4.231   9.820  11.506
22936W        W92817  15.126  14.185   4.280
22937W        W92818  35.955  19.546   3.308
22938W        W92819  17.624  17.579  10.938
22939W        W92820   8.380  38.471  13.548
22940W        W92821  36.485  14.695   4.322
22941W        W92822  40.883  16.635   4.298
22942W        W92823   6.389  37.483  11.067
22943W        W92824  29.658  10.337   3.803
22944W        W92825  34.906   4.344  13.803
22945W        W92826  24.114  22.094  10.479
22946W        W92827  28.563   9.153  13.396
22947W        W92828   0.398  42.814   1.729
22948W        W92829  22.633  36.071  14.329
22949W        W92830  33.927  42.777   3.783
22950W        W92831  32.093  44.838   4.721
22951W        W92832  16.198   5.275  12.025
22952W        W92833  16.649  43.284  10.423
22953W        W92834  22.599   5.236  14.028
22954W        W92835  14.653  39.973  14.320
22955W        W92836   0.793  32.961   0.948
22956W        W92837   9.325   3.743   2.784
22957W        W92838  20.233  37.504  13.444
22958W        W92839  23.615   1.278  13.923
22959W        W92840  38.443  23.641   0.844
22960W        W92841  31.573  34.932   1.440
22961W        W92842  13.153  14.186  10.095
22962W        W92843  19.053  41.985  13.443
22963W        W92844  22.518  13.243   1.372
22964W        W92845  10.182  23.675  13.845
22965W        W92846   7.402  39.879   4.126
22966W        W92847  31.093  23.990   1.709
22967W        W92848  38.542  24.544  14.818
22968W        W92849  43.339   4.725  10.042
22969W        W92850  10.837  36.061   0.915
22970W        W92851  29.609  31.063  13.354
22971W        W92852  35.378  40.398  13.896
22972W        W92853  20.532  23.568  14.293
22973W        W92854   9.235  41.338   0.460
22974W        W92855   8.655   9.672  12.069
22975W        W92856   8.818  32.454  11.101
22976W        W92857   6.908  12.785  13.510
22977W        W92858  21.604  37.937   2.827
22978W        W92859  15.319  37.878  10.060
22979W        W92860  19.634   9.651  12.534
22980W        W92861  17.714  27.085   4.233
22981W        W92862  12.319   4.324   2.765
22982W        W92863   7.897  13.710  11.012
22983W        W92864   4.830  22.091  13.044
22984W        W92865  36.947  18.085  14.495
22985W        W92866  10.811  24.566  11.426
22986W        W92867  33.042  37.478   3.320
22987W        W92868  11.241  11.267   0.730
22988W        W92869   0.485  18.787   2.761
22989W        W92870  38.396   4.231   1.394
22990W        W92871  25.540  35.857   4.627
22991W        W92872  44.863  30.558   1.845
22992W        W92873   8.693  12.340  12.834
22993W        W92874  13.280   5.798   4.354
22994W        W92875  10.769  11.789  12.850
22995W        W92876  29.596  36.857   2.418
22996W        W92877  39.978  40.887   4.205
22997W        W92878  10.298  18.167   4.701
22998W        W92879  36.531  38.437   2.338
22999W        W92880  40.512  27.470  11.073
23000W        W92881   6.729   6.352  11.467
23001W        W92882  15.312   7.769  13.398
23002W        W92883  24.067  38.961   0.867
23003W        W92884  25.509  29.428  13.441
23004W        W92885  25.039  17.272  13.519
23005W        W92886  40.825  19.696   4.241
23006W        W92887  33.948  21.648   0.260
23007W        W92888   5.377  31.407   4.163
23008W        W92889  43.777  33.935  10.917
23009W        W92890   3.735  44.274   3.293
23010W        W92891  34.428  38.495   4.119
23011W        W92892   1.772  23.012  14.381
23012W        W92893   5.889  11.715   0.834
23013W        W92894  13.602  25.113  12.883
23014W        W92895   3.875  17.185  13.835
23015W        W92896  42.361   8.299   4.736
23016W        W92897  29.107   5.778  14.016
23017W        W92898  33.085   1.910   4.728
23018W        W92899  26.998   2.750   1.872
23019W        W92900  10.184   5.422  12.832
23020W        W92901  15.652  41.039   0.293
23021W        W92902   6.684   9.276  10.952
23022W        W92903  11.845  17.603   0.914
23023W        W92904  44.439   4.773  11.437
23024W        W92905  41.515  37.504   5.159
23025W        W92906   9.245  43.274  14.862
23026W        W92907  11.653  24.655   2.325
23027W        W92908  36.937   9.800  13.935
23028W        W92909  22.142  30.976  13.900
23029W        W92910  14.231  23.588  12.089
23030W        W92911  22.132  16.649  14.814
23031W        W92912  44.852  43.949  12.866
23032W        W92913   2.743   0.874  11.583
23033W        W92914  18.239   1.247   2.341
23034W        W92915   7.243  16.763   0.778
23035W        W92916  32.925   3.220   4.188
23036W        W92917  41.462   8.336   4.186
23037W        W92918  31.109   5.734  13.877
23038W        W92919  30.424  26.185   1.888
23039W        W92920  21.192  36.089  10.023
23040W        W92921   3.444  26.535   2.400
23041W        W92922  27.574  14.203  11.563
23042W        W92923  29.617  22.186   1.797
23043W        W92924  30.160   6.247  10.475
23044W        W92925   8.683  16.660   0.956
23045W        W92926  21.199  37.957  14.822
23046W        W92927  15.224  33.098   1.896
23047W        W92928   2.827  20.231  14.766
23048W        W92929   9.198  39.015   3.821
23049W        W92930  21.553  44.803  10.635
23050W        W92931  24.208  35.908   2.789
23051W        W92932  31.598  18.277   4.148
23052W        W92933  16.604   2.791   2.687
23053W        W92934  16.191  13.813  12.517
23054W        W92935  19.554   7.701  10.480
23055W        W92936  40.544  42.821   0.740
23056W        W92937  12.202   7.802  13.914
23057W        W92938   8.248   3.942  14.409
23058W        W92939  33.038   8.755   0.862
23059W        W92940  25.036  37.581  13.844
23060W        W92941  24.073   2.881   3.355
23061W        W92942  28.524  30.962  13.978
23062W        W92943  20.753  28.442  11.499
23063W        W92944   5.415   1.314   2.313
23064W        W92945   2.826  35.527  14.487
23065W        W92946  26.550  37.889   1.268
23066W        W92947  26.503  21.132   1.867
23067W        W92948  18.246  29.580   5.177
23068W        W92949  41.013  17.078  10.913
23069W        W92950  27.183  22.545   1.912
23070W        W92951   1.475  42.317   3.785
23071W        W92952  39.333   7.200   3.797
23072W        W92953   2.941  14.679  12.945
23073W        W92954   9.161  36.051  12.975
23074W        W92955  24.538  25.702   4.236
23075W        W92956   3.227  32.442  13.463
23076W        W92957  28.095   7.208  13.518
23077W        W92958  41.921   9.381   0.341
23078W        W92959  41.293   4.426  12.918
23079W        W92960  35.586  16.292  11.488
23080W        W92961  39.865   8.340  12.904
23081W        W92962  27.581  16.120   1.450
23082W        W92963  20.264   7.189   3.158
23083W        W92964   2.329   9.279  11.879
23084W        W92965  23.110  18.260  11.399
23085W        W92966  34.556  42.998   2.820
23086W        W92967  14.807   2.365   2.224
23087W        W92968  44.967  13.310   0.917
23088W        W92969   0.420  34.418   2.202
23089W        W92970  21.515  36.087  13.525
23090W        W92971  13.689  13.625  12.522
23091W        W92972  14.174   7.890   3.164
23092W        W92973   8.691  13.112  11.978
23093W        W92974   6.841  12.683   4.782
23094W        W92975  17.730   9.382  12.473
23095W        W92976  18.175   2.850  12.860
23096W        W92977   3.813  10.296   4.671
23097W        W92978  23.703  33.516  11.959
23098W        W92979  40.853  31.548   4.300
23099W        W92980   4.714  32.913  10.962
23100W        W92981  27.511   9.687  12.452
23101W        W92982  30.099   3.270  14.456
23102W        W92983  20.213  16.767   2.378
23103W        W92984   6.362  14.717   2.316
23104W        W92985  34.615  28.555  10.617
23105W        W92986   8.378   5.710   0.307
23106W        W92987  18.593   5.306  11.506
23107W        W92988   2.463  43.275  10.983
23108W        W92989  36.935  33.382   4.315
23109W        W92990   0.918  20.245   0.777
23110W        W92991  39.514  33.962  13.855
23111W        W92992  14.339  12.740  13.880
23112W        W92993   5.243  15.746  14.946
23113W        W92994  15.772  13.659  14.795
23114W        W92995  13.331  43.434   1.840
23115W        W92996  29.423  15.795  14.974
23116W        W92997  44.282  16.097  12.542
23117W        W92998  12.667  33.127  12.866
23118W        W92999  15.823  16.711   2.305
23119W        W93000  39.949  15.277   2.395
23120W        W93001  31.982  11.347  11.511
23121W        W93002  39.418  15.321   4.301
23122W        W93003  13.629  11.150  14.831
23123W        W93004  30.006  39.343   4.791
23124W        W93005  29.593   9.263   1.924
23125W        W93006   9.331  19.698  14.798
23126W        W93007   1.294  11.639  11.900
23127W        W93008   1.311  11.344  10.978
23128W        W93009  14.253  38.994   9.957
23129W        W93010  36.459  16.124  12.444
23130W        W93011   9.720   6.324  14.910
23131W        W93012  29.014  23.079   0.413
23132W        W93013  32.915  28.534   4.265
23133W        W93014  12.711  34.927   4.203
23134W        W93015  16.594  14.746   0.304
23135W        W93016   6.732  30.045  11.044
23136W        W93017  18.782  12.816  13.027
23137W        W93018   4.941  29.654   4.795
23138W        W93019  34.949  27.973   4.615
23139W        W93020  44.313  28.582  12.946
23140W        W93021  21.023  17.191   3.201
23141W        W93022  39.855  21.547  13.502
23142W        W93023  13.799  37.402  11.388
23143W        W93024  25.134  11.840   4.226
23144W        W93025  39.865  38.044  14.897
23145W        W93026  37.917  14.268   3.193
23146W        W93027   5.336  30.984  11.959
23147W        W93028   7.404   7.754   3.812
23148W        W93029  36.526   0.314  10.640
23149W        W93030   3.783   1.410   0.243
23150W        W93031  42.442  41.025   4.791
23151W        W93032  25.471  18.060   2.687
23152W        W93033  35.861  31.571   2.253
23153W        W93034  37.570  39.042  11.371
23154W        W93035  12.720  12.350  14.336
23155W        W93036  23.627   4.310   3.362
23156W        W93037  34.916  32.434   3.793
23157W        W93038  29.548  11.796  14.901
23158W        W93039  30.014  13.829  10.948
23159W        W93040  35.913  28.022   1.327
23160W        W93041  29.085   5.814   2.334
23161W        W93042  31.986  11.677   4.164
23162W        W93043  27.558  10.320  10.115
23163W        W93044  15.122  24.997   0.761
23164W        W93045  37.979  16.673   0.856
23165W        W93046   8.325  30.110   0.408
23166W        W93047  29.593  13.138  11.460
23167W        W93048  16.092   3.857   4.277
23168W        W93049  21.758  39.940  11.085
23169W        W93050  17.232   4.342  12.956
23170W        W93051  36.519  12.627   1.366
23171W        W93052   5.869  27.465   0.427
23172W        W93053  28.629   8.349   2.714
23173W        W93054  31.576  21.143  10.481
23174W        W93055  11.834   0.399   3.852
23175W        W93056  43.392  14.253   5.322
23176W        W93057   6.751  40.836   1.296
23177W        W93058  30.057  33.543  11.951
23178W        W93059  30.489  28.561   0.748
23179W        W93060  33.592   9.167  12.924
23180W        W93061  26.104  20.255   4.136
23181W        W93062  42.938  15.663  14.299
23182W        W93063  12.645   0.341  11.567
23183W        W93064  25.498  37.353   3.734
23184W        W93065   4.260  38.542   0.345
23185W        W93066  23.027  34.093   2.849
23186W        W93067  43.296  40.419   2.780
23187W        W93068  35.069   1.959   3.633
23188W        W93069   6.750  31.929  10.043
23189W        W93070  36.861  20.615   1.824
23190W        W93071  33.033  42.805  11.517
23191W        W93072  37.503  23.680  11.048
23192W        W93073   6.742  36.423   4.331
23193W        W93074  20.080  41.860   2.207
23194W        W93075   4.867  17.064   4.688
23195W        W93076   9.221  43.953  13.439
23196W        W93077  13.105  33.097  14.508
23197W        W93078  17.114   4.890   1.326
23198W        W93079  19.697  28.467   5.207
23199W        W93080   4.701  33.544  13.434
23200W        W93081  39.500   8.168   1.400
23201W        W93082  41.972  15.584   5.215
23202W        W93083  21.140  10.343  12.478
23203W        W93084  10.820  25.142   0.802
23204W        W93085  22.733   5.917  10.483
23205W        W93086   7.781  29.115   3.313
23206W        W93087  24.597   9.232   1.271
23207W        W93088  35.935  25.712  11.010
23208W        W93089  43.956  28.132  11.013
23209W        W93090  41.839  25.509  12.952
23210W        W93091  23.713  33.619   4.800
23211W        W93092  17.676  36.459  12.429
23212W        W93093  15.787  19.184   4.313
23213W        W93094  16.770  18.640  14.430
23214W        W93095  29.092   7.764  14.965
23215W        W93096  28.531  23.703  10.090
23216W        W93097   8.183   8.201  13.005
23217W        W93098   5.236  34.911   1.699
23218W        W93099  17.730  27.451  11.425
23219W        W93100   5.243  17.210  10.931
23220W        W93101  42.879  18.083   0.289
23221W        W93102  33.622  24.019  14.366
23222W        W93103   6.872  24.004   1.836
23223W        W93104   8.227  28.050   2.318
23224W        W93105  14.742  25.521   2.373
23225W        W93106  27.029  20.213  12.058
23226W        W93107  41.442  37.552   0.391
23227W        W93108  26.029  24.145   5.763
23228W        W93109  26.987  36.868   2.355
23229W        W93110  25.130  26.646   4.826
23230W        W93111  17.558   3.843  13.539
23231W        W93112  18.740   7.717  10.624
23232W        W93113  33.421  24.658  12.988
23233W        W93114  12.791  28.581   1.270
23234W        W93115  22.700  19.077   4.597
23235W        W93116  16.317   3.833   2.297
23236W        W93117   7.781   3.261   2.185
23237W        W93118  32.913  19.265  14.831
23238W        W93119  17.194  39.345  13.467
23239W        W93120  25.704  26.097  11.582
23240W        W93121   5.219  30.574  14.440
23241W        W93122   1.742  40.528   2.230
23242W        W93123  15.689  11.241   3.287
23243W        W93124   6.287  11.313  12.087
23244W        W93125  24.195  18.173  10.487
23245W        W93126  29.029  15.109  11.861
23246W        W93127  13.599   9.747  12.998
23247W        W93128  20.260  36.389  11.015
23248W        W93129  19.675  26.638  10.905
23249W        W93130  35.108  43.009  10.142
23250W        W93131   5.843  26.061   2.661
23251W        W93132  24.088  31.095  12.065
23252W        W93133  14.789  11.364  11.964
23253W        W93134   8.295  32.505   2.888
23254W        W93135  13.655  14.293   4.331
23255W        W93136   8.404   3.758  11.101
23256W        W93137  30.492  40.400  13.918
23257W        W93138  22.717   6.225   0.918
23258W        W93139  14.227  20.180   3.152
23259W        W93140  37.359   3.889   4.172
23260W        W93141  29.173  44.502  11.078
23261W        W93142  13.612  43.514   2.375
23262W        W93143  44.334  44.452   9.923
23263W        W93144  25.675  12.180   2.331
23264W        W93145  27.495  22.682  12.545
23265W        W93146  28.582  29.007   4.233
23266W        W93147  40.477   0.861   4.116
23267W        W93148  28.630   2.471  12.529
23268W        W93149   9.754  43.399   2.365
23269W        W93150  16.723  34.457  14.413
23270W        W93151  19.535  20.170  11.905
23271W        W93152  36.053   7.362   1.761
23272W        W93153  33.462  30.447   9.922
23273W        W93154  16.116  39.012   3.814
23274W        W93155  28.619  42.336   1.327
23275W        W93156  39.521   3.346   3.738
23276W        W93157   2.924   8.841   0.931
23277W        W93158  43.855  19.273  14.765
23278W        W93159  28.487   1.885   0.746
23279W        W93160   4.336  34.944  11.373
23280W        W93161  31.583  11.806   3.382
23281W        W93162  39.868  35.419  11.527
23282W        W93163  24.660  23.115   0.375
23283W        W93164  27.458  15.226  11.507
23284W        W93165  10.809  43.988   2.226
23285W        W93166  28.184  25.168   1.279
23286W        W93167  34.042   1.349  13.398
23287W        W93168   8.861   0.260  13.014
23288W        W93169  30.042  18.150   0.369
23289W        W93170  20.271  40.925   0.423
23290W        W93171  43.852  25.006  13.472
23291W        W93172  18.771  23.985   2.720
23292W        W93173  30.591   9.364  12.966
23293W        W93174  40.910   8.173   3.779
23294W        W93175  23.031   4.328   3.699
23295W        W93176  18.561   1.268   2.679
23296W        W93177  38.067  41.449   4.636
23297W        W93178  20.042  39.348  11.085
23298W        W93179  18.099  40.303  14.774
23299W        W93180  38.020  34.088  14.419
23300W        W93181  29.993   2.466  12.482
23301W        W93182  23.491  17.716  14.501
23302W        W93183  44.769  33.517  13.341
23303W        W93184  40.385   1.293  14.313
23304W        W93185  43.790  20.579  14.010
23305W        W93186  11.714  14.721   0.786
23306W        W93187  42.464  24.006  14.989
23307W        W93188  42.403   1.467   0.248
23308W        W93189  25.602  18.688   2.897
23309W        W93190  25.982   0.291  11.388
23310W        W93191  27.596  20.619   4.161
23311W        W93192  41.321  31.153  13.844
23312W        W93193   5.381  43.452   3.321
23313W        W93194   2.329   3.917  13.442
23314W        W93195   0.782  21.714   0.365
23315W        W93196  41.851  26.104   1.882
23316W        W93197  17.074   4.723   3.283
23317W        W93198  18.566  26.642   5.311
23318W        W93199  25.128  31.926   3.285
23319W        W93200  30.019  32.095  13.414
23320W        W93201  34.397  32.128  11.084
23321W        W93202  34.001  30.987   0.408
23322W        W93203  16.276   7.263   3.301
23323W        W93204   1.408  25.168  10.486
23324W        W93205  13.763  30.646   4.708
23325W        W93206  16.751   1.933   3.184
23326W        W93207  13.780  41.786   2.326
23327W        W93208   7.715  38.875  12.876
23328W        W93209  20.227  41.961  11.072
23329W        W93210  36.579  20.203   3.284
23330W        W93211  35.471  26.147  13.376
23331W        W93212  30.444   9.754  12.434
23332W        W93213  39.321  32.128   1.748
23333W        W93214  34.061  43.406   2.217
23334W        W93215  43.794  39.379  13.848
23335W        W93216  13.255  17.758   1.396
23336W        W93217  39.843  21.162   5.225
23337W        W93218  18.685  33.081   1.833
23338W        W93219  33.905  27.942   0.311
23339W        W93220  19.550  36.896   0.757
23340W        W93221   5.759   7.840  10.587
23341W        W93222  23.688  37.455   4.736
23342W        W93223   8.708  31.570   0.422
23343W        W93224  24.620  35.576  12.872
23344W        W93225  41.864  33.921   2.898
23345W        W93226  35.414  18.174  12.912
23346W        W93227  11.302   8.277  10.983
23347W        W93228   0.451  42.846  10.053
23348W        W93229  43.398  33.425  13.393
23349W        W93230  38.564  28.677  12.573
23350W        W93231  15.214   4.936   2.824
23351W        W93232   6.890  16.640  13.434
23352W        W93233   4.738  21.201  11.498
23353W        W93234   2.298   3.812  11.512
23354W        W93235  34.602   1.380  12.059
23355W        W93236  18.622  22.027   3.771
23356W        W93237  39.425  27.573   0.920
23357W        W93238   6.877  38.828  11.000
23358W        W93239  17.119  14.644   1.215
23359W        W93240   0.888   9.211   2.769
23360W        W93241  35.503   1.475   4.826
23361W        W93242  11.269  39.461   0.285
23362W        W93243  30.549  37.899  14.789
23363W        W93244  42.839  43.289   5.198
23364W        W93245  36.401  22.041  14.485
23365W        W93246  43.492   1.320  11.979
23366W        W93247  38.946  11.752   1.445
23367W        W93248  15.783  13.786   1.216
23368W        W93249  10.233  26.534   2.685
23369W        W93250  34.958  24.111  14.814
23370W        W93251  16.606  12.622   1.301
23371W        W93252  36.843  20.721   3.860
23372W        W93253   2.371  38.021  11.969
23373W        W93254  39.924  36.558  14.899
23374W        W93255  31.429   9.655  14.411
23375W        W93256  35.984  33.943  13.336
23376W        W93257  17.708  18.701   0.481
23377W        W93258  42.426   9.839   0.349
23378W        W93259  39.549   1.742  10.942
23379W        W93260  32.457  25.614  12.000
23380W        W93261  16.299  17.201  10.628
23381W        W93262   4.841   2.728   1.814
23382W        W93263  13.747  12.177  13.962
23383W        W93264  35.543   8.317   4.225
23384W        W93265  36.095  37.901   0.808
23385W        W93266  27.528   7.367   4.625
23386W        W93267   8.822  36.933   2.352
23387W        W93268  15.094  13.169   3.339
23388W        W93269   2.816  38.003   0.850
23389W        W93270  11.643  30.646   4.268
23390W        W93271  37.479  29.662  14.006
23391W        W93272  27.090   6.415  10.046
23392W        W93273  38.844  29.449  13.791
23393W        W93274  13.191  38.370   2.889
23394W        W93275  15.096  33.106   3.304
23395W        W93276   5.254  29.164   3.260
23396W        W93277   2.307  28.183  13.449
23397W        W93278   4.841  42.859   5.133
23398W        W93279  15.112  33.955  12.835
23399W        W93280  39.545  11.725  11.091
23400W        W93281  19.554   6.191  12.969
23401W        W93282  25.983  35.598   4.699
23402W        W93283  32.555  18.165  13.983
23403W        W93284   4.418   2.879   0.313
23404W        W93285   7.713  18.270  11.438
23405W        W93286   8.209  35.024  13.374
23406W        W93287  23.670   0.387  11.949
23407W        W93288  17.772  11.766   0.811
23408W        W93289   6.282   3.757  10.930
23409W        W93290  31.006   8.853  11.402
23410W        W93291  23.587   3.783   4.633
23411W        W93292  13.738  25.149   1.698
23412W        W93293  16.211  42.968   1.887
23413W        W93294   6.362  27.633  12.527
23414W        W93295  14.136  22.027  13.981
23415W        W93296   3.841  17.732   4.282
23416W        W93297  25.963  32.911   2.289
23417W        W93298  18.069  11.745  13.889
23418W        W93299  31.923  13.274   0.926
23419W        W93300   6.736  21.026  14.283
23420W        W93301  33.531  32.510   2.222
23421W        W93302  38.884   0.306   3.657
23422W        W93303  13.719  22.177  12.556
23423W        W93304  37.486  43.333   1.730
23424W        W93305  41.985  36.918  14.295
23425W        W93306  33.512  20.623  11.551
23426W        W93307  39.059  36.927  14.278
23427W        W93308  41.957  24.190  12.567
23428W        W93309   0.909  25.118   2.390
23429W        W93310  18.739  30.927  13.371
23430W        W93311  26.064  26.647   2.336
23431W        W93312  34.949  32.064   3.345
23432W        W93313  13.779  16.192   1.774
23433W        W93314  38.450   2.839   4.235
23434W        W93315  27.083  24.626   5.093
23435W        W93316   5.792  11.174  14.395
23436W        W93317  32.994  41.298  11.896
23437W        W93318  14.832  14.312   3.752
23438W        W93319   7.319   5.754  10.557
23439W        W93320  13.717  13.760   1.923
23440W        W93321  38.994  24.605   1.438
23441W        W93322  43.991  28.446  12.933
23442W        W93323  44.309  39.508  12.039
23443W        W93324  12.290  14.702  14.920
23444W        W93325  40.020  19.570   1.830
23445W        W93326  18.740  30.004  13.867
23446W        W93327  20.663  12.238   4.181
23447W        W93328  34.500   2.423   1.302
23448W        W93329  14.620  44.949   4.165
23449W        W93330  40.360  38.510   0.356
23450W        W93331  37.051  19.642  14.400
23451W        W93332  26.019  16.809  12.039
23452W        W93333   2.722   3.333   0.877
23453W        W93334  29.966  12.706   4.260
23454W        W93335   0.407  42.916  12.349
23455W        W93336  15.728  30.081  11.924
23456W        W93337  24.508  19.683  12.906
23457W        W93338  26.135  10.299  13.011
23458W        W93339  36.438  34.921   0.775
23459W        W93340  12.644  16.221   1.400
23460W        W93341  26.956  12.184  14.015
23461W        W93342  19.164  40.803  10.644
23462W        W93343   2.364  33.023   1.384
23463W        W93344  32.089  10.139   4.154
23464W        W93345  27.153  17.684   4.640
23465W        W93346  39.018   8.378   2.306
23466W        W93347   2.301  25.979  11.420
23467W        W93348   4.233  40.812  12.446
23468W        W93349  41.344  13.686  11.897
23469W        W93350  25.680  18.728  13.874
23470W        W93351   8.279  15.785   2.371
23471W        W93352  42.975  14.275  11.450
23472W        W93353   4.713   2.769   0.335
23473W        W93354  32.600   0.409   3.233
23474W        W93355  16.250   3.352   2.903
23475W        W93356  10.723  16.247  12.875
23476W        W93357  15.184  36.014  10.909
23477W        W93358  13.212   3.871   2.367
23478W        W93359   5.828  13.190  12.953
23479W        W93360  28.982   8.390  14.922
23480W        W93361  36.472   7.212  13.354
23481W        W93362  13.763  20.532  12.983
23482W        W93363   4.876  42.968  11.105
23483W        W93364  26.607  19.771   3.293
23484W        W93365  44.892  29.443   3.645
23485W        W93366  39.011  42.023   4.681
23486W        W93367  32.005   8.701   1.358
23487W        W93368  37.466  35.003   1.231
23488W        W93369  35.028   1.354   4.834
23489W        W93370  29.009   8.219   2.869
23490W        W93371   4.743  24.148   4.276
23491W        W93372  39.050  30.134   9.941
23492W        W93373   9.773  17.625  10.628
23493W        W93374  10.672  12.700   2.820
23494W        W93375  26.652  34.423   0.268
23495W        W93376  26.186  44.319   2.789
23496W        W93377  24.544  22.617  11.521
23497W        W93378  15.236  18.778   2.297
23498W        W93379  16.728  15.769  12.385
23499W        W93380  17.714   9.882  11.470
23500W        W93381   2.346  29.088  11.942
23501W        W93382  39.947  35.969  10.548
23502W        W93383  38.821  42.512   1.416
23503W        W93384  40.845   8.869   0.735
23504W        W93385  22.149   1.446   0.853
23505W        W93386  26.556   5.793  14.852
23506W        W93387  36.496  37.506   3.652
23507W        W93388   6.868  29.974   2.692
23508W        W93389   4.767  19.058  11.900
23509W        W93390  27.075   4.777  11.592
23510W        W93391  14.697  33.547   5.155
23511W        W93392   7.727  43.364  10.470
23512W        W93393  23.195  42.985   3.210
23513W        W93394  18.678  24.552  12.504
23514W        W93395  29.579  41.324  10.917
23515W        W93396  34.864  30.566  10.960
23516W        W93397  16.204  18.683  13.337
23517W        W93398  42.338  39.393  11.952
23518W        W93399   6.870  28.579   1.378
23519W        W93400   8.872  23.659  13.476
23520W        W93401  11.741  12.852   3.775
23521W        W93402  12.729   7.337   3.680
23522W        W93403  17.752  23.191   2.742
23523W        W93404  29.104  12.137   4.198
23524W        W93405  44.911   0.315  12.030
23525W        W93406   7.912  41.307   2.245
23526W        W93407  11.772  11.333   4.693
23527W        W93408  20.665   8.374  13.515
23528W        W93409  41.035  14.256  10.973
23529W        W93410  31.962  26.027  11.871
23530W        W93411  42.453  16.774   3.793
23531W        W93412  15.640  16.799  14.015
23532W        W93413  10.238  16.208  10.471
23533W        W93414  35.594  36.977  10.974
23534W        W93415  39.030   3.809  10.888
23535W        W93416  39.541   5.805  13.999
23536W        W93417   5.379   6.262  10.124
23537W        W93418  23.703  20.616   4.773
23538W        W93419  33.530  33.942   3.803
23539W        W93420  43.826  13.110   4.663
23540W        W93421   9.204  44.477   3.711
23541W        W93422  22.133  11.305  11.409
23542W        W93423   1.290  40.813   3.343
23543W        W93424  10.750   9.765  12.366
23544W        W93425  10.204   2.808  12.547
23545W        W93426  11.623  28.638   9.977
23546W        W93427  18.596   2.396  14.806
23547W        W93428   5.328   1.925  11.524
23548W        W93429  18.104  26.194  11.469
23549W        W93430  26.188   5.369  14.358
23550W        W93431   4.731  25.625   4.141
23551W        W93432  38.475   1.344  12.452
23552W        W93433   0.813  16.657  11.501
23553W        W93434   2.365  42.833  14.350
23554W        W93435  27.575   3.738   0.906
23555W        W93436   9.179  40.303  14.020
23556W        W93437  12.151  15.092  12.349
23557W        W93438  32.965  31.581  11.600
23558W        W93439  39.384  15.697  14.869
23559W        W93440   1.356   1.833  14.779
23560W        W93441   6.286  31.441   1.787
23561W        W93442   0.867  29.036   0.959
23562W        W93443  19.571  25.663   4.313
23563W        W93444  16.620  34.061   3.785
23564W        W93445  21.065  39.346  14.991
23565W        W93446  18.051  30.951   3.664
23566W        W93447  44.414   8.783   2.407
23567W        W93448  21.521   2.879   2.269
23568W        W93449  18.724  24.083   3.786
23569W        W93450  41.010   4.788   1.240
23570W        W93451  22.159  31.149   4.673
23571W        W93452  30.911  18.663  11.020
23572W        W93453  38.859  11.343  11.041
23573W        W93454   4.438  40.798   1.788
23574W        W93455   7.250  10.837  11.039
23575W        W93456   0.924  26.073  14.312
23576W        W93457  37.360   4.770  14.283
23577W        W93458  11.692  34.473  10.009
23578W        W93459  36.921  33.085   2.664
23579W        W93460  10.322  28.128   5.156
23580W        W93461   0.836  18.648   0.774
23581W        W93462  15.108   9.882  11.048
23582W        W93463  23.051  32.049   2.720
23583W        W93464  13.627   1.262  14.514
23584W        W93465   8.748  41.807   3.235
23585W        W93466  11.186   9.733   4.648
23586W        W93467  30.144   4.211  13.980
23587W        W93468   4.924  28.675  13.433
23588W        W93469  33.389  12.194   3.716
23589W        W93470  14.180  33.518   3.164
23590W        W93471  31.103   4.226  10.938
23591W        W93472  44.880  33.392  11.437
23592W        W93473  13.127  24.648   3.813
23593W        W93474   7.812  22.160  13.930
23594W        W93475  33.083  42.354   3.349
23595W        W93476  34.489  31.640  11.908
23596W        W93477   9.211  15.180  11.063
23597W        W93478  35.449  37.488   2.866
23598W        W93479  19.710  11.168   0.271
23599W        W93480  11.127  44.369   3.371
23600W        W93481  12.132  31.588   1.783
23601W        W93482   0.461  11.835  12.953
23602W        W93483  13.754  38.028   4.267
23603W        W93484  24.006  33.538   2.346
23604W        W93485  25.964  15.129  10.591
23605W        W93486  38.549  37.388  10.606
23606W        W93487   9.334  13.629   3.259
23607W        W93488   1.459  18.680  10.430
23608W        W93489  39.064  14.743   0.363
23609W        W93490  31.935  43.915  12.531
23610W        W93491  24.222  12.256   4.830
23611W        W93492  43.946  24.156  10.591
23612W        W93493  15.720   3.802  14.393
23613W        W93494  33.404   0.899   1.760
23614W        W93495  28.946  18.551  14.294
23615W        W93496  11.289  10.676   0.343
23616W        W93497   1.259  41.935  14.929
23617W        W93498  39.048  17.630   3.796
23618W        W93499  40.360  12.811   2.375
23619W        W93500  37.448  32.498  11.084
23620W        W93501  13.309   0.924  10.602
23621W        W93502  30.928   1.270  13.892
23622W        W93503  14.604   9.167   4.258
23623W        W93504  14.245  15.633  13.005
23624W        W93505  20.242   7.250  13.976
23625W        W93506  35.076  28.952   1.376
23626W        W93507   0.309  24.167   1.215
23627W        W93508  32.901   5.900  12.541
23628W        W93509  31.468   3.732  13.792
23629W        W93510  37.967  42.437   4.244
23630W        W93511  23.000  26.520   1.419
23631W        W93512  23.135  16.176   2.408
23632W        W93513  34.009  27.024   0.258
23633W        W93514  37.379  26.199  11.896
23634W        W93515   9.777   7.764   4.668
23635W        W93516  28.054  21.180   2.256
23636W        W93517  42.012  16.735   3.316
23637W        W93518  18.554  25.058  14.816
23638W        W93519  30.047  32.135  12.015
23639W        W93520  34.394   5.265  10.988
23640W        W93521  41.991  38.505   4.182
23641W        W93522  41.838   2.301   0.947
23642W        W93523  40.018  25.603   3.313
23643W        W93524  12.318  16.603   1.712
23644W        W93525   0.323  24.529  14.792
23645W        W93526   8.704  25.995  14.358
23646W        W93527   8.711  18.141   4.641
23647W        W93528  29.982  22.198  13.356
23648W        W93529  43.877  20.221   1.342
23649W        W93530   9.163  22.646  14.021
23650W        W93531  18.781   6.817   3.864
23651W        W93532   9.724  31.547  10.517
23652W        W93533  29.972   4.259  14.384
23653W        W93534   1.736  14.309  13.873
23654W        W93535  41.876   0.455   3.278
23655W        W93536  20.185  29.931   1.753
23656W        W93537  40.439  26.643   4.160
23657W        W93538  12.343   6.750   2.352
23658W        W93539  41.889   0.479  13.835
23659W        W93540   0.907   9.820   1.435
23660W        W93541  23.230  29.478   1.355
23661W        W93542  31.528  19.738  11.004
23662W        W93543  13.680  10.227  12.404
23663W        W93544  10.333  33.496   0.324
23664W        W93545   7.852  16.771  10.993
23665W        W93546   9.269  28.524   1.785
23666W        W93547   8.217   4.808   4.604
23667W        W93548  22.679  12.762  10.562
23668W        W93549  15.604  21.109   3.367
23669W        W93550  17.278  34.538  13.828
23670W        W93551  34.516  27.607  12.517
23671W        W93552  31.985  18.178   2.395
23672W        W93553  24.122  39.401   4.605
23673W        W93554  37.950  37.965   1.283
23674W        W93555  36.998   1.458  11.612
23675W        W93556  34.444  31.406  14.861
23676W        W93557   5.880  28.946   1.336
23677W        W93558  33.533   9.271   4.320
23678W        W93559  22.696  35.531   2.777
23679W        W93560  22.095  18.717  14.015
23680W        W93561   2.746  41.812  10.625
23681W        W93562  40.851  27.082   3.699
23682W        W93563  36.866  31.962  11.981
23683W        W93564  39.485  27.068  11.439
23684W        W93565  40.818  20.673   4.772
23685W        W93566  32.136   4.755  12.982
23686W        W93567  15.680  24.552   4.645
23687W        W93568   9.753  28.120   0.464
23688W        W93569  44.003  43.940  12.422
23689W        W93570  35.366  40.852  13.885
23690W        W93571  32.420  32.619  11.971
23691W        W93572  31.964  10.309   1.727
23692W        W93573  44.984  20.726  14.829
23693W        W93574   6.735  38.432  11.424
23694W        W93575   9.665   9.789   0.857
23695W        W93576   2.750  23.555   1.817
23696W        W93577  41.376  35.907  14.308
23697W        W93578  30.523   4.423   4.744
23698W        W93579  20.214  35.889   0.728
23699W        W93580  36.408  32.395  14.022
23700W        W93581  36.509  41.978  14.887
23701W        W93582  37.854  19.041  10.513
23702W        W93583  15.310  35.602   2.667
23703W        W93584  33.393  39.010  10.134
23704W        W93585  31.417  21.583   4.756
23705W        W93586  27.145  14.757  12.069
23706W        W93587  25.596   4.904  14.953
23707W        W93588  38.532   0.939  12.479
23708W        W93589  16.714  28.936   4.722
23709W        W93590  33.927  44.877   0.820
23710W        W93591  40.896  21.112   4.212
23711W        W93592  17.691  33.620   0.345
23712W        W93593  28.152  29.125   0.897
23713W        W93594   3.874  22.558   1.396
23714W        W93595  37.566  30.032   3.764
23715W        W93596   9.271  15.723   2.227
23716W        W93597   3.293   4.400  10.059
23717W        W93598  14.170  43.817  13.855
23718W        W93599  32.071  39.012   1.886
23719W        W93600  33.065  34.513  12.560
23720W        W93601  19.578  44.928  11.436
23721W        W93602   9.151  31.918  13.322
23722W        W93603  30.144  35.024  14.339
23723W        W93604   7.910  44.330   3.806
23724W        W93605  36.467  30.424   1.275
23725W        W93606   7.843  35.469   3.281
23726W        W93607  13.803  26.963  13.868
23727W        W93608  10.255  14.335  11.431
23728W        W93609   9.754  36.525  12.432
23729W        W93610  28.138  10.181  13.532
23730W        W93611  25.173   6.788   3.240
23731W        W93612   2.429  16.196   3.853
23732W        W93613  33.413  29.586  11.446
23733W        W93614  11.340  16.800   2.415
23734W        W93615  17.580  41.375  14.501
23735W        W93616  39.400  28.602   1.934
23736W        W93617  31.129  34.566   0.782
23737W        W93618  21.157  35.886   4.625
23738W        W93619  34.019  23.633   3.228
23739W        W93620   6.299  43.818   1.210
23740W        W93621  39.832  15.190   0.341
23741W        W93622  39.523   5.816  14.822
23742W        W93623   1.770  28.638  11.540
23743W        W93624  38.553  39.333   1.746
23744W        W93625  13.294  39.034   2.896
23745W        W93626  10.708  12.206   2.243
23746W        W93627  28.544  19.152  14.872
23747W        W93628  13.755   2.868  12.363
23748W        W93629   6.832  36.537  13.911
23749W        W93630  38.976  31.126   2.844
23750W        W93631  35.578   3.825   0.290
23751W        W93632   7.363   5.342   3.158
23752W        W93633   6.849  43.466  11.503
23753W        W93634  42.922  11.663  13.541
23754W        W93635  29.102  41.819   3.225
23755W        W93636  37.408  17.211  12.904
23756W        W93637  38.372   5.349   1.720
23757W        W93638  14.116  11.369  14.852
23758W        W93639  10.359   0.454  13.027
23759W        W93640  42.337  44.768  12.922
23760W        W93641  34.109  40.009  11.941
23761W        W93642  33.401  24.668   0.446
23762W        W93643  32.126  42.852   0.946
23763W        W93644  44.389  35.939   1.429
23764W        W93645  14.715  44.389  14.772
23765W        W93646  13.154  39.537   3.343
23766W        W93647  10.348  11.348  13.963
23767W        W93648  27.193  26.539  12.954
23768W        W93649  13.163   4.737  11.526
23769W        W93650  12.711  27.110  14.434
23770W        W93651  38.392  40.531   1.296
23771W        W93652   6.680  38.925   2.894
23772W        W93653  33.119  20.055  12.458
23773W        W93654  40.870  40.984  13.946
23774W        W93655   5.789  35.994  10.978
23775W        W93656  33.049   3.955  13.812
23776W        W93657  18.737   1.909   0.246
23777W        W93658   2.249  15.736  10.958
23778W        W93659  32.008  36.417   0.336
23779W        W93660  32.109   2.797  12.061
23780W        W93661  32.480  11.645   2.842
23781W        W93662   4.801   9.862  13.308
23782W        W93663  26.187   7.238  13.427
23783W        W93664   5.820  29.639   0.879
23784W        W93665   8.685   8.293   1.274
23785W        W93666  31.590  35.420   3.730
23786W        W93667  30.940   7.786   4.719
23787W        W93668   8.717  37.502   0.307
23788W        W93669  20.212  30.164  14.276
23789W        W93670  20.233  23.138   3.684
23790W        W93671   6.843  17.297  12.885
23791W        W93672  10.291   8.670   0.749
23792W        W93673  12.193  35.493  12.053
23793W        W93674  44.963  32.946   0.303
23794W        W93675  25.534   4.437  12.906
23795W        W93676  17.128  41.292  11.077
23796W        W93677  12.225   0.400  14.407
23797W        W93678   5.404   4.347  12.825
23798W        W93679  41.464  29.140   3.180
23799W        W93680  23.494  40.360  10.577
23800W        W93681  26.624  41.791   2.806
23801W        W93682   0.448  12.348   0.432
23802W        W93683  32.078  13.169   3.364
23803W        W93684   6.898  20.713  12.843
23804W        W93685  23.119  38.905   3.336
23805W        W93686  40.424   7.349  13.021
23806W        W93687  34.069  23.533   2.407
23807W        W93688   4.334  31.017   0.302
23808W        W93689   9.237  36.955   2.679
23809W        W93690   9.742   6.422   2.268
23810W        W93691  19.682  37.047   3.855
23811W        W93692  18.672  38.411   4.280
23812W        W93693   8.796  33.046   4.827
23813W        W93694  13.229  32.951   4.146
23814W        W93695  27.064  21.640  12.000
23815W        W93696  24.494  18.178   2.786
23816W        W93697  20.250   3.287  13.331
23817W        W93698  38.439  13.651   1.261
23818W        W93699  39.338  27.511   2.701
23819W        W93700  41.953  38.393   2.678
23820W        W93701  34.455  16.617  14.463
23821W        W93702  37.996   0.867   5.644
23822W        W93703   4.363  12.272  13.402
23823W        W93704   7.841   6.755  13.911
23824W        W93705   3.875  31.059  12.489
23825W        W93706  28.042   1.866  10.500
23826W        W93707  27.542  44.865   1.698
23827W        W93708  20.649  33.438  14.854
23828W        W93709   8.888  39.951   1.768
23829W        W93710  36.092  41.911  12.423
23830W        W93711  30.112  30.064   1.328
23831W        W93712  29.922  35.954  14.450
23832W        W93713  21.047  12.328  14.953
23833W        W93714   9.848  15.683   3.208
23834W        W93715   7.866  43.336  12.385
23835W        W93716  23.120  26.160   1.277
23836W        W93717  41.821   1.325   3.311
23837W        W93718  19.726  18.094   1.337
23838W        W93719   7.763  11.276   4.817
23839W        W93720  17.262  27.102   0.831
23840W        W93721   8.311  36.045   3.249
23841W        W93722  22.219  38.823   4.752
23842W        W93723   6.399   5.209  13.442
23843W        W93724  28.439  33.876   3.305
23844W        W93725  24.020  14.164  10.559
23845W        W93726   8.742   9.879  13.394
23846W        W93727  17.234   8.850   1.338
23847W        W93728  22.078  22.717  13.309
23848W        W93729  20.233  10.828  14.776
23849W        W93730  16.755  27.509   4.147
23850W        W93731  42.309  17.750   4.713
23851W        W93732  12.743  22.084   4.822
23852W        W93733  35.570  35.904   4.824
23853W        W93734  44.974  21.184  10.473
23854W        W93735  40.373   0.753  12.556
23855W        W93736  25.159  27.142  13.485
23856W        W93737  30.137  25.166   0.865
23857W        W93738  28.664   6.194  13.848
23858W        W93739  40.440  31.016  13.002
23859W        W93740  16.318  20.656   3.372
23860W        W93741  19.610  35.559  14.513
23861W        W93742  28.059  29.002   3.177
23862W        W93743  10.248   9.833  10.468
23863W        W93744   9.765  24.201   4.119
23864W        W93745  15.101  32.417  12.398
23865W        W93746  33.929  21.110  10.070
23866W        W93747   8.821  27.144  11.937
23867W        W93748  25.007   2.443   5.245
23868W        W93749  21.522  14.638   4.295
23869W        W93750   4.241  13.641  11.412
23870W        W93751   3.846  20.045   3.652
23871W        W93752  10.382  29.646   4.310
23872W        W93753  38.014  41.487   4.314
23873W        W93754  27.503  39.509   4.660
23874W        W93755   4.342   0.750   4.767
23875W        W93756  28.944  37.574  10.948
23876W        W93757  20.058  25.538   3.815
23877W        W93758   0.255   1.431  14.346
23878W        W93759  19.057  44.986   0.277
23879W        W93760  39.819  12.805  12.012
23880W        W93761  31.951   4.733   3.207
23881W        W93762  34.601  35.899  13.538
23882W        W93763   6.339  10.347  13.544
23883W        W93764  11.819  42.290   2.185
23884W        W93765  36.008   9.792   2.409
23885W        W93766  38.887  22.519  13.008
23886W        W93767  25.202  41.301   3.276
23887W        W93768  19.627  44.415  10.974
23888W        W93769  26.091  35.573  14.837
23889W        W93770  33.569  31.150  10.982
23890W        W93771  33.049  18.176   4.718
23891W        W93772  26.048  31.566   1.339
23892W        W93773  34.381  39.031   2.247
23893W        W93774  14.809   0.457  12.890
23894W        W93775  42.458  43.983   3.718
23895W        W93776  10.872   8.717  12.987
23896W        W93777   8.869  39.424  13.802
23897W        W93778   4.843  20.092   1.728
23898W        W93779  30.059   3.243   0.332
23899W        W93780  13.644  10.738   4.802
23900W        W93781  25.176  38.399  14.793
23901W        W93782  33.978  12.714  13.451
23902W        W93783   2.802  18.237  14.391
23903W        W93784  13.222   7.797   0.248
23904W        W93785   3.362  24.098  11.525
23905W        W93786   4.876  13.688  13.526
23906W        W93787   4.774  35.885   2.342
23907W        W93788  21.562  12.853   3.653
23908W        W93789  44.394  19.634  12.000
23909W        W93790   7.406  16.740   4.708
23910W        W93791   0.408  16.575  12.404
23911W        W93792  27.051  10.274   3.715
23912W        W93793  10.774  25.649   3.177
23913W        W93794   3.733  25.161  12.376
23914W        W93795   4.404   5.915  11.393
23915W        W93796   1.356  22.051  12.827
23916W        W93797  14.657  43.810  11.067
23917W        W93798  30.962  34.444   3.316
23918W        W93799   5.432  36.390  11.597
23919W        W93800  36.395   5.433   1.293
23920W        W93801  39.838  39.530   1.261
23921W        W93802  30.991   4.417   1.928
23922W        W93803  36.014  38.897   2.696
23923W        W93804  19.186  25.669  11.555
23924W        W93805  14.235   0.342  10.502
23925W        W93806  42.944  13.214  11.105
23926W        W93807  23.065  28.639  12.092
23927W        W93808  28.675  16.625  12.073
23928W        W93809  30.645   4.799   4.660
23929W        W93810  17.574  12.174   1.350
23930W        W93811  32.948   6.313  13.352
23931W        W93812   5.744  38.821   1.391
23932W        W93813  29.489  11.699  12.842
23933W        W93814  10.647  44.928   3.862
23934W        W93815  31.430  17.759   2.717
23935W        W93816  10.638  11.745  11.535
23936W        W93817  44.429  27.009   0.424
23937W        W93818  37.409  13.191   4.235
23938W        W93819  36.529   3.221   1.909
23939W        W93820  39.438  19.142   2.870
23940W        W93821  43.321  43.903   3.709
23941W        W93822  27.510  12.235   0.457
23942W        W93823   2.961  36.567   2.198
23943W        W93824  19.120  27.045   2.234
23944W        W93825  25.638  16.654   3.342
23945W        W93826  23.182  11.192  10.633
23946W        W93827  29.929  30.048   2.713
23947W        W93828  40.548   4.771   0.408
23948W        W93829  15.621  23.110   0.424
23949W        W93830  13.108  29.006   4.197
23950W        W93831  13.818   2.269  12.881
23951W        W93832  31.029  42.959  13.526
23952W        W93833   2.238  19.718  10.032
23953W        W93834  26.473   2.446  14.387
23954W        W93835  34.061   9.673  12.090
23955W        W93836  37.422  34.554   2.783
23956W        W93837  16.758  19.565   0.730
23957W        W93838   1.733   8.757   1.276
23958W        W93839  28.973  29.003   2.181
23959W        W93840  11.367  38.940   2.843
23960W        W93841  38.473   3.933   0.257
23961W        W93842  40.378  18.589   0.342
23962W        W93843  43.510  37.942  14.874
23963W        W93844  36.402  27.032   2.747
23964W        W93845  31.909  40.455  11.422
23965W        W93846  27.679  13.266   1.450
23966W        W93847  26.491  39.554  11.071
23967W        W93848  35.909  43.948   3.254
23968W        W93849  43.963  14.726  14.491
23969W        W93850  14.106  38.989   0.895
23970W        W93851  44.356   1.781   3.348
23971W        W93852  38.447  24.049  12.541
23972W        W93853   6.754   7.375  13.423
23973W        W93854  17.143  35.468  12.494
23974W        W93855  26.609  42.876   3.346
23975W        W93856  44.843   7.718   0.909
23976W        W93857  20.120  12.714   5.150
23977W        W93858  15.242  38.035   1.374
23978W        W93859  30.970   9.301   2.307
23979W        W93860  22.533   1.458   2.414
23980W        W93861  29.644  38.077  14.958
23981W        W93862  42.874  15.264  12.367
23982W        W93863  13.746  36.366   4.147
23983W        W93864  38.063  26.965   1.871
23984W        W93865  29.986  16.626  12.854
23985W        W93866  23.057  22.190   0.318
23986W        W93867  22.085   5.208  11.379
23987W        W93868  29.146  42.525  13.888
23988W        W93869  26.665  40.913  11.951
23989W        W93870  37.956   8.840  10.133
23990W        W93871  26.019   3.945  11.904
23991W        W93872  29.934  12.208   4.328
23992W        W93873  26.975   5.921  10.468
23993W        W93874   3.317  12.330  11.880
23994W        W93875  40.045  41.307   1.757
23995W        W93876  25.666  11.842   3.644
23996W        W93877  22.064  18.620   5.742
23997W        W93878  42.479  28.467  14.866
23998W        W93879   8.757  16.155  11.581
23999W        W93880  38.381   0.319  14.885
24000W        W93881  41.850   1.483   0.439
24001W        W93882   1.259  35.510  13.535
24002W        W93883  17.594  37.431   9.935
24003W        W93884   6.865  15.603  14.015
24004W        W93885   2.886   0.430   4.306
24005W        W93886   0.370  35.030  11.935
24006W        W93887  14.635   7.850   1.450
24007W        W93888   6.412  22.746   0.385
24008W        W93889  33.576  12.148  13.315
24009W        W93890  18.740   7.805  12.516
24010W        W93891  38.502  13.143   4.729
24011W        W93892  19.213  26.528   1.230
24012W        W93893   2.773  31.642  11.973
24013W        W93894  42.449  26.009  12.857
24014W        W93895  23.603  24.139  12.544
24015W        W93896   5.412  20.268   0.925
24016W        W93897   5.327  19.580  11.994
24017W        W93898  16.146  33.572  14.468
24018W        W93899  32.043  16.710  12.553
24019W        W93900  41.305  20.698  12.424
24020W        W93901   3.932  43.433  11.432
24021W        W93902  31.416   4.295  12.349
24022W        W93903   1.787   1.960  13.508
24023W        W93904   9.360  29.587  10.961
24024W        W93905  24.175  39.387   3.239
24025W        W93906   7.742   7.415  10.944
24026W        W93907  10.755  44.983  14.987
24027W        W93908  13.327  44.912  13.064
24028W        W93909   0.825  32.002  13.892
24029W        W93910  10.142  13.783   2.328
24030W        W93911  14.666  41.819   3.641
24031W        W93912  32.976  27.478   0.877
24032W        W93913   3.910  18.108   9.962
24033W        W93914  41.840  20.261   4.217
24034W        W93915  12.643  10.868   1.210
24035W        W93916  44.782  39.868  11.050
24036W        W93917   5.223  35.925   1.758
24037W        W93918  16.073  43.992  13.987
24038W        W93919   0.492   2.922   2.325
24039W        W93920  10.864  37.935   2.898
24040W        W93921  30.907  13.225  12.885
24041W        W93922  22.644  27.495   2.704
24042W        W93923  14.127  44.880  13.925
24043W        W93924  13.639  12.143  11.999
24044W        W93925  19.077   7.677  13.981
24045W        W93926   2.450  25.503  13.433
24046W        W93927  40.511  36.934  12.474
24047W        W93928  14.613  26.093  12.058
24048W        W93929  36.959  16.748   3.154
24049W        W93930  30.541   4.298   0.325
24050W        W93931  15.780  20.612   4.168
24051W        W93932   6.859   5.741  14.464
24052W        W93933  43.410  26.107   2.323
24053W        W93934  17.711   5.835  11.887
24054W        W93935  10.307  34.886   1.244
24055W        W93936   7.771  12.755   3.742
24056W        W93937  32.449  12.353   2.222
24057W        W93938  31.124   7.352  14.421
24058W        W93939  30.657  11.753   2.682
24059W        W93940  22.128  14.831   1.224
24060W        W93941  37.962  41.014  13.922
24061W        W93942   5.210  29.101   1.303
24062W        W93943   4.836  30.044  13.487
24063W        W93944  44.403  30.126  14.765
24064W        W93945  23.015  35.415  12.835
24065W        W93946   3.422  32.036  12.851
24066W        W93947   0.398  12.336   4.192
24067W        W93948  16.178  15.234   2.843
24068W        W93949  33.607  28.573   4.310
24069W        W93950   6.747  26.149   1.425
24070W        W93951  29.490  35.387   4.320
24071W        W93952   9.881  33.104  13.891
24072W        W93953  23.654  19.716  10.554
24073W        W93954  35.536  42.425   0.310
24074W        W93955  21.188  35.476  13.332
24075W        W93956  42.922  41.787   2.742
24076W        W93957   2.455  35.587   4.751
24077W        W93958  17.161  41.512  14.951
24078W        W93959   6.705  28.443   3.781
24079W        W93960   7.873  35.031   0.439
24080W        W93961  13.265  29.582   3.723
24081W        W93962   8.194   1.813   0.258
24082W        W93963  13.343   5.716  13.872
24083W        W93964  12.795  37.054  13.814
24084W        W93965  37.487  13.785  14.380
24085W        W93966   8.239  42.414  14.805
24086W        W93967  35.546  37.036   4.778
24087W        W93968  43.435  13.732   2.705
24088W        W93969  17.060   7.174   2.304
24089W        W93970  31.979  11.359  12.863
24090W        W93971   4.856  14.625  10.552
24091W        W93972  31.937  11.640   5.289
24092W        W93973   9.732  19.778   3.204
24093W        W93974  42.872   6.368  14.815
24094W        W93975  40.323   1.294  11.552
24095W        W93976  27.034  37.551  11.126
24096W        W93977   5.822  44.775   3.854
24097W        W93978   6.359  21.245  13.845
24098W        W93979  33.125  26.953   4.290
24099W        W93980  16.283  14.246   3.146
24100W        W93981  10.338  38.548   0.829
24101W        W93982  41.026  22.582  11.090
24102W        W93983  30.908   5.773   1.879
24103W        W93984  30.427  13.805   4.598
24104W        W93985  21.049  16.689  10.545
24105W        W93986   3.953  23.173   0.933
24106W        W93987  15.156  23.714   0.339
24107W        W93988  12.173  28.106  13.040
24108W        W93989  32.039   8.310  12.942
24109W        W93990   5.813  43.386  14.377
24110W        W93991  26.577   4.380  13.467
24111W        W93992  35.544   6.848  14.436
24112W        W93993   7.210   8.804  11.969
24113W        W93994  13.698  24.125  10.630
24114W        W93995  43.414  20.119   4.684
24115W        W93996  32.091  27.490   0.375
24116W        W93997  28.012  10.244   0.483
24117W        W93998   0.915  15.774  12.556
24118W        W93999  12.713  43.852   1.698
24119W        W94000   7.412  13.260   4.618
24120W        W94001  43.783  17.239   0.330
24121W        W94002  42.914  41.525  10.470
24122W        W94003  36.389  18.663   0.450
24123W        W94004   5.870  28.040  13.362
24124W        W94005  19.221  27.973   4.334
24125W        W94006   4.845  11.723  11.878
24126W        W94007  15.626  17.113  11.605
24127W        W94008   8.664  22.521  14.326
24128W        W94009  33.895   6.257  11.534
24129W        W94010  23.989  43.841   2.317
24130W        W94011  29.046  33.535   0.475
24131W        W94012  41.950  44.317  12.493
24132W        W94013  28.090  31.576   2.218
24133W        W94014   5.889   6.918   0.348
24134W        W94015  10.633  11.857   4.753
24135W        W94016  23.992  14.607   4.205
24136W        W94017  36.567  26.585   4.272
24137W        W94018   3.864  22.116   4.833
24138W        W94019  29.023  16.087  11.396
24139W        W94020  23.015  35.904  11.112
24140W        W94021   6.690  24.061  13.001
24141W        W94022  35.993  17.625   3.807
24142W        W94023   8.337  20.594  12.391
24143W        W94024   9.373   5.330  12.406
24144W        W94025  30.625  22.729   1.416
24145W        W94026  23.133  15.654   4.830
24146W        W94027  13.665  35.964   5.312
24147W        W94028  41.888  12.198   4.127
24148W        W94029   0.360  34.447   4.656
24149W        W94030  25.012  35.049   2.329
24150W        W94031  43.840  33.056  11.474
24151W        W94032   6.807  41.370  12.066
24152W        W94033  42.386   4.928  11.899
24153W        W94034  42.788   0.969   3.353
24154W        W94035  24.174  32.105  10.979
24155W        W94036  12.856  29.560   3.854
24156W        W94037  36.494  18.128  10.949
24157W        W94038   4.262  40.405   3.717
24158W        W94039  28.457  34.053   3.774
24159W        W94040  37.011  10.862  13.005
24160W        W94041  11.337  31.049   0.434
24161W        W94042   0.922  27.160   4.139
24162W        W94043  44.365   1.424   2.836
24163W        W94044   8.783  29.428   3.174
24164W        W94045  44.816  37.876  13.537
24165W        W94046   4.231  41.495   1.902
24166W        W94047  10.370  17.747   4.619
24167W        W94048  19.602  16.299   2.744
24168W        W94049  29.635  25.057   4.690
24169W        W94050  43.424  22.650  14.803
24170W        W94051   1.750  27.169   1.898
24171W        W94052  18.556  16.261  11.598
24172W        W94053  11.768  42.507   3.730
24173W        W94054  35.085  31.453  14.810
24174W        W94055  39.038  21.178  14.327
24175W        W94056  18.215   5.363  10.936
24176W        W94057  21.050  43.799  13.046
24177W        W94058  22.170  36.551  14.506
24178W        W94059   0.421  42.945  11.041
24179W        W94060  30.600   8.307   3.147
24180W        W94061  12.627  23.070   0.792
24181W        W94062  30.442  21.524  10.898
24182W        W94063  18.691   6.907  11.124
24183W        W94064  35.019  43.454   1.230
24184W        W94065  32.022  30.434  13.428
24185W        W94066  41.487  17.660  10.454
24186W        W94067  26.654   1.817  12.447
24187W        W94068   2.341  34.117   3.201
24188W        W94069  37.438  26.691   2.787
24189W        W94070   4.321  40.967   2.823
24190W        W94071  35.862   6.686  13.897
24191W        W94072  28.473  14.137   4.343
24192W        W94073  42.803  41.357  12.059
24193W        W94074   8.231   6.794   3.274
24194W        W94075  43.467  36.530   4.210
24195W        W94076  11.866   3.290  11.506
24196W        W94077  17.192  18.072  10.048
24197W        W94078  41.468  24.681  12.025
24198W        W94079   7.889  19.633  14.436
24199W        W94080  19.556   3.734   1.745
24200W        W94081  13.134  27.517  11.383
24201W        W94082  15.295  14.717  13.386
24202W        W94083   4.776   2.387   2.322
24203W        W94084   7.326  28.575   3.204
24204W        W94085   7.821  20.163  13.482
24205W        W94086   1.270  23.228   3.254
24206W        W94087  30.560   8.261   0.825
24207W        W94088  14.321  21.143  12.846
24208W        W94089  34.415  18.609   2.892
24209W        W94090  40.537  32.029  12.558
24210W        W94091  39.832  22.171  11.072
24211W        W94092   1.291  37.900  13.934
24212W        W94093  37.058  23.692   1.316
24213W        W94094  42.471  23.227  11.509
24214W        W94095   6.777  21.045   4.665
24215W        W94096  31.959  39.398  12.351
24216W        W94097  28.057   5.424   2.416
24217W        W94098  27.002  10.285  12.529
24218W        W94099  19.230  27.590   0.906
24219W        W94100   7.725  19.102  11.501
24220W        W94101  12.667  16.314  11.975
24221W        W94102  36.399  17.585  14.797
24222W        W94103  33.482  36.924   4.261
24223W        W94104  27.674  43.808  13.537
24224W        W94105  14.679   7.900  11.907
24225W        W94106  33.997  27.959   3.712
24226W        W94107  20.740  23.059   4.613
24227W        W94108  18.716   0.985  13.482
24228W        W94109  15.736  36.361  13.539
24229W        W94110  36.867  13.300  11.994
24230W        W94111  34.615  30.573  11.116
24231W        W94112   1.761  33.960  12.379
24232W        W94113  36.070   5.257   2.756
24233W        W94114   4.814  41.324   2.711
24234W        W94115  13.730   6.340  10.441
24235W        W94116  41.965  30.000  11.538
24236W        W94117   6.186  15.186   4.801
24237W        W94118  32.547   3.926  12.853
24238W        W94119  15.118  40.811   2.716
24239W        W94120   2.758   5.688   4.761
24240W        W94121  37.386  23.996  12.988
24241W        W94122  28.490  14.673  13.349
24242W        W94123  12.712   7.277   4.126
24243W        W94124  34.517   9.845   0.783
24244W        W94125  35.416  35.361  12.834
24245W        W94126  17.774  28.562   2.758
24246W        W94127  15.761  29.505  14.824
24247W        W94128  41.491  42.320  11.984
24248W        W94129  18.571  12.332  11.006
24249W        W94130  39.877  38.064   1.855
24250W        W94131   4.241  37.336  11.487
24251W        W94132  16.253   4.343   0.904
24252W        W94133  23.142  12.116  11.407
24253W        W94134  23.517  31.016  14.839
24254W        W94135  36.580  39.008   4.767
24255W        W94136  17.617   0.484  11.041
24256W        W94137  37.978  40.316  13.000
24257W        W94138  27.667  31.082   3.326
24258W        W94139  36.347  36.850  12.542
24259W        W94140   9.722   3.298   2.311
24260W        W94141   4.706   9.211   4.131
24261W        W94142   6.204  15.311   2.358
24262W        W94143   2.915  34.536   0.345
24263W        W94144   4.313  33.953   0.270
24264W        W94145  44.947  15.315  10.644
24265W        W94146  12.298   7.788  14.942
24266W        W94147  29.035  32.038  14.514
24267W        W94148  34.516  43.442  13.962
24268W        W94149  22.733  37.026  11.984
24269W        W94150  26.458  23.611   4.671
24270W        W94151  43.402  13.705   2.267
24271W        W94152  30.104   3.339  10.562
24272W        W94153  27.194  39.014  11.081
24273W        W94154  41.460  44.768  13.842
24274W        W94155  16.623  15.626   1.298
24275W        W94156   7.340  25.632   4.629
24276W        W94157  19.765   6.352   4.131
24277W        W94158  13.272  16.273   0.441
24278W        W94159  33.441  22.206  12.831
24279W        W94160  28.059  36.931  13.363
24280W        W94161  38.061   1.387   5.241
24281W        W94162   3.342  30.649  13.363
24282W        W94163  32.605   7.272  13.445
24283W        W94164  36.007  31.011   2.295
24284W        W94165  25.485  36.873  10.632
24285W        W94166  30.132  26.013  12.537
24286W        W94167  17.198  42.355   1.934
24287W        W94168  20.637  22.564  11.989
24288W        W94169  36.475  34.370   4.331
24289W        W94170  18.667   4.325  13.008
24290W        W94171  42.407   4.921  14.839
24291W        W94172  14.784  27.006   4.744
24292W        W94173  28.642  34.389  12.081
24293W        W94174  20.093  15.249   1.922
24294W        W94175  19.198   5.257   4.268
24295W        W94176  32.422  20.532   3.248
24296W        W94177  42.384  14.742   3.376
24297W        W94178   0.452  10.792  13.415
24298W        W94179  10.847  33.623  10.602
24299W        W94180  32.045  28.611  11.869
24300W        W94181  43.373  20.758   0.306
24301W        W94182  34.923  33.393   0.439
24302W        W94183  33.038  11.303   2.673
24303W        W94184   7.222  40.420  14.485
24304W        W94185  12.769  15.216  14.286
24305W        W94186  40.050  29.026   2.849
24306W        W94187  23.661  23.575  12.503
24307W        W94188   8.727  40.048  11.611
24308W        W94189  26.640  14.128   1.426
24309W        W94190  34.453  39.512  13.384
24310W        W94191  11.200  13.265   2.893
24311W        W94192  39.900   7.796   1.281
24312W        W94193  24.722  28.048  12.375
24313W        W94194  25.498  16.576  13.345
24314W        W94195  31.545  13.793  14.871
24315W        W94196  44.794  22.616   4.824
24316W        W94197   7.369  37.379   3.803
24317W        W94198  28.496  35.495  14.996
24318W        W94199  40.891  44.973  11.600
24319W        W94200  24.494  21.118   4.149
24320W        W94201  14.288  32.507   1.246
24321W        W94202  25.052  31.042   3.644
24322W        W94203  23.236  17.147  11.013
24323W        W94204   9.871  15.304   4.637
24324W        W94205  36.555  26.680  10.893
24325W        W94206   4.394  31.900   0.781
24326W        W94207  30.139  23.146   2.374
24327W        W94208   3.929  29.030   0.346
24328W        W94209  18.253  25.521   1.266
24329W        W94210  28.490  42.779  10.501
24330W        W94211  14.787  17.607   0.893
24331W        W94212  31.930  30.918  13.980
24332W        W94213  29.515  14.718   3.307
24333W        W94214   5.264   0.457   2.377
24334W        W94215   9.729   9.353   1.320
24335W        W94216  39.819  43.368  14.964
24336W        W94217  28.980   1.237  12.518
24337W        W94218  28.159  23.535  13.943
24338W        W94219  27.529  31.067   4.211
24339W        W94220  35.392  25.174  10.633
24340W        W94221  30.998  11.279   3.863
24341W        W94222  33.513  22.232   1.428
24342W        W94223  31.581  35.029   4.291
24343W        W94224   1.388  25.148  11.450
24344W        W94225  14.187  37.505  13.473
24345W        W94226  21.261  34.422  11.964
24346W        W94227  35.370  23.174  13.873
24347W        W94228  33.003  10.833   2.393
24348W        W94229  13.839  28.554  10.597
24349W        W94230  36.444   3.893   1.759
24350W        W94231  34.047  43.777   2.247
24351W        W94232  23.057  21.634   3.747
24352W        W94233  10.274  37.856  13.000
24353W        W94234  39.826   5.701  14.508
24354W        W94235  31.119  21.649   3.249
24355W        W94236  15.605   1.956  10.521
24356W        W94237  37.568  31.624   3.638
24357W        W94238  26.195  23.535  14.426
24358W        W94239  15.290  12.790   1.413
24359W        W94240  42.851  31.439  14.870
24360W        W94241  14.732  35.923   4.230
24361W        W94242  19.702  42.478  11.592
24362W        W94243  36.388  39.391   1.854
24363W        W94244  37.414  13.688   3.288
24364W        W94245  24.573  17.713   1.727
24365W        W94246   8.353  31.639   2.272
24366W        W94247  16.788  42.805  14.759
24367W        W94248   6.812   0.256  14.379
24368W        W94249  21.685  30.482  12.858
24369W        W94250  30.065   3.434  12.967
24370W        W94251   9.869  17.152  10.133
24371W        W94252  28.445  42.432  11.562
24372W        W94253  12.829   1.364  13.454
24373W        W94254  43.802  11.678  12.412
24374W        W94255  12.326  12.699   1.877
24375W        W94256  23.599  42.490   3.763
24376W        W94257  27.539   5.406   4.180
24377W        W94258  33.499  40.475   1.284
24378W        W94259  36.378  14.589  11.490
24379W        W94260  26.097  31.567   4.658
24380W        W94261   3.453  35.080   3.632
24381W        W94262   2.782  29.026  13.017
24382W        W94263  42.990   7.896   4.264
24383W        W94264  22.578  14.161  12.970
24384W        W94265  20.249   2.261   4.684
24385W        W94266  18.180  33.492  14.300
24386W        W94267  44.286  13.675   1.923
24387W        W94268  44.381   3.842  13.454
24388W        W94269  16.743  40.504   4.285
24389W        W94270  10.681   2.408  12.456
24390W        W94271   8.704   3.460  12.531
24391W        W94272  16.606  15.649  11.099
24392W        W94273  12.331  16.109   5.244
24393W        W94274   6.295  42.437   2.680
24394W        W94275  29.992  40.500  11.998
24395W        W94276  42.948  31.524   2.335
24396W        W94277  34.003  10.269  13.485
24397W        W94278  33.971  41.479  10.997
24398W        W94279  42.008   9.258  10.550
24399W        W94280  38.519  16.222  12.383
24400W        W94281  41.455  25.162  14.812
24401W        W94282   0.891  33.400  14.954
24402W        W94283   2.744  42.873   1.316
24403W        W94284  29.655  26.561  14.952
24404W        W94285  39.025  16.208  13.901
24405W        W94286  21.180  24.137  11.474
24406W        W94287   4.737  22.704  12.030
24407W        W94288  25.043  12.330  13.412
24408W        W94289  33.013  20.711  10.414
24409W        W94290  19.657  25.524  13.841
24410W        W94291   5.222  25.622  14.959
24411W        W94292   3.935   6.227   4.307
24412W        W94293  21.669   6.355   2.897
24413W        W94294  27.641   2.403   4.313
24414W        W94295  30.609  42.825  14.814
24415W        W94296  11.141  19.658  12.090
24416W        W94297   6.707  22.117   4.220
24417W        W94298  42.932  25.980  12.427
24418W        W94299  26.979  30.999  14.482
24419W        W94300  31.577  32.595  14.332
24420W        W94301  24.523  34.589  12.493
24421W        W94302   2.354  12.185  13.423
24422W        W94303  35.943  22.007  12.895
24423W        W94304  38.505  34.502  10.446
24424W        W94305  38.882   5.882   2.273
24425W        W94306  29.586  18.072  11.563
24426W        W94307  21.026  41.043  11.404
24427W        W94308  18.564   7.814   3.858
24428W        W94309   3.919  38.931   4.253
24429W        W94310  16.238  43.316  14.814
24430W        W94311  40.969  13.730   4.783
24431W        W94312   1.898   2.847  12.562
24432W        W94313  41.969   3.956  10.594
24433W        W94314  26.488  13.141   3.249
24434W        W94315  16.672  36.049  13.520
24435W        W94316  21.074  20.547   0.743
24436W        W94317  39.936  20.168  12.033
24437W        W94318  37.852  17.068   0.771
24438W        W94319  40.848  30.633   2.693
24439W        W94320  33.546  30.434   3.653
24440W        W94321  22.670  21.109  14.344
24441W        W94322  28.515  39.004  14.889
24442W        W94323  25.108   1.896  14.887
24443W        W94324  42.016  40.898   2.847
24444W        W94325  13.145  43.822  12.950
24445W        W94326   8.693  19.552   4.672
24446W        W94327  39.390  22.678  10.012
24447W        W94328  13.270  41.821   3.218
24448W        W94329  22.513  32.064  10.506
24449W        W94330  22.604  43.929  14.919
24450W        W94331  24.077  26.667   0.934
24451W        W94332  18.639  15.179   1.406
24452W        W94333  41.452  22.596   1.261
24453W        W94334  30.616  26.192   0.468
24454W        W94335   6.263  32.138  12.547
24455W        W94336   3.772   3.433  10.106
24456W        W94337  33.002  30.040  13.791
24457W        W94338  25.014   0.269   3.246
24458W        W94339  38.519   0.771   2.413
24459W        W94340  13.236  20.539   4.158
24460W        W94341   1.440  22.191   1.858
24461W        W94342  34.049  10.776  13.345
24462W        W94343   4.448   3.933  11.015
24463W        W94344   8.171  41.481   1.765
24464W        W94345  36.486  44.954   4.353
24465W        W94346  31.623  39.873   1.829
24466W        W94347  23.734   7.884   4.173
24467W        W94348  41.837   5.822   9.943
24468W        W94349  39.954  10.856   0.794
24469W        W94350  17.629  18.248   0.326
24470W        W94351  40.989   6.311   3.153
24471W        W94352  38.012  33.075   3.279
24472W        W94353  16.217  42.902   2.272
24473W        W94354  24.709   7.791  13.531
24474W        W94355  13.156  10.323  10.049
24475W        W94356  33.397  11.350   0.791
24476W        W94357  42.963  15.260  13.830
24477W        W94358  27.677  44.856   0.861
24478W        W94359   2.309   5.715  10.581
24479W        W94360  28.142   8.397   1.889
24480W        W94361  39.326   2.412   3.779
24481W        W94362  41.312  18.169   3.193
24482W        W94363   6.244   8.737  14.960
24483W        W94364   6.736  27.966  14.762
24484W        W94365  29.579   2.751   3.705
24485W        W94366  42.995   5.928  12.983
24486W        W94367  32.446  38.505   2.190
24487W        W94368  12.810  18.677   0.812
24488W        W94369  22.092  27.530  11.918
24489W        W94370   0.917  23.698   2.182
24490W        W94371   4.836   8.168  14.836
24491W        W94372   3.280   4.822  14.455
24492W        W94373  10.195  44.338  12.914
24493W        W94374  27.105  17.791  13.508
24494W        W94375  26.528  16.297   2.759
24495W        W94376  42.421  11.213   1.834
24496W        W94377  23.190   8.377   3.308
24497W        W94378  12.687  29.636  13.312
24498W        W94379  31.036  11.639   1.248
24499W        W94380  24.524  32.138  14.957
24500W        W94381  28.151  34.058   1.876
24501W        W94382  30.545  41.833   0.867
24502W        W94383   5.398  15.721  12.450
24503W        W94384  34.518  41.040  12.351
24504W        W94385  10.765  41.820   2.808
24505W        W94386   5.332   2.921  13.806
24506W        W94387  29.088  29.152  12.888
24507W        W94388  25.068  22.197   0.857
24508W        W94389  25.676  28.581   1.783
24509W        W94390  28.113  11.708   1.898
24510W        W94391  43.282  35.108  12.031
24511W        W94392  42.476  44.921  14.888
24512W        W94393  20.694   6.212  10.951
24513W        W94394  29.059  25.712  10.133
24514W        W94395  10.288  22.718  12.515
24515W        W94396   5.739  30.113  11.548
24516W        W94397  13.831  38.331  13.929
24517W        W94398  28.183   8.174  10.574
24518W        W94399  35.944  41.346   3.383
24519W        W94400  39.438  27.494   4.641
24520W        W94401   3.244   8.337   2.213
24521W        W94402  32.524  37.570   3.712
24522W        W94403  24.725   2.355   1.415
24523W        W94404  44.776  17.266  13.437
24524W        W94405  39.949  15.297   3.632
24525W        W94406  41.446  29.120  10.584
24526W        W94407  35.542  41.401   3.851
24527W        W94408  39.871   2.324  12.347
24528W        W94409  28.939  25.004  10.471
24529W        W94410  15.666   4.376   2.311
24530W        W94411  39.433  28.617   4.608
24531W        W94412  13.137  27.102  14.904
24532W        W94413  44.755   8.283  13.354
24533W        W94414  30.594  33.469  12.534
24534W        W94415  42.877  15.734   2.275
24535W        W94416  17.642   5.264  12.951
24536W        W94417   4.873  16.076  12.544
24537W        W94418  26.153  36.588  14.335
24538W        W94419   4.315   0.266   4.747
24539W        W94420  32.394  25.644  10.513
24540W        W94421  25.558   1.265  13.433
24541W        W94422  33.124  19.695  10.560
24542W        W94423  13.814  34.023  13.022
24543W        W94424  33.909  42.876   4.608
24544W        W94425  14.762  26.518   1.932
24545W        W94426  32.401  29.626  11.402
24546W        W94427  31.586  34.985  13.852
24547W        W94428  16.122   1.746   2.271
24548W        W94429  30.909  25.650  13.004
24549W        W94430  41.486  41.909   3.329
24550W        W94431   7.821  14.734   4.645
24551W        W94432  11.129  16.596   1.332
24552W        W94433  38.326   9.746   2.845
24553W        W94434  11.793   9.342   0.729
24554W        W94435  18.675  27.566   0.764
24555W        W94436  44.483   9.305   2.398
24556W        W94437   8.378   8.683  10.602
24557W        W94438  21.225  40.382  12.523
24558W        W94439  20.662   1.347  10.506
24559W        W94440   8.827  17.163  10.929
24560W        W94441   7.688  40.478   1.434
24561W        W94442  20.248  33.542  13.408
24562W        W94443  23.496  34.614  14.455
24563W        W94444  28.601  40.377  14.478
24564W        W94445  33.590  34.523   4.714
24565W        W94446   4.856   9.388  14.942
24566W        W94447  15.322   7.865   3.706
24567W        W94448  16.751  30.089  13.490
24568W        W94449  37.038  10.753   2.334
24569W        W94450  14.700  29.594  11.505
24570W        W94451  17.104  22.154  11.584
24571W        W94452  42.452   9.840  11.014
24572W        W94453  41.532  17.616   0.764
24573W        W94454  32.975  16.074   2.782
24574W        W94455  24.716   6.403  10.405
24575W        W94456  26.570  44.294   1.267
24576W        W94457  34.598  41.390  14.786
24577W        W94458   8.242  12.299   2.833
24578W        W94459  28.992  23.151   4.151
24579W        W94460  30.987   8.320  14.326
24580W        W94461  31.586  10.354  12.579
24581W        W94462  41.998  33.586  10.970
24582W        W94463  24.037   4.854   2.705
24583W        W94464  25.576  40.983  13.993
24584W        W94465  40.976  32.397  13.885
24585W        W94466  44.809  27.495   3.320
24586W        W94467  33.558   9.889   1.277
24587W        W94468  30.100  43.460  12.573
24588W        W94469  19.158  12.330   1.773
24589W        W94470  28.585  35.437  13.379
24590W        W94471  34.418  40.829   1.727
24591W        W94472   9.161   0.945  11.508
24592W        W94473  41.328  22.124   0.956
24593W        W94474  32.560  19.195  12.983
24594W        W94475  41.786  13.347   2.242
24595W        W94476  38.570  31.977  12.882
24596W        W94477  17.296  33.968   4.674
24597W        W94478  21.642  44.863  10.905
24598W        W94479  14.801   5.210  13.970
24599W        W94480  28.445  29.529   1.934
24600W        W94481   0.937   3.823   2.869
24601W        W94482   3.224  37.844   4.808
24602W        W94483  23.675  26.016   4.187
24603W        W94484  16.583  30.632  12.858
24604W        W94485  38.333  22.071  13.492
24605W        W94486  23.229  38.846   0.895
24606W        W94487  43.970  17.584   4.330
24607W        W94488  14.589  12.295   1.815
24608W        W94489  13.337  17.749  11.015
24609W        W94490   5.731  11.797   4.757
24610W        W94491  31.027   5.380   3.151
24611W        W94492   2.351  17.556  14.861
24612W        W94493   1.418  43.483   1.373
24613W        W94494  28.100  24.551  11.974
24614W        W94495  27.022  11.344   2.728
24615W        W94496  17.185  35.020  12.008
24616W        W94497  28.451   6.248   3.770
24617W        W94498   0.965  38.448   0.349
24618W        W94499  21.182  14.129  10.526
24619W        W94500  23.519  37.427  11.530
24620W        W94501   5.857  26.563  13.980
24621W        W94502  16.190   7.310  10.426
24622W        W94503  35.044  35.025   2.369
24623W        W94504  40.029   3.790   2.319
24624W        W94505  37.060  10.792   3.786
24625W        W94506  18.614   2.963  14.892
24626W        W94507  41.951   4.798   4.763
24627W        W94508  19.243  23.567   4.809
24628W        W94509  17.118   7.346  11.580
24629W        W94510  13.810  14.185  14.422
24630W        W94511  22.222  39.395   3.202
24631W        W94512   9.683  32.897  14.440
24632W        W94513   6.738  30.934  11.491
24633W        W94514  42.960  16.093  11.465
24634W        W94515  13.259  41.987  12.886
24635W        W94516  34.615  35.364   2.241
24636W        W94517   9.781  22.656  11.902
24637W        W94518  20.679  20.594  11.604
24638W        W94519  33.401  44.357  14.281
24639W        W94520  31.967  44.387   1.797
24640W        W94521  41.358   8.296   3.361
24641W        W94522  33.390  42.396   2.853
24642W        W94523  38.419  29.960  12.510
24643W        W94524   4.722  40.845   1.419
24644W        W94525   3.752  18.290   0.940
24645W        W94526  21.182   5.212   1.232
24646W        W94527  30.518   6.845  11.859
24647W        W94528  39.411   3.758  13.882
24648W        W94529   9.798  20.262   2.412
24649W        W94530  15.665   2.240   2.674
24650W        W94531  10.785  16.581   2.885
24651W        W94532  28.037  34.968   0.270
24652W        W94533   7.286  29.431  12.362
24653W        W94534  44.859  10.318  11.574
24654W        W94535  30.618  41.486  11.504
24655W        W94536  29.660  21.653  14.324
24656W        W94537  30.091  31.502   3.231
24657W        W94538   3.801  38.881   2.854
24658W        W94539   8.339  24.540   0.440
24659W        W94540  32.040  29.007   4.669
24660W        W94541  17.593   9.374  13.894
24661W        W94542  13.803  11.755   4.720
24662W        W94543  10.157   0.830  10.587
24663W        W94544  24.090  30.528   2.329
24664W        W94545  28.611  23.241   3.678
24665W        W94546  12.271  21.602  13.320
24666W        W94547   5.195  22.159   0.846
24667W        W94548   5.203  20.198  12.045
24668W        W94549   5.778  15.202  13.992
24669W        W94550  19.723  32.494  14.277
24670W        W94551  15.328  11.136  12.400
24671W        W94552  40.018  30.165  11.511
24672W        W94553  30.463  39.552  11.012
24673W        W94554   3.405  27.991   3.664
24674W        W94555  22.714  44.425   0.959
24675W        W94556   1.238   3.429   1.413
24676W        W94557  12.231  39.049   1.781
24677W        W94558  12.323  17.745  10.568
24678W        W94559  39.945   0.956  12.482
24679W        W94560  32.011  37.846   3.379
24680W        W94561  43.425  29.151   0.838
24681W        W94562  27.965  18.745   0.335
24682W        W94563   3.780  31.599   4.324
24683W        W94564  11.777  17.760  12.006
24684W        W94565  37.931  20.534   2.675
24685W        W94566   9.160   1.239  13.993
24686W        W94567  25.581  41.981  12.440
24687W        W94568   1.852  13.222  14.772
24688W        W94569  41.827   6.221   5.302
24689W        W94570  19.544  36.884   2.387
24690W        W94571  35.416  17.272   2.377
24691W        W94572  26.005  27.066   0.822
24692W        W94573  41.313  11.775   2.237
24693W        W94574  16.218  33.516   3.250
24694W        W94575  20.588  39.490   3.815
24695W        W94576   9.828  32.053  11.022
24696W        W94577  33.890   9.771  13.447
24697W        W94578  10.297  16.680  13.353
24698W        W94579  14.821  36.553  10.152
24699W        W94580  27.138  25.964   2.836
24700W        W94581   3.931   4.786   4.204
24701W        W94582  36.022  44.343  10.935
24702W        W94583  27.097  38.364  13.453
24703W        W94584  39.940  42.293   2.348
24704W        W94585   8.799  34.973   0.906
24705W        W94586  29.147  23.084   3.279
24706W        W94587  15.096  21.242  14.991
24707W        W94588   1.371  36.914  13.897
24708W        W94589  38.964  33.972   0.855
24709W        W94590   8.743   7.674   4.729
24710W        W94591   8.869  25.086  11.505
24711W        W94592  41.459  12.719  10.919
24712W        W94593  43.282  33.952   3.675
24713W        W94594   6.687  33.607   4.730
24714W        W94595  25.157  42.302   3.641
24715W        W94596  33.602   1.279   1.235
24716W        W94597  32.580  25.525   0.478
24717W        W94598  26.994  15.287  13.533
24718W        W94599   9.680  29.020  13.392
24719W        W94600  43.312  19.734   0.358
24720W        W94601  25.044   2.324  11.950
24721W        W94602  13.228  29.953   2.355
24722W        W94603  27.074  10.273  13.934
24723W        W94604  44.975  32.974  12.543
24724W        W94605  13.286  30.526   9.955
24725W        W94606  21.536  36.973   0.958
24726W        W94607  18.570   4.780   0.392
24727W        W94608  19.585   3.734  12.851
24728W        W94609   9.194  30.134  14.403
24729W        W94610  34.591   0.312  12.901
24730W        W94611  22.607  12.806   0.784
24731W        W94612  24.542  16.252   0.764
24732W        W94613   3.264  18.253   3.363
24733W        W94614   3.445  41.408   0.349
24734W        W94615  23.514  29.986   4.674
24735W        W94616  43.513  39.548   3.761
24736W        W94617  37.975  10.653  14.437
24737W        W94618  35.464   1.312   4.268
24738W        W94619   8.894  17.081   5.237
24739W        W94620   9.684  31.064  14.822
24740W        W94621   3.371  18.069  11.378
24741W        W94622  33.914  15.648   4.214
24742W        W94623  35.507   4.716  10.415
24743W        W94624   5.287  14.834  11.933
24744W        W94625  28.955  15.737  13.993
24745W        W94626  41.531  21.094   1.398
24746W        W94627  41.486  26.137  13.025
24747W        W94628  15.783   7.793  10.900
24748W        W94629  18.272  42.011  11.979
24749W        W94630  44.775  31.913  11.915
24750W        W94631   5.218  16.794  12.462
24751W        W94632   3.882  43.509  12.910
24752W        W94633  34.920  35.416   2.243
24753W        W94634  34.432  29.919  12.530
24754W        W94635  14.826  39.416  14.328
24755W        W94636  19.687  23.495  12.518
24756W        W94637  25.982   4.229   0.868
24757W        W94638  44.860  15.676   2.413
24758W        W94639  21.131  37.563  14.926
24759W        W94640  27.025   5.889  11.951
24760W        W94641  34.886  42.994   3.801
24761W        W94642  36.519   3.893   4.338
24762W        W94643   5.299  12.634   3.231
24763W        W94644  26.566   8.742   4.688
24764W        W94645  23.063  10.355   2.348
24765W        W94646  28.623  22.116  11.513
24766W        W94647  28.490  36.038   3.646
24767W        W94648  17.092  13.770  11.879
24768W        W94649  13.249   2.754   1.370
24769W        W94650  27.981  28.115  14.869
24770W        W94651   9.844  42.501   3.215
24771W        W94652  41.823  42.935   4.162
24772W        W94653  22.127  30.584   4.781
24773W        W94654  20.220  10.175  14.294
24774W        W94655   3.954  37.546  11.397
24775W        W94656   3.791   1.858  14.474
24776W        W94657  41.841  43.361   0.935
24777W        W94658  29.016   3.947  12.936
24778W        W94659  17.703  31.063  10.536
24779W        W94660  12.631  21.224  12.044
24780W        W94661  19.125  39.344  12.423
24781W        W94662  35.991  24.994  11.480
24782W        W94663  12.273  35.420   0.460
24783W        W94664  23.620  43.273   1.232
24784W        W94665  20.158  19.239  11.435
24785W        W94666  19.280   9.310  14.393
24786W        W94667  32.578   8.306   2.669
24787W        W94668   4.808  24.173   1.697
24788W        W94669  13.782   7.886  11.502
24789W        W94670   7.244  19.230   1.705
24790W        W94671  24.083   0.861   4.177
24791W        W94672  23.723  18.556  13.505
24792W        W94673  27.021  41.923  14.897
24793W        W94674   8.822   9.765  13.928
24794W        W94675  16.203   3.332   4.311
24795W        W94676  44.998  43.995   3.774
24796W        W94677  42.425  30.497  12.079
24797W        W94678  29.573  32.425  11.969
24798W        W94679  38.429   7.355   3.742
24799W        W94680  23.008   7.838   0.455
24800W        W94681   2.926  22.999  10.594
24801W        W94682   4.789  17.705  11.428
24802W        W94683  16.184  37.839  14.030
24803W        W94684  32.001  37.038  14.371
24804W        W94685  42.405  27.084   3.858
24805W        W94686  11.182  13.183   0.949
24806W        W94687  22.099  10.828  11.513
24807W        W94688  34.103  28.615  12.566
24808W        W94689  33.090  17.606   4.288
24809W        W94690  28.456  44.501   3.252
24810W        W94691  21.168   7.191   1.922
24811W        W94692  30.153   4.424   4.169
24812W        W94693   3.736  10.365  14.437
24813W        W94694   6.305  39.448  14.780
24814W        W94695  42.400  32.990  14.297
24815W        W94696   8.728   1.258  13.928
24816W        W94697  39.367   7.720  13.999
24817W        W94698  31.425  26.479  10.935
24818W        W94699  30.436  11.834   0.885
24819W        W94700  14.712  42.525   2.833
24820W        W94701  35.930  44.872   3.301
24821W        W94702  44.935  38.429  12.886
24822W        W94703  21.683  41.363  12.404
24823W        W94704  33.466  42.818   2.263
24824W        W94705   2.728  22.166   2.719
24825W        W94706  12.323  16.290   3.646
24826W        W94707  30.539  39.435   4.126
24827W        W94708  39.396   8.803   1.767
24828W        W94709  40.833  44.470   3.851
24829W        W94710  17.560  35.513  10.418
24830W        W94711  16.703  37.841   0.938
24831W        W94712  21.124  27.954   3.722
24832W        W94713  11.683  16.084   5.304
24833W        W94714  11.745   3.851   2.779
24834W        W94715   8.809  14.167   3.266
24835W        W94716  34.471  31.588   4.163
24836W        W94717  21.107  15.253  13.398
24837W        W94718  21.100  10.300   4.656
24838W        W94719  17.573   8.887  14.972
24839W        W94720  44.994  30.997   0.846
24840W        W94721  24.060  22.714  11.949
24841W        W94722  34.459  19.243   3.656
24842W        W94723  28.114  30.959  10.488
24843W        W94724   5.397  13.751   4.122
24844W        W94725  42.871  18.716   1.430
24845W        W94726  30.106  13.311   3.196
24846W        W94727  41.372  33.393  13.002
24847W        W94728  19.776  30.509  14.880
24848W        W94729   5.823  41.874  12.547
24849W        W94730  17.283  12.770  10.617
24850W        W94731  25.538   2.436   4.137
24851W        W94732  14.233  29.547  10.920
24852W        W94733  23.089  21.248   1.885
24853W        W94734  20.169  44.876   0.759
24854W        W94735  40.483  10.238   0.391
24855W        W94736  18.203  22.071   1.906
24856W        W94737  42.788  30.960  12.906
24857W        W94738   4.786   1.737   4.338
24858W        W94739   5.718   3.865  12.491
24859W        W94740   7.322  24.481   4.246
24860W        W94741  36.960  16.254   3.270
24861W        W94742   0.793  37.425   5.210
24862W        W94743   6.404  36.347   3.689
24863W        W94744  33.490   5.883   1.369
24864W        W94745   5.350  31.079   1.290
24865W        W94746  25.980  33.885   4.673
24866W        W94747  40.871  17.203   4.691
24867W        W94748   0.883   1.827  11.373
24868W        W94749  44.366  44.753   1.374
24869W        W94750   2.327  10.308  10.155
24870W        W94751  44.789  15.200  14.478
24871W        W94752   1.878  43.466   0.847
24872W        W94753   3.920  29.091  10.596
24873W        W94754   7.326  41.863   0.453
24874W        W94755  13.254  42.005  14.008
24875W        W94756  18.290  31.957   1.838
24876W        W94757  13.675  21.019  12.861
24877W        W94758  44.863  23.535  12.035
24878W        W94759  24.052  38.552  12.838
24879W        W94760   9.877  33.982  11.075
24880W        W94761  29.520  39.447   0.373
24881W        W94762  43.928  10.720  12.030
24882W        W94763  39.442  34.468   3.864
24883W        W94764  25.190  21.133  11.548
24884W        W94765   2.792  19.538   0.954
24885W        W94766  25.192  37.960  10.461
24886W        W94767  31.551   2.317  12.533
24887W        W94768  27.058  44.488   1.212
24888W        W94769  25.154  29.949  10.485
24889W        W94770  29.658   8.672   5.312
24890W        W94771  41.953  10.809  11.474
24891W        W94772  19.727   9.780   2.720
24892W        W94773   1.957  18.134   1.729
24893W        W94774  23.205   2.912   4.173
24894W        W94775   0.832  11.171  13.494
24895W        W94776  22.038   4.379   4.790
24896W        W94777   2.929  30.910  10.971
24897W        W94778   4.405   6.918   2.280
24898W        W94779  40.516  35.071   1.857
24899W        W94780   5.693  14.829  12.013
24900W        W94781  29.520  29.964   3.853
24901W        W94782   8.183  10.714   1.362
24902W        W94783   6.697  30.635   0.891
24903W        W94784   1.299  29.597   1.376
24904W        W94785   5.303  15.787   0.904
24905W        W94786  25.607  38.495  12.859
24906W        W94787   8.183  19.159  11.066
24907W        W94788  11.236  17.167   0.782
24908W        W94789  11.247  30.595  10.983
24909W        W94790  18.200  30.525  11.098
24910W        W94791  21.704   1.333   4.666
24911W        W94792  26.113  34.464   1.385
24912W        W94793  44.011   4.881  14.315
24913W        W94794  28.159  11.853  12.484
24914W        W94795  14.702   2.799  11.989
24915W        W94796  34.937   2.875   3.639
24916W        W94797  39.855  24.125  10.638
24917W        W94798   5.840  36.369  13.533
24918W        W94799   8.387   8.727   3.202
24919W        W94800   7.321  23.527   4.153
24920W        W94801  32.899  10.285  11.454
24921W        W94802   1.960  43.468   1.726
24922W        W94803  44.918  16.308   1.697
24923W        W94804  30.914  16.098  10.618
24924W        W94805  11.349  36.551  14.029
24925W        W94806  28.176  34.423   3.184
24926W        W94807  20.181  35.384  10.508
24927W        W94808   1.396   0.969  13.973
24928W        W94809  15.167  32.450   3.853
24929W        W94810  15.266  23.985   2.749
24930W        W94811  23.225  11.649   0.349
24931W        W94812  19.241  44.359   4.685
24932W        W94813   2.743  12.133   0.911
24933W        W94814   8.858  26.485   2.673
24934W        W94815   7.323  35.515  12.440
24935W        W94816  27.180  12.741  11.857
24936W        W94817  38.407   2.345  11.512
24937W        W94818  44.910  33.084  14.482
24938W        W94819   5.423  43.288   2.382
24939W        W94820  11.648  20.231  13.028
24940W        W94821  15.128  27.093   0.453
24941W        W94822  39.870  33.977   3.311
24942W        W94823   0.473  26.676   0.440
24943W        W94824  22.062  19.772   2.368
24944W        W94825  19.167   9.763  12.959
24945W        W94826  41.024   6.857   2.842
24946W        W94827  34.112   0.766   4.821
24947W        W94828   2.401  40.998  14.492
24948W        W94829  25.578  38.848  12.069
24949W        W94830  13.638  12.254   2.840
24950W        W94831  12.125  12.310   2.796
24951W        W94832   0.414  22.111   3.806
24952W        W94833  44.343   7.753  12.359
24953W        W94834  21.209  14.216   5.111
24954W        W94835  44.421  28.549   0.415
24955W        W94836  44.346  17.726  13.837
24956W        W94837   9.728   8.757   4.676
24957W        W94838  15.664  29.063  11.580
24958W        W94839  33.888  29.162   4.810
24959W        W94840  30.633   4.212  12.935
24960W        W94841  32.557  31.524  13.871
24961W        W94842  33.490  23.514  14.838
24962W        W94843   2.466  36.935   0.864
24963W        W94844  41.884  25.499   1.221
24964W        W94845  44.963  25.198  14.389
24965W        W94846  37.917  22.573   0.272
24966W        W94847  10.678   9.313   3.681
24967W        W94848  36.064   8.160   4.306
24968W        W94849  37.956   0.450   3.778
24969W        W94850  38.049  17.247   1.922
24970W        W94851   1.441  44.814  13.968
24971W        W94852   0.338  10.138   1.831
24972W        W94853  31.587  29.025  11.444
24973W        W94854  12.668  15.090  13.039
24974W        W94855  44.968  35.570  10.583
24975W        W94856   3.402  37.345  14.009
24976W        W94857  15.612  36.074   3.730
24977W        W94858  43.851   8.320  12.540
24978W        W94859   6.678  19.128   0.342
24979W        W94860   7.765  38.943  13.816
24980W        W94861  23.080  16.618   2.898
24981W        W94862  41.381   1.447  13.050
24982W        W94863   1.254  43.416   2.844
24983W        W94864  13.163  26.955  14.021
24984W        W94865  39.921   1.406   4.769
24985W        W94866  25.669   3.242  13.349
24986W        W94867   7.851  32.568  12.012
24987W        W94868  10.310   9.807   0.458
24988W        W94869   6.779  42.516  10.592
24989W        W94870  26.576   3.417   4.742
24990W        W94871   6.888  22.136  14.482
24991W        W94872  25.001  41.458   4.235
24992W        W94873  19.161  13.719  13.521
24993W        W94874  41.022  34.962  14.853
24994W        W94875  23.175  44.928  14.792
24995W        W94876  38.983   5.256   4.244
24996W        W94877  14.732   4.713   1.749
24997W        W94878   7.891  29.982   4.331
24998W        W94879  42.798  14.170   3.379
24999W        W94880  11.812  24.990  11.431
25000W        W94881  38.837   3.427  11.105
25001W        W94882  44.375  34.423  10.977
25002W        W94883  13.771  29.163  10.907
25003W        W94884   0.946  41.952   1.908
25004W        W94885   3.273   7.837   0.801
25005W        W94886  40.979   5.743  14.457
25006W        W94887   9.156  22.679   4.329
25007W        W94888  39.545  21.720   0.891
25008W        W94889  16.582  15.300   0.905
25009W        W94890  10.296  33.995   1.738
25010W        W94891  41.813  10.683  12.342
25011W        W94892  28.459   3.803   1.341
25012W        W94893  33.536   4.427   4.688
25013W        W94894  16.242  39.876  13.862
25014W        W94895  29.574  29.079   0.355
25015W        W94896  43.459  28.473  10.930
25016W        W94897   0.358  38.018  12.965
25017W        W94898   0.747   5.392  14.385
25018W        W94899  43.933  29.469  12.845
25019W        W94900  10.309  40.840   4.768
25020W        W94901   8.673  20.076   2.219
25021W        W94902  33.082  25.206  13.005
25022W        W94903  32.636  26.079  11.489
25023W        W94904  37.968  38.986   3.380
25024W        W94905   5.870   1.821  10.442
25025W        W94906  25.172   7.712  12.006
25026W        W94907  12.850   3.811  11.011
25027W        W94908   7.387   7.838   4.656
25028W        W94909  27.110   8.315  13.906
25029W        W94910  26.568  28.664  14.329
25030W        W94911   9.673  19.210  14.947
25031W        W94912   4.770  34.498   4.179
25032W        W94913  36.894  25.037   3.697
25033W        W94914  35.492   8.250  14.446
25034W        W94915  29.009   6.684  11.044
25035W        W94916   1.847  33.079  12.043
25036W        W94917  43.006  24.080   2.710
25037W        W94918   4.753  34.595  14.347
25038W        W94919  34.469  22.010   4.657
25039W        W94920  38.062  21.542   4.310
25040W        W94921   8.891  30.988   0.825
25041W        W94922  32.012  22.036   1.439
25042W        W94923   3.772  37.485   1.380
25043W        W94924  30.421   3.392  14.885
25044W        W94925  35.018  35.598  13.844
25045W        W94926  34.962  32.509   2.721
25046W        W94927  12.684  42.882   2.787
25047W        W94928  35.419  35.877  12.967
25048W        W94929  28.979  44.344  14.883
25049W        W94930  13.236  40.000  12.400
25050W        W94931  36.969  32.438   4.690
25051W        W94932  31.536  33.567   2.782
25052W        W94933  15.219  16.204  14.455
25053W        W94934  27.082  39.014   4.221
25054W        W94935  37.893  33.496   2.794
25055W        W94936  43.494  36.958  12.457
25056W        W94937  22.245  26.493  10.551
25057W        W94938  10.371  19.554   0.456
25058W        W94939  37.999  14.226  13.953
25059W        W94940  23.699  30.420   3.680
25060W        W94941  15.308  26.115   0.787
25061W        W94942  44.966   6.690  11.400
25062W        W94943  20.121  22.170  11.401
25063W        W94944  29.027   3.876   4.298
25064W        W94945  12.207  39.841   1.870
25065W        W94946  25.679  41.928  13.409
25066W        W94947   7.876  33.437   4.145
25067W        W94948   4.228  43.462  12.884
25068W        W94949  29.431   6.856   1.427
25069W        W94950   3.350  34.587   4.165
25070W        W94951  34.415  13.750  14.021
25071W        W94952  18.670  20.651  12.847
25072W        W94953  41.031  31.089  14.767
25073W        W94954   2.902  40.537   4.744
25074W        W94955  41.344  42.929  13.537
25075W        W94956  19.721  22.131   0.786
25076W        W94957   1.882  19.249  12.926
25077W        W94958   3.782  37.973  12.367
25078W        W94959  21.688  16.611  14.879
25079W        W94960  11.764  13.821   2.371
25080W        W94961   0.986  44.503  12.468
25081W        W94962  40.484  42.813   4.664
25082W        W94963  23.729  36.557  11.908
25083W        W94964  19.228  35.023  13.007
25084W        W94965  30.153  21.120   0.481
25085W        W94966  33.973  42.319   4.627
25086W        W94967   1.425  18.087   2.250
25087W        W94968  37.381  35.069   0.944
25088W        W94969  13.649  39.876   0.391
25089W        W94970  26.499  37.518  10.489
25090W        W94971  19.534  13.823   3.837
25091W        W94972  25.072   8.748  13.452
25092W        W94973  35.411  32.458  14.965
25093W        W94974  30.959  43.854  13.919
25094W        W94975  44.465  33.435  10.637
25095W        W94976   7.796   9.270  13.444
25096W        W94977  12.314  39.933   3.823
25097W        W94978  32.945  10.693   4.655
25098W        W94979  40.519  41.942   4.824
25099W        W94980  35.557   0.373   4.287
25100W        W94981  16.728  26.968   3.246
25101W        W94982  20.637  42.460   0.434
25102W        W94983  40.969  17.103  11.880
25103W        W94984  19.720  12.745  14.486
25104W        W94985  26.187  36.568   2.754
25105W        W94986  22.051   8.836   4.673
25106W        W94987  37.508  43.825   4.690
25107W        W94988  42.842  35.412  12.019
25108W        W94989  40.012   6.272   4.349
25109W        W94990   3.441  13.656   4.328
25110W        W94991  35.503   4.776  14.964
25111W        W94992  14.731  44.770   2.410
25112W        W94993  29.450  12.791  10.445
25113W        W94994  36.924  26.542   0.888
25114W        W94995  34.025  30.485  14.972
25115W        W94996  44.396  19.716  11.042
25116W        W94997  29.622   5.910   2.405
25117W        W94998  26.467   5.216   4.196
25118W        W94999  13.681  15.127  14.919
25119W        W95000  16.238   0.284  12.914
25120W        W95001   1.868   6.354  13.877
25121W        W95002  10.362   8.861  13.936
25122W        W95003  39.863  26.562   0.761
25123W        W95004  36.357  33.399   4.250
25124W        W95005  16.806  38.476  13.333
25125W        W95006  41.506  25.650   1.786
25126W        W95007  20.570  14.673   4.748
25127W        W95008  11.773  38.411   1.360
25128W        W95009  17.577   7.758  11.436
25129W        W95010   0.882  40.872   4.190
25130W        W95011   5.431  42.340   2.182
25131W        W95012  28.522  17.607   3.234
25132W        W95013  16.253   3.803  12.880
25133W        W95014  43.000  35.438   0.481
25134W        W95015  34.423  25.992   1.891
25135W        W95016  31.436  31.943  14.378
25136W        W95017  31.957  18.155   0.340
25137W        W95018  38.923  32.983   9.931
25138W        W95019   0.780  35.434   4.697
25139W        W95020  34.526   0.743   3.645
25140W        W95021   2.733  12.778   4.293
25141W        W95022   0.908  20.043   0.364
25142W        W95023  38.997  14.628  13.948
25143W        W95024  42.310  35.033   2.769
25144W        W95025  12.623  12.130   3.251
25145W        W95026  25.574  34.040  14.446
25146W        W95027  26.066  41.301   4.694
25147W        W95028  12.631  31.945   1.365
25148W        W95029  16.209   1.385  10.889
25149W        W95030  13.784  22.608  10.967
25150W        W95031  17.249   3.229   4.811
25151W        W95032  35.976  16.117   2.787
25152W        W95033   2.394  11.723  10.939
25153W        W95034  42.894   8.784   1.275
25154W        W95035  20.062  40.405  13.954
25155W        W95036  18.665  40.534   3.630
25156W        W95037  25.177  30.045  12.507
25157W        W95038  42.409  22.568   1.749
25158W        W95039   4.434  43.937   0.801
25159W        W95040  38.931  14.693  11.897
25160W        W95041   6.382  21.586  10.419
25161W        W95042  34.569   1.387   0.801
25162W        W95043  10.741  28.979  12.846
25163W        W95044   6.882   8.291   2.742
25164W        W95045  36.935  34.015   3.247
25165W        W95046  27.039  24.690   2.881
25166W        W95047  39.538  28.001  10.618
25167W        W95048  38.471  36.529   3.759
25168W        W95049  31.150  11.328  12.556
25169W        W95050  29.140  21.513   4.631
25170W        W95051  20.034  42.796  13.907
25171W        W95052   1.838  31.985  14.958
25172W        W95053  33.891  13.257  11.511
25173W        W95054  18.282  34.487   0.456
25174W        W95055  44.261  24.562  12.863
25175W        W95056  38.041  29.437   3.803
25176W        W95057  14.207   5.439   4.242
25177W        W95058  44.460  28.065  10.636
25178W        W95059   9.259  44.414   0.899
25179W        W95060   7.791  37.405   2.384
25180W        W95061   1.269   7.707   1.912
25181W        W95062  21.116  21.699  14.891
25182W        W95063  36.951  25.977   1.372
25183W        W95064  42.801  43.365   2.359
25184W        W95065  27.579   0.359   1.248
25185W        W95066  36.956  38.905  11.460
25186W        W95067  26.606  37.367  12.459
25187W        W95068  14.764  35.362   0.853
25188W        W95069  20.117   4.340   1.383
25189W        W95070  34.593  34.444   4.597
25190W        W95071  27.164  14.242   1.740
25191W        W95072  10.249  38.361   2.336
25192W        W95073  32.107   5.920   0.439
25193W        W95074   0.480  28.116   0.423
25194W        W95075  11.167   7.206  11.937
25195W        W95076  34.909  32.636   4.341
25196W        W95077   2.922   0.952   0.742
25197W        W95078   2.766  40.392  12.355
25198W        W95079  33.109   5.797   1.788
25199W        W95080   3.398  28.001   0.902
25200W        W95081  36.955   2.765   1.261
25201W        W95082  28.467  40.505   2.699
25202W        W95083  26.032  10.820   2.768
25203W        W95084  16.158  31.450   4.732
25204W        W95085  25.625  39.853  13.370
25205W        W95086  17.693  27.579   0.332
25206W        W95087  32.477  41.022   1.403
25207W        W95088   0.851  44.955   3.230
25208W        W95089   0.771   8.351  11.549
25209W        W95090  35.096  36.503  10.410
25210W        W95091   3.859  21.520   2.282
25211W        W95092  12.260  17.100  13.467
25212W        W95093  18.293  13.812   4.230
25213W        W95094  15.621   5.811  13.471
25214W        W95095   5.250  32.008  11.920
25215W        W95096   7.824  30.123  11.403
25216W        W95097  16.754  26.192  12.488
25217W        W95098  44.926  38.417  11.374
25218W        W95099  44.758  43.331  11.873
25219W        W95100  14.607  16.783   3.637
25220W        W95101  13.303  30.612  12.550
25221W        W95102   2.320   7.224   1.274
25222W        W95103  26.614  10.767  14.419
25223W        W95104  41.983  19.683   1.255
25224W        W95105  41.013  17.083   2.417
25225W        W95106  35.022  41.885   2.376
25226W        W95107  42.477  15.209   4.118
25227W        W95108   5.860  37.545  13.482
25228W        W95109  26.090  21.112  11.011
25229W        W95110  41.422  18.179   1.763
25230W        W95111  40.354   2.835   3.251
25231W        W95112  19.659  17.189  12.003
25232W        W95113   5.386   7.709   0.743
25233W        W95114  17.288  20.092  11.083
25234W        W95115  19.181  25.673  12.394
25235W        W95116  34.012   9.725   3.157
25236W        W95117   9.208   4.370  14.989
25237W        W95118  28.502  20.639  13.529
25238W        W95119  11.195  31.037   2.215
25239W        W95120  42.360  15.777   3.631
25240W        W95121  17.645  12.180  13.833
25241W        W95122  10.802  28.675   1.426
25242W        W95123  24.024   4.769  12.417
25243W        W95124   9.747  29.013  13.817
25244W        W95125  28.001  41.499   1.277
25245W        W95126  14.190   7.177  13.813
25246W        W95127  20.134   0.959  13.503
25247W        W95128  34.023   7.325   2.851
25248W        W95129   0.906  15.608  14.473
25249W        W95130   6.337  12.846   4.809
25250W        W95131  26.627  25.211   0.965
25251W        W95132   4.403   2.320   4.128
25252W        W95133  29.922  43.921   1.705
25253W        W95134   9.788  33.380  11.501
25254W        W95135  31.057   6.232  12.864
25255W        W95136  42.022  23.676   4.652
25256W        W95137   6.350  10.860  10.997
25257W        W95138  39.915  37.932   0.896
25258W        W95139   4.395  23.602  13.362
25259W        W95140  21.123  43.474  10.995
25260W        W95141  29.558  27.195   1.795
25261W        W95142   5.316  32.616   0.480
25262W        W95143  29.580  25.488   4.726
25263W        W95144   0.776  29.048  14.514
25264W        W95145  30.924  19.725  11.095
25265W        W95146   6.339  27.593  11.006
25266W        W95147  22.639   1.830   4.618
25267W        W95148  36.918  34.987  12.974
25268W        W95149  13.116   6.720   2.835
25269W        W95150  24.090  34.434   4.822
25270W        W95151  42.952  25.475   2.814
25271W        W95152  32.891  27.581  12.372
25272W        W95153  43.282  42.008   0.483
25273W        W95154   6.339  12.167  13.374
25274W        W95155  19.110   3.256   5.224
25275W        W95156  35.990  24.027   3.636
25276W        W95157  17.686  13.721   1.753
25277W        W95158  33.094  12.629  14.476
25278W        W95159  36.396  42.988   1.425
25279W        W95160  35.857  29.446  12.069
25280W        W95161  21.607  14.829  11.029
25281W        W95162  43.825  39.938  11.127
25282W        W95163  34.099  35.028  10.946
25283W        W95164   6.686  21.520   1.728
25284W        W95165  28.930  16.224   3.337
25285W        W95166  25.103  42.520   3.220
25286W        W95167  15.202  38.342  13.401
25287W        W95168  22.728   3.319  12.349
25288W        W95169  31.595  34.957  11.120
25289W        W95170  34.070  16.678   4.290
25290W        W95171  37.062   7.303  14.869
25291W        W95172   7.870   8.853  14.987
25292W        W95173   9.746  13.736   2.329
25293W        W95174  44.320  11.133  11.595
25294W        W95175  20.655  28.980  14.871
25295W        W95176  18.752  10.275   0.819
25296W        W95177  32.446   0.803  11.422
25297W        W95178  15.252  23.591  10.942
25298W        W95179  31.451   5.296  11.898
25299W        W95180  19.756  28.438  11.526
25300W        W95181  42.928   2.243   3.345
25301W        W95182  34.917  19.768   2.290
25302W        W95183  10.785  39.433  13.815
25303W        W95184  12.357  25.050   1.388
25304W        W95185  43.881  19.238   2.409
25305W        W95186  14.113  20.694  11.939
25306W        W95187  24.189  17.171  13.815
25307W        W95188  43.349  17.666   0.788
25308W        W95189   2.406  21.198   1.244
25309W        W95190  38.429  41.429  11.598
25310W        W95191  15.169  15.688  10.480
25311W        W95192  27.072  15.767   1.364
25312W        W95193  29.148  26.103   2.395
25313W        W95194  22.583   7.225   2.882
25314W        W95195  40.386   7.350  13.836
25315W        W95196  40.008  34.979   2.671
25316W        W95197  26.132  16.145  10.518
25317W        W95198   6.876  17.567  13.438
25318W        W95199   6.877  12.304  12.063
25319W        W95200  28.087  21.623  10.522
25320W        W95201   1.862  44.813  13.951
25321W        W95202  12.802  13.161   1.878
25322W        W95203  24.600  43.302  12.482
25323W        W95204  16.119   6.365   2.894
25324W        W95205  43.362  19.769  10.919
25325W        W95206  31.561  27.564  11.502
25326W        W95207  30.623  28.438   1.374
25327W        W95208  26.202  42.477   1.827
25328W        W95209  36.906  44.388  14.469
25329W        W95210  43.365   1.882  13.416
25330W        W95211  19.707  14.335   3.199
25331W        W95212  19.655  24.089   1.243
25332W        W95213  31.646  33.460   0.408
25333W        W95214  30.651  21.155  12.889
25334W        W95215  37.860   9.682   2.737
25335W        W95216   1.453  17.208   2.248
25336W        W95217  10.853  28.512  12.894
25337W        W95218  32.128  25.188  14.906
25338W        W95219  34.051  40.321  10.081
25339W        W95220   4.698  32.542   0.932
25340W        W95221  12.780  27.011   3.323
25341W        W95222  14.203   8.168  14.351
25342W        W95223  14.772  39.419  12.917
25343W        W95224  22.622  11.797  10.596
25344W        W95225  33.576  26.068   4.342
25345W        W95226  33.002  15.239   3.387
25346W        W95227   3.274  27.105  14.359
25347W        W95228  14.167  25.508   0.887
25348W        W95229  40.308  40.442   4.286
25349W        W95230  28.102  18.103   4.642
25350W        W95231  38.375  19.641   0.762
25351W        W95232  40.379  10.289   2.402
25352W        W95233  35.387  16.186  11.072
25353W        W95234   3.802  15.206   0.890
25354W        W95235  29.450  42.473   0.892
25355W        W95236  32.901  30.907  10.584
25356W        W95237   1.253  40.316  13.932
25357W        W95238  39.488  26.175  10.493
25358W        W95239   7.365  31.055  12.883
25359W        W95240  44.999  34.545   3.345
25360W        W95241  19.280  22.577   3.867
25361W        W95242  37.950   1.262   2.277
25362W        W95243  16.184  36.590   3.845
25363W        W95244  42.900  11.305  10.974
25364W        W95245  21.062  24.498   0.405
25365W        W95246  23.589  37.394  13.455
25366W        W95247  17.798  38.376  12.472
25367W        W95248  43.485  26.135  11.478
25368W        W95249  13.652   8.778  12.058
25369W        W95250   1.381   4.450   4.724
25370W        W95251   7.784  28.105   4.693
25371W        W95252  31.536   8.756  12.868
25372W        W95253  44.304  44.494  12.080
25373W        W95254  36.360   6.722   2.663
25374W        W95255   3.866  13.351   0.456
25375W        W95256  24.098  40.434   4.795
25376W        W95257  38.866  35.580   0.406
25377W        W95258  43.792  18.283   3.844
25378W        W95259  26.645  40.840  13.869
25379W        W95260  39.450  15.765  13.473
25380W        W95261  32.543  18.187   2.364
25381W        W95262   9.875   0.833   0.454
25382W        W95263  32.060  24.197   5.109
25383W        W95264   7.770  38.328   0.276
25384W        W95265  40.334  29.546  12.471
25385W        W95266  23.111  14.281  13.047
25386W        W95267  41.891  14.253  14.797
25387W        W95268  19.750   9.709  14.369
25388W        W95269   7.270  18.557   1.711
25389W        W95270  11.807  27.971  14.789
25390W        W95271  34.933  29.430  14.845
25391W        W95272  27.469  15.803   4.290
25392W        W95273  34.863  37.348   4.152
25393W        W95274  42.919  22.701  12.559
25394W        W95275   6.300  27.979   1.878
25395W        W95276  14.190  23.599  11.445
25396W        W95277   8.297  17.601   1.875
25397W        W95278   4.700  40.901  13.538
25398W        W95279  37.997  20.530   1.334
25399W        W95280   4.348  26.692  11.949
25400W        W95281  44.900  13.651  11.028
25401W        W95282   6.259  39.461  11.010
25402W        W95283  13.238  29.164   2.890
25403W        W95284  27.607  30.525  12.569
25404W        W95285   8.285   7.675  12.391
25405W        W95286  24.556  38.433   4.834
25406W        W95287  42.786   8.675  11.510
25407W        W95288  24.680   9.780   2.228
25408W        W95289  11.247  25.069   1.701
25409W        W95290  16.614  30.458  12.513
25410W        W95291  19.557  29.479   4.789
25411W        W95292  29.034   0.759   0.439
25412W        W95293  37.996  31.957   1.807
25413W        W95294  33.976  17.104   4.316
25414W        W95295  22.743   8.689   2.282
25415W        W95296  16.226  31.600  12.039
25416W        W95297  29.164  28.460  11.428
25417W        W95298  16.157  34.499   1.777
25418W        W95299  11.329  30.957  11.968
25419W        W95300  18.057  40.348   1.422
25420W        W95301  40.028  27.088  12.470
25421W        W95302  15.734  36.586  14.967
25422W        W95303  28.542  32.493  13.934
25423W        W95304  28.563  30.968  10.452
25424W        W95305  40.431  18.184   3.299
25425W        W95306  11.657  10.682   4.222
25426W        W95307  40.370  28.097  14.325
25427W        W95308  13.777  26.008  13.490
25428W        W95309  21.020  24.184   1.893
25429W        W95310  24.035  20.196   3.216
25430W        W95311  20.229  44.000   3.752
25431W        W95312   9.845  41.326  14.953
25432W        W95313   2.735  30.033   4.824
25433W        W95314  31.964  21.579   4.638
25434W        W95315  14.098  34.592  10.553
25435W        W95316  33.913  15.204   4.221
25436W        W95317  39.959   7.199   3.754
25437W        W95318  33.625  13.261   0.442
25438W        W95319  16.664  25.133  13.032
25439W        W95320   2.734  38.829  11.422
25440W        W95321  29.670   2.243   1.446
25441W        W95322  23.659  20.634  10.611
25442W        W95323   2.840  13.325  13.895
25443W        W95324  24.719  11.806  13.328
25444W        W95325  22.044  27.947   3.383
25445W        W95326  20.122  42.841  10.552
25446W        W95327  39.043   1.943   0.742
25447W        W95328  16.303  11.865  11.856
25448W        W95329  12.167  13.754   2.337
25449W        W95330  41.978  38.987  10.520
25450W        W95331  31.495  10.369  13.394
25451W        W95332   3.293  43.392  11.558
25452W        W95333  15.224   3.334  14.999
25453W        W95334  24.689  18.112   4.778
25454W        W95335  22.168  34.977   1.796
25455W        W95336   0.825   7.759   4.182
25456W        W95337   0.852  33.397   4.604
25457W        W95338  20.722   9.361   3.226
25458W        W95339  11.133  28.447  12.087
25459W        W95340  14.662  13.220   3.170
25460W        W95341  14.191  35.056   0.390
25461W        W95342  37.886  39.456   3.186
25462W        W95343  17.633  30.982   0.397
25463W        W95344  23.626  33.524  11.604
25464W        W95345  29.662  34.448   3.654
25465W        W95346  43.447  35.900  12.968
25466W        W95347   5.345  26.087  12.002
25467W        W95348  22.077  11.708   0.364
25468W        W95349  22.130  31.553   3.803
25469W        W95350   3.878  37.919   4.157
25470W        W95351  42.960  28.577   4.147
25471W        W95352  10.141   0.910   0.825
25472W        W95353  41.817   6.200  13.045
25473W        W95354  11.846  14.333  10.629
25474W        W95355   3.732   1.399   2.756
25475W        W95356  19.739  22.072   1.860
25476W        W95357  37.034  42.853  11.444
25477W        W95358  25.485  40.023   1.772
25478W        W95359   0.774  20.241  14.763
25479W        W95360   9.697  29.637  13.319
25480W        W95361  41.856  17.653  11.425
25481W        W95362  10.728  36.519   4.321
25482W        W95363   9.336   0.742  12.448
25483W        W95364   5.787  44.930   1.934
25484W        W95365  42.908   1.962  11.928
25485W        W95366  30.571  19.756  14.428
25486W        W95367  28.535  43.771   0.839
25487W        W95368  40.005   9.203   0.938
25488W        W95369   3.739  30.007  10.531
25489W        W95370  41.301   9.267  13.008
25490W        W95371  20.525   7.226  11.027
25491W        W95372  31.141   6.717   2.192
25492W        W95373  44.272  29.527   5.290
25493W        W95374  27.522  32.464   1.795
25494W        W95375  35.525  41.442  13.931
25495W        W95376  24.602  18.112  13.804
25496W        W95377  16.192  38.868  13.513
25497W        W95378  34.476  11.743   1.239
25498W        W95379  10.681  32.069  14.464
25499W        W95380  21.131  39.370   4.256
25500W        W95381  20.576  35.091  13.310
25501W        W95382  27.014  23.988   3.322
25502W        W95383  26.082  10.658  12.344
25503W        W95384   8.404  43.773  12.096
25504W        W95385  16.663  20.035  10.499
25505W        W95386  11.155  38.853   1.365
25506W        W95387  19.676  39.535   1.437
25507W        W95388  44.872  20.604   0.269
25508W        W95389  18.608  34.953  11.022
25509W        W95390   7.344  26.565   4.328
25510W        W95391  14.249  43.003  12.014
25511W        W95392  41.360   6.745  14.906
25512W        W95393  27.472  36.573  13.817
25513W        W95394  43.296  26.202   4.663
25514W        W95395  12.199  44.834   1.293
25515W        W95396   7.409   8.340   1.740
25516W        W95397   7.382   9.645   1.349
25517W        W95398  18.632   4.371   3.732
25518W        W95399  17.205  26.992   3.174
25519W        W95400   9.236  14.753   0.893
25520W        W95401  17.775   4.883   4.269
25521W        W95402  15.087  27.667   1.365
25522W        W95403  31.527  14.267  13.059
25523W        W95404  38.387  27.528  14.922
25524W        W95405   7.820  27.115  10.959
25525W        W95406  36.966  14.185  14.424
25526W        W95407  22.178  37.425   1.763
25527W        W95408  21.103  36.051   2.247
25528W        W95409  11.303  29.137  12.858
25529W        W95410  44.969  18.180   1.716
25530W        W95411  40.361  22.139   1.794
25531W        W95412   4.905  12.167  12.515
25532W        W95413  14.126  41.881  11.865
25533W        W95414   3.788   6.704  10.449
25534W        W95415  15.687  43.434  13.447
25535W        W95416  10.152  24.584   1.902
25536W        W95417  16.098   8.717   4.193
25537W        W95418   8.709  39.835   2.872
25538W        W95419  32.515  11.145   3.310
25539W        W95420  10.381  20.052   1.298
25540W        W95421  43.932  27.526   0.935
25541W        W95422  22.569  16.282   0.963
25542W        W95423  29.450   6.368  10.994
25543W        W95424  10.229  10.647  12.434
25544W        W95425  26.596  44.778  14.284
25545W        W95426  14.281  23.229  12.006
25546W        W95427  23.591  42.858  13.004
25547W        W95428  23.117  33.555   2.666
25548W        W95429  10.719  15.088   4.704
25549W        W95430   1.830  34.893   2.351
25550W        W95431   9.689  40.828   1.245
25551W        W95432  17.230  44.988  10.897
25552W        W95433   4.863  28.673  11.058
25553W        W95434  19.573  27.533   4.143
25554W        W95435  26.502  34.021  13.833
25555W        W95436  13.203  24.213  12.465
25556W        W95437   5.727  22.629   0.424
25557W        W95438  38.536   5.277  13.396
25558W        W95439  38.067  37.888   0.282
25559W        W95440  38.459  26.050   3.175
25560W        W95441  13.744  41.364  11.113
25561W        W95442  27.063  40.393   0.790
25562W        W95443  41.455  41.396   4.678
25563W        W95444  15.327  37.477  11.455
25564W        W95445  22.117   9.260  13.504
25565W        W95446   2.425   9.734   2.673
25566W        W95447   0.827  44.854  12.571
25567W        W95448  14.765  40.859   3.163
25568W        W95449   2.362  34.055  13.842
25569W        W95450  38.488  25.967   0.276
25570W        W95451  27.016  29.648  12.373
25571W        W95452  44.363  24.540  12.447
25572W        W95453   9.756  31.432   3.787
25573W        W95454  10.878  27.583   0.785
25574W        W95455   3.367   5.703   0.738
25575W        W95456  27.970  13.837   2.882
25576W        W95457  40.514  31.957  14.968
25577W        W95458  41.481  30.526   3.222
25578W        W95459  27.644  18.134  14.449
25579W        W95460  38.033  15.137   4.619
25580W        W95461  20.660  43.787  14.937
25581W        W95462  29.499  34.953   2.767
25582W        W95463   2.806  43.875   4.735
25583W        W95464  37.854  41.475  12.852
25584W        W95465  20.607  23.055   2.407
25585W        W95466  42.803  32.104  13.539
25586W        W95467   1.257  44.813   2.343
25587W        W95468  34.016  19.694  14.414
25588W        W95469  44.855   1.967   0.846
25589W        W95470  23.655  36.961   1.906
25590W        W95471  19.068  11.685  11.909
25591W        W95472   2.773  38.544  11.125
25592W        W95473   2.240  30.434  12.538
25593W        W95474  31.008  20.581   1.884
25594W        W95475  35.581  40.885  13.488
25595W        W95476  23.551  38.498  12.085
25596W        W95477   5.324  20.130   1.742
25597W        W95478  29.089  28.103   2.210
25598W        W95479  11.626  29.613  13.835
25599W        W95480  43.833  31.975   1.734
25600W        W95481   2.229  28.055   0.790
25601W        W95482  32.000   8.880  11.439
25602W        W95483  28.102  31.148   1.330
25603W        W95484  25.520  28.027   0.757
25604W        W95485  44.369  38.354  10.498
25605W        W95486  21.672  34.867   4.324
25606W        W95487  44.853  29.648   2.714
25607W        W95488  38.977   8.847  14.483
25608W        W95489  37.388  18.064  11.597
25609W        W95490   9.718  29.018   3.734
25610W        W95491  37.391  21.697   0.788
25611W        W95492  44.340  39.321   1.276
25612W        W95493  23.015  11.338   0.816
25613W        W95494  33.989  11.310  14.785
25614W        W95495  13.739  13.273   4.839
25615W        W95496  26.042  38.939   1.266
25616W        W95497  41.486  13.191   3.168
25617W        W95498  26.172  18.292  11.890
25618W        W95499  20.703  14.107   3.794
25619W        W95500   0.362  11.261  12.880
25620W        W95501   9.799  35.017  13.427
25621W        W95502  30.036  21.670  12.003
25622W        W95503   5.886  18.556   1.740
25623W        W95504  16.698   3.729   4.315
25624W        W95505  14.704   5.202  12.392
25625W        W95506  34.466  21.582  13.992
25626W        W95507  14.598  41.978   2.419
25627W        W95508  21.211   3.454  14.019
25628W        W95509  24.001  39.514  10.982
25629W        W95510  14.658  21.661  14.499
25630W        W95511   4.242  24.501   0.309
25631W        W95512  27.678  30.006  13.375
25632W        W95513  14.726  41.501   2.704
25633W        W95514  10.159  42.474   1.343
25634W        W95515  37.574  30.984  13.912
25635W        W95516  24.047   7.698  10.935
25636W        W95517  13.168  19.099   1.908
25637W        W95518  19.602  44.979  11.963
25638W        W95519  33.594  43.918  14.830
25639W        W95520   6.219  29.142  11.394
25640W        W95521  33.055  32.396   0.336
25641W        W95522   9.317   3.343  10.634
25642W        W95523  13.811   8.742   1.735
25643W        W95524  42.366  18.552  13.945
25644W        W95525  37.533  27.941   0.362
25645W        W95526  14.122   7.185   0.271
25646W        W95527  25.547   3.841   0.461
25647W        W95528   1.416  17.730   1.325
25648W        W95529  44.309  43.515   0.780
25649W        W95530  32.009  38.867   1.443
25650W        W95531   8.211  21.028   0.917
25651W        W95532   1.837  44.456  12.355
25652W        W95533  18.116  26.158   2.321
25653W        W95534   0.744   0.321  10.606
25654W        W95535   0.284   8.818   2.779
25655W        W95536  43.817   7.360   0.957
25656W        W95537  15.101  38.482   5.611
25657W        W95538   8.705  32.535   2.214
25658W        W95539  38.988  38.445  14.459
25659W        W95540  14.220  28.956  14.830
25660W        W95541  32.101  34.897   0.936
25661W        W95542  21.736  29.573  14.807
25662W        W95543  21.017  11.741  12.514
25663W        W95544  44.273  11.370  14.354
25664W        W95545   8.724   2.421  14.391
25665W        W95546  17.126  33.450   0.787
25666W        W95547  37.977  33.981   0.870
25667W        W95548  28.181  43.940  13.529
25668W        W95549   0.397  29.974   4.714
25669W        W95550   9.740   4.311  14.375
25670W        W95551  11.765   4.386  11.580
25671W        W95552  40.539  31.951  11.464
25672W        W95553  14.819  36.510  13.888
25673W        W95554  12.242  31.047   3.852
25674W        W95555  40.482  14.763  13.804
25675W        W95556  32.567  26.555  10.563
25676W        W95557  17.128  29.918   4.123
25677W        W95558  33.046  14.110  11.454
25678W        W95559  20.732  37.002   0.857
25679W        W95560  25.652  26.637   2.233
25680W        W95561   8.329  21.726  11.995
25681W        W95562  28.132  15.670  12.923
25682W        W95563  32.886  29.555  10.464
25683W        W95564  31.933  26.129   1.772
25684W        W95565  10.684   0.340  13.908
25685W        W95566   1.843  26.541  13.810
25686W        W95567  12.227  19.210   1.905
25687W        W95568  17.573  41.405   3.670
25688W        W95569  25.142  11.790  13.050
25689W        W95570   6.784  27.070  12.004
25690W        W95571  39.534  25.096  11.576
25691W        W95572  11.752  15.672  10.954
25692W        W95573   6.821  12.331  14.394
25693W        W95574  44.978  18.121  12.010
25694W        W95575  20.670  18.118  11.064
25695W        W95576   6.403  11.201  13.440
25696W        W95577  40.391  27.090   2.179
25697W        W95578  22.597  44.865   2.684
25698W        W95579   7.908   1.416  13.819
25699W        W95580   8.791  13.153  12.577
25700W        W95581   7.293  18.256  13.534
25701W        W95582  29.121  32.516  13.936
25702W        W95583  17.221  23.992  10.450
25703W        W95584  11.844  38.933  10.412
25704W        W95585  17.795  22.681  10.607
25705W        W95586  36.047  44.766   0.800
25706W        W95587  44.288  21.546   0.945
25707W        W95588  30.653  19.751   2.760
25708W        W95589  17.707  18.611  13.425
25709W        W95590   8.799  21.561   4.341
25710W        W95591   3.711  17.599  13.063
25711W        W95592  29.661  11.344   2.857
25712W        W95593  36.470  25.654  10.461
25713W        W95594  21.539  37.882   0.957
25714W        W95595   8.788   5.291  13.042
25715W        W95596  19.280  41.452   3.279
25716W        W95597   3.453  36.592   1.212
25717W        W95598  42.302  40.962   1.894
25718W        W95599  11.336  26.658   4.646
25719W        W95600  10.769  36.877   0.871
25720W        W95601   7.741   9.776   3.372
25721W        W95602  25.133   3.722  10.911
25722W        W95603  20.603  27.979   2.298
25723W        W95604  35.014  42.859   2.789
25724W        W95605  11.163  37.568  13.062
25725W        W95606   9.379  17.612  10.508
25726W        W95607  14.818  29.661   2.844
25727W        W95608  39.498  12.617   0.922
25728W        W95609   1.312  20.587  11.512
25729W        W95610  44.408   6.787   0.446
25730W        W95611   3.863   0.977   0.340
25731W        W95612  28.582   8.783  11.473
25732W        W95613   5.431  20.072  11.017
25733W        W95614  25.033  27.600  11.449
25734W        W95615   5.700   6.845   4.601
25735W        W95616   7.719  28.549   1.803
25736W        W95617  28.124   3.440   9.956
25737W        W95618  37.579  11.353   2.837
25738W        W95619  36.387  38.904  12.947
25739W        W95620  18.598  31.929   3.161
25740W        W95621  31.935  33.959  14.485
25741W        W95622  42.390  28.952  11.511
25742W        W95623  29.985  39.350  14.922
25743W        W95624  26.962  28.116  11.484
25744W        W95625   2.743   8.236  11.438
25745W        W95626   5.217   5.435   2.850
25746W        W95627  16.763   4.767   2.770
25747W        W95628  18.634  16.210  12.365
25748W        W95629  24.627  30.929   3.178
25749W        W95630  26.568  18.657  10.989
25750W        W95631  42.493  28.595  12.446
25751W        W95632   1.847  14.709  14.940
25752W        W95633  32.931  40.449  12.484
25753W        W95634   8.164  15.807  11.516
25754W        W95635  10.268  21.254  13.414
25755W        W95636  42.952  27.460   1.323
25756W        W95637  18.064  32.950  12.957
25757W        W95638  40.351  14.672  14.818
25758W        W95639  44.003  15.084   0.847
25759W        W95640   3.373  11.348   4.756
25760W        W95641  40.358  20.685  14.798
25761W        W95642   7.256  35.038   0.432
25762W        W95643  18.088  11.347   1.232
25763W        W95644   1.895  37.083   3.215
25764W        W95645  15.302  40.476  12.025
25765W        W95646  43.509  21.657  11.396
25766W        W95647  37.842  36.961   4.648
25767W        W95648   4.331  12.641  14.423
25768W        W95649  44.444  32.551   4.597
25769W        W95650   9.657  24.514  14.320
25770W        W95651  34.024  24.576   1.788
25771W        W95652  40.960  28.557  11.901
25772W        W95653  35.996  19.755   0.352
25773W        W95654  38.341   6.341   0.294
25774W        W95655  16.187  10.634  13.524
25775W        W95656  29.012  14.829   0.828
25776W        W95657  22.737  43.431  12.438
25777W        W95658  43.438  25.094   2.883
25778W        W95659  29.555  19.773   0.917
25779W        W95660  25.160  14.655   1.275
25780W        W95661   6.688   6.694  10.476
25781W        W95662   8.825  16.711   2.324
25782W        W95663  17.787  18.160   3.696
25783W        W95664  14.803  37.350  13.491
25784W        W95665  36.446  30.463   4.157
25785W        W95666  42.914  10.879  14.813
25786W        W95667  18.714  17.201   1.274
25787W        W95668   1.949  18.091   3.867
25788W        W95669  24.978  23.531   3.256
25789W        W95670  20.586   3.744  13.797
25790W        W95671  21.692  34.933   2.399
25791W        W95672  29.527  20.677  11.059
25792W        W95673  22.685  19.118  14.407
25793W        W95674  32.023  22.680   4.819
25794W        W95675   4.405  11.346   0.801
25795W        W95676  19.113  29.471  13.396
25796W        W95677  43.809  20.572  14.947
25797W        W95678  43.876  37.403   3.825
25798W        W95679   1.243  24.498   0.315
25799W        W95680   8.218  13.632   0.268
25800W        W95681  12.344  13.653  12.898
25801W        W95682  22.680  28.459   0.862
25802W        W95683  12.725  16.778   1.288
25803W        W95684   0.823   0.326  13.374
25804W        W95685  42.408   8.166  10.614
25805W        W95686  27.671  14.275   1.732
25806W        W95687  14.156  40.473   5.235
25807W        W95688  29.480  23.531  12.428
25808W        W95689  11.238  42.343  13.372
25809W        W95690  17.157  16.251   1.929
25810W        W95691  23.994   3.861   2.722
25811W        W95692  17.712  20.190  13.006
25812W        W95693  34.024  16.566  14.793
25813W        W95694  34.513  44.837  11.947
25814W        W95695  22.602   7.210   3.715
25815W        W95696  40.466  11.775  13.894
25816W        W95697  35.854  41.462   2.844
25817W        W95698  11.236  27.116   4.329
25818W        W95699  30.102  32.909  12.509
25819W        W95700  31.953  36.852   3.261
25820W        W95701   4.397  28.666  10.557
25821W        W95702  40.856  18.223   2.775
25822W        W95703  23.049  13.665  11.465
25823W        W95704  22.543  32.928   0.744
25824W        W95705  30.546  15.809   0.277
25825W        W95706  11.828   2.744  13.030
25826W        W95707  38.027   9.827  12.351
25827W        W95708  32.989  32.930  13.994
25828W        W95709  17.226  29.588  11.894
25829W        W95710  15.126  16.707   0.814
25830W        W95711  26.485  31.481   3.787
25831W        W95712  23.504  43.895  14.287
25832W        W95713  18.133  14.093  12.828
25833W        W95714  20.038   9.227   3.837
25834W        W95715   5.234  24.215   0.918
25835W        W95716  27.979   3.769   2.303
25836W        W95717  13.295  29.613   1.214
25837W        W95718  19.710   9.769   0.427
25838W        W95719  26.670   9.189  10.508
25839W        W95720  42.405  40.868  10.968
25840W        W95721   1.799  42.404  11.480
25841W        W95722  20.551  12.763   2.706
25842W        W95723  36.904  32.050   3.643
25843W        W95724   1.255   9.329  14.996
25844W        W95725  36.947  30.541   4.697
25845W        W95726  35.596  44.327  11.514
25846W        W95727  32.967   5.235   4.668
25847W        W95728  16.191  18.636  11.011
25848W        W95729  26.952  20.543   1.777
25849W        W95730  36.911  38.923  13.373
25850W        W95731  25.004  25.033  12.344
25851W        W95732  13.313  23.075   0.409
25852W        W95733   3.767  20.267  11.992
25853W        W95734  12.776  21.081   0.399
25854W        W95735  23.583  23.022   2.706
25855W        W95736   7.843  24.553   4.227
25856W        W95737  34.470  11.734   4.806
25857W        W95738   2.422  11.786   4.770
25858W        W95739  41.803  14.702  11.026
25859W        W95740  30.155   1.757  14.953
25860W        W95741  13.686   7.403  10.628
25861W        W95742  24.519  33.107   4.239
25862W        W95743  27.963  30.995   0.956
25863W        W95744  37.397   7.254   0.450
25864W        W95745  11.801   8.864   0.354
25865W        W95746  44.328  13.289   2.838
25866W        W95747  25.588  13.803  14.396
25867W        W95748   9.215   6.330  14.498
25868W        W95749  35.955   5.928   1.302
25869W        W95750   4.758  37.384   2.789
25870W        W95751   0.363  27.675   0.726
25871W        W95752  17.142   2.276   1.292
25872W        W95753  22.220   0.893  12.037
25873W        W95754  26.070  24.152   5.303
25874W        W95755   4.435  30.483  13.899
25875W        W95756  14.735  22.111   0.897
25876W        W95757  14.193  27.681   2.181
25877W        W95758  41.489  44.454  14.892
25878W        W95759   3.943  25.109   5.091
25879W        W95760  36.509  13.832  11.419
25880W        W95761   5.322   4.942  14.822
25881W        W95762  21.252  41.503  14.438
25882W        W95763  10.176  19.096   1.751
25883W        W95764   7.274  22.059  14.341
25884W        W95765  43.398   8.749   2.794
25885W        W95766  34.988  44.262  13.523
25886W        W95767  26.951   5.910  13.428
25887W        W95768  32.037  39.452   0.345
25888W        W95769  10.193  10.834   0.951
25889W        W95770  20.677   3.854  14.898
25890W        W95771  28.120   8.235  14.819
25891W        W95772  16.621  37.070   2.777
25892W        W95773  42.973   1.433   1.860
25893W        W95774  40.374  44.440   2.731
25894W        W95775   1.769  35.447  10.947
25895W        W95776  36.451  22.008   4.761
25896W        W95777  33.033   3.895  11.127
25897W        W95778  41.972  29.628  12.063
25898W        W95779  20.615  43.421   3.844
25899W        W95780   7.895   2.260   4.812
25900W        W95781  16.717  32.022   4.257
25901W        W95782   0.817  10.780   4.797
25902W        W95783  12.197  37.423   1.905
25903W        W95784   3.360  38.014   1.809
25904W        W95785  29.486  35.926   3.739
25905W        W95786  27.533  24.647   1.439
25906W        W95787   4.754  41.363  12.526
25907W        W95788  25.632  23.660  10.912
25908W        W95789  29.602  33.571  13.985
25909W        W95790  44.772  10.186   1.911
25910W        W95791  18.199  36.021  13.058
25911W        W95792  29.482  19.704  10.074
25912W        W95793  16.292  39.412  13.482
25913W        W95794  35.996   7.212   2.817
25914W        W95795   5.303  14.603  14.286
25915W        W95796  23.701  16.257  12.046
25916W        W95797  14.131   7.308  12.554
25917W        W95798  28.643   8.750   0.345
25918W        W95799  11.796  22.155   4.663
25919W        W95800  21.624  23.100   3.385
25920W        W95801  25.659  41.020   3.183
25921W        W95802   3.394  25.055  13.344
25922W        W95803  34.928  13.350  12.876
25923W        W95804  15.199  22.115   2.728
25924W        W95805  14.319  21.249   1.857
25925W        W95806  12.345  41.961   3.758
25926W        W95807  42.504  37.903   3.206
25927W        W95808  42.480  44.988   0.443
25928W        W95809  10.306  14.096   2.361
25929W        W95810  41.310  16.248   2.815
25930W        W95811   0.869  24.633   4.820
25931W        W95812   3.354   3.847  14.423
25932W        W95813   8.893  38.852   4.242
25933W        W95814  26.026  20.654   2.878
25934W        W95815  32.500   2.883   3.653
25935W        W95816  44.468  36.962   1.719
25936W        W95817  33.025  43.884  10.619
25937W        W95818  42.000  22.556  13.975
25938W        W95819  27.948   6.228   0.310
25939W        W95820  34.881  35.508   1.303
25940W        W95821  10.723  29.579   1.231
25941W        W95822   1.315  19.171  11.594
25942W        W95823  37.873  23.704   3.237
25943W        W95824   7.722  25.165  10.914
25944W        W95825  37.921   9.163  14.772
25945W        W95826  27.565  12.851  12.450
25946W        W95827   8.405   9.821   1.749
25947W        W95828   4.389  14.779  10.967
25948W        W95829  12.250  24.491   2.309
25949W        W95830  31.136  35.365  12.964
25950W        W95831  17.649  28.480  12.449
25951W        W95832  38.902  17.303  10.626
25952W        W95833  17.090   0.914   5.105
25953W        W95834  10.323   7.802  13.865
25954W        W95835  44.398   1.391   0.882
25955W        W95836   0.775  13.812   4.223
25956W        W95837   5.865  20.180   3.772
25957W        W95838  35.455  19.104  14.454
25958W        W95839  43.857  21.568   1.258
25959W        W95840  39.475  25.104   0.865
25960W        W95841  10.165  39.337  12.560
25961W        W95842  16.656  39.964  14.916
25962W        W95843  38.482  37.004  13.904
25963W        W95844  32.939  12.856   0.383
25964W        W95845   2.424  43.889  11.988
25965W        W95846  26.129  18.069  10.611
25966W        W95847  26.054  44.306  14.391
25967W        W95848   2.446   1.271   1.271
25968W        W95849  31.026  14.754  14.418
25969W        W95850  37.913  26.622  11.017
25970W        W95851   8.696  12.215  11.858
25971W        W95852  35.946  37.357   0.941
25972W        W95853   2.730  36.449  11.469
25973W        W95854  39.054   3.777  11.480
25974W        W95855  15.638   2.440   0.884
25975W        W95856  29.566  43.921   0.822
25976W        W95857  21.099  26.142   1.224
25977W        W95858  23.014  33.094  13.030
25978W        W95859  11.856  27.184   3.820
25979W        W95860  28.617  43.980   1.754
25980W        W95861  27.534  14.232   0.806
25981W        W95862  19.218  37.407   4.684
25982W        W95863  18.753  32.129   0.391
25983W        W95864  25.570  26.633  12.508
25984W        W95865  21.263  28.052  12.048
25985W        W95866   0.323   6.229  14.466
25986W        W95867  36.347  11.222  11.905
25987W        W95868   4.316  44.346   1.243
25988W        W95869   7.240  18.094   2.744
25989W        W95870  26.058  12.175   2.829
25990W        W95871  30.161  35.898   0.750
25991W        W95872   4.780   3.751   2.243
25992W        W95873  37.513  19.689   3.775
25993W        W95874  18.237   6.195   1.332
25994W        W95875  13.109  40.329   2.415
25995W        W95876  22.061  38.516  14.875
25996W        W95877  19.150  44.345  11.538
25997W        W95878  13.143  37.405   5.098
25998W        W95879  20.232  44.331   5.083
25999W        W95880   8.389  13.264  14.939
26000W        W95881  20.676  17.285   4.246
26001W        W95882   3.447  11.316   2.390
26002W        W95883  33.396  32.891  10.446
26003W        W95884   0.828  14.679   2.670
26004W        W95885  15.686   4.448   4.680
26005W        W95886  15.140  13.808   2.323
26006W        W95887  24.651   6.209  10.910
26007W        W95888  37.479  43.909   3.712
26008W        W95889  19.614   3.253  12.478
26009W        W95890  30.514   6.361   2.819
26010W        W95891  24.502  20.148   0.257
26011W        W95892   6.812  39.400  14.904
26012W        W95893  41.923  37.979  12.489
26013W        W95894   2.380  38.345  11.587
26014W        W95895  22.583  28.471  10.513
26015W        W95896   6.717  17.181   2.840
26016W        W95897  39.819  23.504   2.330
26017W        W95898  13.188   7.226  13.943
26018W        W95899  22.702  32.563   3.375
26019W        W95900  27.569  10.227   1.289
26020W        W95901  44.302  10.260   1.234
26021W        W95902  25.153  21.650   1.442
26022W        W95903  16.305  22.132  11.385
26023W        W95904  21.743  42.949  11.591
26024W        W95905  10.737  16.176  13.907
26025W        W95906  35.424  40.989  10.506
26026W        W95907  18.137   2.758   4.723
26027W        W95908  18.227  16.669  10.984
26028W        W95909  11.153   7.900  11.378
26029W        W95910  41.344   7.197   0.451
26030W        W95911  10.183  18.773  13.981
26031W        W95912   2.865   8.778  12.446
26032W        W95913  10.313  38.492  12.520
26033W        W95914  24.486  30.093  10.506
26034W        W95915  14.119  22.008   4.709
26035W        W95916  42.464  33.048   1.327
26036W        W95917  16.276  39.365   0.894
26037W        W95918  17.703   9.776   1.222
26038W        W95919  29.536  15.265   0.801
26039W        W95920   6.772  38.830  13.848
26040W        W95921   6.854  42.897   4.733
26041W        W95922   8.304  41.936   0.847
26042W        W95923  22.743   8.864  12.070
26043W        W95924  10.864  30.578  14.992
26044W        W95925   2.915  18.156   4.834
26045W        W95926  32.410  23.498   3.226
26046W        W95927  35.390  41.530   2.773
26047W        W95928  20.733   9.807  11.957
26048W        W95929  25.212  32.053  10.423
26049W        W95930  28.057  32.494   0.895
26050W        W95931  18.655  28.961   3.275
26051W        W95932   2.811  12.246  14.295
26052W        W95933  27.145  28.957  12.433
26053W        W95934   3.832  11.344   4.177
26054W        W95935  35.601  28.551  11.481
26055W        W95936  20.621   0.405   3.166
26056W        W95937  11.310  15.578   5.190
26057W        W95938  37.957  33.074   2.206
26058W        W95939  32.587  43.953   1.253
26059W        W95940  18.775  33.450  11.390
26060W        W95941  38.038   7.728  14.990
26061W        W95942  44.501  28.079   2.252
26062W        W95943  39.491  12.326   2.232
26063W        W95944  31.480  31.531   2.739
26064W        W95945   2.850  18.751   0.893
26065W        W95946  42.888  32.888  13.396
26066W        W95947  12.808  44.441  13.447
26067W        W95948   0.408   1.849  11.060
26068W        W95949  28.539  31.002   3.722
26069W        W95950   8.394  27.587  11.020
26070W        W95951  43.359  18.153  12.483
26071W        W95952  25.496   2.846  12.913
26072W        W95953  31.552  23.142   3.185
26073W        W95954  43.348  25.678  11.091
26074W        W95955  23.670  40.312   0.392
26075W        W95956  23.237  23.612   2.336
26076W        W95957  11.728  39.052  14.013
26077W        W95958  27.513   3.804  12.413
26078W        W95959   6.373  41.012   0.401
26079W        W95960  12.299  25.094  10.534
26080W        W95961  42.505  35.509  13.034
26081W        W95962  31.140  29.009   1.908
26082W        W95963   0.453  44.500   3.184
26083W        W95964  36.987  32.053   2.200
26084W        W95965  35.997  20.251  12.981
26085W        W95966  14.701  20.562  11.970
26086W        W95967  18.670  43.933  14.032
26087W        W95968  43.345  29.920  10.462
26088W        W95969   2.309  18.241   1.790
26089W        W95970  32.482  10.730  13.808
26090W        W95971   4.421   4.256   2.201
26091W        W95972  41.854  22.198   3.651
26092W        W95973  15.088  39.374   4.165
26093W        W95974  32.414  38.842  13.877
26094W        W95975  36.464  38.544   3.865
26095W        W95976  25.030  30.082   4.350
26096W        W95977  44.984  16.690   0.846
26097W        W95978  39.459  14.742   0.889
26098W        W95979   2.756  12.254  12.038
26099W        W95980  28.998  44.330  11.923
26100W        W95981  14.269  35.907  10.537
26101W        W95982  22.617   1.345   0.387
26102W        W95983  38.951  43.302   4.340
26103W        W95984  29.512  40.949   0.313
26104W        W95985   9.303  31.945   5.123
26105W        W95986  29.056  42.988   3.146
26106W        W95987  22.607  30.483   1.217
26107W        W95988  11.268  38.895  14.286
26108W        W95989   1.812   3.881   0.924
26109W        W95990  26.646  29.461   0.282
26110W        W95991  43.824  10.819   3.634
26111W        W95992  21.048  10.762   4.812
26112W        W95993  14.673   8.759  10.901
26113W        W95994  13.244   2.231   2.776
26114W        W95995  23.632  43.000  14.991
26115W        W95996   4.944  24.699   3.693
26116W        W95997  17.661  42.439  10.622
26117W        W95998  41.409  38.560   0.779
26118W        W95999  37.337   0.984  14.784
26119W        W96000  41.827   6.390  11.097
26120W        W96001   8.235  22.734   0.753
26121W        W96002  15.182  24.063  11.500
26122W        W96003   4.703   0.850  13.383
26123W        W96004  15.810  12.791   2.224
26124W        W96005  10.230   8.889   0.422
26125W        W96006  33.615  24.657   1.764
26126W        W96007  22.649  28.626  14.962
26127W        W96008  32.945  16.731   9.469
26128W        W96009  19.769  29.132   4.789
26129W        W96010   1.803  35.496   1.759
26130W        W96011  34.423  19.599  11.396
26131W        W96012   4.218  21.253  11.526
26132W        W96013  13.343   9.195  10.930
26133W        W96014   1.462  37.459   2.898
26134W        W96015  16.692  40.808  12.851
26135W        W96016  30.541  41.385   3.690
26136W        W96017  41.408  32.918   3.857
26137W        W96018  22.574   5.699  14.516
26138W        W96019  27.980  12.259   2.196
26139W        W96020  16.717  44.951   0.448
26140W        W96021  43.947  21.579   4.616
26141W        W96022  23.664  35.994  10.996
26142W        W96023  40.020  44.302  13.443
26143W        W96024  14.713  14.177   4.305
26144W        W96025  31.422  18.080  10.016
26145W        W96026  38.071   3.265  12.889
26146W        W96027   5.380  10.167   3.699
26147W        W96028  30.126  29.444   4.139
26148W        W96029   2.366  38.410  14.482
26149W        W96030  38.566   6.261   3.328
26150W        W96031  24.001  33.405   9.974
26151W        W96032  23.114  34.866   3.842
26152W        W96033  32.906  29.495   3.730
26153W        W96034  28.633  22.623   2.391
26154W        W96035   7.416   7.394  12.991
26155W        W96036  19.086  19.584  12.863
26156W        W96037  14.276  31.542  10.496
26157W        W96038  42.482  37.337  14.306
26158W        W96039  44.928  24.109  13.474
26159W        W96040   4.283  35.436  11.437
26160W        W96041  14.628  29.494   4.812
26161W        W96042  22.585  22.526   0.891
26162W        W96043  15.675   3.829  12.566
26163W        W96044  19.282  18.557   3.851
26164W        W96045   8.893   1.927  12.907
26165W        W96046  20.113  34.610  13.868
26166W        W96047  32.391  24.985  12.057
26167W        W96048  20.670   1.832  10.453
26168W        W96049  34.577  31.583  10.975
26169W        W96050  20.755   9.810   0.343
26170W        W96051  10.375  30.632  14.443
26171W        W96052  43.322   4.897   2.771
26172W        W96053   6.682   6.253   0.831
26173W        W96054  25.207  14.271  10.615
26174W        W96055  41.342  40.943  12.012
26175W        W96056  23.170  14.205  11.933
26176W        W96057   9.294  18.658  13.800
26177W        W96058  37.069  13.806  13.064
26178W        W96059  15.809  35.108   3.284
26179W        W96060  32.637  26.700  11.109
26180W        W96061   9.314  43.467   4.224
26181W        W96062  20.101  36.520  11.503
26182W        W96063  10.204  41.340  13.051
26183W        W96064  24.531  27.065   3.685
26184W        W96065  31.964  16.181  11.969
26185W        W96066   5.352  36.846   3.692
26186W        W96067   3.404  16.215  14.502
26187W        W96068   1.479  33.963  12.931
26188W        W96069  35.893  31.431   2.691
26189W        W96070   5.374  37.486  14.330
26190W        W96071  25.018  16.753   4.262
26191W        W96072   0.336  22.679   3.745
26192W        W96073  14.304  20.197  12.479
26193W        W96074  14.731  44.995   1.230
26194W        W96075  41.454  18.088  10.976
26195W        W96076   0.888   5.726  13.480
26196W        W96077   3.767  13.744  10.598
26197W        W96078  20.060  24.658   3.765
26198W        W96079  36.536  26.118  11.511
26199W        W96080  38.071  21.726  13.801
26200W        W96081   2.947   4.801  14.937
26201W        W96082  39.065   5.865  14.849
26202W        W96083  20.757   6.397  14.296
26203W        W96084  26.573  42.832   4.217
26204W        W96085  21.551   4.281   0.295
26205W        W96086  29.572   3.801  13.014
26206W        W96087  43.980  22.083   2.362
26207W        W96088  15.200  34.941   2.249
26208W        W96089   1.946  25.169   0.431
26209W        W96090  34.473  28.950   4.216
26210W        W96091  37.504   6.684   1.811
26211W        W96092   3.249  23.637   0.464
26212W        W96093  20.722   4.347  12.573
26213W        W96094  41.974  40.888   0.840
26214W        W96095  30.634  38.860  10.405
26215W        W96096   9.781   7.748   1.934
26216W        W96097  43.502  27.014  12.978
26217W        W96098   0.980  14.820   4.641
26218W        W96099  28.150   9.746   2.855
26219W        W96100  28.446   5.320   0.296
26220W        W96101   6.848   2.916   2.879
26221W        W96102   3.239  27.951   0.481
26222W        W96103  40.443   2.742   4.149
26223W        W96104   5.260  35.930   5.110
26224W        W96105  34.373  12.317   0.394
26225W        W96106  24.084  34.529  14.458
26226W        W96107   5.385  33.573  13.357
26227W        W96108  24.592  17.568  12.964
26228W        W96109  35.522  17.123  14.500
26229W        W96110  19.767  13.703  10.551
26230W        W96111   1.779  36.407  11.599
26231W        W96112  43.393  33.029  11.893
26232W        W96113   1.780  16.203  14.390
26233W        W96114  10.676  37.059   3.853
26234W        W96115  37.417  44.833  11.117
26235W        W96116  40.816   6.244   4.737
26236W        W96117   0.380  15.784  12.548
26237W        W96118  40.329   0.256   1.331
26238W        W96119  18.216  41.421  12.484
26239W        W96120  43.940  40.331   1.364
26240W        W96121  33.055  29.585   0.826
26241W        W96122   2.308  44.284   2.882
26242W        W96123  39.867  25.972  13.520
26243W        W96124  15.125  22.682   4.274
26244W        W96125  12.748  15.669  10.554
26245W        W96126  14.591  36.454   0.777
26246W        W96127  41.027   8.896  12.376
26247W        W96128   6.742  14.613  12.353
26248W        W96129  18.136  26.124   3.857
26249W        W96130  31.567  15.215  14.315
26250W        W96131  39.358  32.054   1.319
26251W        W96132  15.646   7.815  11.905
26252W        W96133  31.076   4.305  11.935
26253W        W96134  37.394  28.009  14.920
26254W        W96135  14.818  36.023   2.880
26255W        W96136   2.756  12.738   4.706
26256W        W96137   0.824  23.202   2.254
26257W        W96138  22.589  40.823  13.330
26258W        W96139   2.276  41.821   3.371
26259W        W96140  15.677   9.722   4.728
26260W        W96141   4.840  38.497   2.195
26261W        W96142  44.765  34.390  11.038
26262W        W96143  15.767   0.988   2.179
26263W        W96144  23.589  44.950   0.834
26264W        W96145  12.237  25.592  12.959
26265W        W96146   6.795  29.144   1.328
26266W        W96147   1.926  31.048  12.825
26267W        W96148   9.183  30.598  14.416
26268W        W96149   3.879  42.373  14.378
26269W        W96150  28.929  29.650  12.367
26270W        W96151  28.587  11.319  12.982
26271W        W96152  35.893  25.180   1.872
26272W        W96153  29.530  33.893  11.087
26273W        W96154   9.267  24.641  12.043
26274W        W96155  32.506  19.067  13.870
26275W        W96156  10.169   6.708   0.405
26276W        W96157  12.643  13.282   2.387
26277W        W96158  26.530  20.688  14.014
26278W        W96159  37.042  44.412   1.303
26279W        W96160   6.328  41.025   2.886
26280W        W96161  11.198  21.699  11.929
26281W        W96162   1.310  17.685   4.215
26282W        W96163  31.053  25.147  11.586
26283W        W96164   5.346  37.362   1.370
26284W        W96165   7.804  29.039   4.709
26285W        W96166  15.092  38.450   4.270
26286W        W96167  26.978  43.891  10.496
26287W        W96168  14.624  39.319  11.089
26288W        W96169  12.280  25.534  14.801
26289W        W96170   5.772   9.729  11.945
26290W        W96171  22.659  44.940   5.215
26291W        W96172   1.393  15.148  11.435
26292W        W96173  43.900   2.832  11.960
26293W        W96174  31.922  31.928   3.686
26294W        W96175  10.327  12.731   2.741
26295W        W96176  26.962  23.163   0.434
26296W        W96177  29.663   7.198   4.284
26297W        W96178  29.609  39.333  13.307
26298W        W96179  29.930  21.154   4.765
26299W        W96180  15.623  13.114  11.447
26300W        W96181  18.082  15.302  10.630
26301W        W96182  18.620  30.919  11.903
26302W        W96183  44.349   7.701  13.494
26303W        W96184  44.782  35.568  12.060
26304W        W96185   5.421  15.110  14.848
26305W        W96186  41.501  43.841   1.883
26306W        W96187  40.526  37.553  12.055
26307W        W96188  44.811  16.649  11.598
26308W        W96189  18.243  31.095   1.419
26309W        W96190  42.906   6.258   0.753
26310W        W96191  21.111   9.754   3.862
26311W        W96192  42.003  30.513   2.835
26312W        W96193  40.345  18.198  14.321
26313W        W96194  31.001  23.637   4.783
26314W        W96195  24.498  25.994  10.960
26315W        W96196   6.250   4.405   0.448
26316W        W96197   8.718   2.241   0.960
26317W        W96198  34.063  16.219  12.345
26318W        W96199  41.851  35.438   1.277
26319W        W96200  36.397  12.308   1.834
26320W        W96201  39.511  23.074   2.207
26321W        W96202   2.832   5.750  14.423
26322W        W96203  13.795  35.461  13.401
26323W        W96204  37.535  22.657   4.199
26324W        W96205   6.905   5.750  11.976
26325W        W96206  31.097  25.517  10.916
26326W        W96207  41.826  29.121   0.379
26327W        W96208  39.903   6.712   1.287
26328W        W96209   6.364  36.547   1.214
26329W        W96210  13.845  23.133  14.977
26330W        W96211   4.394   6.337   1.889
26331W        W96212  30.575   3.743  12.892
26332W        W96213  24.154  27.589  12.070
26333W        W96214  11.835  41.994   0.729
26334W        W96215   4.217   3.285  12.001
26335W        W96216  20.753   9.848   1.218
26336W        W96217  12.793  39.020   4.622
26337W        W96218   7.305   0.376  12.851
26338W        W96219   5.767  34.992  11.601
26339W        W96220   7.690  21.028   0.877
26340W        W96221  14.808  19.616  13.844
26341W        W96222   3.832  29.088  14.783
26342W        W96223  16.693  32.914  14.357
26343W        W96224  23.145  31.048  13.332
26344W        W96225  30.553  42.786   1.743
26345W        W96226  13.653  36.474  11.116
26346W        W96227  30.481  12.730   0.368
26347W        W96228  11.193  26.123   1.782
26348W        W96229  24.582  42.525   3.734
26349W        W96230  22.219  35.385  14.321
26350W        W96231  44.982  44.304   1.313
26351W        W96232   5.238  30.134  11.933
26352W        W96233  26.069  40.471  14.784
26353W        W96234  28.969  19.190  13.324
26354W        W96235  11.304   3.254  12.440
26355W        W96236  38.469  30.531   5.216
26356W        W96237  10.374  33.011  11.108
26357W        W96238  35.957  34.585  14.885
26358W        W96239  10.321  11.698  12.441
26359W        W96240  22.568   7.300   0.269
26360W        W96241  41.801  24.124   0.954
26361W        W96242  29.610  12.256   3.840
26362W        W96243  21.595   3.911   3.267
26363W        W96244  41.517  38.376  11.395
26364W        W96245   2.831  26.634  14.327
26365W        W96246  13.311  37.525   4.225
26366W        W96247   7.172  17.293   2.742
26367W        W96248  38.446  17.198   3.193
26368W        W96249  15.304  32.057   2.279
26369W        W96250   6.204  17.670   0.942
26370W        W96251  37.914  14.835   1.791
26371W        W96252  24.058   7.692  11.429
26372W        W96253  29.653   7.171  10.429
26373W        W96254  20.154  30.417  11.516
26374W        W96255  23.230  11.700   3.803
26375W        W96256  17.660  35.091  11.601
26376W        W96257  22.730  42.993   5.162
26377W        W96258  26.608  16.781   9.945
26378W        W96259  30.081  44.260  14.001
26379W        W96260  13.832  37.941   0.940
26380W        W96261  32.626  33.941  13.363
26381W        W96262  30.533  37.479   0.471
26382W        W96263  23.039  13.133  10.935
26383W        W96264  11.327  36.442   4.666
26384W        W96265  26.585   7.410  13.995
26385W        W96266   0.449  31.904   0.275
26386W        W96267  11.260  27.536  11.928
26387W        W96268   6.714  38.995   0.739
26388W        W96269   9.281  16.195  14.501
26389W        W96270  11.625  36.433  13.039
26390W        W96271   0.760  37.916  13.866
26391W        W96272  35.039   1.850  14.823
26392W        W96273  14.157  11.855   4.750
26393W        W96274  25.151   1.400  11.579
26394W        W96275   0.872   4.401   2.824
26395W        W96276  15.128  35.435   3.730
26396W        W96277   5.891  18.059  13.020
26397W        W96278   9.869  40.800  11.416
26398W        W96279   5.428  16.074   0.885
26399W        W96280   3.896  24.585   0.476
26400W        W96281  41.920  23.027  12.390
26401W        W96282  12.241  31.572   3.285
26402W        W96283  11.173  30.518  14.800
26403W        W96284  16.179  20.599  13.804
26404W        W96285   2.835  27.650  14.473
26405W        W96286  24.480  34.562  14.904
26406W        W96287  26.669  35.507   0.306
26407W        W96288  32.114  32.057   1.864
26408W        W96289  37.417   4.386  13.883
26409W        W96290  20.744  37.380  10.549
26410W        W96291  37.842  26.164  10.481
26411W        W96292  28.133  37.466   5.145
26412W        W96293  16.202  33.441   2.236
26413W        W96294  43.392  15.246  14.914
26414W        W96295  21.676  18.756  11.070
26415W        W96296  38.401  35.081   4.730
26416W        W96297  15.743   6.411  10.985
26417W        W96298  42.834   7.212   4.620
26418W        W96299  43.510  27.097   0.351
26419W        W96300  21.553  44.864   2.349
26420W        W96301  14.094  35.091  11.127
26421W        W96302  20.151  20.160   3.158
26422W        W96303  17.285  29.103   3.196
26423W        W96304   8.704  39.439  14.466
26424W        W96305  22.087  17.242  13.869
26425W        W96306  12.180  12.238   0.453
26426W        W96307   7.760   7.342   4.122
26427W        W96308  30.959  39.552  13.053
26428W        W96309  15.662  41.989  12.449
26429W        W96310   0.748  43.012  10.124
26430W        W96311   9.875  43.016  11.905
26431W        W96312   8.696   6.311   4.315
26432W        W96313   5.369   3.896  11.909
26433W        W96314  31.577  33.946   0.773
26434W        W96315  41.513  38.558   1.248
26435W        W96316  14.113   3.734  11.876
26436W        W96317  10.759  12.742   4.689
26437W        W96318   8.783  27.581   2.675
26438W        W96319   7.309  28.027   0.778
26439W        W96320  15.262  14.339  12.489
26440W        W96321   7.782  11.700  12.978
26441W        W96322  33.448  32.905  11.105
26442W        W96323  23.688  27.017  12.553
26443W        W96324  28.157  12.216  11.866
26444W        W96325   1.315  29.095  14.996
26445W        W96326  26.986  22.139  12.033
26446W        W96327  25.077   0.284   0.928
26447W        W96328  30.066  42.012   2.341
26448W        W96329   2.754  26.019   0.752
26449W        W96330   2.335  11.820   1.386
26450W        W96331  15.159   7.383   1.817
26451W        W96332  31.614  28.166   1.344
26452W        W96333   6.710  31.614  13.502
26453W        W96334  11.304   9.306  14.916
26454W        W96335  36.463   4.743  11.560
26455W        W96336  39.827  32.139  14.847
26456W        W96337  24.551  18.626   5.111
26457W        W96338  38.403  27.086  14.022
26458W        W96339   4.250   9.792   3.373
26459W        W96340  35.578  40.417  13.482
26460W        W96341   7.397  29.474   2.210
26461W        W96342   6.680  15.097   2.819
26462W        W96343  29.170  35.075  13.446
26463W        W96344  26.503  28.162   5.315
26464W        W96345  13.212  22.722  13.415
26465W        W96346  18.726  23.550   3.226
26466W        W96347  26.620  22.566  12.426
26467W        W96348  24.047  43.957   1.387
26468W        W96349  26.589  31.063  14.983
26469W        W96350  41.407  11.774  10.507
26470W        W96351  35.502  14.767  13.015
26471W        W96352   5.870  32.054   0.846
26472W        W96353  26.635  15.759   2.266
26473W        W96354  37.501  30.571   3.364
26474W        W96355  26.969   3.910  11.936
26475W        W96356  20.758   1.446   1.372
26476W        W96357   3.423   6.717   4.639
26477W        W96358  37.068  38.531   3.347
26478W        W96359   9.253  35.557  11.520
26479W        W96360  36.351   1.335  13.942
26480W        W96361  38.382  25.007  13.516
26481W        W96362   7.770  38.900   4.156
26482W        W96363  17.795   1.843   4.325
26483W        W96364  13.682  12.252   4.326
26484W        W96365  41.295  34.893  11.126
26485W        W96366  26.506  35.974  13.855
26486W        W96367  28.572   8.396   9.485
26487W        W96368   7.773  14.248   0.794
26488W        W96369   3.870   4.809   4.768
26489W        W96370   0.900  22.517  10.511
26490W        W96371  17.228  24.612   2.766
26491W        W96372   4.426  23.566   3.699
26492W        W96373   6.803  30.603   3.810
26493W        W96374  16.204  29.600   1.311
26494W        W96375  44.348   8.187  12.539
26495W        W96376  12.260  43.824  14.444
26496W        W96377  41.316   3.339  10.630
26497W        W96378   9.889  18.775   2.318
26498W        W96379  42.919   6.786  10.631
26499W        W96380  16.647  16.658  10.405
26500W        W96381  30.425   9.823  14.411
26501W        W96382   4.729   9.867  12.005
26502W        W96383  12.338  34.511  10.589
26503W        W96384  16.714  38.538  11.071
26504W        W96385  41.335  20.740   2.902
26505W        W96386  34.431  13.207   1.765
26506W        W96387  12.719  20.738   2.864
26507W        W96388  43.407   1.771   2.886
26508W        W96389  24.039   5.870  12.576
26509W        W96390   3.850  36.350  12.033
26510W        W96391  26.654  42.392  10.621
26511W        W96392  40.903  23.665  10.435
26512W        W96393  32.132  15.773   2.863
26513W        W96394  32.580  22.220  13.891
26514W        W96395  27.467  18.708  12.442
26515W        W96396  42.378  27.105   2.202
26516W        W96397  18.612   8.387   4.661
26517W        W96398  17.570  36.440   4.773
26518W        W96399  32.039   0.801   0.373
26519W        W96400  13.665  26.675   2.877
26520W        W96401  29.117  15.148   3.715
26521W        W96402  39.033  14.604  10.982
26522W        W96403  23.182  26.650   4.654
26523W        W96404  40.903   1.851   2.355
26524W        W96405  40.953  22.033  14.352
26525W        W96406  20.060  35.890   4.114
26526W        W96407  19.187  36.945  11.425
26527W        W96408  37.374   0.386   2.217
26528W        W96409  24.136  23.576   2.361
26529W        W96410  14.325  36.862   2.778
26530W        W96411  29.488  16.785   1.718
26531W        W96412  27.013   8.655   1.781
26532W        W96413   7.181  16.609  14.472
26533W        W96414  38.955  16.808  12.434
26534W        W96415   3.442  25.558   0.958
26535W        W96416  24.069  16.304   1.271
26536W        W96417  25.036   3.255   3.178
26537W        W96418  44.909  15.770   3.215
26538W        W96419   1.829  41.843  11.971
26539W        W96420  24.177  16.133   0.813
26540W        W96421  21.732  24.220  11.578
26541W        W96422  25.082   3.909   0.264
26542W        W96423   5.854  42.376   1.888
26543W        W96424  32.972  37.441  11.479
26544W        W96425   3.728   3.878  11.004
26545W        W96426  21.066   0.435  13.378
26546W        W96427  31.041  19.109  14.462
26547W        W96428  34.401  41.392   4.273
26548W        W96429  15.577  20.187   4.218
26549W        W96430   2.893  33.515  14.883
26550W        W96431  19.154   2.470  14.513
26551W        W96432  40.456  19.728  13.010
26552W        W96433  31.081  42.282   0.737
26553W        W96434  26.117  39.510  10.897
26554W        W96435  12.818  12.619   2.673
26555W        W96436  11.193  32.634  14.985
26556W        W96437  12.219   1.387   0.472
26557W        W96438  42.951  37.560  10.454
26558W        W96439  43.838  44.871  11.559
26559W        W96440   7.254  11.220   0.849
26560W        W96441  36.889  18.621   4.344
26561W        W96442  38.962   1.375   3.672
26562W        W96443   5.852  20.110   1.909
26563W        W96444  38.921   9.211  11.106
26564W        W96445   1.374  40.945  12.868
26565W        W96446  21.691  13.126   2.868
26566W        W96447  32.126  21.255  13.863
26567W        W96448  30.587  27.994  13.839
26568W        W96449  44.381  31.509   0.906
26569W        W96450   0.854  36.377   2.830
26570W        W96451   1.287   4.930   0.477
26571W        W96452  41.892  44.279  12.878
26572W        W96453  25.601   8.691  10.440
26573W        W96454  34.863  36.516   2.214
26574W        W96455  39.494  35.389  10.444
26575W        W96456   4.282  15.116  14.023
26576W        W96457  27.681  16.773  13.990
26577W        W96458  38.397  10.750   0.376
26578W        W96459   1.307  44.471   2.681
26579W        W96460  16.165  14.293  13.049
26580W        W96461  38.843   8.724   1.874
26581W        W96462  16.080  27.479   3.376
26582W        W96463  26.458  40.867  12.454
26583W        W96464  36.473  44.785  12.092
26584W        W96465  20.543  32.949   0.810
26585W        W96466  13.233   8.234   3.191
26586W        W96467  36.565   5.856   4.800
26587W        W96468  39.054  28.623   0.755
26588W        W96469  18.681  40.487   1.217
26589W        W96470  13.647  21.682   0.265
26590W        W96471  42.810  19.040   3.860
26591W        W96472  25.625  22.241  12.953
26592W        W96473  43.492   1.903   4.267
26593W        W96474  39.407   7.416  11.882
26594W        W96475   4.267  22.501  13.982
26595W        W96476  16.746  24.218  14.009
26596W        W96477  22.687  19.690   0.473
26597W        W96478  38.492  27.687  11.893
26598W        W96479  31.129  30.101   2.675
26599W        W96480  15.679  19.668  14.303
26600W        W96481   2.778  25.966   3.156
26601W        W96482  27.058  32.068  11.998
26602W        W96483  32.631  29.439  14.883
26603W        W96484  41.457  10.319   4.161
26604W        W96485  24.638  41.406  13.019
26605W        W96486  28.990  23.198  13.963
26606W        W96487  32.098  30.096   1.363
26607W        W96488   3.944   1.922   3.725
26608W        W96489  28.483  20.134   0.365
26609W        W96490  41.036  11.798  12.920
26610W        W96491  40.804  20.764   3.235
26611W        W96492  26.123  36.046  14.494
26612W        W96493  29.089  42.943   1.787
26613W        W96494  32.407   1.849   5.133
26614W        W96495  44.936  23.727  13.002
26615W        W96496  33.596   6.859  12.520
26616W        W96497  37.952   0.301  12.844
26617W        W96498  24.194  20.582  14.350
26618W        W96499  40.031   1.450  11.492
26619W        W96500  15.306  32.932  13.816
26620W        W96501  30.065   4.710   0.861
26621W        W96502  39.905  37.891  13.544
26622W        W96503  23.542   2.311   2.326
26623W        W96504  11.309  28.038   3.385
26624W        W96505   1.276  14.134   3.169
26625W        W96506  40.911  19.042   1.716
26626W        W96507  41.987  23.098  11.592
26627W        W96508  29.171  10.841   2.784
26628W        W96509  23.188  40.945  12.395
26629W        W96510   0.809  20.581  14.454
26630W        W96511  27.679  34.405   3.793
26631W        W96512  19.657  24.228  10.445
26632W        W96513  38.566  34.118   1.226
26633W        W96514   6.306   5.198  13.888
26634W        W96515  18.755  12.701   0.345
26635W        W96516   0.813  12.748  11.104
26636W        W96517  34.403  31.585   2.812
26637W        W96518  12.341  25.082  12.051
26638W        W96519   8.882  36.439  11.877
26639W        W96520  35.032  41.348  13.031
26640W        W96521  29.074  13.729   0.812
26641W        W96522   1.376  38.444  13.004
26642W        W96523   9.658   2.320  13.534
26643W        W96524  35.442   5.196   2.741
26644W        W96525  29.016   9.855   0.959
26645W        W96526   3.716  40.869  14.389
26646W        W96527  42.318  12.295   0.743
26647W        W96528  15.155  26.653   2.712
26648W        W96529  13.669  34.026  13.914
26649W        W96530  15.731  20.740  10.934
26650W        W96531  43.948  13.664   4.699
26651W        W96532   7.214  30.061  14.398
26652W        W96533   0.308  42.397  11.607
26653W        W96534  36.417  27.670  14.863
26654W        W96535  16.125  34.001  11.929
26655W        W96536  25.177  30.455  12.975
26656W        W96537  10.689  19.247  14.312
26657W        W96538  26.680   0.765   1.705
26658W        W96539  35.968  41.535  14.277
26659W        W96540   6.683  33.569   2.896
26660W        W96541  37.073  23.495  13.823
26661W        W96542   7.204  32.515  12.405
26662W        W96543  21.203  31.114  11.440
26663W        W96544  44.005  39.918  14.318
26664W        W96545   9.316  23.017   3.206
26665W        W96546   1.795  42.878  14.388
26666W        W96547   0.308   2.908   4.693
26667W        W96548  43.901  29.513   1.387
26668W        W96549   3.738  31.475  11.931
26669W        W96550  27.563   2.230   2.802
26670W        W96551  10.214  32.391   2.193
26671W        W96552  20.587  24.513   3.812
26672W        W96553  20.688   2.387  12.885
26673W        W96554  34.913  23.164  13.020
26674W        W96555   3.710  22.214   1.373
26675W        W96556  19.206  18.279   4.787
26676W        W96557  32.952  30.157   2.415
26677W        W96558   7.313  18.249   4.332
26678W        W96559  25.527  25.207  14.303
26679W        W96560  15.635  39.542  14.395
26680W        W96561  14.627   1.413  14.785
26681W        W96562   6.798  14.741   2.884
26682W        W96563  30.567  17.657  11.527
26683W        W96564  37.065  21.077  10.968
26684W        W96565   6.206  36.867   0.820
26685W        W96566  34.384  11.330   0.390
26686W        W96567  17.227  34.581  12.476
26687W        W96568  23.721  23.672  11.424
26688W        W96569   4.890  11.339  12.946
26689W        W96570  28.444  44.887  12.938
26690W        W96571   4.409  13.303  14.941
26691W        W96572   2.446  23.631  10.143
26692W        W96573  24.106  15.125   3.860
26693W        W96574  28.465   1.885  11.974
26694W        W96575  41.350  26.171  11.892
26695W        W96576  32.999  31.116   4.126
26696W        W96577  35.875  39.541  11.864
26697W        W96578  30.576  36.377   2.384
26698W        W96579  17.160  30.147  10.977
26699W        W96580  21.120   2.898  12.062
26700W        W96581  19.111   5.839  10.533
26701W        W96582   4.762  29.091   9.925
26702W        W96583  25.101  36.852   2.804
26703W        W96584  12.307  15.769  10.429
26704W        W96585  38.414  44.292  14.406
26705W        W96586  18.145  35.002   0.854
26706W        W96587  24.578  31.419  12.909
26707W        W96588  24.707  23.494   2.265
26708W        W96589  22.243  20.100   3.256
26709W        W96590  25.481  18.550   0.726
26710W        W96591   4.764  29.537  13.489
26711W        W96592   5.376  41.298   2.732
26712W        W96593  29.645  39.928   2.768
26713W        W96594   0.427  39.849   4.291
26714W        W96595  35.496   8.341   0.264
26715W        W96596   6.831  37.411  14.880
26716W        W96597  31.546  18.255  12.048
26717W        W96598  18.715  29.923  11.421
26718W        W96599   8.169  12.779  11.014
26719W        W96600  39.870  37.379  13.400
26720W        W96601   9.694  17.202   3.376
26721W        W96602  12.626  21.603  13.447
26722W        W96603   0.753  34.966   0.441
26723W        W96604  44.828  30.973  13.815
26724W        W96605   8.180  34.559   2.369
26725W        W96606  36.398  38.549   3.376
26726W        W96607  24.107   9.322  13.357
26727W        W96608  22.021  38.397   2.327
26728W        W96609  24.677  31.411  11.604
26729W        W96610  26.543  17.218  11.583
26730W        W96611  39.844  21.039  13.927
26731W        W96612  23.615  15.792   0.376
26732W        W96613  18.759   5.237   0.424
26733W        W96614  40.345  30.436   0.929
26734W        W96615  22.555  28.468   0.362
26735W        W96616  44.854  43.773  12.545
26736W        W96617  25.618   6.832   0.459
26737W        W96618  27.137  25.487  12.494
26738W        W96619  27.996  25.078  12.383
26739W        W96620  11.668  43.384  12.463
26740W        W96621   0.902  15.115  14.856
26741W        W96622   9.243  14.780   4.170
26742W        W96623  14.795  17.208   1.861
26743W        W96624   6.240   7.684   1.911
26744W        W96625  18.119  31.062   2.259
26745W        W96626  28.026  18.565   3.827
26746W        W96627  44.854  32.615  12.952
26747W        W96628   3.405   8.901  11.071
26748W        W96629  32.054  42.414   3.269
26749W        W96630  33.087   5.295   4.237
26750W        W96631  33.922  38.468  14.360
26751W        W96632  31.545  27.090  11.385
26752W        W96633  22.190  44.427   3.763
26753W        W96634   1.324   2.449   0.459
26754W        W96635  25.603  12.233   0.782
26755W        W96636   5.228  42.002   1.247
26756W        W96637  25.540  33.589   4.791
26757W        W96638   4.283  19.086  10.596
26758W        W96639  39.897   2.959   0.745
26759W        W96640  27.463  28.460  12.071
26760W        W96641  30.056  25.082  14.943
26761W        W96642  33.454   7.874  13.439
26762W        W96643  20.653  37.891   0.752
26763W        W96644   9.245   0.941   1.862
26764W        W96645   0.393  20.148  13.883
26765W        W96646  31.512  11.777  13.443
26766W        W96647  22.045   2.727  13.483
26767W        W96648  32.426   7.742  14.881
26768W        W96649  17.113  29.532  12.847
26769W        W96650  25.590  31.456  14.289
26770W        W96651  36.365  26.631  11.986
26771W        W96652  16.663  12.192  10.471
26772W        W96653  43.320  14.234   0.828
26773W        W96654  25.196   8.796  12.980
26774W        W96655   7.836  17.686  14.766
26775W        W96656  27.089  42.442  10.636
26776W        W96657  25.120  38.057  13.906
26777W        W96658   3.363   0.492  14.478
26778W        W96659  42.470  32.103   0.960
26779W        W96660  18.720  40.377  11.914
26780W        W96661  30.419   7.819  14.884
26781W        W96662  26.006   5.791   2.295
26782W        W96663  37.948  18.157   2.417
26783W        W96664  37.975  25.476   1.342
26784W        W96665  32.035  29.968  13.336
26785W        W96666  14.682  13.831  10.425
26786W        W96667  31.023  12.160   2.855
26787W        W96668  10.848  41.513  11.098
26788W        W96669   2.956  42.784  10.521
26789W        W96670  20.570  24.677  13.421
26790W        W96671   1.877  13.320   3.640
26791W        W96672   2.280  36.996   4.203
26792W        W96673  36.463  20.703   2.415
26793W        W96674  34.579  17.624  14.816
26794W        W96675  36.960  28.011   4.260
26795W        W96676  27.537  42.398  12.987
26796W        W96677  39.365  41.884   2.179
26797W        W96678  24.106  33.547   3.192
26798W        W96679  26.996  43.321  11.865
26799W        W96680  36.370  25.148   1.878
26800W        W96681  22.745  33.036   1.236
26801W        W96682  41.954  15.807   3.207
26802W        W96683  29.150  15.760  13.052
26803W        W96684   5.383   6.843   4.744
26804W        W96685  23.733  29.139   1.883
26805W        W96686   9.150  18.653  14.898
26806W        W96687  36.889  10.259   2.374
26807W        W96688   3.742   8.686  11.431
26808W        W96689  28.108  19.725   0.309
26809W        W96690  38.938  21.065   4.180
26810W        W96691  20.743  32.575   0.733
26811W        W96692   6.864  18.284   4.634
26812W        W96693  40.922   1.474   3.650
26813W        W96694  14.303  42.350   0.967
26814W        W96695  37.555  38.028   4.824
26815W        W96696  27.519  25.510  11.425
26816W        W96697  43.463  22.643  10.521
26817W        W96698  14.146  16.304   1.439
26818W        W96699  17.758  17.195   1.771
26819W        W96700  12.155  17.190   1.273
26820W        W96701  40.028  28.466   3.649
26821W        W96702  34.980  22.138   1.880
26822W        W96703  24.120  26.488   0.299
26823W        W96704  12.710  18.720  10.583
26824W        W96705  13.195  22.225   1.389
26825W        W96706   1.279  14.814   2.206
26826W        W96707  22.133  41.890  11.571
26827W        W96708  17.744  41.536  10.494
26828W        W96709   2.398  43.402  13.999
26829W        W96710   3.292  22.186   1.316
26830W        W96711  28.163  25.484   3.692
26831W        W96712  25.654  22.999  11.860
26832W        W96713   6.713  13.783   4.792
26833W        W96714  26.100   5.267   4.738
26834W        W96715  33.568  28.166   0.934
26835W        W96716   9.260  40.460   2.365
26836W        W96717  37.834  31.512   3.825
26837W        W96718  23.544  21.168   0.289
26838W        W96719  22.244  22.245   4.729
26839W        W96720  20.238  28.045   0.469
26840W        W96721   4.231  33.918   1.408
26841W        W96722   4.353  27.445  14.415
26842W        W96723  23.114  18.185  14.762
26843W        W96724  15.689  34.378   4.784
26844W        W96725  21.682  17.615  11.913
26845W        W96726  15.216  32.104   3.297
26846W        W96727  23.172  37.402   0.916
26847W        W96728  35.393  24.715  14.340
26848W        W96729  41.930  15.085   1.822
26849W        W96730  38.378   3.319   1.301
26850W        W96731   1.437  28.654  10.523
26851W        W96732  32.619  20.591  12.370
26852W        W96733  30.448  10.726  14.442
26853W        W96734  25.581   2.399  14.457
26854W        W96735  40.848  23.232  14.014
26855W        W96736  29.647  27.990  10.554
26856W        W96737   8.662  38.923  12.562
26857W        W96738  21.575  33.400  10.141
26858W        W96739  28.458   8.190   4.727
26859W        W96740   1.870  12.781  12.401
26860W        W96741   8.265  36.482  12.514
26861W        W96742   4.928  40.461  11.542
26862W        W96743  41.988  41.930  10.919
26863W        W96744   7.221  33.050   0.904
26864W        W96745  35.446   4.796   0.243
26865W        W96746  43.956  13.285   4.182
26866W        W96747  31.555   7.797  11.073
26867W        W96748   1.915  30.476   2.327
26868W        W96749   7.849  27.474   1.401
26869W        W96750  25.151  14.313   1.289
26870W        W96751  25.213  20.060  11.578
26871W        W96752  41.487  23.993  11.395
26872W        W96753  22.168  28.980   2.352
26873W        W96754  25.054   6.684  11.543
26874W        W96755  38.964  37.037   0.967
26875W        W96756   1.971  25.597   0.864
26876W        W96757   4.818  12.204  14.819
26877W        W96758  36.992  25.497   3.326
26878W        W96759   8.831  15.713   2.296
26879W        W96760  16.672   2.301  12.363
26880W        W96761  27.969  39.379  10.417
26881W        W96762  23.609  16.700   1.863
26882W        W96763  37.407  34.916   4.114
26883W        W96764  43.402  18.177  13.329
26884W        W96765  26.116  28.102   3.345
26885W        W96766   1.828  44.265  13.061
26886W        W96767   6.218  33.400   4.703
26887W        W96768  30.502  20.251   2.898
26888W        W96769  29.123  25.517   2.686
26889W        W96770  26.680  22.601   4.729
26890W        W96771  26.095  19.617   4.187
26891W        W96772   1.826  44.967   4.599
26892W        W96773  14.308  39.856  12.879
26893W        W96774   6.776  17.193   2.386
26894W        W96775  28.092  37.040   1.232
26895W        W96776  28.944   5.742  11.972
26896W        W96777  38.005  15.641   4.666
26897W        W96778  18.756   0.743   0.263
26898W        W96779   0.482  20.272   0.444
26899W        W96780  12.729  26.578   4.813
26900W        W96781  36.574  35.887  10.604
26901W        W96782   8.349  13.304   2.790
26902W        W96783  23.667  32.567   1.325
26903W        W96784  18.088  39.556  11.980
26904W        W96785  29.142  36.039  11.000
26905W        W96786   2.444  37.391  10.098
26906W        W96787   2.930  44.492  11.385
26907W        W96788  24.213  14.639  12.461
26908W        W96789  27.995  31.009  12.565
26909W        W96790  34.959  31.025   1.880
26910W        W96791  44.898  20.242  10.951
26911W        W96792  44.440  31.506   4.166
26912W        W96793  11.864  26.653   5.104
26913W        W96794  22.694  10.685   4.192
26914W        W96795   4.799  18.555   0.435
26915W        W96796  42.950  18.573   0.300
26916W        W96797  20.593   1.322   1.893
26917W        W96798   4.434   0.746   4.204
26918W        W96799  40.946  18.635   0.934
26919W        W96800  15.320  30.123  12.510
26920W        W96801  34.951  36.861  13.064
26921W        W96802   5.316   0.862  11.551
26922W        W96803  44.830   8.342  13.869
26923W        W96804  34.601  44.841   1.701
26924W        W96805  38.492  34.463   1.796
26925W        W96806  17.735  38.397   3.743
26926W        W96807  25.526  17.642   0.353
26927W        W96808  22.036  27.570   1.261
26928W        W96809   6.693   8.731  14.408
26929W        W96810  28.633  43.464   0.459
26930W        W96811  19.707  18.610   2.224
26931W        W96812  22.200  36.065   0.733
26932W        W96813  24.119  28.050   5.133
26933W        W96814  42.788  13.600   2.700
26934W        W96815  40.542  36.942   0.304
26935W        W96816  40.840  35.874  11.019
26936W        W96817  24.010  29.570   0.961
26937W        W96818  44.787  22.059   0.315
26938W        W96819  34.922  37.029  10.576
26939W        W96820  24.171  19.589   4.827
26940W        W96821   5.775  28.649   3.809
26941W        W96822   0.284   0.852  14.874
26942W        W96823  35.023  13.105   1.409
26943W        W96824  32.937   9.852  10.976
26944W        W96825  23.708  22.117   1.731
26945W        W96826  11.136  22.079  12.479
26946W        W96827  19.569  27.640  13.528
26947W        W96828  11.668   3.239   1.369
26948W        W96829   6.734  11.236   4.250
26949W        W96830  12.686  22.653  13.019
26950W        W96831  32.992  35.520  11.397
26951W        W96832  13.637  43.833   3.632
26952W        W96833  22.136  27.057   4.258
26953W        W96834  13.226  28.618  11.012
26954W        W96835   3.258  32.983  13.458
26955W        W96836  22.712  37.462  13.425
26956W        W96837  44.780  41.876   0.324
26957W        W96838  19.080  14.187  12.875
26958W        W96839  21.660  25.564   0.350
26959W        W96840   1.355  43.004  13.532
26960W        W96841  25.087  26.186  10.934
26961W        W96842  20.116  13.282  10.897
26962W        W96843  17.104   0.933   3.681
26963W        W96844  41.820  44.919   0.871
26964W        W96845  11.672  28.149  11.886
26965W        W96846  11.643  16.794  13.795
26966W        W96847  31.983  33.457   2.347
26967W        W96848  43.982  24.573  11.371
26968W        W96849  43.342   0.749  13.536
26969W        W96850   6.802  37.045   2.820
26970W        W96851  37.422   0.325  14.778
26971W        W96852  41.503   9.216  13.459
26972W        W96853   6.703   0.930  13.918
26973W        W96854  28.987   3.762  11.554
26974W        W96855   5.832  27.098   1.248
26975W        W96856  43.516   9.338   3.800
26976W        W96857  31.954  14.184   2.782
26977W        W96858  12.622  41.474  10.931
26978W        W96859   1.838  36.442   1.864
26979W        W96860  30.513  13.687   0.853
26980W        W96861  43.352  19.082  13.056
26981W        W96862  18.097  35.942   3.646
26982W        W96863   8.203  28.606  12.842
26983W        W96864   6.319  10.226   2.736
26984W        W96865  12.801  34.530   3.704
26985W        W96866  10.154   9.723  12.024
26986W        W96867  15.254  27.009  10.609
26987W        W96868   6.852  30.597   4.275
26988W        W96869   5.287  22.141   3.720
26989W        W96870  11.740   7.317   2.385
26990W        W96871   4.780  30.928   4.249
26991W        W96872   9.814  29.469  11.392
26992W        W96873  37.366  14.111  11.550
26993W        W96874  12.123  15.742   2.776
26994W        W96875  31.902  36.048  12.393
26995W        W96876  14.206  25.190  12.893
26996W        W96877  31.030  37.348   2.387
26997W        W96878  11.688  18.282  11.030
26998W        W96879  35.512  16.141  10.404
26999W        W96880  30.139  19.563   2.365
27000W        W96881  22.175   9.195   3.809
27001W        W96882  13.321  38.069  10.007
27002W        W96883  29.435   8.397   4.126
27003W        W96884   2.848  42.957  14.957
27004W        W96885  29.510  19.730  13.039
27005W        W96886  23.614  35.437  12.559
27006W        W96887  38.336  25.182  10.942
27007W        W96888  27.174   2.379  12.473
27008W        W96889  13.736  18.690   2.759
27009W        W96890  22.697  18.176  13.817
27010W        W96891  40.468  34.600   1.341
27011W        W96892   1.348  33.620   1.811
27012W        W96893  30.591  14.791   3.301
27013W        W96894   0.874  42.523  14.465
27014W        W96895  40.442   9.708  12.940
27015W        W96896  39.322   4.421   3.294
27016W        W96897  41.868  12.727  11.469
27017W        W96898  41.902  34.980  11.420
27018W        W96899  27.516  44.936  10.516
27019W        W96900  17.302   1.957   4.796
27020W        W96901  32.592  38.008  14.962
27021W        W96902  18.128  37.379  13.972
27022W        W96903   2.761  17.638   4.686
27023W        W96904  41.916  11.725  13.990
27024W        W96905  41.844  16.195   1.918
27025W        W96906  41.481  34.865   0.438
27026W        W96907  35.887  19.708  14.886
27027W        W96908  25.198   0.412  10.548
27028W        W96909  18.635  44.293  12.957
27029W        W96910  33.415  15.258  10.130
27030W        W96911   9.827  39.836  14.777
27031W        W96912  21.033  11.128  12.367
27032W        W96913  26.463  39.530   4.701
27033W        W96914  33.490  29.585   0.791
27034W        W96915  30.923  10.813  10.517
27035W        W96916  12.310  15.725  12.900
27036W        W96917  38.943  19.628   4.147
27037W        W96918  20.607   1.933  11.490
27038W        W96919  27.672  25.973  12.525
27039W        W96920  27.453  18.286   1.791
27040W        W96921  12.320  37.513  12.340
27041W        W96922  36.082  30.488  14.437
27042W        W96923  27.611  40.365   3.319
27043W        W96924  23.092  43.342  14.875
27044W        W96925  40.403  41.947   3.276
27045W        W96926   5.432  19.089   2.790
27046W        W96927  22.535  16.569  13.328
27047W        W96928  23.628  35.596   2.852
27048W        W96929  28.057  17.069   0.795
27049W        W96930  20.683  18.579  11.037
27050W        W96931   0.833   2.782  11.573
27051W        W96932  28.108  17.619  13.814
27052W        W96933  17.681  26.199   3.839
27053W        W96934  42.502  35.505   4.297
27054W        W96935  12.625  42.348   1.920
27055W        W96936  28.071  10.732  11.595
27056W        W96937  42.404   8.760   3.643
27057W        W96938  33.131  17.615   0.916
27058W        W96939   6.812  29.537   0.256
27059W        W96940  14.144  34.961  10.583
27060W        W96941   4.880  21.730  14.002
27061W        W96942  38.933  41.820   1.894
27062W        W96943  16.090  36.353   1.820
27063W        W96944  27.147  24.519   1.739
27064W        W96945  26.996  19.239  13.905
27065W        W96946  29.139   8.820   3.216
27066W        W96947   7.347  27.502   0.918
27067W        W96948  13.644  11.157  13.389
27068W        W96949  34.897  11.821   5.088
27069W        W96950  43.819  17.175   3.158
27070W        W96951  37.009  28.120   0.922
27071W        W96952   1.316   6.222   2.713
27072W        W96953  26.694  13.829   0.773
27073W        W96954  11.298  25.624  12.943
27074W        W96955  31.510  35.892  14.453
27075W        W96956  10.262   8.792  13.375
27076W        W96957   3.231  32.443   1.825
27077W        W96958  21.179   6.743   3.824
27078W        W96959   9.294  11.255   0.942
27079W        W96960  24.995  32.512  10.622
27080W        W96961  34.600  16.683  12.502
27081W        W96962  12.664  19.168   2.892
27082W        W96963  29.427  19.633  13.414
27083W        W96964  17.234  35.933  10.415
27084W        W96965  20.739  44.326  12.458
27085W        W96966   7.909  12.810  13.924
27086W        W96967  25.184  25.704  12.849
27087W        W96968  28.125   6.817  11.027
27088W        W96969  31.594   5.747  14.909
27089W        W96970  40.954  17.574  10.468
27090W        W96971  29.439  30.075   0.877
27091W        W96972  27.072   5.741   0.262
27092W        W96973  40.303  44.759  11.968
27093W        W96974   0.898  20.566   1.843
27094W        W96975  26.090  42.017  13.823
27095W        W96976  35.096  10.776  12.066
27096W        W96977   4.863  17.583   4.654
27097W        W96978   1.785  25.592   1.825
27098W        W96979   7.870  43.853   0.315
27099W        W96980  10.334  12.776  14.940
27100W        W96981   0.836  43.324  10.962
27101W        W96982  11.787  43.372  12.002
27102W        W96983  26.206  15.700  14.457
27103W        W96984  14.604   3.235  12.855
27104W        W96985  33.503  36.855  13.438
27105W        W96986  22.221   6.394   2.833
27106W        W96987  15.789  11.217  11.478
27107W        W96988   1.267  11.234  13.339
27108W        W96989   8.173   7.356  11.995
27109W        W96990  19.070  44.461  12.524
27110W        W96991   8.782  40.811   4.814
27111W        W96992  23.095  44.456   1.418
27112W        W96993  28.114  41.402   2.193
27113W        W96994   9.244  34.115  11.406
27114W        W96995  31.128  31.497  12.995
27115W        W96996  35.913   0.827  13.547
27116W        W96997   3.344  17.557   0.246
27117W        W96998  39.946  34.907  11.925
27118W        W96999  37.855  28.640   3.861
27119W        W97000  25.543  22.023   1.883
27120W        W97001  19.539  22.668  11.873
27121W        W97002   9.886   2.342   2.387
27122W        W97003   8.852  40.422  13.322
27123W        W97004  11.628  22.510  14.883
27124W        W97005  23.674  21.162   3.742
27125W        W97006   2.943  39.519  12.823
27126W        W97007  44.849  27.542   4.167
27127W        W97008  43.476  44.281  10.555
27128W        W97009   9.199  29.918  12.411
27129W        W97010  41.455   6.903  12.902
27130W        W97011  42.292  26.664  11.420
27131W        W97012  16.130   0.421  14.428
27132W        W97013  30.593   5.354   1.353
27133W        W97014   0.266  26.518   4.667
27134W        W97015  30.090  26.589  11.574
27135W        W97016  29.561  30.502  10.137
27136W        W97017  33.527  19.534   1.253
27137W        W97018  38.357  44.830   3.182
27138W        W97019  29.577  30.079  12.022
27139W        W97020  26.061   1.405   1.892
27140W        W97021  41.821  16.771   4.735
27141W        W97022   8.860  30.530   4.339
27142W        W97023  38.494   1.859   4.744
27143W        W97024   1.770  24.499  10.942
27144W        W97025  31.017  26.087  14.455
27145W        W97026   7.183   3.750  13.405
27146W        W97027  19.251  41.407   0.922
27147W        W97028  13.686   0.308  14.290
27148W        W97029  16.778  44.372  14.372
27149W        W97030  11.206  40.413  14.415
27150W        W97031  34.593  36.415   1.839
27151W        W97032   3.397  19.721   3.682
27152W        W97033  29.062  19.094   0.938
27153W        W97034   9.179  13.731   0.832
27154W        W97035  30.016  22.029   3.354
27155W        W97036  13.701  34.393   2.834
27156W        W97037   9.149  27.152  13.346
27157W        W97038  42.409  30.635  12.981
27158W        W97039   4.730  39.362  13.324
27159W        W97040  38.827  15.759  13.385
27160W        W97041  33.001   5.319  10.567
27161W        W97042  15.700   3.713   2.728
27162W        W97043  30.453  24.723   2.690
27163W        W97044  15.609   4.784  13.541
27164W        W97045   1.928  12.226   2.250
27165W        W97046  27.181  44.821   0.282
27166W        W97047   0.469  40.413   3.648
27167W        W97048  34.892   1.868   1.226
27168W        W97049  24.156   6.714  12.906
27169W        W97050   4.904  43.379   2.733
27170W        W97051  13.681   1.788   3.290
27171W        W97052  34.470  40.038  11.098
27172W        W97053  33.386  29.427  12.520
27173W        W97054  33.923   6.398  12.409
27174W        W97055  44.778  21.122   2.317
27175W        W97056  10.304  21.675   4.140
27176W        W97057  43.478  22.511   0.776
27177W        W97058  12.212  31.084   1.881
27178W        W97059   7.711  15.274  12.958
27179W        W97060  33.559  44.942   2.415
27180W        W97061   9.851  16.163   0.435
27181W        W97062   8.660  42.994   2.189
27182W        W97063  21.644  21.571  13.370
27183W        W97064   2.894   2.382   2.243
27184W        W97065  18.685  23.569   5.146
27185W        W97066  37.922   0.965  14.835
27186W        W97067   2.234  41.980  11.026
27187W        W97068   7.875  42.524  10.909
27188W        W97069   8.817  35.046   3.701
27189W        W97070  29.030  35.413  12.475
27190W        W97071   7.684  39.977   1.310
27191W        W97072  24.566  14.689  13.971
27192W        W97073  20.045  16.207  12.883
27193W        W97074  21.187  25.546  11.101
27194W        W97075  37.018  11.260   0.796
27195W        W97076  33.619  19.645   0.301
27196W        W97077   9.320  28.454  13.813
27197W        W97078  40.541   0.744   4.652
27198W        W97079  30.421  42.430   2.183
27199W        W97080  42.523  18.294  14.275
27200W        W97081  30.486   9.206  11.942
27201W        W97082  24.504  40.984   1.749
27202W        W97083  28.997  44.835  13.516
27203W        W97084  28.143  37.445  14.803
27204W        W97085  36.457  38.019   1.318
27205W        W97086  14.773  30.984  11.550
27206W        W97087  33.486  27.662  10.077
27207W        W97088  32.410   6.298   3.287
27208W        W97089  38.519  40.369   0.343
27209W        W97090   4.311  27.978   3.317
27210W        W97091   1.304  17.764  11.403
27211W        W97092  12.745   2.419   3.199
27212W        W97093   4.857  37.901  14.297
27213W        W97094   8.759  13.741  14.994
27214W        W97095  23.036  41.904   2.214
27215W        W97096  10.632  43.780   4.820
27216W        W97097  29.083  43.448  11.964
27217W        W97098  24.595  10.850  10.904
27218W        W97099  12.714  28.183  13.911
27219W        W97100   7.831  34.008   3.296
27220W        W97101  26.084  38.525  12.516
27221W        W97102  22.684  38.931  12.025
27222W        W97103  11.774  27.139  14.408
27223W        W97104  17.116  39.558  10.473
27224W        W97105  17.711   0.832   2.833
27225W        W97106  12.851  31.099  11.457
27226W        W97107  12.195  15.283   4.611
27227W        W97108   7.669  13.257   4.180
27228W        W97109  27.117  31.492  10.586
27229W        W97110   2.302  37.582   2.361
27230W        W97111   9.336  36.435  13.028
27231W        W97112   0.803  41.516   4.699
27232W        W97113  25.002  29.495   1.839
27233W        W97114  33.515  42.338   3.727
27234W        W97115  24.590  28.492  11.063
27235W        W97116  39.821  25.690   1.775
27236W        W97117  44.377   7.679   0.877
27237W        W97118   4.326  40.877   0.315
27238W        W97119  22.709  37.370  11.870
27239W        W97120  21.189  44.500  12.071
27240W        W97121  11.791   1.909  10.129
27241W        W97122  26.136  19.267   0.376
27242W        W97123  37.454  15.687  14.494
27243W        W97124  24.183  33.924  14.446
27244W        W97125  18.742  33.131   0.743
27245W        W97126   0.393  16.074  10.587
27246W        W97127  32.517  30.503   3.245
27247W        W97128  27.133   5.257   0.246
27248W        W97129  15.588  35.573  11.410
27249W        W97130  42.947  36.542   0.880
27250W        W97131   7.753   1.827  12.947
27251W        W97132  41.826  10.766   0.280
27252W        W97133  29.597   3.382   5.315
27253W        W97134  15.086  43.834  14.452
27254W        W97135   1.958  29.140  14.490
27255W        W97136   9.849  36.545   2.243
27256W        W97137  20.073  33.952  14.907
27257W        W97138  43.767  44.805  12.361
27258W        W97139   7.682  44.995   0.247
27259W        W97140  15.700  36.428   2.809
27260W        W97141  15.729  44.332  10.512
27261W        W97142  14.660  37.356   0.388
27262W        W97143  18.223   2.291   4.695
27263W        W97144  30.609  18.085   0.836
27264W        W97145  13.704  26.560  10.959
27265W        W97146  44.785  43.967   3.210
27266W        W97147  24.053   5.916   3.241
27267W        W97148   1.798  29.440  13.328
27268W        W97149  36.413  36.550   4.622
27269W        W97150  17.176  30.597  11.995
27270W        W97151   3.416   2.723  11.476
27271W        W97152  21.133  22.701   4.174
27272W        W97153   4.386  32.422  14.809
27273W        W97154  41.863   6.699   2.767
27274W        W97155  23.237  37.563   2.297
27275W        W97156  33.024  30.114   3.755
27276W        W97157  12.167  27.525  10.509
27277W        W97158  26.081  29.527   3.714
27278W        W97159  33.616  41.825   4.148
27279W        W97160  27.537  13.615   1.310
27280W        W97161   3.426  31.613   4.186
27281W        W97162  39.443   9.282   0.927
27282W        W97163   2.727  18.113   3.356
27283W        W97164  35.550  22.061  13.910
27284W        W97165  26.585  41.041   3.381
27285W        W97166   4.778  30.978  14.307
27286W        W97167  23.534  26.975   1.219
27287W        W97168  17.654  12.788   0.449
27288W        W97169   5.422  34.442  11.950
27289W        W97170  37.934   6.291  14.007
27290W        W97171  23.558   1.443  12.444
27291W        W97172  38.516  42.395  12.489
27292W        W97173  25.697  26.555   4.725
27293W        W97174  23.200  26.165   2.665
27294W        W97175   5.806  37.937  13.405
27295W        W97176   5.420  12.637   1.364
27296W        W97177  21.557  36.023   3.837
27297W        W97178   8.820  10.282  11.971
27298W        W97179  40.443  18.786  13.903
27299W        W97180   6.416  23.024   0.776
27300W        W97181   1.929   3.889  12.352
27301W        W97182  43.312  12.818  11.513
27302W        W97183  19.772  35.983   1.332
27303W        W97184   1.899  41.528  12.069
27304W        W97185  15.241   2.843  11.997
27305W        W97186  33.000  18.785  10.628
27306W        W97187  14.801  19.262   1.224
27307W        W97188  44.968  35.967   1.429
27308W        W97189  35.940  22.700  13.400
27309W        W97190  11.798  43.312  13.499
27310W        W97191  39.324  28.089   2.414
27311W        W97192   9.795  31.946   3.324
27312W        W97193  40.448  15.279  12.445
27313W        W97194  16.076  30.979  14.015
27314W        W97195  29.956  13.203   0.964
27315W        W97196  12.723   9.297   4.641
27316W        W97197   9.737  44.435   1.248
27317W        W97198  26.657  20.661   4.203
27318W        W97199  35.106  19.247   3.368
27319W        W97200   4.725  38.883   2.862
27320W        W97201  36.390  12.742  14.014
27321W        W97202   0.279   0.785   4.243
27322W        W97203  22.028  26.189   3.665
27323W        W97204  42.903   9.790   2.322
27324W        W97205  35.435  14.700  11.570
27325W        W97206  20.638  17.700   4.793
27326W        W97207  23.582  31.906   4.799
27327W        W97208  39.399  36.486   2.187
27328W        W97209  21.176   4.340  11.471
27329W        W97210  42.858   4.247   1.758
27330W        W97211  23.990  36.970  13.823
27331W        W97212  25.114  24.083   1.375
27332W        W97213  15.221   4.442   4.342
27333W        W97214  20.153  22.079  10.949
27334W        W97215  10.265  44.281  10.924
27335W        W97216  22.678  34.559   9.929
27336W        W97217  26.540  23.700  12.407
27337W        W97218  37.899  31.898  14.331
27338W        W97219  26.985  39.424   2.895
27339W        W97220  22.699  33.972  12.045
27340W        W97221   2.417  28.014  10.061
27341W        W97222  26.043  38.916  12.558
27342W        W97223   6.803  24.218  14.399
27343W        W97224  40.396  20.606  14.432
27344W        W97225  17.204  17.225   4.150
27345W        W97226   3.895   2.776   4.183
27346W        W97227  28.944  32.565  11.948
27347W        W97228  12.646   0.334   4.250
27348W        W97229  30.468  43.324   1.839
27349W        W97230  36.397  33.964  10.992
27350W        W97231  18.210  22.134   0.375
27351W        W97232  44.832   7.803  11.973
27352W        W97233   6.425  41.935   2.387
27353W        W97234  33.588  26.149   3.306
27354W        W97235   7.749  44.276  10.005
27355W        W97236  32.100   5.711   4.232
27356W        W97237  15.788  23.198   3.752
27357W        W97238   5.932   9.657  12.523
27358W        W97239  19.090  28.122  13.444
27359W        W97240  34.525  44.449  12.478
27360W        W97241  18.578  17.195   2.852
27361W        W97242   7.360  29.531   1.812
27362W        W97243  21.517  27.495   2.247
27363W        W97244  23.099   7.294  14.767
27364W        W97245  38.074  36.538   1.232
27365W        W97246   7.730   8.817  10.538
27366W        W97247  17.233   8.284  14.341
27367W        W97248  38.351  15.116   2.854
27368W        W97249  41.849  31.141  12.026
27369W        W97250  43.408  29.483   4.679
27370W        W97251   9.366   9.368  14.969
27371W        W97252  13.826   1.906  11.866
27372W        W97253  44.874   7.806   1.219
27373W        W97254   8.821  21.119   2.860
27374W        W97255   8.381  36.879   3.695
27375W        W97256  23.109  40.023  14.285
27376W        W97257   8.775  20.171  13.924
27377W        W97258  23.192  24.645   0.772
27378W        W97259  40.471  25.076   3.719
27379W        W97260  35.900  27.527  11.034
27380W        W97261  12.673   9.201  14.915
27381W        W97262  30.939  36.903  14.850
27382W        W97263   8.198  38.567   4.703
27383W        W97264  34.964   6.184  13.406
27384W        W97265  34.116  15.696   4.600
27385W        W97266  27.136  16.681   3.709
27386W        W97267  20.690  44.351  13.316
27387W        W97268  21.137  16.644  11.885
27388W        W97269  24.680  29.646  12.508
27389W        W97270  39.417  14.691   2.747
27390W        W97271  30.084  28.010   3.297
27391W        W97272   4.410   4.755  10.048
27392W        W97273  31.645  11.842   1.772
27393W        W97274  28.183   6.913   1.769
27394W        W97275  35.485  14.232   0.256
27395W        W97276  33.405   0.393  10.478
27396W        W97277   3.331  10.810  13.938
27397W        W97278  21.741  34.031   4.691
27398W        W97279  36.410  31.591   3.789
27399W        W97280   0.416  21.585   1.864
27400W        W97281  15.327  39.858  12.996
27401W        W97282  12.200  13.824  14.979
27402W        W97283  17.673   3.304   2.296
27403W        W97284  26.204  28.443   4.293
27404W        W97285  41.310  26.590  11.016
27405W        W97286  35.443  25.013  13.026
27406W        W97287   8.263   2.276  11.038
27407W        W97288  13.325  24.066   1.420
27408W        W97289  35.065  34.477  14.791
27409W        W97290  39.328  21.103  10.440
27410W        W97291   0.890  33.493   2.887
27411W        W97292  15.107  43.991  13.432
27412W        W97293  14.268   1.882  13.824
27413W        W97294  16.210  28.930  13.048
27414W        W97295  28.542  32.016   0.779
27415W        W97296   5.414  12.786   0.863
27416W        W97297  13.303  23.645  12.090
27417W        W97298  34.505  20.242  12.366
27418W        W97299  26.473  14.814  13.911
27419W        W97300  23.642   8.303   4.794
27420W        W97301  34.603   3.390   2.773
27421W        W97302   9.322   0.283   4.790
27422W        W97303   5.928  19.211  12.881
27423W        W97304  30.124   0.251   0.334
27424W        W97305   2.798  22.052  14.439
27425W        W97306  19.231   6.881  11.008
27426W        W97307  21.090  31.520  14.925
27427W        W97308   1.306  16.192  12.091
27428W        W97309  22.700  38.954   1.701
27429W        W97310  39.935  21.570   1.330
27430W        W97311  29.499  19.158  10.405
27431W        W97312  32.111  27.072   4.170
27432W        W97313  21.028   6.374   5.141
27433W        W97314  32.474  23.541  11.987
27434W        W97315  39.530   2.450  14.465
27435W        W97316  22.114  16.764   4.734
27436W        W97317   7.798  28.961   2.758
27437W        W97318  17.786  24.109   2.364
27438W        W97319  39.494   0.841  10.903
27439W        W97320   9.187  11.624   2.365
27440W        W97321  26.172  20.523   3.799
27441W        W97322   8.287   0.261  12.922
27442W        W97323   4.408  12.791   4.670
27443W        W97324  42.371   3.746  12.341
27444W        W97325   0.806  11.846   5.225
27445W        W97326  20.214  32.016   0.418
27446W        W97327  21.742  16.639   2.354
27447W        W97328  28.955  34.396   2.842
27448W        W97329  37.438  41.026  10.981
27449W        W97330  20.247  18.168  13.363
27450W        W97331  33.894  21.672  14.027
27451W        W97332  41.451   7.698   3.310
27452W        W97333  20.161  43.332   4.761
27453W        W97334  10.661  23.692  10.897
27454W        W97335  23.082  38.001  13.874
27455W        W97336  22.151  38.390   4.799
27456W        W97337   3.290   5.832  13.499
27457W        W97338  19.051   0.341   0.912
27458W        W97339   3.434  35.438  13.885
27459W        W97340  36.381  23.222  11.963
27460W        W97341  10.839   3.862   0.777
27461W        W97342  31.943   7.272  11.530
27462W        W97343   9.827  39.828  13.912
27463W        W97344  13.199  44.333  14.454
27464W        W97345  17.775   9.681   1.926
27465W        W97346  34.044   2.914   3.715
27466W        W97347  20.097   8.847   1.770
27467W        W97348   1.274   7.334  14.397
27468W        W97349  30.623  39.511  12.879
27469W        W97350   2.807  35.912   1.855
27470W        W97351  40.897  17.207   2.892
27471W        W97352  21.654  22.526   2.685
27472W        W97353  34.562  37.065  11.989
27473W        W97354  12.785   4.824   3.741
27474W        W97355  25.601  38.069  13.417
27475W        W97356  43.913  12.323  13.880
27476W        W97357  30.430  30.414  11.019
27477W        W97358  24.025  43.847  13.861
27478W        W97359  29.104  40.817   2.281
27479W        W97360  36.061   0.770  11.122
27480W        W97361  21.063  21.209  11.508
27481W        W97362  41.831   7.891  13.466
27482W        W97363  25.665  30.926  13.956
27483W        W97364  33.102  32.464  14.402
27484W        W97365   2.418  43.497  11.859
27485W        W97366  39.348  13.684   1.374
27486W        W97367  40.379  40.423   1.264
27487W        W97368   0.826   2.376   0.431
27488W        W97369   1.368  21.188  12.918
27489W        W97370   9.158  13.637   1.800
27490W        W97371  42.411   2.917  14.404
27491W        W97372  41.484  36.460  12.460
27492W        W97373  21.755  35.935   4.276
27493W        W97374   4.257  31.469   2.711
27494W        W97375  16.734   2.294   3.208
27495W        W97376   6.897  40.381  13.024
27496W        W97377  44.380  39.950  13.986
27497W        W97378  14.290  28.057  12.904
27498W        W97379   8.385   9.228   4.799
27499W        W97380   6.208  38.326  14.793
27500W        W97381   1.374  25.614   0.749
27501W        W97382  16.801   9.774   4.278
27502W        W97383  43.899   2.786   1.813
27503W        W97384  31.093   9.815   3.789
27504W        W97385  41.920   8.705  12.553
27505W        W97386  17.237  41.796   3.649
27506W        W97387  15.717   7.290  14.880
27507W        W97388  11.791  32.405   4.751
27508W        W97389   7.241  18.674   2.695
27509W        W97390  11.812  38.457   3.158
27510W        W97391  18.165  34.014   0.476
27511W        W97392  35.410  42.372  14.875
27512W        W97393   2.385   9.868  12.896
27513W        W97394   6.247  42.360   2.200
27514W        W97395  21.633  17.287  10.149
27515W        W97396  15.811   6.374   4.676
27516W        W97397  21.607  28.016  14.771
27517W        W97398  44.853   0.906  10.512
27518W        W97399  22.591  15.732   2.799
27519W        W97400  21.262  10.278  13.975
27520W        W97401  26.094  30.058  10.580
27521W        W97402  24.205  22.677  11.373
27522W        W97403  22.696  41.893  13.047
27523W        W97404  19.557  41.042   3.306
27524W        W97405   8.853  29.490   4.751
27525W        W97406  28.587  15.248   0.289
27526W        W97407  34.879  44.864  10.995
27527W        W97408  35.967  11.153   0.330
27528W        W97409   8.874  21.261   3.751
27529W        W97410  32.058   3.240  14.471
27530W        W97411  29.430   1.908   3.367
27531W        W97412  34.487  34.440   4.216
27532W        W97413  14.729  18.744  12.532
27533W        W97414  43.986  31.019  12.351
27534W        W97415  25.666   1.916  12.520
27535W        W97416  31.930  23.160  13.515
27536W        W97417  36.971  15.757  12.478
27537W        W97418  39.821   8.235  11.090
27538W        W97419  22.645   3.238   3.672
27539W        W97420  11.147  21.184  13.981
27540W        W97421  25.000  22.198  11.446
27541W        W97422  30.025   8.877  11.546
27542W        W97423   3.265   6.341   0.262
27543W        W97424  33.452  38.433   0.957
27544W        W97425  42.010  34.510   3.194
27545W        W97426  37.850   2.471  13.331
27546W        W97427  42.466  19.588  13.035
27547W        W97428  23.997  33.003  12.505
27548W        W97429  44.505  44.758   2.331
27549W        W97430  17.792  44.760   0.948
27550W        W97431  21.683   0.924   0.742
27551W        W97432  32.548  11.176  11.527
27552W        W97433  26.181  33.435   1.436
27553W        W97434  15.732  43.842   4.251
27554W        W97435  44.340   1.841  12.501
27555W        W97436  10.684  23.585  11.547
27556W        W97437  32.922  36.001  14.463
27557W        W97438  27.148  30.159   1.764
27558W        W97439  41.821  21.119   0.377
27559W        W97440  14.800  44.831   1.911
27560W        W97441   0.884  43.839   1.891
27561W        W97442   9.732  42.867  10.573
27562W        W97443  36.590   8.258   4.784
27563W        W97444  37.458   5.294   3.346
27564W        W97445   7.242   6.870  10.914
27565W        W97446  23.131  16.239  14.323
27566W        W97447  35.387  44.392  13.966
27567W        W97448  21.046   9.817  10.626
27568W        W97449  12.122  31.615  14.787
27569W        W97450   6.269  33.913  13.820
27570W        W97451  41.035  17.758   3.671
27571W        W97452  25.075  44.865   3.638
27572W        W97453   5.347  42.915  13.803
27573W        W97454   3.745  20.722   1.868
27574W        W97455   3.221  38.827  12.343
27575W        W97456  15.275   4.854  12.912
27576W        W97457  20.055  10.704  10.975
27577W        W97458  30.034  22.200  13.912
27578W        W97459  25.643  11.190   2.755
27579W        W97460  14.282  22.238  10.530
27580W        W97461  32.114  14.315  10.476
27581W        W97462  35.032  17.183  11.504
27582W        W97463  27.081  11.291   1.696
27583W        W97464  29.969  41.522  14.507
27584W        W97465  15.205  19.055  12.462
27585W        W97466  35.572   3.401  11.458
27586W        W97467  16.605  40.441   2.255
27587W        W97468  33.056   5.394  11.910
27588W        W97469  34.023  25.037  10.986
27589W        W97470   6.772  24.997  11.855
27590W        W97471  13.776   0.436  14.810
27591W        W97472  37.057   1.343  13.403
27592W        W97473   0.430  19.769   2.322
27593W        W97474  21.595  14.329   2.735
27594W        W97475  20.525   1.289   2.741
27595W        W97476  37.340   5.376   0.393
27596W        W97477  21.205  20.543   1.869
27597W        W97478  27.084   6.403  13.853
27598W        W97479  31.019  10.208  11.919
27599W        W97480   7.292  10.776   3.739
27600W        W97481  35.482   9.646  10.920
27601W        W97482  41.486  25.611   0.951
27602W        W97483  30.080  29.084  12.866
27603W        W97484  35.986  32.119   0.760
27604W        W97485   8.700  31.544   4.597
27605W        W97486  31.146   6.291  10.968
27606W        W97487  22.092   6.274  14.412
27607W        W97488  39.530  39.886  10.423
27608W        W97489  36.482  31.990  13.917
27609W        W97490   6.246  28.598   1.349
27610W        W97491  43.001   3.390  12.375
27611W        W97492  27.192   7.317   5.288
27612W        W97493  26.547  25.490  14.784
27613W        W97494  19.066  32.532   3.681
27614W        W97495   6.284   0.270   4.615
27615W        W97496  18.568  31.937   0.905
27616W        W97497  21.666  16.578   5.666
27617W        W97498  24.205   1.771   0.927
27618W        W97499   3.411  28.508  11.858
27619W        W97500  25.987  27.669   4.130
27620W        W97501  19.744  12.179   1.265
27621W        W97502  30.643  14.656  11.916
27622W        W97503  39.905  32.429  11.464
27623W        W97504   1.919  23.177  10.940
27624W        W97505  24.216   1.891  14.438
27625W        W97506   7.689  33.886  13.474
27626W        W97507  36.947   6.337   4.340
27627W        W97508   0.303  41.973  14.777
27628W        W97509  34.607   9.377   3.783
27629W        W97510  34.385  15.253  13.041
27630W        W97511  31.031  42.938   2.264
27631W        W97512   8.177  42.949  10.892
27632W        W97513  14.108  18.681   4.129
27633W        W97514  33.560  41.020  12.526
27634W        W97515  40.531  19.139   3.320
27635W        W97516  42.464   0.811   0.912
27636W        W97517  20.732  17.268   3.766
27637W        W97518  13.138  37.374   3.762
27638W        W97519  25.582  44.844   4.709
27639W        W97520  44.267  33.064   1.919
27640W        W97521   3.956  12.318  14.922
27641W        W97522  16.268   7.763  11.122
27642W        W97523   0.272   8.266  12.945
27643W        W97524  39.414  40.333   3.754
27644W        W97525  11.321  18.232   5.662
27645W        W97526  15.089  16.681  13.034
27646W        W97527  22.996   4.431  13.865
27647W        W97528   5.802  24.200  11.920
27648W        W97529   8.237  25.036  13.924
27649W        W97530   7.368  26.692  13.809
27650W        W97531  35.096  21.264  12.853
27651W        W97532  33.097  42.315   2.699
27652W        W97533   8.831  18.613  14.858
27653W        W97534  43.342  39.845  11.544
27654W        W97535   1.732   8.275   1.389
27655W        W97536  40.858  32.900   0.752
27656W        W97537  32.557  44.828  11.548
27657W        W97538  38.901   3.386  13.492
27658W        W97539   0.288  12.273   3.266
27659W        W97540  16.285  32.895  11.584
27660W        W97541   0.938  38.045  14.850
27661W        W97542  42.000  13.795  10.419
27662W        W97543  21.114  21.106   4.176
27663W        W97544  30.539  43.445  14.823
27664W        W97545  24.200  10.304  11.076
27665W        W97546  15.586  23.065  14.387
27666W        W97547  42.308   8.875  12.504
27667W        W97548  17.064  25.077   1.357
27668W        W97549  38.327  10.826   3.740
27669W        W97550  26.594  15.202  11.886
27670W        W97551   8.387  33.390   3.324
27671W        W97552  22.050  32.098  12.520
27672W        W97553  33.032  43.323  11.373
27673W        W97554   9.825  17.676   2.212
27674W        W97555  40.808   4.416  12.014
27675W        W97556   3.450  24.098   3.315
27676W        W97557  21.017  32.437   0.303
27677W        W97558  29.589  10.304  13.949
27678W        W97559  36.570  17.182   4.138
27679W        W97560  41.454   8.252  14.515
27680W        W97561   4.710  25.987   0.964
27681W        W97562  24.698  12.682  11.046
27682W        W97563  21.089  27.104  14.798
27683W        W97564   3.216  20.156  13.369
27684W        W97565  31.084   9.258   0.874
27685W        W97566  42.012  15.648   2.342
27686W        W97567  26.964  38.050   2.792
27687W        W97568  19.549  28.572   0.460
27688W        W97569  17.289  33.443   1.229
27689W        W97570   3.255  20.665  13.341
27690W        W97571  34.468   5.921  12.009
27691W        W97572  39.328   1.736  14.848
27692W        W97573  40.505  25.192  10.917
27693W        W97574   5.697  28.660  10.917
27694W        W97575  15.206  42.884   1.361
27695W        W97576  24.230  20.556   1.402
27696W        W97577  33.065  15.799  12.981
27697W        W97578   1.743  42.519   3.674
27698W        W97579  32.066  27.018   3.255
27699W        W97580  40.917  16.614  12.439
27700W        W97581  30.603  33.119   4.829
27701W        W97582  20.747  23.627   3.147
27702W        W97583  31.553  40.886  14.811
27703W        W97584  13.609  42.395   4.180
27704W        W97585  22.604   3.386  11.118
27705W        W97586   9.650  13.809  14.954
27706W        W97587  32.526  37.452   4.739
27707W        W97588  15.085  12.825   2.303
27708W        W97589  43.464  32.021   3.723
27709W        W97590  31.514   9.712   1.352
27710W        W97591   2.733  38.336  11.468
27711W        W97592  15.794  16.234   4.259
27712W        W97593  21.124  13.228  11.099
27713W        W97594  31.607  10.859   1.380
27714W        W97595  19.240  24.230   0.808
27715W        W97596  39.470   7.285   0.844
27716W        W97597  15.285  33.410  14.371
27717W        W97598  39.489  19.659  11.056
27718W        W97599   4.371   6.371   3.178
27719W        W97600  32.068  18.756  10.087
27720W        W97601  35.076  26.005  10.906
27721W        W97602  26.463  11.157   0.390
27722W        W97603  13.256   5.206  14.880
27723W        W97604  36.401  14.739  10.984
27724W        W97605  35.364  10.728   2.697
27725W        W97606   6.701  21.129  12.937
27726W        W97607  12.707   8.310   1.363
27727W        W97608  18.138  23.571  14.890
27728W        W97609   9.279  23.157   3.777
27729W        W97610  28.665  12.165  11.551
27730W        W97611  34.498  10.634  12.421
27731W        W97612  37.497  26.019   1.757
27732W        W97613  13.689  41.956  11.563
27733W        W97614  25.638  32.125  11.895
27734W        W97615  31.544  42.292  10.598
27735W        W97616   6.298  23.651   2.257
27736W        W97617  37.430  28.129   2.723
27737W        W97618   5.221  12.324  12.465
27738W        W97619   2.453  32.577  11.955
27739W        W97620   9.194  12.641   2.776
27740W        W97621  17.306  34.011  14.996
27741W        W97622  23.575  18.659  11.971
27742W        W97623  19.745   1.899  14.297
27743W        W97624  33.097  20.725   0.846
27744W        W97625  14.235   2.794  14.913
27745W        W97626  44.885  24.522  13.440
27746W        W97627  23.663  28.072   3.174
27747W        W97628  44.465  31.520  10.454
27748W        W97629  38.571  30.651   4.819
27749W        W97630  43.815  11.129  11.449
27750W        W97631  31.585   5.374  12.960
27751W        W97632  15.642  17.583   0.830
27752W        W97633  32.142  38.995   5.123
27753W        W97634   1.966   3.736   3.339
27754W        W97635  28.673  34.383   4.767
27755W        W97636  13.331  39.380  12.506
27756W        W97637  32.605  26.688  14.877
27757W        W97638  33.565  42.330  10.891
27758W        W97639  40.407  30.939  13.528
27759W        W97640  22.719   5.770  11.430
27760W        W97641  21.551  16.661   9.554
27761W        W97642  19.257   8.226   0.324
27762W        W97643  26.614  24.625   1.292
27763W        W97644  28.114   1.802   0.773
27764W        W97645   4.393  35.477   0.334
27765W        W97646  41.350  21.225   1.882
27766W        W97647   0.851  15.642  14.848
27767W        W97648  41.399   1.425  13.949
27768W        W97649  25.086   1.297  14.308
27769W        W97650  17.114  35.441  10.155
27770W        W97651   1.849  15.257   3.856
27771W        W97652   6.746   4.334   0.372
27772W        W97653  23.599  39.000   2.707
27773W        W97654  29.513  18.768  12.829
27774W        W97655  11.810  38.932   4.346
27775W        W97656  18.731  44.470   4.756
27776W        W97657   4.846  37.491   0.350
27777W        W97658  10.828  27.119  11.395
27778W        W97659  13.267  12.362   0.905
27779W        W97660   1.945   9.810   3.207
27780W        W97661  21.110  27.464  14.349
27781W        W97662  31.565   5.283   2.395
27782W        W97663  11.311  14.821  11.056
27783W        W97664  42.408   0.485   1.706
27784W        W97665  20.717   5.836   0.918
27785W        W97666  11.786  37.581   0.838
27786W        W97667  44.341  26.122  12.478
27787W        W97668  34.553  27.620   3.680
27788W        W97669  20.215   9.680   2.386
27789W        W97670  34.993  13.147  11.414
27790W        W97671   0.794   9.342  13.406
27791W        W97672  30.657  16.109  12.467
27792W        W97673  38.012   2.956  11.589
27793W        W97674  18.674  18.208  12.020
27794W        W97675  34.410  12.132  11.395
27795W        W97676  13.834   8.207   0.755
27796W        W97677   9.814  29.662   0.829
27797W        W97678  23.526   2.323   1.767
27798W        W97679   4.408  29.116  13.498
27799W        W97680   5.368  12.662   3.744
27800W        W97681   8.661  15.287   4.612
27801W        W97682  44.474  34.530  14.903
27802W        W97683  10.851  37.891   0.276
27803W        W97684  15.744  33.033   3.147
27804W        W97685  35.075   8.231   3.678
27805W        W97686  43.427  16.672  14.008
27806W        W97687   9.858  24.678   0.298
27807W        W97688  13.285  37.548  11.562
27808W        W97689  14.755  39.850   2.264
27809W        W97690  41.464  32.982   4.140
27810W        W97691   0.402  29.118   4.661
27811W        W97692   2.392  13.105  12.049
27812W        W97693  25.141   5.259  13.819
27813W        W97694  10.768  18.561   2.783
27814W        W97695  38.400  34.906  11.534
27815W        W97696  24.134  17.130  14.770
27816W        W97697  12.826  40.022   0.931
27817W        W97698  29.021  16.620  10.464
27818W        W97699  35.089  20.217  12.905
27819W        W97700  34.076  31.112  11.116
27820W        W97701  41.473  20.656   0.445
27821W        W97702  24.724  26.966   2.221
27822W        W97703  34.510  38.060   0.459
27823W        W97704   5.436  17.671   0.867
27824W        W97705  12.848  20.737   2.318
27825W        W97706  19.569   6.420  10.909
27826W        W97707  32.139  30.421   1.312
27827W        W97708  22.544  20.638   4.656
27828W        W97709  14.229  44.360   1.698
27829W        W97710  24.064   1.462   0.930
27830W        W97711  44.442  14.686  14.482
27831W        W97712  44.439   5.846  13.353
27832W        W97713  15.117  22.586  10.469
27833W        W97714  17.115   7.385   3.306
27834W        W97715  17.737  21.548  10.572
27835W        W97716  28.622  18.152   3.290
27836W        W97717  15.190   4.387   1.841
27837W        W97718  42.943  16.612  12.348
27838W        W97719   9.742  16.603   5.209
27839W        W97720  32.451  39.850   0.946
27840W        W97721  40.834  32.912   0.432
27841W        W97722  42.339  38.538  12.073
27842W        W97723  35.975   2.347   0.267
27843W        W97724   8.213  37.862   4.280
27844W        W97725   5.214  22.079  14.339
27845W        W97726  32.937  38.020  13.421
27846W        W97727  23.094  18.773  12.964
27847W        W97728  44.006   9.151   3.251
27848W        W97729   8.200   2.315  13.479
27849W        W97730  30.053  14.231   2.708
27850W        W97731  35.503  31.580   3.300
27851W        W97732  20.052  13.812   0.823
27852W        W97733  11.753  34.389  11.529
27853W        W97734  41.403  34.379  12.931
27854W        W97735   6.326  12.161  12.839
27855W        W97736  19.622   2.757   0.317
27856W        W97737  26.009  37.491   4.338
27857W        W97738  29.972   6.415  13.049
27858W        W97739  15.742  19.550   2.208
27859W        W97740  22.676  11.245  10.998
27860W        W97741   9.258  10.212  10.003
27861W        W97742  36.853   9.705  11.870
27862W        W97743  36.503  35.006  13.483
27863W        W97744  22.674  27.632  11.992
27864W        W97745  33.916  32.423   1.359
27865W        W97746  21.603  34.025  14.864
27866W        W97747  26.086  21.644   0.781
27867W        W97748   4.234   7.303   1.268
27868W        W97749  15.253   8.196  12.527
27869W        W97750   9.370  12.618   3.229
27870W        W97751   5.313  22.573  13.508
27871W        W97752  31.014  28.645   3.271
27872W        W97753  20.128  14.733  11.864
27873W        W97754   9.319   7.329  10.539
27874W        W97755  37.914  26.080   2.183
27875W        W97756  40.859   7.185  14.289
27876W        W97757  19.653  35.976   2.384
27877W        W97758  11.207  37.834   1.359
27878W        W97759  26.587  43.770   4.304
27879W        W97760  22.098  18.558  11.391
27880W        W97761  39.824   9.238   3.797
27881W        W97762  24.657  10.657   4.177
27882W        W97763   1.474  44.454  11.511
27883W        W97764  12.255   1.258   3.317
27884W        W97765  35.047  35.070  14.841
27885W        W97766   5.735   8.270   0.432
27886W        W97767  43.818  16.608  12.462
27887W        W97768  44.882   4.845   3.632
27888W        W97769  38.841  42.492  10.157
27889W        W97770  23.198  35.885   1.436
27890W        W97771   0.447  42.403   0.323
27891W        W97772  30.483   7.854   4.806
27892W        W97773  42.354  19.588   0.432
27893W        W97774   9.310  24.577   1.860
27894W        W97775   3.800  22.531   0.413
27895W        W97776  41.957  26.695   4.137
27896W        W97777  20.585   5.209  11.467
27897W        W97778  36.954  41.342   1.800
27898W        W97779   0.248  19.688  10.902
27899W        W97780   2.916  23.581   0.764
27900W        W97781  32.554   7.691   0.825
27901W        W97782  24.095  18.296  10.027
27902W        W97783  41.926  43.372   3.684
27903W        W97784  20.222  28.109  12.456
27904W        W97785  20.669  28.654  13.521
27905W        W97786  31.930  42.901  11.048
27906W        W97787  22.533  39.451  12.902
27907W        W97788  20.683  11.806  14.497
27908W        W97789  20.755  30.656   3.747
27909W        W97790  13.708  22.183   2.311
27910W        W97791  21.199   2.310   5.254
27911W        W97792  18.092   0.271  14.019
27912W        W97793  35.486  13.265  12.481
27913W        W97794  23.511  26.552   5.235
27914W        W97795  20.618  40.825  13.979
27915W        W97796  44.964   2.401   0.473
27916W        W97797  14.756  33.527   3.689
27917W        W97798  32.631  10.244  10.110
27918W        W97799  32.036  33.553   3.359
27919W        W97800  29.494   5.930   4.165
27920W        W97801   7.238   8.895  13.860
27921W        W97802  31.936  17.302  11.931
27922W        W97803  18.649  34.575   2.875
27923W        W97804  22.208  21.739   1.303
27924W        W97805  19.074  32.580  12.052
27925W        W97806  42.372  21.535   4.794
27926W        W97807  43.496  21.155   3.252
27927W        W97808   4.437   8.330  11.541
27928W        W97809  38.835  28.109  13.329
27929W        W97810  43.307   6.274   2.278
27930W        W97811  20.531   5.272   0.389
27931W        W97812  40.801  25.711  13.023
27932W        W97813  28.153  25.480   3.378
27933W        W97814   8.333  18.123  14.831
27934W        W97815   1.772   5.772  13.522
27935W        W97816  40.047  18.761  13.814
27936W        W97817  32.421   7.183   3.729
27937W        W97818  12.616  26.154  12.011
27938W        W97819  21.110  15.799  11.089
27939W        W97820  11.357  44.909   3.650
27940W        W97821  41.035  25.213  13.315
27941W        W97822   5.688  38.059   1.799
27942W        W97823   5.205  38.347  13.441
27943W        W97824   8.715  14.650   5.243
27944W        W97825   3.425  10.677   3.693
27945W        W97826   3.757  20.249  14.304
27946W        W97827  12.156  41.824  10.419
27947W        W97828  19.712   2.852   0.777
27948W        W97829   4.211  11.651  12.366
27949W        W97830  23.009  17.247   1.421
27950W        W97831  13.160   8.665  11.604
27951W        W97832   8.194  22.062  14.511
27952W        W97833   3.262  17.688   4.738
27953W        W97834  23.701  22.542  10.540
27954W        W97835   3.751   6.872   2.730
27955W        W97836  34.991   5.336   2.351
27956W        W97837   8.725  41.365   3.651
27957W        W97838  24.684   2.825   2.870
27958W        W97839  25.064  29.071  14.458
27959W        W97840  20.211   1.405  13.809
27960W        W97841  34.432  24.189  13.830
27961W        W97842  19.050  42.956  10.540
27962W        W97843   7.709  37.476   5.259
27963W        W97844  40.368  12.680  11.592
27964W        W97845  26.170  42.333  11.451
27965W        W97846  19.279  20.158  11.081
27966W        W97847  10.145  28.500  10.045
27967W        W97848   5.695  26.201   0.815
27968W        W97849  18.290  39.823  13.516
27969W        W97850  37.479  13.258  12.361
27970W        W97851  43.285  43.844  11.011
27971W        W97852  37.858  43.018   0.445
27972W        W97853  20.097  27.064   4.143
27973W        W97854  10.318  39.504  12.893
27974W        W97855   8.180  16.661  14.940
27975W        W97856  30.135  18.586   0.397
27976W        W97857  34.407   9.185  14.434
27977W        W97858  34.958  24.686   3.817
27978W        W97859   6.710  26.670   1.329
27979W        W97860  30.441   3.409  12.535
27980W        W97861  39.912  38.038   1.300
27981W        W97862  23.039   7.332   2.369
27982W        W97863  34.041  23.123   0.728
27983W        W97864  17.270  37.989  10.988
27984W        W97865  11.704  38.889   1.246
27985W        W97866  30.977   5.825   4.835
27986W        W97867  43.443  31.630   0.754
27987W        W97868  17.708  38.485  11.447
27988W        W97869  19.250  14.115  10.905
27989W        W97870  12.267  42.428   1.446
27990W        W97871  40.018   2.399   1.767
27991W        W97872  13.646  41.027   1.837
27992W        W97873  12.288  17.757   0.275
27993W        W97874  26.656  23.144  14.825
27994W        W97875  11.622   4.411   3.768
27995W        W97876  31.111  36.027   0.275
27996W        W97877  23.647   6.208   4.313
27997W        W97878  34.008  37.436   4.202
27998W        W97879  26.967  25.119  10.900
27999W        W97880  27.031  40.053   2.842
28000W        W97881  12.307   2.820  10.890
28001W        W97882  24.168   5.276  12.967
28002W        W97883  12.332  23.057  14.860
28003W        W97884  30.577  31.068   0.950
28004W        W97885  44.804  36.557   4.153
28005W        W97886  16.271  29.110   3.347
28006W        W97887  12.812  21.248  13.931
28007W        W97888  20.700  37.847  14.767
28008W        W97889   7.190  38.402   4.319
28009W        W97890  16.760  40.450  11.874
28010W        W97891  42.348   0.362   3.712
28011W        W97892  31.622  16.172   2.331
28012W        W97893  23.491  39.365   0.371
28013W        W97894  31.953  17.772   4.129
28014W        W97895  15.766  26.966   3.835
28015W        W97896   5.761  39.429  12.845
28016W        W97897   5.427  43.331  11.974
28017W        W97898  36.469   8.725   3.841
28018W        W97899   1.247  37.503  12.546
28019W        W97900  23.052  19.593  11.888
28020W        W97901  14.649  36.942   2.311
28021W        W97902  29.467  40.338   2.779
28022W        W97903   6.387  28.974  12.053
28023W        W97904  25.007  13.249   4.146
28024W        W97905  22.009  20.566  14.420
28025W        W97906  10.641  32.083   1.787
28026W        W97907  23.526  33.030  12.062
28027W        W97908  43.798  17.236   3.710
28028W        W97909  43.399  27.948  11.918
28029W        W97910  12.269  42.462  14.469
28030W        W97911  35.040  31.089   1.404
28031W        W97912  10.823  42.816   3.329
28032W        W97913  32.618  38.962  10.617
28033W        W97914  21.092  34.389   1.288
28034W        W97915  14.237  37.905  11.493
28035W        W97916   7.357  32.570   1.212
28036W        W97917  22.032   5.274   0.963
28037W        W97918  29.095  28.653  13.503
28038W        W97919  44.503  32.899   4.648
28039W        W97920  31.125  35.544  11.964
28040W        W97921  35.483  31.151  11.600
28041W        W97922   5.270  40.533   3.686
28042W        W97923   3.371  20.542  12.079
28043W        W97924  24.552  44.474  12.958
28044W        W97925   9.866   3.925   2.782
28045W        W97926  17.632  38.485   0.802
28046W        W97927  32.000  29.153   2.316
28047W        W97928  23.701   8.802  13.332
28048W        W97929  21.140  10.821  14.865
28049W        W97930   9.653  41.308  13.542
28050W        W97931  36.494  14.299   3.172
28051W        W97932  18.143  31.040  11.583
28052W        W97933  40.929   6.194  10.580
28053W        W97934  24.636  30.577   1.807
28054W        W97935  25.490   2.847   1.729
28055W        W97936  44.422  37.412   0.362
28056W        W97937  20.046   6.697  11.880
28057W        W97938   9.343  11.734  14.430
28058W        W97939  22.186  27.048   0.464
28059W        W97940  39.043  16.752   3.638
28060W        W97941  23.187   4.712  14.030
28061W        W97942  13.731  15.711   1.219
28062W        W97943  21.182  24.059  11.122
28063W        W97944  27.468  37.083   2.715
28064W        W97945  16.106  42.481  12.398
28065W        W97946  35.430  28.647  14.766
28066W        W97947  24.512  42.995  12.829
28067W        W97948  40.315  13.256  11.601
28068W        W97949   3.934   0.751  14.298
28069W        W97950  10.739   5.788  11.909
28070W        W97951  16.803  40.812   0.774
28071W        W97952  35.053  32.455   2.258
28072W        W97953  42.429  24.716  12.546
28073W        W97954  41.001   1.743   1.926
28074W        W97955  29.061  36.077   4.196
28075W        W97956  40.990   0.415   3.708
28076W        W97957   2.388  30.514  11.412
28077W        W97958  35.424   5.717   1.259
28078W        W97959  20.167  29.173   3.754
28079W        W97960  40.412  13.318   0.411
28080W        W97961  18.253  38.918  11.880
28081W        W97962  19.104   0.765   1.355
28082W        W97963  12.796   7.736  12.878
28083W        W97964  37.043   9.159  13.962
28084W        W97965  22.995  17.073  11.986
28085W        W97966  41.397  19.081  11.438
28086W        W97967  10.226  38.868  10.930
28087W        W97968  13.688   1.963   4.650
28088W        W97969  18.554  16.124   4.610
28089W        W97970   9.228  37.060   1.256
28090W        W97971   7.278  43.313   1.432
28091W        W97972  12.712   9.738   3.342
28092W        W97973  13.182   9.344  11.900
28093W        W97974   7.861   8.816  11.019
28094W        W97975  17.271  33.510   2.361
28095W        W97976  40.992  39.325   2.748
28096W        W97977  17.682  12.731  12.917
28097W        W97978   9.194  36.363   1.926
28098W        W97979   8.795  30.149  13.795
28099W        W97980  44.828   9.847   4.761
28100W        W97981  41.834  17.262  13.005
28101W        W97982  17.780   9.665   0.280
28102W        W97983  39.419   5.847   0.378
28103W        W97984  12.300   9.254  11.550
28104W        W97985  16.683  13.272   1.358
28105W        W97986  14.717  27.162  12.558
28106W        W97987  44.453  14.318  12.392
28107W        W97988  21.229  13.251   2.330
28108W        W97989  36.961   5.377   1.757
28109W        W97990  27.146   9.311  12.541
28110W        W97991  44.272  40.860  11.920
28111W        W97992  25.115  41.978  11.528
28112W        W97993   0.840  33.534   2.204
28113W        W97994  23.696  25.639  14.275
28114W        W97995  25.019  32.885   0.469
28115W        W97996  44.889  29.667  13.548
28116W        W97997   6.691  42.806  13.361
28117W        W97998  29.524  44.767   4.326
28118W        W97999  20.207  21.140  14.783
28119W        W98000  41.314   8.715  10.900
28120W        W98001  15.105   0.782  11.459
28121W        W98002  43.377  34.602   3.155
28122W        W98003  42.027  19.555  13.340
28123W        W98004   1.754  11.334   0.789
28124W        W98005  30.151   7.854   5.234
28125W        W98006  13.293  19.665   2.407
28126W        W98007  21.079   3.266  14.401
28127W        W98008   6.395  44.816  10.905
28128W        W98009  15.808  30.651  11.460
28129W        W98010   4.401  31.482  11.954
28130W        W98011   0.782  30.116  11.443
28131W        W98012  11.750  18.063  10.500
28132W        W98013  12.349   4.312  14.329
28133W        W98014  36.924  44.328  14.887
28134W        W98015   8.764  13.792   1.934
28135W        W98016   8.697  14.628  11.940
28136W        W98017  23.191  41.947   0.399
28137W        W98018  26.615  42.485  12.848
28138W        W98019  27.473  35.374  11.017
28139W        W98020  14.679  38.069   4.762
28140W        W98021  27.466  34.373   3.358
28141W        W98022  24.525  30.567   1.247
28142W        W98023  36.579  18.607   1.892
28143W        W98024  31.002   6.253   2.769
28144W        W98025  24.557  14.825   3.651
28145W        W98026  10.314   4.264   3.174
28146W        W98027  31.562  18.574  11.610
28147W        W98028  27.139  44.895   1.700
28148W        W98029   5.423  16.295   0.298
28149W        W98030  41.394  37.389  14.932
28150W        W98031   1.342  15.725  13.476
28151W        W98032  38.841  12.195   0.933
28152W        W98033   6.860  21.596   2.854
28153W        W98034   3.719  29.523  10.602
28154W        W98035  33.475  11.169  10.481
28155W        W98036  43.967  41.937  13.542
28156W        W98037  16.313  34.863   2.347
28157W        W98038  43.480  27.453  11.969
28158W        W98039  28.930  20.267  10.553
28159W        W98040   4.331  41.029  12.944
28160W        W98041  11.205  40.347   4.814
28161W        W98042  13.642   4.922  14.857
28162W        W98043  27.121   0.751   1.769
28163W        W98044  14.151  26.002   1.827
28164W        W98045  15.720   6.218   4.274
28165W        W98046  31.484  39.442   4.185
28166W        W98047  12.287  26.548  13.390
28167W        W98048   0.756   1.480  14.426
28168W        W98049  30.956  23.573  11.545
28169W        W98050   8.175  19.253  12.932
28170W        W98051   7.910  44.415   1.394
28171W        W98052  30.485  28.074  14.370
28172W        W98053  44.390  17.151   3.182
28173W        W98054   0.972  26.481   3.185
28174W        W98055   3.382  37.553  11.976
28175W        W98056  19.597   4.907  14.813
28176W        W98057  39.338  19.721  11.514
28177W        W98058   1.396   6.338  12.552
28178W        W98059  14.823  18.179   4.257
28179W        W98060  38.935  42.780   3.383
28180W        W98061   0.835  28.974   4.162
28181W        W98062  18.560  33.576  11.946
28182W        W98063  35.483  24.625  11.563
28183W        W98064  41.970  18.152   2.672
28184W        W98065   3.333  12.668   0.959
28185W        W98066  26.703  31.596   2.820
28186W        W98067  18.593  21.558   0.726
28187W        W98068  32.890   2.313   2.320
28188W        W98069   6.829  12.773  10.475
28189W        W98070  21.162  33.533   2.372
28190W        W98071  24.222  22.188   0.805
28191W        W98072  31.517  12.214   4.720
28192W        W98073  29.145  37.892  10.970
28193W        W98074  12.745   5.717  10.425
28194W        W98075   4.909  30.010   0.869
28195W        W98076  35.923  17.274  13.971
28196W        W98077  32.086   4.911  11.532
28197W        W98078   9.295  11.303  12.080
28198W        W98079  27.943  12.769   3.649
28199W        W98080  20.168  12.319   3.387
28200W        W98081   3.368  10.345   1.800
28201W        W98082   3.280  16.103  14.799
28202W        W98083  26.081  39.471  12.974
28203W        W98084   5.428  40.368  12.857
28204W        W98085  24.201  12.275  10.435
28205W        W98086  18.698  41.437  13.977
28206W        W98087  28.581  10.765  11.419
28207W        W98088   3.776  28.984  12.881
28208W        W98089   5.929   1.771  11.582
28209W        W98090  44.266  17.204   0.483
28210W        W98091  39.852  19.138   1.925
28211W        W98092   6.897  32.976   0.362
28212W        W98093  18.685  22.678  11.528
28213W        W98094   9.179  17.793  11.928
28214W        W98095  10.878  39.055  13.419
28215W        W98096  27.583  26.508   1.773
28216W        W98097   4.869  41.925  13.326
28217W        W98098  10.355  10.190  10.463
28218W        W98099   3.351  31.941  11.031
28219W        W98100   8.259  20.122  13.488
28220W        W98101  44.405  35.595   0.263
28221W        W98102   2.321   5.714   1.277
28222W        W98103  16.614  29.169   2.192
28223W        W98104  24.480  11.265   1.740
28224W        W98105  32.925  18.193  13.879
28225W        W98106  36.006   0.248   4.242
28226W        W98107  22.723  33.990   3.662
28227W        W98108  36.845   7.199  14.502
28228W        W98109  31.638  15.613   1.379
28229W        W98110  11.339  36.984  14.512
28230W        W98111  12.758  13.350  11.911
28231W        W98112  25.572  28.139  13.959
28232W        W98113  19.147  17.081   2.728
28233W        W98114  34.977  27.507  11.489
28234W        W98115   3.947  44.467   4.351
28235W        W98116  17.062   1.376   2.371
28236W        W98117   6.849  39.057   4.202
28237W        W98118  15.319  16.086   4.671
28238W        W98119  41.019  13.764   4.349
28239W        W98120   1.438  18.161  11.081
28240W        W98121   5.821  44.499  14.851
28241W        W98122   0.944  27.605  12.374
28242W        W98123  36.980  10.650  12.510
28243W        W98124   0.826   8.871   3.647
28244W        W98125  40.505  36.086  12.924
28245W        W98126  26.512  39.926   4.739
28246W        W98127  24.127  23.702  13.327
28247W        W98128  27.942  29.137   3.727
28248W        W98129  39.344  44.801   4.162
28249W        W98130   7.686   9.745  14.375
28250W        W98131  23.984  24.140   4.280
28251W        W98132   2.255  24.492  14.458
28252W        W98133  16.634  18.787   0.276
28253W        W98134  30.975  20.644   0.400
28254W        W98135  24.715  16.133   2.182
28255W        W98136   8.327  21.054  11.051
28256W        W98137  42.310  23.697  12.045
28257W        W98138  37.554  32.486   2.895
28258W        W98139   2.385  28.512   4.119
28259W        W98140  14.242   9.384   4.808
28260W        W98141   1.756   1.472  13.500
28261W        W98142  15.307  23.647  12.430
28262W        W98143  32.885  33.511   2.799
28263W        W98144  15.132  28.055  10.511
28264W        W98145  32.424   0.259  11.942
28265W        W98146   4.920  19.600   3.634
28266W        W98147  41.993  20.080   2.805
28267W        W98148   2.408  21.638   2.719
28268W        W98149  23.241   3.379   2.834
28269W        W98150  26.006  43.502  10.997
28270W        W98151  10.830   5.412  11.431
28271W        W98152  12.267   5.816  11.524
28272W        W98153  38.405  29.961  11.465
28273W        W98154   2.841   5.896  10.937
28274W        W98155   3.913  26.700   0.735
28275W        W98156  41.865  23.523   1.724
28276W        W98157  23.711  39.421  10.522
28277W        W98158  29.043  37.997   1.233
28278W        W98159   3.785   4.244  12.443
28279W        W98160  25.000   3.352  12.439
28280W        W98161  39.821  13.256  14.923
28281W        W98162   3.214  20.051   3.381
28282W        W98163  22.585  17.751   5.215
28283W        W98164   8.728  19.778   2.245
28284W        W98165  27.118  43.428   4.771
28285W        W98166  36.083  17.219  12.078
28286W        W98167  42.438  15.809  11.419
28287W        W98168  44.875  10.644   0.464
28288W        W98169   3.409  17.664  12.088
28289W        W98170   8.172  28.469   2.828
28290W        W98171  32.123  10.766  12.401
28291W        W98172  43.887  11.680  12.869
28292W        W98173  34.109  19.091   2.304
28293W        W98174  33.396   2.816  11.122
28294W        W98175  20.173  31.646   4.666
28295W        W98176   2.802   2.944  10.612
28296W        W98177   3.460  39.855   0.784
28297W        W98178  16.261  18.706   0.758
28298W        W98179  36.072  21.758  12.039
28299W        W98180  43.957  17.178  14.456
28300W        W98181  33.897   1.934  14.457
28301W        W98182  12.613  31.644   0.753
28302W        W98183  19.101   8.777  14.791
28303W        W98184  20.613  33.491   1.814
28304W        W98185   1.878  21.524   2.725
28305W        W98186   2.320   3.286  14.011
28306W        W98187  21.247  13.739   0.303
28307W        W98188  39.878   3.355   0.908
28308W        W98189  41.817  34.973  11.932
28309W        W98190   4.404  35.383  12.931
28310W        W98191  21.545   5.927   1.376
28311W        W98192  37.511  33.103   4.706
28312W        W98193   8.165   7.740  14.774
28313W        W98194   7.714  13.246   3.148
28314W        W98195   9.844  12.154   0.854
28315W        W98196   7.241  35.868   0.880
28316W        W98197  25.521  17.593  14.440
28317W        W98198   9.175  17.117  14.790
28318W        W98199  28.531  39.969  11.588
28319W        W98200  13.683  29.042  14.936
28320W        W98201  26.529  32.629   5.185
28321W        W98202  33.553  40.468   2.770
28322W        W98203   3.765  41.498  10.505
28323W        W98204  32.478  33.531  13.467
28324W        W98205  15.147  31.519  14.997
28325W        W98206  25.158  44.499   1.727
28326W        W98207  33.423   0.468  11.407
28327W        W98208  38.384  39.989  10.640
28328W        W98209  22.161  27.085  13.980
28329W        W98210   4.422  30.977  10.949
28330W        W98211  21.130  23.593   1.846
28331W        W98212  37.399  38.460   3.743
28332W        W98213   5.786  14.129  10.519
28333W        W98214   1.333   9.775  11.571
28334W        W98215  16.616  43.331  11.427
28335W        W98216  34.550  39.374  10.418
28336W        W98217  25.052  10.846   1.765
28337W        W98218  10.379  39.937   3.245
28338W        W98219   7.212  26.456   3.798
28339W        W98220  13.732   4.880  12.487
28340W        W98221   7.252  26.684   1.890
28341W        W98222  11.865  32.560  12.033
28342W        W98223  29.994  38.981   0.903
28343W        W98224   8.677   3.802  12.557
28344W        W98225  17.561  10.844   2.840
28345W        W98226   5.811   3.329   3.814
28346W        W98227   5.691  20.723   3.335
28347W        W98228  25.650   0.849  13.853
28348W        W98229  29.119   4.252  10.938
28349W        W98230  19.779  38.332  13.343
28350W        W98231  26.202  42.511   0.264
28351W        W98232  29.461  28.135   1.364
28352W        W98233  16.084  22.035   2.753
28353W        W98234  20.630  28.584  10.112
28354W        W98235  20.149  10.760   2.770
28355W        W98236  37.044  13.624   2.284
28356W        W98237  28.051  27.625   1.778
28357W        W98238  40.862   1.247  11.124
28358W        W98239  24.633   7.184   3.375
28359W        W98240   3.748  28.064   4.330
28360W        W98241   6.313  32.514   4.330
28361W        W98242  13.264  12.802  13.519
28362W        W98243  37.981   7.897   0.445
28363W        W98244   6.830   8.822  13.943
28364W        W98245  22.137   4.838   1.344
28365W        W98246  33.458  13.831  10.526
28366W        W98247   1.859  18.702  14.407
28367W        W98248  37.045  17.111  14.813
28368W        W98249   3.868  41.917   1.759
28369W        W98250  26.620  18.078   3.856
28370W        W98251  23.578  29.485  12.084
28371W        W98252  13.728  32.473  10.981
28372W        W98253  20.231  20.147   0.893
28373W        W98254   3.366  34.502  13.966
28374W        W98255  28.101  26.160   4.322
28375W        W98256   0.813  13.701   2.201
28376W        W98257   5.928  19.762  11.876
28377W        W98258  29.528  35.906   2.887
28378W        W98259  20.056   6.848   4.838
28379W        W98260  17.151  18.646  11.100
28380W        W98261   5.702   6.879  13.912
28381W        W98262   5.411  28.070  13.445
28382W        W98263  40.833  16.765  11.960
28383W        W98264  26.978  11.623  10.993
28384W        W98265  43.380  10.701  14.344
28385W        W98266  11.249  32.920  12.380
28386W        W98267  14.608  12.656  10.894
28387W        W98268  22.225  26.040   1.388
28388W        W98269  30.534   1.734   0.934
28389W        W98270   7.196  43.396   4.792
28390W        W98271  27.194   1.444   1.392
28391W        W98272  33.470  39.829   0.385
28392W        W98273  12.126  21.648   1.451
28393W        W98274   4.850  34.401  13.365
28394W        W98275   7.812  43.807   2.298
28395W        W98276  36.363  13.135  12.925
28396W        W98277  44.426  11.320  11.125
28397W        W98278   3.425  32.133  14.790
28398W        W98279  18.213  37.870  10.523
28399W        W98280   2.920  32.932  13.369
28400W        W98281  18.114  42.827  10.128
28401W        W98282  34.438  19.546  11.936
28402W        W98283   0.461  22.715   4.820
28403W        W98284  22.643  36.844  13.484
28404W        W98285  32.121  29.615  13.886
28405W        W98286   0.983  11.154   1.922
28406W        W98287  30.446  27.063  11.093
28407W        W98288  13.277  33.906  13.796
28408W        W98289  32.570  25.570  11.031
28409W        W98290  29.973  26.512  13.015
28410W        W98291  42.512   9.296   4.814
28411W        W98292  21.684   0.313   4.116
28412W        W98293  44.474  23.068  12.842
28413W        W98294  24.147  30.440   1.792
28414W        W98295  34.415  42.936  13.431
28415W        W98296  13.626  39.942  12.945
28416W        W98297  11.777  30.148   3.213
28417W        W98298   6.275  39.045  13.856
28418W        W98299   4.255  17.794  11.881
28419W        W98300   4.907  30.653  13.850
28420W        W98301  24.592  44.773  13.459
28421W        W98302  37.086   9.365   2.318
28422W        W98303   6.796  34.061   0.431
28423W        W98304  39.898   0.849   4.348
28424W        W98305  10.301  38.883  11.889
28425W        W98306  32.563  26.667  12.503
28426W        W98307  13.233  42.419  14.304
28427W        W98308  27.089  30.945   1.805
28428W        W98309  24.230  13.158  12.397
28429W        W98310  30.605  15.114  12.902
28430W        W98311   8.813   9.810  12.840
28431W        W98312  12.721   9.345  10.444
28432W        W98313  23.500  24.708  13.359
28433W        W98314  37.484  43.817  14.802
28434W        W98315  14.148  37.368   0.937
28435W        W98316  36.483  32.418   0.745
28436W        W98317  42.781   6.818  13.879
28437W        W98318  38.900   6.310   0.765
28438W        W98319  35.394  39.956  14.993
28439W        W98320  21.156   6.200  12.935
28440W        W98321  39.048  22.719   4.618
28441W        W98322  12.130  11.147  13.533
28442W        W98323  40.854  40.972  12.076
28443W        W98324  42.805   5.386  14.284
28444W        W98325  15.237  37.487  14.959
28445W        W98326  30.506  43.315   4.633
28446W        W98327  19.131  27.668   1.859
28447W        W98328  28.002   7.178   4.240
28448W        W98329   7.911  40.403  11.496
28449W        W98330  34.921  41.992   1.366
28450W        W98331  28.025   1.921  14.485
28451W        W98332  30.563  40.338  10.541
28452W        W98333   0.826  19.632   2.839
28453W        W98334   3.429  28.148   2.891
28454W        W98335  25.079  41.461  10.448
28455W        W98336  40.308  21.665  13.027
28456W        W98337  10.721  24.698   1.773
28457W        W98338  17.582  44.943   0.351
28458W        W98339   3.258  40.934   4.641
28459W        W98340  39.459  16.577  13.949
28460W        W98341  27.152  31.504   2.192
28461W        W98342   8.830   4.389   0.908
28462W        W98343  27.048  31.126  13.368
28463W        W98344   4.841  22.236   1.358
28464W        W98345  29.106  26.095   0.966
28465W        W98346   5.221  10.710  12.853
28466W        W98347  16.670  24.227   4.652
28467W        W98348  42.845   0.755  11.997
28468W        W98349   5.424  38.899   1.384
28469W        W98350  44.283  41.900  11.126
28470W        W98351  10.789  16.172  12.062
28471W        W98352  17.142  34.383  10.443
28472W        W98353   9.380   8.244   1.810
28473W        W98354  39.861  10.810   1.766
28474W        W98355   5.278   9.679  11.956
28475W        W98356  32.596  40.982  14.390
28476W        W98357  44.404  17.565  11.477
28477W        W98358  28.015  39.871  11.069
28478W        W98359   6.856  26.023  13.954
28479W        W98360  34.396   8.207   2.257
28480W        W98361  23.671  43.803   4.758
28481W        W98362  32.456  35.962  10.587
28482W        W98363  41.434  41.799   0.835
28483W        W98364  43.419  32.945  13.547
28484W        W98365  12.302   7.322  12.499
28485W        W98366  26.149   6.256   0.756
28486W        W98367  17.763  15.725  10.925
28487W        W98368   9.333  35.937   1.871
28488W        W98369  31.521  30.490  14.970
28489W        W98370  15.142  22.544  12.855
28490W        W98371   7.790  32.954   3.267
28491W        W98372  14.633  20.704  13.537
28492W        W98373  16.115  30.995   0.737
28493W        W98374  26.145  21.046   3.365
28494W        W98375  35.997  15.183  14.779
28495W        W98376  31.942  44.499  14.485
28496W        W98377  20.171  32.977  11.449
28497W        W98378  28.615  27.041  12.363
28498W        W98379  25.556  37.577  11.128
28499W        W98380   6.334  15.816  13.805
28500W        W98381   6.805  15.629   2.357
28501W        W98382  13.616  20.188   3.811
28502W        W98383   9.376  15.585   2.855
28503W        W98384  31.537  33.007  12.082
28504W        W98385  36.440   5.405   4.334
28505W        W98386  34.562  25.480  11.964
28506W        W98387  12.236  31.087  10.473
28507W        W98388  24.194  27.167   0.422
28508W        W98389   6.225  41.336   2.331
28509W        W98390   9.384  19.699  14.344
28510W        W98391  38.941  37.925  13.447
28511W        W98392   8.779  37.471  13.007
28512W        W98393  35.966  34.487   2.896
28513W        W98394  22.715  39.361  14.347
28514W        W98395  31.047  19.241   2.671
28515W        W98396  10.741  16.713   1.726
28516W        W98397  17.093  40.408  14.487
28517W        W98398   2.443  28.182  11.008
28518W        W98399  28.599  31.628  14.940
28519W        W98400  16.213  24.695  14.477
28520W        W98401  43.286  33.977  12.054
28521W        W98402   7.685  25.623  12.356
28522W        W98403   9.316   6.253   4.289
28523W        W98404  44.813  39.961   3.642
28524W        W98405  24.587  32.562  11.603
28525W        W98406  33.116  12.656  13.506
28526W        W98407  33.574  31.925  12.430
28527W        W98408   5.886  34.590   0.369
28528W        W98409  43.906  34.401   2.205
28529W        W98410   4.436  17.303   4.716
28530W        W98411  41.880  15.320  12.066
28531W        W98412  17.698  10.153  13.975
28532W        W98413  13.165  15.773   2.804
28533W        W98414   6.278  19.752   3.703
28534W        W98415   0.958  21.216  11.497
28535W        W98416  28.954   8.857   2.716
28536W        W98417   5.227  12.679  12.020
28537W        W98418  10.871  43.991   0.945
28538W        W98419  35.006  25.711  11.027
28539W        W98420  30.102   2.457  11.111
28540W        W98421  40.852  41.302   1.747
28541W        W98422  27.584  41.793  11.101
28542W        W98423  43.938  38.566  14.409
28543W        W98424   0.828  27.516  11.401
28544W        W98425  31.510  15.804  12.088
28545W        W98426  35.459  44.370   0.910
28546W        W98427  23.226  10.763   2.723
28547W        W98428  41.444  31.504  11.935
28548W        W98429   7.172  43.388   1.813
28549W        W98430  28.139  18.165   2.672
28550W        W98431  21.141  28.623  12.579
28551W        W98432  42.830  23.666  12.498
28552W        W98433  24.077   8.740  11.440
28553W        W98434   8.736   6.367  12.016
28554W        W98435  44.349  33.045  13.310
28555W        W98436  17.142  11.769   2.418
28556W        W98437  29.109  18.093   4.178
28557W        W98438  19.601  42.434   2.815
28558W        W98439   4.862  34.440   0.884
28559W        W98440  34.479  20.567  13.454
28560W        W98441  42.382  19.054  14.327
28561W        W98442  28.593  12.123  12.541
28562W        W98443   8.865  21.659  12.847
28563W        W98444  30.580  38.486  12.456
28564W        W98445  28.169  18.171   0.405
28565W        W98446  36.944  31.110   3.311
28566W        W98447   4.407  19.607   2.274
28567W        W98448  40.950  12.842   2.248
28568W        W98449   6.857  30.511  13.000
28569W        W98450  43.393  24.525   1.260
28570W        W98451  30.103  24.138   3.832
28571W        W98452  36.091  43.302  12.890
28572W        W98453  37.437  17.091   4.128
28573W        W98454  42.991   7.831   4.830
28574W        W98455  29.993  31.985   3.219
28575W        W98456  27.516  38.351   4.794
28576W        W98457  11.759  21.622   0.793
28577W        W98458  36.354  35.086   5.291
28578W        W98459  36.470  13.114   1.707
28579W        W98460  30.126   6.679   5.098
28580W        W98461  25.567  19.159   4.806
28581W        W98462  42.486  41.859   1.706
28582W        W98463  11.199  35.430  13.917
28583W        W98464  26.996   2.451  13.816
28584W        W98465  26.644  15.146   0.788
28585W        W98466  43.332  16.205  10.463
28586W        W98467  18.145  38.067   4.671
28587W        W98468  36.506   1.820   2.819
28588W        W98469  29.482  37.386   3.285
28589W        W98470   5.852  14.253   0.477
28590W        W98471  14.784  20.201   0.326
28591W        W98472  20.698  23.600  13.472
28592W        W98473  12.814  42.399   4.828
28593W        W98474  37.056  18.681  14.331
28594W        W98475   6.279   4.898  14.341
28595W        W98476   9.367  39.831  10.624
28596W        W98477  27.455  37.850   2.699
28597W        W98478  35.522  31.566   1.713
28598W        W98479  22.528  39.871  12.069
28599W        W98480  24.227   3.295  12.906
28600W        W98481  43.364   4.825  13.318
28601W        W98482  15.316   4.742  12.430
28602W        W98483  40.922  10.802  12.836
28603W        W98484  28.483  42.798  13.332
28604W        W98485  39.437  24.216   2.859
28605W        W98486  24.121  40.039   1.751
28606W        W98487  24.517  30.139  13.047
28607W        W98488  10.269  18.192  11.413
28608W        W98489  34.376  33.984  11.093
28609W        W98490  12.208  44.330   4.173
28610W        W98491  42.921   4.359  14.295
28611W        W98492  32.971  28.160   1.424
28612W        W98493  39.539   2.746   3.285
28613W        W98494  20.077  33.127   2.720
28614W        W98495   4.868  10.751   0.281
28615W        W98496  42.392   7.761  12.940
28616W        W98497  11.813  22.727   5.287
28617W        W98498  30.505  29.009  13.448
28618W        W98499  33.080   3.461   1.320
28619W        W98500  20.089  28.065   3.665
28620W        W98501   1.851  16.302   0.891
28621W        W98502   8.378  30.444  14.872
28622W        W98503   6.279  35.034  11.589
28623W        W98504   9.799  39.350   1.257
28624W        W98505   0.283  36.528   0.880
28625W        W98506  17.137  42.021   3.330
28626W        W98507  31.476  13.224  13.855
28627W        W98508  33.919   1.744  12.063
28628W        W98509  13.237  34.085  13.036
28629W        W98510   5.247  11.248   3.754
28630W        W98511  19.602  36.911  12.444
28631W        W98512   8.664  42.777   0.276
28632W        W98513  33.012   2.812  11.946
28633W        W98514   1.960  21.086  10.622
28634W        W98515  19.757   9.767  14.967
28635W        W98516   6.216  29.585   4.130
28636W        W98517  13.730  32.403   4.790
28637W        W98518  33.052   1.795  11.563
28638W        W98519  10.800  40.380   1.866
28639W        W98520  30.027   7.225  11.984
28640W        W98521  43.862   9.688   3.692
28641W        W98522  22.694  36.902   4.255
28642W        W98523  27.094   2.319  12.053
28643W        W98524  29.926  30.029  12.930
28644W        W98525  33.986  22.567  12.935
28645W        W98526  32.007  18.064   5.589
28646W        W98527   8.841  32.895   2.667
28647W        W98528  26.460  16.704   1.217
28648W        W98529  25.073  19.279   1.716
28649W        W98530  42.939  34.052   3.686
28650W        W98531  39.361  34.507   0.386
28651W        W98532  30.638  36.087  13.364
28652W        W98533   2.291   4.900   2.846
28653W        W98534  23.674  29.468  12.435
28654W        W98535   9.660  38.006  11.007
28655W        W98536  33.061  23.072  12.938
28656W        W98537  37.855  43.509  11.593
28657W        W98538  17.187  33.966   4.325
28658W        W98539   5.365  44.856  10.547
28659W        W98540  22.121  44.284  13.490
28660W        W98541  21.570  39.859   0.731
28661W        W98542  37.468   2.379   1.288
28662W        W98543  31.618   9.689  12.969
28663W        W98544  38.348  12.639   1.827
28664W        W98545  39.891  15.149   4.347
28665W        W98546  35.106  42.857  12.944
28666W        W98547  16.648  33.383  13.929
28667W        W98548  15.229  38.820  12.524
28668W        W98549  33.017  10.185   4.632
28669W        W98550   7.215   6.249   0.744
28670W        W98551  13.694  42.017  10.493
28671W        W98552   3.840  32.522   0.403
28672W        W98553  19.115  27.170   2.887
28673W        W98554  32.511  42.788   0.825
28674W        W98555   9.815  19.658   2.252
28675W        W98556  37.975  29.010  11.407
28676W        W98557   6.377  10.201  13.815
28677W        W98558  23.023   7.760   2.855
28678W        W98559  10.810  26.998   4.615
28679W        W98560  35.915  17.202   2.897
28680W        W98561  43.365  22.072   4.202
28681W        W98562  40.501  25.714   3.774
28682W        W98563  37.944  23.070   0.406
28683W        W98564   3.737  40.495   0.774
28684W        W98565  40.012  38.959   2.194
28685W        W98566  16.135  41.820   2.404
28686W        W98567  44.374  22.042   3.686
28687W        W98568  25.624  25.502  12.082
28688W        W98569  13.749  33.407  14.842
28689W        W98570   5.793  16.626   0.914
28690W        W98571  42.851  32.125   3.208
28691W        W98572   3.742   0.334  13.921
28692W        W98573  34.553  33.994  14.776
28693W        W98574   9.822  13.351  10.518
28694W        W98575   2.882  37.003  14.932
28695W        W98576   5.790  12.128   2.370
28696W        W98577  13.773  36.854  10.436
28697W        W98578  27.523  44.836  12.399
28698W        W98579   1.893  17.240   3.853
28699W        W98580  18.717  23.183   2.683
28700W        W98581   2.420   5.272   0.956
28701W        W98582  36.054  22.210  11.073
28702W        W98583  16.266  32.023  13.849
28703W        W98584  32.004  23.022   3.238
28704W        W98585  16.197   7.284   1.279
28705W        W98586  13.606  15.184   2.277
28706W        W98587  40.372  21.654   0.301
28707W        W98588   5.369  42.840  13.388
28708W        W98589   2.339  11.183  12.992
28709W        W98590  38.976  11.322  11.982
28710W        W98591  44.305  19.204   2.697
28711W        W98592  35.909  21.021   0.430
28712W        W98593  41.789  29.435  14.332
28713W        W98594  16.756  19.143  13.364
28714W        W98595  24.042  35.901  14.932
28715W        W98596   3.315  43.506   2.405
28716W        W98597   9.325   0.431   1.229
28717W        W98598  25.188   3.772  14.991
28718W        W98599  44.493  15.124   3.720
28719W        W98600  15.680  29.539   1.875
28720W        W98601  42.433   1.881   0.873
28721W        W98602  41.980   9.759  13.991
28722W        W98603   0.417  31.953  11.090
28723W        W98604  34.586  42.840  10.910
28724W        W98605  23.561  34.466   2.313
28725W        W98606   6.396  19.602   0.457
28726W        W98607  10.839   2.471   2.816
28727W        W98608  16.626   6.759   1.862
28728W        W98609  33.497  25.480   2.340
28729W        W98610  34.578   2.312  10.975
28730W        W98611  17.155  38.419   3.791
28731W        W98612   0.846   4.306  12.970
28732W        W98613  36.851  14.673  11.597
28733W        W98614  27.131   4.420  14.794
28734W        W98615  38.939  40.857  11.547
28735W        W98616  30.117  44.790   0.337
28736W        W98617  42.929  43.958   1.359
28737W        W98618  40.932  31.426   2.336
28738W        W98619  33.580   9.191  10.994
28739W        W98620  11.183  40.357   4.244
28740W        W98621  30.090  24.708   3.168
28741W        W98622   7.344   5.816   1.848
28742W        W98623   8.735  15.789   4.222
28743W        W98624   0.329  29.519  10.893
28744W        W98625   8.300  39.516  13.330
28745W        W98626  29.555  43.513  11.601
28746W        W98627   0.352  42.464   2.306
28747W        W98628  43.477  36.945  11.551
28748W        W98629  44.005   5.325   3.204
28749W        W98630  11.243  18.572   9.966
28750W        W98631   6.334  16.687  12.526
28751W        W98632  42.455  41.923   1.258
28752W        W98633  12.155   7.336  12.898
28753W        W98634  10.805  34.928  11.588
28754W        W98635  20.536  36.492  12.071
28755W        W98636  26.157  10.786  11.426
28756W        W98637  23.656  10.867  11.373
28757W        W98638  43.347  30.565   2.402
28758W        W98639  38.402  42.307  10.598
28759W        W98640  41.884  19.758  12.439
28760W        W98641  10.749  32.008   4.693
28761W        W98642  36.397  41.305   0.775
28762W        W98643  24.539  38.846   0.761
28763W        W98644  15.125  44.823   3.792
28764W        W98645  32.432  25.011   0.890
28765W        W98646   8.785   5.203   1.345
28766W        W98647   7.251   9.309   2.823
28767W        W98648  39.027  36.854   2.874
28768W        W98649  36.550  24.192  12.847
28769W        W98650  25.557   0.846  11.611
28770W        W98651  14.691  43.351  14.869
28771W        W98652  27.473  27.618  14.856
28772W        W98653  41.411  21.574   0.280
28773W        W98654   4.797  43.988   3.264
28774W        W98655  27.130  25.085   4.314
28775W        W98656  40.874  22.242  11.951
28776W        W98657   2.730  43.982  10.555
28777W        W98658   6.346  40.362   4.274
28778W        W98659  32.092  44.006  14.864
28779W        W98660  34.507  29.087  13.955
28780W        W98661   0.774  36.927  14.393
28781W        W98662   2.939  38.959  13.970
28782W        W98663  39.400  44.329  13.440
28783W        W98664  44.839   2.922  11.904
28784W        W98665  15.322  28.986   4.226
28785W        W98666  16.627  20.569   2.210
28786W        W98667   9.743  34.089  12.837
28787W        W98668  21.562  16.782  12.447
28788W        W98669   6.812  14.816   1.935
28789W        W98670  43.299  18.728   2.401
28790W        W98671  19.229  12.806  14.427
28791W        W98672  13.818  23.996   3.632
28792W        W98673  29.003  43.897   4.247
28793W        W98674  16.225  22.506   3.228
28794W        W98675  22.655  12.623  14.296
28795W        W98676   6.751  38.417   2.741
28796W        W98677  31.463  20.065  12.465
28797W        W98678  40.819  17.174   1.810
28798W        W98679  43.352  42.939  14.481
28799W        W98680  30.101  38.849  12.491
28800W        W98681  41.939  30.091   0.779
28801W        W98682  44.824   3.823  12.027
28802W        W98683  10.742  36.057  11.891
28803W        W98684  41.352  19.590  12.072
28804W        W98685   9.761  34.553  13.546
28805W        W98686  21.197   1.869  10.413
28806W        W98687  21.757   4.777   1.818
28807W        W98688   1.363  24.151   1.864
28808W        W98689   0.477  34.107   4.788
28809W        W98690   1.833   9.756   2.337
28810W        W98691  38.922  27.562  13.001
28811W        W98692   4.933  40.323   0.313
28812W        W98693  30.637  41.964   1.420
28813W        W98694  20.070   3.731  14.906
28814W        W98695  32.948  41.430   4.811
28815W        W98696   7.410  29.521  14.850
28816W        W98697  32.488  11.349   0.476
28817W        W98698  19.202  28.642  14.029
28818W        W98699  18.295  17.730   3.776
28819W        W98700  18.122   2.818   3.366
28820W        W98701  38.483  20.612  11.497
28821W        W98702  19.162   9.708  12.388
28822W        W98703   0.337  37.463   1.914
28823W        W98704   4.376  19.714   0.320
28824W        W98705   4.226  43.469  11.061
28825W        W98706  42.841  25.090  13.427
28826W        W98707  14.760  28.565   0.867
28827W        W98708  16.317  15.329   3.682
28828W        W98709  42.027  43.804   4.266
28829W        W98710  32.454  15.679  12.499
28830W        W98711  23.236  36.910   1.305
28831W        W98712  18.142  10.343   2.303
28832W        W98713  22.095   9.370   4.745
28833W        W98714  35.045  13.238   4.329
28834W        W98715  32.486  29.997  10.946
28835W        W98716  13.342  17.081   5.089
28836W        W98717  27.458  13.106  13.969
28837W        W98718  15.636  13.112   1.904
28838W        W98719  16.121  20.176   1.283
28839W        W98720  22.192  35.455   3.816
28840W        W98721  26.464  16.208  10.550
28841W        W98722  39.370  33.394   0.446
28842W        W98723   1.748  15.314   2.415
28843W        W98724  18.554  24.619  12.040
28844W        W98725  25.713  22.248  13.793
28845W        W98726  17.149  39.481  11.486
28846W        W98727  29.496  10.822   1.708
28847W        W98728  32.539  19.608  13.426
28848W        W98729  37.018  37.002  11.593
28849W        W98730   2.350   6.345   3.871
28850W        W98731  23.191   9.287  13.055
28851W        W98732  34.032   1.765   0.877
28852W        W98733  18.149  37.546  11.046
28853W        W98734  44.909  44.281   0.829
28854W        W98735  23.541  37.548   2.203
28855W        W98736  24.154   6.226  13.013
28856W        W98737   5.329  43.417   4.786
28857W        W98738  13.127  23.048   0.738
28858W        W98739  39.532  34.515  11.389
28859W        W98740   4.253   7.755  12.053
28860W        W98741  17.769  10.656   0.415
28861W        W98742  35.459  22.724  14.026
28862W        W98743  20.629  41.371   1.297
28863W        W98744  26.459   2.249  10.572
28864W        W98745   3.843  26.555  10.563
28865W        W98746  44.403   5.837   3.829
28866W        W98747  38.988  22.608   5.290
28867W        W98748  43.845  13.147  10.609
28868W        W98749  28.590   2.955  12.072
28869W        W98750  22.503  18.686   3.276
28870W        W98751   9.219  24.058   2.203
28871W        W98752  36.847  34.597  13.903
28872W        W98753  44.361  26.973  14.862
28873W        W98754  40.834  33.956  12.399
28874W        W98755   8.334  27.056  11.556
28875W        W98756  28.595   4.389   0.785
28876W        W98757  13.655  25.597  10.450
28877W        W98758  19.186  41.007  12.575
28878W        W98759  35.983  42.795  13.391
28879W        W98760  41.893  17.258   1.824
28880W        W98761   2.935  29.624   4.621
28881W        W98762  14.105  17.679  10.989
28882W        W98763  26.066  17.150   2.824
28883W        W98764  12.753  29.918  10.094
28884W        W98765   4.406  34.504   3.172
28885W        W98766  29.645  38.920   3.248
28886W        W98767  38.978  25.688   0.875
28887W        W98768  16.183  43.333  12.539
28888W        W98769  30.635  31.947   2.262
28889W        W98770  15.582  25.150   3.816
28890W        W98771  19.236  42.463   3.217
28891W        W98772   1.875  21.514  12.529
28892W        W98773  26.599  12.216   3.335
28893W        W98774  12.239  39.441   1.818
28894W        W98775  24.150  12.613   2.416
28895W        W98776  39.429  27.022  14.916
28896W        W98777   0.388  38.335   1.900
28897W        W98778  11.266  26.015  13.006
28898W        W98779  16.202   8.727   2.762
28899W        W98780  43.893   6.321   4.148
28900W        W98781  19.632  13.694  13.445
28901W        W98782  42.941   4.797  12.964
28902W        W98783  39.846  23.591   0.949
28903W        W98784  44.955  10.747  10.971
28904W        W98785  22.096   7.195   1.702
28905W        W98786  24.686   4.805  11.117
28906W        W98787  25.165  36.992   0.423
28907W        W98788  27.560  32.133   0.953
28908W        W98789  26.594  29.937   1.304
28909W        W98790   5.904  13.110   4.217
28910W        W98791   3.732   1.434  13.406
28911W        W98792  18.200  12.844  11.494
28912W        W98793  36.528  36.531   2.848
28913W        W98794  39.414  12.639   1.251
28914W        W98795  10.217   4.213   4.732
28915W        W98796  25.201  29.662   4.299
28916W        W98797  16.608   5.343   2.668
28917W        W98798  23.029   2.367   0.815
28918W        W98799  10.844  22.522  12.471
28919W        W98800   7.907  22.064   4.322
28920W        W98801  42.352  20.541   4.696
28921W        W98802  37.432  37.476   0.279
28922W        W98803   4.256  25.689   2.717
28923W        W98804   2.952  12.156  11.564
28924W        W98805  44.385  12.855   1.818
28925W        W98806  12.738  21.757  12.068
28926W        W98807  20.059  32.027  10.036
28927W        W98808  16.705  39.416   1.320
28928W        W98809  33.107  41.918   0.858
28929W        W98810  36.402  12.284   0.349
28930W        W98811  39.380  33.603   3.760
28931W        W98812  38.534  11.250  12.093
28932W        W98813  43.888   0.385   3.264
28933W        W98814  40.941  12.721   2.717
28934W        W98815  15.652  41.417  14.286
28935W        W98816  26.081   2.742  13.816
28936W        W98817  39.334  34.919   1.316
28937W        W98818  16.233   9.244  13.996
28938W        W98819   6.898  25.533  13.868
28939W        W98820  14.673  25.684   3.807
28940W        W98821  27.613  10.335  13.426
28941W        W98822  30.946  27.198   0.734
28942W        W98823  27.543  41.471   0.426
28943W        W98824  15.624  11.242   4.803
28944W        W98825  40.905  37.881  13.368
28945W        W98826  37.978  41.379   3.820
28946W        W98827   6.381  35.413   1.740
28947W        W98828  40.924  44.430  13.362
28948W        W98829  33.003  17.703   4.808
28949W        W98830  16.278  40.830   1.273
28950W        W98831  21.758  14.263   3.683
28951W        W98832  27.081  41.385  13.849
28952W        W98833   8.782   8.721  14.907
28953W        W98834  32.534  30.529   2.712
28954W        W98835   2.444  18.145   5.320
28955W        W98836  28.510  14.239   4.826
28956W        W98837  44.431  10.736   3.381
28957W        W98838  41.941  10.797  13.311
28958W        W98839  24.020  23.537   0.356
28959W        W98840  23.219  19.063  14.905
28960W        W98841  42.497  22.716  14.029
28961W        W98842  37.545  17.099  13.886
28962W        W98843  36.915  11.149  10.498
28963W        W98844  14.230  37.397   4.257
28964W        W98845  11.270  43.507   2.341
28965W        W98846   5.408  21.570   2.807
28966W        W98847   1.871  35.534   0.910
28967W        W98848  35.515   7.302   3.369
28968W        W98849  42.824  44.410   1.882
28969W        W98850  39.852  19.655  13.498
28970W        W98851   6.400   1.865   1.393
28971W        W98852  16.739  36.433   1.906
28972W        W98853  19.694  11.796   4.803
28973W        W98854   0.456  32.390  11.388
28974W        W98855  23.693  18.271   2.216
28975W        W98856  35.970   4.361   2.246
28976W        W98857   7.267   9.190  14.930
28977W        W98858  21.560  40.977  10.922
28978W        W98859  13.804  24.098   0.298
28979W        W98860  32.987  41.871  13.489
28980W        W98861   8.169  14.647  10.918
28981W        W98862  25.110  33.071   2.716
28982W        W98863  34.431   6.827   4.689
28983W        W98864  27.470  25.097  13.475
28984W        W98865   8.169  39.840   1.920
28985W        W98866  36.500   8.725  14.881
28986W        W98867  42.354  43.393  14.316
28987W        W98868  35.474  24.581   4.168
28988W        W98869  29.118  15.803  12.361
28989W        W98870  22.140  39.525  14.308
28990W        W98871  31.154  21.122  13.510
28991W        W98872  28.054  42.466  14.356
28992W        W98873  36.591   5.312  13.523
28993W        W98874  28.964  19.112   3.209
28994W        W98875  44.347  42.911   2.760
28995W        W98876  41.026  11.803   4.838
28996W        W98877  17.297  25.173   4.617
28997W        W98878  41.438  13.107  14.440
28998W        W98879   1.763   7.352   4.324
28999W        W98880  28.015  40.010   2.833
29000W        W98881   5.783  30.657   0.877
29001W        W98882  29.554  21.613  11.600
29002W        W98883  24.180   7.405  10.128
29003W        W98884  14.609  10.833   4.121
29004W        W98885  22.689  26.500  13.980
29005W        W98886  36.580   4.754   4.791
29006W        W98887  14.188  17.116  14.293
29007W        W98888  10.765  34.063  10.932
29008W        W98889  37.048   3.795  12.564
29009W        W98890  11.260  31.464  12.879
29010W        W98891  10.292  26.074  11.961
29011W        W98892  33.600  23.052   1.803
29012W        W98893  22.521  36.420  14.820
29013W        W98894  35.376  11.780  10.951
29014W        W98895  44.892  16.193   0.356
29015W        W98896  22.640  21.720  12.921
29016W        W98897  33.559   5.360  14.454
29017W        W98898   4.717  42.887  14.411
29018W        W98899   1.245  12.169   3.704
29019W        W98900  37.929  10.862  13.906
29020W        W98901  37.950  16.156  10.633
29021W        W98902  15.184  18.094  12.881
29022W        W98903  37.522   5.704  10.945
29023W        W98904   5.886  19.091   2.292
29024W        W98905   5.408  40.975  13.949
29025W        W98906  35.472  29.158   4.718
29026W        W98907  41.331   8.737   2.699
29027W        W98908   6.308  20.198   2.780
29028W        W98909  28.649  15.158   2.844
29029W        W98910  21.691  14.817   0.874
29030W        W98911  12.739  28.072   0.914
29031W        W98912  43.853  24.086   2.183
29032W        W98913  17.119  14.228  13.978
29033W        W98914  25.588  11.678   1.821
29034W        W98915  39.934   2.769   2.701
29035W        W98916  36.472  10.306   1.407
29036W        W98917   3.446   9.842   0.772
29037W        W98918  22.507  35.579  14.514
29038W        W98919  21.056  36.490   4.232
29039W        W98920  17.085   5.698  11.524
29040W        W98921  14.217  28.474   1.302
29041W        W98922  16.776  44.759  14.865
29042W        W98923  26.652  43.014   4.716
29043W        W98924  18.289  16.572   2.754
29044W        W98925  22.141  13.824   1.793
29045W        W98926  28.009  44.841   4.353
29046W        W98927  14.714  34.014   2.697
29047W        W98928   9.161  19.538   5.097
29048W        W98929   5.838  17.181  14.472
29049W        W98930   7.737  41.934   0.751
29050W        W98931   1.248   5.421  14.410
29051W        W98932  17.670   5.234   0.784
29052W        W98933  13.798   3.218  12.024
29053W        W98934  19.605  16.157   4.177
29054W        W98935  10.762  23.998  11.604
29055W        W98936  19.748   6.262   5.278
29056W        W98937  14.749  37.861   1.362
29057W        W98938  23.236  27.517  12.016
29058W        W98939  35.880  14.319   0.410
29059W        W98940  44.313  39.904   1.907
29060W        W98941  11.638   3.933   1.922
29061W        W98942  34.098  36.074  11.074
29062W        W98943  22.024  13.607  10.918
29063W        W98944  38.880  20.141  12.853
29064W        W98945  41.506   0.359  13.927
29065W        W98946  41.000  27.542  14.511
29066W        W98947  19.671  41.459  13.924
29067W        W98948  10.684  33.382   1.338
29068W        W98949  25.081  38.032   4.671
29069W        W98950  37.849  11.339  10.966
29070W        W98951   2.891  39.845  13.887
29071W        W98952  33.114  24.521   1.261
29072W        W98953  12.745   5.314  14.488
29073W        W98954  32.597  27.519   1.234
29074W        W98955  42.492  23.087   2.806
29075W        W98956  42.901   9.371  13.479
29076W        W98957  41.406   7.878   2.184
29077W        W98958   1.731  30.122   4.189
29078W        W98959  10.277  36.040   4.140
29079W        W98960  42.393   8.795   2.733
29080W        W98961  39.054  41.473  13.895
29081W        W98962   4.357  30.595  12.379
29082W        W98963   5.437  26.650  10.923
29083W        W98964  34.510   3.743   4.138
29084W        W98965  19.204  25.586  13.051
29085W        W98966  38.352  43.470  14.350
29086W        W98967  42.395  13.618  14.442
29087W        W98968   2.257  21.616   2.241
29088W        W98969  11.134  30.079   4.683
29089W        W98970  26.487  23.046  11.029
29090W        W98971   3.318  39.321  12.410
29091W        W98972  36.007   8.874  12.080
29092W        W98973  22.721  14.637  13.368
29093W        W98974  17.097  27.493  12.090
29094W        W98975  35.570  29.444  11.931
29095W        W98976  18.172  29.535  13.523
29096W        W98977  32.600  37.349  12.937
29097W        W98978   3.322  24.973   1.787
29098W        W98979  13.682   4.726  11.382
29099W        W98980  40.892  16.595   2.896
29100W        W98981  32.886   0.414   4.242
29101W        W98982  34.893   7.220  12.910
29102W        W98983  29.108  36.059   0.953
29103W        W98984  28.165  25.020  12.005
29104W        W98985  30.453  35.048  12.021
29105W        W98986  25.488  14.328   0.731
29106W        W98987  34.433  11.260   4.793
29107W        W98988  42.301  16.258  10.459
29108W        W98989   4.700  29.953   4.741
29109W        W98990  22.104  17.291  12.848
29110W        W98991   1.899  21.090   3.735
29111W        W98992  22.714  38.502   3.667
29112W        W98993   3.258   3.837   4.303
29113W        W98994  31.132  35.095  11.602
29114W        W98995  12.857   8.715  12.382
29115W        W98996  40.434  24.643   1.319
29116W        W98997   6.707  10.739  13.546
29117W        W98998  22.545  26.642   3.163
29118W        W98999  36.880   5.749  13.907
29119W        W99000  15.640  10.636  10.610
29120W        W99001   2.819  41.039  13.989
29121W        W99002   0.843   6.873   3.692
29122W        W99003  29.427  17.787   2.675
29123W        W99004  30.942  28.044   5.246
29124W        W99005  10.649  31.545  13.974
29125W        W99006   2.439  44.365   4.613
29126W        W99007  18.276  13.656   4.616
29127W        W99008  11.334  10.168   4.685
29128W        W99009  42.473  24.646   4.746
29129W        W99010  31.488   4.275   2.762
29130W        W99011  40.854   6.701  12.070
29131W        W99012  32.625   5.912  10.601
29132W        W99013  26.051  26.535   3.376
29133W        W99014   1.344  32.912  14.299
29134W        W99015  34.499  17.172  10.457
29135W        W99016   2.760  18.626  14.908
29136W        W99017  24.707  23.598  14.896
29137W        W99018  18.061  15.133   1.436
29138W        W99019  32.520  29.573  12.990
29139W        W99020  18.665  13.125   1.790
29140W        W99021   7.864   7.392  14.346
29141W        W99022  34.923  19.181   0.303
29142W        W99023  32.073  44.996   0.842
29143W        W99024  24.683  44.774   1.379
29144W        W99025  35.406  36.918  14.916
29145W        W99026  10.821  33.590   4.243
29146W        W99027  23.515  11.819   3.759
29147W        W99028  23.101  14.229   1.860
29148W        W99029  37.961  42.869   3.793
29149W        W99030  34.057  34.091   3.751
29150W        W99031  25.964  13.326  12.984
29151W        W99032  11.678  21.175   2.386
29152W        W99033   4.313  13.166   3.267
29153W        W99034  22.056  12.755   3.837
29154W        W99035  10.743  35.062  14.930
29155W        W99036   1.832  21.681  13.379
29156W        W99037  36.409  42.964   0.775
29157W        W99038  19.067  17.650  12.480
29158W        W99039  17.799  12.324  14.494
29159W        W99040  30.618  24.136  14.513
29160W        W99041  41.305  24.093  13.051
29161W        W99042  27.684   0.329  11.944
29162W        W99043  34.406  31.429  11.446
29163W        W99044  35.051  10.696   1.370
29164W        W99045  33.476   0.874  11.512
29165W        W99046  37.508  18.612  11.604
29166W        W99047   4.207  42.319   3.667
29167W        W99048  29.427  23.093  10.456
29168W        W99049  13.254   5.755   4.738
29169W        W99050  39.546  18.131  13.399
29170W        W99051  38.073  28.131   1.835
29171W        W99052  21.236  23.671  10.611
29172W        W99053  27.060  39.384   4.687
29173W        W99054  44.270  22.636   5.191
29174W        W99055  35.042  34.050  11.474
29175W        W99056   8.172   0.987   0.395
29176W        W99057   9.798  31.585  13.924
29177W        W99058  23.623  33.957   4.308
29178W        W99059  14.290  14.633  13.348
29179W        W99060   6.877   5.883  13.405
29180W        W99061  10.799  21.672  10.503
29181W        W99062   7.281   3.375   2.206
29182W        W99063  33.441   8.254   2.822
29183W        W99064  19.707  40.385   5.214
29184W        W99065   8.232  40.307   4.724
29185W        W99066   8.870  12.333  11.041
29186W        W99067  24.110   9.774  13.958
29187W        W99068  30.934   7.175  10.028
29188W        W99069  19.583  30.001  14.959
29189W        W99070  15.670  38.022   1.826
29190W        W99071  44.924   6.197   2.311
29191W        W99072   5.357  35.912   3.284
29192W        W99073   8.162  39.497  11.940
29193W        W99074   7.343   2.460   0.259
29194W        W99075   7.901  41.452   0.321
29195W        W99076  38.476  10.703  12.853
29196W        W99077  33.970   2.823   3.368
29197W        W99078  22.584  26.549  11.861
29198W        W99079  39.977  34.383  14.771
29199W        W99080   8.199  18.622   2.343
29200W        W99081  41.916  14.330   4.776
29201W        W99082   8.328   7.181  13.466
29202W        W99083  41.383  16.612   0.386
29203W        W99084  19.049  19.083   1.390
29204W        W99085  33.910   4.407  14.980
29205W        W99086  18.644  40.322   4.187
29206W        W99087  26.965  19.114   0.324
29207W        W99088   2.301  42.865  13.841
29208W        W99089  26.177  21.207  13.908
29209W        W99090  31.919  22.146  11.389
29210W        W99091   7.312  17.710   3.738
29211W        W99092  13.158  18.249   0.418
29212W        W99093  39.932   2.958  13.533
29213W        W99094  40.386  11.267   1.730
29214W        W99095  37.020   8.354  13.502
29215W        W99096   4.449  23.019  11.992
29216W        W99097  41.512   9.645   1.701
29217W        W99098  33.614  29.035   0.801
29218W        W99099  41.794  26.603   9.924
29219W        W99100  43.812  26.598  14.442
29220W        W99101  34.542  44.791   0.418
29221W        W99102  22.689   4.884  12.476
29222W        W99103   0.304  38.851   3.861
29223W        W99104  29.108   6.257   1.887
29224W        W99105  29.031   6.275  13.339
29225W        W99106  17.261   1.855  14.859
29226W        W99107  28.630  28.075  12.974
29227W        W99108  19.655  31.462  13.456
29228W        W99109  43.326  18.116   2.331
29229W        W99110  20.248  40.987   2.887
29230W        W99111  39.379  33.468   0.880
29231W        W99112  14.693  43.292   2.714
29232W        W99113  16.258  27.535  11.424
29233W        W99114  16.190  30.143   4.323
29234W        W99115  38.076  14.326  12.369
29235W        W99116   3.872  23.610   1.919
29236W        W99117  44.866  41.929   1.426
29237W        W99118  29.150  41.383  13.531
29238W        W99119  36.359   3.790   2.811
29239W        W99120  17.625  35.376  11.013
29240W        W99121  25.157  38.917  11.391
29241W        W99122  15.652  18.600   3.214
29242W        W99123  24.592  42.301   1.928
29243W        W99124  33.424  30.539  14.492
29244W        W99125   3.450   7.332   0.843
29245W        W99126   8.302  18.050  14.375
29246W        W99127  34.493  28.166  11.888
29247W        W99128  35.855  29.514  13.456
29248W        W99129  28.446  12.793   1.265
29249W        W99130  34.500  29.551   3.666
29250W        W99131  29.631   6.364  13.437
29251W        W99132  17.248  37.064   3.188
29252W        W99133   9.788  36.404   1.696
29253W        W99134  33.016  23.665  11.932
29254W        W99135  11.648  18.781   3.239
29255W        W99136  38.050   5.219  10.987
29256W        W99137  18.185   1.732  13.384
29257W        W99138  33.901  19.614  14.914
29258W        W99139  41.458  15.802  13.985
29259W        W99140   9.854  35.476   0.929
29260W        W99141   9.669  25.645  10.934
29261W        W99142  42.826  39.822  13.882
29262W        W99143  17.657  32.886  11.057
29263W        W99144  15.605  42.779  10.452
29264W        W99145  27.477   0.416  10.950
29265W        W99146  18.289  37.857  13.421
29266W        W99147  16.222  36.865   1.720
29267W        W99148  35.908  29.093   2.207
29268W        W99149  22.214  42.957  12.476
29269W        W99150  28.956   2.818  11.400
29270W        W99151  11.844   1.265   2.708
29271W        W99152  13.716  42.928  10.501
29272W        W99153  39.874  16.597  14.811
29273W        W99154  40.808   2.887  12.874
29274W        W99155  23.703  13.301   1.728
29275W        W99156  38.551  11.630   2.390
29276W        W99157  30.006  16.171  14.808
29277W        W99158  43.975  10.303  12.493
29278W        W99159  22.692  38.441   4.693
29279W        W99160  20.700  12.795  11.111
29280W        W99161   5.851   1.355   1.244
29281W        W99162  39.824  34.580  10.970
29282W        W99163  36.045   9.270   0.888
29283W        W99164  14.290  31.971   1.412
29284W        W99165  23.700  40.847  14.413
29285W        W99166  18.633  36.939  10.457
29286W        W99167   5.309  11.356  14.481
29287W        W99168  39.417   0.757  10.438
29288W        W99169  18.575  13.651   1.236
29289W        W99170  10.858  17.567  12.062
29290W        W99171   9.222   6.228   3.680
29291W        W99172  42.957  42.007   4.281
29292W        W99173  40.881  11.680   1.293
29293W        W99174  13.766  26.071  12.001
29294W        W99175   4.758   4.702   1.321
29295W        W99176  10.232  28.571   1.239
29296W        W99177  31.565  32.043   0.387
29297W        W99178  42.382  25.023   4.685
29298W        W99179  37.973  44.000  13.417
29299W        W99180  40.904  11.785  13.346
29300W        W99181  12.135  12.822   0.451
29301W        W99182  41.865  41.879  14.389
29302W        W99183  10.240  23.126   2.239
29303W        W99184  19.658  14.798  12.892
29304W        W99185  21.652  37.009  13.971
29305W        W99186  15.690  22.997   2.189
29306W        W99187   9.768  15.765  12.572
29307W        W99188  13.157  21.164   4.122
29308W        W99189   8.665  36.464  11.382
29309W        W99190  29.936  14.656  12.025
29310W        W99191  38.449   1.926  11.052
29311W        W99192   1.408  18.706   2.305
29312W        W99193  37.486   4.316  10.917
29313W        W99194  16.739  24.721   0.825
29314W        W99195   2.927   4.319   2.355
29315W        W99196  27.029   1.840   1.431
29316W        W99197  12.281   6.416  13.429
29317W        W99198  39.036  29.077  12.092
29318W        W99199   7.739   9.815   1.330
29319W        W99200  33.013  11.283   3.805
29320W        W99201   6.735   6.318   0.306
29321W        W99202  15.818  34.411  13.797
29322W        W99203  12.704  39.016   5.317
29323W        W99204  28.077  22.228  12.548
29324W        W99205   1.836  14.592  11.856
29325W        W99206  43.917  44.922  14.970
29326W        W99207  39.356   6.224  14.388
29327W        W99208  31.960  20.157   3.320
29328W        W99209  17.697   4.315   3.375
29329W        W99210   3.829  18.678   3.278
29330W        W99211  10.645  37.527   1.923
29331W        W99212   9.318  12.814  13.888
29332W        W99213   3.421  32.510   1.451
29333W        W99214  34.395  35.931   0.369
29334W        W99215  34.469   9.679   3.339
29335W        W99216  30.523   2.921  10.477
29336W        W99217  14.204  23.546  13.889
29337W        W99218  16.146   2.355  12.498
29338W        W99219  30.653   3.309   1.277
29339W        W99220   1.408  43.818  12.518
29340W        W99221  42.919  15.724  13.815
29341W        W99222  12.342   8.769  13.377
29342W        W99223  42.362  15.682  12.487
29343W        W99224   8.282  30.144   1.438
29344W        W99225  41.367  23.068   3.655
29345W        W99226  26.645   4.292  10.026
29346W        W99227  35.916  42.474   2.855
29347W        W99228  43.769   6.840   0.871
29348W        W99229   8.220  36.422  14.432
29349W        W99230  32.919  43.401  14.457
29350W        W99231  26.059  35.997  13.062
29351W        W99232  26.661  11.297  10.914
29352W        W99233   6.840  24.606   2.292
29353W        W99234  14.149  19.079  13.958
29354W        W99235   3.222  21.111   1.889
29355W        W99236  11.196  43.405  12.006
29356W        W99237   1.909  28.460  12.962
29357W        W99238  35.372  14.264  12.359
29358W        W99239  26.631  42.336   4.635
29359W        W99240   4.401  15.798  13.911
29360W        W99241  35.959  40.529   1.829
29361W        W99242  17.176  26.489  13.370
29362W        W99243   5.742  24.977  12.441
29363W        W99244  22.616  31.493  13.401
29364W        W99245  35.508  35.865   1.428
29365W        W99246  36.438   5.725   0.905
29366W        W99247  38.445   3.777  13.797
29367W        W99248  34.413   8.353  11.554
29368W        W99249   7.177   9.884   2.304
29369W        W99250  38.395  22.670   4.723
29370W        W99251   7.333  27.049  11.933
29371W        W99252  35.570   9.210  10.469
29372W        W99253  11.302  37.577  10.910
29373W        W99254  34.444  37.563   2.798
29374W        W99255  18.773  24.687  14.896
29375W        W99256  24.999   9.184   1.927
29376W        W99257  34.103  22.189  14.419
29377W        W99258  39.362  36.586  12.989
29378W        W99259  32.966  43.868   0.819
29379W        W99260  23.618   4.750  14.787
29380W        W99261  26.489  28.998  13.340
29381W        W99262  20.555   4.366   0.294
29382W        W99263   4.826  20.760   2.826
29383W        W99264  10.284  12.800  14.440
29384W        W99265  38.559  13.319  14.911
29385W        W99266  32.889  28.558  10.437
29386W        W99267   7.818  29.526   0.822
29387W        W99268  33.993  32.497   3.266
29388W        W99269   5.702  31.516   4.154
29389W        W99270  16.684  12.196  10.970
29390W        W99271  31.443  28.983   1.351
29391W        W99272  29.453  22.231  14.330
29392W        W99273  35.393  30.037   1.703
29393W        W99274  44.010  13.820  13.028
29394W        W99275   4.204  36.067   2.892
29395W        W99276   7.244  40.357   2.851
29396W        W99277  18.094  29.013   3.800
29397W        W99278  36.399  21.640  12.002
29398W        W99279   0.419  17.095  12.991
29399W        W99280   1.826  24.725   2.759
29400W        W99281  21.608  19.140   3.827
29401W        W99282  26.644  24.004   3.842
29402W        W99283  35.570  12.346  12.505
29403W        W99284  37.434   0.472   3.162
29404W        W99285  18.250  41.965   2.285
29405W        W99286  11.230  32.429  10.496
29406W        W99287  37.549  27.164  14.921
29407W        W99288   1.848  14.608   3.152
29408W        W99289  30.121  43.438   0.396
29409W        W99290  14.135  16.097   3.804
29410W        W99291  37.970   9.178  13.012
29411W        W99292  21.615  35.069  13.376
29412W        W99293  17.792  24.052   3.312
29413W        W99294  37.925  20.111  12.434
29414W        W99295   6.326  12.769   2.297
29415W        W99296  19.039  28.142  10.084
29416W        W99297  21.096   6.385   3.633
29417W        W99298  38.367   3.460   4.727
29418W        W99299   7.172  27.679   2.326
29419W        W99300  42.486   8.297   1.281
29420W        W99301  34.009  35.999  14.400
29421W        W99302  26.552  16.788  11.973
29422W        W99303  37.382  18.189  13.310
29423W        W99304  30.106  20.636  13.013
29424W        W99305  34.559  22.600  10.414
29425W        W99306  12.121   6.225  13.056
29426W        W99307   5.745  24.483   3.726
29427W        W99308   2.446  29.463  11.006
29428W        W99309  28.528   8.831   5.119
29429W        W99310   8.278  36.884   4.652
29430W        W99311  12.748   2.803  14.931
29431W        W99312  22.733  11.691  14.285
29432W        W99313  39.406  39.043  13.361
29433W        W99314   4.871  38.067  10.603
29434W        W99315  26.624  34.553  14.024
29435W        W99316  43.862   8.328  12.019
29436W        W99317  32.970  28.967  14.862
29437W        W99318  12.128   7.704  12.952
29438W        W99319  34.935  19.631  11.477
29439W        W99320  38.961  29.552   5.104
29440W        W99321  44.992  41.917  12.480
29441W        W99322   1.409   9.718  12.054
29442W        W99323   1.441  40.548   4.146
29443W        W99324  27.611   6.684  13.889
29444W        W99325  39.036  34.596  12.535
29445W        W99326   7.254  11.710  12.080
29446W        W99327   1.955  22.066  12.028
29447W        W99328   7.300  38.325  10.560
29448W        W99329  17.689  12.315  10.890
29449W        W99330  32.974  19.212   0.909
29450W        W99331  19.603   5.813  10.957
29451W        W99332  33.445  29.077   4.614
29452W        W99333  14.235  35.436   4.350
29453W        W99334  28.111   7.205   3.218
29454W        W99335   5.408  24.017  10.602
29455W        W99336  41.451  20.547   3.773
29456W        W99337  35.373   1.237  11.531
29457W        W99338  15.755  29.052  11.039
29458W        W99339  20.218  20.745   2.207
29459W        W99340  28.571  31.466   2.318
29460W        W99341  42.325  21.657  13.983
29461W        W99342   2.293  18.239  10.951
29462W        W99343  30.956  43.995   0.780
29463W        W99344  40.412   5.861  13.819
29464W        W99345  18.234  11.813   0.759
29465W        W99346  12.173  24.148   0.737
29466W        W99347  21.108  37.075  14.486
29467W        W99348   8.366   4.743  14.373
29468W        W99349  11.632  30.109   0.427
29469W        W99350  31.453  38.905  13.316
29470W        W99351  24.987  16.128  10.410
29471W        W99352  38.914  24.080   4.612
29472W        W99353  26.980  22.020  11.541
29473W        W99354  31.953  38.925  11.941
29474W        W99355   9.347  40.977  13.806
29475W        W99356  33.091   8.197  14.943
29476W        W99357  20.233  10.850   3.640
29477W        W99358  40.416  38.336  14.920
29478W        W99359   6.833  16.595  12.838
29479W        W99360  36.400  34.029  10.484
29480W        W99361   5.737  39.484   1.778
29481W        W99362  29.459   7.182   3.263
29482W        W99363  10.286   1.932  10.636
29483W        W99364   5.910  28.535  11.968
29484W        W99365  26.089   7.686   4.822
29485W        W99366  24.009   2.923  12.473
29486W        W99367  28.535  16.658  10.475
29487W        W99368  13.136  22.719   5.220
29488W        W99369  16.648  25.557   3.684
29489W        W99370  40.463  41.348   2.315
29490W        W99371  17.666  39.883   3.720
29491W        W99372  28.603   4.305   1.715
29492W        W99373  41.850  28.962  12.071
29493W        W99374  18.264   5.815  12.342
29494W        W99375  10.186  29.578  11.038
29495W        W99376  37.538  32.021  10.542
29496W        W99377  33.953   8.684  14.969
29497W        W99378  38.565  43.994  13.010
29498W        W99379  27.056  31.977   0.895
29499W        W99380  37.957  19.760   2.212
29500W        W99381  18.222  34.506   4.330
29501W        W99382   3.461  34.434  12.889
29502W        W99383  26.060  25.180   3.694
29503W        W99384  16.295  14.594  12.431
29504W        W99385  18.744  21.618   1.222
29505W        W99386  11.300  19.773   1.743
29506W        W99387  22.630   6.426  11.580
29507W        W99388   6.276  32.411  13.036
29508W        W99389  10.155  13.719   4.618
29509W        W99390   2.416  15.738  11.880
29510W        W99391   6.749  19.587   4.802
29511W        W99392  12.682   1.938  11.459
29512W        W99393  20.764  18.670  14.475
29513W        W99394  38.528   8.709   2.330
29514W        W99395  20.201  41.502   0.753
29515W        W99396  24.102  27.494   3.713
29516W        W99397   5.811   4.715  12.537
29517W        W99398  22.681  13.211   0.464
29518W        W99399  18.077   1.424  11.467
29519W        W99400   8.848  36.410   1.234
29520W        W99401   0.287  32.932   3.287
29521W        W99402  41.464  36.955  12.378
29522W        W99403  20.270   5.817   4.114
29523W        W99404  33.905  18.687   1.251
29524W        W99405   3.788  19.638   2.213
29525W        W99406  11.859  23.121   3.657
29526W        W99407  11.205  20.200   1.709
29527W        W99408  16.739  22.182   0.387
29528W        W99409   5.763  44.978   1.279
29529W        W99410  16.662   7.834   4.782
29530W        W99411  17.738  36.500  11.533
29531W        W99412  19.210  27.578  13.921
29532W        W99413  12.263  41.796   2.884
29533W        W99414  19.610  15.637  11.475
29534W        W99415  16.132  43.908  13.497
29535W        W99416   7.352  22.063  11.015
29536W        W99417  33.021  43.790   4.201
29537W        W99418  14.237  43.818  12.551
29538W        W99419   8.803   0.252   1.282
29539W        W99420   8.685  41.817  12.375
29540W        W99421  42.286   2.911  12.847
29541W        W99422  26.154  42.451  14.479
29542W        W99423  10.160  18.547   3.803
29543W        W99424  34.043  20.738  11.422
29544W        W99425   4.781  15.297   2.321
29545W        W99426   2.285  35.103   2.348
29546W        W99427   1.939  38.470   1.741
29547W        W99428  40.043  25.068  14.322
29548W        W99429  14.107  42.004   3.377
29549W        W99430  24.999  28.156   1.341
29550W        W99431  33.415  32.508  14.786
29551W        W99432  17.594   3.274   1.805
29552W        W99433  43.892   4.419   4.186
29553W        W99434  34.540  25.990   3.246
29554W        W99435  40.887   7.794  13.475
29555W        W99436  15.240  24.520  14.992
29556W        W99437  34.090  14.821  11.421
29557W        W99438   7.747  38.332  14.961
29558W        W99439  31.643  28.185   4.345
29559W        W99440   5.253  20.658  14.477
29560W        W99441   4.269  29.481  10.442
29561W        W99442  34.588  28.626  14.362
29562W        W99443  23.556   7.815  11.519
29563W        W99444  17.738   0.365   3.837
29564W        W99445  33.396  21.732   0.965
29565W        W99446  39.338   0.396  11.473
29566W        W99447  43.449  33.442   0.404
29567W        W99448  40.019  10.646  13.350
29568W        W99449  42.296  44.432  10.469
29569W        W99450  15.688  32.589  11.586
29570W        W99451  10.711  26.643  10.994
29571W        W99452   3.246   7.337   2.742
29572W        W99453  44.934  19.062   0.362
29573W        W99454   4.768  25.162  11.966
29574W        W99455   6.292   7.283   1.812
29575W        W99456   2.385  44.406  11.980
29576W        W99457  43.019  31.125   2.257
29577W        W99458   8.285  44.774   3.663
29578W        W99459   3.322  12.659  11.416
29579W        W99460   9.301  34.870   2.808
29580W        W99461  31.626  43.814   0.367
29581W        W99462   3.798  14.792  12.088
29582W        W99463  29.656  29.947  13.439
29583W        W99464   7.855   2.348   1.276
29584W        W99465  28.125  40.809  11.855
29585W        W99466  15.820  25.015  13.334
29586W        W99467  28.652  18.664   0.476
29587W        W99468  32.943   8.850  14.934
29588W        W99469  39.044   6.778  11.414
29589W        W99470  10.763  24.681   4.722
29590W        W99471   5.224   5.195  13.969
29591W        W99472  19.120  25.564  12.073
29592W        W99473  18.683  11.260   2.818
29593W        W99474  26.090  41.986   1.449
29594W        W99475   4.780   6.200   2.834
29595W        W99476  21.579  29.653   3.726
29596W        W99477  32.405  42.480  12.847
29597W        W99478  23.185  19.548  14.370
29598W        W99479   6.918  36.511  11.551
29599W        W99480   7.389  24.044   2.802
29600W        W99481  33.571  10.833  10.116
29601W        W99482   1.911  30.151  14.852
29602W        W99483  13.340   6.777   0.828
29603W        W99484  28.074   2.726   2.722
29604W        W99485  29.139  16.282  13.363
29605W        W99486   1.923  24.555  11.406
29606W        W99487  15.802   0.490  11.954
29607W        W99488  19.603   6.346  13.540
29608W        W99489   4.804  38.976  10.987
29609W        W99490   7.734  22.063   1.325
29610W        W99491  28.955  16.610  13.861
29611W        W99492  42.336  16.161  14.789
29612W        W99493   7.256  15.328  14.921
29613W        W99494  43.835  13.729  10.925
29614W        W99495  33.457   4.890   9.927
29615W        W99496  44.936   9.364   1.443
29616W        W99497  27.499  44.483  12.859
29617W        W99498  20.744   4.281  11.990
29618W        W99499   7.364  10.356   3.215
29619W        W99500  30.572   2.910  11.863
29620W        W99501  40.024  36.918   1.779
29621W        W99502  31.635   8.845  14.958
29622W        W99503  33.088   9.375   3.308
29623W        W99504   6.363  12.265   4.615
29624W        W99505  39.937   3.401  10.458
29625W        W99506  23.073  19.202   1.445
29626W        W99507   1.477  43.327   4.336
29627W        W99508  14.233  15.717   1.876
29628W        W99509   9.163   8.745   4.154
29629W        W99510  23.162  36.405   2.390
29630W        W99511  16.573  31.940   2.841
29631W        W99512  20.730  31.076   3.203
29632W        W99513  32.890   6.227  14.281
29633W        W99514  22.144  21.036   1.312
29634W        W99515   1.471  12.727   3.669
29635W        W99516  18.608  37.573  13.933
29636W        W99517   8.381  19.216  11.981
29637W        W99518   3.844   5.730   4.644
29638W        W99519  28.168  11.201   0.761
29639W        W99520  26.601  42.491  11.914
29640W        W99521   2.373  29.661  13.367
29641W        W99522  26.065  16.702  14.992
29642W        W99523  16.701   3.413  11.459
29643W        W99524  10.274  40.430   3.151
29644W        W99525  39.370  30.075   1.760
29645W        W99526   9.252  38.446   0.743
29646W        W99527   0.800  11.151  11.500
29647W        W99528   4.433   1.928  13.516
29648W        W99529   2.249  40.423   4.114
29649W        W99530  34.461  28.104  12.897
29650W        W99531  33.046  40.494   0.271
29651W        W99532  25.001  23.498   4.196
29652W        W99533  38.030   4.777  14.962
29653W        W99534  36.003  19.132  11.912
29654W        W99535   2.251  32.070  14.887
29655W        W99536  43.295  19.152  14.822
29656W        W99537  44.488  25.661  11.568
29657W        W99538   5.807  21.110  10.905
29658W        W99539  38.539  36.366   2.324
29659W        W99540   6.211  25.125   4.216
29660W        W99541  25.596  12.613   3.340
29661W        W99542  16.190  14.225   5.226
29662W        W99543  18.758  19.768   1.704
29663W        W99544  10.759   0.480  12.064
29664W        W99545  16.696  33.050  12.372
29665W        W99546  19.614  34.961  13.437
29666W        W99547   7.871   3.894  12.926
29667W        W99548  31.145  17.692  10.140
29668W        W99549   7.385  12.223  12.861
29669W        W99550  17.145   8.756   4.695
29670W        W99551  24.110  36.904  14.367
29671W        W99552   8.179  29.928   2.694
29672W        W99553   5.362  13.170   4.154
29673W        W99554  33.435  32.535   3.307
29674W        W99555   6.204  16.081  13.860
29675W        W99556  18.780   3.375  12.008
29676W        W99557  34.548  28.939  11.430
29677W        W99558  26.564  15.671  14.479
29678W        W99559  19.550  40.890   3.689
29679W        W99560  21.675  23.644   1.237
29680W        W99561  32.063  26.088  10.892
29681W        W99562  11.703  19.226  10.640
29682W        W99563   7.898  39.991   0.441
29683W        W99564  20.684  10.735  11.442
29684W        W99565  22.679   2.800   4.154
29685W        W99566  21.072  34.953  11.008
29686W        W99567  23.098  35.954   0.767
29687W        W99568  32.425  30.453  11.532
29688W        W99569  18.098  33.610   0.397
29689W        W99570   0.388  25.574   3.338
29690W        W99571   3.811   7.852   4.157
29691W        W99572  38.366  10.778  11.972
29692W        W99573  12.323   6.699   1.255
29693W        W99574   9.718  33.398  10.982
29694W        W99575  18.729  31.994  14.414
29695W        W99576   8.659  35.589   1.217
29696W        W99577   3.815  10.267  11.457
29697W        W99578  20.685  44.473  10.928
29698W        W99579  23.062  15.135   1.934
29699W        W99580  33.895   7.792   3.870
29700W        W99581  19.224  32.124   0.355
29701W        W99582  23.988   9.217  14.832
29702W        W99583   8.185  24.158  11.396
29703W        W99584  24.072  10.213   1.830
29704W        W99585   2.362  12.663  12.844
29705W        W99586  41.381  31.471   3.795
29706W        W99587  35.929   3.883   0.745
29707W        W99588  41.442  40.018   2.199
29708W        W99589  37.998   8.208   3.309
29709W        W99590  24.059  20.656  13.959
29710W        W99591  34.495  37.020  11.493
29711W        W99592  41.530  26.490   1.220
29712W        W99593  27.191  14.181   1.298
29713W        W99594  40.909  38.461  11.595
29714W        W99595  35.901  16.104  11.476
29715W        W99596   3.821  23.707   2.278
29716W        W99597  39.906  33.084  12.377
29717W        W99598  16.310  33.581  13.820
29718W        W99599  16.648  16.246   0.819
29719W        W99600  41.840  11.254  11.873
29720W        W99601  33.954  40.480   4.768
29721W        W99602  19.155  43.442   3.653
29722W        W99603   2.965  40.539  14.323
29723W        W99604  31.943  33.964  14.772
29724W        W99605  32.487   0.852   3.738
29725W        W99606  39.953  39.550   3.749
29726W        W99607  20.611  30.538   0.295
29727W        W99608   9.244   8.716   2.239
29728W        W99609  21.129  31.481   4.240
29729W        W99610  23.223   7.392  12.959
29730W        W99611  17.630  30.004   2.348
29731W        W99612  17.601  36.427   1.242
29732W        W99613   6.420  28.539  13.376
29733W        W99614  39.354  19.131  12.539
29734W        W99615  11.863  28.588   0.314
29735W        W99616   0.340   2.256  11.099
29736W        W99617  34.109   5.258   4.310
29737W        W99618  41.970  34.921   4.248
29738W        W99619  36.016   3.392   1.416
29739W        W99620  31.046  30.600   2.189
29740W        W99621  35.919  20.593   4.631
29741W        W99622   2.411  13.307   5.234
29742W        W99623  21.105   4.792   5.314
29743W        W99624  39.018  14.636   5.299
29744W        W99625  28.645  15.155   3.300
29745W        W99626  14.266  20.562  13.029
29746W        W99627   1.947  11.339   2.180
29747W        W99628  17.693  15.101   2.412
29748W        W99629  21.113  31.519   2.249
29749W        W99630   7.666   9.828   2.901
29750W        W99631  10.775   5.285  14.281
29751W        W99632  34.960  31.049  12.903
29752W        W99633  10.212   7.827  11.460
29753W        W99634  12.331  23.106  12.433
29754W        W99635  11.636  26.186   4.730
29755W        W99636   7.225   2.343  10.445
29756W        W99637  25.201   6.299   0.865
29757W        W99638   7.218  39.446   2.293
29758W        W99639  30.148  40.307   2.218
29759W        W99640  25.962  26.560   0.416
29760W        W99641  12.241  38.824  14.854
29761W        W99642  12.236  23.993  14.491
29762W        W99643  19.568  15.608  12.384
29763W        W99644   9.240  17.561  11.384
29764W        W99645  31.910  14.829  14.001
29765W        W99646  22.208  18.681  13.525
29766W        W99647  32.505  19.099  11.523
29767W        W99648   2.361  38.959  12.912
29768W        W99649  37.945  41.489  13.439
29769W        W99650  36.514  28.653  13.378
29770W        W99651   1.460  38.965   3.161
29771W        W99652  22.575  41.955  13.934
29772W        W99653  37.571  37.860   1.933
29773W        W99654   5.215   8.281  10.549
29774W        W99655  37.946  31.095  12.887
29775W        W99656  38.867  35.595  12.042
29776W        W99657  41.356  38.400  10.488
29777W        W99658  21.567   1.899  10.458
29778W        W99659  21.550  15.709   3.375
29779W        W99660   1.775   5.417   3.317
29780W        W99661   6.761   3.386   2.400
29781W        W99662  10.861  29.934  11.517
29782W        W99663  20.544  27.679   0.954
29783W        W99664  29.646  18.107   2.800
29784W        W99665  14.740  42.014   4.188
29785W        W99666  21.576   2.857  12.964
29786W        W99667  43.276  35.095   2.675
29787W        W99668  24.082  23.240   0.262
29788W        W99669   3.262  21.037   0.402
29789W        W99670  14.187  13.120   2.269
29790W        W99671  21.544  21.248  13.533
29791W        W99672   2.269  23.037  13.335
29792W        W99673  39.952  31.953   4.725
29793W        W99674  10.765   7.709  11.386
29794W        W99675  44.466   3.289  14.864
29795W        W99676  11.845  15.184   9.940
29796W        W99677  27.679  43.377   3.375
29797W        W99678  14.792   1.370  10.945
29798W        W99679  35.008  21.721  11.474
29799W        W99680  11.785  37.366   4.221
29800W        W99681  28.564  24.623   1.412
29801W        W99682  20.570  39.479   3.333
29802W        W99683   4.903  42.946  13.060
29803W        W99684  13.333   5.302   4.234
29804W        W99685  44.791  40.935   3.295
29805W        W99686  37.450  44.453  13.857
29806W        W99687  29.602  14.590  14.457
29807W        W99688  13.657  14.622   1.874
29808W        W99689  23.159   5.864   1.898
29809W        W99690  22.101  37.519  14.819
29810W        W99691  23.669  31.597  13.364
29811W        W99692  24.679  44.912  13.986
29812W        W99693  32.971  25.192  12.097
29813W        W99694  15.087   8.191   2.809
29814W        W99695  38.820  41.534  11.921
29815W        W99696   4.735  24.552   4.619
29816W        W99697  28.506  12.214   4.272
29817W        W99698  29.563  38.015   1.762
29818W        W99699  17.557  29.926   0.754
29819W        W99700  15.281  37.471   4.635
29820W        W99701   0.823  18.229  13.997
29821W        W99702  42.464  30.942  11.077
29822W        W99703   3.445   3.718   3.265
29823W        W99704  15.623  30.652   4.328
29824W        W99705  10.756  24.624   0.405
29825W        W99706   7.857  42.922  11.120
29826W        W99707  38.472   1.349  12.010
29827W        W99708  24.174  28.115  10.503
29828W        W99709  20.529  26.659   3.381
29829W        W99710   9.341  36.470  11.611
29830W        W99711   3.442  43.277  13.320
29831W        W99712   1.283  17.768   3.345
29832W        W99713  21.103  39.910   0.430
29833W        W99714   5.835  38.360  12.402
29834W        W99715  19.082   3.294   0.451
29835W        W99716  42.017  38.880  12.487
29836W        W99717  25.069  18.674  11.955
29837W        W99718  34.099  22.648   0.436
29838W        W99719   8.339  33.072  11.541
29839W        W99720  25.091  24.643  12.387
29840W        W99721  36.004  15.598   1.835
29841W        W99722   1.290  37.551   5.243
29842W        W99723  10.276  18.242  10.416
29843W        W99724   0.818  25.576   4.616
29844W        W99725   4.726  14.097   3.685
29845W        W99726  12.793  28.560  14.301
29846W        W99727   8.228  41.934   1.415
29847W        W99728  31.993  33.087   1.743
29848W        W99729  26.639  38.945  14.451
29849W        W99730  29.467   1.381   2.840
29850W        W99731  11.166  25.618  10.981
29851W        W99732  33.894  43.773  10.979
29852W        W99733  23.098  19.631  12.361
29853W        W99734  22.526   2.929   4.667
29854W        W99735  37.577  42.911  14.344
29855W        W99736  38.996  29.034  10.461
29856W        W99737  19.112   5.428  14.436
29857W        W99738  12.802  28.520  11.059
29858W        W99739  20.677   2.934  11.909
29859W        W99740  10.311  27.012  12.954
29860W        W99741  24.021  34.541  11.017
29861W        W99742  35.012  19.696  14.319
29862W        W99743  16.645  22.129  12.480
29863W        W99744  33.394   8.231   0.877
29864W        W99745  30.983  18.204  13.970
29865W        W99746  29.982  10.278  11.483
29866W        W99747   6.327  20.677   2.314
29867W        W99748  20.037   9.854  11.962
29868W        W99749  26.034  19.163   3.268
29869W        W99750  37.401  12.773  10.448
29870W        W99751  37.863  35.882  11.016
29871W        W99752  31.079  25.080   4.688
29872W        W99753  36.052  23.613   1.337
29873W        W99754  13.258  44.807   2.189
29874W        W99755  40.513  15.767  12.076
29875W        W99756  20.734  21.190  13.886
29876W        W99757  28.574  41.832   0.461
29877W        W99758   2.885  32.620   0.873
29878W        W99759  14.225  33.400   2.893
29879W        W99760  19.741  41.433  10.105
29880W        W99761  29.549   0.474  12.033
29881W        W99762  37.983  40.397  14.295
29882W        W99763  24.547  17.793  11.919
29883W        W99764  10.186   2.867   4.186
29884W        W99765  40.385   5.865   2.767
29885W        W99766   2.449  11.127   4.212
29886W        W99767  15.740  11.297  14.913
29887W        W99768   0.304  38.386   0.939
29888W        W99769  28.677  11.860  10.016
29889W        W99770  31.935  16.231   4.338
29890W        W99771  10.823   9.175   4.673
29891W        W99772   1.278  33.587   4.287
29892W        W99773  42.915  36.516   2.205
29893W        W99774  38.861  26.056  11.964
29894W        W99775  18.598  29.572  12.087
29895W        W99776  34.086  41.848  10.894
29896W        W99777  20.192  38.546  11.456
29897W        W99778  39.882  26.458   4.779
29898W        W99779  20.540  29.572   0.910
29899W        W99780   3.387   8.718   0.270
29900W        W99781  37.853  16.277  11.890
29901W        W99782  39.396  14.687  10.423
29902W        W99783  22.236  35.563  10.541
29903W        W99784  18.277  39.837   2.832
29904W        W99785   5.884   3.236  14.373
29905W        W99786   1.418   9.881  13.438
29906W        W99787  34.612  25.044  14.415
29907W        W99788  33.480  40.945   1.697
29908W        W99789  36.912   4.274   0.748
29909W        W99790  31.150  34.526   4.634
29910W        W99791  43.387   9.687  13.818
29911W        W99792  23.730  16.694   9.941
29912W        W99793   5.334  42.008  11.872
29913W        W99794  25.560  35.996   0.329
29914W        W99795  16.247   0.878   1.241
29915W        W99796  23.537  33.966   3.713
29916W        W99797  11.692  43.466   2.878
29917W        W99798  32.464   6.731   1.321
29918W        W99799   0.764  32.511   4.672
29919W        W99800  25.099  15.152   1.837
29920W        W99801  34.010  42.359  12.977
29921W        W99802   3.811   5.360  14.842
29922W        W99803   7.191  21.723   3.713
29923W        W99804  39.378   5.303  13.962
29924W        W99805   4.221   4.754  12.463
29925W        W99806   5.723  13.841  14.787
29926W        W99807  30.545   5.875   5.127
29927W        W99808  19.638   1.803   3.803
29928W        W99809  20.644  26.972  13.897
29929W        W99810  39.945  19.769  11.412
29930W        W99811  19.674  28.615   0.946
29931W        W99812  26.467   3.794  11.066
29932W        W99813   3.807  13.649   1.861
29933W        W99814  10.780  17.308   2.894
29934W        W99815   8.897   3.944   2.798
29935W        W99816   7.179  44.953   1.778
29936W        W99817  40.051  41.398   2.404
29937W        W99818  35.083  28.003   3.348
29938W        W99819  21.223  12.247  14.417
29939W        W99820  22.665  23.048   4.803
29940W        W99821  29.128  24.544  11.902
29941W        W99822  14.710  21.018   3.258
29942W        W99823  30.985  34.530   1.818
29943W        W99824   5.344  18.218   3.231
29944W        W99825  17.260  24.590   2.211
29945W        W99826  14.286  19.266  11.544
29946W        W99827   9.775  35.459  11.541
29947W        W99828   0.892   3.929   1.345
29948W        W99829  18.214  39.411  14.346
29949W        W99830  37.919  37.886  12.435
29950W        W99831  24.615  36.857   4.318
29951W        W99832  40.369  16.189  13.524
29952W        W99833   5.334  42.399  13.538
29953W        W99834  24.705   8.258  14.777
29954W        W99835  25.033  12.687  12.050
29955W        W99836  16.096  17.591   2.379
29956W        W99837  32.143  10.191   1.253
29957W        W99838  16.725  28.550   4.739
29958W        W99839  27.056   6.239  12.837
29959W        W99840  15.087   2.391   0.479
29960W        W99841  31.415  17.744  12.556
29961W        W99842  37.450  38.930  13.812
29962W        W99843  17.104  22.231  13.819
29963W        W99844  36.463  16.123  14.868
29964W        W99845  37.391  39.832   2.897
29965W        W99846  33.019  31.474  12.022
29966W        W99847  32.936  44.985   0.764
29967W        W99848  24.103  32.576   1.878
29968W        W99849  38.366   9.818   1.750
29969W        W99850   9.737  29.580   1.830
29970W        W99851  27.468   1.849   1.732
29971W        W99852  18.145  35.926   4.295
29972W        W99853   6.889  11.792  10.981
29973W        W99854  13.112   5.384   3.258
29974W        W99855   3.410  34.384  14.915
29975W        W99856   4.899  22.098  11.378
29976W        W99857  40.894   9.319   4.318
29977W        W99858   4.426   5.846   1.370
29978W        W99859  39.523  24.074  11.128
29979W        W99860  14.284  33.412   2.181
29980W        W99861  20.712  11.206  12.566
29981W        W99862  21.164  38.386   0.263
29982W        W99863  42.954   8.406  10.936
29983W        W99864  17.561  12.625  14.936
29984W        W99865  37.441  26.172   3.242
29985W        W99866  42.962  11.622  12.471
29986W        W99867  10.836  37.837  13.996
29987W        W99868  12.255  14.128  10.634
29988W        W99869  38.424  25.485  11.481
29989W        W99870  35.978  20.152   3.859
29990W        W99871  26.033  43.390  11.552
29991W        W99872  33.975  39.962  13.041
29992W        W99873  33.588  39.057   2.808
29993W        W99874  36.957  37.530  14.360
29994W        W99875  21.592   0.784  10.092
29995W        W99876  23.546  41.337  13.315
29996W        W99877  33.383  41.511  12.466
29997W        W99878   4.343  35.447  12.520
29998W        W99879  11.654   4.853  11.999
29999W        W99880  42.463  31.484   2.303
30000W        W99881  16.157  15.658  11.971
30001W        W99882  13.132   8.166  13.372
30002W        W99883  41.932  30.023  14.437
30003W        W99884   7.903  37.030   4.141
30004W        W99885  20.561  22.048  14.992
30005W        W99886  15.090  16.129   1.308
30006W        W99887  13.310  43.494   3.702
30007W        W99888  27.609  32.098  13.406
30008W        W99889   6.884  38.834  11.909
30009W        W99890  39.900  14.604   2.403
30010W        W99891  12.683   1.468   4.237
30011W        W99892  22.053  10.820  12.359
30012W        W99893  37.020   1.879   9.451
30013W        W99894  21.263  39.406   0.270
30014W        W99895   0.907  37.962   2.354
30015W        W99896  35.862   2.849   4.203
30016W        W99897   2.397  25.632   1.792
30017W        W99898   5.317  12.121   3.178
30018W        W99899  21.056  26.203   4.834
30019W        W99900  14.612  42.830  11.459
30020W        W99901  10.270  22.666  13.878
30021W        W99902  34.543   2.328  11.371
30022W        W99903  40.354  32.059   1.435
30023W        W99904  26.194  42.970   0.412
30024W        W99905  20.666  16.735  14.455
30025W        W99906   5.332  29.082   1.772
30026W        W99907  40.464  36.869  12.043
30027W        W99908  22.520  34.961  12.501
30028W        W99909  30.486  31.037  12.890
30029W        W99910   8.256  14.680   0.837
30030W        W99911  17.791   9.686  11.856
30031W        W99912  36.848  25.196   2.303
30032W        W99913  23.081  31.969   4.648
30033W        W99914  37.834  30.135   3.815
30034W        W99915   8.326   3.914   1.780
30035W        W99916  23.731  34.581   4.671
30036W        W99917   3.925   9.222   0.791
30037W        W99918  10.204  16.119   2.870
30038W        W99919  40.487  16.805  12.876
30039W        W99920  33.976  13.308  10.891
30040W        W99921  17.150  18.566  11.938
30041W        W99922   6.258  40.472   1.912
30042W        W99923  17.644  34.041  14.766
30043W        W99924  15.595   6.697   1.811
30044W        W99925  43.896  29.543  12.061
30045W        W99926  28.657  27.975  12.009
30046W        W99927  34.482  35.359  11.989
30047W        W99928  12.344   9.377  13.366
30048W        W99929  11.786   1.963  13.968
30049W        W99930  21.170   6.772  11.415
30050W        W99931  40.028  42.982   2.667
30051W        W99932  31.946   4.840   5.144
30052W        W99933  20.606  28.099  14.356
30053W        W99934  29.031  21.139   0.399
30054W        W99935  23.222  33.428  12.579
30055W        W99936  31.943  15.227  11.926
30056W        W99937  38.357   5.761   3.283
30057W        W99938  37.484  43.504   1.379
30058W        W99939  41.910   8.802  13.367
30059W        W99940  37.920  12.730   2.318
30060W        W99941  30.588  12.831   2.363
30061W        W99942  24.486  12.675   1.237
30062W        W99943   0.438  36.377   2.698
30063W        W99944   4.888  16.250  13.359
30064W        W99945   7.385  21.587  12.453
30065W        W99946   4.785  31.542  10.525
30066W        W99947  22.650  19.611   5.289
30067W        W99948   5.868  23.549  14.024
30068W        W99949  44.493   1.285  13.313
30069W        W99950  24.229  31.981  12.935
30070W        W99951   5.825  17.301   2.765
30071W        W99952  10.379  13.751   3.342
30072W        W99953  27.114  13.135   1.704
30073W        W99954  38.009  26.041  11.552
30074W        W99955  32.090  34.894   0.463
30075W        W99956  10.371  12.320  12.004
30076W        W99957   9.792  13.175  14.489
30077W        W99958  11.127   2.451   2.685
30078W        W99959   3.911  18.699   4.310
30079W        W99960  41.300   7.773  13.384
30080W        W99961  15.318  25.121   4.241
30081W        W99962  21.049   8.879  12.567
30082W        W99963  16.229  35.999  13.339
30083W        W99964  31.560  17.736   4.305
30084W        W99965   1.924  11.627  13.457
30085W        W99966  21.223  41.525  13.415
30086W        W99967  22.573  22.631  10.991
30087W        W99968  26.602  12.323   0.478
30088W        W99969  16.235  19.578  12.916
30089W        W99970  40.488  40.471  14.400
30090W        W99971  25.192  20.631   0.322
30091W        W99972  44.270  10.353  13.975
30092W        W99973   9.337  19.688  12.010
30093W        W99974  23.696   4.784  11.567
30094W        W99975  26.951  11.310  12.474
30095W        W99976  22.519  36.401  11.087
30096W        W99977  26.975  42.016   3.191
30097W        W99978  13.307  11.318   0.939
30098W        W99979  36.460  16.635  10.408
30099W        W99980   8.877  24.685   1.789
30100W        W99981  17.120  37.561   4.723
30101W        W99982   2.471  17.730  11.503
30102W        W99983  34.040  38.506   1.845
30103W        W99984   3.927  17.295  12.000
30104W        W99985  25.500   3.847  11.442
30105W        W99986  11.760  12.664   4.140
30106W        W99987   1.299   8.181  10.516
30107W        W99988   9.283  26.639   4.718
30108W        W99989  27.516  20.658  14.817
30109W        W99990  29.124  23.522  11.590
30110W        W99991  33.449  13.135   4.698
30111W        W99992  24.130  25.533  11.056
30112W        W99993  29.595  20.658   3.704
30113W        W99994  12.834  31.472  13.037
30114W        W99995  21.614  29.546   0.387
30115W        W99996  23.209  39.491  12.522
30116W        W99997  34.516  30.037   0.944
30117W        W99998   0.918  14.591   2.204
30118W        W99999  26.536  36.472   1.886
30119W        W    0  24.187   1.793   4.281
30120W        W    1  42.833  13.601  14.001
30121W        W    2  40.399  11.676  14.320
30122W        W    3  14.637  35.039   0.393
30123W        W    4  40.333  43.011   4.159
30124W        W    5  14.188   6.253   0.271
30125W        W    6  11.630  31.052  12.476
30126W        W    7  37.430  29.634  14.406
30127W        W    8  41.978   6.876  12.975
30128W        W    9  38.421  35.540   4.772
30129W        W   10   1.823  43.302  11.900
30130W        W   11  14.140  20.759   0.299
30131W        W   12  30.134  41.409   0.473
30132W        W   13  22.166   1.959  12.881
30133W        W   14   8.347   0.986  10.515
30134W        W   15   0.407  42.461   1.867
30135W        W   16  19.711   6.717  14.902
30136W        W   17  22.657   7.753  12.888
30137W        W   18   0.978  14.758  14.351
30138W        W   19  20.525  17.747  14.399
30139W        W   20  44.269  21.537  11.883
30140W        W   21  27.660   2.305   1.379
30141W        W   22   7.333  14.187  12.846
30142W        W   23  21.536   9.836   4.243
30143W        W   24   1.277  20.057   0.940
30144W        W   25  22.039  12.298   4.122
30145W        W   26  34.497   2.939  14.030
30146W        W   27  26.674  19.062  10.445
30147W        W   28   3.254  12.270  12.383
30148W        W   29  31.606  21.681   3.289
30149W        W   30  23.986   6.837  13.961
30150W        W   31  29.077  44.819  10.582
30151W        W   32  20.528  37.582  11.030
30152W        W   33  11.277  29.564   1.298
30153W        W   34  34.048  21.093   0.928
30154W        W   35  18.264  17.774  12.990
30155W        W   36  14.672   7.837   4.837
30156W        W   37  22.674  29.641  11.428
30157W        W   38  32.403   1.869   3.245
30158W        W   39  42.518  37.394  12.391
30159W        W   40  13.295  11.636  11.572
30160W        W   41  18.755  29.442   1.306
30161W        W   42   9.252  11.193   2.288
30162W        W   43  20.591  10.669  14.857
30163W        W   44  25.587  36.550   3.681
30164W        W   45   6.255  22.998  13.344
30165W        W   46   8.397   7.887   0.460
30166W        W   47  30.511  11.659  14.352
30167W        W   48  32.532  14.708  11.511
30168W        W   49  32.502  30.059  12.935
30169W        W   50   8.168  11.231  12.363
30170W        W   51   4.344   1.748  14.931
30171W        W   52  17.790  38.528   2.204
30172W        W   53   5.305  39.403  12.375
30173W        W   54  26.456  35.412   0.879
30174W        W   55  36.356  34.905   4.704
30175W        W   56  40.955   3.387  14.853
30176W        W   57  21.133  37.956  13.862
30177W        W   58  42.783  14.604  10.998
30178W        W   59  29.965  29.595  12.508
30179W        W   60  37.337  16.197  13.816
30180W        W   61  36.964  29.923  11.516
30181W        W   62   6.311  25.520   2.328
30182W        W   63   6.839  31.503   4.622
30183W        W   64  27.637  36.011  11.963
30184W        W   65  11.722   2.226  13.340
30185W        W   66   5.326  17.252   2.667
30186W        W   67  26.616  16.226   1.388
30187W        W   68   7.873  20.618  12.394
30188W        W   69  28.100  34.394   3.720
30189W        W   70  35.474  22.715   0.276
30190W        W   71  19.588  35.453  14.769
30191W        W   72  33.417  20.199  12.504
30192W        W   73  38.379   2.307  11.941
30193W        W   74  12.845  44.947   4.218
30194W        W   75   3.743  40.498  12.028
30195W        W   76  19.080  42.340  13.856
30196W        W   77   9.715  23.058  10.902
30197W        W   78  30.561  44.444  13.864
30198W        W   79  20.635  23.638   4.319
30199W        W   80   0.860   6.390   2.695
30200W        W   81  17.716  29.558  13.864
30201W        W   82  33.404  30.637   0.952
30202W        W   83  40.948  38.350  12.892
30203W        W   84   7.207   2.312  11.434
30204W        W   85   3.220  36.937   0.373
30205W        W   86   7.240  26.546   2.369
30206W        W   87   0.912  39.549   0.274
30207W        W   88  13.219  22.652   0.746
30208W        W   89  21.070  19.054   3.374
30209W        W   90  37.344  31.628  11.078
30210W        W   91  13.699  14.288  11.107
30211W        W   92  34.890  24.167   1.741
30212W        W   93   4.855  17.110  13.349
30213W        W   94  21.709  32.141   5.156
30214W        W   95  42.310   8.701   0.795
30215W        W   96  23.630   0.284   4.627
30216W        W   97   7.221  25.547   0.367
30217W        W   98  13.332   8.674  13.525
30218W        W   99  21.628  22.065   4.736
30219W        W  100  20.265  44.770   4.125
30220W        W  101  17.111  23.147   3.794
30221W        W  102   4.291   3.906  12.418
30222W        W  103   6.819  30.555  10.607
30223W        W  104  16.240   5.281   1.869
30224W        W  105  35.534   4.307   2.827
30225W        W  106  17.188  13.800  14.295
30226W        W  107  42.820   5.892   4.343
30227W        W  108  18.757   0.320   4.653
30228W        W  109  23.040  13.313   3.256
30229W        W  110   9.250  32.138  10.156
30230W        W  111   0.916  14.218   4.246
30231W        W  112  27.961  20.745  10.434
30232W        W  113  29.968  14.735  12.572
30233W        W  114  41.496  35.922  11.027
30234W        W  115  38.062  29.522   0.320
30235W        W  116  26.093  27.110   2.234
30236W        W  117  40.912   3.249  10.925
30237W        W  118   4.328  42.869  13.026
30238W        W  119  12.612  27.018  12.945
30239W        W  120  29.444  26.141   2.328
30240W        W  121  18.212  18.631  13.806
30241W        W  122  42.474  27.448  10.592
30242W        W  123   7.381  25.597  14.788
30243W        W  124   1.420  10.843   3.647
30244W        W  125  42.983  22.169  10.951
30245W        W  126   3.888   5.876  12.093
30246W        W  127  15.772  33.394  13.914
30247W        W  128  31.973  22.529   3.739
30248W        W  129  42.945   0.289  13.434
30249W        W  130  31.905  26.108  12.344
30250W        W  131  17.670  27.467  13.864
30251W        W  132  18.778  11.282   4.286
30252W        W  133  37.008  37.457  13.382
30253W        W  134  27.665  31.610   1.762
30254W        W  135   6.407   3.779   4.240
30255W        W  136  38.854  19.051   1.768
30256W        W  137  43.334  16.765   0.400
30257W        W  138  42.788  12.351   3.835
30258W        W  139  43.343   1.962   3.670
30259W        W  140  12.308   5.394   1.733
30260W        W  141  24.479  23.987   3.200
30261W        W  142  15.727  23.213   1.435
30262W        W  143  35.026  37.428   4.714
30263W        W  144  20.655  20.135   1.780
30264W        W  145  41.391  31.009   4.668
30265W        W  146  27.549  42.365  13.798
30266W        W  147  13.761  14.670  14.991
30267W        W  148   3.847  12.192  11.883
30268W        W  149  14.255  12.834   0.926
30269W        W  150  32.937  16.222   5.094
30270W        W  151  38.039  25.094   1.810
30271W        W  152  40.887  14.730  13.826
30272W        W  153   3.335  40.920   2.678
30273W        W  154  11.330  21.252  13.460
30274W        W  155  13.677   3.747   1.296
30275W        W  156  13.646  19.248   2.842
30276W        W  157  33.571  43.844   1.266
30277W        W  158  30.941  25.045   4.214
30278W        W  159  26.560  17.662  12.974
30279W        W  160  17.615  44.338   4.624
30280W        W  161   8.715  14.225  14.015
30281W        W  162  16.597  24.013  10.427
30282W        W  163  37.838  16.189   0.373
30283W        W  164  35.887  22.084  11.863
30284W        W  165   6.330   1.431  11.379
30285W        W  166  34.540  14.813  12.523
30286W        W  167  44.385   7.849  12.974
30287W        W  168  15.631  17.781   0.455
30288W        W  169   7.308  13.645   2.731
30289W        W  170  29.098   1.741  14.323
30290W        W  171  27.455   2.811   1.741
30291W        W  172  23.219  36.392   4.642
30292W        W  173  21.126  35.461   3.678
30293W        W  174  27.996  26.609  10.977
30294W        W  175  41.000  41.531  13.896
30295W        W  176  12.776   7.749   4.647
30296W        W  177  23.678  30.581  11.605
30297W        W  178   4.220  16.193   3.193
30298W        W  179  33.457  22.736  11.931
30299W        W  180  36.431  26.509  14.825
30300W        W  181  19.210  38.025   0.866
30301W        W  182  34.043  25.642   0.844
30302W        W  183  24.141  41.385   5.201
30303W        W  184   4.388  23.591   1.441
30304W        W  185  33.576  10.699   3.329
30305W        W  186  18.662  21.103  13.872
30306W        W  187  10.243   7.840  11.070
30307W        W  188  27.036  29.502   2.767
30308W        W  189  35.384  10.673   4.640
30309W        W  190  37.885  21.026   1.359
30310W        W  191   2.920  31.458   0.960
30311W        W  192  31.978  13.845   0.375
30312W        W  193  21.129   3.758   4.646
30313W        W  194  37.028   1.346   5.157
30314W        W  195   3.949  11.284  11.600
30315W        W  196  38.385  39.417   1.260
30316W        W  197  24.175  34.463   3.228
30317W        W  198   0.773  15.217   1.895
30318W        W  199  34.881  39.437   2.224
30319W        W  200  25.965  32.397  12.559
30320W        W  201  12.848  24.996   4.224
30321W        W  202  36.979   1.773   3.305
30322W        W  203  44.809   1.470  13.398
30323W        W  204  31.621  31.490   0.434
30324W        W  205   5.330  40.387  11.922
30325W        W  206   0.469  41.971  14.475
30326W        W  207  16.109  40.406   0.796
30327W        W  208   8.878   3.901   2.340
30328W        W  209   3.724  30.005   0.247
30329W        W  210  10.164  44.769  10.541
30330W        W  211   9.262  37.962   0.900
30331W        W  212   6.405  15.744   3.271
30332W        W  213   2.426  44.401  12.474
30333W        W  214  13.640  32.463  12.960
30334W        W  215  32.473   0.359  10.607
30335W        W  216  36.359  31.493  13.801
30336W        W  217  35.029  22.010  13.880
30337W        W  218  25.616   0.871  11.991
30338W        W  219   9.376  43.983  12.877
30339W        W  220   6.409  15.314  10.509
30340W        W  221  31.147   8.667  11.122
30341W        W  222  19.213  13.319  13.358
30342W        W  223   9.362  38.490   3.744
30343W        W  224   7.894  37.445   4.263
30344W        W  225  25.650  41.847   4.815
30345W        W  226  44.921  14.828   2.277
30346W        W  227   8.688  40.534   1.432
30347W        W  228  25.992   2.827   0.265
30348W        W  229  40.443  41.294   0.454
30349W        W  230  26.603  11.712  14.347
30350W        W  231  32.982  39.006   9.944
30351W        W  232  34.530  11.865   1.808
30352W        W  233  34.603   7.360  11.485
30353W        W  234  15.638  16.081  11.924
30354W        W  235  30.573  40.495  14.308
30355W        W  236  23.190  35.880   4.265
30356W        W  237  29.514   3.796   2.896
30357W        W  238  28.655  25.676   5.586
30358W        W  239  40.963   4.318   1.706
30359W        W  240  43.986  30.134  11.092
30360W        W  241   0.840  19.627  12.401
30361W        W  242   5.286   7.700  13.489
30362W        W  243   1.479  29.114  13.969
30363W        W  244  43.795  14.685   3.700
30364W        W  245  21.635  42.001   2.250
30365W        W  246  31.576  35.992  12.907
30366W        W  247  33.104  33.533  13.507
30367W        W  248  22.181  16.111  11.969
30368W        W  249  13.198  40.966  13.469
30369W        W  250  18.198   3.398  12.935
30370W        W  251  35.971   0.329  11.965
30371W        W  252  27.480  30.448  11.892
30372W        W  253  11.277  43.491   4.179
30373W        W  254   2.302  13.200  12.980
30374W        W  255  21.668   7.212  10.407
30375W        W  256  43.383  32.126   2.380
30376W        W  257  31.583  41.022  13.989
30377W        W  258   9.334  41.375   2.274
30378W        W  259  11.181  11.645   1.695
30379W        W  260  27.154  28.620   3.673
30380W        W  261  17.272  11.195  14.002
30381W        W  262  26.178  40.319  12.850
30382W        W  263  17.688  34.412   3.737
30383W        W  264  35.090  19.733   3.727
30384W        W  265   5.780  30.496   0.404
30385W        W  266  16.731  35.478  13.465
30386W        W  267  31.459  19.123   5.235
30387W        W  268   0.913  28.077  11.868
30388W        W  269  18.548  32.556   2.885
30389W        W  270  26.106  11.708  10.583
30390W        W  271  23.067   7.206  12.550
30391W        W  272  36.989  42.933  13.363
30392W        W  273  19.642  36.402   4.210
30393W        W  274  24.095  18.611  13.333
30394W        W  275  33.926  15.726   1.897
30395W        W  276  18.741  38.385  11.506
30396W        W  277  30.019   7.803  11.375
30397W        W  278   2.461   1.272   3.300
30398W        W  279  16.162  44.408   0.440
30399W        W  280  29.926  10.725   1.290
30400W        W  281   9.864  38.331   1.319
30401W        W  282  10.163  14.239  12.992
30402W        W  283  28.074   9.761   0.773
30403W        W  284  22.078  20.754  12.477
30404W        W  285  13.121  39.911   3.700
30405W        W  286   5.817  13.337   4.820
30406W        W  287   0.757   3.858  12.890
30407W        W  288  34.398  22.511   1.311
30408W        W  289  25.168  38.406  11.105
30409W        W  290  24.195  17.197  11.420
30410W        W  291  21.624  15.608   4.797
30411W        W  292  30.992  15.772  11.481
30412W        W  293  43.887  14.147  11.923
30413W        W  294  19.700  13.782  12.486
30414W        W  295  29.598  12.231  13.502
30415W        W  296  18.567   1.808   1.848
30416W        W  297  34.481  38.902  12.034
30417W        W  298  34.969   7.711   3.154
30418W        W  299   4.783  20.649   3.249
30419W        W  300  25.074  31.529   3.804
30420W        W  301   8.233  31.089   2.717
30421W        W  302  26.640  44.363  12.427
30422W        W  303   0.906  33.036   4.266
30423W        W  304  14.765  30.920  13.485
30424W        W  305  31.988   1.917  14.371
30425W        W  306  38.563  28.549   1.255
30426W        W  307  17.649   0.746  14.917
30427W        W  308  13.682  20.683   2.748
30428W        W  309  21.516  27.548  11.559
30429W        W  310  32.929  16.626  11.868
30430W        W  311  19.536   0.750  14.343
30431W        W  312  44.908  28.581   4.623
30432W        W  313  27.166  23.514  14.352
30433W        W  314  32.994  44.863   2.408
30434W        W  315  11.297   1.329  10.548
30435W        W  316  39.428  41.037  10.545
30436W        W  317  11.260   4.784  13.382
30437W        W  318  22.602  26.534  10.148
30438W        W  319  21.243  16.583   1.881
30439W        W  320  24.512  26.690   0.771
30440W        W  321   1.325   2.428   0.913
30441W        W  322  36.881  35.436   0.417
30442W        W  323   2.853   7.312  13.946
30443W        W  324  37.004  43.967  13.520
30444W        W  325  38.483  22.739  10.899
30445W        W  326  16.201  37.366   2.838
30446W        W  327  32.608  14.779   0.949
30447W        W  328   9.240  40.351   4.794
30448W        W  329  23.515  14.198  12.849
30449W        W  330   2.827  22.137   0.346
30450W        W  331  22.675   5.231  14.282
30451W        W  332  13.802  35.599  12.379
30452W        W  333  38.942  29.980  13.438
30453W        W  334  18.080   3.236   2.389
30454W        W  335  30.511   8.739  11.948
30455W        W  336  16.136  44.295  10.544
30456W        W  337  28.035  19.135   1.369
30457W        W  338   0.453   5.921  13.519
30458W        W  339  15.152  37.899  11.862
30459W        W  340  34.403   1.777  12.370
30460W        W  341  12.628  43.798  14.373
30461W        W  342  15.110   1.946  12.889
30462W        W  343  12.354  19.171   3.245
30463W        W  344  36.347  30.540  11.957
30464W        W  345   3.427  10.859  11.526
30465W        W  346  34.960  33.457   0.889
30466W        W  347  29.031  26.609   4.204
30467W        W  348   7.211  22.519   2.690
30468W        W  349  32.104   2.856   2.771
30469W        W  350  16.742  29.427   0.344
30470W        W  351   1.310   6.871   1.920
30471W        W  352  33.472  12.796  11.910
30472W        W  353  11.746  17.576  14.996
30473W        W  354  21.665   4.938   4.256
30474W        W  355   9.380   8.321  10.493
30475W        W  356  18.562   8.862   1.696
30476W        W  357  18.092  18.624  14.844
30477W        W  358  35.381  25.671   4.814
30478W        W  359  25.575   8.782  10.025
30479W        W  360  23.142  41.337  11.083
30480W        W  361  28.081  38.524  10.414
30481W        W  362  35.585  15.692   0.728
30482W        W  363  27.551  25.708  12.927
30483W        W  364  11.841  28.668  13.484
30484W        W  365  21.062  43.504   4.702
30485W        W  366  24.048  14.298   4.769
30486W        W  367  28.026  10.851   2.368
30487W        W  368  43.495  38.840  13.013
30488W        W  369  28.095  44.327   3.718
30489W        W  370   9.334  25.978   1.334
30490W        W  371  38.958  35.855   4.798
30491W        W  372   7.778   9.880   1.851
30492W        W  373  20.630  16.076  14.492
30493W        W  374  32.404  25.495   0.887
30494W        W  375  28.934  12.664  11.472
30495W        W  376   8.896  33.616   1.928
30496W        W  377   6.275  22.179   1.341
30497W        W  378  34.936   9.664  12.532
30498W        W  379   6.736   1.441  10.581
30499W        W  380  33.963  24.712  14.032
30500W        W  381  34.484  30.064   2.353
30501W        W  382  32.602  27.660  14.301
30502W        W  383  20.583  28.084  10.053
30503W        W  384  16.634   5.866   1.884
30504W        W  385  30.617  34.544   4.185
30505W        W  386  28.165  23.545   1.343
30506W        W  387  26.596  32.904  14.851
30507W        W  388   7.324  22.572   1.327
30508W        W  389  40.918  36.954   3.349
30509W        W  390  14.711  37.836   2.872
30510W        W  391  41.981  18.122  10.974
30511W        W  392   3.268   7.881   3.849
30512W        W  393  17.676  13.680   0.405
30513W        W  394  21.537   7.202   2.267
30514W        W  395  27.056   9.885  12.831
30515W        W  396   7.860  30.414  13.909
30516W        W  397  23.028  11.806   4.744
30517W        W  398  19.706  28.137  12.420
30518W        W  399   6.723  41.821  13.803
30519W        W  400  19.068  40.509   3.862
30520W        W  401   7.671  36.409  10.413
30521W        W  402  30.414  28.937   0.827
30522W        W  403   4.352  44.978  12.545
30523W        W  404  26.526  10.818  13.884
30524W        W  405  38.457  21.653  10.922
30525W        W  406  34.541  14.238  12.491
30526W        W  407  14.174  19.654   4.778
30527W        W  408  42.955   8.296  13.880
30528W        W  409   4.809  21.156  14.856
30529W        W  410  27.069  29.429   2.194
30530W        W  411  37.579   4.274  13.509
30531W        W  412  25.042  22.101   2.186
30532W        W  413  41.413  32.391  11.027
30533W        W  414  12.656   7.805   3.776
30534W        W  415  16.607  12.813  12.897
30535W        W  416  13.122  41.999  11.507
30536W        W  417  17.556  16.588  12.070
30537W        W  418  27.648  12.154   3.862
30538W        W  419   3.719  33.919  11.609
30539W        W  420  40.866   4.280  13.893
30540W        W  421   1.850  43.407  12.455
30541W        W  422  32.634  17.589   0.457
30542W        W  423   4.450  38.552  12.082
30543W        W  424  20.692   1.312   4.663
30544W        W  425   4.809   4.911   4.702
30545W        W  426  32.590  42.804   2.366
30546W        W  427  29.150   7.829   2.717
30547W        W  428  34.032  28.934   4.142
30548W        W  429   0.348   7.364   4.633
30549W        W  430  29.038  14.228   2.787
30550W        W  431  39.015  22.161  12.484
30551W        W  432  42.843  43.003   0.445
30552W        W  433  43.823  42.990   0.799
30553W        W  434  14.323  31.617   3.802
30554W        W  435  27.093   5.926  14.024
30555W        W  436  33.923   5.760  11.477
30556W        W  437  25.188  17.568   0.912
30557W        W  438  35.064  34.563  11.124
30558W        W  439  35.554  17.162   0.773
30559W        W  440   1.939   7.187   3.292
30560W        W  441  20.585  26.096  12.529
30561W        W  442   0.857  44.282   1.357
30562W        W  443   1.931  29.024  14.972
30563W        W  444  17.161  23.561  14.996
30564W        W  445   1.976  11.228   1.753
30565W        W  446  34.962  34.909  13.542
30566W        W  447   8.171   3.855  13.310
30567W        W  448  17.197  42.385   0.840
30568W        W  449  18.604  41.364   3.235
30569W        W  450  34.396   0.441   0.955
30570W        W  451  36.445  35.549   0.257
30571W        W  452  28.511  42.870   3.260
30572W        W  453  13.677  36.419  14.437
30573W        W  454  29.423  20.607  14.759
30574W        W  455  42.922   5.300   2.383
30575W        W  456  21.182  35.383   0.923
30576W        W  457  31.109  12.816  10.087
30577W        W  458  42.293  27.965  11.936
30578W        W  459  41.328  26.959  13.365
30579W        W  460   9.348  36.467   4.830
30580W        W  461   6.817  30.979  13.926
30581W        W  462  11.774   2.308  12.013
30582W        W  463  14.134  41.451  13.415
30583W        W  464  40.997  30.028   4.253
30584W        W  465  27.137  27.504   4.806
30585W        W  466  18.604  16.700   3.841
30586W        W  467  17.745  23.712  10.975
30587W        W  468   7.204  27.631   3.838
30588W        W  469  26.600  24.524   0.291
30589W        W  470  25.013  15.151   4.696
30590W        W  471  42.476  34.119  13.977
30591W        W  472  18.593  20.138  14.448
30592W        W  473  13.726  32.925   3.154
30593W        W  474  34.598  28.077  11.105
30594W        W  475  29.649  14.315  11.556
30595W        W  476  37.019  30.114  13.316
30596W        W  477  13.226   2.768  12.072
30597W        W  478   4.417   8.753  11.510
30598W        W  479  12.756  27.053  10.466
30599W        W  480  13.721  28.023  13.347
30600W        W  481  38.838   4.866  13.369
30601W        W  482   4.723  16.752   9.945
30602W        W  483  15.329  31.013   3.178
30603W        W  484  33.501  20.589   4.328
30604W        W  485   8.234  29.056  12.339
30605W        W  486   6.349  15.324  11.441
30606W        W  487  40.039  24.194  11.473
30607W        W  488   5.411  44.261   1.251
30608W        W  489  11.204   2.259   0.440
30609W        W  490  28.675  43.429  12.515
30610W        W  491  15.252  19.092   3.834
30611W        W  492  15.724   1.291  14.783
30612W        W  493  40.934  24.637  10.611
30613W        W  494  22.035   7.849  11.063
30614W        W  495  30.495  12.722  11.579
30615W        W  496  42.818  13.762  12.426
30616W        W  497  37.908  28.100  11.028
30617W        W  498  39.409  27.055  14.303
30618W        W  499   2.386   2.371  13.438
30619W        W  500  10.376  27.646  14.458
30620W        W  501  19.176  44.425  12.024
30621W        W  502  27.971   8.202  14.441
30622W        W  503  12.264   2.267  11.976
30623W        W  504  36.977  23.176   3.358
30624W        W  505  39.408   3.323  12.904
30625W        W  506  31.526  35.982  10.914
30626W        W  507  25.182   8.323  13.849
30627W        W  508  37.939   3.712   4.660
30628W        W  509  32.074  38.522  10.586
30629W        W  510  28.570  39.471   2.247
30630W        W  511  21.175   6.334  14.869
30631W        W  512  27.197  16.187   3.228
30632W        W  513   7.723  30.061   1.216
30633W        W  514   2.838  13.237  12.519
30634W        W  515  42.500  40.001  10.638
30635W        W  516  12.328  14.751   4.760
30636W        W  517   4.698  15.094   0.298
30637W        W  518  24.544   8.286   4.351
30638W        W  519  29.074  44.988   0.776
30639W        W  520  42.960  30.500  11.879
30640W        W  521  20.199   5.206  14.880
30641W        W  522  15.329   2.729  14.978
30642W        W  523  31.066  10.689   0.940
30643W        W  524  14.160  14.708   0.961
30644W        W  525  36.365  42.290   1.357
30645W        W  526  42.845   0.307  11.407
30646W        W  527  25.031  35.542   3.732
30647W        W  528  36.566  34.598   1.277
30648W        W  529   2.268  26.100  12.379
30649W        W  530   4.281  40.527   1.261
30650W        W  531  43.510  36.350   2.265
30651W        W  532  30.918   5.860   3.146
30652W        W  533  32.531  31.899  12.373
30653W        W  534  29.424  27.521   1.741
30654W        W  535  18.629   3.440  13.369
30655W        W  536  28.441  14.705  14.000
30656W        W  537   7.203  41.375  10.485
30657W        W  538  42.839  35.095   2.722
30658W        W  539   3.799  12.786  14.981
30659W        W  540  43.470  40.349   3.727
30660W        W  541  26.021  25.011   0.764
30661W        W  542  18.769  28.655   0.887
30662W        W  543   8.199  36.982   2.389
30663W        W  544  14.281   8.714   3.749
30664W        W  545  19.221  23.162   3.239
30665W        W  546  30.617   7.210  13.946
30666W        W  547   4.699  39.958   1.330
30667W        W  548  36.073  38.478  11.602
30668W        W  549   0.762  11.704   2.769
30669W        W  550  28.172  39.550  11.975
30670W        W  551  31.544  17.118  11.572
30671W        W  552  35.899  25.606   4.273
30672W        W  553  21.238  23.540   2.831
30673W        W  554  25.621  16.634   4.248
30674W        W  555  32.009  16.211  12.946
30675W        W  556   1.932  17.565   2.874
30676W        W  557  21.619  27.461  12.487
30677W        W  558   5.315  11.695  14.330
30678W        W  559  27.086  25.137  12.501
30679W        W  560  42.517  18.548   1.254
30680W        W  561   3.387  23.656   1.368
30681W        W  562   9.154  32.910  14.808
30682W        W  563  39.818   5.252  11.056
30683W        W  564  24.112  36.572  11.539
30684W        W  565  41.404  43.895  12.033
30685W        W  566  31.997   5.824  13.850
30686W        W  567   8.390  32.075   5.321
30687W        W  568  11.316   0.803   0.743
30688W        W  569   4.831   0.366  11.961
30689W        W  570  19.242  31.980   4.271
30690W        W  571   6.830   8.313   0.895
30691W        W  572  32.636  42.833  11.544
30692W        W  573   7.764  30.130  13.796
30693W        W  574  20.070  37.862   2.768
30694W        W  575   3.824  26.019   4.767
30695W        W  576  44.333  12.726  12.442
30696W        W  577   4.727  30.031  14.503
30697W        W  578  33.046  10.698   3.710
30698W        W  579  39.014  18.760   5.127
30699W        W  580  23.543  34.484  10.528
30700W        W  581  34.485  26.683   4.782
30701W        W  582  38.407  29.546  13.527
30702W        W  583  12.716  37.417  11.077
30703W        W  584   6.393  12.733  10.546
30704W        W  585   1.976  31.083   3.188
30705W        W  586  22.719   7.308   2.203
30706W        W  587  17.665  35.537   4.781
30707W        W  588  23.119  15.096  13.375
30708W        W  589  15.757  12.214  13.047
30709W        W  590  38.986  36.489   4.664
30710W        W  591  42.013  26.968   2.273
30711W        W  592  14.119  13.811  13.862
30712W        W  593   2.293  24.215   1.705
30713W        W  594  18.281   1.304  11.114
30714W        W  595  13.656  35.369  10.514
30715W        W  596  10.819  24.211  13.536
30716W        W  597  41.822  37.011   2.204
30717W        W  598   0.349  21.091   3.256
30718W        W  599  14.738   6.834   0.964
30719W        W  600  25.085  44.318  11.426
30720W        W  601   8.275  33.018   2.682
30721W        W  602  27.960  32.068   0.370
30722W        W  603  39.997   0.354   4.201
30723W        W  604  11.795  13.254   2.663
30724W        W  605  40.928   7.185   0.472
30725W        W  606  36.565  40.368   0.921
30726W        W  607  22.543  21.231  12.399
30727W        W  608  42.490   6.756  11.970
30728W        W  609  15.754   0.774  14.915
30729W        W  610  24.724  34.992  11.410
30730W        W  611   6.424  18.240  10.120
30731W        W  612   1.919  31.016  10.446
30732W        W  613  43.378  20.183   4.181
30733W        W  614  18.165  36.948  13.803
30734W        W  615  19.552  20.733  11.433
30735W        W  616  24.519   8.325  12.454
30736W        W  617  10.244  41.991   0.448
30737W        W  618  35.064  30.927  14.785
30738W        W  619  43.847  27.601   4.820
30739W        W  620  38.474  35.883  11.539
30740W        W  621  41.839  34.072  10.512
30741W        W  622  20.734   9.233   0.462
30742W        W  623  24.201  16.275   3.300
30743W        W  624  35.944  20.101  14.817
30744W        W  625  41.982   3.406   2.739
30745W        W  626  16.106  22.197   0.739
30746W        W  627  13.717   5.363   0.765
30747W        W  628  40.806   2.233   4.288
30748W        W  629  20.616  40.873  13.016
30749W        W  630  41.301  10.189  12.038
30750W        W  631  26.692  13.165   4.737
30751W        W  632  28.102  29.175  14.953
30752W        W  633  36.382  34.907   1.409
30753W        W  634  39.526  16.282   3.700
30754W        W  635   4.264   0.928   2.803
30755W        W  636  43.867   2.334  12.095
30756W        W  637  42.794  37.505  11.462
30757W        W  638  27.082   9.837   4.814
30758W        W  639  10.367  10.214   2.216
30759W        W  640   4.395  40.864   0.931
30760W        W  641   4.234  18.756   1.759
30761W        W  642  32.403  29.022   2.288
30762W        W  643   9.730  41.038   0.825
30763W        W  644  16.750  40.978   3.298
30764W        W  645  14.128   6.773   2.674
30765W        W  646  44.491   0.923  12.092
30766W        W  647  35.999  17.600  10.424
30767W        W  648   7.385  39.048  14.333
30768W        W  649   4.274   9.375   4.747
30769W        W  650   8.177  34.069  11.471
30770W        W  651   6.188  31.553   0.358
30771W        W  652  14.722  24.151   4.825
30772W        W  653  39.327  34.595  13.820
30773W        W  654   8.325  28.137   0.886
30774W        W  655   4.745   1.375  12.564
30775W        W  656  23.703  30.452  14.877
30776W        W  657  20.124   4.371   2.752
30777W        W  658  15.233  42.839   4.603
30778W        W  659   6.909  15.319  13.478
30779W        W  660  41.343  41.324  10.488
30780W        W  661  15.208  18.251   4.341
30781W        W  662  23.658   6.730   1.732
30782W        W  663  26.067  35.087  12.967
30783W        W  664  19.679  25.021   3.790
30784W        W  665  29.619  13.690  14.502
30785W        W  666   4.717  12.231  11.392
30786W        W  667  33.490  17.165   0.954
30787W        W  668  22.504   7.343   3.157
30788W        W  669  19.237  28.105   3.302
30789W        W  670  24.150   5.428   3.748
30790W        W  671   6.743   4.726   0.357
30791W        W  672  25.690  30.960   4.803
30792W        W  673  42.452  27.144   0.849
30793W        W  674  39.336  18.750   3.783
30794W        W  675  11.705  37.907  11.608
30795W        W  676  25.964   2.958  12.342
30796W        W  677   6.716  40.435   0.955
30797W        W  678  19.221  37.443   2.354
30798W        W  679  35.002  27.070   0.928
30799W        W  680  16.631  35.928  14.928
30800W        W  681  26.485  34.389   4.787
30801W        W  682  44.353  20.108  10.569
30802W        W  683  43.805  41.861  11.473
30803W        W  684  27.459  21.074  10.948
30804W        W  685  44.312   3.414  11.926
30805W        W  686  18.156  14.665  13.384
30806W        W  687  24.053   3.215  10.927
30807W        W  688  15.689   6.406   3.663
30808W        W  689   8.262  34.393   4.269
30809W        W  690  25.567   1.311   4.666
30810W        W  691  34.871   9.229  12.089
30811W        W  692   0.416  17.778  12.365
30812W        W  693  32.519  33.608  12.565
30813W        W  694  21.708  25.584  12.831
30814W        W  695  36.534   3.341   5.284
30815W        W  696  33.962  34.416  13.978
30816W        W  697  43.463  29.106  11.495
30817W        W  698  25.504   6.278  13.914
30818W        W  699  31.905  31.008   0.245
30819W        W  700   9.393  20.235   2.850
30820W        W  701  29.572  15.670  13.908
30821W        W  702   4.356  13.605   0.930
30822W        W  703   8.834  11.353  12.090
30823W        W  704  32.522  26.554   2.715
30824W        W  705  26.196  17.634  10.462
30825W        W  706  15.582  37.452  14.461
30826W        W  707  15.812  22.094   1.397
30827W        W  708  34.516  22.578  12.561
30828W        W  709  34.467   1.846  12.024
30829W        W  710  25.547  21.166   4.333
30830W        W  711  23.035  11.732   0.817
30831W        W  712  16.269  44.287   1.836
30832W        W  713  27.459  24.998   0.368
30833W        W  714  43.433  43.281   3.174
30834W        W  715   3.295  25.053  14.361
30835W        W  716   0.881  12.808  14.029
30836W        W  717  27.584  23.588  10.064
30837W        W  718  22.569  34.888  12.913
30838W        W  719  31.495  34.997  14.462
30839W        W  720  29.139  14.785  10.427
30840W        W  721  34.089  23.150  14.280
30841W        W  722  36.586  44.958   1.710
30842W        W  723  42.897  38.327  11.889
30843W        W  724  30.616  37.507   1.749
30844W        W  725  32.446  18.179   0.358
30845W        W  726   4.789   7.257  11.604
30846W        W  727  13.120   7.405   1.930
30847W        W  728  40.848   0.845   3.852
30848W        W  729  30.051  17.791   4.139
30849W        W  730  33.542  34.978  10.970
30850W        W  731  14.120   2.929   3.657
30851W        W  732  25.672  28.490  13.388
30852W        W  733  40.014  18.219  10.541
30853W        W  734  13.177  35.523  13.903
30854W        W  735  39.834  41.917   2.369
30855W        W  736  43.896  29.648  12.504
30856W        W  737   2.346  18.183  12.545
30857W        W  738   6.209  17.590  11.371
30858W        W  739  14.245  26.140  11.971
30859W        W  740  15.142  12.350   4.727
30860W        W  741   8.359  38.338   3.660
30861W        W  742   5.335  20.643   0.800
30862W        W  743  18.741  39.508   3.272
30863W        W  744  17.082  26.579  12.535
30864W        W  745   6.866   4.784   2.250
30865W        W  746  24.015  42.960  13.863
30866W        W  747  36.370  17.611  10.888
30867W        W  748  27.170   7.307  13.368
30868W        W  749  13.222  32.115  13.412
30869W        W  750  40.954  40.325   2.389
30870W        W  751  14.696  39.887   2.665
30871W        W  752   6.738  24.725  14.924
30872W        W  753  44.497   1.473  13.806
30873W        W  754  37.966  17.587  12.351
30874W        W  755   5.418  26.601   3.764
30875W        W  756  20.130  10.150   4.120
30876W        W  757  29.057  19.685   2.873
30877W        W  758  21.233   4.270   4.258
30878W        W  759  10.840  39.551  11.075
30879W        W  760  20.751  15.116   0.852
30880W        W  761  20.615  37.842   2.892
30881W        W  762  44.468  22.607   4.713
30882W        W  763  36.390  28.537  14.331
30883W        W  764   9.677   6.412   1.845
30884W        W  765  42.978   6.364   2.762
30885W        W  766  21.129  25.014  11.104
30886W        W  767  29.482  21.511   1.443
30887W        W  768  28.633  32.010   1.354
30888W        W  769   3.253  15.166   0.877
30889W        W  770  39.320   9.184   4.286
30890W        W  771   7.837   6.719  11.002
30891W        W  772  43.984  10.646   0.478
30892W        W  773   3.322  42.927   4.767
30893W        W  774  22.121  44.485  12.080
30894W        W  775  40.926  25.632  12.432
30895W        W  776  11.747  34.045  11.911
30896W        W  777  37.948  11.213   0.894
30897W        W  778  35.432  36.539   0.397
30898W        W  779  22.534  15.656   0.913
30899W        W  780  24.162  17.121   0.862
30900W        W  781   9.370  31.483   3.181
30901W        W  782  36.545  29.096  12.571
30902W        W  783   5.762  38.533  11.396
30903W        W  784   9.738  35.368   1.364
30904W        W  785  29.560  14.253   3.694
30905W        W  786   6.803  23.685   2.750
30906W        W  787  37.421   4.250  12.432
30907W        W  788  34.576  39.000  10.928
30908W        W  789  41.828  38.355  10.508
30909W        W  790  29.577  11.694  10.927
30910W        W  791   8.363  15.690  13.393
30911W        W  792  37.341  23.024   0.741
30912W        W  793  22.245  22.512  11.567
30913W        W  794  29.066   7.848   2.364
30914W        W  795  13.626  19.602  13.516
30915W        W  796  10.312   2.263   5.307
30916W        W  797  14.296  27.601  11.530
30917W        W  798   6.192  41.504  12.943
30918W        W  799  20.252  14.096  10.592
30919W        W  800  34.462  40.426   3.343
30920W        W  801  25.117   3.364  13.374
30921W        W  802   6.878   2.316   1.873
30922W        W  803  15.607  36.373   5.182
30923W        W  804  21.104  41.808   3.710
30924W        W  805  38.830  24.069  12.084
30925W        W  806  23.986   7.340  13.497
30926W        W  807  30.489  31.468   3.349
30927W        W  808   7.274  29.423  11.931
30928W        W  809  32.460  41.531   5.251
30929W        W  810  34.435  17.255  11.442
30930W        W  811  25.550   9.651  14.317
30931W        W  812  41.841  32.443   4.664
30932W        W  813   4.402  35.525  14.994
30933W        W  814   4.849  12.831   0.352
30934W        W  815  17.559   7.869   4.256
30935W        W  816  29.558  22.093   2.696
30936W        W  817  27.625  25.637  14.290
30937W        W  818  18.183   0.775  10.587
30938W        W  819  34.430  16.714  12.056
30939W        W  820  14.220  30.917  10.583
30940W        W  821  29.154  14.307   2.327
30941W        W  822  13.329  34.492   9.963
30942W        W  823  21.173  22.008  11.445
30943W        W  824  42.410  31.005  11.423
30944W        W  825  22.063   0.305   0.914
30945W        W  826  36.000  11.639  12.001
30946W        W  827  29.087   5.727   9.970
30947W        W  828  44.424  14.594  11.022
30948W        W  829  38.385   6.189  14.443
30949W        W  830  41.445  26.658  10.045
30950W        W  831  25.479   9.341   2.349
30951W        W  832  19.664  42.786  13.923
30952W        W  833  34.457  18.296  14.340
30953W        W  834  30.935  36.490   0.479
30954W        W  835  33.104   0.458  12.458
30955W        W  836  44.805  33.457   0.941
30956W        W  837  36.070  37.853  11.963
30957W        W  838  20.682  38.476   4.169
30958W        W  839  24.198  27.663   1.817
30959W        W  840   6.182   3.356  11.394
30960W        W  841   4.894  26.508   4.297
30961W        W  842  37.513  13.742  13.804
30962W        W  843  37.511   0.333   4.300
30963W        W  844  33.984  32.478   0.785
30964W        W  845  19.685  21.083  14.294
30965W        W  846  36.536  11.684   3.280
30966W        W  847  27.612  15.606   1.427
30967W        W  848  24.502  17.257  13.843
30968W        W  849  20.755  13.237  14.955
30969W        W  850  39.027  24.208  12.390
30970W        W  851  18.706  22.199   0.729
30971W        W  852  26.955  24.206   4.346
30972W        W  853   7.331  29.963   3.787
30973W        W  854   7.858  38.021  13.909
30974W        W  855  33.991  21.159  13.540
30975W        W  856   6.800   7.383   0.828
30976W        W  857  32.026  39.894   2.696
30977W        W  858   8.195   9.758  13.020
30978W        W  859  20.243  13.187  14.370
30979W        W  860  38.061  26.641  12.530
30980W        W  861  23.701  25.113  12.475
30981W        W  862  14.640  33.927   1.245
30982W        W  863  38.529  40.848  10.516
30983W        W  864   3.215  36.062  14.772
30984W        W  865   1.333  20.666  13.884
30985W        W  866  43.288  21.237   2.757
30986W        W  867  11.129  35.429  14.998
30987W        W  868  24.589  13.235  12.917
30988W        W  869  10.680  43.276  13.042
30989W        W  870  20.668   6.318   2.212
30990W        W  871   4.829  17.699  13.860
30991W        W  872  44.920  27.969  14.902
30992W        W  873   9.755  24.108   1.376
30993W        W  874  36.439   5.727   1.855
30994W        W  875  21.709  16.096  11.579
30995W        W  876   0.380  33.391  14.000
30996W        W  877  33.538  15.214  10.591
30997W        W  878  36.869  27.043  14.448
30998W        W  879  23.530  29.426   3.349
30999W        W  880  14.179  42.327  11.878
31000W        W  881  38.402  17.696  11.089
31001W        W  882  21.252  33.900   4.230
31002W        W  883  28.550  20.705   2.754
31003W        W  884  36.572  36.425  13.061
31004W        W  885  18.746  34.402  12.093
31005W        W  886  21.157  38.565   0.747
31006W        W  887  38.899  21.139   2.253
31007W        W  888  24.226  29.587  13.313
31008W        W  889  11.703   1.345  10.925
31009W        W  890   2.396  14.592  14.421
31010W        W  891  38.006   2.901   1.414
31011W        W  892  15.578  19.167   9.920
31012W        W  893   2.446  30.978  11.884
31013W        W  894   0.916  25.061  10.552
31014W        W  895  25.657   7.241  14.999
31015W        W  896  17.138  23.016  13.315
31016W        W  897  26.169  10.662   0.463
31017W        W  898  33.511  36.470   2.697
31018W        W  899  23.035  26.466   3.667
31019W        W  900   4.368  28.571   1.920
31020W        W  901  28.963  39.482   0.475
31021W        W  902  30.910  39.538  12.412
31022W        W  903  22.185  15.244   4.600
31023W        W  904  23.674  40.312   3.819
31024W        W  905  28.003  22.038  11.043
31025W        W  906  12.303  43.297   0.392
31026W        W  907  17.117  24.628   4.319
31027W        W  908  19.174  36.483   0.390
31028W        W  909  27.077   0.306   1.816
31029W        W  910   7.726  24.552  12.932
31030W        W  911  17.221  21.075   2.316
31031W        W  912  11.159  17.111  13.938
31032W        W  913   9.158  38.075  13.842
31033W        W  914   6.758  18.689  13.476
31034W        W  915  33.581  33.969  13.543
31035W        W  916   0.370  21.168  12.966
31036W        W  917  32.400  13.803   3.755
31037W        W  918   5.768  18.574  14.320
31038W        W  919   1.958  11.768  10.530
31039W        W  920  28.495  22.590   2.665
31040W        W  921  33.984  28.029  13.028
31041W        W  922   7.882  41.341  11.072
31042W        W  923  34.900  20.665   0.911
31043W        W  924  34.025  13.779  11.581
31044W        W  925   8.786  36.389   0.810
31045W        W  926  13.311  13.109   2.676
31046W        W  927  25.513  38.436   1.792
31047W        W  928  38.342  19.150  11.439
31048W        W  929  15.676   3.460  10.159
31049W        W  930  20.111  44.936  14.904
31050W        W  931  13.826  44.476   0.465
31051W        W  932  12.204  42.383   3.291
31052W        W  933  40.932  13.128  13.493
31053W        W  934  23.006   6.363  13.861
31054W        W  935  18.714   0.443  11.882
31055W        W  936  44.441  27.964  11.395
31056W        W  937  18.089  44.791   2.378
31057W        W  938  25.487  23.994  11.893
31058W        W  939  35.517  20.106   3.826
31059W        W  940  43.790  35.929   1.716
31060W        W  941  14.216  38.963  11.508
31061W        W  942   6.201  23.082  11.015
31062W        W  943   6.741  32.044   0.284
31063W        W  944  38.419  16.276  13.450
31064W        W  945  13.293  41.329  10.046
31065W        W  946  32.984  43.845   2.380
31066W        W  947   1.759  17.255  10.445
31067W        W  948  11.842  36.453   4.325
31068W        W  949  37.998  23.534  14.478
31069W        W  950   6.307  17.146  10.594
31070W        W  951   1.788  10.164  13.943
31071W        W  952  38.920  40.999   3.261
31072W        W  953  44.790  36.844  13.895
31073W        W  954  30.952  42.332  12.531
31074W        W  955  23.693  34.582   3.210
31075W        W  956   0.947  43.879   3.826
31076W        W  957  40.363   6.728  14.379
31077W        W  958  24.644  34.512  11.954
31078W        W  959   2.861  26.132  14.013
31079W        W  960  27.577  14.300   4.615
31080W        W  961  36.038  29.509   4.784
31081W        W  962  32.618  15.744   1.278
31082W        W  963  38.989  40.008  13.934
31083W        W  964  22.183  11.266   0.381
31084W        W  965   3.300  41.471   4.197
31085W        W  966  41.497  32.981  14.829
31086W        W  967  30.026  10.316  12.573
31087W        W  968  30.158  15.712   0.910
31088W        W  969  12.338  15.645   4.163
31089W        W  970   2.456  42.503  12.461
31090W        W  971  10.345   3.303   2.838
31091W        W  972  42.907   5.290   0.400
31092W        W  973  38.965  41.305   0.282
31093W        W  974  33.042   0.753  13.377
31094W        W  975  43.010  40.494   0.839
31095W        W  976  30.150  14.208  11.923
31096W        W  977  23.704  29.636   2.238
31097W        W  978  18.693  11.686  12.435
31098W        W  979  12.255  39.476  10.445
31099W        W  980  18.599   3.301  11.590
31100W        W  981   1.742  31.998  14.432
31101W        W  982  18.768  22.600   0.853
31102W        W  983  23.130  15.245  14.960
31103W        W  984  38.998  13.685   4.228
31104W        W  985  21.618  12.754  11.513
31105W        W  986  24.136  34.968  11.984
31106W        W  987  17.750  21.728   4.349
31107W        W  988   4.755   5.862   4.667
31108W        W  989  15.157  17.720  14.924
31109W        W  990   1.848  25.561   3.258
31110W        W  991  30.070  25.187  11.568
31111W        W  992  33.996  40.980  12.405
31112W        W  993  32.572  28.154  13.009
31113W        W  994  38.946  44.489  13.918
31114W        W  995  36.564  18.227   2.740
31115W        W  996   2.964  17.255   2.299
31116W        W  997  24.564  41.384  11.079
31117W        W  998  37.456  17.291   4.627
31118W        W  999  43.871   2.434  13.912
31119W        W 1000   5.264  34.465   0.462
31120W        W 1001  19.656  27.961   4.270
31121W        W 1002  41.439  40.311   2.223
31122W        W 1003   5.312   3.797   3.371
31123W        W 1004   1.441  23.001  11.944
31124W        W 1005   1.830   9.827  11.126
31125W        W 1006  22.036  39.503   4.134
31126W        W 1007  19.542  30.559   1.935
31127W        W 1008  34.382  26.164  14.372
31128W        W 1009  13.622   3.857  12.062
31129W        W 1010  16.104  24.519   1.431
31130W        W 1011  20.685  33.616  11.953
31131W        W 1012  18.683  38.017  11.441
31132W        W 1013  17.299  26.146   2.208
31133W        W 1014   7.734  29.550  13.504
31134W        W 1015  15.328   5.702   1.794
31135W        W 1016  43.456  13.778   4.802
31136W        W 1017  38.031  17.611   0.482
31137W        W 1018  32.142   2.933   3.752
31138W        W 1019  15.759  43.809  12.543
31139W        W 1020   2.320  26.074   0.757
31140W        W 1021  34.924   9.754  10.974
31141W        W 1022   9.887  43.448  14.512
31142W        W 1023  11.143  42.030   1.227
31143W        W 1024  28.025   1.270   1.410
31144W        W 1025  20.603  40.837  10.461
31145W        W 1026   9.169  43.878   1.310
31146W        W 1027  21.735  20.116  14.288
31147W        W 1028   3.928   1.245   3.213
31148W        W 1029  16.669  15.677   1.933
31149W        W 1030  29.665  37.010  11.876
31150W        W 1031  35.479  30.521   1.892
31151W        W 1032  26.588   7.879   1.697
31152W        W 1033  21.257   3.888   3.760
31153W        W 1034  40.310  39.999  11.509
31154W        W 1035  36.550  23.192  12.992
31155W        W 1036   9.764  25.584   2.360
31156W        W 1037  27.575  17.301  13.040
31157W        W 1038  24.591  28.616  13.814
31158W        W 1039  35.056  28.181  14.317
31159W        W 1040   7.676  31.072   3.191
31160W        W 1041  12.628  30.599  10.614
31161W        W 1042  24.485   9.153  10.577
31162W        W 1043  38.836  19.711  14.295
31163W        W 1044   7.255  21.079  11.527
31164W        W 1045  14.181   9.802   4.191
31165W        W 1046  21.029  22.554  10.491
31166W        W 1047  30.990   3.241  12.481
31167W        W 1048  36.581   7.330  14.324
31168W        W 1049  37.087  37.547   1.899
31169W        W 1050   6.742  30.910   0.891
31170W        W 1051   9.184  21.066   1.884
31171W        W 1052  22.725  29.576  14.948
31172W        W 1053   8.699  30.418  14.959
31173W        W 1054   3.446  14.173  14.860
31174W        W 1055   0.901  19.043   1.899
31175W        W 1056  33.092  30.532   2.824
31176W        W 1057  24.994   6.230   0.336
31177W        W 1058  36.458   3.735  14.331
31178W        W 1059  16.143  27.969   2.280
31179W        W 1060  24.565  29.524   3.710
31180W        W 1061  41.443   1.341   2.719
31181W        W 1062   1.737  37.460  13.049
31182W        W 1063   8.369  32.484  11.923
31183W        W 1064  24.026  43.311   4.309
31184W        W 1065  41.942   7.274  14.925
31185W        W 1066  36.581  14.824   4.745
31186W        W 1067  39.555   6.407   1.445
31187W        W 1068  21.206  38.438  14.478
31188W        W 1069  26.534  34.031  12.877
31189W        W 1070  22.156  17.625  12.485
31190W        W 1071  39.409   8.168  14.316
31191W        W 1072  30.163   7.788   4.775
31192W        W 1073  43.392   5.815   3.678
31193W        W 1074  43.364  43.378   2.677
31194W        W 1075   3.333  40.327  12.043
31195W        W 1076  38.496  41.373   4.265
31196W        W 1077  41.797  35.926  12.848
31197W        W 1078   6.225  37.058  10.480
31198W        W 1079   1.847  25.592   4.728
31199W        W 1080  40.819  26.490   0.440
31200W        W 1081   8.777  43.336   0.935
31201W        W 1082  42.517   3.219   1.405
31202W        W 1083  30.973  14.700   3.370
31203W        W 1084  29.627  31.050   2.410
31204W        W 1085  14.167  19.678  12.431
31205W        W 1086  29.096   4.883  10.454
31206W        W 1087  16.156   0.473   2.874
31207W        W 1088  26.666  21.580   0.846
31208W        W 1089  42.514  44.835   2.751
31209W        W 1090   5.237  27.107   4.628
31210W        W 1091  23.645  10.687  11.085
31211W        W 1092  32.970  38.037   4.764
31212W        W 1093   6.740  14.313   4.137
31213W        W 1094   6.220  27.077  12.495
31214W        W 1095   4.380   6.743   0.335
31215W        W 1096  31.946  21.112  13.383
31216W        W 1097  24.087  42.387   1.780
31217W        W 1098  36.423  29.573  10.600
31218W        W 1099   0.249  35.913   4.715
31219W        W 1100  15.126  28.961  10.524
31220W        W 1101  12.229   9.683  12.988
31221W        W 1102   7.376  33.384   4.721
31222W        W 1103  30.964  18.090  10.108
31223W        W 1104   9.155   1.859  14.986
31224W        W 1105  33.609  44.754   3.815
31225W        W 1106  11.740  32.063   4.132
31226W        W 1107  27.616   1.765   0.930
31227W        W 1108  25.166  40.020  13.435
31228W        W 1109  15.688  34.493   0.351
31229W        W 1110  32.011  40.001   3.773
31230W        W 1111   5.890  25.020  12.839
31231W        W 1112   7.241  33.063   4.826
31232W        W 1113  29.437  34.388   2.237
31233W        W 1114  23.645  12.697  14.822
31234W        W 1115   6.814   7.389  10.588
31235W        W 1116   3.873  26.691  10.037
31236W        W 1117   4.805  15.282  11.111
31237W        W 1118  18.259  12.808   3.274
31238W        W 1119  34.604  16.162   3.159
31239W        W 1120   6.379  21.612   4.348
31240W        W 1121  33.029  16.769  10.045
31241W        W 1122  40.913  26.483  12.443
31242W        W 1123  23.685  22.565  11.378
31243W        W 1124  16.222  11.324   2.348
31244W        W 1125  25.077  14.211  12.897
31245W        W 1126  42.386  11.267   3.777
31246W        W 1127  22.507  16.079   3.689
31247W        W 1128   1.280   5.306   3.345
31248W        W 1129  23.221  43.453  12.866
31249W        W 1130  32.450  37.487   1.893
31250W        W 1131  18.570   4.412   1.888
31251W        W 1132  31.558  29.498  12.341
31252W        W 1133   5.432   1.305  10.428
31253W        W 1134  43.415  33.421   4.306
31254W        W 1135   2.751  33.500  13.927
31255W        W 1136  37.440  25.078   3.760
31256W        W 1137  23.151  26.620  14.490
31257W        W 1138  27.052   2.392   2.228
31258W        W 1139  34.939  18.647   4.290
31259W        W 1140  12.635  27.033  12.380
31260W        W 1141  32.085  27.540  14.334
31261W        W 1142  10.682  32.101   2.680
31262W        W 1143  27.676  16.785   2.317
31263W        W 1144  25.130  26.181   2.215
31264W        W 1145  36.031  30.558  13.937
31265W        W 1146  36.979  21.058   4.278
31266W        W 1147   7.185  36.066   3.799
31267W        W 1148  10.676  13.809   0.481
31268W        W 1149  20.659   2.316   4.785
31269W        W 1150  38.970  37.417  14.992
31270W        W 1151  35.896  10.862   1.398
31271W        W 1152  10.255   3.768   2.892
31272W        W 1153  31.622   7.377   4.756
31273W        W 1154   3.950  39.910  11.542
31274W        W 1155  19.667   6.263  14.290
31275W        W 1156  10.240  13.159  11.493
31276W        W 1157  40.020  13.253  12.343
31277W        W 1158   3.743  31.002   0.467
31278W        W 1159  31.046   2.467   2.351
31279W        W 1160  35.065  15.677  14.278
31280W        W 1161   6.812   7.304   2.351
31281W        W 1162  26.636  20.618  10.587
31282W        W 1163  16.227   4.843   3.680
31283W        W 1164  34.871  12.754   1.258
31284W        W 1165  38.957  34.549   4.198
31285W        W 1166  43.353  34.404  11.399
31286W        W 1167  10.207  19.223  10.610
31287W        W 1168  13.151  14.139   3.238
31288W        W 1169  25.968  30.164  12.921
31289W        W 1170  40.354   1.444   2.858
31290W        W 1171  31.980   7.777  11.899
31291W        W 1172   3.305   4.722   4.190
31292W        W 1173  34.927  44.780  14.967
31293W        W 1174  29.958   2.793  14.515
31294W        W 1175   9.789  42.794   2.749
31295W        W 1176  25.588  12.322  13.336
31296W        W 1177  32.065  24.095   2.399
31297W        W 1178  14.153  10.842   4.826
31298W        W 1179  43.903  30.952   3.641
31299W        W 1180  44.355  38.436   2.901
31300W        W 1181  16.591  14.172  12.510
31301W        W 1182   1.250  15.641   4.606
31302W        W 1183  14.726  40.416   0.325
31303W        W 1184  35.004  19.269   3.719
31304W        W 1185   1.446  23.524   1.914
31305W        W 1186  13.246  14.687   0.459
31306W        W 1187  14.624   7.881  12.562
31307W        W 1188  33.527  43.509   3.798
31308W        W 1189  30.541  37.337  11.548
31309W        W 1190  15.650  41.034   2.729
31310W        W 1191  36.356  24.493  12.456
31311W        W 1192  25.008  16.211  14.500
31312W        W 1193  44.918  29.060  14.497
31313W        W 1194  34.894  24.598   4.610
31314W        W 1195   7.281  43.935  10.941
31315W        W 1196   8.341   0.459   4.344
31316W        W 1197   3.459  38.398  11.896
31317W        W 1198   4.888  18.088   1.876
31318W        W 1199  37.445  18.562  12.431
31319W        W 1200  18.127  36.947  13.026
31320W        W 1201  13.298  17.755   2.397
31321W        W 1202  44.463  13.637  12.420
31322W        W 1203  34.039  17.566  11.373
31323W        W 1204   9.719  39.370   1.818
31324W        W 1205  26.701  28.564  13.380
31325W        W 1206  17.724   0.485  14.833
31326W        W 1207  34.563  31.571   1.820
31327W        W 1208  22.110  32.013   1.860
31328W        W 1209  12.161   4.836   1.333
31329W        W 1210  26.554  29.098   4.230
31330W        W 1211   5.916  35.580   4.598
31331W        W 1212  32.938  31.640  10.545
31332W        W 1213  16.136  30.031   3.666
31333W        W 1214  27.113  26.649  11.447
31334W        W 1215  29.017   5.323  11.876
31335W        W 1216  26.181  12.341  13.837
31336W        W 1217  37.411  34.032  14.002
31337W        W 1218  19.688  33.072  13.969
31338W        W 1219   2.410   8.286  14.401
31339W        W 1220  23.207   9.394   4.289
31340W        W 1221  28.144   0.973   1.816
31341W        W 1222   6.239   6.185   4.271
31342W        W 1223  29.618  36.954   4.613
31343W        W 1224  17.294   3.384  13.015
31344W        W 1225   8.842  31.611   4.131
31345W        W 1226  17.572   3.367  13.396
31346W        W 1227   2.277   7.736  14.807
31347W        W 1228  18.721  36.482  11.462
31348W        W 1229  37.343  24.509  13.342
31349W        W 1230  41.811  28.016   0.773
31350W        W 1231  16.689  18.186   1.742
31351W        W 1232   3.441   7.798  11.869
31352W        W 1233   9.811  43.400  11.438
31353W        W 1234  23.032  12.162  14.819
31354W        W 1235  36.098  39.851   3.254
31355W        W 1236   6.888  41.518   4.821
31356W        W 1237  37.509  41.844  11.894
31357W        W 1238  28.583  30.012   2.402
31358W        W 1239   6.804  22.641  14.002
31359W        W 1240  25.097  15.092   0.370
31360W        W 1241  26.500  35.038   0.918
31361W        W 1242  38.560  13.291   1.360
31362W        W 1243   9.370  23.042   0.895
31363W        W 1244  27.559  16.688  12.847
31364W        W 1245  20.193   8.277  13.376
31365W        W 1246  39.037   0.378  14.437
31366W        W 1247   6.369  32.411   0.832
31367W        W 1248  16.624  39.502   2.201
31368W        W 1249   8.663  43.320  13.323
31369W        W 1250  18.097  43.856   2.757
31370W        W 1251  43.391  33.380  12.884
31371W        W 1252  16.730  33.539  14.475
31372W        W 1253  32.549  21.056   4.697
31373W        W 1254   1.965  33.450   4.174
31374W        W 1255  27.680  35.476   2.704
31375W        W 1256  36.849  27.143   2.239
31376W        W 1257  40.384  42.985   1.410
31377W        W 1258  19.699   4.240   2.237
31378W        W 1259  33.386   5.374  11.864
31379W        W 1260  15.584  11.773   2.311
31380W        W 1261   7.369  25.628   2.399
31381W        W 1262  25.489   7.836  12.027
31382W        W 1263  20.537  25.470  11.861
31383W        W 1264  19.688  35.960   2.855
31384W        W 1265  27.682   5.375   3.211
31385W        W 1266  27.447  43.484   3.650
31386W        W 1267  40.308   4.914   3.336
31387W        W 1268  17.722   2.425  14.275
31388W        W 1269  37.936  12.783  14.429
31389W        W 1270   8.704   9.368   2.208
31390W        W 1271  14.616  30.050   2.883
31391W        W 1272  30.649  13.769   1.808
31392W        W 1273  31.147  24.055   3.712
31393W        W 1274  26.091  40.461   4.337
31394W        W 1275   1.395  37.949   1.831
31395W        W 1276  27.197  17.155   1.727
31396W        W 1277   5.205  28.044   0.762
31397W        W 1278   6.826  40.468   0.323
31398W        W 1279  24.108  11.744   5.242
31399W        W 1280  25.509  13.704  11.114
31400W        W 1281   7.886  10.694  11.394
31401W        W 1282   6.248   5.709  12.457
31402W        W 1283  42.343  39.904   1.253
31403W        W 1284  33.940  40.957  13.349
31404W        W 1285  26.095  27.052   1.755
31405W        W 1286   7.196   2.272   3.677
31406W        W 1287  26.205   2.415   4.200
31407W        W 1288   8.664  16.672   4.145
31408W        W 1289  21.526  16.152   3.336
31409W        W 1290  35.427  27.973  11.392
31410W        W 1291  30.097  21.208   2.732
31411W        W 1292   5.770   1.765   0.348
31412W        W 1293  40.475  43.463  12.938
31413W        W 1294  24.615  13.607   3.381
31414W        W 1295  41.481  31.623   2.769
31415W        W 1296  21.531  25.686  12.560
31416W        W 1297  43.493  32.513  11.073
31417W        W 1298  39.366  27.073   4.610
31418W        W 1299   0.472  25.174   2.763
31419W        W 1300  28.954  14.759   1.447
31420W        W 1301  31.619  21.191  12.454
31421W        W 1302  35.511  36.849  12.940
31422W        W 1303  14.607  36.428  14.796
31423W        W 1304   0.265   3.929  12.354
31424W        W 1305  40.870  14.633  12.365
31425W        W 1306   2.862   1.971  13.477
31426W        W 1307   8.396  33.085  13.976
31427W        W 1308  22.732  23.003  11.404
31428W        W 1309  32.636  25.968   4.124
31429W        W 1310  35.575  28.616  12.052
31430W        W 1311  42.362  35.508   4.637
31431W        W 1312  31.932  18.245   4.298
31432W        W 1313  24.721  43.459   2.849
31433W        W 1314   6.327  44.860   3.165
31434W        W 1315  15.113  31.108   4.328
31435W        W 1316  27.099   0.345   2.293
31436W        W 1317  29.977  21.704  14.001
31437W        W 1318  11.146  25.478   4.189
31438W        W 1319  27.632  40.875   2.244
31439W        W 1320   2.294  22.144   4.238
31440W        W 1321  39.335  24.648   2.216
31441W        W 1322   5.707  37.909  14.801
31442W        W 1323   3.375   1.959  11.568
31443W        W 1324  30.946  31.560   0.917
31444W        W 1325  27.175  29.612   0.862
31445W        W 1326  43.857  24.051  13.847
31446W        W 1327  35.482  44.916  10.559
31447W        W 1328   4.448  18.766  12.016
31448W        W 1329  18.167  28.111   1.699
31449W        W 1330  19.107  17.614   1.754
31450W        W 1331  38.829  29.079   2.718
31451W        W 1332   4.209  30.478   0.955
31452W        W 1333  31.616  43.831   4.662
31453W        W 1334   8.376   3.713   2.787
31454W        W 1335   8.871  39.509  14.860
31455W        W 1336  13.702   0.928   2.885
31456W        W 1337   9.159   7.749  10.935
31457W        W 1338  11.690  37.861  11.897
31458W        W 1339  10.748  27.114  12.934
31459W        W 1340  37.879  19.057  14.466
31460W        W 1341  42.369  25.548  14.283
31461W        W 1342  27.611  14.617   2.234
31462W        W 1343  18.719   5.875   2.888
31463W        W 1344  29.967  26.091  13.409
31464W        W 1345   1.838   8.780   3.807
31465W        W 1346  27.577   9.745   1.405
31466W        W 1347   1.411  34.082   0.791
31467W        W 1348  15.586   2.882   1.222
31468W        W 1349  30.115  41.476   2.903
31469W        W 1350  39.354  34.118  13.492
31470W        W 1351  18.571  40.937   3.200
31471W        W 1352  25.509  27.524  13.806
31472W        W 1353  27.655  23.583   1.402
31473W        W 1354  20.560  23.099   3.321
31474W        W 1355  27.155  28.947   4.343
31475W        W 1356  39.434  32.556   1.842
31476W        W 1357  19.042   4.712   3.159
31477W        W 1358  23.560   6.219   1.323
31478W        W 1359  32.541   5.829  11.045
31479W        W 1360   7.415  30.626   2.415
31480W        W 1361  12.617  17.260   2.284
31481W        W 1362  35.600   0.840   1.278
31482W        W 1363  42.397  39.368   0.887
31483W        W 1364   0.896  30.562  12.968
31484W        W 1365  26.082  33.029  10.630
31485W        W 1366  30.437  33.551   0.845
31486W        W 1367   1.269  30.981  12.965
31487W        W 1368  13.146  23.688   1.894
31488W        W 1369  22.230  22.052   0.753
31489W        W 1370   2.897  28.513   1.291
31490W        W 1371  41.386  24.588   0.456
31491W        W 1372   0.409  21.528  10.410
31492W        W 1373  12.146  19.194   2.397
31493W        W 1374  33.018  15.597  12.364
31494W        W 1375  33.902   5.300   0.755
31495W        W 1376   4.230   0.795  13.390
31496W        W 1377  22.701  14.699   2.339
31497W        W 1378   6.912  13.114   0.913
31498W        W 1379  24.048  35.570   0.326
31499W        W 1380  17.141  32.071  13.522
31500W        W 1381   4.213  18.625  10.625
31501W        W 1382  28.079  11.649   0.453
31502W        W 1383  26.058  33.471   3.685
31503W        W 1384  25.489   4.767   0.865
31504W        W 1385   4.734  30.643  10.452
31505W        W 1386  19.285   1.782  14.344
31506W        W 1387  31.101  34.052   2.198
31507W        W 1388  22.142  42.369  14.275
31508W        W 1389  12.657   3.783   2.707
31509W        W 1390  42.797  37.881  11.601
31510W        W 1391  35.075  17.239   1.725
31511W        W 1392  21.132   1.867  13.897
31512W        W 1393   0.846  29.031  10.919
31513W        W 1394  12.205  44.901  12.932
31514W        W 1395  39.021  41.019  12.536
31515W        W 1396  28.999  10.638  11.580
31516W        W 1397  40.374  23.227   0.890
31517W        W 1398  31.119  24.590  13.438
31518W        W 1399  32.527  39.483   2.817
31519W        W 1400  21.609  38.023  12.426
31520W        W 1401   2.382   0.448  13.505
31521W        W 1402  16.701  38.880  14.967
31522W        W 1403  39.369  16.809   3.214
31523W        W 1404  11.223   2.966  13.358
31524W        W 1405  36.966  30.466   2.404
31525W        W 1406  25.072   2.434   0.944
31526W        W 1407  40.334  29.516   1.770
31527W        W 1408  14.230  34.426  12.876
31528W        W 1409  37.927  35.418  11.024
31529W        W 1410  11.722  14.116  14.960
31530W        W 1411  33.380  25.038  10.534
31531W        W 1412  40.408  23.013  14.982
31532W        W 1413  22.156   3.423   4.142
31533W        W 1414   8.353  38.019  11.399
31534W        W 1415  44.859  27.129   3.227
31535W        W 1416  37.981  11.372   3.853
31536W        W 1417  25.005  28.515  13.540
31537W        W 1418  10.246  36.031   5.273
31538W        W 1419   8.709  27.652   4.156
31539W        W 1420  20.067   5.249   4.177
31540W        W 1421  30.945   7.847  12.862
31541W        W 1422  15.163  27.631  14.482
31542W        W 1423   4.218  41.447   1.237
31543W        W 1424  25.589   5.740   2.228
31544W        W 1425  14.706  44.829  12.351
31545W        W 1426  12.799  39.848  13.373
31546W        W 1427  24.710  15.824  13.033
31547W        W 1428  20.191  22.045   1.287
31548W        W 1429  28.158   6.753  10.603
31549W        W 1430  35.006   0.415   3.782
31550W        W 1431  24.664  34.984   3.790
31551W        W 1432  11.667  37.071   4.288
31552W        W 1433  35.369  24.030   4.283
31553W        W 1434   1.355  31.142   1.381
31554W        W 1435  15.232   6.748   2.865
31555W        W 1436  33.458  31.069   2.357
31556W        W 1437   8.264   3.725   4.825
31557W        W 1438  11.760   1.429  11.599
31558W        W 1439  25.588   4.844   1.820
31559W        W 1440  20.688  29.529  14.768
31560W        W 1441  33.022  34.867   3.858
31561W        W 1442  23.997  26.997  14.972
31562W        W 1443   2.941  23.065   0.306
31563W        W 1444   8.756  35.077  10.455
31564W        W 1445   5.797  44.769   2.400
31565W        W 1446  21.731  28.939   9.999
31566W        W 1447  22.235  29.590  14.860
31567W        W 1448  27.553   9.329   1.734
31568W        W 1449  31.068  21.207  13.993
31569W        W 1450  26.581  11.756  10.494
31570W        W 1451   8.885  26.500   0.472
31571W        W 1452  34.003  12.848   2.716
31572W        W 1453  22.645  36.417  10.538
31573W        W 1454  31.627  15.202  12.081
31574W        W 1455  19.144   6.274   3.684
31575W        W 1456  12.772  20.181  13.506
31576W        W 1457   8.766  24.054   1.340
31577W        W 1458  42.831  42.379   0.873
31578W        W 1459   1.897  32.075  11.912
31579W        W 1460  30.628  14.687  11.408
31580W        W 1461  15.196  23.690   1.255
31581W        W 1462  27.955   1.259  13.879
31582W        W 1463  27.023  34.942   0.914
31583W        W 1464  33.027  16.210  12.454
31584W        W 1465  39.837  14.193  12.984
31585W        W 1466  20.529  10.798   2.239
31586W        W 1467  43.364  24.704  14.983
31587W        W 1468  44.822  20.530  13.007
31588W        W 1469  13.676  37.345   0.413
31589W        W 1470  24.498  25.672  11.861
31590W        W 1471  44.498  17.256   1.876
31591W        W 1472  17.737  28.612  11.918
31592W        W 1473  15.708  34.595   2.833
31593W        W 1474   5.751   5.195   3.662
31594W        W 1475  19.045  30.589   2.764
31595W        W 1476  34.488   4.872   3.673
31596W        W 1477  19.195  32.536   1.445
31597W        W 1478  12.840  31.478   0.362
31598W        W 1479  20.127  36.099   0.415
31599W        W 1480  14.208  13.633  13.309
31600W        W 1481   5.206  36.013  12.404
31601W        W 1482  20.605  31.412  11.892
31602W        W 1483  35.015  25.028  12.377
31603W        W 1484  44.259  37.015   0.458
31604W        W 1485  18.088   1.911  12.080
31605W        W 1486   2.960  19.649  12.033
31606W        W 1487  32.012  18.631   3.294
31607W        W 1488  20.754   6.246   1.733
31608W        W 1489  40.027  40.989  14.823
31609W        W 1490   7.794  42.428  13.541
31610W        W 1491   4.300   2.351  12.069
31611W        W 1492   2.839  33.572  11.123
31612W        W 1493  14.314  12.617   3.687
31613W        W 1494   7.219   6.254   0.420
31614W        W 1495  37.499  31.608  13.501
31615W        W 1496  10.352  11.129  14.957
31616W        W 1497  24.057  42.028   1.413
31617W        W 1498  20.255  15.773   9.934
31618W        W 1499  16.694  34.390  12.055
31619W        W 1500  20.724   1.288   0.316
31620W        W 1501  29.634  16.105  14.457
31621W        W 1502  44.853  22.711   4.271
31622W        W 1503  42.341   2.890  13.964
31623W        W 1504  28.553  36.098   2.777
31624W        W 1505  39.949  19.648   4.713
31625W        W 1506  36.025  34.927   0.321
31626W        W 1507  11.259  44.811  13.849
31627W        W 1508  23.608  29.602  10.915
31628W        W 1509  19.534   5.231   3.709
31629W        W 1510   5.300  38.877  12.416
31630W        W 1511  14.178  10.733   1.706
31631W        W 1512  38.407  39.409  12.929
31632W        W 1513  22.611  14.282   4.821
31633W        W 1514  42.320  12.333  14.483
31634W        W 1515  12.340  36.896  11.435
31635W        W 1516   2.228  41.798   1.253
31636W        W 1517  11.177   7.730  13.463
31637W        W 1518   1.775   9.170  11.890
31638W        W 1519  44.849  44.368  14.853
31639W        W 1520  14.700  32.608  14.772
31640W        W 1521   1.889  32.489   0.930
31641W        W 1522  16.727  17.567  10.620
31642W        W 1523   0.883  30.448   0.877
31643W        W 1524  13.173  10.712   1.728
31644W        W 1525  42.982  28.609   4.735
31645W        W 1526  41.040  33.119  14.404
31646W        W 1527  20.711   8.292   3.704
31647W        W 1528  40.878  12.189   2.684
31648W        W 1529  41.516  26.472  13.816
31649W        W 1530  41.462  14.833  10.959
31650W        W 1531  15.187  26.152   2.736
31651W        W 1532  28.626  20.190   1.210
31652W        W 1533  22.153   7.173  12.962
31653W        W 1534  39.426  36.559  10.565
31654W        W 1535   3.812   1.934   0.437
31655W        W 1536  18.613  44.311  12.078
31656W        W 1537  17.218   5.928   2.847
31657W        W 1538  36.492   2.828   2.776
31658W        W 1539  16.237   5.366  13.955
31659W        W 1540   3.272  44.813  12.497
31660W        W 1541   5.765  24.616  10.475
31661W        W 1542  26.160  29.619   3.196
31662W        W 1543  31.419  33.433  12.975
31663W        W 1544   5.236  12.752  12.875
31664W        W 1545  29.565  17.728   2.381
31665W        W 1546  20.222   2.852   1.842
31666W        W 1547  41.531  33.986  14.789
31667W        W 1548  13.309  37.576   4.802
31668W        W 1549  26.540  29.474  12.059
31669W        W 1550   2.815  44.886   1.438
31670W        W 1551  25.009  23.107   3.780
31671W        W 1552   4.782   9.162   3.182
31672W        W 1553  13.331  42.854   3.634
31673W        W 1554  11.797  27.586  10.099
31674W        W 1555  36.561  31.580  13.505
31675W        W 1556  13.827   7.328   3.771
31676W        W 1557   4.854  35.402  12.533
31677W        W 1558   0.348  27.133   1.696
31678W        W 1559  44.789  12.817   0.402
31679W        W 1560  36.987  19.676   1.903
31680W        W 1561  11.738  36.582  11.981
31681W        W 1562  32.914   4.758  13.887
31682W        W 1563   0.842  18.124   0.376
31683W        W 1564  30.133  18.197   3.835
31684W        W 1565  31.007  35.452   1.885
31685W        W 1566  10.705  11.129  12.932
31686W        W 1567  36.012  11.717   1.757
31687W        W 1568   8.845   8.894   2.216
31688W        W 1569   1.913  30.908   5.171
31689W        W 1570  21.524   0.464   0.779
31690W        W 1571   5.690  27.095   2.875
31691W        W 1572  36.362   3.380   1.277
31692W        W 1573  36.885  32.100   1.711
31693W        W 1574  41.798  17.628  12.015
31694W        W 1575  27.988  34.556   0.754
31695W        W 1576  31.949  21.244   3.700
31696W        W 1577   3.946   8.188  13.336
31697W        W 1578  26.691  20.530   3.323
31698W        W 1579  10.800  43.911   3.225
31699W        W 1580  23.684  15.238  11.930
31700W        W 1581  36.486   3.368   2.346
31701W        W 1582  35.988  23.545   3.731
31702W        W 1583  23.098  41.005  13.797
31703W        W 1584  23.996  37.504   9.956
31704W        W 1585  24.156  19.121   0.368
31705W        W 1586  34.025  35.373  10.896
31706W        W 1587  28.154   2.328   3.665
31707W        W 1588   5.336  23.058   1.710
31708W        W 1589  15.700  13.712   3.251
31709W        W 1590   8.681  39.060   2.386
31710W        W 1591  35.027  18.076  10.121
31711W        W 1592  15.116  43.861  10.946
31712W        W 1593  41.935  28.957  14.934
31713W        W 1594  24.987  15.218   3.245
31714W        W 1595  21.728  16.738   1.320
31715W        W 1596  12.204  43.903  14.779
31716W        W 1597   0.281  25.219  12.826
31717W        W 1598  33.386  37.862   3.662
31718W        W 1599   0.375  10.298   4.797
31719W        W 1600  28.620  43.765   0.261
31720W        W 1601  34.005  40.330   2.733
31721W        W 1602  37.088   4.393  13.367
31722W        W 1603  10.183  27.059   0.479
31723W        W 1604  19.116  32.484  13.408
31724W        W 1605   7.699   5.350   3.836
31725W        W 1606  28.126  43.815   2.725
31726W        W 1607  24.638  16.762   2.380
31727W        W 1608   6.278  36.080   1.356
31728W        W 1609   8.793  23.085  10.405
31729W        W 1610  44.431  23.103  13.820
31730W        W 1611   3.334   5.306   4.222
31731W        W 1612   6.682  43.429  11.925
31732W        W 1613  10.743  35.016  13.824
31733W        W 1614  21.041   6.915   4.820
31734W        W 1615  19.546  41.840   4.803
31735W        W 1616  21.737  21.689  13.898
31736W        W 1617   1.800  12.750   2.357
31737W        W 1618  30.047   8.395   1.423
31738W        W 1619  18.083  25.484  14.338
31739W        W 1620  40.018  27.055  11.995
31740W        W 1621  26.039  41.992   2.873
31741W        W 1622   9.295  35.074  13.004
31742W        W 1623  40.049  31.065  14.984
31743W        W 1624  36.881  30.427  14.420
31744W        W 1625  39.865  22.010   0.442
31745W        W 1626   0.334  17.135   4.231
31746W        W 1627   9.798  13.246  12.079
31747W        W 1628  26.015  13.631   2.228
31748W        W 1629  19.217   4.383  13.348
31749W        W 1630  19.071  23.518  10.945
31750W        W 1631   2.723   1.873   2.323
31751W        W 1632  40.877  40.897   1.321
31752W        W 1633  23.708  35.950  11.907
31753W        W 1634  14.321   3.380   2.313
31754W        W 1635  16.720  31.574   3.807
31755W        W 1636  11.138  42.881  10.570
31756W        W 1637   7.268  31.541  12.523
31757W        W 1638  28.090  28.029   2.844
31758W        W 1639  24.590  11.144  14.882
31759W        W 1640  12.322  10.852  10.409
31760W        W 1641  23.663  30.917  11.018
31761W        W 1642  21.158   8.289  12.421
31762W        W 1643  19.164  34.063   1.259
31763W        W 1644   7.780  21.067  14.938
31764W        W 1645   4.281  19.656  13.337
31765W        W 1646  42.292  15.245  11.956
31766W        W 1647  35.543  24.015  11.022
31767W        W 1648   7.715  39.431   3.184
31768W        W 1649   3.344  27.517   0.918
31769W        W 1650  36.582  28.532   1.837
31770W        W 1651   2.320  41.398   4.322
31771W        W 1652  19.714  19.255  14.880
31772W        W 1653  36.991  43.990   0.292
31773W        W 1654  40.860  18.747  11.107
31774W        W 1655  39.980  24.606   4.788
31775W        W 1656   0.924  10.856   2.330
31776W        W 1657   1.881  33.895  12.991
31777W        W 1658   0.441   3.885   1.395
31778W        W 1659  14.614  37.527  14.763
31779W        W 1660  36.401   4.791  12.340
31780W        W 1661  35.108  44.403  12.895
31781W        W 1662   8.253   1.741  11.594
31782W        W 1663  13.686  40.486   4.617
31783W        W 1664  40.857  37.500  11.031
31784W        W 1665  43.359  32.414   1.240
31785W        W 1666  38.441  41.010  10.955
31786W        W 1667  22.184  23.535  14.302
31787W        W 1668  34.872   6.806  12.871
31788W        W 1669  10.701  30.653  13.451
31789W        W 1670  16.215   6.319  13.970
31790W        W 1671  40.356   0.383  12.921
31791W        W 1672  30.459  42.014   4.624
31792W        W 1673  16.111  20.146  12.967
31793W        W 1674  38.500  26.110  10.969
31794W        W 1675  16.134  29.028   2.760
31795W        W 1676  22.643  41.937   2.324
31796W        W 1677  42.326  17.592   3.246
31797W        W 1678  43.886  36.915   3.762
31798W        W 1679  28.990  31.150  12.486
31799W        W 1680   6.221   5.345  12.452
31800W        W 1681  26.056  41.449   2.766
31801W        W 1682   8.233  31.999   0.898
31802W        W 1683  17.233  23.125  12.936
31803W        W 1684  44.416   0.981  14.909
31804W        W 1685  23.201  14.682   0.905
31805W        W 1686  39.859  20.640  11.944
31806W        W 1687   5.894   7.676   2.337
31807W        W 1688   4.754  27.165   0.483
31808W        W 1689  24.220  12.357  13.921
31809W        W 1690  38.474  20.697  13.352
31810W        W 1691   1.345  22.201  12.398
31811W        W 1692  38.820  22.227   4.815
31812W        W 1693  40.438   8.387   0.785
31813W        W 1694   7.671  35.065   2.812
31814W        W 1695  31.513  37.349   4.633
31815W        W 1696  43.378  31.998   2.669
31816W        W 1697  39.007  12.783  12.931
31817W        W 1698   2.893  16.812   4.637
31818W        W 1699   0.482  34.099  13.954
31819W        W 1700  22.562  40.913  12.074
31820W        W 1701  39.534  13.116  10.966
31821W        W 1702  34.495  44.784  13.432
31822W        W 1703   2.923  31.074  14.987
31823W        W 1704  17.092  22.537   3.372
31824W        W 1705  42.488  32.962  14.829
31825W        W 1706  37.942   4.835  13.474
31826W        W 1707  26.091  19.544  13.894
31827W        W 1708  40.494   5.368   0.316
31828W        W 1709  12.774   5.764   0.252
31829W        W 1710  25.704  33.911  10.918
31830W        W 1711   2.844   5.743   3.734
31831W        W 1712  17.645  20.258   2.268
31832W        W 1713  28.634  10.852  14.275
31833W        W 1714  14.783  28.576  13.808
31834W        W 1715  13.295   2.340   3.308
31835W        W 1716  41.974  32.499   3.384
31836W        W 1717  38.073   0.393   2.232
31837W        W 1718  36.057  22.609  11.003
31838W        W 1719  21.052  26.524   1.747
31839W        W 1720  34.023  34.419  13.011
31840W        W 1721  12.227  40.858   2.707
31841W        W 1722   2.945  21.586  10.601
31842W        W 1723   8.323  34.544   0.887
31843W        W 1724  39.962   2.853  13.944
31844W        W 1725  26.492   8.201  13.311
31845W        W 1726  18.711   8.319  12.991
31846W        W 1727  33.565   8.320  14.869
31847W        W 1728  13.747   2.406  12.367
31848W        W 1729   7.402  32.535  13.337
31849W        W 1730  14.141  10.845  11.039
31850W        W 1731  42.476  34.910   0.914
31851W        W 1732  13.152  14.249   0.803
31852W        W 1733   5.398  41.915  10.582
31853W        W 1734  25.169  22.680   3.787
31854W        W 1735  40.425  18.780  10.946
31855W        W 1736  26.526  10.707  12.967
31856W        W 1737  13.166  18.713  14.029
31857W        W 1738  10.712   1.843  13.472
31858W        W 1739  30.976  38.363  12.878
31859W        W 1740  23.031  11.838  14.988
31860W        W 1741  24.498  40.836   0.907
31861W        W 1742  13.341  31.423  10.915
31862W        W 1743  34.051  17.568   1.788
31863W        W 1744  30.506  38.918  14.904
31864W        W 1745   1.439  41.510  12.084
31865W        W 1746  16.725  22.083   3.356
31866W        W 1747  32.547  26.028   3.212
31867W        W 1748   0.904  10.758  11.952
31868W        W 1749  24.515  30.518  13.323
31869W        W 1750   8.288  26.556   2.855
31870W        W 1751  14.313  24.176  13.978
31871W        W 1752  29.630  36.543   4.772
31872W        W 1753  33.523  25.575   4.314
31873W        W 1754  10.817  12.728  12.542
31874W        W 1755   0.859  26.540   2.179
31875W        W 1756  14.619   4.248  11.884
31876W        W 1757  44.920   5.334  14.488
31877W        W 1758   5.375  28.526   0.322
31878W        W 1759  44.988  20.753  14.502
31879W        W 1760  13.111  23.066   4.622
31880W        W 1761  11.821  29.148   1.443
31881W        W 1762  42.998  14.709   3.355
31882W        W 1763  22.033  23.674   3.837
31883W        W 1764  37.959  24.643  13.331
31884W        W 1765  38.985   4.343  14.298
31885W        W 1766  28.630  14.116   1.413
31886W        W 1767  38.548  23.228  14.303
31887W        W 1768   0.263  28.434  10.982
31888W        W 1769  20.554  37.066   2.746
31889W        W 1770  43.828   4.353   0.315
31890W        W 1771  34.557  41.382  12.921
31891W        W 1772  21.516  13.126   1.410
31892W        W 1773  43.866  20.648   2.703
31893W        W 1774   8.765  23.600   4.770
31894W        W 1775  25.129  35.963  14.507
31895W        W 1776   2.925   4.883  11.962
31896W        W 1777  22.577  32.111  12.866
31897W        W 1778  14.654   5.340   2.366
31898W        W 1779   3.796   9.262  10.482
31899W        W 1780  25.999   2.320   2.856
31900W        W 1781   8.383   8.318   4.219
31901W        W 1782   6.812  36.908   3.855
31902W        W 1783   2.263  39.851   9.946
31903W        W 1784  20.060  32.965  13.845
31904W        W 1785  37.033  32.574   4.338
31905W        W 1786  18.589   4.252   4.705
31906W        W 1787  15.189  38.391   4.689
31907W        W 1788  37.560   1.454  10.958
31908W        W 1789  39.900  13.140   3.691
31909W        W 1790  25.012  11.789   3.774
31910W        W 1791  19.103  37.337  10.947
31911W        W 1792  29.495  40.418  13.361
31912W        W 1793   6.254  16.231  11.529
31913W        W 1794   3.755  37.910  14.852
31914W        W 1795   7.254  12.265  13.368
31915W        W 1796  30.017  24.481  10.906
31916W        W 1797  31.601  30.044   4.289
31917W        W 1798   8.726  26.136  14.998
31918W        W 1799  18.143  22.747  13.864
31919W        W 1800  21.145  14.295   1.295
31920W        W 1801  41.479   4.744   3.780
31921W        W 1802   0.805  16.104   2.356
31922W        W 1803  26.099  10.258  11.879
31923W        W 1804  31.928   2.393  14.430
31924W        W 1805  12.299  29.945   4.746
31925W        W 1806  26.645  26.197  10.971
31926W        W 1807  12.260  16.240  14.767
31927W        W 1808  16.166  11.716  13.461
31928W        W 1809   4.936  17.612  14.388
31929W        W 1810  12.844  12.160   1.408
31930W        W 1811  24.565  41.838  10.618
31931W        W 1812   9.645  34.908  13.791
31932W        W 1813   4.760  30.413   3.720
31933W        W 1814  10.714  25.076  11.398
31934W        W 1815  10.294  21.669   5.107
31935W        W 1816  40.035  15.689   1.383
31936W        W 1817   9.249  34.051  14.298
31937W        W 1818  23.187  31.017   2.696
31938W        W 1819  33.100  18.680   0.449
31939W        W 1820  30.506   2.438  12.040
31940W        W 1821  26.198   1.459  12.504
31941W        W 1822  32.397  14.124  13.324
31942W        W 1823   3.796  42.830  14.507
31943W        W 1824   5.756  24.567   3.321
31944W        W 1825   9.649  37.983   1.280
31945W        W 1826  15.584  39.365   0.857
31946W        W 1827   2.369  20.599  12.087
31947W        W 1828  20.691  44.364   4.298
31948W        W 1829   3.455  38.833  12.873
31949W        W 1830   4.320  44.936   4.633
31950W        W 1831  23.619   3.451   2.834
31951W        W 1832   8.684  35.953  14.021
31952W        W 1833   3.935  43.927   0.329
31953W        W 1834  29.101  24.101  11.458
31954W        W 1835  10.826   6.224   3.177
31955W        W 1836  19.595  41.908   2.200
31956W        W 1837  20.245  38.917   2.400
31957W        W 1838  34.589  30.527   4.134
31958W        W 1839  24.113  19.718   0.450
31959W        W 1840  17.152  42.453  10.149
31960W        W 1841   0.445  37.441   3.382
31961W        W 1842   9.783  12.186  12.412
31962W        W 1843  24.555   2.882   4.641
31963W        W 1844  26.028  37.490   2.713
31964W        W 1845  19.223  36.538  13.539
31965W        W 1846  29.430  32.097  11.538
31966W        W 1847  17.575  29.000   2.699
31967W        W 1848   5.402  31.983  10.563
31968W        W 1849  27.477  42.876  13.484
31969W        W 1850  30.159  22.119  11.493
31970W        W 1851  38.065  36.471  10.587
31971W        W 1852  14.220   9.769   4.829
31972W        W 1853  34.038  24.011  11.953
31973W        W 1854  28.951  41.811   2.833
31974W        W 1855  32.942  15.251  12.022
31975W        W 1856  20.146  31.579  11.372
31976W        W 1857   0.915  17.265  14.953
31977W        W 1858   3.938   0.935   4.657
31978W        W 1859   0.351  37.853  13.450
31979W        W 1860  27.090  31.441  10.946
31980W        W 1861  24.725  43.806   0.757
31981W        W 1862  37.028  31.933   3.297
31982W        W 1863  39.315  38.824   3.693
31983W        W 1864  32.459  24.654   4.776
31984W        W 1865   1.956  33.086  14.920
31985W        W 1866  15.795  37.024  12.050
31986W        W 1867  34.447  24.134  11.103
31987W        W 1868  18.681  22.532  12.062
31988W        W 1869  38.505  26.528  13.876
31989W        W 1870   5.797  14.309  11.879
31990W        W 1871   2.953  42.431   0.855
31991W        W 1872  31.147  18.610   2.699
31992W        W 1873   4.800  25.193   0.327
31993W        W 1874  13.807  32.979   4.153
31994W        W 1875  12.345   6.394  14.513
31995W        W 1876  34.431   5.893  11.413
31996W        W 1877   5.918   1.971  13.038
31997W        W 1878  20.064  43.346   4.304
31998W        W 1879  44.461   5.248  14.965
31999W        W 1880  34.090   9.648   2.862
32000W        W 1881  20.060  29.117  12.834
32001W        W 1882  34.892  19.665  10.441
32002W        W 1883  20.718  10.215  14.296
32003W        W 1884   1.449  10.332   1.745
32004W        W 1885  44.825   3.225  14.391
32005W        W 1886  35.950  39.417  14.886
32006W        W 1887  26.162  28.023  11.526
32007W        W 1888   1.449  27.604   4.273
32008W        W 1889   9.271  23.644  12.856
32009W        W 1890  15.668  30.425  12.375
32010W        W 1891  31.590   3.728  11.054
32011W        W 1892  11.801   4.909   9.927
32012W        W 1893  20.187   8.372   4.206
32013W        W 1894  23.238  42.032  12.001
32014W        W 1895  39.819   5.343  12.465
32015W        W 1896  19.174  14.266   2.256
32016W        W 1897   6.688  30.574   2.276
32017W        W 1898  22.578  18.660   3.804
32018W        W 1899  26.646  21.083  10.957
32019W        W 1900  40.897  37.402  11.404
32020W        W 1901  29.656  16.315   2.666
32021W        W 1902  28.591  13.106   1.309
32022W        W 1903  34.044  42.857  14.301
32023W        W 1904   5.212  22.714  10.928
32024W        W 1905  24.113   7.345  11.100
32025W        W 1906  12.360  11.623  14.902
32026W        W 1907  36.529  35.896   0.774
32027W        W 1908  20.077  27.046  14.832
32028W        W 1909  37.486  16.214  10.642
32029W        W 1910  31.552  29.971  14.790
32030W        W 1911  27.491  23.500   0.443
32031W        W 1912  20.120  17.688  12.874
32032W        W 1913  28.118  43.854   1.397
32033W        W 1914  42.463  20.059  13.378
32034W        W 1915  32.004   6.822   4.795
32035W        W 1916   5.744   5.806   0.266
32036W        W 1917  42.302  23.146   3.782
32037W        W 1918   5.362  30.499   1.448
32038W        W 1919  44.459  43.320   4.257
32039W        W 1920  12.736  16.195  14.800
32040W        W 1921   8.272  35.447  11.893
32041W        W 1922  37.352   5.834  14.896
32042W        W 1923  24.161  23.189   3.701
32043W        W 1924  30.652  37.866  11.544
32044W        W 1925   5.831  30.520  14.362
32045W        W 1926   1.352  11.729   1.396
32046W        W 1927  37.485  15.737   1.449
32047W        W 1928  10.700  41.913  14.853
32048W        W 1929   5.907  23.688   3.645
32049W        W 1930  25.676  32.053  13.484
32050W        W 1931  38.062  36.899   2.214
32051W        W 1932  16.723   8.866  14.378
32052W        W 1933   3.796  29.591  14.302
32053W        W 1934  29.048  21.707  12.853
32054W        W 1935  26.974  23.209  13.520
32055W        W 1936   8.844   2.927   1.832
32056W        W 1937  26.021   9.674   0.878
32057W        W 1938  41.519  29.580   2.356
32058W        W 1939  24.059   2.309  13.480
32059W        W 1940  17.238  41.894   1.842
32060W        W 1941  10.198   4.246   2.706
32061W        W 1942  34.400  14.236   1.756
32062W        W 1943  19.042  25.053   3.241
32063W        W 1944  21.090  28.178  11.501
32064W        W 1945  10.203  29.592   5.197
32065W        W 1946  27.020  25.703   4.742
32066W        W 1947  33.521   4.798  11.034
32067W        W 1948  10.245  37.995   2.333
32068W        W 1949  27.086  41.891   0.939
32069W        W 1950  44.430  27.671  10.932
32070W        W 1951  39.992  35.426  14.892
32071W        W 1952  42.899  20.704  14.867
32072W        W 1953  20.749  37.970   0.324
32073W        W 1954   1.433  22.218  11.022
32074W        W 1955   4.753   7.367  14.306
32075W        W 1956  20.662   4.815   0.878
32076W        W 1957  21.223  17.677   1.834
32077W        W 1958  42.505  11.648   2.710
32078W        W 1959  11.132  44.492  10.579
32079W        W 1960  30.600  18.160   3.687
32080W        W 1961   0.952   1.342  13.964
32081W        W 1962   0.857  19.720   3.742
32082W        W 1963  17.653  38.943  12.013
32083W        W 1964  24.191  39.545  13.537
32084W        W 1965  31.902  41.856   4.600
32085W        W 1966   4.423  36.486   2.857
32086W        W 1967  22.710  41.931   2.704
32087W        W 1968  19.055  43.979   2.223
32088W        W 1969  25.711  36.847   2.770
32089W        W 1970   7.293   8.805   1.326
32090W        W 1971  27.566  40.459  14.973
32091W        W 1972  37.462  35.509   3.377
32092W        W 1973   6.779  13.602   3.669
32093W        W 1974  39.867  31.956   2.223
32094W        W 1975   7.696  15.727   0.418
32095W        W 1976  35.969  33.926  11.050
32096W        W 1977  25.101  10.695  14.958
32097W        W 1978  26.090  40.452  12.463
32098W        W 1979   4.446  26.973   4.798
32099W        W 1980  44.953  21.646   4.242
32100W        W 1981   1.331  36.352   4.767
32101W        W 1982  38.068   2.404   0.856
32102W        W 1983   7.773  42.025   1.238
32103W        W 1984  43.372  30.642  13.957
32104W        W 1985   9.754   5.765  13.840
32105W        W 1986   7.783   4.283  12.825
32106W        W 1987  14.297  44.390   5.266
32107W        W 1988  42.521   1.832   2.184
32108W        W 1989  19.608  36.513   0.941
32109W        W 1990  10.263  22.218   9.999
32110W        W 1991  39.340  43.926  11.933
32111W        W 1992  31.573   0.815  11.888
32112W        W 1993  44.778   2.900   0.287
32113W        W 1994   1.362  40.548   3.818
32114W        W 1995  14.742   8.299   4.154
32115W        W 1996  42.298  44.833   4.172
32116W        W 1997  26.633  12.210  13.447
32117W        W 1998   8.752  34.870  13.974
32118W        W 1999  12.157  19.569  11.455
32119W        W 2000   1.256  16.685  10.968
32120W        W 2001  23.716  22.590   0.742
32121W        W 2002  29.612   4.331  11.453
32122W        W 2003  32.400   7.813  10.471
32123W        W 2004   1.474  40.341   4.792
32124W        W 2005   1.369   7.869   3.667
32125W        W 2006  40.446  33.578  10.018
32126W        W 2007   7.224  16.274  13.354
32127W        W 2008  42.791   3.287   1.833
32128W        W 2009  42.489  24.056  12.824
32129W        W 2010   7.875  35.021   0.730
32130W        W 2011   4.878  40.982  12.836
32131W        W 2012  43.479  41.354  11.598
32132W        W 2013  20.629  20.032   4.333
32133W        W 2014  44.372  32.943  11.494
32134W        W 2015   3.835  38.842   3.777
32135W        W 2016   5.832   1.820   2.683
32136W        W 2017  29.076  18.756  13.038
32137W        W 2018   6.732  36.441   1.816
32138W        W 2019  20.154   0.351   3.846
32139W        W 2020  16.142  43.330   4.352
32140W        W 2021  33.950  18.274  13.544
32141W        W 2022  38.463  42.812   0.403
32142W        W 2023  23.692  24.999   1.741
32143W        W 2024  22.031   0.938  12.534
32144W        W 2025  36.431  41.430   1.871
32145W        W 2026  18.221  43.857   1.917
32146W        W 2027  31.144  15.698   3.270
32147W        W 2028  25.962  18.246  14.928
32148W        W 2029   7.855   9.853  13.340
32149W        W 2030   8.405  29.423   0.451
32150W        W 2031  29.518  38.398  11.004
32151W        W 2032  32.404  34.453  13.464
32152W        W 2033  42.468  40.872  13.015
32153W        W 2034  36.431  36.028   3.188
32154W        W 2035  16.265  27.613   1.927
32155W        W 2036  30.415  29.955  10.483
32156W        W 2037  26.564  12.614  12.366
32157W        W 2038  31.638  24.199   3.348
32158W        W 2039  36.080  35.389  14.320
32159W        W 2040  12.734  42.312  12.973
32160W        W 2041  38.419  27.137   2.845
32161W        W 2042   7.322  18.096  13.970
32162W        W 2043  19.663   5.846   2.192
32163W        W 2044  18.207   0.848  14.785
32164W        W 2045  10.317  35.092   3.311
32165W        W 2046   0.797   9.273   0.853
32166W        W 2047   0.939   6.395   1.352
32167W        W 2048  42.983  24.500  11.978
32168W        W 2049   4.322  21.090  14.448
32169W        W 2050  12.305  30.624  13.518
32170W        W 2051  44.804  27.076   2.211
32171W        W 2052  43.887  37.487  14.929
32172W        W 2053  11.710  24.512  14.289
32173W        W 2054  40.969   3.760  11.489
32174W        W 2055   7.851  23.564  14.283
32175W        W 2056   2.793  27.615   2.737
32176W        W 2057  44.308  24.522  13.902
32177W        W 2058   9.869  43.772  14.852
32178W        W 2059   9.736   6.699   2.807
32179W        W 2060  31.106  17.256  14.396
32180W        W 2061  23.022  13.324  12.959
32181W        W 2062  10.245  24.597  12.566
32182W        W 2063  39.892  26.003   1.227
32183W        W 2064  14.762  10.817  12.482
32184W        W 2065  24.978  33.051   3.786
32185W        W 2066   6.349   6.254   0.843
32186W        W 2067  25.065  37.952   1.416
32187W        W 2068   0.778  40.896   4.625
32188W        W 2069  43.953  36.504   0.880
32189W        W 2070   2.299   9.742   2.266
32190W        W 2071   9.288  39.871  12.969
32191W        W 2072  41.871  39.945   0.392
32192W        W 2073  43.361  10.825  12.545
32193W        W 2074  39.442   5.327  12.088
32194W        W 2075  34.448  19.641   3.643
32195W        W 2076  27.983  11.173  12.060
32196W        W 2077  33.108  18.123   4.208
32197W        W 2078  31.930  17.144   3.666
32198W        W 2079   5.748  41.792   1.811
32199W        W 2080  34.511  35.526   3.377
32200W        W 2081  27.684  40.539   2.818
32201W        W 2082   2.725  33.609  12.885
32202W        W 2083  29.173  31.133   4.717
32203W        W 2084   0.402  39.965  14.819
32204W        W 2085  31.054  12.300  13.005
32205W        W 2086   9.319  17.231  13.307
32206W        W 2087  37.401  28.638  10.494
32207W        W 2088  21.192  33.564   2.665
32208W        W 2089  38.400  14.141   0.426
32209W        W 2090  30.007  31.989  13.974
32210W        W 2091   4.707  26.495  11.110
32211W        W 2092  35.939  29.551  13.965
32212W        W 2093   8.841  20.029  10.511
32213W        W 2094   0.969  44.834   3.827
32214W        W 2095  40.457   3.914  12.507
32215W        W 2096   9.392  22.159  12.516
32216W        W 2097  14.098   4.243  11.405
32217W        W 2098  25.163  18.659   2.867
32218W        W 2099  44.284   6.202   3.155
32219W        W 2100  14.785  24.021  11.874
32220W        W 2101   0.959  24.111   4.611
32221W        W 2102  10.264  30.969   1.844
32222W        W 2103  25.969   7.807   2.733
32223W        W 2104  13.200  22.218   4.813
32224W        W 2105  27.126   5.755   3.653
32225W        W 2106  32.946  41.314  13.975
32226W        W 2107  22.697  20.246   0.919
32227W        W 2108   9.664  40.531  11.582
32228W        W 2109  42.907   4.911   4.158
32229W        W 2110  34.454  36.947  10.970
32230W        W 2111  10.173  32.473   1.292
32231W        W 2112  41.403  44.481  10.577
32232W        W 2113  23.082  32.092   1.335
32233W        W 2114  12.644  42.357   0.453
32234W        W 2115  44.337  27.149  11.972
32235W        W 2116  40.990   7.218  12.068
32236W        W 2117  19.580   2.742   2.319
32237W        W 2118  35.016  22.145   2.860
32238W        W 2119  17.724  28.449   3.868
32239W        W 2120  36.932  36.457  10.564
32240W        W 2121  24.108  30.613   1.317
32241W        W 2122   5.761  41.437  14.891
32242W        W 2123  21.648   2.318   3.338
32243W        W 2124   3.281   4.247   3.167
32244W        W 2125  35.565   3.381  12.975
32245W        W 2126  19.239  33.478   2.789
32246W        W 2127   5.331  18.689  12.939
32247W        W 2128  27.097  38.413   4.119
32248W        W 2129  32.094  44.342   0.439
32249W        W 2130   2.927  42.030   2.284
32250W        W 2131  30.433  31.552   3.753
32251W        W 2132  36.078  30.524   0.365
32252W        W 2133  27.996  40.931   2.352
32253W        W 2134  10.152   5.329   2.195
32254W        W 2135  35.076   5.215   3.643
32255W        W 2136  17.266  26.025   4.712
32256W        W 2137   8.814  20.578  12.019
32257W        W 2138   0.873   3.335  12.411
32258W        W 2139  15.663  39.462   1.378
32259W        W 2140  12.733  15.323   3.722
32260W        W 2141  14.304  10.347   1.881
32261W        W 2142  44.003  32.129  10.606
32262W        W 2143  15.756   8.312   1.736
32263W        W 2144  22.734  26.652   0.860
32264W        W 2145  13.215   6.857  12.924
32265W        W 2146  24.539  43.307  10.423
32266W        W 2147  15.133  35.442   0.455
32267W        W 2148   4.886  18.668   3.166
32268W        W 2149  31.935  40.525  13.848
32269W        W 2150   1.966  44.814   3.667
32270W        W 2151  29.622   9.349   4.675
32271W        W 2152  20.530   1.973   9.562
32272W        W 2153  19.210  26.701   4.331
32273W        W 2154  30.962  21.717   4.132
32274W        W 2155   5.887  24.065   2.220
32275W        W 2156  31.516  29.646  12.089
32276W        W 2157  10.282  40.023   1.299
32277W        W 2158  15.707   5.383  10.639
32278W        W 2159  28.525  37.034   3.653
32279W        W 2160   0.935  30.422  14.274
32280W        W 2161  30.424   0.894  13.527
32281W        W 2162  28.674   8.183   1.906
32282W        W 2163  16.180   0.276  11.956
32283W        W 2164   3.781   3.709  12.026
32284W        W 2165  28.024   4.746  12.828
32285W        W 2166  30.989  15.275   1.788
32286W        W 2167  20.732  41.524  13.435
32287W        W 2168   2.743  31.535   3.253
32288W        W 2169  13.714   5.766  11.032
32289W        W 2170  25.092  15.686   2.803
32290W        W 2171  28.504  14.737  10.494
32291W        W 2172  15.701  24.039  13.365
32292W        W 2173   6.769   2.933  13.530
32293W        W 2174   9.321   5.809  13.383
32294W        W 2175  34.547  22.243  11.573
32295W        W 2176  24.158  13.618  14.812
32296W        W 2177  19.083  41.362   1.254
32297W        W 2178  33.014  35.496  12.941
32298W        W 2179  26.466  44.339   3.783
32299W        W 2180  42.027  36.460  14.993
32300W        W 2181  17.141   7.759  14.952
32301W        W 2182  40.975  15.306  11.380
32302W        W 2183  41.029  17.066  12.842
32303W        W 2184  29.934  38.829  11.988
32304W        W 2185  24.000   5.412   2.249
32305W        W 2186  33.874  27.165   1.316
32306W        W 2187   8.268  29.640  13.409
32307W        W 2188  39.366   3.784   4.783
32308W        W 2189   9.858  28.113  12.342
32309W        W 2190  12.261   0.846  14.920
32310W        W 2191  35.387  34.572  13.853
32311W        W 2192  38.821  42.960  11.405
32312W        W 2193  25.060  17.771   2.889
32313W        W 2194  26.151  25.705  14.312
32314W        W 2195  42.507  37.413   0.256
32315W        W 2196  26.533   3.875  13.900
32316W        W 2197  10.840  20.681   1.265
32317W        W 2198  40.829  31.478   2.664
32318W        W 2199  44.277   8.888   0.959
32319W        W 2200  30.626   0.328   1.717
32320W        W 2201  13.835  27.484   0.842
32321W        W 2202  44.494  16.607   0.352
32322W        W 2203  40.382  33.130  14.865
32323W        W 2204  28.129   4.718   5.270
32324W        W 2205  24.700  10.789   0.389
32325W        W 2206  25.597  21.133  14.284
32326W        W 2207  30.543   0.915   1.776
32327W        W 2208  36.393  38.535  14.313
32328W        W 2209  33.059   6.803  12.451
32329W        W 2210  11.668   8.776   1.350
32330W        W 2211  38.869  38.993  11.857
32331W        W 2212  32.966  28.676   1.874
32332W        W 2213  31.414  28.116  12.069
32333W        W 2214   4.259  31.152  13.431
32334W        W 2215  34.013  12.301  12.339
32335W        W 2216   1.863   1.440  14.374
32336W        W 2217  18.565   7.745  13.971
32337W        W 2218  31.633  35.110  11.543
32338W        W 2219  38.911  32.927  11.576
32339W        W 2220  39.405  42.965  14.759
32340W        W 2221   4.761  30.491   2.233
32341W        W 2222  21.126  15.307  12.395
32342W        W 2223  33.088   1.310   3.323
32343W        W 2224  32.998  17.783   5.667
32344W        W 2225  34.057  35.108   4.796
32345W        W 2226  39.811  33.902   3.719
32346W        W 2227  24.605   4.354  10.458
32347W        W 2228  12.230  24.025   3.255
32348W        W 2229   8.300  22.544  10.448
32349W        W 2230   7.213  24.228  11.110
32350W        W 2231   5.427  26.991  12.519
32351W        W 2232   2.420  20.711  11.027
32352W        W 2233  21.716  20.636   4.684
32353W        W 2234  15.209  17.747  14.507
32354W        W 2235  41.950  20.101   4.758
32355W        W 2236  16.757  24.678   4.240
32356W        W 2237   4.759   6.283  11.414
32357W        W 2238  42.883  32.009   4.236
32358W        W 2239  16.724  18.617   4.327
32359W        W 2240  22.553  26.629   2.685
32360W        W 2241   4.910  11.187   0.412
32361W        W 2242   0.804  17.631  12.532
32362W        W 2243   5.274  12.332  12.018
32363W        W 2244  21.215  19.636  14.494
32364W        W 2245  33.900  26.639   3.770
32365W        W 2246  20.139  15.610   5.106
32366W        W 2247  17.117   1.349   0.445
32367W        W 2248  22.222  17.765   1.890
32368W        W 2249   9.246  29.016  12.085
32369W        W 2250  35.926  10.334  14.415
32370W        W 2251  12.736  15.644   4.598
32371W        W 2252   9.870  18.606  13.528
32372W        W 2253  13.111  23.598  12.483
32373W        W 2254   1.734  21.633   3.723
32374W        W 2255  29.427  17.695  13.410
32375W        W 2256  43.487  20.216   0.893
32376W        W 2257  33.584  38.985   1.728
32377W        W 2258  12.281   7.240  10.953
32378W        W 2259  18.070  13.261  10.581
32379W        W 2260  10.284  44.880  14.454
32380W        W 2261  20.034  31.082   4.232
32381W        W 2262  35.475  13.779   1.427
32382W        W 2263  34.537  20.157  10.993
32383W        W 2264   6.330  13.313   0.424
32384W        W 2265   3.872  29.085  13.938
32385W        W 2266  34.371  28.500   4.284
32386W        W 2267  13.794  28.556   5.779
32387W        W 2268  37.499  39.031  11.079
32388W        W 2269  24.022  26.048  13.977
32389W        W 2270  41.953  29.444  13.422
32390W        W 2271  22.197  24.601  13.487
32391W        W 2272  37.017  43.453   0.752
32392W        W 2273  10.790  37.481   4.828
32393W        W 2274  23.985  28.933   3.381
32394W        W 2275  38.942  17.651  12.937
32395W        W 2276  11.317   5.762   2.850
32396W        W 2277  35.451  43.404   3.171
32397W        W 2278   9.252   0.927   3.755
32398W        W 2279   8.842  25.078  14.930
32399W        W 2280  34.479  23.500  11.504
32400W        W 2281  38.060  13.812   2.676
32401W        W 2282  28.103  35.907  11.859
32402W        W 2283  32.908  16.211  11.056
32403W        W 2284  16.088  28.604   1.705
32404W        W 2285  21.566  32.398   4.243
32405W        W 2286  23.129  13.237   0.959
32406W        W 2287  35.439  40.514  14.987
32407W        W 2288   2.230  21.187   2.815
32408W        W 2289  13.778  18.747  14.480
32409W        W 2290  32.073   0.760   5.156
32410W        W 2291   1.360  21.263   1.794
32411W        W 2292  16.804  23.548  12.071
32412W        W 2293  19.125  24.676   2.319
32413W        W 2294  34.915   2.229   3.270
32414W        W 2295  22.015  30.103   4.632
32415W        W 2296   1.412   2.294  13.481
32416W        W 2297   8.335   7.790  13.939
32417W        W 2298  19.088  44.361   2.774
32418W        W 2299  16.594  15.623   3.153
32419W        W 2300  36.074   4.236  14.897
32420W        W 2301  13.269  18.185   2.352
32421W        W 2302  23.016  36.027   0.361
32422W        W 2303  34.529  30.016  13.868
32423W        W 2304  38.529   9.284   4.160
32424W        W 2305  28.110   4.893   3.794
32425W        W 2306  32.430  41.366  11.552
32426W        W 2307  31.470   3.224   0.741
32427W        W 2308  11.707  38.947  11.038
32428W        W 2309  24.047  39.467  14.932
32429W        W 2310  15.724  18.205  14.330
32430W        W 2311  11.195  13.184  12.992
32431W        W 2312   8.688  43.850  12.908
32432W        W 2313   3.937  17.067  12.534
32433W        W 2314  39.444   5.213  10.505
32434W        W 2315  43.326  20.583  14.351
32435W        W 2316   2.467   3.813  13.842
32436W        W 2317  25.615  42.787   1.772
32437W        W 2318   1.295  21.056  14.825
32438W        W 2319  43.398  22.508  11.563
32439W        W 2320  21.671  20.616  13.930
32440W        W 2321  20.228  12.191   1.321
32441W        W 2322  28.137  44.338   1.374
32442W        W 2323  11.863  44.413  10.057
32443W        W 2324   4.300   6.284  13.325
32444W        W 2325   0.862   3.886   1.930
32445W        W 2326  18.545  37.975  14.441
32446W        W 2327  42.999  25.475  14.467
32447W        W 2328  29.526  19.087  12.378
32448W        W 2329  40.884  14.245  14.413
32449W        W 2330   5.244   5.899   0.764
32450W        W 2331   6.211  35.911   2.706
32451W        W 2332   5.925  33.104   3.293
32452W        W 2333   4.909   6.226   0.433
32453W        W 2334  29.532  41.367   4.649
32454W        W 2335  10.189  29.121   4.604
32455W        W 2336  22.654  38.994  10.446
32456W        W 2337  32.444  28.662  14.867
32457W        W 2338  33.104  16.784  10.916
32458W        W 2339  18.060   7.755  14.795
32459W        W 2340  31.496  12.714   0.252
32460W        W 2341   2.945  11.856  12.839
32461W        W 2342  31.110  33.571   2.258
32462W        W 2343  17.169  30.056  13.823
32463W        W 2344  41.860  22.607  13.315
32464W        W 2345  30.639   5.420  10.952
32465W        W 2346  34.872  17.717  14.951
32466W        W 2347  16.601   8.290  13.312
32467W        W 2348  22.688  24.068   0.244
32468W        W 2349  40.342  14.234   1.227
32469W        W 2350  15.178  30.952   2.705
32470W        W 2351  22.241  18.126   4.289
32471W        W 2352  36.458  35.872  14.894
32472W        W 2353  12.295  22.575  12.552
32473W        W 2354  20.236  12.345   2.355
32474W        W 2355  30.074  14.600  13.354
32475W        W 2356  16.247  41.820   1.852
32476W        W 2357  31.101  18.230  10.578
32477W        W 2358   0.262  23.622  12.031
32478W        W 2359  34.021  22.071  11.518
32479W        W 2360  40.473  10.353  13.829
32480W        W 2361  15.633  10.215   4.340
32481W        W 2362  36.095  35.950  11.039
32482W        W 2363  35.950  16.110  13.892
32483W        W 2364   3.739   8.250   1.753
32484W        W 2365  42.031  19.045  12.388
32485W        W 2366  14.713  44.282  11.117
32486W        W 2367  20.040  31.961  11.457
32487W        W 2368  11.217   5.859   3.188
32488W        W 2369  21.738  36.999  14.972
32489W        W 2370  38.397   5.879  13.852
32490W        W 2371  25.156  37.440  11.488
32491W        W 2372  10.265  27.967   3.742
32492W        W 2373  42.361  39.053  11.402
32493W        W 2374  36.451  22.676   0.816
32494W        W 2375  26.152   1.423  12.978
32495W        W 2376   6.282  32.484   3.238
32496W        W 2377  20.642  31.616  13.020
32497W        W 2378   3.955  30.480   3.844
32498W        W 2379  11.662   9.171  12.580
32499W        W 2380  42.414  27.535   4.133
32500W        W 2381  15.660  36.545   0.350
32501W        W 2382  21.568  17.665   1.411
32502W        W 2383  23.992   6.887   0.826
32503W        W 2384  43.322  33.578   3.816
32504W        W 2385  34.398  12.610  13.056
32505W        W 2386   3.459  35.594   4.186
32506W        W 2387  43.818  15.586  12.954
32507W        W 2388  29.560  43.279   3.646
32508W        W 2389  10.675  36.843  11.409
32509W        W 2390  12.121  34.524   3.642
32510W        W 2391  27.654  26.560  11.082
32511W        W 2392  33.011  23.146   3.682
32512W        W 2393  39.373   2.338  11.066
32513W        W 2394  27.034  31.550  11.908
32514W        W 2395  17.576  22.519  12.060
32515W        W 2396  38.421   4.715  12.409
32516W        W 2397   0.826   1.371   3.367
32517W        W 2398  19.247  29.921   3.268
32518W        W 2399  17.176  24.048  13.435
32519W        W 2400  39.342  33.557  14.775
32520W        W 2401   6.231  27.565  11.956
32521W        W 2402   4.841   1.870  14.822
32522W        W 2403  10.791  26.086   2.405
32523W        W 2404  35.424  35.007  12.570
32524W        W 2405  34.608  36.355   3.357
32525W        W 2406  28.967  38.476   3.837
32526W        W 2407  30.462   7.353   2.266
32527W        W 2408  22.658   5.864  12.991
32528W        W 2409  38.365  28.542   2.731
32529W        W 2410  28.015  18.153   3.376
32530W        W 2411  37.559   7.394   4.806
32531W        W 2412  35.507  44.375   2.750
32532W        W 2413  43.371  16.137   3.166
32533W        W 2414  30.158  32.947  14.829
32534W        W 2415   4.754  12.303   3.685
32535W        W 2416   3.813  32.052   4.323
32536W        W 2417  13.232  29.556   1.808
32537W        W 2418   4.339   4.408  11.496
32538W        W 2419  36.402  24.010   5.153
32539W        W 2420  28.679  23.222   4.226
32540W        W 2421  37.505  37.058  13.803
32541W        W 2422   7.201  23.672   1.716
32542W        W 2423  35.900  19.710  10.931
32543W        W 2424  37.914  40.321  12.075
32544W        W 2425  20.104   0.347  12.049
32545W        W 2426  33.917  30.476   2.345
32546W        W 2427   3.444  32.476  12.968
32547W        W 2428  34.422  40.926   0.385
32548W        W 2429  35.560   5.859  14.807
32549W        W 2430  12.174  36.990   0.763
32550W        W 2431   3.713  32.060  13.349
32551W        W 2432  30.028  15.156  12.873
32552W        W 2433  24.055  17.141  12.523
32553W        W 2434   1.826   6.745  13.957
32554W        W 2435  44.285  31.591  11.529
32555W        W 2436  20.675  32.917   4.634
32556W        W 2437  21.655   8.729  11.940
32557W        W 2438  32.480  44.845   4.610
32558W        W 2439   9.844  37.968   1.886
32559W        W 2440  33.624  30.069   2.351
32560W        W 2441  16.736  35.968   1.393
32561W        W 2442   4.860  25.206   2.291
32562W        W 2443  17.686  23.094   1.290
32563W        W 2444  25.477  26.502  11.546
32564W        W 2445  11.636  28.459  14.288
32565W        W 2446  30.072  28.026  10.976
32566W        W 2447  26.107  32.475   2.225
32567W        W 2448  37.531  20.171   2.284
32568W        W 2449  39.348  11.175   2.867
32569W        W 2450  16.658  26.012  10.645
32570W        W 2451  44.301  36.365   0.452
32571W        W 2452  24.596  16.679  13.868
32572W        W 2453  44.854   4.866   0.764
32573W        W 2454  19.144  12.713  11.065
32574W        W 2455  37.576  33.113   3.372
32575W        W 2456  21.148  22.069  10.581
32576W        W 2457  15.105  16.210  13.863
32577W        W 2458   2.954  26.982  14.905
32578W        W 2459  28.141  23.519   0.334
32579W        W 2460  27.499  43.947   1.771
32580W        W 2461  26.614  37.917   2.236
32581W        W 2462  15.788  38.824   0.383
32582W        W 2463   8.885   8.318   2.237
32583W        W 2464   0.942  35.412   1.798
32584W        W 2465  29.479  36.084   1.768
32585W        W 2466   1.736  27.555  11.504
32586W        W 2467  39.470  37.424   2.345
32587W        W 2468  32.952   3.872   2.892
32588W        W 2469  38.362  19.044   1.300
32589W        W 2470  14.163  31.056  14.911
32590W        W 2471  40.505  10.232  13.547
32591W        W 2472  33.516  30.054   0.750
32592W        W 2473  31.038  29.019  10.981
32593W        W 2474  37.980  14.692   1.412
32594W        W 2475  43.355  32.584  10.475
32595W        W 2476  44.813  32.472  11.594
32596W        W 2477   5.263  12.287  11.080
32597W        W 2478  37.929   8.261  12.396
32598W        W 2479   8.201   1.295  10.508
32599W        W 2480  29.933  44.306   2.385
32600W        W 2481  34.974  16.661  12.075
32601W        W 2482  41.315  39.501  11.987
32602W        W 2483  23.119  11.198  11.992
32603W        W 2484  39.925   8.765   2.304
32604W        W 2485  23.565  24.228  13.929
32605W        W 2486  40.365  42.373  13.924
32606W        W 2487  13.635   9.701   2.855
32607W        W 2488  43.880  42.289  12.007
32608W        W 2489  31.474  31.140  10.481
32609W        W 2490  28.123  26.525  14.847
32610W        W 2491  28.447  28.490   1.889
32611W        W 2492  41.353  33.986  13.411
32612W        W 2493   5.724  18.274  11.091
32613W        W 2494  24.535  32.392  14.405
32614W        W 2495  36.861  43.300   3.826
32615W        W 2496  11.139  25.979   4.217
32616W        W 2497  16.170   0.767  14.304
32617W        W 2498  36.860   6.296   1.419
32618W        W 2499  26.637  44.882  13.507
32619W        W 2500  25.152  11.642   4.736
32620W        W 2501  20.700  37.567  13.967
32621W        W 2502  35.859   2.826   3.224
32622W        W 2503  11.178  26.051   2.733
32623W        W 2504  43.947  41.920  14.396
32624W        W 2505  35.360  14.709  14.822
32625W        W 2506  17.272   8.750   0.729
32626W        W 2507  38.541  27.501  10.409
32627W        W 2508  41.833   3.904   4.715
32628W        W 2509  34.403  33.523  13.980
32629W        W 2510   0.919  36.929   4.672
32630W        W 2511  12.750  34.998   2.794
32631W        W 2512  24.189   1.835  12.515
32632W        W 2513   8.262  44.494   0.761
32633W        W 2514  27.630   5.720   4.320
32634W        W 2515   9.861  12.785  14.321
32635W        W 2516   2.926   9.704  13.400
32636W        W 2517   9.170   5.854   4.327
32637W        W 2518  34.379  36.505  10.607
32638W        W 2519  17.278  37.908  12.894
32639W        W 2520  21.100   0.969  14.936
32640W        W 2521  31.433   7.189  11.395
32641W        W 2522   8.175   1.349   2.321
32642W        W 2523   5.921  14.673   3.645
32643W        W 2524  27.480  38.477  10.487
32644W        W 2525  11.788  12.309   1.249
32645W        W 2526  27.549  17.235  10.939
32646W        W 2527  34.565  10.832   1.930
32647W        W 2528  28.453  20.082   4.830
32648W        W 2529  39.021  16.730   2.782
32649W        W 2530  44.416  23.046   1.370
32650W        W 2531   9.838  27.181  12.914
32651W        W 2532  43.835  18.704   4.344
32652W        W 2533   5.756  13.803   4.787
32653W        W 2534  10.837   9.645   3.849
32654W        W 2535  35.486   3.224  14.852
32655W        W 2536  29.063   8.395  11.541
32656W        W 2537  23.668  11.198   2.877
32657W        W 2538  30.622  13.636  11.054
32658W        W 2539  35.102  21.532   4.326
32659W        W 2540  30.105  15.195   3.326
32660W        W 2541   3.728  19.690   0.762
32661W        W 2542  21.630  28.485  14.858
32662W        W 2543  31.500  36.046   4.331
32663W        W 2544  44.958  16.161  12.520
32664W        W 2545  21.081   9.713   1.422
32665W        W 2546  13.709   2.919   2.413
32666W        W 2547  24.023   4.901   1.247
32667W        W 2548   8.805   3.941  11.892
32668W        W 2549   9.879  13.690  11.074
32669W        W 2550  44.842  36.477  13.037
32670W        W 2551  33.018  32.627  13.428
32671W        W 2552  36.360  24.570   0.770
32672W        W 2553  43.481  16.179  13.063
32673W        W 2554  29.521  37.506  12.402
32674W        W 2555  44.982  40.515   4.204
32675W        W 2556  36.558  11.218   4.292
32676W        W 2557  42.906  33.098   2.742
32677W        W 2558  24.684  20.083   2.231
32678W        W 2559  42.493  29.123  13.798
32679W        W 2560  26.986  27.098   1.877
32680W        W 2561  19.193  25.518   3.827
32681W        W 2562  21.566  35.094  12.058
32682W        W 2563  32.135   8.327  13.930
32683W        W 2564  40.958  27.538   1.819
32684W        W 2565  37.508   3.374  14.789
32685W        W 2566  17.128   2.882  13.537
32686W        W 2567  11.362   2.963  12.884
32687W        W 2568  20.230  25.024  11.979
32688W        W 2569  40.361   4.426   3.658
32689W        W 2570  31.915   1.240   1.386
32690W        W 2571  17.708  26.613  12.404
32691W        W 2572  36.472  16.301   1.877
32692W        W 2573  26.027  30.000   1.381
32693W        W 2574  10.701  30.134  13.902
32694W        W 2575  38.383  15.151  13.989
32695W        W 2576  38.481  44.886  13.867
32696W        W 2577  32.565   3.455  12.041
32697W        W 2578  38.896  32.520  13.880
32698W        W 2579  36.425  20.097   0.730
32699W        W 2580  20.114   1.456   1.359
32700W        W 2581  26.651   9.300  11.916
32701W        W 2582   6.412   5.229   1.853
32702W        W 2583   3.389   3.254   4.187
32703W        W 2584  31.495  41.506  12.871
32704W        W 2585  38.015   3.333   4.141
32705W        W 2586  14.191   1.271  10.905
32706W        W 2587  21.529  17.153  11.104
32707W        W 2588   0.472  37.973  11.590
32708W        W 2589   1.878  35.597  13.534
32709W        W 2590   3.242  33.993  13.055
32710W        W 2591   0.906  17.702   4.600
32711W        W 2592  30.957  11.174  14.884
32712W        W 2593  37.837   7.807  12.896
32713W        W 2594  23.095  21.752  12.496
32714W        W 2595   8.311  24.704   0.839
32715W        W 2596  30.514  10.777   2.343
32716W        W 2597  15.307  27.195  14.944
32717W        W 2598   2.329  41.827  14.788
32718W        W 2599   9.706   4.302   0.882
32719W        W 2600  23.700  31.119   1.831
32720W        W 2601  35.086  33.493   2.680
32721W        W 2602  18.688  30.134   3.209
32722W        W 2603  28.547  19.158  13.018
32723W        W 2604  42.324  26.175   1.322
32724W        W 2605  26.141   0.309   1.758
32725W        W 2606   3.764  22.524  14.812
32726W        W 2607  36.080  28.575  12.089
32727W        W 2608  21.601  17.140   2.881
32728W        W 2609  29.553   6.269   3.159
32729W        W 2610   6.916   1.460  13.046
32730W        W 2611  34.570   4.743  13.546
32731W        W 2612  22.067  27.467   3.147
32732W        W 2613  11.328  14.144  12.852
32733W        W 2614  37.358   6.919   2.677
32734W        W 2615  15.818  39.954  12.832
32735W        W 2616   5.298  20.175  14.394
32736W        W 2617  27.692  37.831   2.322
32737W        W 2618  25.511   0.838  10.494
32738W        W 2619  28.063  29.560   0.864
32739W        W 2620  30.929  16.271  11.595
32740W        W 2621  17.775  23.681   2.379
32741W        W 2622  37.384  23.990   1.275
32742W        W 2623  14.832  27.947  13.471
32743W        W 2624  10.667  15.225  11.948
32744W        W 2625  30.475   3.312   1.741
32745W        W 2626  38.914  12.620  11.958
32746W        W 2627  44.968  43.344  10.503
32747W        W 2628   1.256  17.304   2.681
32748W        W 2629  41.833  24.576   1.286
32749W        W 2630  23.545  42.426   4.342
32750W        W 2631   8.373   4.908   1.869
32751W        W 2632  24.044   6.268  14.843
32752W        W 2633  25.544   6.246   3.800
32753W        W 2634  22.122  26.094   2.854
32754W        W 2635   1.825  20.738   4.217
32755W        W 2636  34.406   9.188  11.128
32756W        W 2637  21.159  10.859  10.487
32757W        W 2638  35.093  10.302  11.575
32758W        W 2639  12.245   0.465  12.891
32759W        W 2640  18.747  24.612   4.836
32760W        W 2641  27.022  17.198   4.229
32761W        W 2642  18.660  42.341   1.266
32762W        W 2643  40.966  10.236  10.440
32763W        W 2644  38.828  30.939   0.736
32764W        W 2645  15.611  29.490  13.415
32765W        W 2646   0.369  11.309  11.018
32766W        W 2647  12.778   9.670   4.303
32767W        W 2648  38.457  25.522  12.518
32768W        W 2649  29.999   7.908   2.255
32769W        W 2650  39.540  26.594   4.683
32770W        W 2651  12.213   5.334  12.029
32771W        W 2652   0.966  21.634   2.859
32772W        W 2653  40.817   1.881  11.031
32773W        W 2654  26.642  16.146  14.359
32774W        W 2655   9.682  15.687  14.001
32775W        W 2656  27.451   0.976  14.453
32776W        W 2657   0.325  16.232   3.221
32777W        W 2658  41.817  14.745   1.821
32778W        W 2659  22.230  36.074   3.265
32779W        W 2660  26.099   9.183   1.927
32780W        W 2661   4.293  41.975  11.981
32781W        W 2662  16.143  36.026  12.095
32782W        W 2663  39.964   9.879   1.778
32783W        W 2664  18.606   4.798   1.421
32784W        W 2665   7.798  21.075  11.872
32785W        W 2666   5.306  37.576  13.873
32786W        W 2667  36.063  42.942   0.777
32787W        W 2668  10.663  44.854  13.968
32788W        W 2669   3.448   9.773   4.828
32789W        W 2670   4.212  18.270   4.311
32790W        W 2671  29.992  26.045   4.293
32791W        W 2672   2.782   2.434  12.475
32792W        W 2673  27.560  23.523   4.619
32793W        W 2674  29.446   6.722  11.855
32794W        W 2675   6.919  13.625   4.206
32795W        W 2676  12.234  43.880  11.464
32796W        W 2677  28.518  30.637   4.331
32797W        W 2678   5.705   1.845  10.889
32798W        W 2679  26.145   0.902   4.806
32799W        W 2680   4.245  15.178   2.233
32800W        W 2681  29.135  25.098  13.547
32801W        W 2682  15.120  16.787  13.809
32802W        W 2683  35.889  43.983   1.296
32803W        W 2684  30.509  38.878  13.920
32804W        W 2685  16.213  10.228   0.407
32805W        W 2686   0.936  11.758  11.919
32806W        W 2687  32.424  29.643  10.633
32807W        W 2688  40.880  24.150   0.252
32808W        W 2689  41.418  17.240   5.091
32809W        W 2690   2.295  13.687   4.831
32810W        W 2691  35.549  35.372   0.735
32811W        W 2692  40.464  31.065   1.873
32812W        W 2693   7.290  17.205   0.920
32813W        W 2694  32.081  29.140  12.053
32814W        W 2695  32.556  43.942   2.247
32815W        W 2696  23.233   0.888  14.507
32816W        W 2697   9.291  25.592  14.331
32817W        W 2698  28.101   2.780   1.221
32818W        W 2699   9.743   1.363  14.937
32819W        W 2700   3.264   8.167  10.923
32820W        W 2701  41.881  39.914  13.806
32821W        W 2702  38.543  41.967   0.849
32822W        W 2703   9.710  19.616   0.279
32823W        W 2704  40.027  43.381  13.363
32824W        W 2705  33.906  21.087  13.823
32825W        W 2706  43.969  16.228   3.845
32826W        W 2707  23.105  30.510  13.047
32827W        W 2708  16.577  32.055  11.512
32828W        W 2709  25.557  43.297   2.236
32829W        W 2710  25.616   8.262   2.286
32830W        W 2711  26.167  18.267   2.746
32831W        W 2712  10.227  41.845  11.088
32832W        W 2713  20.694  29.135   2.729
32833W        W 2714  40.338   8.270   1.760
32834W        W 2715  30.925  31.899   4.654
32835W        W 2716  23.152  20.727   4.327
32836W        W 2717   5.430   9.823  13.485
32837W        W 2718   0.905   1.962   5.107
32838W        W 2719  42.003  36.953   1.210
32839W        W 2720  39.972   7.196   1.825
32840W        W 2721  14.727  37.571   2.870
32841W        W 2722  32.459  20.110   4.806
32842W        W 2723  29.087  13.269  13.958
32843W        W 2724   5.292   5.831  10.928
32844W        W 2725  44.325  25.606  11.921
32845W        W 2726  41.028  42.469  14.006
32846W        W 2727   7.819   7.232   2.767
32847W        W 2728  44.331   7.401  13.878
32848W        W 2729  17.093  22.706  10.493
32849W        W 2730  31.016  11.141  11.052
32850W        W 2731  14.691  38.542   0.908
32851W        W 2732  24.078  13.156   0.265
32852W        W 2733  35.593   8.331  13.363
32853W        W 2734   3.775  39.433   2.705
32854W        W 2735  43.885  14.724   4.680
32855W        W 2736  25.030  31.974   1.706
32856W        W 2737  30.907  36.404  11.947
32857W        W 2738  14.285  40.039  14.872
32858W        W 2739  20.079  29.611   2.240
32859W        W 2740  38.399  36.073   4.604
32860W        W 2741  30.416   2.806  14.435
32861W        W 2742  44.263  16.575  11.967
32862W        W 2743  30.116   1.336   4.607
32863W        W 2744  13.194   5.290   2.194
32864W        W 2745  19.140   6.776   2.212
32865W        W 2746  22.674  11.280  12.548
32866W        W 2747   4.907  15.146  12.896
32867W        W 2748  16.214  34.942   0.755
32868W        W 2749  44.777  24.200  13.045
32869W        W 2750   9.204  31.117  10.403
32870W        W 2751  20.047  30.547  10.107
32871W        W 2752  40.535   3.441   9.948
32872W        W 2753  15.743  22.086   4.290
32873W        W 2754  25.117  36.057  13.375
32874W        W 2755  17.163  37.902   2.296
32875W        W 2756  30.578  28.543  12.510
32876W        W 2757  16.637  25.573   4.736
32877W        W 2758   2.469   6.762  12.529
32878W        W 2759  16.583  10.811   1.778
32879W        W 2760  14.825  37.024   3.212
32880W        W 2761  43.477  27.453   3.255
32881W        W 2762   0.318  23.571  13.966
32882W        W 2763  10.186  38.411   1.866
32883W        W 2764   5.324  34.372  10.924
32884W        W 2765   7.744  13.632   2.800
32885W        W 2766  39.367  44.940  12.356
32886W        W 2767  18.114   4.361   3.191
32887W        W 2768  39.412  26.624  11.543
32888W        W 2769   5.825  13.666   0.283
32889W        W 2770  38.002  29.579   4.748
32890W        W 2771  24.973   2.417  13.039
32891W        W 2772  43.369  27.458   1.712
32892W        W 2773  12.188  34.581   2.382
32893W        W 2774  25.081  10.840  12.997
32894W        W 2775   4.873  27.672   4.611
32895W        W 2776  33.489   5.285   3.262
32896W        W 2777  12.660   5.431   4.219
32897W        W 2778  33.993  14.782  14.428
32898W        W 2779  19.250  25.133  14.999
32899W        W 2780   8.303  33.877   0.330
32900W        W 2781  44.439  38.038  12.448
32901W        W 2782   8.331  40.921   4.192
32902W        W 2783  15.592  26.102  14.927
32903W        W 2784  18.203  29.120   2.746
32904W        W 2785  33.112  21.174   1.785
32905W        W 2786  36.398   7.218   4.825
32906W        W 2787  22.044  19.677   1.815
32907W        W 2788  13.264  37.571  11.913
32908W        W 2789  19.148  35.006   3.752
32909W        W 2790  12.219  41.407   2.667
32910W        W 2791   6.785  41.941  12.967
32911W        W 2792  35.063  22.740   1.355
32912W        W 2793  11.780  24.982   1.244
32913W        W 2794  28.463   9.277   0.737
32914W        W 2795  37.355  26.554   4.753
32915W        W 2796  15.601  41.805   4.736
32916W        W 2797  44.335   5.333   2.757
32917W        W 2798   3.785  23.030  11.598
32918W        W 2799  31.958  44.436  11.496
32919W        W 2800  21.733  27.614  13.398
32920W        W 2801  11.344  22.666   1.711
32921W        W 2802  28.638  36.593  11.072
32922W        W 2803   6.842  25.191  13.359
32923W        W 2804  16.794  30.977   2.180
32924W        W 2805  13.151  42.327  13.872
32925W        W 2806  32.917  30.425   0.839
32926W        W 2807  18.251  37.945   0.345
32927W        W 2808  34.971   5.867  13.801
32928W        W 2809  33.899   2.471  14.900
32929W        W 2810   5.700  12.829   1.819
32930W        W 2811  16.264  35.101  14.812
32931W        W 2812  33.580  43.909   3.708
32932W        W 2813  41.815  17.061  11.039
32933W        W 2814  28.931  12.799  13.405
32934W        W 2815  35.510   9.836  13.939
32935W        W 2816  40.929  27.160  10.493
32936W        W 2817  38.010  36.072   0.260
32937W        W 2818  33.896   9.667  14.847
32938W        W 2819  19.644  20.169   2.262
32939W        W 2820  38.001  37.343   1.776
32940W        W 2821  34.968  40.488   2.274
32941W        W 2822   4.816  22.516  10.521
32942W        W 2823  37.833   2.943  12.919
32943W        W 2824  30.129  34.949  11.484
32944W        W 2825  27.173   0.425  11.903
32945W        W 2826  14.693  10.261  10.602
32946W        W 2827   9.172  35.047   1.881
32947W        W 2828  28.131  43.963   2.308
32948W        W 2829  37.375   7.840  13.877
32949W        W 2830   2.919  36.883  13.545
32950W        W 2831   2.256   2.253  12.019
32951W        W 2832  29.455  16.085  11.408
32952W        W 2833  26.143  38.400   2.706
32953W        W 2834  33.452  15.591   9.941
32954W        W 2835   3.840  22.505   2.680
32955W        W 2836  42.440  16.264   0.305
32956W        W 2837   1.826  19.133  14.378
32957W        W 2838  32.067   7.800  13.921
32958W        W 2839  39.019  40.316   5.167
32959W        W 2840  22.661  28.005   1.695
32960W        W 2841  36.889  31.007   3.772
32961W        W 2842  36.078  27.168   3.231
32962W        W 2843  38.957  13.659  11.402
32963W        W 2844  40.928  23.009  14.290
32964W        W 2845  38.455  19.217  11.875
32965W        W 2846  25.029  38.034  12.409
32966W        W 2847  10.858  34.953   3.690
32967W        W 2848   9.671  11.625  10.967
32968W        W 2849  21.117  18.066   2.344
32969W        W 2850   0.376  38.876   0.964
32970W        W 2851  24.216  37.871   0.443
32971W        W 2852  33.067  16.739   3.742
32972W        W 2853  22.138  44.913  12.999
32973W        W 2854   9.669   3.831  10.899
32974W        W 2855  41.918  32.087   4.698
32975W        W 2856  40.340   9.860  11.952
32976W        W 2857  18.753  39.026   3.219
32977W        W 2858  17.091  29.493  14.984
32978W        W 2859  22.056  19.588   3.370
32979W        W 2860  30.909  14.163   4.149
32980W        W 2861  32.924  14.192   0.314
32981W        W 2862  10.361   8.890  14.410
32982W        W 2863  11.198  37.875   4.308
32983W        W 2864  39.342  37.440  11.004
32984W        W 2865  31.614  41.826  11.948
32985W        W 2866  35.975  16.705  14.377
32986W        W 2867  36.853  22.593   2.289
32987W        W 2868  21.076  17.629  13.917
32988W        W 2869  11.649  33.507   5.270
32989W        W 2870  30.014  12.833   0.835
32990W        W 2871  11.329  37.938   1.699
32991W        W 2872  18.128  30.638   4.221
32992W        W 2873  15.795  26.476  14.821
32993W        W 2874  15.746  33.501   2.854
32994W        W 2875  37.963  29.520  13.408
32995W        W 2876  20.666  18.243   1.421
32996W        W 2877  42.372   6.899  12.842
32997W        W 2878  36.567  19.603  13.012
32998W        W 2879   9.345   6.753   1.303
32999W        W 2880  41.981  26.625   0.809
33000W        W 2881  23.059  26.096  14.369
33001W        W 2882  44.770  26.036  11.473
33002W        W 2883  16.199  29.540   4.279
33003W        W 2884  14.209  12.338   2.386
33004W        W 2885  29.637  39.355  11.595
33005W        W 2886  36.897  28.145  13.790
33006W        W 2887  31.584  16.648   4.709
33007W        W 2888  36.869  16.752   4.816
33008W        W 2889   0.486  33.102   1.352
33009W        W 2890  39.848   1.955   2.736
33010W        W 2891  28.635  39.855   1.345
33011W        W 2892  40.992  29.948   3.681
33012W        W 2893  19.760  25.976   4.609
33013W        W 2894   9.654  18.641   5.275
33014W        W 2895   7.691  13.337   1.709
33015W        W 2896  28.180  33.590   1.840
33016W        W 2897  32.523  29.970   3.181
33017W        W 2898  39.009  14.138   5.163
33018W        W 2899  12.130  30.439  10.951
33019W        W 2900  32.428  44.462   1.366
33020W        W 2901  23.090  21.065   5.201
33021W        W 2902   2.770  36.862  12.900
33022W        W 2903  11.271   6.775   0.963
33023W        W 2904   5.753  23.722   3.315
33024W        W 2905  27.612  33.596   0.425
33025W        W 2906  26.083  13.242   2.285
33026W        W 2907  29.101  27.998   2.735
33027W        W 2908  24.087  34.897   1.927
33028W        W 2909  23.086   4.212   1.366
33029W        W 2910   3.263  33.062  12.462
33030W        W 2911  33.034   1.268  11.021
33031W        W 2912  34.420  37.543  14.511
33032W        W 2913  37.476  40.399  11.993
33033W        W 2914  14.253  27.514  11.861
33034W        W 2915  25.971   8.734  14.459
33035W        W 2916  20.695  22.621  13.884
33036W        W 2917  44.393  28.090  11.916
33037W        W 2918  20.560   6.836   4.162
33038W        W 2919  35.545  12.163   3.647
33039W        W 2920  31.408  17.277  13.420
33040W        W 2921  17.231  31.640   2.328
33041W        W 2922  33.559  32.034   1.320
33042W        W 2923  26.988  37.565  10.626
33043W        W 2924  19.630  16.577  14.805
33044W        W 2925  32.564  16.694   0.793
33045W        W 2926  28.066  27.571  10.891
33046W        W 2927  34.608  34.926   4.304
33047W        W 2928  20.262   5.850   2.238
33048W        W 2929  10.255  20.595   0.858
33049W        W 2930  36.388   0.901   0.947
33050W        W 2931  13.165  17.212   4.156
33051W        W 2932  28.552  16.083   2.191
33052W        W 2933  41.994  19.621  14.321
33053W        W 2934  41.410  23.499  12.480
33054W        W 2935  44.905  10.872  11.423
33055W        W 2936  27.636  36.490  13.032
33056W        W 2937   2.938  22.124   3.315
33057W        W 2938  39.010  37.451  12.345
33058W        W 2939  20.246  13.769   2.334
33059W        W 2940  34.964  43.363  13.912
33060W        W 2941  20.579   0.813   0.331
33061W        W 2942  43.847  37.382  12.541
33062W        W 2943  16.316   5.436  11.056
33063W        W 2944  10.287  18.567  10.981
33064W        W 2945   9.725  26.142  11.079
33065W        W 2946  43.424  39.405   2.237
33066W        W 2947  20.258  33.013   2.250
33067W        W 2948  41.521  42.446   4.732
33068W        W 2949  41.351  18.069  14.854
33069W        W 2950   8.403  30.066   2.221
33070W        W 2951  13.313  42.913  14.336
33071W        W 2952  22.173  35.577  14.818
33072W        W 2953   8.181  12.261  11.965
33073W        W 2954  35.433  14.801   3.184
33074W        W 2955  22.540  41.416   4.333
33075W        W 2956  35.867  12.127   0.732
33076W        W 2957   1.304   5.716   4.761
33077W        W 2958   8.228  38.363  14.329
33078W        W 2959  21.135  18.646   2.840
33079W        W 2960  21.726  39.838   2.307
33080W        W 2961  43.853  28.154   2.226
33081W        W 2962   8.868   4.434  14.020
33082W        W 2963  22.662  25.990  10.423
33083W        W 2964  23.023  31.476   0.895
33084W        W 2965  35.519  18.731   2.263
33085W        W 2966  42.922   9.694  11.553
33086W        W 2967  18.735  41.331   4.651
33087W        W 2968  39.509  17.201   4.139
33088W        W 2969  22.504  44.878  14.316
33089W        W 2970  13.719  19.103   0.886
33090W        W 2971  30.037  41.983  13.954
33091W        W 2972  12.357  36.008   0.909
33092W        W 2973  18.726  43.008  10.598
33093W        W 2974  38.001  22.675  12.467
33094W        W 2975   4.442   6.868   2.666
33095W        W 2976   8.731   2.269  14.880
33096W        W 2977  20.042  11.186   2.739
33097W        W 2978  21.074  12.154   1.349
33098W        W 2979  25.163   8.762  10.581
33099W        W 2980  27.175  37.546   0.380
33100W        W 2981  19.776  20.195   3.744
33101W        W 2982  25.593  33.595  13.311
33102W        W 2983  23.631   7.200  12.560
33103W        W 2984  18.623  26.114   4.601
33104W        W 2985  11.725  18.724   3.839
33105W        W 2986  34.015  32.456   1.791
33106W        W 2987   5.224   4.252  11.032
33107W        W 2988  32.117  41.424  13.412
33108W        W 2989  18.615  10.337  10.535
33109W        W 2990  17.073   1.871  14.363
33110W        W 2991  43.914  28.473   4.758
33111W        W 2992  16.265  32.532   4.672
33112W        W 2993  40.012  10.641  11.399
33113W        W 2994  35.920  28.034   2.754
33114W        W 2995  44.982  21.680  12.389
33115W        W 2996  42.423  18.545   3.328
33116W        W 2997  40.032  33.020  12.050
33117W        W 2998  21.740  17.719   4.169
33118W        W 2999   6.302  17.141   3.154
33119W        W 3000  42.846  23.232   4.261
33120W        W 3001   3.897  25.706   2.835
33121W        W 3002  33.906  35.575  12.021
33122W        W 3003  15.099  40.873  14.851
33123W        W 3004  36.379  37.070  11.925
33124W        W 3005  14.626   8.179   1.319
33125W        W 3006  36.913  26.565  11.420
33126W        W 3007  36.590  41.791  13.874
33127W        W 3008   3.835  18.547  13.332
33128W        W 3009   2.846  41.993   4.284
33129W        W 3010   4.770  13.352  13.919
33130W        W 3011  26.975   9.233   3.378
33131W        W 3012  38.407  23.085  11.107
33132W        W 3013  18.208  14.234  11.430
33133W        W 3014   2.879  37.424   3.315
33134W        W 3015  37.519   1.399  14.464
33135W        W 3016   0.865  42.780  13.414
33136W        W 3017   2.967   9.654   1.422
33137W        W 3018  37.919  13.673   0.261
33138W        W 3019   1.960  43.482  14.444
33139W        W 3020  13.266  39.541   4.636
33140W        W 3021  39.016   5.781   1.308
33141W        W 3022  11.818  39.554  13.927
33142W        W 3023  32.509  12.345   0.838
33143W        W 3024  10.316  37.420   5.256
33144W        W 3025  40.340   8.890   3.666
33145W        W 3026  27.113  44.306   2.211
33146W        W 3027  35.474  12.755   2.239
33147W        W 3028   7.178  21.546  13.943
33148W        W 3029  44.973  16.803   1.846
33149W        W 3030  36.891  32.558  13.804
33150W        W 3031  11.844  32.906  14.865
33151W        W 3032  38.989  13.627  14.471
33152W        W 3033  27.503  25.139   3.163
33153W        W 3034  13.790   2.419   4.802
33154W        W 3035  43.876  39.398   2.249
33155W        W 3036  23.540  25.998   2.322
33156W        W 3037  24.484  34.109  14.862
33157W        W 3038   0.782   1.818  13.018
33158W        W 3039  10.334  44.360  10.415
33159W        W 3040  44.915  12.613  12.350
33160W        W 3041  41.867  36.930   1.785
33161W        W 3042  21.130  27.653   4.202
33162W        W 3043  29.019  17.749   4.339
33163W        W 3044   5.329  39.418  11.875
33164W        W 3045  30.910   5.833  13.419
33165W        W 3046  35.078  26.112  13.048
33166W        W 3047   9.801  36.569  14.864
33167W        W 3048  34.988  39.822   0.889
33168W        W 3049   6.775   3.903   0.883
33169W        W 3050   7.283  21.168   3.724
33170W        W 3051   8.679  38.341  14.425
33171W        W 3052  35.576  13.119   3.773
33172W        W 3053  17.779  42.893  12.474
33173W        W 3054  27.475   9.821  13.854
33174W        W 3055  13.845  13.207   3.691
33175W        W 3056  35.939  33.382   1.398
33176W        W 3057  15.174  27.056  14.026
33177W        W 3058  21.253  23.166  13.319
33178W        W 3059   5.335  19.092   4.827
33179W        W 3060   2.757  10.665   1.432
33180W        W 3061   8.233   5.405   2.252
33181W        W 3062  10.320  40.833   3.258
33182W        W 3063  33.938   7.911  13.438
33183W        W 3064  16.652  41.531   0.334
33184W        W 3065  30.418  41.928  13.538
33185W        W 3066  32.549  16.798  11.057
33186W        W 3067  11.764  16.811   1.931
33187W        W 3068  40.497  37.390   3.309
33188W        W 3069  21.148  12.737  11.400
33189W        W 3070  12.298  13.194  14.290
33190W        W 3071  27.101  11.865  13.042
33191W        W 3072   4.241  27.980   4.703
33192W        W 3073  36.063  15.264   2.303
33193W        W 3074  36.878   2.890   2.393
33194W        W 3075  44.787  29.489   4.142
33195W        W 3076  17.769   3.882  14.994
33196W        W 3077  31.049  17.279  13.490
33197W        W 3078  30.616  24.113   4.803
33198W        W 3079  20.721   0.899  12.389
33199W        W 3080  31.428  38.348   0.410
33200W        W 3081  36.954  15.580   0.783
33201W        W 3082  22.620  15.315  13.975
33202W        W 3083   9.173  37.538  11.459
33203W        W 3084  27.649  25.505   1.388
33204W        W 3085  10.266  41.986   3.324
33205W        W 3086  11.783  28.034  10.993
33206W        W 3087  29.026  11.835  13.856
33207W        W 3088  39.504   0.745   1.264
33208W        W 3089  32.633  26.609   4.643
33209W        W 3090  17.690   7.840   3.763
33210W        W 3091  36.417   9.814   1.856
33211W        W 3092  15.295  33.431   2.719
33212W        W 3093   8.213  19.089  12.515
33213W        W 3094  29.466  35.108   4.653
33214W        W 3095  23.669  29.494  11.484
33215W        W 3096  44.003  39.866  13.329
33216W        W 3097   3.904  14.166   1.232
33217W        W 3098  24.119  12.239   4.195
33218W        W 3099  23.097   3.246   3.249
33219W        W 3100  15.319  40.356   4.199
33220W        W 3101  12.293  38.525  14.824
33221W        W 3102  25.099   8.290   1.224
33222W        W 3103  11.305  12.284  11.551
33223W        W 3104   6.759   1.477  14.965
33224W        W 3105  37.572  20.192   3.744
33225W        W 3106  19.722  13.240  13.826
33226W        W 3107  28.523  30.117   0.816
33227W        W 3108   4.740  27.957   5.130
33228W        W 3109   8.712  21.642   3.664
33229W        W 3110  34.996  30.009  10.909
33230W        W 3111  23.115  18.665   2.701
33231W        W 3112  23.130  27.571   2.210
33232W        W 3113  31.928  36.013   2.832
33233W        W 3114  43.912  32.566  13.912
33234W        W 3115  39.325  38.043   0.364
33235W        W 3116  18.767  13.683   4.127
33236W        W 3117  42.995  23.709   3.373
33237W        W 3118   9.682  31.004   1.425
33238W        W 3119   4.820  33.899   0.465
33239W        W 3120   3.425   6.698   3.750
33240W        W 3121  25.663  27.563  13.002
33241W        W 3122  42.903  10.147   0.793
33242W        W 3123  22.524   6.713  11.109
33243W        W 3124   6.778   9.870  11.039
33244W        W 3125  16.285  38.823   4.694
33245W        W 3126  34.427  30.580  13.500
33246W        W 3127  30.143  21.082   3.357
33247W        W 3128   9.667  21.145  12.483
33248W        W 3129   7.340  18.788  10.466
33249W        W 3130  13.670  16.760  10.980
33250W        W 3131  22.548  20.567  12.355
33251W        W 3132  23.203  11.841  13.814
33252W        W 3133  41.819  18.106   0.370
33253W        W 3134  26.957   3.351   0.451
33254W        W 3135  22.153   9.189  12.050
33255W        W 3136  14.138  41.324   2.331
33256W        W 3137   5.699   4.391  14.771
33257W        W 3138  23.558  19.209   2.853
33258W        W 3139  26.060   8.719  13.461
33259W        W 3140  12.299  28.931  10.968
33260W        W 3141  31.033  34.505  11.900
33261W        W 3142  25.019   3.421   0.895
33262W        W 3143  31.557  24.514  12.946
33263W        W 3144  29.167  14.831   3.332
33264W        W 3145   5.930   3.817  13.014
33265W        W 3146   8.826  27.552   0.480
33266W        W 3147  35.598   7.291   2.741
33267W        W 3148  29.504   0.881   5.101
33268W        W 3149  14.157  34.051  12.038
33269W        W 3150  19.704   8.806  10.891
33270W        W 3151   3.370  42.858   2.799
33271W        W 3152  37.862   3.394  14.956
33272W        W 3153  16.105  20.765   1.893
33273W        W 3154  44.492   2.747  11.918
33274W        W 3155  12.339   5.805   0.248
33275W        W 3156  40.530  12.342   2.772
33276W        W 3157  43.017   8.894  14.010
33277W        W 3158  43.972  34.898   1.813
33278W        W 3159   9.889  18.095  10.407
33279W        W 3160  31.608  36.487  11.408
33280W        W 3161  22.712  22.047   0.728
33281W        W 3162   0.384   6.286  10.642
33282W        W 3163  16.808   9.677   2.190
33283W        W 3164  32.629  12.635   1.411
33284W        W 3165   5.698  32.546   4.746
33285W        W 3166  23.608  34.579  14.958
33286W        W 3167   4.884  20.651  12.471
33287W        W 3168  27.475  32.965   3.354
33288W        W 3169   3.895  25.978   3.291
33289W        W 3170  43.426  35.993  11.533
33290W        W 3171  43.291  29.575  11.096
33291W        W 3172  40.352  33.448   4.294
33292W        W 3173  13.238   3.775  10.634
33293W        W 3174   0.934  42.417   1.262
33294W        W 3175  30.449  23.164  12.491
33295W        W 3176  14.694  29.582  11.959
33296W        W 3177  25.552  43.015  11.048
33297W        W 3178  40.813   2.425  10.900
33298W        W 3179   2.865  23.538  10.572
33299W        W 3180  13.331   3.854   1.718
33300W        W 3181   1.260   8.223   2.784
33301W        W 3182  24.127  34.934   3.781
33302W        W 3183  12.816   6.889   0.254
33303W        W 3184  35.855  14.594   4.683
33304W        W 3185  26.120  19.284   2.314
33305W        W 3186   8.257  32.619  14.805
33306W        W 3187  12.341  32.409   0.961
33307W        W 3188  13.682  14.730   0.312
33308W        W 3189  14.110  16.750   0.776
33309W        W 3190   9.694   0.905  13.994
33310W        W 3191  29.517   5.225  10.919
33311W        W 3192  37.972   5.899  10.515
33312W        W 3193  29.012   0.897   2.844
33313W        W 3194  31.026  40.363  12.027
33314W        W 3195  10.773  11.356   2.317
33315W        W 3196  20.561  16.659  11.523
33316W        W 3197   6.918   6.841  11.014
33317W        W 3198  37.953  18.165  11.068
33318W        W 3199  39.975   2.934   2.405
33319W        W 3200  18.574  18.168   0.795
33320W        W 3201   7.309   3.727  11.122
33321W        W 3202  14.219  15.784   4.654
33322W        W 3203  28.581  23.703   0.378
33323W        W 3204  28.488  41.888   0.888
33324W        W 3205   1.270   3.828   0.424
33325W        W 3206  34.035  22.592  11.016
33326W        W 3207   5.249  21.660   0.314
33327W        W 3208   8.654  10.803   2.344
33328W        W 3209  14.325  43.315  10.455
33329W        W 3210  20.744  19.226   1.803
33330W        W 3211   1.851   3.251   2.377
33331W        W 3212  12.645   1.438   2.768
33332W        W 3213  38.840  39.491  13.416
33333W        W 3214   7.309  23.126   2.393
33334W        W 3215  14.333  34.397  14.991
33335W        W 3216  39.854  44.286   2.355
33336W        W 3217  37.471   1.752   2.695
33337W        W 3218  44.780  17.728   0.373
33338W        W 3219   1.408   9.235   3.660
33339W        W 3220  36.987  32.513   3.629
33340W        W 3221  44.881  26.130  12.030
33341W        W 3222  21.067  38.027   0.965
33342W        W 3223  32.904  17.213   3.154
33343W        W 3224  18.104  29.040  12.446
33344W        W 3225   7.270  41.970  11.460
33345W        W 3226  15.666  25.677   2.351
33346W        W 3227  10.177  12.320  14.957
33347W        W 3228  11.307  34.109  11.483
33348W        W 3229  17.140  27.602   4.257
33349W        W 3230  33.428  20.640   1.818
33350W        W 3231  42.970  10.260  14.827
33351W        W 3232  31.999   1.380   3.868
33352W        W 3233  15.237  41.418   1.346
33353W        W 3234   0.865  37.986  11.562
33354W        W 3235  13.111   7.819   0.834
33355W        W 3236  11.849  34.103  14.959
33356W        W 3237  21.233   9.847  14.896
33357W        W 3238  33.995  26.478  14.843
33358W        W 3239   6.218   5.390   4.325
33359W        W 3240  32.506  39.951  14.461
33360W        W 3241   4.283  14.262   0.924
33361W        W 3242  27.673  33.121  13.370
33362W        W 3243  39.980  33.080   3.792
33363W        W 3244   7.254   3.224  11.985
33364W        W 3245  31.929  29.464  14.855
33365W        W 3246  40.330  18.163  10.988
33366W        W 3247  33.066  44.996  14.759
33367W        W 3248   1.237  22.100  14.361
33368W        W 3249  29.050  20.086  12.344
33369W        W 3250  35.565  11.744   2.276
33370W        W 3251  15.154  40.903   3.155
33371W        W 3252  23.231  20.144  13.829
33372W        W 3253  14.830  19.716   1.323
33373W        W 3254  12.337  26.951   2.730
33374W        W 3255  12.774  22.242  10.974
33375W        W 3256  19.055  23.197   2.893
33376W        W 3257  14.712  39.927  12.467
33377W        W 3258  28.440   5.710   5.253
33378W        W 3259  42.967  12.631   4.659
33379W        W 3260  32.604  32.078  14.814
33380W        W 3261  12.745   6.699   3.190
33381W        W 3262  23.174  44.808   3.712
33382W        W 3263  20.101  16.252   3.778
33383W        W 3264  44.270   0.377  13.487
33384W        W 3265  24.712  42.392  10.621
33385W        W 3266   3.331  25.712  10.956
33386W        W 3267  24.670   2.351  12.984
33387W        W 3268  44.993  23.105  14.870
33388W        W 3269  31.145  27.535  11.885
33389W        W 3270   5.376   5.862  11.577
33390W        W 3271  21.154   3.335  14.775
33391W        W 3272  24.078   1.778   9.947
33392W        W 3273  44.930   3.952   1.329
33393W        W 3274   9.229  32.510  10.551
33394W        W 3275  20.549  44.831  11.406
33395W        W 3276  32.604  19.262  14.330
33396W        W 3277  20.274   0.467   0.792
33397W        W 3278  19.275  15.170  14.355
33398W        W 3279  29.963  36.871  14.429
33399W        W 3280  28.579  41.432   1.336
33400W        W 3281  37.926  28.087  12.574
33401W        W 3282  23.133  33.876   1.225
33402W        W 3283  15.211   6.410   1.695
33403W        W 3284   5.878  17.115   0.769
33404W        W 3285  34.083  21.622  14.789
33405W        W 3286  27.069  24.561  14.327
33406W        W 3287   4.784  43.995  11.881
33407W        W 3288  32.038  23.564  11.374
33408W        W 3289   0.327  28.041  12.530
33409W        W 3290  41.375  29.547  12.560
33410W        W 3291  36.997   3.779  13.818
33411W        W 3292  22.241   3.740   0.812
33412W        W 3293   2.350  16.085   4.164
33413W        W 3294  23.591  41.315   2.681
33414W        W 3295  15.765  15.117  10.942
33415W        W 3296   5.399  21.149   3.857
33416W        W 3297  18.763  21.020   3.237
33417W        W 3298  16.072   5.923  14.353
33418W        W 3299   1.959  18.731   2.723
33419W        W 3300  17.581  24.220  13.983
33420W        W 3301  18.650  15.126   3.689
33421W        W 3302   8.240  24.520  14.351
33422W        W 3303   7.383   4.838  10.958
33423W        W 3304  12.629  35.491   4.636
33424W        W 3305   9.737  13.127  12.471
33425W        W 3306  19.190  43.018   3.155
33426W        W 3307  14.818   7.880   1.756
33427W        W 3308  37.838   7.273  11.032
33428W        W 3309  32.439   8.726  14.289
33429W        W 3310  36.887   1.745  12.846
33430W        W 3311  30.083  41.808  10.969
33431W        W 3312  43.956  30.028   3.773
33432W        W 3313  36.471  33.541   2.260
33433W        W 3314   6.283  44.309  10.109
33434W        W 3315  17.097  16.237   0.358
33435W        W 3316  12.191  35.009   1.806
33436W        W 3317  12.310  13.137  11.081
33437W        W 3318  31.136  29.955  13.852
33438W        W 3319  10.686  19.223  13.817
33439W        W 3320  34.536  34.034  10.555
33440W        W 3321  26.622  33.413   0.907
33441W        W 3322  20.193  18.209   0.276
33442W        W 3323  14.270   6.848   0.353
33443W        W 3324  34.975  24.538  13.348
33444W        W 3325  17.131  22.095   2.295
33445W        W 3326   7.359  17.252  10.934
33446W        W 3327  38.474  10.647   4.311
33447W        W 3328   4.210  28.677  11.929
33448W        W 3329  21.137   2.368  11.865
33449W        W 3330   8.708  37.883   4.335
33450W        W 3331  29.980  27.606   4.354
33451W        W 3332  44.970   1.761  12.931
33452W        W 3333  18.739  14.812   4.166
33453W        W 3334   6.217  14.825   3.196
33454W        W 3335   8.778  35.970   0.413
33455W        W 3336  32.034  33.393   5.176
33456W        W 3337   1.455  34.990   0.427
33457W        W 3338  19.673  10.211   3.304
33458W        W 3339  32.608  10.780   0.740
33459W        W 3340   7.317  29.092   3.682
33460W        W 3341  29.060   9.212  11.433
33461W        W 3342  10.797   5.271   3.177
33462W        W 3343   5.748   8.763   2.414
33463W        W 3344  27.101  39.858  13.823
33464W        W 3345  38.405   8.851  10.955
33465W        W 3346  34.037  29.125  14.838
33466W        W 3347  43.995   5.377  12.967
33467W        W 3348  16.299  44.776  11.562
33468W        W 3349  14.619  44.336   0.450
33469W        W 3350  10.740  19.577   3.792
33470W        W 3351  31.595  12.634   2.731
33471W        W 3352  31.973   0.349  12.084
33472W        W 3353  32.026  39.466   4.188
33473W        W 3354  37.338  28.048   3.338
33474W        W 3355   1.309  32.103   0.867
33475W        W 3356  29.120  17.558  11.465
33476W        W 3357  32.501   2.814   2.855
33477W        W 3358  27.182   3.871   1.770
33478W        W 3359  30.102   2.240   2.759
33479W        W 3360  21.642  17.104   5.162
33480W        W 3361  15.674  30.447  13.990
33481W        W 3362   3.266  28.171  11.073
33482W        W 3363  39.407  14.831  13.528
33483W        W 3364  13.272  27.561  10.927
33484W        W 3365   9.249  38.823  12.507
33485W        W 3366   5.910   0.771  14.774
33486W        W 3367   2.409  34.980   3.195
33487W        W 3368  32.450  13.674  13.334
33488W        W 3369  10.793  28.607   2.735
33489W        W 3370  37.849  15.738  13.938
33490W        W 3371   5.720  16.263   0.803
33491W        W 3372  20.660  39.516  11.922
33492W        W 3373   3.939  19.611   3.869
33493W        W 3374  14.144  32.458   0.245
33494W        W 3375  10.217  34.484   1.241
33495W        W 3376  19.761  20.686   4.804
33496W        W 3377  37.997   2.340  10.573
33497W        W 3378   3.457  44.932  12.033
33498W        W 3379  10.718  39.404   2.899
33499W        W 3380  44.418   2.251   0.345
33500W        W 3381  22.601  39.814   3.349
33501W        W 3382  12.211  40.998   3.715
33502W        W 3383  39.324  32.890   3.322
33503W        W 3384  23.599  24.707  14.424
33504W        W 3385   0.392  24.519   1.833
33505W        W 3386  20.117  17.145  11.455
33506W        W 3387  37.356   5.862   2.756
33507W        W 3388   0.832  34.052  10.509
33508W        W 3389  37.505  23.198   4.252
33509W        W 3390  23.085  28.476   3.721
33510W        W 3391  19.071  17.299  10.541
33511W        W 3392  41.420  21.728   0.817
33512W        W 3393  27.940  38.844  10.909
33513W        W 3394   8.738  44.824   0.417
33514W        W 3395   7.907  24.144  12.050
33515W        W 3396  19.046  32.518  11.489
33516W        W 3397   4.896  37.377  12.374
33517W        W 3398  34.920  24.642   0.374
33518W        W 3399  39.939   7.849  12.486
33519W        W 3400  19.148  10.673   3.861
33520W        W 3401  28.027  13.212   3.224
33521W        W 3402  26.682   0.744  11.074
33522W        W 3403  25.509   5.896  11.477
33523W        W 3404   1.844  37.433  14.941
33524W        W 3405   2.394  29.962  10.958
33525W        W 3406   3.812  21.752  14.977
33526W        W 3407  19.751  26.579   1.836
33527W        W 3408  22.570  19.145   1.759
33528W        W 3409  11.823  26.605   0.351
33529W        W 3410  28.080  26.073  13.458
33530W        W 3411  10.794  16.643  14.309
33531W        W 3412  35.417  38.889   2.308
33532W        W 3413  42.992  22.613   0.957
33533W        W 3414  44.878  16.616   4.674
33534W        W 3415  24.150   1.424  12.437
33535W        W 3416  29.572   5.259   1.856
33536W        W 3417  36.497   7.668   3.851
33537W        W 3418   4.818  30.084  11.102
33538W        W 3419  26.674  23.730   0.841
33539W        W 3420  24.018  43.783  12.858
33540W        W 3421  35.975  37.569  10.409
33541W        W 3422  18.788   8.793   9.954
33542W        W 3423  29.172   3.856   2.258
33543W        W 3424  34.491  34.927   0.954
33544W        W 3425  30.996   4.354  12.510
33545W        W 3426  39.389   4.810  11.576
33546W        W 3427  21.230  18.124  12.347
33547W        W 3428  19.618  27.136  13.467
33548W        W 3429  39.904  39.393   1.905
33549W        W 3430   2.449  14.799   4.610
33550W        W 3431   9.235  10.810  11.943
33551W        W 3432   1.463   4.362  14.864
33552W        W 3433  44.802  23.667  14.495
33553W        W 3434  20.615  19.682   4.805
33554W        W 3435  23.139   6.391  11.550
33555W        W 3436  39.901  23.070   2.807
33556W        W 3437  44.412  11.718  14.506
33557W        W 3438  20.743  24.520   0.318
33558W        W 3439  31.051  41.868   2.836
33559W        W 3440  17.261  42.377  12.026
33560W        W 3441  29.439  38.819  10.914
33561W        W 3442  14.716  29.986   1.931
33562W        W 3443  41.015   9.845   3.712
33563W        W 3444  42.887   2.390  14.871
33564W        W 3445  20.549   4.923  11.481
33565W        W 3446  28.153   8.669  10.041
33566W        W 3447  23.990  29.924  11.064
33567W        W 3448  20.241   9.231  14.489
33568W        W 3449  22.640  10.329   5.271
33569W        W 3450  42.979  15.114   2.850
33570W        W 3451  10.876  34.973  11.861
33571W        W 3452  15.665  27.445  14.022
33572W        W 3453  43.313  17.098   4.139
33573W        W 3454   3.375  25.076   0.287
33574W        W 3455  26.975   6.893   2.291
33575W        W 3456  16.309  38.916   0.737
33576W        W 3457   4.926  22.664   3.691
33577W        W 3458  28.117  13.195   0.439
33578W        W 3459  30.975  35.889   9.998
33579W        W 3460  30.509  24.208   0.811
33580W        W 3461  14.339  23.238  10.636
33581W        W 3462  32.567  28.186  11.073
33582W        W 3463  26.477  33.109  13.472
33583W        W 3464  40.515  11.764  14.911
33584W        W 3465   9.784  39.543  13.319
33585W        W 3466   6.377   8.678  14.362
33586W        W 3467  40.447  30.619  13.817
33587W        W 3468   7.271  41.003  10.889
33588W        W 3469   5.723  23.519   0.282
33589W        W 3470  23.045  20.627   1.932
33590W        W 3471  33.935  17.749   4.714
33591W        W 3472  36.425  39.841  13.514
33592W        W 3473  23.206  15.759   0.284
33593W        W 3474  18.126  29.048   5.105
33594W        W 3475  14.307  29.508  10.411
33595W        W 3476  18.664  33.453  10.470
33596W        W 3477  36.359  33.545  11.968
33597W        W 3478  40.822  44.841   4.158
33598W        W 3479  16.233  16.658   3.292
33599W        W 3480  38.479  36.873   0.905
33600W        W 3481   1.803  17.642  12.957
33601W        W 3482  11.822  15.305  12.563
33602W        W 3483  44.937  38.039   4.781
33603W        W 3484  12.334  43.318  12.061
33604W        W 3485  28.520  16.629  14.397
33605W        W 3486  22.173  26.100  10.945
33606W        W 3487  28.630   7.301   0.897
33607W        W 3488   9.360  34.597   2.210
33608W        W 3489   7.368  30.988   2.215
33609W        W 3490  41.978   2.837   1.850
33610W        W 3491   8.282  40.805   1.918
33611W        W 3492  29.173  13.623  11.956
33612W        W 3493  40.409  34.051   0.905
33613W        W 3494  12.316  18.221   2.218
33614W        W 3495  24.620  15.234  11.536
33615W        W 3496  31.108   7.743  11.987
33616W        W 3497  40.810   4.843  12.935
33617W        W 3498  14.601   4.211   4.834
33618W        W 3499  19.629  44.489  12.373
33619W        W 3500   8.385  26.157   1.859
33620W        W 3501  42.401  18.267   3.227
33621W        W 3502  23.605  25.694  10.978
33622W        W 3503  34.514  36.579  11.012
33623W        W 3504  42.831  42.804   4.766
33624W        W 3505  36.852  14.746  10.609
33625W        W 3506  18.231  23.708   4.812
33626W        W 3507  17.762   0.818   4.681
33627W        W 3508  29.573  30.960   0.254
33628W        W 3509  21.595  12.117   0.370
33629W        W 3510  21.559  33.972  13.970
33630W        W 3511  21.170  24.051   2.267
33631W        W 3512  23.509  23.051  13.030
33632W        W 3513  15.251  24.139  14.973
33633W        W 3514  29.471  38.544  13.933
33634W        W 3515   0.389  31.542   0.412
33635W        W 3516  23.103  20.136  12.875
33636W        W 3517   0.404  32.497   1.817
33637W        W 3518   5.235   8.315  11.609
33638W        W 3519  12.340  35.055   2.816
33639W        W 3520  13.168  35.891  13.794
33640W        W 3521   4.374  28.526   0.421
33641W        W 3522  30.648  40.017  14.027
33642W        W 3523  37.880  14.787   2.898
33643W        W 3524  17.277  11.295  11.399
33644W        W 3525  31.966   7.379  14.940
33645W        W 3526  41.408  16.082  12.962
33646W        W 3527  26.493  23.217   2.393
33647W        W 3528  44.270  19.573   2.342
33648W        W 3529  17.654  16.211  12.890
33649W        W 3530  26.599  24.718   2.867
33650W        W 3531  10.867  43.991  14.787
33651W        W 3532  40.853  33.575   0.807
33652W        W 3533   3.303  27.135   2.402
33653W        W 3534  38.515   8.235  12.875
33654W        W 3535  43.406  43.406   1.377
33655W        W 3536   4.769   6.410  13.850
33656W        W 3537  24.704  42.329   4.781
33657W        W 3538  39.376  16.101  12.393
33658W        W 3539   1.798  36.036   4.813
33659W        W 3540  27.461  25.964   1.396
33660W        W 3541  28.058  28.010  11.476
33661W        W 3542  15.125   0.386  13.503
33662W        W 3543  17.651  29.960  14.509
33663W        W 3544  22.154  40.345  12.866
33664W        W 3545  33.986  27.577   2.274
33665W        W 3546   4.297  10.770  11.883
33666W        W 3547   9.255   7.397   5.265
33667W        W 3548  31.116  39.539  10.483
33668W        W 3549  15.156  10.225  14.508
33669W        W 3550  42.839  28.069  10.974
33670W        W 3551  24.073  40.867   3.179
33671W        W 3552   8.759  42.486  11.485
33672W        W 3553   3.448  37.465  11.413
33673W        W 3554  17.130   8.290   3.716
33674W        W 3555   7.743  14.630   0.381
33675W        W 3556  12.655   0.762  13.009
33676W        W 3557  32.483   9.188  12.372
33677W        W 3558  16.656   9.832   1.767
33678W        W 3559  29.085  13.640   4.638
33679W        W 3560  33.959  38.336  10.996
33680W        W 3561  10.262   7.372  10.929
33681W        W 3562  19.723   9.376   4.296
33682W        W 3563  17.302  36.080  12.975
33683W        W 3564  11.194   3.852   3.756
33684W        W 3565  25.983  41.345   4.304
33685W        W 3566  10.342   2.309  10.579
33686W        W 3567  24.036  10.648  11.920
33687W        W 3568  39.453  32.594   2.248
33688W        W 3569  22.235   4.753   4.152
33689W        W 3570  38.929  20.703  11.090
33690W        W 3571   0.362   2.925  10.570
33691W        W 3572   2.468  33.575   4.770
33692W        W 3573  43.828  33.394   4.308
33693W        W 3574  35.568   2.779  12.011
33694W        W 3575  32.919  28.061   4.174
33695W        W 3576  31.560  29.175   3.814
33696W        W 3577  40.476  39.903  14.899
33697W        W 3578  11.289  28.442   1.852
33698W        W 3579  21.057   5.327   3.232
33699W        W 3580  21.651  32.108  12.377
33700W        W 3581  41.405  43.996   0.480
33701W        W 3582  44.339   4.726  14.380
33702W        W 3583   1.924   5.885  11.463
33703W        W 3584  36.395  40.949   2.270
33704W        W 3585  31.567  31.502  10.998
33705W        W 3586  30.024  32.047  12.363
33706W        W 3587   2.384  13.696  12.897
33707W        W 3588  42.851  12.247   0.764
33708W        W 3589  42.880  18.209  14.411
33709W        W 3590  42.385  30.086  12.404
33710W        W 3591  18.121   9.248  12.438
33711W        W 3592  40.894   4.806  10.109
33712W        W 3593   6.888  11.832   4.323
33713W        W 3594  43.455  12.215   4.208
33714W        W 3595  26.155  30.934  12.918
33715W        W 3596  17.110   2.910  13.915
33716W        W 3597  10.697   3.461   4.609
33717W        W 3598  43.469   0.303  11.604
33718W        W 3599   4.773  18.210  14.323
33719W        W 3600  22.204  35.109  11.926
33720W        W 3601   4.311  38.561   3.195
33721W        W 3602  23.029  12.828   4.813
33722W        W 3603  10.344  32.458  12.461
33723W        W 3604   2.389  25.626   2.758
33724W        W 3605  12.301  43.022   4.150
33725W        W 3606   5.849   6.883  13.473
33726W        W 3607  37.993   6.398  13.317
33727W        W 3608  36.060  22.577   1.309
33728W        W 3609  28.124  27.690   1.218
33729W        W 3610  25.488  18.757  12.934
33730W        W 3611  23.143  35.362   2.716
33731W        W 3612   2.293   1.880   3.828
33732W        W 3613  12.759  30.535  11.893
33733W        W 3614   8.218  18.657   3.268
33734W        W 3615   5.198   0.925   4.818
33735W        W 3616  41.504  35.602  14.412
33736W        W 3617  39.954  21.183  12.863
33737W        W 3618  12.127  29.471  13.411
33738W        W 3619  12.294  35.020   4.658
33739W        W 3620   2.753   0.787  12.496
33740W        W 3621  14.136  40.333  11.985
33741W        W 3622  22.502   1.458   5.255
33742W        W 3623  19.677  13.161   4.679
33743W        W 3624   7.818   7.871   1.416
33744W        W 3625  34.105  15.716  12.970
33745W        W 3626  38.471  29.669  14.368
33746W        W 3627   3.810  25.589  13.515
33747W        W 3628  40.518  43.509  11.433
33748W        W 3629  40.463   7.186  12.550
33749W        W 3630  26.560  17.304   1.884
33750W        W 3631  29.004   1.778   0.936
33751W        W 3632  40.880  22.628  12.972
33752W        W 3633   4.223  31.575  10.974
33753W        W 3634  42.953  16.263   1.220
33754W        W 3635   7.738  32.027   1.366
33755W        W 3636  15.231   1.940   2.239
33756W        W 3637  22.513   8.759   0.917
33757W        W 3638  26.028  11.784   1.834
33758W        W 3639  11.350   3.840  12.076
33759W        W 3640  21.671  41.314  13.408
33760W        W 3641  15.590  19.206   4.807
33761W        W 3642  15.695  10.771  11.608
33762W        W 3643   7.310  32.959  13.425
33763W        W 3644  40.041  30.627   3.726
33764W        W 3645  28.064  41.463  11.913
33765W        W 3646  34.989  15.683   1.433
33766W        W 3647  33.058  19.748   4.761
33767W        W 3648  11.661  37.938   0.476
33768W        W 3649  28.470   3.711   4.169
33769W        W 3650  13.342  13.339  13.022
33770W        W 3651  31.589  16.295   2.670
33771W        W 3652  39.548  17.289  11.933
33772W        W 3653  32.962  44.311   3.147
33773W        W 3654   5.205   7.339   2.883
33774W        W 3655  26.645  39.890  13.449
33775W        W 3656  33.074   9.252  11.099
33776W        W 3657  43.361  23.526  12.397
33777W        W 3658  12.618   8.748   2.300
33778W        W 3659   7.184   8.883   2.719
33779W        W 3660   5.932  38.512   2.694
33780W        W 3661  36.082   6.705  14.343
33781W        W 3662   3.878   0.743  12.566
33782W        W 3663  20.661   4.829  12.943
33783W        W 3664  21.144  11.837  14.293
33784W        W 3665   4.319  22.031  11.112
33785W        W 3666  29.443  33.968   4.133
33786W        W 3667  10.331  37.891  14.992
33787W        W 3668  25.639   7.188  13.943
33788W        W 3669  19.693  40.484   3.845
33789W        W 3670  42.970  31.483  11.443
33790W        W 3671  29.093  14.735  11.453
33791W        W 3672   7.222  44.789  14.513
33792W        W 3673   6.870   3.886   2.340
33793W        W 3674  11.174  17.723   0.825
33794W        W 3675  32.974  16.632   2.204
33795W        W 3676  13.780  38.920   1.263
33796W        W 3677  42.809   4.722  10.120
33797W        W 3678  10.780   7.805   4.646
33798W        W 3679  36.077   7.799  11.495
33799W        W 3680   0.768   7.884  10.495
33800W        W 3681  34.106  25.674   4.351
33801W        W 3682  29.941  30.930   1.795
33802W        W 3683  21.235  39.351   0.780
33803W        W 3684  33.604  28.637  14.008
33804W        W 3685  28.048  29.624  12.376
33805W        W 3686  14.293   6.233  13.025
33806W        W 3687  43.830  26.208   2.672
33807W        W 3688  42.839   3.792  13.356
33808W        W 3689   0.334  31.424  10.899
33809W        W 3690   5.398  38.894   2.416
33810W        W 3691  40.900  33.928   0.888
33811W        W 3692  29.663  23.577   1.214
33812W        W 3693  29.530  19.152  10.891
33813W        W 3694  20.203  31.561  11.078
33814W        W 3695  30.572  11.639   3.752
33815W        W 3696   7.253   0.989   3.315
33816W        W 3697  25.685   0.757   5.218
33817W        W 3698  10.218   6.234  14.435
33818W        W 3699  42.029  13.636  13.313
33819W        W 3700   7.690   4.444   1.268
33820W        W 3701  22.128  35.976   4.139
33821W        W 3702  26.174  21.066  12.838
33822W        W 3703  40.357   0.351  10.528
33823W        W 3704  39.008  19.605  12.408
33824W        W 3705  29.647  36.871  14.004
33825W        W 3706   4.911   4.784   4.186
33826W        W 3707   7.265   7.192  10.560
33827W        W 3708  28.673   3.316  13.050
33828W        W 3709  12.801  13.140  13.046
33829W        W 3710  24.649   6.847   2.316
33830W        W 3711  30.651  22.106  14.879
33831W        W 3712  33.960   9.767  12.948
33832W        W 3713  17.123  21.088  13.370
33833W        W 3714  33.407  16.626  10.616
33834W        W 3715   2.309  19.681  11.559
33835W        W 3716  31.128  15.654   0.966
33836W        W 3717   6.834   3.392   0.733
33837W        W 3718   3.827  38.820  13.813
33838W        W 3719  20.075  25.128   4.296
33839W        W 3720   0.311  42.776   3.784
33840W        W 3721  18.659  35.590   0.957
33841W        W 3722  38.471  35.468   2.182
33842W        W 3723  27.503  21.112   5.192
33843W        W 3724  40.849  16.180   2.805
33844W        W 3725  33.504  31.503  11.882
33845W        W 3726  11.164  41.005  12.901
33846W        W 3727  15.281   2.844  13.064
33847W        W 3728  30.435  25.644  12.022
33848W        W 3729  37.085  33.023   0.436
33849W        W 3730  35.539  31.597  12.972
33850W        W 3731   3.267  13.330   0.889
33851W        W 3732  14.798   1.842  14.776
33852W        W 3733   6.900  21.661   0.897
33853W        W 3734  15.183   3.224   0.378
33854W        W 3735  39.996  32.108   2.847
33855W        W 3736  32.528  21.606   0.439
33856W        W 3737  19.262  39.886  11.450
33857W        W 3738  36.852  38.457   4.780
33858W        W 3739  40.027   0.942   1.792
33859W        W 3740   5.318   6.819   0.478
33860W        W 3741  26.040  17.680   1.356
33861W        W 3742  43.779  22.107  12.059
33862W        W 3743  43.410   1.931   0.293
33863W        W 3744  16.618  41.871  13.918
33864W        W 3745  40.337  13.182   3.163
33865W        W 3746  39.022   5.318   0.918
33866W        W 3747  25.148  15.590  12.925
33867W        W 3748  41.533  29.588   4.200
33868W        W 3749  15.616  11.775   5.213
33869W        W 3750  33.553   3.216  11.898
33870W        W 3751  40.437  35.594  12.962
33871W        W 3752   5.797  10.167  11.440
33872W        W 3753   3.361   1.756  12.061
33873W        W 3754  40.455  15.247   0.476
33874W        W 3755  18.078  19.158  13.804
33875W        W 3756  29.434  17.107   1.843
33876W        W 3757   6.828  25.191   2.207
33877W        W 3758  11.682  26.510   2.691
33878W        W 3759  31.626  17.144   1.810
33879W        W 3760  17.143  23.544   3.697
33880W        W 3761  40.841  11.153  12.552
33881W        W 3762   0.836  24.516   0.299
33882W        W 3763  19.666  10.685   2.708
33883W        W 3764   5.901  18.086   4.794
33884W        W 3765  10.741  28.514  10.631
33885W        W 3766   1.470  10.846  12.398
33886W        W 3767  16.219  40.005  13.332
33887W        W 3768  39.455  25.642   1.407
33888W        W 3769  14.202   1.480  14.813
33889W        W 3770   5.805  32.040   3.258
33890W        W 3771  27.676  29.613  12.501
33891W        W 3772  10.313  36.975  11.555
33892W        W 3773  23.731  15.283  13.042
33893W        W 3774   7.345  27.678  11.609
33894W        W 3775   9.283  44.299   2.326
33895W        W 3776  20.267  17.696  13.802
33896W        W 3777  39.023  10.181   2.263
33897W        W 3778  37.871  13.221   2.864
33898W        W 3779  16.812  38.552   4.657
33899W        W 3780  19.736  37.523  11.450
33900W        W 3781  24.077   1.854  11.465
33901W        W 3782  20.263   1.791  10.427
33902W        W 3783   5.324  28.572  10.982
33903W        W 3784  24.694  41.383   0.740
33904W        W 3785  15.631  37.075  13.860
33905W        W 3786  38.384  38.997   3.352
33906W        W 3787  44.414  41.024   1.861
33907W        W 3788  31.565  16.659   1.384
33908W        W 3789  30.552  19.271   3.634
33909W        W 3790  11.767  13.318   2.213
33910W        W 3791   7.366  20.205   1.847
33911W        W 3792  14.305  25.122  10.936
33912W        W 3793  37.410  31.625  11.947
33913W        W 3794  25.484  25.086  13.333
33914W        W 3795  26.993  36.861  10.501
33915W        W 3796  26.692  26.552   2.748
33916W        W 3797  30.537  17.118  10.141
33917W        W 3798  42.883  18.261   1.744
33918W        W 3799   3.246  17.676  10.452
33919W        W 3800   0.966   6.369   3.643
33920W        W 3801  24.500   7.187   0.896
33921W        W 3802  37.030   2.266   1.782
33922W        W 3803  27.478  44.476   0.283
33923W        W 3804  13.254  10.364  14.010
33924W        W 3805  13.178   2.227  13.446
33925W        W 3806   6.727  32.076   4.163
33926W        W 3807  41.389  43.941  12.936
33927W        W 3808  25.017   1.479  14.789
33928W        W 3809  26.479  42.870   0.927
33929W        W 3810  35.914  27.005   4.716
33930W        W 3811  28.992  32.965  10.591
33931W        W 3812  44.340  33.618   2.410
33932W        W 3813  28.674   7.224   3.739
33933W        W 3814  39.915  33.622  14.799
33934W        W 3815  12.205  37.866   2.683
33935W        W 3816  11.326  28.992  11.425
33936W        W 3817  11.132  40.454  11.859
33937W        W 3818  20.674  23.017   1.440
33938W        W 3819  33.913  19.744  12.845
33939W        W 3820  36.050  36.879   2.795
33940W        W 3821  18.258  24.484  11.508
33941W        W 3822  38.368  43.282   3.364
33942W        W 3823  36.989  13.115  13.049
33943W        W 3824   8.178  20.710  13.919
33944W        W 3825  44.768  29.003  12.422
33945W        W 3826  39.828  28.523  11.588
33946W        W 3827  14.158  30.566  11.104
33947W        W 3828   6.922  29.552  13.815
33948W        W 3829  40.031  32.979   2.213
33949W        W 3830  15.307  21.048  13.826
33950W        W 3831  32.540  16.102   3.728
33951W        W 3832  28.467   4.758  14.334
33952W        W 3833  42.894  27.093   4.312
33953W        W 3834   9.711  15.606  12.065
33954W        W 3835  44.487  40.989  10.474
33955W        W 3836   5.233  33.108  12.004
33956W        W 3837   1.794  30.643  12.566
33957W        W 3838  36.540  24.010  14.931
33958W        W 3839  11.691  21.076  11.424
33959W        W 3840  22.645  15.695  14.922
33960W        W 3841  18.684  35.416  10.573
33961W        W 3842  16.077  19.099  11.565
33962W        W 3843  10.189  16.175  13.038
33963W        W 3844  27.007  42.830   3.819
33964W        W 3845  38.344  37.972  12.548
33965W        W 3846  13.233  13.689  13.814
33966W        W 3847  32.477  11.634   1.766
33967W        W 3848  33.383  22.623  13.058
33968W        W 3849  35.949  38.884   4.623
33969W        W 3850  41.467  10.270  14.871
33970W        W 3851  14.755  34.464   3.633
33971W        W 3852  32.551  19.767   5.271
33972W        W 3853  10.267  42.791  12.532
33973W        W 3854  19.707  16.702   0.420
33974W        W 3855  15.315  27.615   4.731
33975W        W 3856  20.687  25.504  12.498
33976W        W 3857   0.956  19.651   1.779
33977W        W 3858  26.072   9.154  10.922
33978W        W 3859  18.260  27.646   2.894
33979W        W 3860  37.838  43.794   2.330
33980W        W 3861   1.909  20.059  14.385
33981W        W 3862   4.430  23.130   2.792
33982W        W 3863  42.280  11.241  10.949
33983W        W 3864   8.396   7.773   4.328
33984W        W 3865  32.580  31.932   3.244
33985W        W 3866  20.620  43.869  13.426
33986W        W 3867   0.267  13.699  11.090
33987W        W 3868  14.205  31.929  13.857
33988W        W 3869  19.718   3.767  14.433
33989W        W 3870  36.488  41.894   0.319
33990W        W 3871  26.479  10.840   3.733
33991W        W 3872  25.674  15.631   2.730
33992W        W 3873  24.566  10.189  14.865
33993W        W 3874  20.755   6.704   1.790
33994W        W 3875  43.818  27.118  12.909
33995W        W 3876   1.741  30.506   3.798
33996W        W 3877  11.740  10.714   2.691
33997W        W 3878  42.866  17.675  10.897
33998W        W 3879  38.915  31.116  11.038
33999W        W 3880  35.541  10.878   1.896
34000W        W 3881  25.572  17.196  11.076
34001W        W 3882  26.563   3.779   2.840
34002W        W 3883  16.678  30.484  11.040
34003W        W 3884   7.743  37.017  10.459
34004W        W 3885  16.092  30.007   0.336
34005W        W 3886  30.423   3.935   1.745
34006W        W 3887  17.183  35.969  14.471
34007W        W 3888  32.111  28.593  12.951
34008W        W 3889  23.160  13.228   2.261
34009W        W 3890  44.906  17.616  11.542
34010W        W 3891  22.197  43.834  12.542
34011W        W 3892   5.885  42.428   3.833
34012W        W 3893   7.742  17.252   2.842
34013W        W 3894  20.538  12.685   2.349
34014W        W 3895   0.484  33.587   4.784
34015W        W 3896  42.340  14.190   3.230
34016W        W 3897   0.247  34.991   1.336
34017W        W 3898  27.623   6.847   0.289
34018W        W 3899  10.237  19.266   4.178
34019W        W 3900  27.583  25.974   9.593
34020W        W 3901  37.953  26.107   3.826
34021W        W 3902  11.806  18.209   5.711
34022W        W 3903   7.849   9.889  10.925
34023W        W 3904  22.136  38.938  14.412
34024W        W 3905  26.699   2.471   0.272
34025W        W 3906  29.006  18.745   1.334
34026W        W 3907   3.306  32.904   4.650
34027W        W 3908  11.302  14.655   3.277
34028W        W 3909  44.346  27.616   4.174
34029W        W 3910  21.606  10.322  11.859
34030W        W 3911  20.248   4.388  13.445
34031W        W 3912  13.758  23.064  13.802
34032W        W 3913  19.171   3.813  14.514
34033W        W 3914  39.475  43.319  10.543
34034W        W 3915  16.786  11.762  12.916
34035W        W 3916  17.217  28.107   2.750
34036W        W 3917  38.841  23.521  14.951
34037W        W 3918   0.490  32.526   2.879
34038W        W 3919   5.911  27.063  11.426
34039W        W 3920  25.202  36.843  14.791
34040W        W 3921  39.468   6.840  10.483
34041W        W 3922  33.620  19.274  13.411
34042W        W 3923  19.704   0.982  12.868
34043W        W 3924  19.556  30.025  12.375
34044W        W 3925  25.664  36.368   2.378
34045W        W 3926  16.079  23.220  10.498
34046W        W 3927  29.522   7.824  11.940
34047W        W 3928  35.886  31.967  14.780
34048W        W 3929  32.022  36.375   0.940
34049W        W 3930  44.282  34.518  11.866
34050W        W 3931  32.631  44.272   4.736
34051W        W 3932  13.311   2.807  11.378
34052W        W 3933  13.120  19.708   1.745
34053W        W 3934  14.706  12.767   3.308
34054W        W 3935  17.146  25.659   1.725
34055W        W 3936  23.707  29.525  10.497
34056W        W 3937  13.122   7.820   1.734
34057W        W 3938   6.386   9.208   4.149
34058W        W 3939  22.554  34.057  14.476
34059W        W 3940  13.112  14.263   1.283
34060W        W 3941  31.044  14.203   1.823
34061W        W 3942  29.461  31.610  11.596
34062W        W 3943   3.268  27.479  12.087
34063W        W 3944  27.049  11.289   4.183
34064W        W 3945   2.435  17.672   2.762
34065W        W 3946  23.148  43.902  14.781
34066W        W 3947   8.369  16.187   0.814
34067W        W 3948  42.897  25.145  11.575
34068W        W 3949  22.728   4.311  12.516
34069W        W 3950   6.815   6.266   1.832
34070W        W 3951  39.045   9.722   0.466
34071W        W 3952  22.528  16.793  13.986
34072W        W 3953  37.536  39.917  12.504
34073W        W 3954  29.094  17.067   3.282
34074W        W 3955  36.572  28.056  13.509
34075W        W 3956  15.584  21.679  13.996
34076W        W 3957  34.005  37.360   1.777
34077W        W 3958   1.865  40.365  12.530
34078W        W 3959  21.715   3.410   3.200
34079W        W 3960  21.147  38.941   1.802
34080W        W 3961   5.363   4.746  12.927
34081W        W 3962  41.375  14.249  14.321
34082W        W 3963  28.570   8.772   0.823
34083W        W 3964  42.427  25.624   2.203
34084W        W 3965   4.444   8.290   3.373
34085W        W 3966   0.444  42.296  14.503
34086W        W 3967   0.494  11.301   1.324
34087W        W 3968   2.831  11.756   3.746
34088W        W 3969  10.830  28.533   4.339
34089W        W 3970  15.611  25.154  14.394
34090W        W 3971  19.042   9.709  11.065
34091W        W 3972  10.840  34.115   3.855
34092W        W 3973   6.846   6.848  14.787
34093W        W 3974  26.701  32.893   3.281
34094W        W 3975  36.492   2.790  14.401
34095W        W 3976   4.705  40.834   0.808
34096W        W 3977  34.389  24.154   2.748
34097W        W 3978  36.353  38.053   0.954
34098W        W 3979  32.061  34.473   2.887
34099W        W 3980  18.711  21.263   1.703
34100W        W 3981  39.470  26.073   1.230
34101W        W 3982  15.785  44.832   2.345
34102W        W 3983  29.513  18.635  14.782
34103W        W 3984  16.602  14.753  14.780
34104W        W 3985  24.586   8.323  10.430
34105W        W 3986   6.750  12.316  12.392
34106W        W 3987   3.772  33.116  13.994
34107W        W 3988  40.861  43.957  14.806
34108W        W 3989  20.131  40.837  14.435
34109W        W 3990   5.800   1.882  13.475
34110W        W 3991  25.698  37.009   3.386
34111W        W 3992  31.088   7.740   1.737
34112W        W 3993  31.024  27.137   1.258
34113W        W 3994  16.769  29.955   4.178
34114W        W 3995  44.354  23.536   4.327
34115W        W 3996   6.290  20.099   4.751
34116W        W 3997   5.890  26.561   4.757
34117W        W 3998  32.997  28.056   0.796
34118W        W 3999  21.717  18.247   1.907
34119W        W 4000   5.801  14.644  10.633
34120W        W 4001   7.415  16.084  12.915
34121W        W 4002   5.886  32.978  13.400
34122W        W 4003   4.758  16.569  13.831
34123W        W 4004  41.865  19.635   0.934
34124W        W 4005   3.366   1.886  10.404
34125W        W 4006   2.455  10.652   3.684
34126W        W 4007   1.739  43.829  10.477
34127W        W 4008   1.869   6.226   1.694
34128W        W 4009  22.239  17.715  14.402
34129W        W 4010   4.349  29.435  13.002
34130W        W 4011  24.218  32.034   5.291
34131W        W 4012   8.788  40.509   3.722
34132W        W 4013  38.397   5.326   3.827
34133W        W 4014  20.751  17.219   3.173
34134W        W 4015  28.612   5.207  14.463
34135W        W 4016  18.173  40.032  12.353
34136W        W 4017   2.289  16.690  10.629
34137W        W 4018  30.001  33.924   4.793
34138W        W 4019  42.825  20.608   2.290
34139W        W 4020  42.840  17.682  12.955
34140W        W 4021  38.840  27.184  10.544
34141W        W 4022  11.170  37.942  13.536
34142W        W 4023   3.233  10.326  14.902
34143W        W 4024  37.975   7.264   4.234
34144W        W 4025  13.236  12.701   1.448
34145W        W 4026  39.365  31.902  10.072
34146W        W 4027  13.779  40.469   4.186
34147W        W 4028   2.777  43.500   2.380
34148W        W 4029  30.539  39.345   0.925
34149W        W 4030  20.669  22.144  12.078
34150W        W 4031   0.888  23.145   2.730
34151W        W 4032   8.787  41.037   4.274
34152W        W 4033  40.415  32.916  14.421
34153W        W 4034  10.239  11.351  10.609
34154W        W 4035   0.856  21.161   1.862
34155W        W 4036  40.482  29.433  10.062
34156W        W 4037  24.973  25.144   3.367
34157W        W 4038   2.264  21.025   4.722
34158W        W 4039  12.855   2.790  13.881
34159W        W 4040  40.452  29.559  13.966
34160W        W 4041   0.773  15.207   2.228
34161W        W 4042   7.732  12.665  12.028
34162W        W 4043  32.419  25.218   4.347
34163W        W 4044  24.145  28.178   3.171
34164W        W 4045  22.703  14.274  11.020
34165W        W 4046  29.639   7.838  10.938
34166W        W 4047  18.072  16.318   0.847
34167W        W 4048  44.453  33.073   2.702
34168W        W 4049  25.529  36.558   1.309
34169W        W 4050   8.314  22.177   1.290
34170W        W 4051   8.881   4.856   3.146
34171W        W 4052  28.171  14.661   0.772
34172W        W 4053  43.335  34.961  10.998
34173W        W 4054  12.129   1.479   0.732
34174W        W 4055  39.970   1.288   2.782
34175W        W 4056  18.733  29.129  14.783
34176W        W 4057  10.173  31.998   0.907
34177W        W 4058  15.609  32.123  11.879
34178W        W 4059   5.901  41.844   0.745
34179W        W 4060  43.501  15.716   2.216
34180W        W 4061  26.121  17.093   4.817
34181W        W 4062   9.224  34.407   1.394
34182W        W 4063  44.409  21.253  12.988
34183W        W 4064  21.090   6.862  10.987
34184W        W 4065  10.277   3.923  12.017
34185W        W 4066  19.205  37.864  14.430
34186W        W 4067  30.553   4.879  11.579
34187W        W 4068  23.679  34.996  12.090
34188W        W 4069  12.686  33.046  14.377
34189W        W 4070  39.885  41.018  14.360
34190W        W 4071  17.268  10.284  12.089
34191W        W 4072  19.226  16.249  12.524
34192W        W 4073  28.434  21.609   2.762
34193W        W 4074  13.811  25.695   4.628
34194W        W 4075  32.973  14.612   0.400
34195W        W 4076  10.816  38.540   1.369
34196W        W 4077  21.020  29.503   3.667
34197W        W 4078  37.960  25.138   4.789
34198W        W 4079   3.752  24.562  12.892
34199W        W 4080  30.962  31.402   1.726
34200W        W 4081   5.713   6.348  14.898
34201W        W 4082  35.089  42.014  12.571
34202W        W 4083  13.298  28.121  10.549
34203W        W 4084  16.629  32.585   0.751
34204W        W 4085  10.384  19.155  12.016
34205W        W 4086   0.923   5.387   4.739
34206W        W 4087  40.919   8.700  13.398
34207W        W 4088  41.377   7.684   2.823
34208W        W 4089  17.787  35.560  12.988
34209W        W 4090  19.543  20.588  12.392
34210W        W 4091   9.773  17.148  13.337
34211W        W 4092   5.384  19.107  14.417
34212W        W 4093   2.858   1.756   1.829
34213W        W 4094  15.226  16.662  10.954
34214W        W 4095  20.608  24.983  13.474
34215W        W 4096  12.822   5.328  10.598
34216W        W 4097  24.596   3.837   1.734
34217W        W 4098  11.134  10.222  11.901
34218W        W 4099  18.703  13.699   3.250
34219W        W 4100  27.001  42.931   1.784
34220W        W 4101   0.784  14.833  13.791
34221W        W 4102  30.961  43.269  11.529
34222W        W 4103  35.900  37.988   2.739
34223W        W 4104  16.769  41.452  11.452
34224W        W 4105  40.954   9.195   3.300
34225W        W 4106  37.839  33.502  14.932
34226W        W 4107  14.673  18.244   1.929
34227W        W 4108  24.609  30.042  12.510
34228W        W 4109  12.823  37.847  13.980
34229W        W 4110   8.399   3.277  11.903
34230W        W 4111   6.736   3.255   2.785
34231W        W 4112   5.692  26.097  11.456
34232W        W 4113  23.597   9.257   2.399
34233W        W 4114  18.699  32.038  13.839
34234W        W 4115  10.782   0.764  13.366
34235W        W 4116   3.291  13.109  11.018
34236W        W 4117   0.415   5.925   4.680
34237W        W 4118  25.572   0.347  12.880
34238W        W 4119  12.304  17.789   3.688
34239W        W 4120  39.059  31.616  12.437
34240W        W 4121  30.999  10.682   3.355
34241W        W 4122  15.261  17.284  11.076
34242W        W 4123  40.884  27.545  11.084
34243W        W 4124  23.218  12.198  14.004
34244W        W 4125  30.655  25.535   3.857
34245W        W 4126   4.343  38.494  14.906
34246W        W 4127   8.867  33.911   4.238
34247W        W 4128  25.173  31.608  12.399
34248W        W 4129  11.272  24.074  13.504
34249W        W 4130  16.632  21.728  14.377
34250W        W 4131  33.523  30.121  12.347
34251W        W 4132  12.217  12.663   3.186
34252W        W 4133   4.441  28.101  13.329
34253W        W 4134  22.590  36.898   3.748
34254W        W 4135  23.181  16.802   9.542
34255W        W 4136  10.788  18.190   4.119
34256W        W 4137   6.397  15.766   2.244
34257W        W 4138   2.312  34.412   5.207
34258W        W 4139  15.271  32.079  11.905
34259W        W 4140  33.119   7.254  10.918
34260W        W 4141  44.307  33.425   0.279
34261W        W 4142  17.150  36.943   4.121
34262W        W 4143  12.727  10.724   4.692
34263W        W 4144  42.327  29.948   0.280
34264W        W 4145  29.663  38.894   0.387
34265W        W 4146  27.475  20.655   2.686
34266W        W 4147   0.864  27.658   0.890
34267W        W 4148  30.054  42.387  12.890
34268W        W 4149  11.821   9.870   4.344
34269W        W 4150   2.733  21.111   3.262
34270W        W 4151  43.468  36.082  13.876
34271W        W 4152  24.995   9.316   3.815
34272W        W 4153  16.716  28.505   3.695
34273W        W 4154  40.903  23.017   4.336
34274W        W 4155  38.486  18.674  11.905
34275W        W 4156   3.938  19.041  12.892
34276W        W 4157  31.515  14.810  10.565
34277W        W 4158   1.845  44.973   1.845
34278W        W 4159  14.763  42.304  13.354
34279W        W 4160  16.224  21.514   1.373
34280W        W 4161  25.989   7.295   3.679
34281W        W 4162  16.712  12.704   2.687
34282W        W 4163  42.897  43.392   2.806
34283W        W 4164  35.424  30.006  13.061
34284W        W 4165  44.388  38.545   3.750
34285W        W 4166  39.956  22.601  12.013
34286W        W 4167   7.795  33.918   3.826
34287W        W 4168  29.067  31.986   3.369
34288W        W 4169   0.433  13.833  13.427
34289W        W 4170  29.643  22.717   0.283
34290W        W 4171  41.349  19.539  12.430
34291W        W 4172  34.913   6.770   2.262
34292W        W 4173   6.726  10.209   3.649
34293W        W 4174  38.073  24.692   0.422
34294W        W 4175  16.166  29.473  13.449
34295W        W 4176  23.223  18.786   2.298
34296W        W 4177  26.486  36.365   0.299
34297W        W 4178  17.105   6.293  12.409
34298W        W 4179   1.770  34.977   0.902
34299W        W 4180   2.752  16.274  14.420
34300W        W 4181  40.521   3.793   2.181
34301W        W 4182  33.896  37.052   0.763
34302W        W 4183  27.030  21.142   3.350
34303W        W 4184  21.162  20.173   3.292
34304W        W 4185  32.513  26.590  11.906
34305W        W 4186  28.525  20.147   1.905
34306W        W 4187   0.263   7.199   3.269
34307W        W 4188  14.715   9.724  12.050
34308W        W 4189  22.038  41.879  13.448
34309W        W 4190   6.235  39.848  10.892
34310W        W 4191  43.273  42.841  14.969
34311W        W 4192  36.399  22.197   2.241
34312W        W 4193  31.998  13.232  10.898
34313W        W 4194  15.138   5.240   1.848
34314W        W 4195  43.316  34.052   0.944
34315W        W 4196  11.198  38.325   3.225
34316W        W 4197  36.476  28.484   1.286
34317W        W 4198  38.908  21.028  12.093
34318W        W 4199   2.301  32.561  11.078
34319W        W 4200  19.769  28.443  14.025
34320W        W 4201   7.388  37.550  13.796
34321W        W 4202  34.481  13.186  12.566
34322W        W 4203  14.833  20.572   4.134
34323W        W 4204   0.747  35.888  10.499
34324W        W 4205  27.551  30.046  12.426
34325W        W 4206  39.315  28.106   1.383
34326W        W 4207  39.551  13.671   0.811
34327W        W 4208  19.698   5.304  12.972
34328W        W 4209  37.558  24.048  14.508
34329W        W 4210  12.620  31.091   4.193
34330W        W 4211  29.518  42.822   5.136
34331W        W 4212  37.928  29.642   0.907
34332W        W 4213   5.418  26.592  11.526
34333W        W 4214  41.880   1.757   9.928
34334W        W 4215   0.360  25.175   0.478
34335W        W 4216  14.594  32.522   1.852
34336W        W 4217  33.931  18.283   3.153
34337W        W 4218   2.877  10.193  13.822
34338W        W 4219   0.872  35.420  14.492
34339W        W 4220  11.810   6.196   3.196
34340W        W 4221   3.395   7.300   1.218
34341W        W 4222  16.147  35.969   0.919
34342W        W 4223  26.136  41.516  10.426
34343W        W 4224  10.866  36.912  13.365
34344W        W 4225  35.038  27.483  14.783
34345W        W 4226  44.912  18.277  11.087
34346W        W 4227  42.300  16.728   1.904
34347W        W 4228  40.888  19.594  10.902
34348W        W 4229  33.470  26.469   0.864
34349W        W 4230   6.729  41.006  11.077
34350W        W 4231  33.129  27.607   4.117
34351W        W 4232  31.088  33.550   4.643
34352W        W 4233  11.768  11.335   2.783
34353W        W 4234  36.572  40.962   0.771
34354W        W 4235  18.685   3.826   1.258
34355W        W 4236  31.488  17.621   3.809
34356W        W 4237   2.949  27.672   1.334
34357W        W 4238  31.528  22.557  14.282
34358W        W 4239  41.995   8.198  10.560
34359W        W 4240  37.377  42.372  13.906
34360W        W 4241  23.148  21.250   1.258
34361W        W 4242  35.567  38.494  14.007
34362W        W 4243   9.808   5.343   1.818
34363W        W 4244  25.488   1.813   4.345
34364W        W 4245   0.436   3.219  10.546
34365W        W 4246  42.513  29.108   1.712
34366W        W 4247  30.460   6.260  14.451
34367W        W 4248  22.069   9.685   4.254
34368W        W 4249   7.375  29.542   3.866
34369W        W 4250   5.700   5.259  11.949
34370W        W 4251  12.691  25.600  13.323
34371W        W 4252  35.049   2.858   2.237
34372W        W 4253  30.085  23.681   0.342
34373W        W 4254  19.160  24.055   4.626
34374W        W 4255   0.473   8.169  10.905
34375W        W 4256  22.660  12.765   2.350
34376W        W 4257  19.067  15.782   0.892
34377W        W 4258  39.421   4.359   1.917
34378W        W 4259  22.507  24.556  10.510
34379W        W 4260  17.151  24.037   4.786
34380W        W 4261  43.808  10.763   1.909
34381W        W 4262   6.716  38.566  13.020
34382W        W 4263  11.318  11.719   4.678
34383W        W 4264  29.510  15.198   4.224
34384W        W 4265  18.563  21.632   4.652
34385W        W 4266  40.391   9.342   0.800
34386W        W 4267  21.533  18.281  11.435
34387W        W 4268  13.702  32.567   1.362
34388W        W 4269   8.843  37.543   4.815
34389W        W 4270   0.917  41.312   1.896
34390W        W 4271  24.638   8.751  14.872
34391W        W 4272  33.049  14.161   2.753
34392W        W 4273  40.304   4.306  13.380
34393W        W 4274   9.246  30.566  10.558
34394W        W 4275  24.122  32.106  13.313
34395W        W 4276  21.129   9.335  12.058
34396W        W 4277  37.549  11.243   3.665
34397W        W 4278   2.759   4.924   1.804
34398W        W 4279  42.380   1.869   3.835
34399W        W 4280  35.462   9.316   4.281
34400W        W 4281  41.877  16.254   4.828
34401W        W 4282   4.367   3.847  13.369
34402W        W 4283  36.488  37.833  11.600
34403W        W 4284  17.066  29.482   4.292
34404W        W 4285  23.177  13.260  11.938
34405W        W 4286  42.355  37.984  11.905
34406W        W 4287  43.834   5.389   4.780
34407W        W 4288  12.682  22.181   2.229
34408W        W 4289  39.549  31.501   2.669
34409W        W 4290  11.240  30.598   1.817
34410W        W 4291  23.028  30.019  11.877
34411W        W 4292  36.006  19.139  12.367
34412W        W 4293  20.662  28.636   2.791
34413W        W 4294  14.154  42.441   1.932
34414W        W 4295  40.398   2.345  11.974
34415W        W 4296  26.031  27.542  13.463
34416W        W 4297  36.028  36.352  14.783
34417W        W 4298  20.728  38.867  13.809
34418W        W 4299  27.632  36.516   4.323
34419W        W 4300  22.677  27.000   9.968
34420W        W 4301  10.827  40.502  13.949
34421W        W 4302   7.676  38.868   1.781
34422W        W 4303  19.213  22.707  12.513
34423W        W 4304  44.759  14.638  12.028
34424W        W 4305  25.707   3.345  11.541
34425W        W 4306  32.564   1.340   4.218
34426W        W 4307  22.033  16.252   1.314
34427W        W 4308  38.934  26.025  14.358
34428W        W 4309  42.476   4.414  11.082
34429W        W 4310  14.771  24.680  11.599
34430W        W 4311  14.809  31.073  14.773
34431W        W 4312  44.853  17.104  12.977
34432W        W 4313  23.229  13.845   2.194
34433W        W 4314  38.840  42.908   3.846
34434W        W 4315  40.934  30.415   3.843
34435W        W 4316  37.506  21.080  14.851
34436W        W 4317  36.991  17.630   1.320
34437W        W 4318  34.394  26.084   1.259
34438W        W 4319  20.585  41.300  14.409
34439W        W 4320  29.428  27.174   3.728
34440W        W 4321  20.233  20.563  11.900
34441W        W 4322  19.771  22.049  12.367
34442W        W 4323   0.811   0.351   0.804
34443W        W 4324  44.884   4.729  11.959
34444W        W 4325   7.809  22.599   0.906
34445W        W 4326  33.467   3.238  10.416
34446W        W 4327  11.679  10.210   0.890
34447W        W 4328  25.157  14.732  13.061
34448W        W 4329  41.415  24.199  14.995
34449W        W 4330  10.156  30.037  11.993
34450W        W 4331  28.026  13.708  13.343
34451W        W 4332  35.545   2.849   3.201
34452W        W 4333  24.502  14.176   4.349
34453W        W 4334  13.289  24.165  12.939
34454W        W 4335  41.382  14.701   2.864
34455W        W 4336  19.632  13.342   4.130
34456W        W 4337  39.980  23.678  14.900
34457W        W 4338   1.391  18.661  14.295
34458W        W 4339  32.574   5.783  13.922
34459W        W 4340   4.826  13.765  13.032
34460W        W 4341  34.592  33.074   4.638
34461W        W 4342  28.042  34.531  12.399
34462W        W 4343  30.548   7.278   0.773
34463W        W 4344  12.689  25.174   1.831
34464W        W 4345  35.458  25.070  13.833
34465W        W 4346  38.866  31.463  14.341
34466W        W 4347  13.652  28.005   2.372
34467W        W 4348  19.260   2.344   2.882
34468W        W 4349  28.134   4.777   0.403
34469W        W 4350  44.463  20.039  13.988
34470W        W 4351  37.496   6.283   3.369
34471W        W 4352  26.078  19.257   0.750
34472W        W 4353  28.063  31.146   1.879
34473W        W 4354  43.417  25.063   0.836
34474W        W 4355   6.852   2.280  14.961
34475W        W 4356  15.602  24.647  14.849
34476W        W 4357  31.151  21.065   2.266
34477W        W 4358  20.573  44.917   2.836
34478W        W 4359  10.218  28.564   2.391
34479W        W 4360  28.992   8.267   3.736
34480W        W 4361  14.130  40.811  10.471
34481W        W 4362  29.089  39.931   2.308
34482W        W 4363  33.003  39.848  14.819
34483W        W 4364  35.082  11.766  11.965
34484W        W 4365  23.220  41.470   2.266
34485W        W 4366   3.727  37.421  14.772
34486W        W 4367   2.382  20.094   4.683
34487W        W 4368  37.415   6.770   4.777
34488W        W 4369  24.668   7.251  14.388
34489W        W 4370   9.880  34.980   2.853
34490W        W 4371  30.013  15.211   1.275
34491W        W 4372  32.472  20.072  13.412
34492W        W 4373  44.314  24.007   3.830
34493W        W 4374  37.901   9.681   3.648
34494W        W 4375  44.764  22.660  12.562
34495W        W 4376   4.226   1.430   0.760
34496W        W 4377  38.891  26.607   2.245
34497W        W 4378  39.440   3.372  14.425
34498W        W 4379   6.700  33.424   3.826
34499W        W 4380  39.056  40.006   4.334
34500W        W 4381  21.232  27.159   2.713
34501W        W 4382   7.290   0.882  13.008
34502W        W 4383  41.431  13.198   1.243
34503W        W 4384   6.746  27.084   1.294
34504W        W 4385  22.084  21.539   4.260
34505W        W 4386   6.241   8.381   0.329
34506W        W 4387  10.287   9.835  12.460
34507W        W 4388   0.411  10.668   4.700
34508W        W 4389  43.769  43.511   4.247
34509W        W 4390   6.769   0.376   1.427
34510W        W 4391  39.816   1.482  14.305
34511W        W 4392  23.511   1.752  12.884
34512W        W 4393   4.843  33.531   4.200
34513W        W 4394  30.604  37.921   4.177
34514W        W 4395  33.406  25.472   3.711
34515W        W 4396  12.611  25.625  10.610
34516W        W 4397   3.432   4.880  12.347
34517W        W 4398  31.404   0.266   4.348
34518W        W 4399  37.565   8.863   2.267
34519W        W 4400  16.098   7.207   2.747
34520W        W 4401  12.851  34.917  10.926
34521W        W 4402   4.714  12.303   2.201
34522W        W 4403  21.523  28.510   3.690
34523W        W 4404  21.118  20.556   2.394
34524W        W 4405   4.296  24.602  10.970
34525W        W 4406   9.231   9.820   3.762
34526W        W 4407  35.953   5.714  14.946
34527W        W 4408  33.992  32.018  12.089
34528W        W 4409  24.079  15.303  12.541
34529W        W 4410  36.493  11.277   0.893
34530W        W 4411  27.617  17.737  11.087
34531W        W 4412  22.188  34.083   3.222
34532W        W 4413   8.378  11.296   4.721
34533W        W 4414   1.417  41.892  14.007
34534W        W 4415   5.238  33.515  10.022
34535W        W 4416   7.170   2.890   1.872
34536W        W 4417  20.685   5.324   3.764
34537W        W 4418  12.780  39.007  11.506
34538W        W 4419  31.134  12.849  10.960
34539W        W 4420   2.828  30.042   0.942
34540W        W 4421  12.800  17.616  11.046
34541W        W 4422  13.236   0.328  13.401
34542W        W 4423   6.712  40.992   0.318
34543W        W 4424   5.720  19.132   0.424
34544W        W 4425   8.744  43.964   4.721
34545W        W 4426  25.027  35.491  13.961
34546W        W 4427   6.291  14.279   5.240
34547W        W 4428  26.463   3.444  11.390
34548W        W 4429  43.292  20.084  13.001
34549W        W 4430  15.112  37.524   3.289
34550W        W 4431  19.092  26.107  14.801
34551W        W 4432  27.954  28.141   4.656
34552W        W 4433  37.402  15.666   1.897
34553W        W 4434  39.553   7.198  14.298
34554W        W 4435  36.058  26.970   0.244
34555W        W 4436   9.783  42.949  11.433
34556W        W 4437  44.838  13.654   3.789
34557W        W 4438  15.599  24.702  10.412
34558W        W 4439  14.626   2.930  14.796
34559W        W 4440  11.301  18.786   4.267
34560W        W 4441   9.317   3.804   0.740
34561W        W 4442   5.304  16.752  10.904
34562W        W 4443   2.839  13.807  10.900
34563W        W 4444  20.129  42.354   4.771
34564W        W 4445  15.691  23.640   3.359
34565W        W 4446  24.107  39.542   1.738
34566W        W 4447   0.352  10.203   2.675
34567W        W 4448  15.783  38.423  13.368
34568W        W 4449  34.470  39.365   3.214
34569W        W 4450  12.244  14.301   3.647
34570W        W 4451  28.957  30.914   0.852
34571W        W 4452   0.477  30.474  12.854
34572W        W 4453  13.795   9.153   1.784
34573W        W 4454  39.346   4.799   4.122
34574W        W 4455   1.923  17.228   1.293
34575W        W 4456  23.598  41.927   2.668
34576W        W 4457   3.896  22.058  13.408
34577W        W 4458  18.725   8.739   3.341
34578W        W 4459  23.142  34.505   0.924
34579W        W 4460  31.438  38.404   0.907
34580W        W 4461  28.480  27.620  10.502
34581W        W 4462  21.736  37.991  13.495
34582W        W 4463  39.001  31.986  14.363
34583W        W 4464   7.876  43.915  14.950
34584W        W 4465   9.293  26.148   0.749
34585W        W 4466   2.378  24.597   2.302
34586W        W 4467   8.173  40.834  12.541
34587W        W 4468  37.497  33.956  14.425
34588W        W 4469  20.544  18.770  10.587
34589W        W 4470  35.536  31.070   0.424
34590W        W 4471   6.838  44.921   3.372
34591W        W 4472  10.668  38.351  13.922
34592W        W 4473   0.864   8.757   2.285
34593W        W 4474  36.947  16.770  14.949
34594W        W 4475  40.985  14.243  14.996
34595W        W 4476  26.644  22.242  10.406
34596W        W 4477  11.129  15.088   2.211
34597W        W 4478  34.604   0.937  12.532
34598W        W 4479  16.098   9.789   2.875
34599W        W 4480  21.259  26.628   0.814
34600W        W 4481  10.265   7.268   3.734
34601W        W 4482   9.869  15.255  11.899
34602W        W 4483  21.591  44.353   1.226
34603W        W 4484  18.252  17.258   1.409
34604W        W 4485  28.942  17.700  14.995
34605W        W 4486  13.672   2.430   2.705
34606W        W 4487   1.941  30.653  11.946
34607W        W 4488   0.884  13.191   3.173
34608W        W 4489  22.088  20.229  11.018
34609W        W 4490   0.417  28.624  14.800
34610W        W 4491  12.163  24.206  13.949
34611W        W 4492  33.952  37.946  13.361
34612W        W 4493  34.533   7.404   1.836
34613W        W 4494  24.182  15.611  14.366
34614W        W 4495  20.036  30.517   3.712
34615W        W 4496  41.349  18.635  14.001
34616W        W 4497  36.354  37.385  11.550
34617W        W 4498   0.322  41.863   4.280
34618W        W 4499   9.260  19.233  12.437
34619W        W 4500   0.369  29.499  11.485
34620W        W 4501  27.535  20.120   0.942
34621W        W 4502   8.233   6.877   0.291
34622W        W 4503  35.927   3.827   1.333
34623W        W 4504  25.185  25.172  13.988
34624W        W 4505  17.145  26.571   2.277
34625W        W 4506  37.838  40.952   3.285
34626W        W 4507  41.470   5.851   4.167
34627W        W 4508  33.581  25.148   1.924
34628W        W 4509   2.313   5.723  12.992
34629W        W 4510   3.445  37.028  12.966
34630W        W 4511  20.529   1.954   2.717
34631W        W 4512  34.933  34.900  11.403
34632W        W 4513  22.161  36.491  14.936
34633W        W 4514  31.012  33.037   1.235
34634W        W 4515  14.724  15.590   3.373
34635W        W 4516  40.015  28.441  14.797
34636W        W 4517  35.403  18.208   3.353
34637W        W 4518  22.215   7.824   3.212
34638W        W 4519  23.553  17.208  12.469
34639W        W 4520   9.179   8.207  12.482
34640W        W 4521  41.981   5.231   4.276
34641W        W 4522   0.788   7.403   2.276
34642W        W 4523  29.519  32.577  12.494
34643W        W 4524   0.441   5.692   0.807
34644W        W 4525  10.351  31.035  14.015
34645W        W 4526   3.786  33.933   2.273
34646W        W 4527  31.640  24.561  13.894
34647W        W 4528  26.483  12.851   0.924
34648W        W 4529  11.176   9.751  11.558
34649W        W 4530  24.051  38.485   3.180
34650W        W 4531   8.228  43.849   3.769
34651W        W 4532  44.300  22.067  14.306
34652W        W 4533  38.832   3.931  12.868
34653W        W 4534   4.839  10.656   2.791
34654W        W 4535  29.465   4.934  10.110
34655W        W 4536  40.829  20.266  14.365
34656W        W 4537  24.215  32.055   1.853
34657W        W 4538   2.734   5.372  14.400
34658W        W 4539  21.641   3.744  12.917
34659W        W 4540  44.993   0.458   2.304
34660W        W 4541   2.958  19.045   3.642
34661W        W 4542   5.885   0.427   3.208
34662W        W 4543   2.449  12.786  12.056
34663W        W 4544  11.828   7.764  12.905
34664W        W 4545  14.675  15.199   0.424
34665W        W 4546  18.698  31.582   4.820
34666W        W 4547  23.136  10.744  14.879
34667W        W 4548  31.002  36.365  11.489
34668W        W 4549  40.855  44.859   1.729
34669W        W 4550  36.096  42.960   4.263
34670W        W 4551  25.639  32.413  14.475
34671W        W 4552   3.734  12.841  11.535
34672W        W 4553  17.572  21.128  11.378
34673W        W 4554  15.658  29.582   4.298
34674W        W 4555  27.473  38.866   4.675
34675W        W 4556   9.878  21.141  13.468
34676W        W 4557  16.125  39.820   4.599
34677W        W 4558  29.542   0.900   0.315
34678W        W 4559  43.856  26.107  10.579
34679W        W 4560  27.163  12.167   2.817
34680W        W 4561  35.399  30.048   2.229
34681W        W 4562  15.148  16.799   4.644
34682W        W 4563   7.410  37.875  12.431
34683W        W 4564  30.108  39.919  12.006
34684W        W 4565   0.973  25.608   4.124
34685W        W 4566  42.850  31.136  12.089
34686W        W 4567   8.727  12.819  10.966
34687W        W 4568  16.117   5.204  14.320
34688W        W 4569  30.930  20.184  13.421
34689W        W 4570  28.130   4.235  11.953
34690W        W 4571  36.096  32.914  12.860
34691W        W 4572  12.827  12.358  10.467
34692W        W 4573   5.890  18.104   0.400
34693W        W 4574  43.990  16.644   0.765
34694W        W 4575  36.577  34.535   0.252
34695W        W 4576  16.294  39.920   1.890
34696W        W 4577   3.412  19.176   3.762
34697W        W 4578  44.322   4.229   3.852
34698W        W 4579   5.709  38.417   0.821
34699W        W 4580  35.075  20.711  10.420
34700W        W 4581   9.734  25.604   4.818
34701W        W 4582  42.854  38.901  11.915
34702W        W 4583  10.721  20.545   1.900
34703W        W 4584  32.914  24.710   4.331
34704W        W 4585  33.619   1.750   4.831
34705W        W 4586  22.090   6.738   0.464
34706W        W 4587  35.907  38.958   3.256
34707W        W 4588  34.449  21.157   0.745
34708W        W 4589  15.207  22.178   2.393
34709W        W 4590   2.901  23.650  12.460
34710W        W 4591  10.834  26.963   2.857
34711W        W 4592  29.648   7.343   4.812
34712W        W 4593  27.543  41.010   4.256
34713W        W 4594   5.426  25.687  10.925
34714W        W 4595   0.270  34.054  14.769
34715W        W 4596  18.104  19.754   1.716
34716W        W 4597   5.203   8.899  12.878
34717W        W 4598  32.629  31.906  14.338
34718W        W 4599  19.688  27.486  11.089
34719W        W 4600  27.189   4.217  10.943
34720W        W 4601  18.670   5.865   0.744
34721W        W 4602  34.057   3.830  12.450
34722W        W 4603  14.600  41.523  11.108
34723W        W 4604  26.503  17.130  10.577
34724W        W 4605  24.565   6.304  11.934
34725W        W 4606  36.430  38.931   2.402
34726W        W 4607  37.572  21.090   2.776
34727W        W 4608  25.576  26.123  10.502
34728W        W 4609  43.974   0.830   4.228
34729W        W 4610   2.432  22.565   0.437
34730W        W 4611   8.219  19.688   4.616
34731W        W 4612   4.799   9.874  10.593
34732W        W 4613  20.191  23.656  11.962
34733W        W 4614  36.482  40.323  12.341
34734W        W 4615   9.667  17.622  13.800
34735W        W 4616   3.270  10.377  12.012
34736W        W 4617  39.342  15.192  12.564
34737W        W 4618  22.696  37.908   4.163
34738W        W 4619  24.650  17.759   0.481
34739W        W 4620  25.672   7.292   2.806
34740W        W 4621   1.921  33.389  14.900
34741W        W 4622   5.307   8.331   4.661
34742W        W 4623  31.997  18.695  11.426
34743W        W 4624  36.592  40.851  14.361
34744W        W 4625  23.637  21.517  13.537
34745W        W 4626   1.767  28.151   4.167
34746W        W 4627  25.548  34.009   4.622
34747W        W 4628  31.485  36.855   1.731
34748W        W 4629   9.361  21.132   0.319
34749W        W 4630  28.481  24.653   4.785
34750W        W 4631  34.096   6.810  12.989
34751W        W 4632  11.232  20.739  12.550
34752W        W 4633  34.040  13.712   2.728
34753W        W 4634  44.265   4.859   4.619
34754W        W 4635   4.774  13.189   1.885
34755W        W 4636   0.391  28.565   0.910
34756W        W 4637   9.233  36.558  10.418
34757W        W 4638  34.051   5.343   1.401
34758W        W 4639   3.793   4.808   0.332
34759W        W 4640   4.813  23.117   1.933
34760W        W 4641   1.865  16.278  12.003
34761W        W 4642  31.495  32.531  14.028
34762W        W 4643  38.057  16.593   2.893
34763W        W 4644  36.494  25.468   3.295
34764W        W 4645  30.016  34.999   2.808
34765W        W 4646  17.611  18.626  10.891
34766W        W 4647  31.552   3.248  11.463
34767W        W 4648  27.672  29.607   2.832
34768W        W 4649  14.229   4.355  13.817
34769W        W 4650   6.343   2.367   0.383
34770W        W 4651  40.523  18.650   4.713
34771W        W 4652  14.809  35.379   1.856
34772W        W 4653  26.097  31.599   0.960
34773W        W 4654  10.322  43.906  14.355
34774W        W 4655  19.540  17.798  12.079
34775W        W 4656  19.553  34.469   3.700
34776W        W 4657  38.952   8.837   5.114
34777W        W 4658  12.728   8.230   3.303
34778W        W 4659  13.270  29.538   4.218
34779W        W 4660  38.070  13.656  13.818
34780W        W 4661  36.050  32.409   4.298
34781W        W 4662  28.014  27.988  12.937
34782W        W 4663  14.310  21.214  13.379
34783W        W 4664   2.419  44.974   3.266
34784W        W 4665  38.496  41.873  13.961
34785W        W 4666  38.566  43.847   0.839
34786W        W 4667  24.147  36.514  12.046
34787W        W 4668  32.927  27.180  11.986
34788W        W 4669  42.332  11.178  12.863
34789W        W 4670  23.522  23.641  11.924
34790W        W 4671  19.124  11.636   0.472
34791W        W 4672  22.681  13.105   4.703
34792W        W 4673  19.760  36.927  10.510
34793W        W 4674  20.160   9.321   2.783
34794W        W 4675   6.293  41.906  10.409
34795W        W 4676  18.589  14.136  14.937
34796W        W 4677  32.408  27.602  13.014
34797W        W 4678   3.423  20.078  12.513
34798W        W 4679  33.071  10.729   0.360
34799W        W 4680  31.538   7.810   5.187
34800W        W 4681  30.953  26.953  13.010
34801W        W 4682  32.053  42.353   3.826
34802W        W 4683   4.327  29.445   2.761
34803W        W 4684  12.794  36.988  14.359
34804W        W 4685   5.307  34.082  13.883
34805W        W 4686  15.272  24.694  12.530
34806W        W 4687  13.342  35.937  14.391
34807W        W 4688  25.681  17.174   5.226
34808W        W 4689  35.585  42.857   4.625
34809W        W 4690  18.221  43.989  14.835
34810W        W 4691  10.145  19.184  14.011
34811W        W 4692   8.284  39.932   4.767
34812W        W 4693  35.067   0.403   1.288
34813W        W 4694  10.349  11.133   2.179
34814W        W 4695   6.405  14.295   4.633
34815W        W 4696  11.771   6.278   1.420
34816W        W 4697  40.388  36.582   0.902
34817W        W 4698  39.900  44.819  14.373
34818W        W 4699  21.691  31.117  13.935
34819W        W 4700  37.993  19.557  14.284
34820W        W 4701  30.092  44.261   1.232
34821W        W 4702   3.916   9.207   4.686
34822W        W 4703  43.853  28.561  10.970
34823W        W 4704   5.198  33.618   2.388
34824W        W 4705  30.036  29.151   3.239
34825W        W 4706  29.478   0.353  10.984
34826W        W 4707  24.181  15.116   2.818
34827W        W 4708  40.373   2.774   1.922
34828W        W 4709   2.852  12.349  13.844
34829W        W 4710  23.686   8.713   3.170
34830W        W 4711  17.645  11.712  10.624
34831W        W 4712  31.605   3.793  10.492
34832W        W 4713  21.673   4.209  12.069
34833W        W 4714  31.050   0.292   4.206
34834W        W 4715  35.864  24.609   1.713
34835W        W 4716  28.944  13.286  11.092
34836W        W 4717  41.914   8.714   5.300
34837W        W 4718   6.284  37.998   1.359
34838W        W 4719  11.843   3.849  14.914
34839W        W 4720  19.072  24.556   1.223
34840W        W 4721  29.935  19.671  14.443
34841W        W 4722  33.473  20.556  10.570
34842W        W 4723  21.684   4.866  12.529
34843W        W 4724  43.493  31.431   1.918
34844W        W 4725  27.476  11.238   2.335
34845W        W 4726  40.416  24.000   4.195
34846W        W 4727  30.043  14.766  14.819
34847W        W 4728  36.913  22.240  13.533
34848W        W 4729  19.121   1.256   2.879
34849W        W 4730  43.964   5.846   3.270
34850W        W 4731  40.334  23.118  14.338
34851W        W 4732  25.500  42.925   9.999
34852W        W 4733  11.139  24.614  11.897
34853W        W 4734  18.565  19.599   3.317
34854W        W 4735  38.413  18.782   3.631
34855W        W 4736  17.262   5.919  10.449
34856W        W 4737  26.119  33.514  14.475
34857W        W 4738  27.474  10.806   2.332
34858W        W 4739  37.046   0.455  11.958
34859W        W 4740   3.233  39.033  11.393
34860W        W 4741  21.064  36.452  13.818
34861W        W 4742  36.982  22.041  10.627
34862W        W 4743  20.651  39.423  13.848
34863W        W 4744  43.335  17.065   3.706
34864W        W 4745  30.591  22.094   3.152
34865W        W 4746   4.808  23.075   0.290
34866W        W 4747  10.755  25.514   0.815
34867W        W 4748  22.193  40.549  13.498
34868W        W 4749  28.612  24.169   3.792
34869W        W 4750   2.754   1.426  13.348
34870W        W 4751   6.761  14.187   4.659
34871W        W 4752   2.347  24.671   1.701
34872W        W 4753  42.439  15.250  13.473
34873W        W 4754   6.217  23.585  14.345
34874W        W 4755  12.660  23.139   3.679
34875W        W 4756  14.123  38.063  12.962
34876W        W 4757  30.416  40.021  10.578
34877W        W 4758  36.980  43.853  11.121
34878W        W 4759  12.152  18.099  13.479
34879W        W 4760  34.922  18.654  13.463
34880W        W 4761   0.925  15.616   5.265
34881W        W 4762  22.522  29.577   2.407
34882W        W 4763  38.973  34.885   1.878
34883W        W 4764  38.441  12.237   3.281
34884W        W 4765  31.636   6.701   5.784
34885W        W 4766  15.220  36.551  13.349
34886W        W 4767  14.321  42.923   1.271
34887W        W 4768  39.031  24.167  13.805
34888W        W 4769   0.341   8.749  14.015
34889W        W 4770  37.938  34.983   0.398
34890W        W 4771  10.284  43.294   1.875
34891W        W 4772   8.307  32.940  10.942
34892W        W 4773  18.650   8.280   2.183
34893W        W 4774  44.951  32.555   1.219
34894W        W 4775  16.606  14.769  11.573
34895W        W 4776  14.130  20.271  10.630
34896W        W 4777  33.954  24.579  11.429
34897W        W 4778   2.927  14.262   3.367
34898W        W 4779  10.226   8.351  12.479
34899W        W 4780  44.403  27.664  13.994
34900W        W 4781  44.999   8.337   1.450
34901W        W 4782  24.717  30.979  14.830
34902W        W 4783   1.966  17.256  14.456
34903W        W 4784  29.464  29.660  10.450
34904W        W 4785  21.668   2.967  12.540
34905W        W 4786  42.498   0.391   0.426
34906W        W 4787   7.865  14.280   3.840
34907W        W 4788  31.406  21.664  10.973
34908W        W 4789  22.619  43.466  13.948
34909W        W 4790  27.113  17.723   1.762
34910W        W 4791   0.390   4.290   2.294
34911W        W 4792  14.687  37.016   1.840
34912W        W 4793  44.346  36.963  12.408
34913W        W 4794   8.216  32.123  11.063
34914W        W 4795  17.755  10.785  11.862
34915W        W 4796   4.217  19.142   0.285
34916W        W 4797   6.787  26.124  13.399
34917W        W 4798  19.089  16.131   4.829
34918W        W 4799  36.482  33.420  14.850
34919W        W 4800  43.891  28.558  14.968
34920W        W 4801  42.371  21.194  11.489
34921W        W 4802  26.065  23.702   0.854
34922W        W 4803   7.801  24.182   0.374
34923W        W 4804  17.115  33.612   0.334
34924W        W 4805   1.248  17.701  13.050
34925W        W 4806  15.315   4.730   3.702
34926W        W 4807  31.951  18.585  10.920
34927W        W 4808   2.350  33.104   4.162
34928W        W 4809   0.930   7.797   0.816
34929W        W 4810   2.746  19.123  11.409
34930W        W 4811  10.710  25.146   3.351
34931W        W 4812   7.230  35.401   4.666
34932W        W 4813  14.751   9.348  12.437
34933W        W 4814   6.841  40.881  13.823
34934W        W 4815   7.872  35.896   2.178
34935W        W 4816  26.139   1.807   0.356
34936W        W 4817  11.231  33.115  14.504
34937W        W 4818  10.742  34.118   2.320
34938W        W 4819  13.647  31.490   3.367
34939W        W 4820  24.136  42.517   4.729
34940W        W 4821   0.950   0.970  10.455
34941W        W 4822  21.744  35.545  10.499
34942W        W 4823  23.072   5.847  11.051
34943W        W 4824   7.748  29.064   0.794
34944W        W 4825  36.478   1.481  14.809
34945W        W 4826  10.753  11.224   0.776
34946W        W 4827   4.753  36.583  14.299
34947W        W 4828  31.596  39.049   2.839
34948W        W 4829  20.029  29.996   2.749
34949W        W 4830  11.311  10.357   0.736
34950W        W 4831   7.351  29.074   1.743
34951W        W 4832  28.021  37.388  14.018
34952W        W 4833   2.752   8.731   2.834
34953W        W 4834  27.447  30.117  11.886
34954W        W 4835  21.681  28.662  13.360
34955W        W 4836  20.748  41.310   0.292
34956W        W 4837  38.398  18.707  12.884
34957W        W 4838  14.102  14.282   3.285
34958W        W 4839   2.228  24.017   2.670
34959W        W 4840  32.628  43.295  13.863
34960W        W 4841  44.784  28.972   3.286
34961W        W 4842   2.823  33.546  14.379
34962W        W 4843  18.166  31.479  12.047
34963W        W 4844  14.676  34.527  14.767
34964W        W 4845   7.189  38.010   3.257
34965W        W 4846  23.501   0.270  14.809
34966W        W 4847  10.361   1.430  12.980
34967W        W 4848  36.557  13.148   2.796
34968W        W 4849   2.823   9.352  11.063
34969W        W 4850  26.607  22.130  10.897
34970W        W 4851  35.998  38.448  12.345
34971W        W 4852  30.533   5.695   4.299
34972W        W 4853   1.437  25.040  14.858
34973W        W 4854  34.894  33.507  13.475
34974W        W 4855   7.415   5.365  10.409
34975W        W 4856  16.719   1.276  14.967
34976W        W 4857   4.930  21.039  12.869
34977W        W 4858  44.334  43.958  14.423
34978W        W 4859  16.199  43.312  10.627
34979W        W 4860  17.187  37.955  12.094
34980W        W 4861  10.697  20.670  14.338
34981W        W 4862  28.965  15.103  13.426
34982W        W 4863   3.391   2.918  12.998
34983W        W 4864  23.684  12.634  10.454
34984W        W 4865  12.646   3.725  11.604
34985W        W 4866  13.279  10.353  10.979
34986W        W 4867  21.142  15.750  13.939
34987W        W 4868  44.856  32.079   4.663
34988W        W 4869  35.584  15.170   4.677
34989W        W 4870   4.800  19.718   2.716
34990W        W 4871  14.203  37.920  14.937
34991W        W 4872  33.521  28.472  14.498
34992W        W 4873  11.328  39.416  10.975
34993W        W 4874  31.913   9.746  11.081
34994W        W 4875  17.250  13.216   2.336
34995W        W 4876   5.267  35.971   1.277
34996W        W 4877   5.324  37.909  10.546
34997W        W 4878   7.738  21.089   3.179
34998W        W 4879  39.358  38.827   2.705
34999W        W 4880   3.786   1.866  10.588
35000W        W 4881  16.578  42.835  12.363
35001W        W 4882  39.512  19.211   4.733
35002W        W 4883  32.626  40.819  11.512
35003W        W 4884  29.004  11.688   0.751
35004W        W 4885  29.479   6.354  11.995
35005W        W 4886  23.996  19.274  11.869
35006W        W 4887  21.120  10.315  13.490
35007W        W 4888   3.841  24.102   3.370
35008W        W 4889  14.223   6.383  11.960
35009W        W 4890  12.229  29.656  13.915
35010W        W 4891  33.565  12.168   0.870
35011W        W 4892   9.279  14.318   0.362
35012W        W 4893  18.742  23.541   4.640
35013W        W 4894  27.597  38.931  10.536
35014W        W 4895  16.617  29.975  14.490
35015W        W 4896  29.526  42.365  14.957
35016W        W 4897   6.868   7.375   3.714
35017W        W 4898  19.732  12.698   0.939
35018W        W 4899  43.348  27.031   4.786
35019W        W 4900  12.257  37.009   1.784
35020W        W 4901  43.843  10.182   4.237
35021W        W 4902  21.534  15.116  12.425
35022W        W 4903  35.022  11.838  14.299
35023W        W 4904  30.045  29.652   3.672
35024W        W 4905  39.339  12.744   0.475
35025W        W 4906  25.156  26.041   0.781
35026W        W 4907  31.948  17.677  11.996
35027W        W 4908  43.352  11.647  11.039
35028W        W 4909  29.074  11.866   2.378
35029W        W 4910  44.875  22.105   1.745
35030W        W 4911  14.607  18.291   2.758
35031W        W 4912   2.452  16.659   2.385
35032W        W 4913  32.631   1.424   2.719
35033W        W 4914  20.126   4.885   3.281
35034W        W 4915  36.853  19.690  11.970
35035W        W 4916  30.551   7.363  13.040
35036W        W 4917  17.075  20.153   0.902
35037W        W 4918  20.742  27.535  14.799
35038W        W 4919  10.709  17.761  11.529
35039W        W 4920  19.676  40.506  14.760
35040W        W 4921  44.447  32.005  13.548
35041W        W 4922  12.832  14.678   1.396
35042W        W 4923  43.413  11.853  14.482
35043W        W 4924   4.417  40.892   4.828
35044W        W 4925  14.708  10.656   1.224
35045W        W 4926   5.845  40.998   3.773
35046W        W 4927  18.110  40.311   0.873
35047W        W 4928  17.604  37.880  13.793
35048W        W 4929  15.186  27.565  13.841
35049W        W 4930   0.804  20.601   2.842
35050W        W 4931  22.229   4.403   3.714
35051W        W 4932  36.958  20.623  11.436
35052W        W 4933  31.593  10.256   1.238
35053W        W 4934  16.140  12.699  10.544
35054W        W 4935   2.403  41.487  13.804
35055W        W 4936  21.734  41.797   1.722
35056W        W 4937  34.594  18.671   1.780
35057W        W 4938  11.801   7.720   2.820
35058W        W 4939   8.739  24.691   3.664
35059W        W 4940  28.105  20.675   2.318
35060W        W 4941  40.318   8.252  11.551
35061W        W 4942  31.969   3.800   3.283
35062W        W 4943   7.348  40.467   1.717
35063W        W 4944   7.269  13.221  12.401
35064W        W 4945   8.174  12.116   1.398
35065W        W 4946  42.927  40.527  14.478
35066W        W 4947  38.930  36.082  11.548
35067W        W 4948  22.044  21.684   4.629
35068W        W 4949  18.654   2.821  12.014
35069W        W 4950  42.503  26.982   4.117
35070W        W 4951  19.092  19.726  14.420
35071W        W 4952  25.605  39.896  14.403
35072W        W 4953  29.985  42.361   4.742
35073W        W 4954  10.355  38.819   2.766
35074W        W 4955  30.647  19.570  10.432
35075W        W 4956   6.916   9.366   0.840
35076W        W 4957  38.485  41.387  14.463
35077W        W 4958  27.497   7.762  13.973
35078W        W 4959   6.402  31.956  14.419
35079W        W 4960  37.020   0.917  14.297
35080W        W 4961  20.085   6.356   2.878
35081W        W 4962  31.128  37.041   4.306
35082W        W 4963  33.008  23.567  14.974
35083W        W 4964  43.933  43.358   1.392
35084W        W 4965  36.095   0.940  14.361
35085W        W 4966  12.744  31.564  10.526
35086W        W 4967  18.631  14.334   5.186
35087W        W 4968  31.475  27.054   1.748
35088W        W 4969  40.010  16.292   4.354
35089W        W 4970  31.518  31.120  11.527
35090W        W 4971  21.673  31.627   4.275
35091W        W 4972   9.237  44.462  10.939
35092W        W 4973  21.688  10.341   2.676
35093W        W 4974  38.834  32.025   1.335
35094W        W 4975  35.869   4.340  13.943
35095W        W 4976  18.067  31.505  13.041
35096W        W 4977  11.254  34.028   0.323
35097W        W 4978  39.006  42.445   0.800
35098W        W 4979  11.863  14.741  10.946
35099W        W 4980  24.037  44.422  14.488
35100W        W 4981  34.937  41.368  10.081
35101W        W 4982  34.471  33.445   4.310
35102W        W 4983  41.392  22.718   0.774
35103W        W 4984  17.782   8.230  14.409
35104W        W 4985  20.533  15.185   1.354
35105W        W 4986  33.459  31.615  13.884
35106W        W 4987  13.246  12.716  14.481
35107W        W 4988  19.681  29.015  11.555
35108W        W 4989  10.796   4.319   2.389
35109W        W 4990  12.629  39.834   4.682
35110W        W 4991  18.073  25.712  12.520
35111W        W 4992  26.071  31.996   3.664
35112W        W 4993  27.977  37.916  12.495
35113W        W 4994  20.065  28.668  13.475
35114W        W 4995  32.507   5.695  11.930
35115W        W 4996  30.917  18.598   4.345
35116W        W 4997  31.406   0.330  14.968
35117W        W 4998  32.403  23.569   4.226
35118W        W 4999  19.269  42.899  11.434
35119W        W 5000  17.231  30.491  14.928
35120W        W 5001  40.866  41.820  10.506
35121W        W 5002  16.613  35.433   0.812
35122W        W 5003  19.546  21.256  12.872
35123W        W 5004   3.362  21.635   2.739
35124W        W 5005  43.889   8.836   1.364
35125W        W 5006  23.494  33.592  12.440
35126W        W 5007   9.686  17.099   1.706
35127W        W 5008  30.935  23.995   3.379
35128W        W 5009  14.098   0.338  12.916
35129W        W 5010  21.647  22.670   9.958
35130W        W 5011   4.391   1.357   3.271
35131W        W 5012  38.026  44.909   2.378
35132W        W 5013   8.162  14.660   4.200
35133W        W 5014  40.929  41.318   1.405
35134W        W 5015  24.715  20.083  10.424
35135W        W 5016  43.838   8.334   4.148
35136W        W 5017  27.689  33.556   4.838
35137W        W 5018  43.297  13.275   2.848
35138W        W 5019  29.164  17.097  14.507
35139W        W 5020  44.300  31.404   2.778
35140W        W 5021   3.289  17.229  13.897
35141W        W 5022  37.424  31.968  13.337
35142W        W 5023   5.360  20.632   4.702
35143W        W 5024  29.500   0.460   2.756
35144W        W 5025   0.298  43.473  13.876
35145W        W 5026  22.227  40.507   3.229
35146W        W 5027  18.783  26.544  10.045
35147W        W 5028  38.326  14.143   0.733
35148W        W 5029  10.160   9.721  11.514
35149W        W 5030  37.488  27.474  11.918
35150W        W 5031  13.830  30.100  11.441
35151W        W 5032  12.642   4.942  12.498
35152W        W 5033  23.518  36.562  13.456
35153W        W 5034  31.050  22.667  14.015
35154W        W 5035  26.087  12.797  11.446
35155W        W 5036  24.131  30.630  14.837
35156W        W 5037  10.360  10.164  12.873
35157W        W 5038  20.085  18.137   1.363
35158W        W 5039  36.095  30.039  13.791
35159W        W 5040  38.001  42.523  14.378
35160W        W 5041   7.835  18.291  11.034
35161W        W 5042  10.637   9.234  13.325
35162W        W 5043  31.488  39.529  10.492
35163W        W 5044  15.600  32.471  12.876
35164W        W 5045  40.378  11.163  13.524
35165W        W 5046  29.143  31.418  11.507
35166W        W 5047  24.711  42.945   3.368
35167W        W 5048  25.570  29.997   4.347
35168W        W 5049  30.127  32.994  13.853
35169W        W 5050  41.803  43.841  10.939
35170W        W 5051  29.454  19.205   4.605
35171W        W 5052  30.465  14.331   2.269
35172W        W 5053  40.310  21.187   1.357
35173W        W 5054   7.787  37.043   1.929
35174W        W 5055   4.227  10.751   4.184
35175W        W 5056  33.418   9.244  11.371
35176W        W 5057  34.943  39.054  11.957
35177W        W 5058  20.668   8.689   2.694
35178W        W 5059  36.503  13.810   1.370
35179W        W 5060  10.147  26.494  12.500
35180W        W 5061   6.240  26.636   3.155
35181W        W 5062   2.775  23.037   3.713
35182W        W 5063  32.613  19.543   4.309
35183W        W 5064  15.660  33.421  11.481
35184W        W 5065  21.135  18.159   4.316
35185W        W 5066  12.780  39.484   1.881
35186W        W 5067  41.393  20.241  14.395
35187W        W 5068  41.814  17.605  10.490
35188W        W 5069   1.472  35.909  14.840
35189W        W 5070  43.357   4.739   2.364
35190W        W 5071  10.182   9.771   2.212
35191W        W 5072  34.914  16.198   2.290
35192W        W 5073   4.376  16.759   0.465
35193W        W 5074   8.767  29.966  12.457
35194W        W 5075   9.153   6.831  11.542
35195W        W 5076  22.564  33.979   1.861
35196W        W 5077   5.805   4.255   0.371
35197W        W 5078  37.367   4.329   1.871
35198W        W 5079  14.156  19.583   4.319
35199W        W 5080   8.257  41.896  11.906
35200W        W 5081  29.116  12.258   4.671
35201W        W 5082  25.469  32.466  12.084
35202W        W 5083   6.879  21.074  14.768
35203W        W 5084  25.017  11.749   1.241
35204W        W 5085  38.512  25.188  14.471
35205W        W 5086  32.481  21.058  14.013
35206W        W 5087  43.269  26.007  13.905
35207W        W 5088  26.080   4.309  14.969
35208W        W 5089  10.261  10.716  10.896
35209W        W 5090   0.855   6.246  10.489
35210W        W 5091  33.467  30.591  13.458
35211W        W 5092  40.932  17.560  13.997
35212W        W 5093  28.629   6.310   5.691
35213W        W 5094  24.183  17.116   0.392
35214W        W 5095   9.785   0.258   1.717
35215W        W 5096  34.566  12.147   1.251
35216W        W 5097   2.735  27.021  13.396
35217W        W 5098  42.389  12.826  13.858
35218W        W 5099   9.344  32.584   4.252
35219W        W 5100  22.109  22.705   0.802
35220W        W 5101   7.281  19.041   3.754
35221W        W 5102  39.380  19.089  10.595
35222W        W 5103  42.523  44.280   2.725
35223W        W 5104  32.451  12.822   4.280
35224W        W 5105  24.529  20.068  14.014
35225W        W 5106  11.292   8.177   3.667
35226W        W 5107  34.929  35.364  11.431
35227W        W 5108   5.856  22.705   1.444
35228W        W 5109  43.422  42.791   3.153
35229W        W 5110  40.420   7.667   3.686
35230W        W 5111  32.438  16.657   1.365
35231W        W 5112  42.331  43.373   0.865
35232W        W 5113  43.937   7.730   0.376
35233W        W 5114  15.211   6.225  14.934
35234W        W 5115  11.670  13.812   4.680
35235W        W 5116  10.279  14.672   1.309
35236W        W 5117   7.716  31.898   3.336
35237W        W 5118   7.762  11.150   2.806
35238W        W 5119   2.461  13.762  14.816
35239W        W 5120   7.818  27.988   4.296
35240W        W 5121  31.110   2.229  13.539
35241W        W 5122  42.011  35.433   3.236
35242W        W 5123  14.172   7.365  13.444
35243W        W 5124  24.045   6.908   1.361
35244W        W 5125  27.458  11.750   4.206
35245W        W 5126  16.706   2.242  11.967
35246W        W 5127   3.854  37.336   0.891
35247W        W 5128  23.621  14.204   4.784
35248W        W 5129  25.640  17.106  10.059
35249W        W 5130  22.734  17.078   4.672
35250W        W 5131   6.899  34.538  13.849
35251W        W 5132   6.909  23.653   4.810
35252W        W 5133  28.079  22.502   5.219
35253W        W 5134  10.854   6.311   2.878
35254W        W 5135   4.408   2.429  14.916
35255W        W 5136  18.194  42.488  12.516
35256W        W 5137  37.006  21.086  14.289
35257W        W 5138  33.943  34.102  10.600
35258W        W 5139  16.230  14.205   2.817
35259W        W 5140   6.906  38.465   4.202
35260W        W 5141  40.326   5.907  14.796
35261W        W 5142  14.617  33.975  10.491
35262W        W 5143   0.833  26.054   0.342
35263W        W 5144  17.667  17.576  12.905
35264W        W 5145  31.112  30.963  12.570
35265W        W 5146  27.975  44.968  14.838
35266W        W 5147  35.930  35.452  11.113
35267W        W 5148  28.066  43.780   0.851
35268W        W 5149  30.130   1.338  14.441
35269W        W 5150  15.708  20.060   3.321
35270W        W 5151  33.892  16.130  13.906
35271W        W 5152  16.614  34.866  14.341
35272W        W 5153  18.224  12.856  10.951
35273W        W 5154   4.799  40.866  11.906
35274W        W 5155  28.179  33.608  10.567
35275W        W 5156   2.457   6.398  10.471
35276W        W 5157   8.190  38.889  10.432
35277W        W 5158  37.997  10.263  13.892
35278W        W 5159  15.786  13.320   0.784
35279W        W 5160   3.713  20.092  11.574
35280W        W 5161  43.476   1.270   2.888
35281W        W 5162  30.576  19.268   1.255
35282W        W 5163  20.155   8.282   2.279
35283W        W 5164  39.859  12.152   0.399
35284W        W 5165  38.459   3.390  14.772
35285W        W 5166  29.634  39.815   2.243
35286W        W 5167   4.412  22.534   2.395
35287W        W 5168  24.533  12.340   2.233
35288W        W 5169  18.588   4.831  14.416
35289W        W 5170   3.245  15.798  12.072
35290W        W 5171  39.939  31.098  11.611
35291W        W 5172   4.746  35.555  11.100
35292W        W 5173  30.642  30.988  10.470
35293W        W 5174  12.214  39.974   2.360
35294W        W 5175  32.012  31.118   1.858
35295W        W 5176  38.874  22.227   3.809
35296W        W 5177   8.276  43.899  13.349
35297W        W 5178   9.694   5.710   3.686
35298W        W 5179  16.298  41.843   4.605
35299W        W 5180  43.437   9.391  14.317
35300W        W 5181  29.110  25.482  10.643
35301W        W 5182  16.122  35.089   4.813
35302W        W 5183  20.549  23.984   0.966
35303W        W 5184  32.434  33.012   2.811
35304W        W 5185  19.687   0.974  14.004
35305W        W 5186  21.611  18.626   5.101
35306W        W 5187  41.383   2.290   3.805
35307W        W 5188  28.633  10.334   3.698
35308W        W 5189   6.328  26.064   0.933
35309W        W 5190  33.910  40.313  14.914
35310W        W 5191  29.171  13.175  10.593
35311W        W 5192  16.806  16.079   0.270
35312W        W 5193  38.332  17.729   1.788
35313W        W 5194  38.066  22.583   4.230
35314W        W 5195  15.687  35.569  13.912
35315W        W 5196  38.329  24.517   0.745
35316W        W 5197  34.927   3.788   2.665
35317W        W 5198  36.848  22.141   1.748
35318W        W 5199  13.335   4.881  14.816
35319W        W 5200  25.066  29.073   0.842
35320W        W 5201  16.099  29.133   4.746
35321W        W 5202  15.307   4.839  11.050
35322W        W 5203  22.159  41.861  13.965
35323W        W 5204  23.020   9.649  11.877
35324W        W 5205  13.229  14.277  14.978
35325W        W 5206  15.657  43.466  11.043
35326W        W 5207  42.395  20.577  12.440
35327W        W 5208  19.728  17.208   4.143
35328W        W 5209  15.246   9.379  12.084
35329W        W 5210  40.844  21.676   2.816
35330W        W 5211   0.473  33.471   2.694
35331W        W 5212  17.571  16.234   3.182
35332W        W 5213  30.090  10.855   2.775
35333W        W 5214  34.463  41.999  10.580
35334W        W 5215  27.082   8.208   1.309
35335W        W 5216  12.822   7.390  14.379
35336W        W 5217  20.240   8.801  14.976
35337W        W 5218  43.802  41.874   4.603
35338W        W 5219  25.585  11.857  10.572
35339W        W 5220  29.154  24.034  10.966
35340W        W 5221  26.676  41.921  14.995
35341W        W 5222  35.358  20.227   2.717
35342W        W 5223  23.056  29.127  12.457
35343W        W 5224  28.984   3.817   1.331
35344W        W 5225  25.164  35.474  10.969
35345W        W 5226  28.628  32.140  10.974
35346W        W 5227   5.715  33.909   2.319
35347W        W 5228  41.313  39.868  13.913
35348W        W 5229  24.186  10.378  10.475
35349W        W 5230   4.755  29.591   0.886
35350W        W 5231   3.800  21.154   1.368
35351W        W 5232   9.697  20.105  12.396
35352W        W 5233  26.702  22.538  10.923
35353W        W 5234  25.148  14.683   0.742
35354W        W 5235   7.334  15.106  11.901
35355W        W 5236  15.706  12.700  14.308
35356W        W 5237  12.353  37.379  10.925
35357W        W 5238  40.485  37.404  11.426
35358W        W 5239  29.076  18.598  12.065
35359W        W 5240  32.020  16.190  12.401
35360W        W 5241  11.293  37.373  10.439
35361W        W 5242  38.890  27.163  13.839
35362W        W 5243   5.222  44.785   1.341
35363W        W 5244  13.194  19.273  11.469
35364W        W 5245   0.818  13.617  11.875
35365W        W 5246  41.841  37.400  10.606
35366W        W 5247  23.129  36.035   2.336
35367W        W 5248  33.553   7.367   3.663
35368W        W 5249  40.862   9.214  14.415
35369W        W 5250  14.127  38.477   5.316
35370W        W 5251  40.856  28.965  12.463
35371W        W 5252  16.096  22.735   1.254
35372W        W 5253  19.559   5.211   0.847
35373W        W 5254  38.827  39.343   3.646
35374W        W 5255  29.645  14.159  12.415
35375W        W 5256  21.728  18.732  11.487
35376W        W 5257  12.808  21.718   2.365
35377W        W 5258  20.166  13.739   4.747
35378W        W 5259  35.039  16.147  13.874
35379W        W 5260  29.505  17.642   1.902
35380W        W 5261  11.356  32.057   3.236
35381W        W 5262  41.871  22.529  10.619
35382W        W 5263  11.728  12.323  14.449
35383W        W 5264  30.649  30.501  11.504
35384W        W 5265  14.737  20.624   3.745
35385W        W 5266  32.938   5.769  13.042
35386W        W 5267  19.637   7.865   4.318
35387W        W 5268  40.498  10.168   1.235
35388W        W 5269  13.776  29.578  12.877
35389W        W 5270   6.748   0.757  11.988
35390W        W 5271  44.805  29.618   1.789
35391W        W 5272   2.296  19.246  14.478
35392W        W 5273  18.591  44.918   1.879
35393W        W 5274   3.263  40.403  11.601
35394W        W 5275  43.364  28.148  12.463
35395W        W 5276  39.927  41.816  10.404
35396W        W 5277  33.938  31.612  13.859
35397W        W 5278  40.369  26.503  12.088
35398W        W 5279  13.232  17.785  14.898
35399W        W 5280  18.203   5.756   4.714
35400W        W 5281   1.461  39.063  10.478
35401W        W 5282  20.118  11.131  11.005
35402W        W 5283  19.265   8.365  11.558
35403W        W 5284  13.223  26.586  12.454
35404W        W 5285  22.237  38.329  11.038
35405W        W 5286  18.601  19.177  13.817
35406W        W 5287  24.056  29.926   1.821
35407W        W 5288  29.599  36.416   2.833
35408W        W 5289  17.721  12.823  12.514
35409W        W 5290  27.670  35.514   0.785
35410W        W 5291  14.308  31.631  10.955
35411W        W 5292  33.009  34.382  10.971
35412W        W 5293  11.279  33.392   1.796
35413W        W 5294   7.310  19.220   3.158
35414W        W 5295   3.791  28.106  13.805
35415W        W 5296  16.588  24.097  11.098
35416W        W 5297  21.202  10.866  14.499
35417W        W 5298   9.186  23.213   2.885
35418W        W 5299   3.879  21.233  10.994
35419W        W 5300  34.877  34.415   0.482
35420W        W 5301  41.922   8.817  11.597
35421W        W 5302  35.447  42.423  11.883
35422W        W 5303  20.647  33.103   2.408
35423W        W 5304  14.794  36.930   0.843
35424W        W 5305  15.632   5.199  13.395
35425W        W 5306   1.769  38.051   3.715
35426W        W 5307   0.918  41.866   0.937
35427W        W 5308  16.307  15.732  12.859
35428W        W 5309  41.855  20.126  12.548
35429W        W 5310  19.623  28.442  12.433
35430W        W 5311  26.660   0.255   1.799
35431W        W 5312  32.577  39.008  11.100
35432W        W 5313  31.610   8.761   2.316
35433W        W 5314  42.793  43.448  10.913
35434W        W 5315  33.112  24.519  13.357
35435W        W 5316  41.337  40.453   4.779
35436W        W 5317  40.469   8.767   0.354
35437W        W 5318  33.077  34.584  12.033
35438W        W 5319   3.442   6.356  11.993
35439W        W 5320   1.300  24.677   0.780
35440W        W 5321  41.975  37.950   4.787
35441W        W 5322  29.483  30.992   1.256
35442W        W 5323   4.375  25.523  10.415
35443W        W 5324  43.920   0.409  11.038
35444W        W 5325  38.948  37.839  10.158
35445W        W 5326   1.733  40.800   4.270
35446W        W 5327  41.871   8.789  14.821
35447W        W 5328   3.912  36.470  13.984
35448W        W 5329  32.932   1.883  11.994
35449W        W 5330  30.121  14.747   2.306
35450W        W 5331  37.340  33.574   3.232
35451W        W 5332  14.189   2.400  14.289
35452W        W 5333  18.148  16.720   0.319
35453W        W 5334   3.827  13.763  14.976
35454W        W 5335   3.369  38.474   2.843
35455W        W 5336  22.138  38.077   3.277
35456W        W 5337  17.774   5.203   3.301
35457W        W 5338  22.599  15.300  11.371
35458W        W 5339   1.435  18.561   4.663
35459W        W 5340  12.141   8.214   4.169
35460W        W 5341  14.632  16.726   0.419
35461W        W 5342  29.637  43.297  10.623
35462W        W 5343  38.428  32.495   3.238
35463W        W 5344  17.754  25.080   0.263
35464W        W 5345   8.847  34.395  14.356
35465W        W 5346   7.768  25.475  13.332
35466W        W 5347  23.990  43.466  11.601
35467W        W 5348  22.653  10.667   0.930
35468W        W 5349   5.337  29.062  14.465
35469W        W 5350   5.236  30.133  11.611
35470W        W 5351   8.875   7.176   3.232
35471W        W 5352  27.484  35.945  12.351
35472W        W 5353  36.941  29.149  11.919
35473W        W 5354   4.826  42.394  12.491
35474W        W 5355   6.858   3.772   1.880
35475W        W 5356  34.980  23.659  10.890
35476W        W 5357  21.579  38.934  11.120
35477W        W 5358  32.518  38.960   2.400
35478W        W 5359   4.715  16.677  10.610
35479W        W 5360  15.700   2.445  12.981
35480W        W 5361  15.712  37.967  10.482
35481W        W 5362  10.200  34.040  12.374
35482W        W 5363  33.530  28.455  14.764
35483W        W 5364   6.249   7.872  11.378
35484W        W 5365  15.326   4.302   3.799
35485W        W 5366  21.663  35.449  14.997
35486W        W 5367   0.930  21.635  14.405
35487W        W 5368  25.058  27.598  14.407
35488W        W 5369  16.580  29.930   0.931
35489W        W 5370  25.054  44.453  13.547
35490W        W 5371  44.890  16.197  10.565
35491W        W 5372  38.048  42.484   3.158
35492W        W 5373  42.832  30.433  10.979
35493W        W 5374  20.088   6.357   1.216
35494W        W 5375  40.798  35.898  12.962
35495W        W 5376  21.698   2.860   0.457
35496W        W 5377  38.409  39.983   0.363
35497W        W 5378   8.786  42.477   1.430
35498W        W 5379   3.880   4.924  11.914
35499W        W 5380  36.880  28.115   3.194
35500W        W 5381  43.875  30.048   2.678
35501W        W 5382  31.995  26.691   1.812
35502W        W 5383   2.824   0.432   1.867
35503W        W 5384  36.422  25.195   5.141
35504W        W 5385   5.841  14.140  12.541
35505W        W 5386  14.227  42.889  10.995
35506W        W 5387  41.538   6.387  13.062
35507W        W 5388  12.344  23.072  13.812
35508W        W 5389  17.249  27.467  12.924
35509W        W 5390   5.374  27.642  11.560
35510W        W 5391  33.467  40.397  10.533
35511W        W 5392   1.266  40.027   4.259
35512W        W 5393   5.873  23.588   1.849
35513W        W 5394  15.262  44.831   1.728
35514W        W 5395  14.190  43.948   2.703
35515W        W 5396  13.174  16.802   0.278
35516W        W 5397  33.009  36.966  12.961
35517W        W 5398  25.518  14.286   5.138
35518W        W 5399  17.278   6.881   0.415
35519W        W 5400  28.173  20.045  13.834
35520W        W 5401  13.321  17.767   3.375
35521W        W 5402  20.132  38.846  14.498
35522W        W 5403  41.037  41.825   2.879
35523W        W 5404  18.107   5.359   3.371
35524W        W 5405  41.792  24.161   3.264
35525W        W 5406   6.336  30.004  12.936
35526W        W 5407  24.209  28.931   3.673
35527W        W 5408   4.242  39.492   2.340
35528W        W 5409  22.610  20.578  14.347
35529W        W 5410  23.577  31.506  11.021
35530W        W 5411  44.487  28.001   4.142
35531W        W 5412   9.655  25.668  13.885
35532W        W 5413  26.625  17.178  10.979
35533W        W 5414  27.522  20.585   3.362
35534W        W 5415   5.370   9.186  14.975
35535W        W 5416  26.013  17.577  14.343
35536W        W 5417  42.798  12.264  13.467
35537W        W 5418  42.488  24.979  14.996
35538W        W 5419  25.109  17.130   4.238
35539W        W 5420  18.770  42.919   4.830
35540W        W 5421   5.323  11.761   2.783
35541W        W 5422  15.110  20.590  11.400
35542W        W 5423  42.911  30.541  10.121
35543W        W 5424   1.461  29.011   2.267
35544W        W 5425  34.418   6.425  13.531
35545W        W 5426   6.268  15.768  12.056
35546W        W 5427  10.289  13.271  11.109
35547W        W 5428  19.649  33.450  11.601
35548W        W 5429   9.869  36.961   0.249
35549W        W 5430  12.222   7.382  10.513
35550W        W 5431  41.321  15.208  14.406
35551W        W 5432  11.364  30.589   5.201
35552W        W 5433  37.581  40.386  11.425
35553W        W 5434  21.183  34.592  14.783
35554W        W 5435   9.191   7.716   1.889
35555W        W 5436  13.627  42.922   0.473
35556W        W 5437  14.748   4.935   3.196
35557W        W 5438  37.078  28.959   3.789
35558W        W 5439  33.092  39.022  13.912
35559W        W 5440  19.258  13.657  13.021
35560W        W 5441  41.345  39.483   2.837
35561W        W 5442  42.514  37.949   4.623
35562W        W 5443   3.920  33.076   4.249
35563W        W 5444   0.478  39.501   1.714
35564W        W 5445  35.010  25.472  12.876
35565W        W 5446  31.635  25.179   2.751
35566W        W 5447  12.650   6.735   1.828
35567W        W 5448  22.097   0.762   3.723
35568W        W 5449   9.368  34.959  12.016
35569W        W 5450  29.508  26.982   2.237
35570W        W 5451   1.306  13.799  13.448
35571W        W 5452  19.274  27.034   3.798
35572W        W 5453   0.934  30.505   4.188
35573W        W 5454  23.094  40.000  13.358
35574W        W 5455  22.554  38.374  14.484
35575W        W 5456  16.289  39.453  14.377
35576W        W 5457  10.660  44.909  11.108
35577W        W 5458   0.875  16.294   3.651
35578W        W 5459  20.111  29.058  11.069
35579W        W 5460   9.791  29.506  12.957
35580W        W 5461  43.392  30.914   0.458
35581W        W 5462  21.201  44.279   3.382
35582W        W 5463  13.717  16.249  13.993
35583W        W 5464  33.515  18.285   4.237
35584W        W 5465  10.848  17.234   4.291
35585W        W 5466  42.497  14.161   2.358
35586W        W 5467  34.435  26.643   2.245
35587W        W 5468   4.904  24.699  12.376
35588W        W 5469  35.579  30.034   4.785
35589W        W 5470   4.930  30.078   1.287
35590W        W 5471   9.781  35.600  12.977
35591W        W 5472  37.999  33.884  14.957
35592W        W 5473  29.952  29.481  13.935
35593W        W 5474  39.511  18.621  10.595
35594W        W 5475  16.683  30.961   1.239
35595W        W 5476  10.672   4.894  14.293
35596W        W 5477   1.838  13.623  11.021
35597W        W 5478  16.631  27.028   1.756
35598W        W 5479  42.929  42.497  13.995
35599W        W 5480  16.277  39.893  12.450
35600W        W 5481  43.509  27.620  13.796
35601W        W 5482  27.052  38.008  10.923
35602W        W 5483  24.567   7.791  12.869
35603W        W 5484  28.435  15.297  14.029
35604W        W 5485  23.613  41.906   2.281
35605W        W 5486  29.165   0.900   1.763
35606W        W 5487  25.475  32.131   5.147
35607W        W 5488  22.637   0.288  14.813
35608W        W 5489  18.561  35.977   3.347
35609W        W 5490  43.308   9.852   0.791
35610W        W 5491  40.891   8.387  11.440
35611W        W 5492  34.392  23.217   4.793
35612W        W 5493  12.679  35.535   0.247
35613W        W 5494  15.087  41.432  14.802
35614W        W 5495  33.064  40.388  11.549
35615W        W 5496  33.459  26.483   0.333
35616W        W 5497  35.399  17.259   4.649
35617W        W 5498  33.570  41.819   1.290
35618W        W 5499   4.780  10.644   4.724
35619W        W 5500  44.788  26.069  10.626
35620W        W 5501  22.198  14.764  10.586
35621W        W 5502  44.832   3.432   4.256
35622W        W 5503  12.218   5.373  13.339
35623W        W 5504   9.678  29.601   1.239
35624W        W 5505   2.241   5.390   4.215
35625W        W 5506  17.674  34.901  14.367
35626W        W 5507  10.308  28.586  13.347
35627W        W 5508   1.751  35.405   4.749
35628W        W 5509  27.086  37.917   0.794
35629W        W 5510   6.872  28.622  12.514
35630W        W 5511  31.409  34.559  12.086
35631W        W 5512  32.970   3.859  14.957
35632W        W 5513  32.923  35.041  13.041
35633W        W 5514  16.769  16.171   1.223
35634W        W 5515   2.342  35.860   0.930
35635W        W 5516  24.693  30.552   2.899
35636W        W 5517  15.778  14.219   1.417
35637W        W 5518  16.237  16.124   3.220
35638W        W 5519  33.562   4.361   0.811
35639W        W 5520  38.352  23.534  14.814
35640W        W 5521   5.320   1.814  14.343
35641W        W 5522  21.627   1.906  12.424
35642W        W 5523   4.335  20.760  13.336
35643W        W 5524  39.933  33.553   4.680
35644W        W 5525  21.515  36.005   5.110
35645W        W 5526   0.465   5.242  13.029
35646W        W 5527  13.790  24.987   2.811
35647W        W 5528  41.487   4.806  10.960
35648W        W 5529  34.405  31.956   0.844
35649W        W 5530  27.104  11.683  12.460
35650W        W 5531  13.302  33.468   0.339
35651W        W 5532   3.954  35.964  11.543
35652W        W 5533  14.645  31.116   1.879
35653W        W 5534  11.837  33.478   2.686
35654W        W 5535  22.151  39.811   2.867
35655W        W 5536  28.055  26.975   4.209
35656W        W 5537  10.322  38.948   4.707
35657W        W 5538  31.537  40.345   4.738
35658W        W 5539  25.549  23.050  12.908
35659W        W 5540  43.949  31.896  14.351
35660W        W 5541  40.828  21.578  14.427
35661W        W 5542  29.939   6.290  10.034
35662W        W 5543  11.629  11.311  12.456
35663W        W 5544  29.630   8.321   0.895
35664W        W 5545   2.886   1.332   0.833
35665W        W 5546  44.921  37.069  11.415
35666W        W 5547  11.768  31.026  12.069
35667W        W 5548  34.548  40.889  14.818
35668W        W 5549  12.142  43.917   3.352
35669W        W 5550  32.430  40.370   2.844
35670W        W 5551  22.592   6.858   0.928
35671W        W 5552  30.586  23.627  14.914
35672W        W 5553   3.374   9.221  12.864
35673W        W 5554  18.141   0.452   2.712
35674W        W 5555  16.705  40.412  13.532
35675W        W 5556   5.905  24.021  10.404
35676W        W 5557  22.556   4.803  14.856
35677W        W 5558   0.447  14.103  12.453
35678W        W 5559  14.638   1.330   0.890
35679W        W 5560   4.446  44.812  13.858
35680W        W 5561  12.625  42.838  12.543
35681W        W 5562  38.966  39.359   3.255
35682W        W 5563  36.522   0.291   1.885
35683W        W 5564  11.765   8.184   3.295
35684W        W 5565   6.295  14.139   3.788
35685W        W 5566  16.217   4.944  13.908
35686W        W 5567  34.464  23.636   4.687
35687W        W 5568  18.729  40.905  12.093
35688W        W 5569  31.062  39.004   2.237
35689W        W 5570  10.342  27.572   1.749
35690W        W 5571  14.151  40.813  13.990
35691W        W 5572  16.243  44.849   0.831
35692W        W 5573  37.979  32.531  12.013
35693W        W 5574  35.418  24.154   2.282
35694W        W 5575  32.896  12.736  12.010
35695W        W 5576  18.776  30.074  14.316
35696W        W 5577  41.900  24.145   4.728
35697W        W 5578  39.037  10.691   1.416
35698W        W 5579  39.430  37.411   3.163
35699W        W 5580  25.479  36.513  11.492
35700W        W 5581  12.641  20.581  14.343
35701W        W 5582   7.761  13.306  12.526
35702W        W 5583  37.424  22.155  10.911
35703W        W 5584  37.862  37.428   3.857
35704W        W 5585  28.525  30.952  13.436
35705W        W 5586  43.961  17.115  14.782
35706W        W 5587   4.430  17.171  11.438
35707W        W 5588  42.828  41.499  14.964
35708W        W 5589  11.738  12.733  10.545
35709W        W 5590  29.515  27.562  14.320
35710W        W 5591  31.517  44.822  13.899
35711W        W 5592  21.605  18.071   1.295
35712W        W 5593  26.458  12.673  13.811
35713W        W 5594   2.307   1.257  11.579
35714W        W 5595  14.605  27.098   0.933
35715W        W 5596   3.385  19.628   9.921
35716W        W 5597  24.175  17.796  10.914
35717W        W 5598  20.102  42.470   3.150
35718W        W 5599  17.188   9.756  14.315
35719W        W 5600  24.577  25.083   4.702
35720W        W 5601  25.981  42.419   4.185
35721W        W 5602  21.018   5.895   2.335
35722W        W 5603  40.327   3.429  14.396
35723W        W 5604   5.383  18.263   4.289
35724W        W 5605  18.553  40.412   2.729
35725W        W 5606   0.973  11.370   1.360
35726W        W 5607   3.269  11.326  10.513
35727W        W 5608  33.035  16.716   4.612
35728W        W 5609  30.007  10.676  14.972
35729W        W 5610  43.410  43.765  12.911
35730W        W 5611   8.273  44.894   0.781
35731W        W 5612  37.941  25.540  11.584
35732W        W 5613  19.204  38.052  11.906
35733W        W 5614   0.429  39.504  12.544
35734W        W 5615  16.566  24.135  13.464
35735W        W 5616  23.501   0.399  10.627
35736W        W 5617  10.690  38.535   0.833
35737W        W 5618  15.615  34.886  11.064
35738W        W 5619  44.928  10.824  12.006
35739W        W 5620   7.737  21.131  14.414
35740W        W 5621  31.128  37.879  13.886
35741W        W 5622  40.900  16.645  11.529
35742W        W 5623  17.162  32.595  14.824
35743W        W 5624   2.466  13.215   0.427
35744W        W 5625   8.340  40.053  11.120
35745W        W 5626  32.437  21.556   4.288
35746W        W 5627  20.748  30.948  11.912
35747W        W 5628   7.288  36.477   2.349
35748W        W 5629   0.459   7.747   0.356
35749W        W 5630  40.835  44.951  12.049
35750W        W 5631  23.620  12.134   2.717
35751W        W 5632  19.754  39.472  14.839
35752W        W 5633   5.830   0.768   0.352
35753W        W 5634  33.426  13.692  14.445
35754W        W 5635  22.562  30.053   0.836
35755W        W 5636  38.986  16.279   2.209
35756W        W 5637  29.566  31.641   0.889
35757W        W 5638  43.857  15.781   0.363
35758W        W 5639   3.901   5.863  13.448
35759W        W 5640  29.592  44.931   2.321
35760W        W 5641  13.817  26.146   2.256
35761W        W 5642   6.759  15.578   9.926
35762W        W 5643  38.855  10.772   0.808
35763W        W 5644  31.579   9.335   2.370
35764W        W 5645   5.245  42.484   1.447
35765W        W 5646  39.927  40.434  12.519
35766W        W 5647  42.479   7.831   2.217
35767W        W 5648  24.556   6.908   2.738
35768W        W 5649  23.097  19.539  14.884
35769W        W 5650  13.251  26.493   0.470
35770W        W 5651  15.691  27.602  12.071
35771W        W 5652  28.072  32.897   9.932
35772W        W 5653  35.525   5.378   4.773
35773W        W 5654  33.912  42.403  11.916
35774W        W 5655  35.431  20.574  10.986
35775W        W 5656   1.827  44.939  11.067
35776W        W 5657  32.995  30.445   4.598
35777W        W 5658  30.640  29.660   5.120
35778W        W 5659  34.589  29.540   1.872
35779W        W 5660   0.821  26.504  12.351
35780W        W 5661  11.621  10.812  11.964
35781W        W 5662  20.065   8.235  10.929
35782W        W 5663  19.143  40.884  13.800
35783W        W 5664  28.068  36.432   3.222
35784W        W 5665  21.125  35.359  14.299
35785W        W 5666  42.820  23.229  13.995
35786W        W 5667  30.621   9.846   0.771
35787W        W 5668  26.458  16.805  12.879
35788W        W 5669  33.508  11.679  13.918
35789W        W 5670   7.274  36.448   3.272
35790W        W 5671  27.683  17.655  10.630
35791W        W 5672  41.027  38.365  13.474
35792W        W 5673   1.444  17.124  11.125
35793W        W 5674  32.942  21.162  11.863
35794W        W 5675   3.376   2.400  11.045
35795W        W 5676  29.575  17.075   1.420
35796W        W 5677  44.928  27.044  11.868
35797W        W 5678  43.440  30.010   3.305
35798W        W 5679   9.646  14.615   3.272
35799W        W 5680   1.858  34.388  14.780
35800W        W 5681  16.720  40.941  13.849
35801W        W 5682  40.395   3.935   1.906
35802W        W 5683  28.536  41.531   4.622
35803W        W 5684   6.722  22.639   2.336
35804W        W 5685  41.894   6.273   4.743
35805W        W 5686  16.135  33.991  10.921
35806W        W 5687   6.697  42.312   0.830
35807W        W 5688  34.976   6.221   2.715
35808W        W 5689  23.086   3.735  13.340
35809W        W 5690   1.314  27.447  12.449
35810W        W 5691  13.758  31.933  14.941
35811W        W 5692   7.250  37.577   3.355
35812W        W 5693  35.595  14.132   4.214
35813W        W 5694  26.562  37.896  13.885
35814W        W 5695  26.494  26.568   0.833
35815W        W 5696   6.353  40.375   2.844
35816W        W 5697  27.536  42.029   0.419
35817W        W 5698  27.035  20.144   3.829
35818W        W 5699  25.548  40.409  10.148
35819W        W 5700  29.134  26.118   0.440
35820W        W 5701  41.421  34.560   3.187
35821W        W 5702  39.827  18.194   2.220
35822W        W 5703  25.219  35.590  13.437
35823W        W 5704  39.341  27.511   2.369
35824W        W 5705   8.685  12.805   3.312
35825W        W 5706  44.851   9.814   0.443
35826W        W 5707  44.381  33.574   3.215
35827W        W 5708  25.616  35.367   0.381
35828W        W 5709  33.918  39.321   2.865
35829W        W 5710  27.533  16.584  10.890
35830W        W 5711  43.292  17.645   2.860
35831W        W 5712  33.010  24.718  12.370
35832W        W 5713  38.048  17.559  11.870
35833W        W 5714  26.061  23.545  12.347
35834W        W 5715  34.117  20.143  11.607
35835W        W 5716   4.804  11.363  10.911
35836W        W 5717  43.348  39.973  14.013
35837W        W 5718  13.237  40.458   3.148
35838W        W 5719  40.372  38.036   4.351
35839W        W 5720  32.498   5.381  12.941
35840W        W 5721  16.570  41.421   1.729
35841W        W 5722   9.256   6.418  11.979
35842W        W 5723  31.634   5.878  11.008
35843W        W 5724  36.563  19.184   0.757
35844W        W 5725  39.930  17.619   3.379
35845W        W 5726  17.150   5.200   2.775
35846W        W 5727  42.816  34.026  13.929
35847W        W 5728  44.491  11.191  14.823
35848W        W 5729   6.797  29.560   3.786
35849W        W 5730  16.315  24.031   3.384
35850W        W 5731  39.475   2.439  12.526
35851W        W 5732   8.314  36.061  11.015
35852W        W 5733   7.777   3.278  10.097
35853W        W 5734  25.063   0.386   2.370
35854W        W 5735  41.853   4.856  14.902
35855W        W 5736  31.608  31.013   2.235
35856W        W 5737  25.547  19.572  12.344
35857W        W 5738  20.268   2.262   2.207
35858W        W 5739  28.638   0.868  13.859
35859W        W 5740  19.641   5.863   0.899
35860W        W 5741  42.795  15.782  11.946
35861W        W 5742  12.324  10.196   3.169
35862W        W 5743  23.123  42.849  14.289
35863W        W 5744  43.347   1.818  11.890
35864W        W 5745  21.171  32.922  12.066
35865W        W 5746  25.501  34.441   0.939
35866W        W 5747  17.184  34.376  11.452
35867W        W 5748  27.120  44.307  12.356
35868W        W 5749  39.900   1.291   0.933
35869W        W 5750  39.331  44.361   1.901
35870W        W 5751  12.626  35.108  12.909
35871W        W 5752   3.897  26.582   4.113
35872W        W 5753  15.677  42.882  12.430
35873W        W 5754  41.985  43.362   1.422
35874W        W 5755   9.725  37.032  13.017
35875W        W 5756  27.467  38.857   0.738
35876W        W 5757  32.984   0.871  12.842
35877W        W 5758   5.724   4.756   4.317
35878W        W 5759   6.759   6.190  14.500
35879W        W 5760  41.918  10.367   1.884
35880W        W 5761   6.394   5.246  11.110
35881W        W 5762  12.851   1.906  13.358
35882W        W 5763  15.747   4.835   0.367
35883W        W 5764  29.528  33.404  12.421
35884W        W 5765  44.816  18.636  14.955
35885W        W 5766  10.244   2.761  12.029
35886W        W 5767  16.790  43.399   3.748
35887W        W 5768  33.598  12.840  13.316
35888W        W 5769  17.582  15.280   3.727
35889W        W 5770  26.984   2.433   1.368
35890W        W 5771  33.461   8.804  14.405
35891W        W 5772   3.277  22.620  10.439
35892W        W 5773   5.763  11.773  14.439
35893W        W 5774  30.116  20.688   0.318
35894W        W 5775  26.954  15.628  13.341
35895W        W 5776  38.922  23.071  14.492
35896W        W 5777  19.613  20.665  12.976
35897W        W 5778  16.098  31.015   4.192
35898W        W 5779  31.144  37.550  11.374
35899W        W 5780  18.281  43.795  14.372
35900W        W 5781   0.402  24.571  11.905
35901W        W 5782  30.149  12.805   4.607
35902W        W 5783  39.046  10.330   5.270
35903W        W 5784  30.493  20.530   2.803
35904W        W 5785   5.823  14.766  13.824
35905W        W 5786   7.789  40.958   4.801
35906W        W 5787  25.548  22.214   4.223
35907W        W 5788  37.971  35.037  14.018
35908W        W 5789  22.626  30.911  13.877
35909W        W 5790  22.245  34.020   1.215
35910W        W 5791   0.474  22.725  11.892
35911W        W 5792  42.522  33.008  13.030
35912W        W 5793  11.365  44.938   4.663
35913W        W 5794  37.581   7.375  10.112
35914W        W 5795   6.286  11.842  14.381
35915W        W 5796  18.581  32.093  11.078
35916W        W 5797  40.000  38.342   0.423
35917W        W 5798  26.624  10.375   2.347
35918W        W 5799  34.095  34.028  13.930
35919W        W 5800  23.529   6.233  14.823
35920W        W 5801  39.388  13.296   1.395
35921W        W 5802  36.405  18.617  13.866
35922W        W 5803   2.471  12.840  13.831
35923W        W 5804   1.866  20.692  10.577
35924W        W 5805  14.796  25.071  10.959
35925W        W 5806  14.300  43.789  12.959
35926W        W 5807  24.489   4.819  13.949
35927W        W 5808  43.789  12.773  13.904
35928W        W 5809  24.084  34.376  11.568
35929W        W 5810  14.777  37.978   4.268
35930W        W 5811  44.392  37.911   4.632
35931W        W 5812  39.874   0.481   3.375
35932W        W 5813   7.897  37.532  13.343
35933W        W 5814  27.137  38.856   4.775
35934W        W 5815  25.563  33.991  12.504
35935W        W 5816  15.653  13.296  11.878
35936W        W 5817   1.237  12.797  12.485
35937W        W 5818  41.793   9.802   3.681
35938W        W 5819  10.852  27.546  11.052
35939W        W 5820  23.033  30.123  12.825
35940W        W 5821   5.823   3.425  13.956
35941W        W 5822  14.210   0.470  13.968
35942W        W 5823  34.080  20.105   2.250
35943W        W 5824  27.538  32.522  11.007
35944W        W 5825  21.027  30.144   0.953
35945W        W 5826  40.960  23.095   1.730
35946W        W 5827  22.211   4.443  12.562
35947W        W 5828  39.406  27.522  12.571
35948W        W 5829   9.775  33.546  14.020
35949W        W 5830  35.870  15.687  13.354
35950W        W 5831   9.758  25.572   4.328
35951W        W 5832  37.528  32.423  10.575
35952W        W 5833  14.214   9.724  14.967
35953W        W 5834  34.467  19.635   2.250
35954W        W 5835   4.396  28.663   3.259
35955W        W 5836  14.817  15.620  11.934
35956W        W 5837  38.332   1.895  12.085
35957W        W 5838  37.411  32.507   4.326
35958W        W 5839  39.346  26.962  13.911
35959W        W 5840   2.438   1.950  13.932
35960W        W 5841   1.787  22.561  14.785
35961W        W 5842  19.721  35.569  12.043
35962W        W 5843  11.128   8.800  10.411
35963W        W 5844  37.937  22.185   2.828
35964W        W 5845  32.503  36.917   0.408
35965W        W 5846  31.552  31.439  14.793
35966W        W 5847  26.999  16.802  12.948
35967W        W 5848   0.455  25.962  13.795
35968W        W 5849  16.697  38.549  14.314
35969W        W 5850   7.813  32.074  10.634
35970W        W 5851  26.586   4.713  11.977
35971W        W 5852   7.853   0.947   1.342
35972W        W 5853  41.958  36.531  12.431
35973W        W 5854  10.709  28.640   3.825
35974W        W 5855  28.041  29.081   0.458
35975W        W 5856  38.336  43.775  11.556
35976W        W 5857  17.210  23.180  10.915
35977W        W 5858  44.811  39.402   4.261
35978W        W 5859  31.614  12.159   0.405
35979W        W 5860  21.134  40.980   3.866
35980W        W 5861  35.378  40.971   3.154
35981W        W 5862  10.729  38.064  10.549
35982W        W 5863   8.781   2.471   2.725
35983W        W 5864   7.757   0.312   4.779
35984W        W 5865  12.121  17.244  12.960
35985W        W 5866  16.696  12.801   4.611
35986W        W 5867  17.085   9.776  13.340
35987W        W 5868  41.021   3.309   3.288
35988W        W 5869  24.508  18.678  10.433
35989W        W 5870  22.707   6.226   3.729
35990W        W 5871  25.167  15.784   1.852
35991W        W 5872  36.002  20.637  11.563
35992W        W 5873   4.736  29.042  14.834
35993W        W 5874  24.650  23.491   0.797
35994W        W 5875   2.837   0.854   2.204
35995W        W 5876  20.596  42.335  13.047
35996W        W 5877   1.886   6.423  14.985
35997W        W 5878  40.965  23.207  12.002
35998W        W 5879  10.842  17.201  13.424
35999W        W 5880  44.275  13.769   4.294
36000W        W 5881  36.412  10.366  13.877
36001W        W 5882  22.726   1.293   3.305
36002W        W 5883  19.130  14.724   1.247
36003W        W 5884  11.653  42.972   1.757
36004W        W 5885  26.548  37.528   0.360
36005W        W 5886   5.695  42.864  14.925
36006W        W 5887  40.537  35.372  14.804
36007W        W 5888  21.589  39.916   2.825
36008W        W 5889  40.526  38.873   1.829
36009W        W 5890  35.881  17.275   3.682
36010W        W 5891   5.374  36.412   2.196
36011W        W 5892  22.566   2.245  14.971
36012W        W 5893  22.058  24.596  14.473
36013W        W 5894  26.492  44.853   4.598
36014W        W 5895  44.485  16.133   0.856
36015W        W 5896  26.620   2.449   2.282
36016W        W 5897  36.847  13.128   0.458
36017W        W 5898   8.894  10.683   3.386
36018W        W 5899  10.344  16.159  12.508
36019W        W 5900  20.670   0.869   3.303
36020W        W 5901  31.595   9.258  13.348
36021W        W 5902  38.837  22.998   4.351
36022W        W 5903  15.120  43.446   4.686
36023W        W 5904  15.193  19.109  11.482
36024W        W 5905  22.208  12.646  10.532
36025W        W 5906   5.426  18.203   4.697
36026W        W 5907  22.113  12.820  12.994
36027W        W 5908  44.435  29.546  10.480
36028W        W 5909   7.755   6.774   3.754
36029W        W 5910  10.151  39.507  14.826
36030W        W 5911  12.834  44.928   2.737
36031W        W 5912  35.575  39.929   4.805
36032W        W 5913   7.809  27.682  10.499
36033W        W 5914  32.586  10.770  11.601
36034W        W 5915   4.356  38.353  14.467
36035W        W 5916  16.182  44.460   4.133
36036W        W 5917  15.800  34.972  12.869
36037W        W 5918  15.625  30.055   4.205
36038W        W 5919  16.150   0.814  11.073
36039W        W 5920   0.456  43.786   3.312
36040W        W 5921  27.555  33.469  12.966
36041W        W 5922  12.336   4.247  12.527
36042W        W 5923  21.604  36.427  11.504
36043W        W 5924  31.510   6.275  14.355
36044W        W 5925  15.288  38.522   1.222
36045W        W 5926   5.887  31.641  12.866
36046W        W 5927  24.129  43.315   2.874
36047W        W 5928  11.852  34.001   0.747
36048W        W 5929  41.984  39.419   2.698
36049W        W 5930  39.050  40.952   2.252
36050W        W 5931  23.656  32.925  14.760
36051W        W 5932  18.172  14.807   3.707
36052W        W 5933   9.348  21.521  12.460
36053W        W 5934  13.120  16.688  12.567
36054W        W 5935  24.196  18.159   4.318
36055W        W 5936  40.346  17.778   3.237
36056W        W 5937  32.060  36.917   2.253
36057W        W 5938  26.609  11.229   1.289
36058W        W 5939  44.432  24.674  11.885
36059W        W 5940  15.166   3.833   1.333
36060W        W 5941  40.313  32.490  12.985
36061W        W 5942  18.162  33.968  11.903
36062W        W 5943  32.928  17.652  13.799
36063W        W 5944  13.618   1.785   1.901
36064W        W 5945   6.886  24.523  13.858
36065W        W 5946  35.083  11.324   1.258
36066W        W 5947  41.793  14.747   1.382
36067W        W 5948  44.794  31.591  12.975
36068W        W 5949  18.072  43.456  11.085
36069W        W 5950   7.253  38.960  11.381
36070W        W 5951  44.816   3.352   3.151
36071W        W 5952  15.320  11.671   2.740
36072W        W 5953   0.904  20.744  13.810
36073W        W 5954  40.830  39.450   3.304
36074W        W 5955   9.813  16.588   1.351
36075W        W 5956  18.756  34.519  14.466
36076W        W 5957  36.520   9.710  11.440
36077W        W 5958  36.470  27.194  10.972
36078W        W 5959  13.614  37.019   0.284
36079W        W 5960  24.161  27.558  14.503
36080W        W 5961  21.648  17.120   4.688
36081W        W 5962  24.022  13.663   0.432
36082W        W 5963  32.461   0.413  14.936
36083W        W 5964  10.645  33.894  12.905
36084W        W 5965  10.299  19.617   1.233
36085W        W 5966  15.295   9.842  11.890
36086W        W 5967  32.097   8.762  13.062
36087W        W 5968   2.912  33.079   3.363
36088W        W 5969   4.899  44.308   4.348
36089W        W 5970   7.309  24.217  12.027
36090W        W 5971  35.985   8.295   1.314
36091W        W 5972  29.436  25.512   4.284
36092W        W 5973  27.151  27.458   1.854
36093W        W 5974  16.746  15.582  13.918
36094W        W 5975   2.275  18.705  12.564
36095W        W 5976  12.779  25.585   4.649
36096W        W 5977  37.046  31.472  12.531
36097W        W 5978  15.821  16.173  11.084
36098W        W 5979   5.768  30.441  12.406
36099W        W 5980  44.377  20.270   3.640
36100W        W 5981  12.727  27.487   1.379
36101W        W 5982  31.608  19.232   0.777
36102W        W 5983  12.776  17.293  14.434
36103W        W 5984   4.772  13.715  14.330
36104W        W 5985   2.233   4.897  12.962
36105W        W 5986  17.177  44.479   1.413
36106W        W 5987  25.509  41.373   2.703
36107W        W 5988  16.606  39.961  11.950
36108W        W 5989  11.267  29.653   4.770
36109W        W 5990  15.215   2.749   0.747
36110W        W 5991  40.510   3.248  13.507
36111W        W 5992  30.951  23.673  13.035
36112W        W 5993  21.220   2.756   2.187
36113W        W 5994   9.729  12.763   0.287
36114W        W 5995  21.141   8.257  10.981
36115W        W 5996  17.283   0.486  11.096
36116W        W 5997  29.055  14.801  12.477
36117W        W 5998  39.492  17.761   4.286
36118W        W 5999   1.482   4.287   1.292
36119W        W 6000   0.764  23.568   1.921
36120W        W 6001  36.353  20.685  10.475
36121W        W 6002  21.089   0.767  14.003
36122W        W 6003  39.927  41.914   3.362
36123W        W 6004  27.160  22.570   3.369
36124W        W 6005  31.134  43.851  14.393
36125W        W 6006  26.480  34.104   0.791
36126W        W 6007  14.785  20.165   3.687
36127W        W 6008  21.555  28.480  11.065
36128W        W 6009  10.363  14.779  12.568
36129W        W 6010  33.498  14.714  13.000
36130W        W 6011  42.981  40.052   4.209
36131W        W 6012  39.318  42.813  12.830
36132W        W 6013  38.361  10.307  13.884
36133W        W 6014   9.652  43.916   1.363
36134W        W 6015  36.926  18.168   2.189
36135W        W 6016  13.649  30.926   2.736
36136W        W 6017  30.151  18.126  14.795
36137W        W 6018  17.227  43.394   0.737
36138W        W 6019   8.257  30.587  13.059
36139W        W 6020  28.614  22.736  13.857
36140W        W 6021   6.241  11.657   1.356
36141W        W 6022   4.813  41.301   3.174
36142W        W 6023  29.145   8.380   0.850
36143W        W 6024  37.034   0.947   0.301
36144W        W 6025  38.408  39.345   0.923
36145W        W 6026  14.312  40.903  12.053
36146W        W 6027  32.536  40.014   3.203
36147W        W 6028  18.075   7.326   0.841
36148W        W 6029  36.057  38.406   1.399
36149W        W 6030   0.264  33.914   1.889
36150W        W 6031  33.609  16.707   4.316
36151W        W 6032  34.101  21.142   1.400
36152W        W 6033  24.556  37.867  11.422
36153W        W 6034  14.247  18.605   3.288
36154W        W 6035  33.612  39.945  12.525
36155W        W 6036  10.306  29.637  13.914
36156W        W 6037  16.238  36.478   1.316
36157W        W 6038  40.880  24.019  12.460
36158W        W 6039  34.556  13.738  14.345
36159W        W 6040   6.801  10.321   2.724
36160W        W 6041  19.145  14.235   4.781
36161W        W 6042   9.243  18.675  10.916
36162W        W 6043  18.742  19.229  11.579
36163W        W 6044  44.443  37.389  11.037
36164W        W 6045  20.139  12.643  10.963
36165W        W 6046  22.724  23.633   0.797
36166W        W 6047  44.987  30.148  12.076
36167W        W 6048  28.658  39.485  13.476
36168W        W 6049  16.573  18.236  12.020
36169W        W 6050  25.103  13.144   3.250
36170W        W 6051  19.598  41.506   3.694
36171W        W 6052  27.462  10.381  11.878
36172W        W 6053  21.604  21.756   0.437
36173W        W 6054  12.638   0.490   0.294
36174W        W 6055  18.251   3.337   0.768
36175W        W 6056   4.743   5.746  12.395
36176W        W 6057  28.043   7.867  14.397
36177W        W 6058  17.780   0.492   2.712
36178W        W 6059  38.001   4.420  11.875
36179W        W 6060  24.583  12.169  12.034
36180W        W 6061  16.624  21.203   2.735
36181W        W 6062  29.570  42.031   4.228
36182W        W 6063  33.026  20.747   3.777
36183W        W 6064   0.484  42.790   2.819
36184W        W 6065  12.648  27.687  12.541
36185W        W 6066  35.861  11.336   3.233
36186W        W 6067  10.862  30.075   9.498
36187W        W 6068   1.889  34.443   2.368
36188W        W 6069  12.220   6.831   4.669
36189W        W 6070   7.361  20.686  13.016
36190W        W 6071  26.505   3.459  12.359
36191W        W 6072  19.724  20.626   3.807
36192W        W 6073   4.804  33.549  12.826
36193W        W 6074   0.949  14.111   1.811
36194W        W 6075  18.284  38.401   3.278
36195W        W 6076   8.231  16.238  11.871
36196W        W 6077   7.679  26.082  12.013
36197W        W 6078  35.858  37.905   3.808
36198W        W 6079  43.793  25.146   1.715
36199W        W 6080   6.887   0.420  12.501
36200W        W 6081   3.251  39.819   1.738
36201W        W 6082  11.355  35.415   0.930
36202W        W 6083  25.687  16.666  11.384
36203W        W 6084  31.908  29.546   4.837
36204W        W 6085  37.034  40.888  12.440
36205W        W 6086  11.713  18.061   4.767
36206W        W 6087  29.445   7.417  13.510
36207W        W 6088   3.315   1.844  10.948
36208W        W 6089   6.316  22.182   3.691
36209W        W 6090  14.799   1.754   2.206
36210W        W 6091  10.875  12.658  11.604
36211W        W 6092  22.645  40.509  11.501
36212W        W 6093  19.646  15.724   0.426
36213W        W 6094  12.214  21.096   3.309
36214W        W 6095  39.017  13.699  12.849
36215W        W 6096  24.139   3.268   3.363
36216W        W 6097  12.783   8.696  13.892
36217W        W 6098  13.258   1.459   1.925
36218W        W 6099  27.971  42.340  14.819
36219W        W 6100  29.462  33.050  12.579
36220W        W 6101   4.316  42.455   1.882
36221W        W 6102   3.340  38.017   2.700
36222W        W 6103  31.069  30.108  12.578
36223W        W 6104  23.622  12.749   1.853
36224W        W 6105  24.066  34.072  13.334
36225W        W 6106  26.565  42.290   1.706
36226W        W 6107  41.943   0.823  13.334
36227W        W 6108  29.093  21.553  13.809
36228W        W 6109  42.365  34.111   3.157
36229W        W 6110  12.721  35.886  14.981
36230W        W 6111  18.589  40.501   0.473
36231W        W 6112  39.970  18.756   2.266
36232W        W 6113  34.090  38.429   4.794
36233W        W 6114  17.584   9.833  12.836
36234W        W 6115  21.568  30.087   2.790
36235W        W 6116  23.170  35.017  11.485
36236W        W 6117  33.427  23.500  12.883
36237W        W 6118  28.081  23.600   3.322
36238W        W 6119   9.222  35.057   4.118
36239W        W 6120   8.201   1.840  10.622
36240W        W 6121  16.742   4.884  13.990
36241W        W 6122  31.543  31.945  13.380
36242W        W 6123  26.619  12.120   1.816
36243W        W 6124   4.918  26.646  12.526
36244W        W 6125  27.658  24.217   3.254
36245W        W 6126  31.506  30.076   3.385
36246W        W 6127  41.872  32.063  14.007
36247W        W 6128  30.003  27.634   3.633
36248W        W 6129  15.770  31.523  11.481
36249W        W 6130  32.981   8.714   2.323
36250W        W 6131  17.590  32.569   3.752
36251W        W 6132  19.264   4.844   4.142
36252W        W 6133  35.373  25.131  14.512
36253W        W 6134  30.637  28.653  13.435
36254W        W 6135  31.455  21.601   2.862
36255W        W 6136  42.403  29.979   3.760
36256W        W 6137  15.083  22.512   3.343
36257W        W 6138  15.581  38.026  10.050
36258W        W 6139  34.887  37.919   1.371
36259W        W 6140  26.509  40.359   0.278
36260W        W 6141  27.093  38.990  10.031
36261W        W 6142   7.319  11.703   1.300
36262W        W 6143  36.943  19.728  12.979
36263W        W 6144   7.770  27.105   3.334
36264W        W 6145   8.257  25.144  10.917
36265W        W 6146  37.084  27.540   3.212
36266W        W 6147  35.922  14.264   2.381
36267W        W 6148  29.972  35.549  13.941
36268W        W 6149  38.383  30.035   1.858
36269W        W 6150  24.662  13.838  11.895
36270W        W 6151  12.203  29.531   2.279
36271W        W 6152  32.565   7.881  12.076
36272W        W 6153  17.557  30.465  10.536
36273W        W 6154  24.501  44.467   1.890
36274W        W 6155  21.574  40.465  14.454
36275W        W 6156  44.898   3.782   3.808
36276W        W 6157  35.025  36.551   1.760
36277W        W 6158   7.854   9.836  10.537
36278W        W 6159  10.209   1.928  14.877
36279W        W 6160   6.708  39.392  11.943
36280W        W 6161   8.334  42.868  12.457
36281W        W 6162  38.388  41.819   2.350
36282W        W 6163   4.726  21.740   4.641
36283W        W 6164   3.908  32.496  11.407
36284W        W 6165  29.165  12.803   0.342
36285W        W 6166   5.875  14.233  11.084
36286W        W 6167  11.371   1.450  12.439
36287W        W 6168  26.649  10.771  13.465
36288W        W 6169   6.343  36.508  10.593
36289W        W 6170  11.819   5.285   3.382
36290W        W 6171  14.621  43.883   2.410
36291W        W 6172  17.563  18.766  10.478
36292W        W 6173  12.324   0.845   4.790
36293W        W 6174  17.262   4.875  12.429
36294W        W 6175  10.706  37.552   3.869
36295W        W 6176   0.916  12.661   3.169
36296W        W 6177  43.435  13.350  11.397
36297W        W 6178  22.529  19.679   2.895
36298W        W 6179  32.399  17.247   5.156
36299W        W 6180   2.374  35.895  14.786
36300W        W 6181  17.652  31.605   3.194
36301W        W 6182   6.810   4.939  10.031
36302W        W 6183  34.397  30.516  10.627
36303W        W 6184  42.794  35.075  10.515
36304W        W 6185   5.778   8.716  14.947
36305W        W 6186  23.089  14.791  12.043
36306W        W 6187  38.416  28.120   2.856
36307W        W 6188   0.481  17.782  13.944
36308W        W 6189  15.758   3.270   2.407
36309W        W 6190   9.810  37.565   2.772
36310W        W 6191   5.823  11.808   0.397
36311W        W 6192  31.490  19.212   3.296
36312W        W 6193   0.294  11.369   4.294
36313W        W 6194  24.537  18.609  14.302
36314W        W 6195  36.899  44.764  14.870
36315W        W 6196  18.284   9.730   0.810
36316W        W 6197  32.910  23.074   1.330
36317W        W 6198   7.275  12.814  12.951
36318W        W 6199   6.325  21.230  13.475
36319W        W 6200  24.993  20.211  12.910
36320W        W 6201  38.863  33.543  14.387
36321W        W 6202  35.040  40.054   4.794
36322W        W 6203  11.322  42.355  14.781
36323W        W 6204  28.030  27.976  10.607
36324W        W 6205  27.162  17.588  13.984
36325W        W 6206   2.911  27.618   3.359
36326W        W 6207  43.993  16.081  10.639
36327W        W 6208  38.924   7.253   0.333
36328W        W 6209  36.911  31.153  10.419
36329W        W 6210  26.993  16.257  14.950
36330W        W 6211  40.302  17.204   0.466
36331W        W 6212   8.298  32.617  10.431
36332W        W 6213  19.254  30.154   4.789
36333W        W 6214   2.780  37.513   2.395
36334W        W 6215  20.055   1.932  11.030
36335W        W 6216  41.952  37.963   1.292
36336W        W 6217  31.603  40.388  14.381
36337W        W 6218  37.555  18.190  12.832
36338W        W 6219  30.920  28.579  12.871
36339W        W 6220   1.783  43.381  13.326
36340W        W 6221   2.743  34.070   0.257
36341W        W 6222  40.502  19.747   5.229
36342W        W 6223  11.242   2.447   0.762
36343W        W 6224  37.526   3.940   1.270
36344W        W 6225   6.808  13.199  12.854
36345W        W 6226   8.390  34.387  12.403
36346W        W 6227  39.449  15.147   2.401
36347W        W 6228  15.646   7.355   4.275
36348W        W 6229  13.756  31.153   2.378
36349W        W 6230   5.726  29.047   1.887
36350W        W 6231   5.198  26.624   1.867
36351W        W 6232   1.427  35.557   3.314
36352W        W 6233  20.222   9.870   4.730
36353W        W 6234  13.804  23.149   0.926
36354W        W 6235  26.182  28.108  13.973
36355W        W 6236  29.583  36.906  11.530
36356W        W 6237  35.499  13.114   4.334
36357W        W 6238  20.253  16.660  11.073
36358W        W 6239  14.596  43.997   3.824
36359W        W 6240  23.623  39.891  11.017
36360W        W 6241  12.151  12.824   2.821
36361W        W 6242  32.529  26.634  11.579
36362W        W 6243  33.132  34.049   3.315
36363W        W 6244  40.543  37.478  10.117
36364W        W 6245  36.052  44.823  11.520
36365W        W 6246   5.260  36.588   1.829
36366W        W 6247  35.093  37.078  12.055
36367W        W 6248   4.887  33.121   2.806
36368W        W 6249  20.260   9.684  14.424
36369W        W 6250  42.363  13.210  12.365
36370W        W 6251  26.672  27.676   3.731
36371W        W 6252  13.272   8.844   1.236
36372W        W 6253  14.649   1.978  10.471
36373W        W 6254  36.347  30.440   2.213
36374W        W 6255  21.251  15.802  11.542
36375W        W 6256  43.291  13.737  14.340
36376W        W 6257  21.079   3.302  10.900
36377W        W 6258  41.918  14.125   1.305
36378W        W 6259  30.909   6.370  14.942
36379W        W 6260   3.794  25.967  13.481
36380W        W 6261  44.273  34.454   2.673
36381W        W 6262  31.032  20.126   4.229
36382W        W 6263   9.343  24.115   1.859
36383W        W 6264  24.484  29.529   3.338
36384W        W 6265  18.549  36.994   0.284
36385W        W 6266  10.171   0.780  14.008
36386W        W 6267  12.254  25.985   2.374
36387W        W 6268  35.062  39.858  11.607
36388W        W 6269  40.959  15.292  13.910
36389W        W 6270  32.418  41.956   1.248
36390W        W 6271  17.262  43.848   4.143
36391W        W 6272   5.926  17.711   1.245
36392W        W 6273  12.733  26.652  11.572
36393W        W 6274  27.567  36.438   2.742
36394W        W 6275  40.498  18.271  10.095
36395W        W 6276   0.292  16.099  12.540
36396W        W 6277  19.663  33.560   4.794
36397W        W 6278  11.783   0.475  12.876
36398W        W 6279  28.648  21.151   3.327
36399W        W 6280   7.256  20.261   3.841
36400W        W 6281  29.047  33.127   1.447
36401W        W 6282  32.520  35.102  10.936
36402W        W 6283   3.314  17.747  11.048
36403W        W 6284   6.319  15.668  10.464
36404W        W 6285  29.658   3.395   9.958
36405W        W 6286  38.565  11.131  13.519
36406W        W 6287  37.570  16.072  11.889
36407W        W 6288   1.312  30.416  13.399
36408W        W 6289  21.627  36.968  11.108
36409W        W 6290  26.027  23.530   0.265
36410W        W 6291  13.110  11.684   1.805
36411W        W 6292  33.560  10.658  13.008
36412W        W 6293  30.044  26.561  13.864
36413W        W 6294  16.205  29.173  14.363
36414W        W 6295   2.405  24.528  14.904
36415W        W 6296  26.497  18.293   0.844
36416W        W 6297  11.254   0.826  11.934
36417W        W 6298  18.658   1.417   1.739
36418W        W 6299  25.094  20.157   0.364
36419W        W 6300  43.431  27.033  13.497
36420W        W 6301  21.535   9.384  13.055
36421W        W 6302  28.115  38.416  13.364
36422W        W 6303  11.354  16.627   4.339
36423W        W 6304  25.038  19.278   4.685
36424W        W 6305  33.622  25.097   2.254
36425W        W 6306  29.658  42.943   3.243
36426W        W 6307   9.244  26.664   1.728
36427W        W 6308  21.044  35.011  14.442
36428W        W 6309   5.350  29.652  14.346
36429W        W 6310  26.099   3.219   2.763
36430W        W 6311  26.006   2.328   0.458
36431W        W 6312  14.111  16.697   4.789
36432W        W 6313   1.751  35.993   0.926
36433W        W 6314  40.390  29.641   4.301
36434W        W 6315  25.621   7.864   1.789
36435W        W 6316  16.156  37.851  14.401
36436W        W 6317  15.604  18.064   1.410
36437W        W 6318  19.136  38.950   4.666
36438W        W 6319  11.272  35.513   1.930
36439W        W 6320   8.869  20.629   2.863
36440W        W 6321  35.513  31.930  14.825
36441W        W 6322  34.593  38.062  10.517
36442W        W 6323  27.091  43.476  14.483
36443W        W 6324   6.243  17.703   4.325
36444W        W 6325  14.677  34.907   4.731
36445W        W 6326  22.592  17.185   4.299
36446W        W 6327  10.345  16.683   5.705
36447W        W 6328  27.656  22.013   3.682
36448W        W 6329  39.922   4.344  12.435
36449W        W 6330  21.670  43.960  12.521
36450W        W 6331   9.717  20.099   2.884
36451W        W 6332   8.901  41.965  14.350
36452W        W 6333  36.077  24.670   4.140
36453W        W 6334  12.817  44.407   3.691
36454W        W 6335   2.840   3.399   0.432
36455W        W 6336  21.257  38.557   4.780
36456W        W 6337  19.667  12.293   2.319
36457W        W 6338   2.902  13.658   2.777
36458W        W 6339  43.327  36.520  12.902
36459W        W 6340   8.756  26.042   2.261
36460W        W 6341  32.938   7.889   0.474
36461W        W 6342  33.415  35.976   1.800
36462W        W 6343   8.855  23.010  13.972
36463W        W 6344  17.094   6.323   4.634
36464W        W 6345  32.126  13.711  11.604
36465W        W 6346  37.565  19.724  13.337
36466W        W 6347   4.880   8.786  14.934
36467W        W 6348  38.841  28.131   5.131
36468W        W 6349  24.720  21.556   0.820
36469W        W 6350   9.363   1.857   4.704
36470W        W 6351  29.006  41.870  13.015
36471W        W 6352  36.893  20.557  11.923
36472W        W 6353  27.547   8.332   1.236
36473W        W 6354  18.699   3.449   0.326
36474W        W 6355  19.689   9.810   3.745
36475W        W 6356  10.289  35.091   0.734
36476W        W 6357  29.454  24.089  11.085
36477W        W 6358   0.361  28.535  13.833
36478W        W 6359  16.145  28.617  14.894
36479W        W 6360  21.235   0.488   1.416
36480W        W 6361   9.719  41.399  12.924
36481W        W 6362  10.680   8.202  14.833
36482W        W 6363  35.032  39.504  13.018
36483W        W 6364   5.383   6.908  10.442
36484W        W 6365  36.010  10.199   5.136
36485W        W 6366  10.720  39.923   2.846
36486W        W 6367  33.054  35.900   3.373
36487W        W 6368  39.055   5.737  10.430
36488W        W 6369  37.833  31.907   9.919
36489W        W 6370  23.039  43.326  11.608
36490W        W 6371   8.774  40.011   4.702
36491W        W 6372  29.030  29.637   2.310
36492W        W 6373  12.318  19.546  13.395
36493W        W 6374  42.979  24.626  11.570
36494W        W 6375  35.022  18.093  11.430
36495W        W 6376  35.505   0.944   0.728
36496W        W 6377   3.407  24.989   3.204
36497W        W 6378  41.382  19.641  13.395
36498W        W 6379  14.327  15.670  14.792
36499W        W 6380  38.891  33.478  11.907
36500W        W 6381  17.091  30.090   3.662
36501W        W 6382  19.762  27.632  14.297
36502W        W 6383  37.069  25.131  12.998
36503W        W 6384  43.374  19.598  12.979
36504W        W 6385  34.592   5.309   0.862
36505W        W 6386  35.914  29.171  12.953
36506W        W 6387  15.666  43.974  10.595
36507W        W 6388   1.913  27.134  13.469
36508W        W 6389  28.100  24.659  10.502
36509W        W 6390  24.203  39.337   0.305
36510W        W 6391  30.078  43.459  13.346
36511W        W 6392  35.546  38.036   2.757
36512W        W 6393  37.970  10.374   0.435
36513W        W 6394   4.254   0.486  11.961
36514W        W 6395  43.008  22.570  10.949
36515W        W 6396   9.345  31.520   2.832
36516W        W 6397  36.085  23.076  14.945
36517W        W 6398  32.602  12.617  10.905
36518W        W 6399  17.720  25.127   3.678
36519W        W 6400  10.312   6.424  12.388
36520W        W 6401  26.061  13.287  14.308
36521W        W 6402  40.419  38.925   2.379
36522W        W 6403   4.794  41.511  14.925
36523W        W 6404  16.690   3.323   4.163
36524W        W 6405  10.152  39.557   4.687
36525W        W 6406  17.181   4.251   3.743
36526W        W 6407  11.298   3.373  11.951
36527W        W 6408  44.774  33.614   2.188
36528W        W 6409  22.569  13.110   5.138
36529W        W 6410  34.408  20.148   0.857
36530W        W 6411   0.371  25.119   1.437
36531W        W 6412  44.798   4.931  12.576
36532W        W 6413  22.571   9.849  12.011
36533W        W 6414   1.243  27.484  11.595
36534W        W 6415  43.316  12.131  13.338
36535W        W 6416  32.973  36.400  12.397
36536W        W 6417   3.401  10.767  11.899
36537W        W 6418  19.758  26.609   4.708
36538W        W 6419   0.914  14.635  12.368
36539W        W 6420  35.932  32.554  10.545
36540W        W 6421  33.605  10.781  10.568
36541W        W 6422   9.690   6.817  10.533
36542W        W 6423  30.000   8.331   4.748
36543W        W 6424  15.583  14.764  14.276
36544W        W 6425  29.106  35.535  11.606
36545W        W 6426  21.538   7.833   3.343
36546W        W 6427  36.924  42.477   1.775
36547W        W 6428   0.971   4.342  11.454
36548W        W 6429  26.507  28.100  11.407
36549W        W 6430  32.128  14.644  12.473
36550W        W 6431  33.453   5.427  12.886
36551W        W 6432  11.657  15.102  11.519
36552W        W 6433  38.495  14.271   2.230
36553W        W 6434  40.338  22.548   0.902
36554W        W 6435  29.644   3.823  13.492
36555W        W 6436  32.490  12.156   0.437
36556W        W 6437  17.729   3.901  13.801
36557W        W 6438  42.933   7.289  14.859
36558W        W 6439   1.844   2.936  11.484
36559W        W 6440  28.584  14.215   3.308
36560W        W 6441  19.717  11.140  11.960
36561W        W 6442  10.746   4.380  10.930
36562W        W 6443  39.337   9.648   1.930
36563W        W 6444  22.554  28.546   1.813
36564W        W 6445  34.915   5.835   1.807
36565W        W 6446  32.553   8.285  14.474
36566W        W 6447  17.304   3.385  11.565
36567W        W 6448  31.119  18.140  13.047
36568W        W 6449  20.136   4.345  11.107
36569W        W 6450  30.651  32.082   0.474
36570W        W 6451   8.739   9.724  12.451
36571W        W 6452  13.747  17.296  10.438
36572W        W 6453  24.084   0.923  11.526
36573W        W 6454  35.525  42.349   0.753
36574W        W 6455  24.119  22.252   1.367
36575W        W 6456  24.181  38.829  10.069
36576W        W 6457  35.065  38.934  14.382
36577W        W 6458  11.371  24.534   4.787
36578W        W 6459   6.366  30.628   4.128
36579W        W 6460  25.161   7.858   5.083
36580W        W 6461  30.468   3.812  13.391
36581W        W 6462  40.456  25.622   2.330
36582W        W 6463  37.834  10.247   1.224
36583W        W 6464   9.160  33.051  14.424
36584W        W 6465   5.708  18.627  12.829
36585W        W 6466  22.706  16.272  14.404
36586W        W 6467  44.372  14.733  11.917
36587W        W 6468  18.719  37.020  14.842
36588W        W 6469  10.759  40.960   3.823
36589W        W 6470   7.823   1.344   1.222
36590W        W 6471  40.935  15.126  13.533
36591W        W 6472  19.227  21.632   0.440
36592W        W 6473  12.626  29.023  12.483
36593W        W 6474   3.773  44.859  11.591
36594W        W 6475   5.306  38.460  12.398
36595W        W 6476  34.538  21.173  13.484
36596W        W 6477  31.000   2.880   4.252
36597W        W 6478  43.440  11.157   3.177
36598W        W 6479  14.737   0.252  14.017
36599W        W 6480  13.298   6.206   0.853
36600W        W 6481  39.907  18.117   0.398
36601W        W 6482   0.407  44.954  12.019
36602W        W 6483  14.816  38.393  12.909
36603W        W 6484  33.555  42.862  12.420
36604W        W 6485  40.991  21.750   0.870
36605W        W 6486  29.443  20.047   1.400
36606W        W 6487  16.269  30.588  12.541
36607W        W 6488   3.761  16.761   1.431
36608W        W 6489  31.031   5.877  10.146
36609W        W 6490  41.374  19.648   1.782
36610W        W 6491  12.840  17.642   4.351
36611W        W 6492   8.897  32.118   1.814
36612W        W 6493   2.928   3.383   4.674
36613W        W 6494  25.532  10.858  14.031
36614W        W 6495   0.358  39.863  11.608
36615W        W 6496  13.326  13.308  10.541
36616W        W 6497   9.311  20.569  10.575
36617W        W 6498  40.979  30.584   1.838
36618W        W 6499   7.911  40.984   2.687
36619W        W 6500   7.843  23.593   3.785
36620W        W 6501  24.219  22.598  11.065
36621W        W 6502  44.459  40.817   1.291
36622W        W 6503  41.908  40.004  14.496
36623W        W 6504   3.828   8.335   1.213
36624W        W 6505  14.124  43.305  11.861
36625W        W 6506   2.387   8.246  10.942
36626W        W 6507  18.558  39.393   0.410
36627W        W 6508  34.093  16.691  14.306
36628W        W 6509  35.064  42.031   3.273
36629W        W 6510  43.868   9.387   2.217
36630W        W 6511  34.464  23.224  13.541
36631W        W 6512  15.219  38.003  10.431
36632W        W 6513  14.218  38.835  13.848
36633W        W 6514  31.085  43.799   3.312
36634W        W 6515   3.428   6.782   1.860
36635W        W 6516   9.207  21.547  13.528
36636W        W 6517  34.553  33.949  13.891
36637W        W 6518   3.767  28.071   0.838
36638W        W 6519  44.384   7.825   2.792
36639W        W 6520   3.744  36.987  13.039
36640W        W 6521  27.615   6.847  14.373
36641W        W 6522  25.146  29.615   0.831
36642W        W 6523  39.835  14.808   0.375
36643W        W 6524   9.172  40.000  11.050
36644W        W 6525  26.196  42.889   1.384
36645W        W 6526   3.733  30.638   1.839
36646W        W 6527  29.596  23.654  10.454
36647W        W 6528  39.870  34.415   0.795
36648W        W 6529  30.052  16.180  12.943
36649W        W 6530   4.709  34.103  12.543
36650W        W 6531   5.871  33.034   4.633
36651W        W 6532  40.045   5.901   2.712
36652W        W 6533   7.259  44.784   0.400
36653W        W 6534  12.243   8.741  14.430
36654W        W 6535  35.962  21.054   3.684
36655W        W 6536  40.410  25.531  14.345
36656W        W 6537  13.130   6.688   1.255
36657W        W 6538   1.366  36.389  13.023
36658W        W 6539   6.205  10.269  11.507
36659W        W 6540  28.581   8.399   5.574
36660W        W 6541  10.664   3.217  14.838
36661W        W 6542  18.085  36.883   0.892
36662W        W 6543  13.234  34.072  11.594
36663W        W 6544  42.945  13.251   2.336
36664W        W 6545   6.362   7.171  12.558
36665W        W 6546  34.496  26.521  11.982
36666W        W 6547  43.945   3.712   1.268
36667W        W 6548  24.211  24.060   1.926
36668W        W 6549  15.775  38.027   3.791
36669W        W 6550  32.416   0.352   1.775
36670W        W 6551  38.410  42.510  13.951
36671W        W 6552  44.314  16.287  13.410
36672W        W 6553  34.070  18.746   2.713
36673W        W 6554  24.514  39.420  12.080
36674W        W 6555  35.087  17.748   0.449
36675W        W 6556  41.878   6.720   1.722
36676W        W 6557  37.474   4.868   2.730
36677W        W 6558  38.539   0.979  12.985
36678W        W 6559   9.694  26.547  12.416
36679W        W 6560  26.548  15.189   3.802
36680W        W 6561  39.391  14.100   1.289
36681W        W 6562  40.356  35.408   2.729
36682W        W 6563  30.026  25.678  13.958
36683W        W 6564  19.590  26.178  12.345
36684W        W 6565  42.466  24.714   0.756
36685W        W 6566  37.864  21.576  13.450
36686W        W 6567  44.486  32.939  10.988
36687W        W 6568   0.288   4.760  10.959
36688W        W 6569  40.831   5.194   0.314
36689W        W 6570   7.359  12.170   1.702
36690W        W 6571  13.836  44.482  11.896
36691W        W 6572  21.582  10.359   4.678
36692W        W 6573  10.194  14.117  13.544
36693W        W 6574  32.480  34.909  14.856
36694W        W 6575  20.265  39.869  11.888
36695W        W 6576  29.173   3.434   2.183
36696W        W 6577  18.138  23.091   0.876
36697W        W 6578  13.243   4.912   0.824
36698W        W 6579  27.161  40.307   3.173
36699W        W 6580  40.873  17.185  11.480
36700W        W 6581  39.047  38.510   1.371
36701W        W 6582  40.355   9.692   1.865
36702W        W 6583   8.802  44.852  11.065
36703W        W 6584  16.675  36.989   0.423
36704W        W 6585  25.072  13.827   3.148
36705W        W 6586   1.904  39.436  10.939
36706W        W 6587   4.417  41.787  13.366
36707W        W 6588  29.087  22.110  14.430
36708W        W 6589  18.217  32.090   2.883
36709W        W 6590   5.778  42.351   0.284
36710W        W 6591  30.017  33.909   0.452
36711W        W 6592  43.353   0.934   4.647
36712W        W 6593  30.106  32.130  11.546
36713W        W 6594   4.744  19.733  12.824
36714W        W 6595  14.282   5.815   0.770
36715W        W 6596  39.554  20.210  10.509
36716W        W 6597   7.345  28.005  14.308
36717W        W 6598  24.651  42.902  12.442
36718W        W 6599  23.572  38.026   2.276
36719W        W 6600  36.550  32.978  10.907
36720W        W 6601  38.010   3.857  10.579
36721W        W 6602  44.957  22.029   2.884
36722W        W 6603  33.086  33.982   0.389
36723W        W 6604   5.383  29.003  13.384
36724W        W 6605  21.079  33.500   0.256
36725W        W 6606  22.197  11.181  12.056
36726W        W 6607  37.064  16.146   0.272
36727W        W 6608  41.350  11.727  14.923
36728W        W 6609  36.514  18.667  10.623
36729W        W 6610  30.947  11.268   4.140
36730W        W 6611  31.119   2.310  12.375
36731W        W 6612   1.801  33.939  10.914
36732W        W 6613  16.793  13.749  11.065
36733W        W 6614  20.726  36.969   3.774
36734W        W 6615  10.247  28.482  11.863
36735W        W 6616   4.385  15.188   0.898
36736W        W 6617  10.353   1.454  12.038
36737W        W 6618  41.362  19.539  11.449
36738W        W 6619  16.627   6.208   3.658
36739W        W 6620  21.679  39.369  14.998
36740W        W 6621  18.752  20.710  14.946
36741W        W 6622  34.882   6.870  12.378
36742W        W 6623  41.027   2.910   0.964
36743W        W 6624  11.208   2.801  11.600
36744W        W 6625   1.838   5.254  11.553
36745W        W 6626  10.850  16.707  14.982
36746W        W 6627  37.373   7.820  12.971
36747W        W 6628  20.209  27.657   2.207
36748W        W 6629  20.090   3.932   2.867
36749W        W 6630  11.300  30.592  13.813
36750W        W 6631  28.172  33.874   0.303
36751W        W 6632  20.147  28.667   2.347
36752W        W 6633  28.660  32.994   3.181
36753W        W 6634  38.924   0.896   4.665
36754W        W 6635  13.109  37.456  14.501
36755W        W 6636  24.482  34.101  11.426
36756W        W 6637   3.238  18.741  10.431
36757W        W 6638  24.078   9.276  13.915
36758W        W 6639  12.696  29.101   2.213
36759W        W 6640  26.022  16.657   4.305
36760W        W 6641  32.468  33.026  13.986
36761W        W 6642  36.036  31.433  12.555
36762W        W 6643  40.885   6.400   3.763
36763W        W 6644  15.814  34.100   1.825
36764W        W 6645  10.336  15.710  10.598
36765W        W 6646  19.639  31.914  11.419
36766W        W 6647   8.878  41.927   4.695
36767W        W 6648  16.686  20.225   0.863
36768W        W 6649  30.608  26.039   0.882
36769W        W 6650   9.213  28.496   2.818
36770W        W 6651  23.083  32.996   1.365
36771W        W 6652  13.757   7.667  14.992
36772W        W 6653  30.987  38.860  13.965
36773W        W 6654  39.534  21.627  12.960
36774W        W 6655   7.898  42.366   3.831
36775W        W 6656  13.184  39.530   2.249
36776W        W 6657  35.023  16.607  11.386
36777W        W 6658   1.294  33.560  13.878
36778W        W 6659  31.605  34.900   4.825
36779W        W 6660  27.962   6.870  13.521
36780W        W 6661  25.986  42.933   2.701
36781W        W 6662  38.553  42.018  11.031
36782W        W 6663  44.328  29.487  14.759
36783W        W 6664  36.992   1.386  12.539
36784W        W 6665  37.030  30.594  14.950
36785W        W 6666  39.928  16.303  13.404
36786W        W 6667  21.184  44.886   0.803
36787W        W 6668  38.531  34.964  13.911
36788W        W 6669  26.593  37.370  11.428
36789W        W 6670  41.011  28.088  12.392
36790W        W 6671  34.556  36.515  14.947
36791W        W 6672  40.815  26.656   2.331
36792W        W 6673  15.713  17.176   4.687
36793W        W 6674  25.208  11.323   2.228
36794W        W 6675  25.547  22.571  11.912
36795W        W 6676   0.401   1.754  13.049
36796W        W 6677  44.436   8.717   2.721
36797W        W 6678  31.646  40.342   4.210
36798W        W 6679  35.051  39.041  14.888
36799W        W 6680  13.236  28.436   4.761
36800W        W 6681  42.327  42.424  11.093
36801W        W 6682  32.003   8.213  12.452
36802W        W 6683  24.664  24.979  10.572
36803W        W 6684  42.521   3.306   4.651
36804W        W 6685  36.982   4.819   2.219
36805W        W 6686  33.506  42.524   0.450
36806W        W 6687  22.150   2.420   1.753
36807W        W 6688  38.926  11.372  11.449
36808W        W 6689  25.521  37.519  11.441
36809W        W 6690   5.879   9.347  10.585
36810W        W 6691   1.375   0.960   4.157
36811W        W 6692  19.569  36.886  14.022
36812W        W 6693  44.992  31.982  12.407
36813W        W 6694  28.034   5.762  13.405
36814W        W 6695  18.222   5.920  11.459
36815W        W 6696  38.519  27.678  12.512
36816W        W 6697  19.749  37.454   0.294
36817W        W 6698   7.856  14.272   1.784
36818W        W 6699  31.067  37.869  14.837
36819W        W 6700   3.912  34.045  12.851
36820W        W 6701  44.950   6.871  14.325
36821W        W 6702  38.073  33.109  13.804
36822W        W 6703  24.524  15.707  13.994
36823W        W 6704  25.104   8.658   4.245
36824W        W 6705   7.671  26.191  12.921
36825W        W 6706  13.601   8.697   0.866
36826W        W 6707  16.263   0.974  12.012
36827W        W 6708  26.952  44.833  14.402
36828W        W 6709  38.362  29.077   0.726
36829W        W 6710  17.165  41.878  12.366
36830W        W 6711  23.690  28.467  14.389
36831W        W 6712   8.248   3.406   0.907
36832W        W 6713  10.798  42.471  12.079
36833W        W 6714  25.104  12.681   2.352
36834W        W 6715  20.630  20.066   3.685
36835W        W 6716   1.844   1.370   1.778
36836W        W 6717  42.835  25.989   2.756
36837W        W 6718  29.067  29.590   1.813
36838W        W 6719  39.064  36.849  11.912
36839W        W 6720  39.420  44.472  12.403
36840W        W 6721  36.407  34.472  11.918
36841W        W 6722  24.134  17.630  10.029
36842W        W 6723  10.734  37.513   4.264
36843W        W 6724  14.311  32.996  14.327
36844W        W 6725   4.314  39.345  12.464
36845W        W 6726  16.236  19.604   2.292
36846W        W 6727  19.592  15.237   2.401
36847W        W 6728  13.237  38.885  13.350
36848W        W 6729  39.451  40.048   2.338
36849W        W 6730   2.760  43.399   1.833
36850W        W 6731  22.115  31.921  11.378
36851W        W 6732  29.020   9.194  14.341
36852W        W 6733  43.356   2.452   1.911
36853W        W 6734   7.856  39.358   2.318
36854W        W 6735   0.805   5.857   1.873
36855W        W 6736  36.880  14.692   1.761
36856W        W 6737   8.176  16.601  10.923
36857W        W 6738  29.020  21.544   3.188
36858W        W 6739  16.621  21.101   2.307
36859W        W 6740  23.060  27.109   2.803
36860W        W 6741  21.604  23.515  11.541
36861W        W 6742  14.750  10.148   4.202
36862W        W 6743  24.018  33.408  11.989
36863W        W 6744  42.968  30.916   1.414
36864W        W 6745  15.177  35.981  13.506
36865W        W 6746  25.054  10.760   3.709
36866W        W 6747  17.643   5.923  12.410
36867W        W 6748   0.432   6.354   3.694
36868W        W 6749  26.519  43.997  14.771
36869W        W 6750  18.189  44.005   0.804
36870W        W 6751  29.651  19.545   1.799
36871W        W 6752  24.522  32.536   4.303
36872W        W 6753  28.640   6.370   0.874
36873W        W 6754   2.916   9.817  14.334
36874W        W 6755   9.366   3.291   0.395
36875W        W 6756  18.785  36.574  10.923
36876W        W 6757   5.829  38.462   0.277
36877W        W 6758  44.893  40.027   2.270
36878W        W 6759   5.872  19.589  12.505
36879W        W 6760   8.737  44.329   0.430
36880W        W 6761  14.647   5.876  13.463
36881W        W 6762  31.430  12.191  14.953
36882W        W 6763  22.067  24.201   2.722
36883W        W 6764  22.070   3.268  11.582
36884W        W 6765   9.828   4.205   0.377
36885W        W 6766  41.483   7.792  13.063
36886W        W 6767   8.759  43.884   0.841
36887W        W 6768  22.598   4.808  10.460
36888W        W 6769   4.936  30.416   9.957
36889W        W 6770  23.063  38.918   0.312
36890W        W 6771  21.727  22.538  12.020
36891W        W 6772  21.143   6.356   0.333
36892W        W 6773  17.259  16.633  11.092
36893W        W 6774  21.208  38.015   1.280
36894W        W 6775  12.166  44.375  12.826
36895W        W 6776   3.288   5.410  14.880
36896W        W 6777  28.951  43.942  13.810
36897W        W 6778  23.101   3.844   2.825
36898W        W 6779  38.023  26.551   2.734
36899W        W 6780  31.631  21.569  12.954
36900W        W 6781  24.185  33.874   0.837
36901W        W 6782   0.973  32.036   4.650
36902W        W 6783  32.928  22.557   3.794
36903W        W 6784   8.883  15.751   4.630
36904W        W 6785  38.434   3.837  12.062
36905W        W 6786  25.039  26.491   0.738
36906W        W 6787  39.850  32.043   1.323
36907W        W 6788  25.186  36.551   0.870
36908W        W 6789  11.622  36.098   3.865
36909W        W 6790  38.518  12.233  11.446
36910W        W 6791  20.206  28.500  11.905
36911W        W 6792  40.877   2.310  14.314
36912W        W 6793  44.377  17.160   4.683
36913W        W 6794  31.609  14.224  11.552
36914W        W 6795  35.874  24.144  10.933
36915W        W 6796  22.246  29.641   4.247
36916W        W 6797  28.675  27.034  10.558
36917W        W 6798   8.891  11.743   2.272
36918W        W 6799  39.521  27.670   0.347
36919W        W 6800  33.953  44.384   2.205
36920W        W 6801  42.799  38.871   5.229
36921W        W 6802  16.306  21.049   5.166
36922W        W 6803   0.883   7.829   3.364
36923W        W 6804  33.545  31.448   3.314
36924W        W 6805  11.635   4.790  10.887
36925W        W 6806  44.490  27.961   1.809
36926W        W 6807  30.075  32.479  11.950
36927W        W 6808  24.703  16.272  11.406
36928W        W 6809   6.832  42.314   1.397
36929W        W 6810  24.045  16.566  10.106
36930W        W 6811  16.681   0.746   2.867
36931W        W 6812  24.614  39.443   2.718
36932W        W 6813  16.748  17.252   3.276
36933W        W 6814  29.986  12.670   1.796
36934W        W 6815  35.602  36.381  14.423
36935W        W 6816   8.855   5.309  13.912
36936W        W 6817   7.742  31.915   4.228
36937W        W 6818   8.388   5.886   0.945
36938W        W 6819   6.390  17.211  13.979
36939W        W 6820  38.059  16.608  11.111
36940W        W 6821  34.098  44.342  12.377
36941W        W 6822  36.033  11.639   5.318
36942W        W 6823  29.603   8.686   0.275
36943W        W 6824   7.895  31.021   1.254
36944W        W 6825  20.741  25.004   1.445
36945W        W 6826   3.448  23.059   1.274
36946W        W 6827  14.152   2.802  13.532
36947W        W 6828   6.762  33.626   2.294
36948W        W 6829  37.920  31.146  13.457
36949W        W 6830   8.209  22.528   3.667
36950W        W 6831   3.373  20.543  14.398
36951W        W 6832   1.804  19.551  11.118
36952W        W 6833   9.648  12.335   2.840
36953W        W 6834  20.151  37.086  14.006
36954W        W 6835  24.020   8.388  12.958
36955W        W 6836  17.677  38.832  12.879
36956W        W 6837  25.090   0.791   1.395
36957W        W 6838  26.672  30.536  10.413
36958W        W 6839   5.358  19.164   3.326
36959W        W 6840  34.951  31.450   3.745
36960W        W 6841  44.365  26.475   0.848
36961W        W 6842  24.980  18.578   3.163
36962W        W 6843  29.932  22.566   3.692
36963W        W 6844  33.058   2.328   0.266
36964W        W 6845   7.226   0.265   4.799
36965W        W 6846   9.234  25.152   0.312
36966W        W 6847   6.860   0.368  10.483
36967W        W 6848   6.294  19.069   2.695
36968W        W 6849  28.056   1.944   3.334
36969W        W 6850   1.740  19.685   4.263
36970W        W 6851   4.942  33.025  12.070
36971W        W 6852  26.105  23.182   2.280
36972W        W 6853  16.646  14.611   4.754
36973W        W 6854  12.146  28.496   4.252
36974W        W 6855  42.776  13.779   1.218
36975W        W 6856  32.970  18.686   2.194
36976W        W 6857  13.692  24.620  10.929
36977W        W 6858  20.688  19.078  11.448
36978W        W 6859  12.360  43.512   2.797
36979W        W 6860  21.695  14.273   1.342
36980W        W 6861  28.631   3.374  11.489
36981W        W 6862   0.949  17.719  13.530
36982W        W 6863  11.719  14.788  13.988
36983W        W 6864   7.863  31.445  14.922
36984W        W 6865  39.464  18.147  10.936
36985W        W 6866  22.704  43.378   3.724
36986W        W 6867  30.989  40.025   4.641
36987W        W 6868   1.742   2.746  11.968
36988W        W 6869  10.783  16.701  12.430
36989W        W 6870  44.787   5.724  14.380
36990W        W 6871   1.462  18.088  10.630
36991W        W 6872  41.970  14.762  11.485
36992W        W 6873  43.857   3.922   0.350
36993W        W 6874   1.776  44.795  11.965
36994W        W 6875   2.885  13.661  12.526
36995W        W 6876  20.152  27.484  12.409
36996W        W 6877  12.309  28.569  12.066
36997W        W 6878   6.919  23.048   0.300
36998W        W 6879  10.208  25.032  10.985
36999W        W 6880  17.717   0.260   0.786
37000W        W 6881  36.416  40.940  10.890
37001W        W 6882   2.333  13.306  13.376
37002W        W 6883  41.805  27.491  11.866
37003W        W 6884  11.200  15.790  13.486
37004W        W 6885  11.772  43.012  13.922
37005W        W 6886  10.162  11.274  11.595
37006W        W 6887  16.775   5.372  14.484
37007W        W 6888  38.906  20.173   1.899
37008W        W 6889   4.758  29.018  13.888
37009W        W 6890  36.354   8.258  13.489
37010W        W 6891  33.402  17.672   0.440
37011W        W 6892  33.479   7.668   2.328
37012W        W 6893  20.154  32.537   2.322
37013W        W 6894  13.797  30.063  11.866
37014W        W 6895  41.308   3.344  14.480
37015W        W 6896  11.192   1.914   4.836
37016W        W 6897  35.480  19.588   4.119
37017W        W 6898  40.343   8.679   5.270
37018W        W 6899  39.542  21.563  13.477
37019W        W 6900  28.672  29.143   0.320
37020W        W 6901  36.944   9.812  14.483
37021W        W 6902   4.346   0.900  10.442
37022W        W 6903  17.276   7.744   2.402
37023W        W 6904  37.969  40.436  13.845
37024W        W 6905  32.092  25.191   1.853
37025W        W 6906  37.350  36.859  11.015
37026W        W 6907  44.406  33.909  11.082
37027W        W 6908  28.441  23.188  14.918
37028W        W 6909   3.799  26.554   4.745
37029W        W 6910   8.199  32.422   2.283
37030W        W 6911   8.317  33.908   2.359
37031W        W 6912  33.037  30.530  13.467
37032W        W 6913  28.580   3.312  13.847
37033W        W 6914   7.717  42.930  13.537
37034W        W 6915  29.943   6.293   1.794
37035W        W 6916   4.783  22.097   0.427
37036W        W 6917  12.297  37.064   1.434
37037W        W 6918   0.893  24.048   1.432
37038W        W 6919  43.856  22.575  12.023
37039W        W 6920   9.700  13.250   1.280
37040W        W 6921  11.236  17.577  10.529
37041W        W 6922   6.324  24.645  14.286
37042W        W 6923   7.237   0.267   1.342
37043W        W 6924  40.334   1.910   4.827
37044W        W 6925  30.938  43.777  11.030
37045W        W 6926   0.945  44.293  10.901
37046W        W 6927  17.081  38.981  14.882
37047W        W 6928   5.854  44.405  14.361
37048W        W 6929  12.230  21.116  14.906
37049W        W 6930  23.170   7.730   4.769
37050W        W 6931  10.652  29.462  12.906
37051W        W 6932  12.655  43.982   4.606
37052W        W 6933   5.802  27.042  13.368
37053W        W 6934  18.755  11.128   1.929
37054W        W 6935   8.162  12.651  12.398
37055W        W 6936  21.086  33.592   5.269
37056W        W 6937  44.845  43.397   0.940
37057W        W 6938   8.314  17.259  11.384
37058W        W 6939  41.795  12.728   2.279
37059W        W 6940   3.350  38.450   4.327
37060W        W 6941  32.627  23.219  10.544
37061W        W 6942   3.269   8.289   3.163
37062W        W 6943  21.242  30.598  14.871
37063W        W 6944  19.624  14.324  12.988
37064W        W 6945  30.459   6.315   2.278
37065W        W 6946   0.888  13.137   3.861
37066W        W 6947   6.256   1.386   3.750
37067W        W 6948  13.845  31.131  10.910
37068W        W 6949  16.168  39.546  11.544
37069W        W 6950  30.164   7.406   0.446
37070W        W 6951   3.749   2.826   3.197
37071W        W 6952  37.912  35.901  13.523
37072W        W 6953  32.449  24.109  12.536
37073W        W 6954  44.799   0.296   4.669
37074W        W 6955  25.532  25.686   0.448
37075W        W 6956  27.540  30.106  13.044
37076W        W 6957  44.443  23.067  14.501
37077W        W 6958  41.826  34.951   2.286
37078W        W 6959   2.308  11.726  14.396
37079W        W 6960  27.968   3.831  11.595
37080W        W 6961  35.548  11.747  12.869
37081W        W 6962  17.800  40.454  13.482
37082W        W 6963  36.555  44.391  14.441
37083W        W 6964  10.735  28.647   0.290
37084W        W 6965   9.822  21.204   1.770
37085W        W 6966  40.848  25.540   3.323
37086W        W 6967   6.285   7.857   0.852
37087W        W 6968   7.187   3.336   3.192
37088W        W 6969   3.746  22.019  10.639
37089W        W 6970  17.756   8.248   3.301
37090W        W 6971  37.839  24.985   3.774
37091W        W 6972  20.522  38.869  10.919
37092W        W 6973  25.649  42.882   2.792
37093W        W 6974   4.241  21.209  10.998
37094W        W 6975  29.986  40.409  10.600
37095W        W 6976  26.077  44.322  13.851
37096W        W 6977   3.333  20.761   3.784
37097W        W 6978  31.143  22.072  10.629
37098W        W 6979   7.340  34.078   0.732
37099W        W 6980  42.952  30.575   4.695
37100W        W 6981   9.165   0.312  14.779
37101W        W 6982  42.509  29.533  11.446
37102W        W 6983  28.970  42.396   3.198
37103W        W 6984   4.216  26.624   1.351
37104W        W 6985   0.893  19.189   2.811
37105W        W 6986  43.968  14.103  12.887
37106W        W 6987  30.063   5.828  13.055
37107W        W 6988  44.346  20.769   3.741
37108W        W 6989   6.811  28.462  13.043
37109W        W 6990  27.050  22.709  12.083
37110W        W 6991   1.894  39.392  11.378
37111W        W 6992  21.171  12.652   4.618
37112W        W 6993  19.172  14.592   2.750
37113W        W 6994  30.540  18.248   3.164
37114W        W 6995  35.920  32.006   1.712
37115W        W 6996  20.036  35.570   0.812
37116W        W 6997  37.941  38.409   0.347
37117W        W 6998  30.559  15.127  11.399
37118W        W 6999  38.468  25.697  13.897
37119W        W 7000  17.644   5.796  13.412
37120W        W 7001  36.592  28.082  13.886
37121W        W 7002  14.190   1.821  11.541
37122W        W 7003  33.069  18.772   2.759
37123W        W 7004  11.789  34.406   4.809
37124W        W 7005  36.961  42.376   3.349
37125W        W 7006  20.175  26.113  11.105
37126W        W 7007  20.055  17.294  12.035
37127W        W 7008  32.480   8.712  11.108
37128W        W 7009  23.083   1.808  10.980
37129W        W 7010  38.520   1.252   5.635
37130W        W 7011  38.953  13.165  11.399
37131W        W 7012  20.166  14.742   0.457
37132W        W 7013  44.445  28.942  11.431
37133W        W 7014  38.074  22.743  11.933
37134W        W 7015   8.394   5.328  12.485
37135W        W 7016  43.904  14.227   3.799
37136W        W 7017  38.328  38.868   1.728
37137W        W 7018  24.106   3.921  12.904
37138W        W 7019   7.863  22.195   3.845
37139W        W 7020  31.604  17.280  10.976
37140W        W 7021   4.385  25.068  11.869
37141W        W 7022  42.800  19.590  10.487
37142W        W 7023  35.410  34.574  11.011
37143W        W 7024  15.810  31.147   3.301
37144W        W 7025  23.196   5.735  14.822
37145W        W 7026  21.559  15.767  13.915
37146W        W 7027   3.729   9.352   0.313
37147W        W 7028  26.608  10.763   1.388
37148W        W 7029   7.676   2.792  11.547
37149W        W 7030  34.604  39.817  13.920
37150W        W 7031  24.510  34.886   1.814
37151W        W 7032  12.267  39.063  13.015
37152W        W 7033  16.733   8.404  12.383
37153W        W 7034  23.167  34.088  11.877
37154W        W 7035   3.880  41.496   2.810
37155W        W 7036  40.455  29.518  11.929
37156W        W 7037  31.569   0.765  14.444
37157W        W 7038  28.551  41.518   2.200
37158W        W 7039  28.105  39.944  14.483
37159W        W 7040   9.681  10.211  12.345
37160W        W 7041  41.350  10.141  10.543
37161W        W 7042  17.199  36.074   1.837
37162W        W 7043  22.738  21.047   1.326
37163W        W 7044   3.221   8.308   1.795
37164W        W 7045  38.335  40.458   2.770
37165W        W 7046  15.225  43.819   1.883
37166W        W 7047   9.246  41.018   4.219
37167W        W 7048  19.737  29.607  11.975
37168W        W 7049  25.145  30.959  14.969
37169W        W 7050  19.110  21.102   1.279
37170W        W 7051  37.401   5.725   3.729
37171W        W 7052  21.564   6.685  10.592
37172W        W 7053  12.802  35.372  14.777
37173W        W 7054  42.972  37.977  14.892
37174W        W 7055   7.735  34.493  10.577
37175W        W 7056  14.154  40.839  11.383
37176W        W 7057  18.566  10.795  11.062
37177W        W 7058  24.153  28.942  12.934
37178W        W 7059  19.539   1.416  14.854
37179W        W 7060  44.837   0.927  11.006
37180W        W 7061  42.882   9.836  14.368
37181W        W 7062   7.682  21.750  11.505
37182W        W 7063   8.222  39.991   2.792
37183W        W 7064   5.875  22.205  14.487
37184W        W 7065   4.298   2.749   4.193
37185W        W 7066  21.717  25.549   1.439
37186W        W 7067  16.291  23.048  10.931
37187W        W 7068  11.696   0.494  11.015
37188W        W 7069  27.088  42.015   2.285
37189W        W 7070  26.526  16.619   2.400
37190W        W 7071  15.106  10.750  12.432
37191W        W 7072  22.630   7.757  11.899
37192W        W 7073  40.033  15.260   3.187
37193W        W 7074  28.167  12.663   2.207
37194W        W 7075   8.805  42.520  13.987
37195W        W 7076   5.813  10.205   0.388
37196W        W 7077  43.398  20.127  12.530
37197W        W 7078  21.521  25.014  10.915
37198W        W 7079  37.369  41.417   3.806
37199W        W 7080  44.823  43.510  14.878
37200W        W 7081  13.122  29.984   0.736
37201W        W 7082  36.849  36.571  10.898
37202W        W 7083   3.217  26.517   5.196
37203W        W 7084   9.812  33.010   0.936
37204W        W 7085  13.768  15.671   2.791
37205W        W 7086  39.057  44.392  11.934
37206W        W 7087  13.314  25.143  12.524
37207W        W 7088  44.309  32.067   9.968
37208W        W 7089  11.697  19.573  11.859
37209W        W 7090   7.678  26.166  14.484
37210W        W 7091  27.456  21.112  14.960
37211W        W 7092   6.262  30.592   4.813
37212W        W 7093  34.434  15.118  14.384
37213W        W 7094  14.267  23.706   4.693
37214W        W 7095  30.472  35.468  14.982
37215W        W 7096  21.655   3.839   0.733
37216W        W 7097  10.165  15.272  13.941
37217W        W 7098  30.587  42.287   2.698
37218W        W 7099  12.638   0.261   1.821
37219W        W 7100  27.656  36.046  11.407
37220W        W 7101  18.248  17.213  14.384
37221W        W 7102   2.444  27.503  10.416
37222W        W 7103  15.143  42.928  13.955
37223W        W 7104   5.401   9.817   3.281
37224W        W 7105  27.093  21.121  11.109
37225W        W 7106  36.991   6.840  13.523
37226W        W 7107   4.932  20.714   0.786
37227W        W 7108  27.198   7.903  11.908
37228W        W 7109  43.821   4.912  13.533
37229W        W 7110  18.781   3.401   3.287
37230W        W 7111   7.706  41.467  12.902
37231W        W 7112  37.556   8.161   4.251
37232W        W 7113  25.107   3.427   2.305
37233W        W 7114  11.232  13.156   3.706
37234W        W 7115   2.290   6.788  10.923
37235W        W 7116  41.790  33.936   4.743
37236W        W 7117  39.887   4.711   3.362
37237W        W 7118  29.145   5.253  11.505
37238W        W 7119  12.294  20.610  12.860
37239W        W 7120  38.949  13.255   2.357
37240W        W 7121  23.526  33.540   2.375
37241W        W 7122  39.899  16.737  14.284
37242W        W 7123  30.475  44.846  10.894
37243W        W 7124  38.447  25.973   3.788
37244W        W 7125  11.754  37.957  12.460
37245W        W 7126   4.802  31.941  11.488
37246W        W 7127  10.768  16.729   3.258
37247W        W 7128   7.799  27.502  12.551
37248W        W 7129  25.706   7.293   0.304
37249W        W 7130  28.953  11.740  12.076
37250W        W 7131  26.037   0.920   2.719
37251W        W 7132   4.942   0.482   1.724
37252W        W 7133  12.328  16.294   5.795
37253W        W 7134   0.477  22.715  14.374
37254W        W 7135  11.773  19.154   0.844
37255W        W 7136  11.688  35.579   4.821
37256W        W 7137   8.311  28.457  11.387
37257W        W 7138  12.301  44.472  14.507
37258W        W 7139  28.073   1.375  11.947
37259W        W 7140  33.491  34.580   0.858
37260W        W 7141  31.575  10.878  12.891
37261W        W 7142  10.256   0.274  14.791
37262W        W 7143   6.206  44.336  10.895
37263W        W 7144  10.699  14.156   4.324
37264W        W 7145  16.681  44.850   1.261
37265W        W 7146   5.837  39.841  13.495
37266W        W 7147   5.843   6.678  12.971
37267W        W 7148  38.073  44.439  12.929
37268W        W 7149  42.024  40.942   1.924
37269W        W 7150  19.220  33.388   1.861
37270W        W 7151   3.853  16.203  13.851
37271W        W 7152   4.812  17.234  13.827
37272W        W 7153  25.163  27.963  14.001
37273W        W 7154   7.847  27.589  13.518
37274W        W 7155   4.371  41.299  10.910
37275W        W 7156  28.670  18.071   0.469
37276W        W 7157  32.628   2.752   1.761
37277W        W 7158  44.916  37.914   2.765
37278W        W 7159  23.536  23.678   2.276
37279W        W 7160   3.916  32.421  10.935
37280W        W 7161   6.332   4.698   0.448
37281W        W 7162   5.917  37.345   3.322
37282W        W 7163   5.699  36.506   1.291
37283W        W 7164  10.212  17.105   5.255
37284W        W 7165  16.583   5.824   4.305
37285W        W 7166  32.469  39.848  14.024
37286W        W 7167  41.003  20.553   4.145
37287W        W 7168  12.223  30.012   0.349
37288W        W 7169   5.398  30.628  10.953
37289W        W 7170  14.755   6.296   3.320
37290W        W 7171  44.502  36.858   4.772
37291W        W 7172  20.704  29.562  11.959
37292W        W 7173   8.715  13.638  12.971
37293W        W 7174  27.098  38.523  14.908
37294W        W 7175  37.482  24.126   5.240
37295W        W 7176  23.047  20.212   9.674
37296W        W 7177  36.048  34.497  10.413
37297W        W 7178   5.417   6.277  10.563
37298W        W 7179  16.314   3.225  13.436
37299W        W 7180  38.998  36.356  12.351
37300W        W 7181  30.052  17.629  10.625
37301W        W 7182  23.111  10.314  11.912
37302W        W 7183   6.193  21.662  10.065
37303W        W 7184  30.438  40.304   2.863
37304W        W 7185  38.026  37.469   0.413
37305W        W 7186  15.661   4.275  12.432
37306W        W 7187   9.213  39.537  11.926
37307W        W 7188  31.902  30.613  13.971
37308W        W 7189   4.244   8.700  12.431
37309W        W 7190  14.667  25.671  14.017
37310W        W 7191  12.825  32.564  14.317
37311W        W 7192   4.437   0.908  12.411
37312W        W 7193  31.069   9.215  12.039
37313W        W 7194  30.512  37.485   5.268
37314W        W 7195   0.742  38.029  11.079
37315W        W 7196   1.390  23.203  14.959
37316W        W 7197  44.340  22.037   9.936
37317W        W 7198  22.054  15.760   0.465
37318W        W 7199   3.304  21.548   0.744
37319W        W 7200  39.314   7.271   4.606
37320W        W 7201  11.254  31.085  14.461
37321W        W 7202   6.700  22.730   4.761
37322W        W 7203  18.269  18.742   1.333
37323W        W 7204  40.516  37.020   0.822
37324W        W 7205  28.603  41.301   5.278
37325W        W 7206   0.396  30.015   3.848
37326W        W 7207  16.654  15.601   2.368
37327W        W 7208  37.918  38.936  13.917
37328W        W 7209  33.503   4.233   4.232
37329W        W 7210   5.755  30.512  11.944
37330W        W 7211   7.198   6.788   2.278
37331W        W 7212  13.331  26.501  10.464
37332W        W 7213  19.763  44.858   4.269
37333W        W 7214  32.103  11.318   2.291
37334W        W 7215  17.302  21.177   5.171
37335W        W 7216  19.636  24.986  10.485
37336W        W 7217  34.557  42.392  13.419
37337W        W 7218  14.775  27.099  14.984
37338W        W 7219   2.314  21.175  10.516
37339W        W 7220  40.353  39.870   1.409
37340W        W 7221   6.823  23.035   3.773
37341W        W 7222  20.064  37.983  14.394
37342W        W 7223   0.291  26.682   2.261
37343W        W 7224  31.516   1.315   0.735
37344W        W 7225  23.993  17.566  13.346
37345W        W 7226  10.253   3.895   4.119
37346W        W 7227   3.740  16.722   1.825
37347W        W 7228  20.234  21.701  12.093
37348W        W 7229  22.569  14.602  13.031
37349W        W 7230  13.179   7.395  14.843
37350W        W 7231  16.217  32.519  10.621
37351W        W 7232  24.488  30.045  13.843
37352W        W 7233   4.295  27.673   3.205
37353W        W 7234  27.660  42.415  14.458
37354W        W 7235  36.848  28.024   4.790
37355W        W 7236   5.266  25.155   4.748
37356W        W 7237   6.788  34.598   4.722
37357W        W 7238  30.593  28.155   2.729
37358W        W 7239  24.577  33.126   1.248
37359W        W 7240   8.346  23.625  14.332
37360W        W 7241  26.525  42.456   4.318
37361W        W 7242   6.388  24.483   3.773
37362W        W 7243   9.183  18.775  13.511
37363W        W 7244  20.582  21.721  13.047
37364W        W 7245  16.723  13.738   0.472
37365W        W 7246  32.983  19.764   1.812
37366W        W 7247   5.792   2.791  14.349
37367W        W 7248  26.061   7.413   4.227
37368W        W 7249   8.317  38.069   2.835
37369W        W 7250  36.487  28.470   3.200
37370W        W 7251  33.007  13.741  13.945
37371W        W 7252   6.229   4.886  11.884
37372W        W 7253   8.310  32.130  13.334
37373W        W 7254  14.229  24.004   3.325
37374W        W 7255  20.258  32.439  12.492
37375W        W 7256  29.071  22.172  11.865
37376W        W 7257  27.040  18.052  12.001
37377W        W 7258  36.544  37.453   1.358
37378W        W 7259  15.660  18.565  13.328
37379W        W 7260  27.013  16.751   2.197
37380W        W 7261  10.157  13.159   3.157
37381W        W 7262  36.449  38.393  12.901
37382W        W 7263  24.505  42.860   0.807
37383W        W 7264  10.228  39.901  12.096
37384W        W 7265  42.848  38.900  13.322
37385W        W 7266  27.014   6.352  11.044
37386W        W 7267  22.055  19.276   1.772
37387W        W 7268   2.415  26.989   1.245
37388W        W 7269   8.878  11.866   0.401
37389W        W 7270   6.723  22.084  11.986
37390W        W 7271  23.537  17.258  14.967
37391W        W 7272  26.951   4.414   3.819
37392W        W 7273  24.510  23.659   2.812
37393W        W 7274  44.801  17.577   4.610
37394W        W 7275  29.483  41.037  10.495
37395W        W 7276  30.613  41.043  14.979
37396W        W 7277  35.999  39.560  11.104
37397W        W 7278  29.092  43.989  11.944
37398W        W 7279  36.515   1.761  14.939
37399W        W 7280  26.089  29.521  11.091
37400W        W 7281  34.064  41.313  14.405
37401W        W 7282   4.329  25.608  14.940
37402W        W 7283  30.438  16.283  14.472
37403W        W 7284  27.957  36.023  11.023
37404W        W 7285  10.829  43.966  13.064
37405W        W 7286   1.838  42.497   0.868
37406W        W 7287   5.903  39.398   4.123
37407W        W 7288  43.766  22.057  12.544
37408W        W 7289  23.527  39.014  11.501
37409W        W 7290  32.405  20.727   0.966
37410W        W 7291   3.902  21.585  13.472
37411W        W 7292   8.823   6.716   4.604
37412W        W 7293  11.627  15.678  13.435
37413W        W 7294  40.500  19.072  14.867
37414W        W 7295  16.657  41.410   4.748
37415W        W 7296  21.171  33.524   1.437
37416W        W 7297  36.374  29.572  12.577
37417W        W 7298  22.127  31.929   0.442
37418W        W 7299  35.905  27.491   1.868
37419W        W 7300   7.296  37.576   4.188
37420W        W 7301   8.377  32.482  13.487
37421W        W 7302  43.013  37.378   4.351
37422W        W 7303  14.297  42.837   0.767
37423W        W 7304  30.475  41.427   4.664
37424W        W 7305  25.170  38.338  10.411
37425W        W 7306  41.016   1.912  12.396
37426W        W 7307  24.153   7.231  13.880
37427W        W 7308   3.850   4.764  13.520
37428W        W 7309  34.398  21.613  11.515
37429W        W 7310  33.053  27.131  12.352
37430W        W 7311   4.720   8.804   0.922
37431W        W 7312  33.453  38.563  12.563
37432W        W 7313  42.416   9.699   0.799
37433W        W 7314   4.776  27.999  14.025
37434W        W 7315  29.601  20.029  12.019
37435W        W 7316  44.408  37.073   4.195
37436W        W 7317   1.892  37.899   3.239
37437W        W 7318   8.846  28.005   1.231
37438W        W 7319  40.918  11.761  11.032
37439W        W 7320   9.356   9.768  10.408
37440W        W 7321  17.275  17.650   2.377
37441W        W 7322   2.439   1.739   5.290
37442W        W 7323  10.182   6.895   1.727
37443W        W 7324  39.902  36.567   1.290
37444W        W 7325  32.041  41.955  11.960
37445W        W 7326  12.150  14.772  12.911
37446W        W 7327  27.081  39.991   3.699
37447W        W 7328  21.246  34.594  12.517
37448W        W 7329  12.805  30.136   2.858
37449W        W 7330  22.068  31.943   4.824
37450W        W 7331   4.400  16.151   1.220
37451W        W 7332  40.326  24.502   4.643
37452W        W 7333  32.506   0.962  14.959
37453W        W 7334   4.334   9.834   3.680
37454W        W 7335   8.249  22.117   4.705
37455W        W 7336   9.864  43.468  12.938
37456W        W 7337   8.788  24.054  13.519
37457W        W 7338  40.946  33.507  14.348
37458W        W 7339  27.174  25.208   3.180
37459W        W 7340  37.425  15.257  11.486
37460W        W 7341   6.239  38.444  11.564
37461W        W 7342  14.153   3.311  10.893
37462W        W 7343  16.243   7.864   2.688
37463W        W 7344   0.859   2.921  12.375
37464W        W 7345   9.833   3.371  14.993
37465W        W 7346  26.592  30.982   5.140
37466W        W 7347   6.859  20.671  14.981
37467W        W 7348  12.277  11.692   2.415
37468W        W 7349  24.145  36.995   2.782
37469W        W 7350  20.256  14.206  13.796
37470W        W 7351  21.714  39.987  11.598
37471W        W 7352   7.774  42.479   0.964
37472W        W 7353  37.535  36.360   4.137
37473W        W 7354  42.445  14.100  10.972
37474W        W 7355  34.099  20.622   0.913
37475W        W 7356   8.339  21.182  13.408
37476W        W 7357   4.848  40.480  11.950
37477W        W 7358  15.329  30.970  14.954
37478W        W 7359  33.081  34.536  13.823
37479W        W 7360  31.572  20.725  10.941
37480W        W 7361  15.785   9.716   5.254
37481W        W 7362  20.124  18.266   4.286
37482W        W 7363  41.412  15.798  11.070
37483W        W 7364  32.422  39.861  13.473
37484W        W 7365  36.552   9.259   3.765
37485W        W 7366  13.774   1.778  10.512
37486W        W 7367  42.805  41.981  14.309
37487W        W 7368  12.668  18.671  11.507
37488W        W 7369   1.862  20.609   1.357
37489W        W 7370  13.198  34.423   1.725
37490W        W 7371  26.588  40.385  14.415
37491W        W 7372  38.557  18.285  10.566
37492W        W 7373  37.844   3.788  13.009
37493W        W 7374  23.709  24.065   2.192
37494W        W 7375  39.393   2.840  14.867
37495W        W 7376   6.333  20.632  12.368
37496W        W 7377   5.412   5.325  12.414
37497W        W 7378  35.871   1.458  12.544
37498W        W 7379   5.798   6.187  10.469
37499W        W 7380  39.560  43.907  13.314
37500W        W 7381   8.168  42.468  12.045
37501W        W 7382  35.972  15.323   3.243
37502W        W 7383   7.403  17.251   3.357
37503W        W 7384  33.061  43.962  12.974
37504W        W 7385  34.386  25.663   0.305
37505W        W 7386  38.546  23.113  10.602
37506W        W 7387   0.361  36.085   1.434
37507W        W 7388  28.581   6.759  11.968
37508W        W 7389  17.270  12.236   0.434
37509W        W 7390   8.689  20.225   0.788
37510W        W 7391  17.278  15.619  13.421
37511W        W 7392   2.259  18.563   1.272
37512W        W 7393  14.798  42.817   1.306
37513W        W 7394  39.953  34.398  12.073
37514W        W 7395  43.319   9.391  10.938
37515W        W 7396  16.664  21.135  13.392
37516W        W 7397   2.924   5.393   3.177
37517W        W 7398  18.086   4.738  11.934
37518W        W 7399  10.660  26.608  10.594
37519W        W 7400   7.396  18.222   0.878
37520W        W 7401  31.922  39.409   2.746
37521W        W 7402  42.459  19.620  14.847
37522W        W 7403  33.033   8.661  13.929
37523W        W 7404  22.619  40.539   2.187
37524W        W 7405  40.518  19.068   2.320
37525W        W 7406  44.844  44.352   4.323
37526W        W 7407  44.381  35.885  12.008
37527W        W 7408  11.283  33.089  13.819
37528W        W 7409  31.041  29.432  12.947
37529W        W 7410  16.709  42.776   2.194
37530W        W 7411  11.760   7.222  11.518
37531W        W 7412  18.164  29.575   3.253
37532W        W 7413   6.226  12.662   0.966
37533W        W 7414   2.358  22.633  11.112
37534W        W 7415  15.092   1.446  14.361
37535W        W 7416  31.589  32.083   9.937
37536W        W 7417  26.075  39.970  12.064
37537W        W 7418  41.351   9.184  14.968
37538W        W 7419  28.984   6.255   4.294
37539W        W 7420   2.242  25.155   2.691
37540W        W 7421  16.636  36.884   0.889
37541W        W 7422  13.173  12.810   4.694
37542W        W 7423   2.403  26.585   2.212
37543W        W 7424   4.390  22.223   0.735
37544W        W 7425   2.863  14.323  13.919
37545W        W 7426  20.700  30.045  14.980
37546W        W 7427  31.022  35.054  12.487
37547W        W 7428   7.727  23.177  12.994
37548W        W 7429  25.555   0.272  13.399
37549W        W 7430  30.492   5.885  10.104
37550W        W 7431   2.724  39.885  11.562
37551W        W 7432   7.328  20.180  11.502
37552W        W 7433  25.504  29.589  14.504
37553W        W 7434  19.744  15.103   1.300
37554W        W 7435  22.624   8.736  11.551
37555W        W 7436   8.891  43.775  12.524
37556W        W 7437  41.918  14.278   4.148
37557W        W 7438  13.288  32.548  11.975
37558W        W 7439  32.930  29.627  14.938
37559W        W 7440   2.439  30.024  14.997
37560W        W 7441   3.251  41.891  13.055
37561W        W 7442   0.288   2.320   1.316
37562W        W 7443   2.445   3.333   0.837
37563W        W 7444  13.345  37.371  14.030
37564W        W 7445   7.829  41.023   1.933
37565W        W 7446  22.708  11.337   0.297
37566W        W 7447   4.848  32.525  12.346
37567W        W 7448  10.210  42.815  11.424
37568W        W 7449  38.945  35.859  13.860
37569W        W 7450  11.219  34.520   4.663
37570W        W 7451   4.342  27.948   1.364
37571W        W 7452  33.120   2.425  14.858
37572W        W 7453   2.853  28.486   2.674
37573W        W 7454  42.003  18.618   0.880
37574W        W 7455  23.146  40.473  13.059
37575W        W 7456  43.302  29.448   0.406
37576W        W 7457  18.553  24.180  12.844
37577W        W 7458  24.059  29.496   2.801
37578W        W 7459  21.575  11.359  12.857
37579W        W 7460  43.857  36.942   4.694
37580W        W 7461   4.887  23.566   3.363
37581W        W 7462  10.804  38.972   1.425
37582W        W 7463   3.395  29.135   1.711
37583W        W 7464  17.776  10.712  14.901
37584W        W 7465  37.535   5.309  12.849
37585W        W 7466  32.511  20.559  14.882
37586W        W 7467  24.573  14.225  14.509
37587W        W 7468  34.931  19.761   1.301
37588W        W 7469  37.335  28.612  12.412
37589W        W 7470  10.693  34.500   2.730
37590W        W 7471  11.656  31.430  11.127
37591W        W 7472  13.271  39.325  14.936
37592W        W 7473  30.106  18.184   3.302
37593W        W 7474   3.267  28.544  11.593
37594W        W 7475  34.927  39.451   2.838
37595W        W 7476  29.977   9.158   4.217
37596W        W 7477  30.543  38.986   1.435
37597W        W 7478   7.230  39.844  12.570
37598W        W 7479  26.187  13.612  13.463
37599W        W 7480  33.096  14.161   1.746
37600W        W 7481  25.535  35.916  11.386
37601W        W 7482   1.453  16.157   1.349
37602W        W 7483  20.764  40.389  12.902
37603W        W 7484  15.578  32.923  12.981
37604W        W 7485  33.573  22.250   2.326
37605W        W 7486  32.965  43.786  12.406
37606W        W 7487  27.649  19.117   4.823
37607W        W 7488   5.831   2.347   0.930
37608W        W 7489   2.774  36.071   1.386
37609W        W 7490  16.218  33.087   1.779
37610W        W 7491  24.011  34.916   0.332
37611W        W 7492   8.324  10.268  11.118
37612W        W 7493  10.334   7.710  12.523
37613W        W 7494  18.781  42.284   0.365
37614W        W 7495  41.369  41.520   1.399
37615W        W 7496  20.174   2.241  13.975
37616W        W 7497  42.352  16.166  11.943
37617W        W 7498  37.057  16.306   0.763
37618W        W 7499  17.751  14.664   3.834
37619W        W 7500  43.384   3.880   3.843
37620W        W 7501  25.155  26.681   3.785
37621W        W 7502   0.793   3.768  13.852
37622W        W 7503  34.108  37.579  12.015
37623W        W 7504  35.910  32.106   4.156
37624W        W 7505  43.894   1.313  13.944
37625W        W 7506  32.586   0.361   0.411
37626W        W 7507  28.483  22.117   4.765
37627W        W 7508  32.559  31.561  12.348
37628W        W 7509  31.547  27.141   2.662
37629W        W 7510  30.495  12.335  14.919
37630W        W 7511  10.294  11.128   4.725
37631W        W 7512  31.450  21.611  12.563
37632W        W 7513  17.697  17.787  12.527
37633W        W 7514  10.292  26.002   4.227
37634W        W 7515  38.520  18.164   3.820
37635W        W 7516  15.808   1.423   4.344
37636W        W 7517   9.803  40.482   0.803
37637W        W 7518   0.765  25.537   2.805
37638W        W 7519  15.711   5.368   4.297
37639W        W 7520  42.903  44.009   0.353
37640W        W 7521  19.635  34.535   0.274
37641W        W 7522  35.551  19.713  13.875
37642W        W 7523  13.601  32.889   1.873
37643W        W 7524  15.606   7.373   1.380
37644W        W 7525  29.992  27.029   3.162
37645W        W 7526  10.786  20.237   0.834
37646W        W 7527   9.699   2.258  12.388
37647W        W 7528   6.871  42.786  10.999
37648W        W 7529  13.804  31.101   3.157
37649W        W 7530  13.619  35.429  14.772
37650W        W 7531   0.814   6.862   0.397
37651W        W 7532  19.226  25.607  13.458
37652W        W 7533  40.955  36.078  11.859
37653W        W 7534  16.630  13.216   3.651
37654W        W 7535  26.642  20.756   2.682
37655W        W 7536   8.811  11.789  14.767
37656W        W 7537   8.877  10.789  11.118
37657W        W 7538   5.802  37.834   2.372
37658W        W 7539   6.358   6.718  11.864
37659W        W 7540  39.459  26.494   0.416
37660W        W 7541   1.268  10.366  12.082
37661W        W 7542  12.174  30.070  14.019
37662W        W 7543  22.113  33.017  14.834
37663W        W 7544  24.716  19.133  11.058
37664W        W 7545  37.336  22.694  10.635
37665W        W 7546  44.422  34.939  11.933
37666W        W 7547  31.102  17.144   3.309
37667W        W 7548  41.950   2.934  12.444
37668W        W 7549   3.811  43.501   1.863
37669W        W 7550   9.688   1.769   3.203
37670W        W 7551   1.321  29.106  12.905
37671W        W 7552  36.082  20.622   3.775
37672W        W 7553  38.856  28.474  12.939
37673W        W 7554  44.298  43.893   2.893
37674W        W 7555  26.700  30.164   1.772
37675W        W 7556  27.074   1.444  12.849
37676W        W 7557  43.815  24.511   0.360
37677W        W 7558   7.744  42.320   1.250
37678W        W 7559   3.801  19.058   4.147
37679W        W 7560   3.332  39.858   3.788
37680W        W 7561  20.078  37.405   1.775
37681W        W 7562  29.522  26.984  12.934
37682W        W 7563  26.959  10.713   3.837
37683W        W 7564  24.683  43.888  11.463
37684W        W 7565  26.193  15.604  11.861
37685W        W 7566   9.717  19.750   1.255
37686W        W 7567  43.485  21.523  14.974
37687W        W 7568   5.326   0.751  11.061
37688W        W 7569  28.579   8.261   0.814
37689W        W 7570   2.765  30.131   3.334
37690W        W 7571  17.633   7.707   2.861
37691W        W 7572  39.332  20.539  12.357
37692W        W 7573  27.161   6.906  13.354
37693W        W 7574  18.581  22.694  10.917
37694W        W 7575  30.945  10.677  11.442
37695W        W 7576  26.191  25.585  13.318
37696W        W 7577   9.838  27.096   1.879
37697W        W 7578  28.571  25.163   4.815
37698W        W 7579  34.021  44.279  11.507
37699W        W 7580   4.286   4.926   0.917
37700W        W 7581  40.329   6.808   1.749
37701W        W 7582   5.329  42.436  10.946
37702W        W 7583   0.450   5.415   0.842
37703W        W 7584  12.338  39.475  12.436
37704W        W 7585  17.134  31.494  10.514
37705W        W 7586  29.499  25.543  10.535
37706W        W 7587  21.071   2.727   1.882
37707W        W 7588  39.486  30.630   1.210
37708W        W 7589   2.393  27.611   3.196
37709W        W 7590  33.913  43.352  13.815
37710W        W 7591  21.189   3.397  13.010
37711W        W 7592   5.778  10.789   0.270
37712W        W 7593  42.289   2.922   0.946
37713W        W 7594   7.882   7.192   3.240
37714W        W 7595  20.159  28.654  11.609
37715W        W 7596  13.615  35.398   1.761
37716W        W 7597   2.312  26.060  14.941
37717W        W 7598  38.902  29.444   1.883
37718W        W 7599   0.891  30.629   3.736
37719W        W 7600  23.132  26.530  11.098
37720W        W 7601  11.845  18.050   0.945
37721W        W 7602   0.881  38.965  13.833
37722W        W 7603  11.326  30.143   2.297
37723W        W 7604  35.552   2.292   3.330
37724W        W 7605  18.053   3.764  10.992
37725W        W 7606  29.001  24.651   0.285
37726W        W 7607  18.098  37.425  12.054
37727W        W 7608  32.467   4.699   2.819
37728W        W 7609   5.311  16.155  11.499
37729W        W 7610   6.679  33.021  14.770
37730W        W 7611  25.581  21.623   0.259
37731W        W 7612  27.018  10.768  12.359
37732W        W 7613  20.094   0.871   2.854
37733W        W 7614   1.740  20.762  14.896
37734W        W 7615  41.501  37.966   3.261
37735W        W 7616   9.844  23.544   2.180
37736W        W 7617  14.291   8.263  10.467
37737W        W 7618  20.041  10.786  11.937
37738W        W 7619  44.505  22.044  12.031
37739W        W 7620  44.003  42.032  12.521
37740W        W 7621  34.403  21.704  11.891
37741W        W 7622  15.674   6.259  12.959
37742W        W 7623   2.902  11.668   2.265
37743W        W 7624   7.772  36.021   9.964
37744W        W 7625  16.283  23.716   3.378
37745W        W 7626  39.891   2.829  11.007
37746W        W 7627  21.564  43.445  14.465
37747W        W 7628  31.057  34.546   4.158
37748W        W 7629  15.097  11.802   2.357
37749W        W 7630  23.611   3.284  13.856
37750W        W 7631  44.919  14.182   0.818
37751W        W 7632   2.288  27.038  13.871
37752W        W 7633  13.294   6.398  13.493
37753W        W 7634  33.124  19.064   3.656
37754W        W 7635  19.740  11.755  12.434
37755W        W 7636  39.547   4.425  12.014
37756W        W 7637  44.327  24.014  12.484
37757W        W 7638   1.393  27.175   2.367
37758W        W 7639   3.805  41.450  13.858
37759W        W 7640  43.505  21.594   2.333
37760W        W 7641  16.132   4.332   1.734
37761W        W 7642  34.907   3.447  13.442
37762W        W 7643   5.425  16.124  12.568
37763W        W 7644  23.027  19.134  10.507
37764W        W 7645  29.124  28.030  13.371
37765W        W 7646  20.746  20.679   1.240
37766W        W 7647  41.434  38.973   2.234
37767W        W 7648  22.162  18.647   1.236
37768W        W 7649  24.487  25.097  13.856
37769W        W 7650  40.348  30.119   3.863
37770W        W 7651  41.903  25.974   0.798
37771W        W 7652  26.549  35.014   4.149
37772W        W 7653  44.269  22.518   1.253
37773W        W 7654  12.771  12.713   4.157
37774W        W 7655  42.459   0.944  12.987
37775W        W 7656  39.441  23.603   2.213
37776W        W 7657  13.185  42.401  13.488
37777W        W 7658  35.934   2.272   2.761
37778W        W 7659   4.925  22.018  12.407
37779W        W 7660  38.004  39.316  11.571
37780W        W 7661  19.629  42.379   3.260
37781W        W 7662  13.285   5.761  10.410
37782W        W 7663  43.948   9.654   0.809
37783W        W 7664  10.152  21.523   0.303
37784W        W 7665  15.787   4.351  13.489
37785W        W 7666   0.368  13.620  12.061
37786W        W 7667  18.155   4.766  12.852
37787W        W 7668  10.181   8.706  10.497
37788W        W 7669  40.332  34.501   0.920
37789W        W 7670   2.885  30.000  14.842
37790W        W 7671   7.388  17.104  13.869
37791W        W 7672  29.657  39.435  12.903
37792W        W 7673  44.492  20.126   1.389
37793W        W 7674  10.210  24.645   2.776
37794W        W 7675   8.252  38.371   0.261
37795W        W 7676  24.196  31.488  12.952
37796W        W 7677  30.075  11.850   0.814
37797W        W 7678  17.754   7.385  13.016
37798W        W 7679  40.330  35.035   3.771
37799W        W 7680  10.839  24.013   0.408
37800W        W 7681  12.631  26.147   2.806
37801W        W 7682   4.218  16.788  11.062
37802W        W 7683  21.566  35.492  11.487
37803W        W 7684  33.512   4.800   0.890
37804W        W 7685  34.424  19.692  13.039
37805W        W 7686  22.677  16.688   3.268
37806W        W 7687  42.450  37.579   4.798
37807W        W 7688   2.848  14.098   1.333
37808W        W 7689  40.350  19.224   4.129
37809W        W 7690  19.772   0.364   1.248
37810W        W 7691  39.469   7.773  10.524
37811W        W 7692  15.192  13.168  10.972
37812W        W 7693   1.790  32.621  10.488
37813W        W 7694   8.183  29.593   1.378
37814W        W 7695  25.574  23.727  13.479
37815W        W 7696  35.503  10.839  10.443
37816W        W 7697  27.128  28.485  11.876
37817W        W 7698  30.122  15.666   0.453
37818W        W 7699   4.420   2.811   1.924
37819W        W 7700  28.463  38.047  12.061
37820W        W 7701  34.950  27.169  10.633
37821W        W 7702  35.073   6.364  14.328
37822W        W 7703  12.311   8.697  13.930
37823W        W 7704  20.632  15.758  13.405
37824W        W 7705  31.484  42.917   9.955
37825W        W 7706  30.615  15.145   0.916
37826W        W 7707  16.709  43.329   4.248
37827W        W 7708  33.879   9.823  13.912
37828W        W 7709  41.526  12.616  14.915
37829W        W 7710   5.776  28.512  13.984
37830W        W 7711  29.629  16.664  11.913
37831W        W 7712  27.626  40.466  13.502
37832W        W 7713  17.097   0.471  11.467
37833W        W 7714  20.560  41.933   2.403
37834W        W 7715  19.767  27.569  13.879
37835W        W 7716  18.259  27.572   3.698
37836W        W 7717   6.262  22.727  13.313
37837W        W 7718   7.337  11.807   1.739
37838W        W 7719  44.440   5.414   4.693
37839W        W 7720   9.328  26.483   2.684
37840W        W 7721  31.969  43.308  11.863
37841W        W 7722   3.397   4.834  10.974
37842W        W 7723  35.001  18.605  12.561
37843W        W 7724   1.285  21.526  14.807
37844W        W 7725  42.445  13.820  12.951
37845W        W 7726  10.196   0.889   3.859
37846W        W 7727  38.334  27.492   2.826
37847W        W 7728  12.207   5.197   0.386
37848W        W 7729  33.425  37.078  14.334
37849W        W 7730  21.224  39.395  12.509
37850W        W 7731   6.284  13.336  12.928
37851W        W 7732   0.317  39.354  12.827
37852W        W 7733  35.882  16.800   0.788
37853W        W 7734  23.504  39.979   2.897
37854W        W 7735  34.496   3.711   4.762
37855W        W 7736  10.828  43.503   2.285
37856W        W 7737   3.299  25.580  12.571
37857W        W 7738  11.304   1.954  12.032
37858W        W 7739  32.563   9.350   0.386
37859W        W 7740  35.444  11.247  13.982
37860W        W 7741  36.365  14.303   0.276
37861W        W 7742   2.782  34.564   4.285
37862W        W 7743  25.092  29.631   1.212
37863W        W 7744   5.404  32.039   3.251
37864W        W 7745   2.361  42.903  12.062
37865W        W 7746  16.135  11.134   0.901
37866W        W 7747   4.353  32.947   0.907
37867W        W 7748  32.614  12.285   1.390
37868W        W 7749  14.259   2.802  10.635
37869W        W 7750  31.462  22.052   1.720
37870W        W 7751  34.000   4.447  12.831
37871W        W 7752  12.780  18.549   0.390
37872W        W 7753  15.220  34.543   0.801
37873W        W 7754  22.140  26.207  11.422
37874W        W 7755  43.940  19.624   0.845
37875W        W 7756  14.799  11.239  13.373
37876W        W 7757   9.697   7.295  12.398
37877W        W 7758  39.511  15.150  13.973
37878W        W 7759  13.716  21.259  13.904
37879W        W 7760  41.459   6.809  14.329
37880W        W 7761  39.929  22.124   2.841
37881W        W 7762   6.405  12.788  11.102
37882W        W 7763  25.482  22.526  12.902
37883W        W 7764  15.666  38.491   5.131
37884W        W 7765   7.363  40.386   0.943
37885W        W 7766  43.793  38.832   1.724
37886W        W 7767  43.428  39.066  11.864
37887W        W 7768  37.537  38.467  14.999
37888W        W 7769  12.222  39.858   4.154
37889W        W 7770   1.471  10.340   2.299
37890W        W 7771  13.707  33.618   1.782
37891W        W 7772  38.039   0.973   1.768
37892W        W 7773  18.151   2.908   1.917
37893W        W 7774  32.627   1.335   1.822
37894W        W 7775   9.698  35.022  14.781
37895W        W 7776   6.297  11.291  14.449
37896W        W 7777  34.459  12.319  10.491
37897W        W 7778  44.892  36.514   2.722
37898W        W 7779  21.018  32.007  10.631
37899W        W 7780  19.219  36.998   2.764
37900W        W 7781  14.206  31.434   1.375
37901W        W 7782   9.688  44.824   2.819
37902W        W 7783   7.359  12.246  14.781
37903W        W 7784  35.577  44.879   2.724
37904W        W 7785  22.123  22.053  10.428
37905W        W 7786  39.034  22.614  14.360
37906W        W 7787  39.400  23.114   1.228
37907W        W 7788  20.167   5.710  11.551
37908W        W 7789  40.017   8.769  12.082
37909W        W 7790  31.923  21.243   2.898
37910W        W 7791  37.428  38.034  12.889
37911W        W 7792  31.579  40.386   1.429
37912W        W 7793   4.339  42.802   2.775
37913W        W 7794  31.936   6.818   0.356
37914W        W 7795  13.341  12.844  13.049
37915W        W 7796  43.878  29.594  14.384
37916W        W 7797  10.311  43.349  12.066
37917W        W 7798   5.265  35.926  14.987
37918W        W 7799  22.045  13.699   3.638
37919W        W 7800  25.531  17.671   2.892
37920W        W 7801  29.662   2.298   0.252
37921W        W 7802   5.892   0.416   0.849
37922W        W 7803  32.501  16.791  13.437
37923W        W 7804  41.315  41.490   2.341
37924W        W 7805  25.164  14.694  13.479
37925W        W 7806  20.759   8.284  12.361
37926W        W 7807  36.536   8.364   2.364
37927W        W 7808  39.367  23.531   0.412
37928W        W 7809  31.020  40.328   2.189
37929W        W 7810  25.982   9.838  10.452
37930W        W 7811  40.460   9.241   4.162
37931W        W 7812  14.700  19.078   3.743
37932W        W 7813  22.018   6.874  13.044
37933W        W 7814  10.692  29.623   5.100
37934W        W 7815  32.532  15.102  14.807
37935W        W 7816  33.459  22.104  10.443
37936W        W 7817  32.130   2.395  11.478
37937W        W 7818  31.995  31.025  13.522
37938W        W 7819  34.008  39.472   0.270
37939W        W 7820  38.902  17.678  13.377
37940W        W 7821  39.338  31.624   1.311
37941W        W 7822  15.625  32.498   3.786
37942W        W 7823  29.097  33.994   3.233
37943W        W 7824   4.423   7.865   2.356
37944W        W 7825  36.427   8.706  10.418
37945W        W 7826  28.019   7.687  12.353
37946W        W 7827  44.468   9.309  11.512
37947W        W 7828   2.361  26.496   2.897
37948W        W 7829  10.324  16.186  12.035
37949W        W 7830   0.754  43.924  11.905
37950W        W 7831   0.455  28.076   2.202
37951W        W 7832   4.396  28.478  14.352
37952W        W 7833  40.009  22.066   4.338
37953W        W 7834  10.817  17.074   3.855
37954W        W 7835  20.762   8.720   3.305
37955W        W 7836  13.347   4.243  13.973
37956W        W 7837   7.742  17.086  11.054
37957W        W 7838   6.405  22.652   3.755
37958W        W 7839  39.970  18.549  11.930
37959W        W 7840   4.938  18.764   4.714
37960W        W 7841   5.862  21.560   1.842
37961W        W 7842   1.742  32.578   1.885
37962W        W 7843  42.336   0.876  12.493
37963W        W 7844  28.053  29.091   1.299
37964W        W 7845  13.252  29.495  14.980
37965W        W 7846   0.812  31.978  11.954
37966W        W 7847  28.106  23.621   1.921
37967W        W 7848  29.647  33.596   2.689
37968W        W 7849  25.217   2.851   4.699
37969W        W 7850  10.148   4.423  13.328
37970W        W 7851   6.362  41.791   1.230
37971W        W 7852  39.324  38.554  14.910
37972W        W 7853  31.942   2.831   4.337
37973W        W 7854   6.722  15.308  11.611
37974W        W 7855  38.533  15.597   1.281
37975W        W 7856  29.927  34.958   3.710
37976W        W 7857  33.097  25.093   2.295
37977W        W 7858  11.854  11.288  11.534
37978W        W 7859   2.351  41.931  12.390
37979W        W 7860  16.675  29.950  11.906
37980W        W 7861  25.707  36.386  13.792
37981W        W 7862  12.227  31.622   4.322
37982W        W 7863  27.193  18.219  10.893
37983W        W 7864  13.132  24.022  11.491
37984W        W 7865  14.270  18.774  11.892
37985W        W 7866  25.068  30.933   5.314
37986W        W 7867  43.904  33.979   0.886
37987W        W 7868   2.271  41.331   1.772
37988W        W 7869  41.868  22.010  11.522
37989W        W 7870  16.692  43.975  12.091
37990W        W 7871  32.050   5.267  12.906
37991W        W 7872  19.169   5.246   2.844
37992W        W 7873  43.910   2.736   4.774
37993W        W 7874  29.059   6.392  12.902
37994W        W 7875  44.501  20.156   0.879
37995W        W 7876  29.568   7.758  13.509
37996W        W 7877  28.538   6.418   2.304
37997W        W 7878  32.890  24.212   4.750
37998W        W 7879  12.142  29.568  11.409
37999W        W 7880  31.595   5.881   4.719
38000W        W 7881  36.358  17.694   1.709
38001W        W 7882   7.229  25.990   2.410
38002W        W 7883  37.008  34.464  14.366
38003W        W 7884   1.861  11.767   0.474
38004W        W 7885  16.176   3.839   0.824
38005W        W 7886  43.393  43.978  14.889
38006W        W 7887   1.839  23.049  11.549
38007W        W 7888   7.417   4.805   4.636
38008W        W 7889  37.942  25.087  13.544
38009W        W 7890  19.159  27.109  11.469
38010W        W 7891  14.708   8.279  14.972
38011W        W 7892  34.613   6.401  12.017
38012W        W 7893  34.121  17.074   4.667
38013W        W 7894  44.406   0.265   2.750
38014W        W 7895  35.985  30.558   4.286
38015W        W 7896  11.351  29.434   0.800
38016W        W 7897  40.991  14.710   0.729
38017W        W 7898  27.167  36.550   0.307
38018W        W 7899  14.678  19.188   4.706
38019W        W 7900  14.333  11.344  14.429
38020W        W 7901  20.219   9.265  10.957
38021W        W 7902  30.950  17.705   4.268
38022W        W 7903  44.295  43.791  10.482
38023W        W 7904  37.842  15.325   0.930
38024W        W 7905  34.518   2.808   0.809
38025W        W 7906  42.948  15.804   5.258
38026W        W 7907  16.740  12.719  14.858
38027W        W 7908  39.829  32.047  11.396
38028W        W 7909  21.263  28.999  13.447
38029W        W 7910  13.136  31.522   4.172
38030W        W 7911  27.460  14.162  13.899
38031W        W 7912   1.835  36.031  13.961
38032W        W 7913  32.593  37.381   0.927
38033W        W 7914  37.832   5.692   2.366
38034W        W 7915  30.500  21.075   0.915
38035W        W 7916  30.981  31.941  10.541
38036W        W 7917   4.851  12.640  12.542
38037W        W 7918  17.185  21.568   0.834
38038W        W 7919  40.320  27.942  11.002
38039W        W 7920  14.195   5.920  13.817
38040W        W 7921  11.686  11.274  13.852
38041W        W 7922   1.476   9.877  14.454
38042W        W 7923  12.815   5.404  10.917
38043W        W 7924  36.407  32.633   0.263
38044W        W 7925  25.567  33.959  10.408
38045W        W 7926  13.140  24.221  13.969
38046W        W 7927   4.435  36.383  10.502
38047W        W 7928  34.920  29.072  10.447
38048W        W 7929   1.886  42.814   1.751
38049W        W 7930  33.385   6.405  13.987
38050W        W 7931  24.979  41.488   2.263
38051W        W 7932  25.076  34.403   1.296
38052W        W 7933  10.173  31.127  11.453
38053W        W 7934   7.275  16.763  10.473
38054W        W 7935  14.820   8.879  14.800
38055W        W 7936   9.784  34.920   4.615
38056W        W 7937  26.165  35.097  14.408
38057W        W 7938   4.215  33.102   2.735
38058W        W 7939  12.847  15.094   4.780
38059W        W 7940  37.574  29.433   1.243
38060W        W 7941  33.941  43.304  13.534
38061W        W 7942  27.986  14.305  13.436
38062W        W 7943   6.372  44.916  11.960
38063W        W 7944   7.194  33.990   2.733
38064W        W 7945  26.641   9.729   2.711
38065W        W 7946   1.363  23.125  12.906
38066W        W 7947  41.455   0.924  11.382
38067W        W 7948  32.530  30.575   1.338
38068W        W 7949  41.977  19.720  12.020
38069W        W 7950  33.450   0.306   4.269
38070W        W 7951  24.693   2.725   1.726
38071W        W 7952  32.469  31.503  10.413
38072W        W 7953  27.690  30.022   1.799
38073W        W 7954  21.137  21.251  13.455
38074W        W 7955   9.151  39.434   4.750
38075W        W 7956  12.249  36.386   3.871
38076W        W 7957  26.464  25.503   4.305
38077W        W 7958  24.001  40.847  13.929
38078W        W 7959  16.147  32.607  11.510
38079W        W 7960   3.748  15.105  13.399
38080W        W 7961  15.605  32.580  14.348
38081W        W 7962   9.887  26.019   1.228
38082W        W 7963  35.009   3.718   4.127
38083W        W 7964  38.038  32.050   2.753
38084W        W 7965   5.343  41.420  13.026
38085W        W 7966  30.999  12.282  10.992
38086W        W 7967  41.808  29.101   4.706
38087W        W 7968  40.949  28.066  13.844
38088W        W 7969  43.334  29.554  13.026
38089W        W 7970  37.354  20.526   1.722
38090W        W 7971  21.041   1.912   5.283
38091W        W 7972  18.077  25.698  11.065
38092W        W 7973  11.349  28.134   2.371
38093W        W 7974  37.932  23.652   4.138
38094W        W 7975  37.007  34.959  11.094
38095W        W 7976  17.702  18.096  11.993
38096W        W 7977  42.809  14.248   1.898
38097W        W 7978  37.065  36.373  11.542
38098W        W 7979  23.646  42.976  10.452
38099W        W 7980  23.580  34.873   0.380
38100W        W 7981  30.121  33.949   2.832
38101W        W 7982  27.098  22.610   4.795
38102W        W 7983  19.775   2.404   1.222
38103W        W 7984  42.923   2.871  11.975
38104W        W 7985  39.896  19.100   3.273
38105W        W 7986  20.055  26.700  10.988
38106W        W 7987  26.965  10.785   4.353
38107W        W 7988  37.028  41.511  14.821
38108W        W 7989  36.396  13.819   4.720
38109W        W 7990  20.242  40.315  11.386
38110W        W 7991  43.808  35.445  13.844
38111W        W 7992  19.580  20.753  14.999
38112W        W 7993  32.049  42.000  12.517
38113W        W 7994  43.492  38.029   0.864
38114W        W 7995  44.904  34.470  12.062
38115W        W 7996   4.894  37.370  12.966
38116W        W 7997  31.015  21.566  14.439
38117W        W 7998   5.904  21.069   3.801
38118W        W 7999  26.207  22.664   4.284
38119W        W 8000   6.405  38.335   1.321
38120W        W 8001  26.140  12.770  10.572
38121W        W 8002  38.865  44.260  13.011
38122W        W 8003   4.886  29.669  10.888
38123W        W 8004  38.049  40.931   4.257
38124W        W 8005   6.324  37.970   4.333
38125W        W 8006  31.090  36.035  12.933
38126W        W 8007   6.877  10.168   0.344
38127W        W 8008   2.307   1.777   1.295
38128W        W 8009  40.976  29.111   3.248
38129W        W 8010  21.643  25.556  11.416
38130W        W 8011  32.909   3.900   2.336
38131W        W 8012   3.863  36.992   0.864
38132W        W 8013  23.003  21.584  11.115
38133W        W 8014  21.239  27.660  14.028
38134W        W 8015   3.263  26.613  13.972
38135W        W 8016  17.568  27.126  11.129
38136W        W 8017  32.888  23.615  11.475
38137W        W 8018   4.784  12.844   1.398
38138W        W 8019  18.104  18.618   4.354
38139W        W 8020  25.198  12.123   4.334
38140W        W 8021  21.177   4.211  13.948
38141W        W 8022  38.474   4.769  14.483
38142W        W 8023  38.844  26.586  13.855
38143W        W 8024   6.731  21.644   0.385
38144W        W 8025  28.145  21.114  14.364
38145W        W 8026  18.153  36.531   1.310
38146W        W 8027   0.842  44.399  14.448
38147W        W 8028  25.060  34.421  13.038
38148W        W 8029  17.774  13.649  14.337
38149W        W 8030  11.798  28.940  11.104
38150W        W 8031   0.306  21.262  11.510
38151W        W 8032   7.346  11.171  12.018
38152W        W 8033  14.328  33.426   1.824
38153W        W 8034  35.576  29.077  10.472
38154W        W 8035   9.278  10.666   1.776
38155W        W 8036  37.356  23.180   2.234
38156W        W 8037   5.782  25.558   4.698
38157W        W 8038  26.951   4.321   2.902
38158W        W 8039  22.668  34.030  14.801
38159W        W 8040   1.471  21.173  14.502
38160W        W 8041  15.801  10.722  14.965
38161W        W 8042  37.996   6.231  10.412
38162W        W 8043   3.731  30.028  12.070
38163W        W 8044   2.756  12.137   0.302
38164W        W 8045  25.160  32.058  11.568
38165W        W 8046  30.576  18.120  12.527
38166W        W 8047  39.851  35.866  14.368
38167W        W 8048  15.773  12.234   2.741
38168W        W 8049  33.589  24.983  14.417
38169W        W 8050  14.299   9.289  13.379
38170W        W 8051  18.104  16.283  14.440
38171W        W 8052  29.967  35.020   1.259
38172W        W 8053  13.108  29.638  11.576
38173W        W 8054  33.054  14.607  10.497
38174W        W 8055  38.360  41.387   2.311
38175W        W 8056  19.221  40.019   1.262
38176W        W 8057  21.103  19.182   1.695
38177W        W 8058   1.810  38.900  11.957
38178W        W 8059  30.481  19.697   3.718
38179W        W 8060  44.778  21.604  11.997
38180W        W 8061  40.048   3.746   0.869
38181W        W 8062   2.268   6.413   4.807
38182W        W 8063  14.175   1.867   3.650
38183W        W 8064  16.261  14.217  11.414
38184W        W 8065  35.872   6.301   1.387
38185W        W 8066  11.181  23.031  14.385
38186W        W 8067  38.947   0.297   4.143
38187W        W 8068  44.810  31.969   2.402
38188W        W 8069   0.265  17.714   4.777
38189W        W 8070   9.343   2.421   0.761
38190W        W 8071  35.405  26.092   1.403
38191W        W 8072  40.401  20.583   4.321
38192W        W 8073  19.647  36.958   1.885
38193W        W 8074  38.899  25.107  11.070
38194W        W 8075  12.775  20.093   2.410
38195W        W 8076  17.196  25.139  12.428
38196W        W 8077  26.048  27.174  11.536
38197W        W 8078  23.509  22.022  13.842
38198W        W 8079  15.712  28.483   0.736
38199W        W 8080  24.699  43.446  14.513
38200W        W 8081  27.641  41.375   4.703
38201W        W 8082  13.846  39.999   0.751
38202W        W 8083  36.437   0.328   0.731
38203W        W 8084  28.086   8.856  14.420
38204W        W 8085  15.804  31.109  12.458
38205W        W 8086  40.984  27.676  13.353
38206W        W 8087   6.838  20.765   3.318
38207W        W 8088   9.700  39.483  13.025
38208W        W 8089   8.173  16.172  11.044
38209W        W 8090  22.018  17.189  13.356
38210W        W 8091  38.483   9.687   4.709
38211W        W 8092  11.747   0.955  13.816
38212W        W 8093  21.714  21.617  11.886
38213W        W 8094  43.459  30.459  11.417
38214W        W 8095  18.170  19.694  13.485
38215W        W 8096   0.251   9.290  12.040
38216W        W 8097   7.842  19.177  12.467
38217W        W 8098  27.618  31.986  14.381
38218W        W 8099  26.547  40.515  11.944
38219W        W 8100  17.713   1.305   2.194
38220W        W 8101   0.821   1.836  13.523
38221W        W 8102   3.326  21.525  13.356
38222W        W 8103  43.803  22.191  11.056
38223W        W 8104   9.177  36.375  14.324
38224W        W 8105  33.544  40.358   4.185
38225W        W 8106   2.926  41.459   4.757
38226W        W 8107  16.719  42.518   2.232
38227W        W 8108  28.642  27.691   0.774
38228W        W 8109  17.137  36.893   3.766
38229W        W 8110  23.186  38.388   1.371
38230W        W 8111  35.918  41.970  10.897
38231W        W 8112  31.626  13.798  13.542
38232W        W 8113  27.108  19.247  12.947
38233W        W 8114   6.699   6.750   4.157
38234W        W 8115  41.456   3.792   1.739
38235W        W 8116   3.832  35.879   2.759
38236W        W 8117  15.796  27.026  14.854
38237W        W 8118  34.507  15.792  12.455
38238W        W 8119   6.373  42.990  10.581
38239W        W 8120  13.205   6.273   4.633
38240W        W 8121  32.393  41.459  14.787
38241W        W 8122  14.111  12.124   1.839
38242W        W 8123  19.765   7.382  13.475
38243W        W 8124  15.582  41.519  10.141
38244W        W 8125  12.720   6.746   2.854
38245W        W 8126  32.610  23.199   2.785
38246W        W 8127  20.682  38.361   0.302
38247W        W 8128  12.631  39.455  14.302
38248W        W 8129   3.911   6.725   4.699
38249W        W 8130  14.096   5.883  13.430
38250W        W 8131   6.340  28.065   3.351
38251W        W 8132  25.013  33.379   4.135
38252W        W 8133  44.766  16.640  12.564
38253W        W 8134  14.824  41.004  14.275
38254W        W 8135  15.321   4.302  11.073
38255W        W 8136  11.778  32.029   5.206
38256W        W 8137  26.575  34.879  10.424
38257W        W 8138  22.163  25.173  13.853
38258W        W 8139  22.223  20.587  14.926
38259W        W 8140  38.892  44.765   3.745
38260W        W 8141  33.562  32.618   0.891
38261W        W 8142  28.114  19.624   0.857
38262W        W 8143   5.833  43.853  10.921
38263W        W 8144  38.542   5.416  13.932
38264W        W 8145  18.646  35.472   2.224
38265W        W 8146   3.321   1.889   0.878
38266W        W 8147  16.181  30.002  14.783
38267W        W 8148  23.673  39.341  13.956
38268W        W 8149  32.617  39.055   3.786
38269W        W 8150   9.765   6.810   3.151
38270W        W 8151  23.570  15.191  14.914
38271W        W 8152  19.646  11.343   1.889
38272W        W 8153  14.291  14.138   3.714
38273W        W 8154  17.265   6.772  11.439
38274W        W 8155  43.915  34.553   1.372
38275W        W 8156  34.605  11.692   0.899
38276W        W 8157  10.329  12.312   1.439
38277W        W 8158  19.255  42.353  10.421
38278W        W 8159   1.444  41.444  14.946
38279W        W 8160  25.535  10.669   3.377
38280W        W 8161   3.730  43.483   3.366
38281W        W 8162  17.258  12.829   4.274
38282W        W 8163  24.123  18.111   0.334
38283W        W 8164   2.266  34.432   9.998
38284W        W 8165  21.755   1.884   0.278
38285W        W 8166   5.355  43.994   3.633
38286W        W 8167  19.097  42.863   1.386
38287W        W 8168  30.038   1.793   0.893
38288W        W 8169  21.747   4.777  14.952
38289W        W 8170  11.152   6.737   1.815
38290W        W 8171  32.043  42.906  14.802
38291W        W 8172  30.086  31.151   4.636
38292W        W 8173   9.740  15.760  10.569
38293W        W 8174  22.194  41.406  14.443
38294W        W 8175  33.606  38.850   3.276
38295W        W 8176  23.182  35.080  10.890
38296W        W 8177  44.992  12.172   1.223
38297W        W 8178  17.795   7.266   3.641
38298W        W 8179   2.783   5.325  11.955
38299W        W 8180  25.158  43.309  10.535
38300W        W 8181   1.439   2.812  12.036
38301W        W 8182  28.524  14.638   2.325
38302W        W 8183  31.447  25.565  14.491
38303W        W 8184  19.569   9.231  12.034
38304W        W 8185  41.968  14.712  13.500
38305W        W 8186  27.141  33.946  10.518
38306W        W 8187  16.752  43.431   3.221
38307W        W 8188  36.511   0.943  11.955
38308W        W 8189  16.123   3.285  11.497
38309W        W 8190  11.259  11.280   2.742
38310W        W 8191  38.048  15.091  12.357
38311W        W 8192  20.743  28.063   0.442
38312W        W 8193   8.321   0.989  13.460
38313W        W 8194  25.693  19.187  13.532
38314W        W 8195  43.482  29.050   4.753
38315W        W 8196  35.083  38.417  13.325
38316W        W 8197  25.607  39.037   2.322
38317W        W 8198  43.928   6.756   2.199
38318W        W 8199  12.642  23.658   1.224
38319W        W 8200   2.738  13.647   0.871
38320W        W 8201  13.263  27.472   1.301
38321W        W 8202  14.832  18.779   0.857
38322W        W 8203  43.945  17.710  14.299
38323W        W 8204  40.052  20.110   3.175
38324W        W 8205   7.397  36.055  14.274
38325W        W 8206  10.779  25.601   2.835
38326W        W 8207  25.569   9.825   1.347
38327W        W 8208  29.119   5.367   3.726
38328W        W 8209  22.100  35.451   3.257
38329W        W 8210   3.775  24.096  13.881
38330W        W 8211  28.083  24.211  12.569
38331W        W 8212  44.356  15.300  10.558
38332W        W 8213  21.630  16.189  11.859
38333W        W 8214   0.267  35.384  12.389
38334W        W 8215  23.203   3.830   2.262
38335W        W 8216  29.565  43.831  14.467
38336W        W 8217  41.501  17.763  12.011
38337W        W 8218  15.756   9.670  12.845
38338W        W 8219  22.093  10.816  10.475
38339W        W 8220  32.612  32.079  11.543
38340W        W 8221  42.305   6.387   2.889
38341W        W 8222  13.702  19.570  12.963
38342W        W 8223  30.656  29.139  10.977
38343W        W 8224  35.951  37.851  14.944
38344W        W 8225   5.382  30.624  13.064
38345W        W 8226  30.657  20.038  13.375
38346W        W 8227  41.938  24.572   4.270
38347W        W 8228  29.087   6.238   0.256
38348W        W 8229  30.468  15.241   0.245
38349W        W 8230  36.950   5.257  14.386
38350W        W 8231  30.993  19.730   4.636
38351W        W 8232  29.516  34.450  12.001
38352W        W 8233   0.437   7.809  11.115
38353W        W 8234  35.424  30.603   2.342
38354W        W 8235  43.475  14.190  13.998
38355W        W 8236  35.090  15.300  14.283
38356W        W 8237  18.789   4.348  10.580
38357W        W 8238  10.345  14.721   1.696
38358W        W 8239  21.019   9.825   2.365
38359W        W 8240   3.259  36.061  13.422
38360W        W 8241   0.928  42.332   4.714
38361W        W 8242   0.810  13.154   0.905
38362W        W 8243  34.905  32.431  14.989
38363W        W 8244  27.480  27.558   1.419
38364W        W 8245  39.874   1.438  10.645
38365W        W 8246   3.803  14.816   3.847
38366W        W 8247  34.518  42.856   0.278
38367W        W 8248  34.554  18.680  13.024
38368W        W 8249   4.271  21.652   3.725
38369W        W 8250   8.852  10.375   5.132
38370W        W 8251  35.361  29.594  10.599
38371W        W 8252   3.873  19.285  13.423
38372W        W 8253  33.023  23.696   0.404
38373W        W 8254  22.245  29.506   4.794
38374W        W 8255   1.384  29.670   3.154
38375W        W 8256  11.849  15.292   5.232
38376W        W 8257  42.820  32.450   3.691
38377W        W 8258  43.920  20.129  11.040
38378W        W 8259  24.165   2.232  11.486
38379W        W 8260  39.358   2.327   3.386
38380W        W 8261  27.004  35.886  11.555
38381W        W 8262  33.075  34.914   1.802
38382W        W 8263  26.494   1.428  10.470
38383W        W 8264  17.218  15.589   4.164
38384W        W 8265   3.320   8.766  11.385
38385W        W 8266  33.116  38.417   2.335
38386W        W 8267  24.068  44.396  12.988
38387W        W 8268   1.378  15.582  14.861
38388W        W 8269  15.584  34.898  12.374
38389W        W 8270  33.443  44.903  11.868
38390W        W 8271  42.305  18.129  11.483
38391W        W 8272   7.255  40.454  14.979
38392W        W 8273   5.386   6.332  12.538
38393W        W 8274  37.014   6.705   2.189
38394W        W 8275  10.713   1.971   3.196
38395W        W 8276  35.484  16.309   1.823
38396W        W 8277   6.834  13.194   3.157
38397W        W 8278  33.130  29.947  14.298
38398W        W 8279  38.359   9.331  14.931
38399W        W 8280  16.289  41.041   3.823
38400W        W 8281  23.706  31.914   0.931
38401W        W 8282   4.831  35.942  12.927
38402W        W 8283   1.265  38.055  11.575
38403W        W 8284  40.881  32.090  13.323
38404W        W 8285  42.456  42.829   3.781
38405W        W 8286  11.848  16.671   0.310
38406W        W 8287  23.152  15.602   2.263
38407W        W 8288  26.065  30.006   4.626
38408W        W 8289  32.009  25.020   4.163
38409W        W 8290  26.022  42.846   2.342
38410W        W 8291   6.890   9.299   3.278
38411W        W 8292  26.617  43.876  11.041
38412W        W 8293  33.980  16.274   0.728
38413W        W 8294  39.530   2.926  14.414
38414W        W 8295  27.103   5.904   0.913
38415W        W 8296  36.098  41.936   4.173
38416W        W 8297   7.204  40.901  13.361
38417W        W 8298  40.950   9.841   2.284
38418W        W 8299  28.597  40.968   1.890
38419W        W 8300  19.749  14.212   4.311
38420W        W 8301   5.748  20.241  10.488
38421W        W 8302   8.792  33.424  13.846
38422W        W 8303  12.331   9.858  10.990
38423W        W 8304   1.445  38.893   3.694
38424W        W 8305   6.379  41.407   0.285
38425W        W 8306  44.461  32.467   2.677
38426W        W 8307  42.885  42.900  12.013
38427W        W 8308  20.054  21.537  12.509
38428W        W 8309  32.472  28.626  10.433
38429W        W 8310  17.204  22.162  14.949
38430W        W 8311  26.204   8.776   3.355
38431W        W 8312  28.139  31.477  12.964
38432W        W 8313  12.702  34.592   4.827
38433W        W 8314  43.317  14.210  10.110
38434W        W 8315  10.346   8.818   3.322
38435W        W 8316  25.136  12.769   1.743
38436W        W 8317  25.120  36.356  13.884
38437W        W 8318  40.547  10.274   1.875
38438W        W 8319  11.185   8.812   4.669
38439W        W 8320  24.621  16.621  11.563
38440W        W 8321  27.631   1.387  14.324
38441W        W 8322  11.683   1.267  13.926
38442W        W 8323  42.940  27.115  14.875
38443W        W 8324  14.757  20.613  12.919
38444W        W 8325  33.967  24.059  12.411
38445W        W 8326  11.832  25.210  14.871
38446W        W 8327  43.947  35.877  10.634
38447W        W 8328   0.800  39.907   2.334
38448W        W 8329  11.209  28.439  13.322
38449W        W 8330   1.458  13.266   4.804
38450W        W 8331  21.637   9.311   0.838
38451W        W 8332  11.224   3.415   0.833
38452W        W 8333  13.281  22.699   3.673
38453W        W 8334  32.612  22.659  10.919
38454W        W 8335  15.152  26.181   3.365
38455W        W 8336  16.622  42.956   5.229
38456W        W 8337  38.914  39.000   2.313
38457W        W 8338   4.877  40.891   3.382
38458W        W 8339  12.821  14.256  13.513
38459W        W 8340  14.288   7.817  11.868
38460W        W 8341  33.126   6.321  14.865
38461W        W 8342  19.551  14.199  12.054
38462W        W 8343  34.440  21.735  13.372
38463W        W 8344  10.876   9.712  14.451
38464W        W 8345  36.892  15.615  12.054
38465W        W 8346  39.924   0.866   0.457
38466W        W 8347  22.142  35.991  12.430
38467W        W 8348  30.074  40.858   4.242
38468W        W 8349  30.484  22.597  11.475
38469W        W 8350  21.022  13.144  11.944
38470W        W 8351  23.134   7.731   2.406
38471W        W 8352  18.229  31.564   0.433
38472W        W 8353  44.477  38.949   1.241
38473W        W 8354  42.284  26.110   1.768
38474W        W 8355   1.478  29.927  10.972
38475W        W 8356  28.077   0.870   4.257
38476W        W 8357  26.999  28.099   1.863
38477W        W 8358   4.721  18.763  13.440
38478W        W 8359  43.876  14.211  13.935
38479W        W 8360   9.311  29.045  13.966
38480W        W 8361  20.737   7.173   0.315
38481W        W 8362  11.310  17.106   3.245
38482W        W 8363  16.107  41.905   0.929
38483W        W 8364  34.026  30.019  12.843
38484W        W 8365  16.630   9.181  11.871
38485W        W 8366  30.531  30.466  12.966
38486W        W 8367  32.060  21.732   2.375
38487W        W 8368   3.370  39.047  14.418
38488W        W 8369  42.443   2.356   2.343
38489W        W 8370  25.527   5.430  13.529
38490W        W 8371   9.786  18.589   2.680
38491W        W 8372  11.258  32.971   3.657
38492W        W 8373  23.044  28.019  10.452
38493W        W 8374  33.882  14.115   4.212
38494W        W 8375   3.732  22.200  14.963
38495W        W 8376  13.194  42.463   0.451
38496W        W 8377  17.570  35.582  12.355
38497W        W 8378  31.437   2.344  10.896
38498W        W 8379  26.199  19.282  13.011
38499W        W 8380  10.765  27.050   1.293
38500W        W 8381  29.005  16.089   3.795
38501W        W 8382  31.063  22.718   0.443
38502W        W 8383   0.987   8.177   3.279
38503W        W 8384   5.290   1.363   0.451
38504W        W 8385  41.831  28.093   3.688
38505W        W 8386  20.735  37.855   4.715
38506W        W 8387  19.630   2.376  14.380
38507W        W 8388  32.133  12.705   3.676
38508W        W 8389  12.152  41.536   3.666
38509W        W 8390  22.605  35.937  11.449
38510W        W 8391   4.383  32.100  11.120
38511W        W 8392   4.793  34.999   1.755
38512W        W 8393  43.319   3.334  13.482
38513W        W 8394  41.312  28.631   3.252
38514W        W 8395  34.515  29.963   4.178
38515W        W 8396  42.390  34.000  13.376
38516W        W 8397   2.751  24.045  13.030
38517W        W 8398  31.116  32.601  13.368
38518W        W 8399  28.456  30.545  11.572
38519W        W 8400   6.857  41.856  14.852
38520W        W 8401  41.348   1.328   3.724
38521W        W 8402  21.534  32.425   3.635
38522W        W 8403  36.056  18.239  13.501
38523W        W 8404  28.969   7.791   0.404
38524W        W 8405  44.956  43.415  13.334
38525W        W 8406  38.399  17.692   1.354
38526W        W 8407  19.090  33.395  14.306
38527W        W 8408  29.155  18.689   2.852
38528W        W 8409  35.103  35.961  12.875
38529W        W 8410   3.388   4.824  12.985
38530W        W 8411  33.536   3.785   4.151
38531W        W 8412   8.204  33.558  12.958
38532W        W 8413   5.231  38.021  12.513
38533W        W 8414  18.161  44.754   4.222
38534W        W 8415   0.989  34.956  10.105
38535W        W 8416  37.348  41.865   4.737
38536W        W 8417  12.301   8.232  11.538
38537W        W 8418  15.783  13.304   3.202
38538W        W 8419   6.846   2.292   2.346
38539W        W 8420   0.871  35.972  14.427
38540W        W 8421  18.284  34.398   1.835
38541W        W 8422  29.079  31.937   3.710
38542W        W 8423  25.006  10.332  11.981
38543W        W 8424  14.316   1.885  10.960
38544W        W 8425  29.044   1.789  11.388
38545W        W 8426  36.570  38.958   1.806
38546W        W 8427   9.261   1.462  14.818
38547W        W 8428  12.628  33.075   2.299
38548W        W 8429  36.997  33.460   0.731
38549W        W 8430  30.431  30.041  13.492
38550W        W 8431  34.389  37.341  12.067
38551W        W 8432  37.473  18.125  13.857
38552W        W 8433  26.692  16.185  11.609
38553W        W 8434  32.552  35.440  13.846
38554W        W 8435  27.504  23.698   2.821
38555W        W 8436  26.014  29.131  14.453
38556W        W 8437  27.056   9.362   4.837
38557W        W 8438   5.235  30.647   3.782
38558W        W 8439  20.671   2.895  13.427
38559W        W 8440  28.607  10.144  11.438
38560W        W 8441   1.400  34.607   1.292
38561W        W 8442   7.295   2.335   0.896
38562W        W 8443  42.374  22.735   2.349
38563W        W 8444  26.031  20.617  11.036
38564W        W 8445  40.502  41.501  14.883
38565W        W 8446  14.594  12.252  10.461
38566W        W 8447  22.174  41.805  12.370
38567W        W 8448  29.611  29.607  11.571
38568W        W 8449  17.092  15.702   1.918
38569W        W 8450  19.566  20.207  10.441
38570W        W 8451  20.653  21.102   2.721
38571W        W 8452  22.158  26.953  10.436
38572W        W 8453  28.963  17.089  13.025
38573W        W 8454  38.058   9.666   4.626
38574W        W 8455   4.707  33.589   3.672
38575W        W 8456  36.361  43.900   3.704
38576W        W 8457  25.049  12.615   3.270
38577W        W 8458   0.868  18.154  10.066
38578W        W 8459  34.489  39.852  14.847
38579W        W 8460   1.825  31.141   1.856
38580W        W 8461  24.110  22.163   2.333
38581W        W 8462  10.782  26.182   0.252
38582W        W 8463  21.612  24.644  14.949
38583W        W 8464  38.540  39.379   2.765
38584W        W 8465   7.417  31.020  12.510
38585W        W 8466  12.137  30.638  11.887
38586W        W 8467  17.277  29.025   4.662
38587W        W 8468  16.642  15.806  12.069
38588W        W 8469   6.386  39.965   4.320
38589W        W 8470  17.579  34.908  12.861
38590W        W 8471  21.523  29.083  12.501
38591W        W 8472  31.063  29.501  12.086
38592W        W 8473  35.443  35.920   3.819
38593W        W 8474   5.329  22.732   4.690
38594W        W 8475  42.343  13.124  13.847
38595W        W 8476  15.108   4.363  13.348
38596W        W 8477  13.778  11.132   0.855
38597W        W 8478  37.561  11.664  10.970
38598W        W 8479  44.391   4.257   1.284
38599W        W 8480  16.096  13.245  13.945
38600W        W 8481  27.969   2.863  13.927
38601W        W 8482   4.772  20.107   0.266
38602W        W 8483  32.933  17.727   1.230
38603W        W 8484   3.933  15.197  12.556
38604W        W 8485  43.345  37.580   3.861
38605W        W 8486  33.464  43.006  13.887
38606W        W 8487  20.744  21.034  14.340
38607W        W 8488  13.740   8.356  13.023
38608W        W 8489  28.115  40.366  11.025
38609W        W 8490  29.084  36.448  13.840
38610W        W 8491   7.753  27.183   2.680
38611W        W 8492  17.627  22.607   0.905
38612W        W 8493   0.984  41.350   9.984
38613W        W 8494  31.482  12.324  12.361
38614W        W 8495  32.905  27.582   0.320
38615W        W 8496  15.795  40.452  11.962
38616W        W 8497   4.776  26.564   3.222
38617W        W 8498  27.004  37.441  14.450
38618W        W 8499   6.742  43.012   3.636
38619W        W 8500   2.784  24.584   1.862
38620W        W 8501  32.485  39.817   2.369
38621W        W 8502   6.270  39.853   4.683
38622W        W 8503   7.870  41.398   4.741
38623W        W 8504  38.334  29.536   4.674
38624W        W 8505   6.720  26.187   2.392
38625W        W 8506  23.068   1.807   4.153
38626W        W 8507   5.908  13.141  13.385
38627W        W 8508   8.390  40.391  12.021
38628W        W 8509  12.612  44.886  14.970
38629W        W 8510  14.225  34.615   4.173
38630W        W 8511  44.483  13.693   2.245
38631W        W 8512  19.268   1.882   1.398
38632W        W 8513   1.315   7.321   1.711
38633W        W 8514  38.863  34.526   2.194
38634W        W 8515   9.651  43.330   0.914
38635W        W 8516   8.823  39.559   1.432
38636W        W 8517  41.939  44.918   4.182
38637W        W 8518  38.415  38.394   0.759
38638W        W 8519  31.448  41.364  10.590
38639W        W 8520  28.532   2.468   4.171
38640W        W 8521  34.868  20.616   3.733
38641W        W 8522  36.469  32.033  14.480
38642W        W 8523  21.707  32.416  13.914
38643W        W 8524  17.198  24.707  11.457
38644W        W 8525  14.215   7.320  12.933
38645W        W 8526  14.665  21.237  13.022
38646W        W 8527  30.972   7.323   4.723
38647W        W 8528  11.362   2.446  14.898
38648W        W 8529   9.341  21.585  11.563
38649W        W 8530  30.146   1.475   3.867
38650W        W 8531  32.953   7.315  12.022
38651W        W 8532  13.313  17.730  12.566
38652W        W 8533  27.627  39.387   0.412
38653W        W 8534  17.178  28.538  10.526
38654W        W 8535  41.417  28.609  13.951
38655W        W 8536  23.237  13.713   3.279
38656W        W 8537  25.587  42.443  10.908
38657W        W 8538   1.836   2.961   3.319
38658W        W 8539   5.328  17.295   1.451
38659W        W 8540  20.173  39.026   5.244
38660W        W 8541  17.779  23.708   0.482
38661W        W 8542  39.439  35.525   0.734
38662W        W 8543  42.781  17.072   2.777
38663W        W 8544  27.643  42.490  10.491
38664W        W 8545  16.649  26.020  11.517
38665W        W 8546  35.020  36.900   4.786
38666W        W 8547  17.620  13.611   3.202
38667W        W 8548  17.678  31.511  12.501
38668W        W 8549  34.996  37.952   0.341
38669W        W 8550   1.344  40.508   1.697
38670W        W 8551  10.715  27.081  10.486
38671W        W 8552  39.493  25.059  13.528
38672W        W 8553  24.220  40.897   2.737
38673W        W 8554   0.904   3.323  14.337
38674W        W 8555   9.157  29.150   2.385
38675W        W 8556  13.798  16.227   0.447
38676W        W 8557  44.477   6.836  12.502
38677W        W 8558  22.528   7.816   1.305
38678W        W 8559  41.305   0.793  13.910
38679W        W 8560  26.572  37.952   3.685
38680W        W 8561   7.358  23.160  13.388
38681W        W 8562  14.182  17.657   2.887
38682W        W 8563   4.213  21.596  12.974
38683W        W 8564  36.378  33.889   2.380
38684W        W 8565  44.979  20.205  13.022
38685W        W 8566  18.132   1.900  12.865
38686W        W 8567  36.871  16.302   4.812
38687W        W 8568  44.861  31.996   1.275
38688W        W 8569   9.214  20.699  12.019
38689W        W 8570  30.502  35.971  12.566
38690W        W 8571  43.386  25.680  13.417
38691W        W 8572  43.296   8.208  11.006
38692W        W 8573  27.498  26.965   0.270
38693W        W 8574  26.174   5.697   4.651
38694W        W 8575  10.762   3.909   3.306
38695W        W 8576  24.692  19.643   0.449
38696W        W 8577  10.278  36.044  13.935
38697W        W 8578  18.653  20.584  12.003
38698W        W 8579  33.909  36.469   2.764
38699W        W 8580  42.324   1.473  10.997
38700W        W 8581  18.620  11.629  14.921
38701W        W 8582  10.711  30.907   2.187
38702W        W 8583  39.482   6.903  11.872
38703W        W 8584  33.035  39.324   0.416
38704W        W 8585  15.753  22.054  11.916
38705W        W 8586  31.447  43.384   0.884
38706W        W 8587   7.911  42.938   2.303
38707W        W 8588   7.807  27.669   3.677
38708W        W 8589   3.851  44.820   3.345
38709W        W 8590  30.532  12.224   4.274
38710W        W 8591  39.825  41.497  12.844
38711W        W 8592  10.152   4.208   5.306
38712W        W 8593  18.222  37.000   0.339
38713W        W 8594  43.332  33.536  12.404
38714W        W 8595   1.361  11.687  11.431
38715W        W 8596  14.589  37.071  13.944
38716W        W 8597  32.921  33.404  11.405
38717W        W 8598  18.571  27.176   1.795
38718W        W 8599   1.805  10.691  14.806
38719W        W 8600  15.232  41.836   3.262
38720W        W 8601  38.963  26.614  10.904
38721W        W 8602   0.927  43.953   4.184
38722W        W 8603  38.970  14.717   3.776
38723W        W 8604   4.729  38.873   4.829
38724W        W 8605  43.406   5.344   2.295
38725W        W 8606  32.619  38.420  12.826
38726W        W 8607  20.175  24.172  11.397
38727W        W 8608  12.302  22.194  14.010
38728W        W 8609  35.069  25.657   3.305
38729W        W 8610   9.679  12.631  13.970
38730W        W 8611  32.470   6.843   0.430
38731W        W 8612  10.830  40.412  10.989
38732W        W 8613  14.251   3.392   0.288
38733W        W 8614   9.807  17.723   3.698
38734W        W 8615  37.952  41.331   1.722
38735W        W 8616  16.701   0.484  12.529
38736W        W 8617  41.938  14.138   3.304
38737W        W 8618  23.166  38.036  12.397
38738W        W 8619  17.144  25.214   3.183
38739W        W 8620   6.294  16.695  10.511
38740W        W 8621  14.334  24.114  10.539
38741W        W 8622  34.404  28.964   3.750
38742W        W 8623  38.032   8.322   2.846
38743W        W 8624  43.765  11.250  10.928
38744W        W 8625  28.524   0.788  13.508
38745W        W 8626   2.799   1.469  14.994
38746W        W 8627  15.160   5.815  13.063
38747W        W 8628   7.286   7.265  12.563
38748W        W 8629  41.473  22.698   4.319
38749W        W 8630  42.443  38.446  14.888
38750W        W 8631  13.734  28.972   2.357
38751W        W 8632  41.863  24.554  12.490
38752W        W 8633  20.660  17.076  14.936
38753W        W 8634   8.212  17.721   2.270
38754W        W 8635  37.083  40.036   3.712
38755W        W 8636  37.418  30.553  11.456
38756W        W 8637   7.808   5.845  13.365
38757W        W 8638  36.401  18.560  13.529
38758W        W 8639  43.510   9.674  11.013
38759W        W 8640  40.530  34.517  10.073
38760W        W 8641  26.111  31.966  12.489
38761W        W 8642   3.315  32.058  13.453
38762W        W 8643  21.106  37.440   3.653
38763W        W 8644   8.802  12.241  14.874
38764W        W 8645  11.631  23.624   4.634
38765W        W 8646  13.820  24.680   0.854
38766W        W 8647  41.044  23.216  13.359
38767W        W 8648  24.720  16.243  13.543
38768W        W 8649  25.588  36.451   2.685
38769W        W 8650  35.527  14.758   1.309
38770W        W 8651  39.321  23.510   3.150
38771W        W 8652   7.406  11.648  14.990
38772W        W 8653  31.134   8.330   4.308
38773W        W 8654  42.323  32.927  13.857
38774W        W 8655  27.583  37.435   5.166
38775W        W 8656  41.026   5.828  13.911
38776W        W 8657  42.414  26.155   4.138
38777W        W 8658   1.428  17.297   3.716
38778W        W 8659  19.109   4.903   2.746
38779W        W 8660  32.450  16.705  10.073
38780W        W 8661  12.807  27.476  13.898
38781W        W 8662  16.236  11.803  11.613
38782W        W 8663   1.857  10.267   3.343
38783W        W 8664   7.189  43.958  12.937
38784W        W 8665  12.781  16.702  13.419
38785W        W 8666  33.108  11.799   1.395
38786W        W 8667  27.465   6.749   0.944
38787W        W 8668  14.295  27.508  14.009
38788W        W 8669  17.703   6.374   2.317
38789W        W 8670  10.783  35.900   3.186
38790W        W 8671  34.432  36.507  12.558
38791W        W 8672   7.363  28.510   2.797
38792W        W 8673  14.166  31.907   2.736
38793W        W 8674  25.185   7.807   2.336
38794W        W 8675  41.433  13.645  11.596
38795W        W 8676  38.354  44.273  14.843
38796W        W 8677  24.657  19.106   1.827
38797W        W 8678  32.042   7.311  13.526
38798W        W 8679  30.067  18.154  11.456
38799W        W 8680  14.825  31.422   0.755
38800W        W 8681  28.157  31.468  12.400
38801W        W 8682  37.452  32.406  13.398
38802W        W 8683  29.161  18.759  11.028
38803W        W 8684  41.902  31.958   0.808
38804W        W 8685  29.638  40.454   3.375
38805W        W 8686  27.041  26.199   4.173
38806W        W 8687  25.150  41.035   2.892
38807W        W 8688   4.707  32.137  14.299
38808W        W 8689   2.279  17.100  12.026
38809W        W 8690   5.369  36.389   3.279
38810W        W 8691   4.347   2.396   3.660
38811W        W 8692  36.014  10.673   1.888
38812W        W 8693  12.764  30.657  13.049
38813W        W 8694   9.759  43.515  13.873
38814W        W 8695  30.563  22.548  13.040
38815W        W 8696   9.863  16.707   2.669
38816W        W 8697  17.196  19.706   1.351
38817W        W 8698   2.767  42.876   4.196
38818W        W 8699  12.186  31.545   2.705
38819W        W 8700  12.149  31.073  11.107
38820W        W 8701  22.706  24.675   3.735
38821W        W 8702  12.165  41.976  14.882
38822W        W 8703  44.935  37.831   3.778
38823W        W 8704  25.685  34.493  10.041
38824W        W 8705  20.067  44.270   0.289
38825W        W 8706  26.162  21.702  14.867
38826W        W 8707  29.628   9.289   0.382
38827W        W 8708  20.544  38.374   1.905
38828W        W 8709   7.234  44.302  10.963
38829W        W 8710  39.872   1.239   3.653
38830W        W 8711  14.766  38.342  13.796
38831W        W 8712  41.531  42.347  14.926
38832W        W 8713   6.826  33.100   1.890
38833W        W 8714  41.491  29.933   0.843
38834W        W 8715  22.095  39.411  11.086
38835W        W 8716  39.936  20.107   4.260
38836W        W 8717  11.359  42.302  12.496
38837W        W 8718  10.832  24.592   2.272
38838W        W 8719  36.493  35.522   1.911
38839W        W 8720  33.086  31.910  12.905
38840W        W 8721  27.496  14.791  13.352
38841W        W 8722   0.827  18.565  14.330
38842W        W 8723  13.148   7.905  14.934
38843W        W 8724  35.574  37.358   2.271
38844W        W 8725   8.204  27.470   4.690
38845W        W 8726  17.290  41.421  13.872
38846W        W 8727   7.778  10.878  13.973
38847W        W 8728  36.063  28.619   3.354
38848W        W 8729  13.833  27.090  14.899
38849W        W 8730  43.427  16.620   2.258
38850W        W 8731  38.869  44.958   4.698
38851W        W 8732   5.315  34.450   1.883
38852W        W 8733  11.210  24.195   2.232
38853W        W 8734  27.505   8.377   2.890
38854W        W 8735   1.869   8.655  12.905
38855W        W 8736  13.279   2.807   0.860
38856W        W 8737  28.528   4.931  12.838
38857W        W 8738  32.632  11.688  13.406
38858W        W 8739  11.707  20.679   2.273
38859W        W 8740  31.546   3.408  14.442
38860W        W 8741  15.689   3.349   1.744
38861W        W 8742  19.178  40.007   2.721
38862W        W 8743   7.828  27.003  13.911
38863W        W 8744   6.728  21.567   3.797
38864W        W 8745  27.150  39.543   3.199
38865W        W 8746  40.366  12.259  13.524
38866W        W 8747  34.000   1.465   2.260
38867W        W 8748   8.823  39.355   0.805
38868W        W 8749   6.416  28.441   3.216
38869W        W 8750  26.052   8.349  13.817
38870W        W 8751  33.462  32.891  14.946
38871W        W 8752  22.663  25.116   1.806
38872W        W 8753   0.492  36.436  12.562
38873W        W 8754  37.419  20.183   1.233
38874W        W 8755  18.243  35.516  13.480
38875W        W 8756  39.837   0.250  14.823
38876W        W 8757  36.843  40.943   4.614
38877W        W 8758  42.023  44.462   2.716
38878W        W 8759  20.242  38.849  11.462
38879W        W 8760  11.694  16.622   2.867
38880W        W 8761  40.894  10.352  13.976
38881W        W 8762  34.071  21.733  14.503
38882W        W 8763  17.156  11.803  10.478
38883W        W 8764  19.588   6.704   0.316
38884W        W 8765  18.602   2.319  14.430
38885W        W 8766  40.350  12.629   0.267
38886W        W 8767  12.211  27.538  13.039
38887W        W 8768  32.069  42.362  14.004
38888W        W 8769  20.052  25.525  12.532
38889W        W 8770   8.862   2.333  12.083
38890W        W 8771  31.637   7.699   2.188
38891W        W 8772   5.259  34.026   4.784
38892W        W 8773  13.242  28.153  11.997
38893W        W 8774  18.720  33.604   4.789
38894W        W 8775   6.842  36.992   3.162
38895W        W 8776   0.963  36.025  13.957
38896W        W 8777  19.665  30.507   4.131
38897W        W 8778  23.541   5.269   4.646
38898W        W 8779   7.274  35.462   3.837
38899W        W 8780  27.671  38.445   2.718
38900W        W 8781  21.536  36.921  12.968
38901W        W 8782  35.400  14.140   0.801
38902W        W 8783  38.937  25.088  10.640
38903W        W 8784   3.746  30.985  11.960
38904W        W 8785  22.718  18.245  14.997
38905W        W 8786  22.240   8.305   4.345
38906W        W 8787  14.255  20.574   1.819
38907W        W 8788  29.613  14.339  13.860
38908W        W 8789   0.915  23.725   9.998
38909W        W 8790   7.844  12.728   2.768
38910W        W 8791  31.622   4.871   1.444
38911W        W 8792  23.096  35.535  14.453
38912W        W 8793  18.705  41.903   5.133
38913W        W 8794   5.736  23.204  13.901
38914W        W 8795  30.062  27.668  11.114
38915W        W 8796  39.813  33.513  10.927
38916W        W 8797   0.383  26.136  10.947
38917W        W 8798  37.453  43.839  10.925
38918W        W 8799  39.358   1.461   2.739
38919W        W 8800   9.783  44.816   4.287
38920W        W 8801   9.287  27.534  14.778
38921W        W 8802  29.667  20.059  11.534
38922W        W 8803  26.022  35.021  11.517
38923W        W 8804  27.106   4.781   2.736
38924W        W 8805  21.246  30.000   2.214
38925W        W 8806  37.357   5.410   0.731
38926W        W 8807  38.988  39.379  12.019
38927W        W 8808  11.215  31.036   4.307
38928W        W 8809  21.096  39.952  10.083
38929W        W 8810  12.339  26.116   4.330
38930W        W 8811  34.542   0.942   0.882
38931W        W 8812  25.638  17.277   0.850
38932W        W 8813  20.746  26.980   3.200
38933W        W 8814  33.028  24.625   3.748
38934W        W 8815  11.709  17.265  14.019
38935W        W 8816  34.902  14.752  12.059
38936W        W 8817  36.525  28.656  12.497
38937W        W 8818  39.354  36.852  12.926
38938W        W 8819  11.346  17.723  14.361
38939W        W 8820  35.451  22.176  14.826
38940W        W 8821  31.138  39.007  14.948
38941W        W 8822   4.908   4.699  14.884
38942W        W 8823  39.535  16.138   1.397
38943W        W 8824  24.529  39.970  13.469
38944W        W 8825  20.694  42.921  14.993
38945W        W 8826  15.099   4.289   4.715
38946W        W 8827  22.570  30.482   0.835
38947W        W 8828  12.856   2.231  13.436
38948W        W 8829   9.783  32.077   0.386
38949W        W 8830  20.217  20.678   0.394
38950W        W 8831  25.694   8.691   0.419
38951W        W 8832  10.660  13.142   1.221
38952W        W 8833  33.130  23.642   1.864
38953W        W 8834  40.343  31.522   3.238
38954W        W 8835  39.529  13.185   0.326
38955W        W 8836  40.482   2.444  12.947
38956W        W 8837  38.036  34.891   2.662
38957W        W 8838  19.708   0.393  12.968
38958W        W 8839  21.110  37.357  12.951
38959W        W 8840   9.184  20.745   4.758
38960W        W 8841   4.815  28.484  13.048
38961W        W 8842  19.743   5.727   1.394
38962W        W 8843  41.339  43.800  10.906
38963W        W 8844  30.007  23.731  11.554
38964W        W 8845  16.804  33.084  11.581
38965W        W 8846  23.657  24.489  11.394
38966W        W 8847  13.120  35.378  10.925
38967W        W 8848  18.710  17.082  10.997
38968W        W 8849   4.830   3.335  14.943
38969W        W 8850  22.036  10.758   3.306
38970W        W 8851  13.653  31.555  12.466
38971W        W 8852  44.331  40.053  10.121
38972W        W 8853  35.094  44.315  14.475
38973W        W 8854  29.488  28.467  13.462
38974W        W 8855  34.943   1.812   9.928
38975W        W 8856  15.696  18.220   4.267
38976W        W 8857  20.154  15.732  11.888
38977W        W 8858   9.370  28.061  10.483
38978W        W 8859  39.391  16.133   3.272
38979W        W 8860  20.237  33.006  12.538
38980W        W 8861  21.519   1.928   0.926
38981W        W 8862  10.688  15.099  11.512
38982W        W 8863   9.883   5.193  14.936
38983W        W 8864  15.294  32.528  10.893
38984W        W 8865  33.470  10.205  14.431
38985W        W 8866   8.686  17.121   4.787
38986W        W 8867  28.541  43.821  13.856
38987W        W 8868   0.290  43.816   1.783
38988W        W 8869  41.860  25.474  10.621
38989W        W 8870  24.647  29.604   1.345
38990W        W 8871  33.595   7.180  14.764
38991W        W 8872  13.242  12.768  12.426
38992W        W 8873  24.069  36.053   3.224
38993W        W 8874  21.213  14.226   1.697
38994W        W 8875  35.505  28.669   0.742
38995W        W 8876  22.143  17.128   4.229
38996W        W 8877   0.819  35.875  13.482
38997W        W 8878   0.778  18.227   1.819
38998W        W 8879  17.578   5.389  13.482
38999W        W 8880  12.810   6.916   3.845
39000W        W 8881  14.768   9.370  14.875
39001W        W 8882  17.646  29.993   2.690
39002W        W 8883  10.635  37.058   3.312
39003W        W 8884  16.240  30.070   0.750
39004W        W 8885   1.821   2.422  11.411
39005W        W 8886  12.826  38.065   2.398
39006W        W 8887  30.605  42.391  10.917
39007W        W 8888  44.481   7.377   0.778
39008W        W 8889   1.829  34.872   1.918
39009W        W 8890   3.726  37.966   1.336
39010W        W 8891  36.879   3.897   4.633
39011W        W 8892  21.590  40.020   3.194
39012W        W 8893  39.998  33.594   1.291
39013W        W 8894  20.051   0.800  12.523
39014W        W 8895  11.191  31.518  10.410
39015W        W 8896  35.009  25.219  14.889
39016W        W 8897  19.207  36.350  14.485
39017W        W 8898   2.438   6.332  14.464
39018W        W 8899   8.341  15.303  12.559
39019W        W 8900   3.896  39.017  14.953
39020W        W 8901  32.516  21.551  12.498
39021W        W 8902  18.150  34.960   0.290
39022W        W 8903  31.602  28.453  13.390
39023W        W 8904   5.294  29.103   2.335
39024W        W 8905  15.678  28.047  13.429
39025W        W 8906   7.395  43.456  14.295
39026W        W 8907  38.029  18.061  14.971
39027W        W 8908   5.884  33.040  10.609
39028W        W 8909  26.479  30.532   4.600
39029W        W 8910  10.735   5.825  13.056
39030W        W 8911  21.572   7.723   3.844
39031W        W 8912  25.118  36.475   3.752
39032W        W 8913  29.526  34.393  14.769
39033W        W 8914  18.076   4.715   0.806
39034W        W 8915  20.587  42.786   1.740
39035W        W 8916  30.044   8.795   4.320
39036W        W 8917  13.195  16.603   3.820
39037W        W 8918   9.744  37.004   2.207
39038W        W 8919   0.410  13.797   3.162
39039W        W 8920  11.731  41.884  13.314
39040W        W 8921  20.637  12.739  14.510
39041W        W 8922   7.681  22.551  14.500
39042W        W 8923  43.345   7.849  14.475
39043W        W 8924   5.250  25.005  14.363
39044W        W 8925  44.828  23.161   3.660
39045W        W 8926  38.931  17.748   4.292
39046W        W 8927  14.217   7.295  10.455
39047W        W 8928  39.528  27.042  11.865
39048W        W 8929   6.416  22.166  12.351
39049W        W 8930  17.725  31.625  13.401
39050W        W 8931  13.259  36.978  11.575
39051W        W 8932  37.927  13.252  14.942
39052W        W 8933   3.902  31.076   2.687
39053W        W 8934  40.910  38.821  10.519
39054W        W 8935  28.553  19.598   4.829
39055W        W 8936  44.943   9.266   2.303
39056W        W 8937  20.084  32.504  11.537
39057W        W 8938  42.329  36.874  14.465
39058W        W 8939  11.259  18.755  11.123
39059W        W 8940   5.271   4.855   4.723
39060W        W 8941  23.565  31.108  12.039
39061W        W 8942  14.622  30.163   3.781
39062W        W 8943  20.648  24.491  14.013
39063W        W 8944  25.677  31.537   1.411
39064W        W 8945   5.274  32.916  13.907
39065W        W 8946  43.853   0.810   2.785
39066W        W 8947   1.898  37.471   3.344
39067W        W 8948  15.763  40.915  13.978
39068W        W 8949  21.537  13.728  13.428
39069W        W 8950   9.646  26.129  13.512
39070W        W 8951  15.579  37.013   1.447
39071W        W 8952   9.381   1.260   4.205
39072W        W 8953  24.045  37.903   4.345
39073W        W 8954   3.312  26.620   0.471
39074W        W 8955  40.371  42.438   1.895
39075W        W 8956  19.687  10.840   1.212
39076W        W 8957  29.940   9.883   3.670
39077W        W 8958  18.573  30.632   3.746
39078W        W 8959  19.140  21.710  11.607
39079W        W 8960  18.238  19.241   1.791
39080W        W 8961  18.158  12.736  14.496
39081W        W 8962  38.986  24.609   4.269
39082W        W 8963  33.120  31.408  14.821
39083W        W 8964  40.921  42.303   4.604
39084W        W 8965  35.431   2.320  14.491
39085W        W 8966  19.129  10.212   4.296
39086W        W 8967  17.646  38.564   1.713
39087W        W 8968   9.718   9.648   0.437
39088W        W 8969   7.823  25.543  14.483
39089W        W 8970  21.551  11.778  11.031
39090W        W 8971  40.002  10.365  13.840
39091W        W 8972  29.596   2.784  13.793
39092W        W 8973  27.552  29.627  11.385
39093W        W 8974  30.494  35.045  12.858
39094W        W 8975   9.320  13.340   1.782
39095W        W 8976  11.264  20.660  11.020
39096W        W 8977  34.563  27.138  14.509
39097W        W 8978  41.935   0.846  14.963
39098W        W 8979  30.157  18.111   0.953
39099W        W 8980  32.106   2.804   0.267
39100W        W 8981  33.526   2.413   2.874
39101W        W 8982  39.426   5.324  12.835
39102W        W 8983  27.192  29.531  14.801
39103W        W 8984  38.910  13.819   2.249
39104W        W 8985  11.318  16.655  14.008
39105W        W 8986  28.660   4.802  13.802
39106W        W 8987  25.146  27.451  14.764
39107W        W 8988  35.552  42.983   0.265
39108W        W 8989  19.137  20.642   4.831
39109W        W 8990  34.930  39.993  14.477
39110W        W 8991  21.652  12.133   0.750
39111W        W 8992  36.495  39.501   3.717
39112W        W 8993  37.982  10.291   4.239
39113W        W 8994  20.525  24.104   4.838
39114W        W 8995  33.405  31.143   4.214
39115W        W 8996  28.559  36.992  10.457
39116W        W 8997   8.787  38.993   0.432
39117W        W 8998  25.998   5.895  12.409
39118W        W 8999  10.635  30.148   3.675
39119W        W 9000  13.706  33.109  14.004
39120W        W 9001  31.407  13.110   4.824
39121W        W 9002  37.832  25.129  11.859
39122W        W 9003  44.463  39.004  10.541
39123W        W 9004  27.189  25.480   4.229
39124W        W 9005   0.851   6.195   1.774
39125W        W 9006  41.442  15.152  14.953
39126W        W 9007  37.987  16.695  14.296
39127W        W 9008   3.289  39.049   3.337
39128W        W 9009  38.898   5.438   3.679
39129W        W 9010  27.562  13.289  11.474
39130W        W 9011  37.066   4.431   1.214
39131W        W 9012  44.273  32.401  11.439
39132W        W 9013  34.891  10.385   5.270
39133W        W 9014  23.039  16.301  10.091
39134W        W 9015  13.778  27.954   2.717
39135W        W 9016  17.290   5.204  12.866
39136W        W 9017  25.614  38.408  13.371
39137W        W 9018  31.583  27.691   0.957
39138W        W 9019  41.363  31.005   4.299
39139W        W 9020  24.060   4.910  11.882
39140W        W 9021  12.815  40.992   4.616
39141W        W 9022  37.528  16.588   4.193
39142W        W 9023   6.897  13.710   2.811
39143W        W 9024  41.469  42.783   0.774
39144W        W 9025  24.115  36.977  11.602
39145W        W 9026  17.788  38.015  11.492
39146W        W 9027  26.634  40.479   1.725
39147W        W 9028   1.447   2.768  14.977
39148W        W 9029  29.667  25.169   0.959
39149W        W 9030  40.440  11.324  10.952
39150W        W 9031  22.159  39.989   3.722
39151W        W 9032  31.558  32.057   1.710
39152W        W 9033  33.513  28.992   2.218
39153W        W 9034  15.204  18.106   4.755
39154W        W 9035  18.551  27.170  11.918
39155W        W 9036   9.156  40.996  14.894
39156W        W 9037  20.131  23.732   3.660
39157W        W 9038  14.791  33.974  12.834
39158W        W 9039  31.043   4.874  12.983
39159W        W 9040  33.455  20.732  13.523
39160W        W 9041   6.271  26.606  11.047
39161W        W 9042  26.512  41.918  12.360
39162W        W 9043  41.968  33.030  11.102
39163W        W 9044  30.604   8.229   5.594
39164W        W 9045  27.529  37.348   3.304
39165W        W 9046   3.717  36.412   4.811
39166W        W 9047  26.204  34.411  10.640
39167W        W 9048  40.370  22.541   3.365
39168W        W 9049  29.614  15.305   2.836
39169W        W 9050  32.957   1.757   4.344
39170W        W 9051  17.772  38.568   3.355
39171W        W 9052  21.196  40.548   1.212
39172W        W 9053  12.723  23.715   4.245
39173W        W 9054   0.460  15.693  14.931
39174W        W 9055  11.712   5.429  13.023
39175W        W 9056  13.604  42.364   0.806
39176W        W 9057  34.478  36.470  14.408
39177W        W 9058  12.722   2.429  13.022
39178W        W 9059  18.593  22.175   1.228
39179W        W 9060  29.008  39.034   3.147
39180W        W 9061   8.719  17.760   3.848
39181W        W 9062   8.784  31.409   1.265
39182W        W 9063  27.157  42.813  14.895
39183W        W 9064  19.685  11.695   0.897
39184W        W 9065  30.158  13.305  10.897
39185W        W 9066  44.495  42.876  10.096
39186W        W 9067   3.885  18.607   3.803
39187W        W 9068  34.076  15.693   2.301
39188W        W 9069  20.647   2.925   3.235
39189W        W 9070  19.641  23.539   3.631
39190W        W 9071  26.506  27.973  13.061
39191W        W 9072  17.265   7.286   4.163
39192W        W 9073  18.218   3.414  13.793
39193W        W 9074  11.759  10.739   2.228
39194W        W 9075  29.003  37.867  12.552
39195W        W 9076  32.133   4.304   0.829
39196W        W 9077  27.941  26.643   4.296
39197W        W 9078  28.144  16.248   0.746
39198W        W 9079  24.555  23.728  13.916
39199W        W 9080  20.161  33.623  11.907
39200W        W 9081  41.812   8.278  13.935
39201W        W 9082  19.146   7.306  14.433
39202W        W 9083  25.673  27.581  10.442
39203W        W 9084   1.872  30.589   0.857
39204W        W 9085  29.004  13.715  13.803
39205W        W 9086  39.017  30.116  13.944
39206W        W 9087   4.725   3.232  12.542
39207W        W 9088   1.374   7.885   0.760
39208W        W 9089  28.454   0.397  13.423
39209W        W 9090  14.711  32.905   1.346
39210W        W 9091  38.038  26.204   0.268
39211W        W 9092  19.224   1.788   3.634
39212W        W 9093  34.590  22.616   3.793
39213W        W 9094  26.688  14.774  14.819
39214W        W 9095  17.626   4.431  13.345
39215W        W 9096   4.413  42.497  13.409
39216W        W 9097  21.230  27.077  11.062
39217W        W 9098  14.624  42.894  14.278
39218W        W 9099  24.173   6.843  12.341
39219W        W 9100   0.272  20.642   3.298
39220W        W 9101  28.059  31.489  11.381
39221W        W 9102  38.491   4.859  10.902
39222W        W 9103   2.853  10.254   1.798
39223W        W 9104  19.588  23.117  11.383
39224W        W 9105  36.931  19.121   0.270
39225W        W 9106   3.369  39.975  14.803
39226W        W 9107  28.546  39.522  11.987
39227W        W 9108  21.236  19.678   4.235
39228W        W 9109   3.742   4.910  10.509
39229W        W 9110  11.722  10.306  11.531
39230W        W 9111  30.554  16.234   0.287
39231W        W 9112  25.626  28.586   0.796
39232W        W 9113  14.619  42.852   3.772
39233W        W 9114  12.667  36.866   2.732
39234W        W 9115  28.026   3.795   1.771
39235W        W 9116  29.563  14.309  14.417
39236W        W 9117  33.081  37.403   4.215
39237W        W 9118  44.445  21.525  13.862
39238W        W 9119  16.656   3.939  12.552
39239W        W 9120  15.259   3.737  11.088
39240W        W 9121  31.988  21.637   1.860
39241W        W 9122  14.224  22.740   2.784
39242W        W 9123  30.907   4.327   3.773
39243W        W 9124  22.518  32.109   5.305
39244W        W 9125  41.837  36.079   2.751
39245W        W 9126   7.300  13.605  14.368
39246W        W 9127   8.669  23.042   1.775
39247W        W 9128  28.602  25.514   1.918
39248W        W 9129  13.790  19.203  11.498
39249W        W 9130  38.356  18.753   1.750
39250W        W 9131  39.958   8.678   3.319
39251W        W 9132  17.746   5.922  14.499
39252W        W 9133  41.007  26.012  12.484
39253W        W 9134  12.183  36.516   0.948
39254W        W 9135  42.836  22.522  11.533
39255W        W 9136  33.009  19.621  11.495
39256W        W 9137  39.447  20.637  10.976
39257W        W 9138  18.576  34.461   2.303
39258W        W 9139  18.582  21.030  11.123
39259W        W 9140  29.628   9.835   1.839
39260W        W 9141  34.105   7.257  10.601
39261W        W 9142   4.315  39.377   4.769
39262W        W 9143   9.219  39.994   3.667
39263W        W 9144  17.644  23.997   1.250
39264W        W 9145  17.144  37.885  14.508
39265W        W 9146   0.314  35.544  10.461
39266W        W 9147  44.927  32.411  12.484
39267W        W 9148  16.690  24.065   2.760
39268W        W 9149  29.112  18.050   2.349
39269W        W 9150  20.247   9.286  11.433
39270W        W 9151  22.096   7.400   1.287
39271W        W 9152  32.969  43.802  11.981
39272W        W 9153  34.052  39.505   2.391
39273W        W 9154  31.951  35.430  10.995
39274W        W 9155  19.675  44.349   2.278
39275W        W 9156  39.394   6.272  12.837
39276W        W 9157  20.531  40.875  12.521
39277W        W 9158  34.421   0.885  12.944
39278W        W 9159   0.896  20.634   0.374
39279W        W 9160  38.329  27.158   1.783
39280W        W 9161   0.907  26.042  12.564
39281W        W 9162  12.778  37.023   4.713
39282W        W 9163  36.445   3.842   0.786
39283W        W 9164  44.352   7.830   9.926
39284W        W 9165  13.334  28.606  13.022
39285W        W 9166  27.039  41.371  11.106
39286W        W 9167   4.312   5.206   1.345
39287W        W 9168  18.571  18.744   3.833
39288W        W 9169   1.770  40.544   3.228
39289W        W 9170   3.258  12.808  12.865
39290W        W 9171  41.879  19.739  14.795
39291W        W 9172  40.366  39.870  12.565
39292W        W 9173  13.719  43.469  12.889
39293W        W 9174  32.120  28.566   4.606
39294W        W 9175  14.330   7.826  14.925
39295W        W 9176  30.540  29.974   1.219
39296W        W 9177   4.297  14.310  13.353
39297W        W 9178  41.537  29.123   3.657
39298W        W 9179  31.430   7.782  10.642
39299W        W 9180  33.420  11.753   1.229
39300W        W 9181   1.852  32.550  11.390
39301W        W 9182   2.461  30.952   3.705
39302W        W 9183   3.945  29.526   1.403
39303W        W 9184  20.648  17.124  12.018
39304W        W 9185   8.406  41.325  14.761
39305W        W 9186  17.620  38.515   4.325
39306W        W 9187  22.009  18.684   0.938
39307W        W 9188  41.498   5.437  13.455
39308W        W 9189   7.184   4.930   4.291
39309W        W 9190  43.300  20.200   3.270
39310W        W 9191  35.595  12.254   4.224
39311W        W 9192  26.159  10.175   3.834
39312W        W 9193   5.439  18.089   3.856
39313W        W 9194  41.435  37.341   3.278
39314W        W 9195  16.669  30.645   3.722
39315W        W 9196  25.097   9.335   1.380
39316W        W 9197  38.495  12.741  12.073
39317W        W 9198  25.681   6.316  12.871
39318W        W 9199  32.027  26.157  14.982
39319W        W 9200  18.739  19.184   2.733
39320W        W 9201   6.694   7.708  10.614
39321W        W 9202  41.906  15.316   4.117
39322W        W 9203  14.749   0.797   1.293
39323W        W 9204   9.778  36.011  10.935
39324W        W 9205  25.052  12.352  10.990
39325W        W 9206   6.320  34.539   1.297
39326W        W 9207  19.680   4.705  11.905
39327W        W 9208  14.657   3.759  10.598
39328W        W 9209  41.319  42.316   2.715
39329W        W 9210  33.496   1.392   0.836
39330W        W 9211  16.578  32.967  10.463
39331W        W 9212   5.748   3.828  13.948
39332W        W 9213  36.465   5.243  14.966
39333W        W 9214  22.086   9.657  13.336
39334W        W 9215  12.202  26.004  11.453
39335W        W 9216  14.261  25.190  10.475
39336W        W 9217  10.174  17.752   3.354
39337W        W 9218  43.940   1.889   3.646
39338W        W 9219  15.121   5.277  11.545
39339W        W 9220  30.125   1.933   3.794
39340W        W 9221  17.063  43.433   1.356
39341W        W 9222  25.982  33.116  14.395
39342W        W 9223  28.935  31.426   2.829
39343W        W 9224  10.867  41.383  11.494
39344W        W 9225  41.881   9.193   4.635
39345W        W 9226  11.355  41.532   1.365
39346W        W 9227   6.814  15.189  11.872
39347W        W 9228  42.523  18.230  10.616
39348W        W 9229   9.869   8.738  13.968
39349W        W 9230  32.935  38.872  14.311
39350W        W 9231  40.937  21.556  13.881
39351W        W 9232  37.058  39.040   0.463
39352W        W 9233  33.961  35.456   2.759
39353W        W 9234  20.034  35.463   1.743
39354W        W 9235  28.121   3.264   4.115
39355W        W 9236  22.198  29.030   3.379
39356W        W 9237  44.959  36.431   2.418
39357W        W 9238  42.355  25.525  10.895
39358W        W 9239  38.875   3.791  10.471
39359W        W 9240  40.974   2.798   2.271
39360W        W 9241  33.593   2.343  14.882
39361W        W 9242  37.420  19.739   0.864
39362W        W 9243   1.772  40.008  10.568
39363W        W 9244  35.104  28.613   3.757
39364W        W 9245  25.142  29.525   5.107
39365W        W 9246  10.785  33.027   0.842
39366W        W 9247   2.920   7.245   0.286
39367W        W 9248  28.645  38.960  13.308
39368W        W 9249  19.655  18.112   2.856
39369W        W 9250  17.270  27.150   2.735
39370W        W 9251  36.477  31.050   1.309
39371W        W 9252  41.517  16.797  12.044
39372W        W 9253  16.158  44.295  11.546
39373W        W 9254  27.456  33.895  13.044
39374W        W 9255  43.920  35.581  11.539
39375W        W 9256  27.671   3.253   3.308
39376W        W 9257  30.996  26.029   0.365
39377W        W 9258  16.222   8.663   0.411
39378W        W 9259  28.457   7.668  10.942
39379W        W 9260  43.418  17.100  13.063
39380W        W 9261  15.765   3.712  10.982
39381W        W 9262  28.978  38.001   2.886
39382W        W 9263  13.210  11.648  12.903
39383W        W 9264  32.458  33.510  14.330
39384W        W 9265   0.904   7.266  11.498
39385W        W 9266  13.338  19.548   4.141
39386W        W 9267  22.076   7.848   1.362
39387W        W 9268   6.412  36.488   3.148
39388W        W 9269  35.856  25.985   0.350
39389W        W 9270  16.310  18.780   2.242
39390W        W 9271  31.039  20.145  14.307
39391W        W 9272  10.155   1.403   1.292
39392W        W 9273   6.838  39.985   0.324
39393W        W 9274  40.335  37.416   2.398
39394W        W 9275  43.818  30.989   1.805
39395W        W 9276  36.503  38.464   0.256
39396W        W 9277  32.614  33.474   4.260
39397W        W 9278   3.771  16.597  10.471
39398W        W 9279  41.342  26.172  12.530
39399W        W 9280  40.339  42.002  13.446
39400W        W 9281  18.577  43.280   0.290
39401W        W 9282  14.631  28.026   2.334
39402W        W 9283  38.424   2.368   0.423
39403W        W 9284  22.137  29.515   3.840
39404W        W 9285  13.756  12.155   1.247
39405W        W 9286   3.821  36.423  13.332
39406W        W 9287  36.876  10.790  11.605
39407W        W 9288   0.752  10.226  12.869
39408W        W 9289  32.501  41.530   0.964
39409W        W 9290  43.429  17.081   4.675
39410W        W 9291  18.659  36.095   0.460
39411W        W 9292  19.728  24.049   0.905
39412W        W 9293   4.786  40.802   1.932
39413W        W 9294  25.503  38.000   1.828
39414W        W 9295   3.293   2.911  10.493
39415W        W 9296  43.922  13.291  12.049
39416W        W 9297  20.708  31.639  14.903
39417W        W 9298   6.372  42.991   4.335
39418W        W 9299  24.038   1.444  10.592
39419W        W 9300  10.190  19.701  10.101
39420W        W 9301  20.546  43.845   3.181
39421W        W 9302  32.592  17.789  11.612
39422W        W 9303  40.803  36.087   2.399
39423W        W 9304  17.244  32.404  14.509
39424W        W 9305  23.574  10.781  13.055
39425W        W 9306  16.735  12.616   0.462
39426W        W 9307  32.604  29.033  11.124
39427W        W 9308  22.617  16.181   4.344
39428W        W 9309  27.547  27.446  14.339
39429W        W 9310  38.400  31.440   1.890
39430W        W 9311  13.724  20.059  13.887
39431W        W 9312  27.054  21.533  10.926
39432W        W 9313  37.903  44.822  11.505
39433W        W 9314   4.221  41.889  10.588
39434W        W 9315   7.817  32.918   2.693
39435W        W 9316  40.371  14.759  13.485
39436W        W 9317  17.132  14.602   4.832
39437W        W 9318  16.088  26.595   3.682
39438W        W 9319  44.475  30.019  14.021
39439W        W 9320  15.105  22.619   2.767
39440W        W 9321  31.411  42.882  11.474
39441W        W 9322  20.689  43.940  13.031
39442W        W 9323  20.623  20.267  11.380
39443W        W 9324  39.003  30.647  13.985
39444W        W 9325  15.245  32.616   4.653
39445W        W 9326  37.923  31.483   0.849
39446W        W 9327  25.536  27.020   1.401
39447W        W 9328   3.390   5.348   2.372
39448W        W 9329  16.609  18.583  13.922
39449W        W 9330   0.357   9.337   0.441
39450W        W 9331  43.844  22.129  13.951
39451W        W 9332  19.679  27.089   1.443
39452W        W 9333  43.309   7.736   2.687
39453W        W 9334   7.289  12.852   2.349
39454W        W 9335  10.675  21.684  12.512
39455W        W 9336  34.501  39.364   2.876
39456W        W 9337  27.475   6.418   0.477
39457W        W 9338  11.868  36.068  10.473
39458W        W 9339  40.000  40.441  12.951
39459W        W 9340  37.397  17.169  12.517
39460W        W 9341  15.767   2.285   3.154
39461W        W 9342  37.576  10.835   2.676
39462W        W 9343  11.648   3.284   4.833
39463W        W 9344  33.535  13.619   1.783
39464W        W 9345  40.431  33.002  10.473
39465W        W 9346  16.766  36.979  10.628
39466W        W 9347  34.537  20.549  12.000
39467W        W 9348  39.906   4.730  11.873
39468W        W 9349  13.256  18.211  12.058
39469W        W 9350   7.873  22.737   4.603
39470W        W 9351   4.398  27.186   1.378
39471W        W 9352  22.746   0.337  13.951
39472W        W 9353  25.547   8.802   1.701
39473W        W 9354   0.401  40.369   1.398
39474W        W 9355   9.306  20.563   0.357
39475W        W 9356  24.015  34.389  14.014
39476W        W 9357  33.433  33.515   2.750
39477W        W 9358   5.832  27.670  10.528
39478W        W 9359  33.920  38.515   0.248
39479W        W 9360  37.036  39.914   4.220
39480W        W 9361  27.608  10.865  13.514
39481W        W 9362   9.762  27.456   2.693
39482W        W 9363  40.980  14.335   1.294
39483W        W 9364  33.891  23.686   0.783
39484W        W 9365  27.129  18.702   2.241
39485W        W 9366  23.993  19.042   0.839
39486W        W 9367  43.421  33.064  14.022
39487W        W 9368  36.951  13.730   1.316
39488W        W 9369  21.663   5.752  12.884
39489W        W 9370   8.218   8.896  12.511
39490W        W 9371  19.102  20.034  11.915
39491W        W 9372  27.524  26.529  13.942
39492W        W 9373  35.000  22.070   3.297
39493W        W 9374  44.827  27.104   1.766
39494W        W 9375  11.804   3.250  13.919
39495W        W 9376  26.652   2.886  12.063
39496W        W 9377  14.207  41.390  13.997
39497W        W 9378  28.008  11.825   1.353
39498W        W 9379  23.671  18.275  10.945
39499W        W 9380  13.171  42.496  11.034
39500W        W 9381  34.060  44.483   2.769
39501W        W 9382  27.062  24.226  11.495
39502W        W 9383  19.640   6.182  10.420
39503W        W 9384  33.024   6.905  11.513
39504W        W 9385  16.135  21.612   1.876
39505W        W 9386  13.656  33.568  14.486
39506W        W 9387   3.344  33.945  11.999
39507W        W 9388  10.322  34.376  13.851
39508W        W 9389   9.381   0.388  12.033
39509W        W 9390  18.118  23.125  12.977
39510W        W 9391  13.705  39.419   9.577
39511W        W 9392  24.679   6.683  11.071
39512W        W 9393  39.340  15.602   4.155
39513W        W 9394  30.144  13.830  12.523
39514W        W 9395  31.046   6.873   0.455
39515W        W 9396  33.498  25.660   0.879
39516W        W 9397   5.870  18.727   2.295
39517W        W 9398  28.514  32.897  10.434
39518W        W 9399  37.869   9.713  10.898
39519W        W 9400  29.064   4.410   3.151
39520W        W 9401   8.169  39.941  14.004
39521W        W 9402  36.046  24.120  13.327
39522W        W 9403   2.242  29.176   2.394
39523W        W 9404  34.898   5.361  12.450
39524W        W 9405  20.708  35.426  13.062
39525W        W 9406  18.572  25.968   4.318
39526W        W 9407   3.447  28.450  10.982
39527W        W 9408  15.089  13.641  12.448
39528W        W 9409   4.397  30.413   4.255
39529W        W 9410  40.816  25.593  10.573
39530W        W 9411  38.346  37.578   1.241
39531W        W 9412  26.085  39.320   3.227
39532W        W 9413  10.195  41.826   4.720
39533W        W 9414  31.964  25.177   0.942
39534W        W 9415  30.526  38.049   1.804
39535W        W 9416  43.472   3.418  14.894
39536W        W 9417   8.757  36.026   0.879
39537W        W 9418   9.199  20.738  12.857
39538W        W 9419  22.064  11.788   3.251
39539W        W 9420  13.317  26.082   4.751
39540W        W 9421  37.977  24.133   4.144
39541W        W 9422  18.122  26.122   1.727
39542W        W 9423   8.318  41.489   3.725
39543W        W 9424   7.869  20.080   1.730
39544W        W 9425  22.038  17.563   4.251
39545W        W 9426  33.110   9.711  11.428
39546W        W 9427  26.633   2.262  11.471
39547W        W 9428   9.709  35.512  12.494
39548W        W 9429  29.024   5.778  12.508
39549W        W 9430  16.612   4.817   1.796
39550W        W 9431  18.193  26.657  14.825
39551W        W 9432  30.047  38.980  11.077
39552W        W 9433  13.717   0.966  14.014
39553W        W 9434  26.023  18.676  14.464
39554W        W 9435  10.216  18.631  12.551
39555W        W 9436   3.744  12.299   4.664
39556W        W 9437   9.359   8.689  10.071
39557W        W 9438  11.184   5.879   4.279
39558W        W 9439  24.532   2.882  13.952
39559W        W 9440  15.782  43.423   0.753
39560W        W 9441  37.042   1.761   2.416
39561W        W 9442  43.017  38.478   3.802
39562W        W 9443   2.800  43.885  14.420
39563W        W 9444  28.095  44.316   2.179
39564W        W 9445  18.263  44.986  12.545
39565W        W 9446  26.088   0.950  10.616
39566W        W 9447  11.147   8.192  13.892
39567W        W 9448  29.486  23.146   1.771
39568W        W 9449  32.905  14.740  12.905
39569W        W 9450  37.890  28.176   2.363
39570W        W 9451  24.596  33.443   2.889
39571W        W 9452  25.048   8.174  13.446
39572W        W 9453  35.935  35.902  13.338
39573W        W 9454  21.613   2.415  12.432
39574W        W 9455  26.474  32.457   2.364
39575W        W 9456  37.345   8.717  14.026
39576W        W 9457  30.092  32.902   2.204
39577W        W 9458   9.773  43.288  13.533
39578W        W 9459  11.304  10.148   2.417
39579W        W 9460  17.602  40.866   0.346
39580W        W 9461   4.403  24.670  13.864
39581W        W 9462  16.632  12.288   0.926
39582W        W 9463   1.760  42.333   2.697
39583W        W 9464  41.338   1.876   1.447
39584W        W 9465   2.920  18.780  13.321
39585W        W 9466   8.239   7.725  11.957
39586W        W 9467  44.402  33.887   4.695
39587W        W 9468  36.988  39.518   4.714
39588W        W 9469  36.881  16.286  13.853
39589W        W 9470  18.116  35.499  12.506
39590W        W 9471  27.641  23.199   0.944
39591W        W 9472  12.846  30.604  13.520
39592W        W 9473  11.667  10.845  12.405
39593W        W 9474  15.132  15.624  11.457
39594W        W 9475  19.209  26.035  12.910
39595W        W 9476   0.392  23.606  13.052
39596W        W 9477  32.630   3.924  11.512
39597W        W 9478  23.731  44.331   3.783
39598W        W 9479  28.659  41.448  11.504
39599W        W 9480  16.133  37.964  13.325
39600W        W 9481  40.938   8.213  13.338
39601W        W 9482   2.232   0.480   2.850
39602W        W 9483  25.029  30.506  14.003
39603W        W 9484   5.427   0.784   3.337
39604W        W 9485  10.361  26.685   4.830
39605W        W 9486  33.546  32.949   9.969
39606W        W 9487   0.958  41.364  11.979
39607W        W 9488  12.661  20.578  11.464
39608W        W 9489  43.999  31.987   4.181
39609W        W 9490   6.328  41.906   4.314
39610W        W 9491   5.890  42.491  11.070
39611W        W 9492  37.916  17.577  11.554
39612W        W 9493   6.891   8.310   3.641
39613W        W 9494  34.609  17.690   4.821
39614W        W 9495  17.725  18.589   4.262
39615W        W 9496  34.476  36.999   3.302
39616W        W 9497  39.848  44.806  13.949
39617W        W 9498  26.973   3.863   3.371
39618W        W 9499  28.464  37.481  12.923
39619W        W 9500  42.836   1.252   1.284
39620W        W 9501  36.407   0.765  10.621
39621W        W 9502  19.742  22.062  13.365
39622W        W 9503  28.075   4.212  14.328
39623W        W 9504  33.886  33.593   2.665
39624W        W 9505  42.329   2.368   3.148
39625W        W 9506  42.851   3.781   0.756
39626W        W 9507  37.378  29.928  11.476
39627W        W 9508  22.076  36.872   1.847
39628W        W 9509   7.257   3.800  12.888
39629W        W 9510  28.589   4.861  11.992
39630W        W 9511   6.797  43.897   4.295
39631W        W 9512  16.162  34.961   1.410
39632W        W 9513  30.922  18.126  12.538
39633W        W 9514   2.932  13.188  12.999
39634W        W 9515  28.004  18.712   1.364
39635W        W 9516  27.943   3.766  14.772
39636W        W 9517  39.043  15.816  11.964
39637W        W 9518  31.953   9.671   4.816
39638W        W 9519  22.214  28.441  11.972
39639W        W 9520   1.346  34.492  14.774
39640W        W 9521  15.730  40.015  10.550
39641W        W 9522  19.669  33.894   0.406
39642W        W 9523  27.455  42.960   0.347
39643W        W 9524  39.943  14.300  13.406
39644W        W 9525  25.562  41.821   0.474
39645W        W 9526  18.273  41.992  12.842
39646W        W 9527  20.055  12.826  11.434
39647W        W 9528  29.508   8.247  10.482
39648W        W 9529  22.678   8.386  13.948
39649W        W 9530  36.981  25.605   2.667
39650W        W 9531   9.268  24.200   3.811
39651W        W 9532   3.323  23.587  13.337
39652W        W 9533  21.256  11.292  11.857
39653W        W 9534  42.849  32.049  10.982
39654W        W 9535   0.451  16.698  12.924
39655W        W 9536  38.939  40.323  12.977
39656W        W 9537  35.950   7.737   2.401
39657W        W 9538   0.404  29.493   0.375
39658W        W 9539  27.511  13.627   2.250
39659W        W 9540  35.997  39.857   4.753
39660W        W 9541  10.814  24.054   0.960
39661W        W 9542   5.714  15.675  12.929
39662W        W 9543  15.605   7.868  14.877
39663W        W 9544  32.626  11.334  12.932
39664W        W 9545  35.028  13.329  14.893
39665W        W 9546  44.952  40.382  13.004
39666W        W 9547  14.160  41.832   4.228
39667W        W 9548  18.632  21.629   2.850
39668W        W 9549  32.004  38.382   1.220
39669W        W 9550   1.865  19.648   4.816
39670W        W 9551  39.413  23.511  12.920
39671W        W 9552   5.857  30.074   0.482
39672W        W 9553  37.940  31.112   3.836
39673W        W 9554  17.175  38.915  12.497
39674W        W 9555   5.376   2.382  14.458
39675W        W 9556  16.696  36.953   3.748
39676W        W 9557  31.410  21.725   1.353
39677W        W 9558   9.783  29.079  14.492
39678W        W 9559   9.363   9.258   3.252
39679W        W 9560  33.106  29.454  11.540
39680W        W 9561  12.611  24.156  12.909
39681W        W 9562  19.280  23.219   2.184
39682W        W 9563  16.269  31.961  12.527
39683W        W 9564   8.224  10.814   2.295
39684W        W 9565  42.956  31.545   0.967
39685W        W 9566   5.349  14.250   4.301
39686W        W 9567  18.608  17.183  14.964
39687W        W 9568  39.429  35.394  13.447
39688W        W 9569  30.620  24.686  11.599
39689W        W 9570  27.190  30.531  14.304
39690W        W 9571  44.873  26.575  12.880
39691W        W 9572   8.360  27.644  12.953
39692W        W 9573  21.739  36.456   0.363
39693W        W 9574  16.724   9.721   1.441
39694W        W 9575  37.932  14.108  13.336
39695W        W 9576  39.447   5.782  11.899
39696W        W 9577  21.081  38.331   3.783
39697W        W 9578  24.480   1.865   0.244
39698W        W 9579  16.802   3.286  10.056
39699W        W 9580  32.930   1.908  10.896
39700W        W 9581  29.014   4.211   0.429
39701W        W 9582  18.211   3.322  14.922
39702W        W 9583  29.585  42.794  12.863
39703W        W 9584  21.637  12.340   4.342
39704W        W 9585  26.126  44.417   1.409
39705W        W 9586  30.140  17.153   4.696
39706W        W 9587  40.547  39.065  12.445
39707W        W 9588  15.780   3.448   5.275
39708W        W 9589  40.365  23.695  14.297
39709W        W 9590  39.837  40.459  13.928
39710W        W 9591  29.464  30.547   1.744
39711W        W 9592   6.229  23.492  11.468
39712W        W 9593  16.082  41.343  14.836
39713W        W 9594  26.587  42.913  10.952
39714W        W 9595  16.772  16.124   1.863
39715W        W 9596  33.036  36.086   0.315
39716W        W 9597  37.890   9.304   4.693
39717W        W 9598   1.805  23.019  12.862
39718W        W 9599  21.048   2.802  13.023
39719W        W 9600  23.525  19.653  12.370
39720W        W 9601  27.689  20.183  13.971
39721W        W 9602  42.841  14.784  13.959
39722W        W 9603   4.322  33.963  12.981
39723W        W 9604  30.916  24.123   4.761
39724W        W 9605  16.603  31.004   3.180
39725W        W 9606  10.299  13.154   2.861
39726W        W 9607  32.406   6.785   2.711
39727W        W 9608  43.968  38.342  10.447
39728W        W 9609  28.548  10.277   3.284
39729W        W 9610  10.755  20.584   3.147
39730W        W 9611  44.268  19.733  14.404
39731W        W 9612   5.753  41.447  10.642
39732W        W 9613  27.469  31.431  14.479
39733W        W 9614  43.977   3.928  11.600
39734W        W 9615  18.110  16.801  11.543
39735W        W 9616  31.055  31.999  14.308
39736W        W 9617  32.452  40.330  14.352
39737W        W 9618  40.901   6.793   4.239
39738W        W 9619  40.858  42.902   2.243
39739W        W 9620  21.716  28.971   2.761
39740W        W 9621  43.833   7.900   2.256
39741W        W 9622  38.954  31.141  14.927
39742W        W 9623  17.708   0.353   4.351
39743W        W 9624  31.943  14.111  11.477
39744W        W 9625  24.669  25.714   0.281
39745W        W 9626  35.006  25.713  13.362
39746W        W 9627  19.768  41.862  14.440
39747W        W 9628   8.349  22.059  11.996
39748W        W 9629   3.810  19.058   0.376
39749W        W 9630  12.358  18.092   2.684
39750W        W 9631  15.703  17.264  12.025
39751W        W 9632  28.990  12.738  11.101
39752W        W 9633   9.649  33.884   0.830
39753W        W 9634  11.790  10.244   0.372
39754W        W 9635   0.981   7.757   3.816
39755W        W 9636   3.331  29.985  13.438
39756W        W 9637  10.237  41.305  12.543
39757W        W 9638  42.324  24.662  10.925
39758W        W 9639  42.852  43.452  12.902
39759W        W 9640  36.096   8.778   1.800
39760W        W 9641  43.278  34.539   0.304
39761W        W 9642  31.449  43.500   2.372
39762W        W 9643   0.947   0.886  14.947
39763W        W 9644  21.126  27.159   1.335
39764W        W 9645   4.740  41.967   0.788
39765W        W 9646  32.124  37.947   2.866
39766W        W 9647  25.132  33.595  13.856
39767W        W 9648  40.006  21.112  11.511
39768W        W 9649  13.711   6.244   3.188
39769W        W 9650  38.946  10.222   0.306
39770W        W 9651  33.555  33.098   4.679
39771W        W 9652   0.899   4.724   4.736
39772W        W 9653  18.595  37.520   3.748
39773W        W 9654   0.328  25.054  13.498
39774W        W 9655  13.638  22.105  11.863
39775W        W 9656   4.312  36.363   1.783
39776W        W 9657  36.097   3.397  11.933
39777W        W 9658  12.177  44.349  11.070
39778W        W 9659  33.406   4.717   2.401
39779W        W 9660  38.466  32.558  11.481
39780W        W 9661  25.679   8.198  10.519
39781W        W 9662   2.806  18.191   3.866
39782W        W 9663  29.165   6.775   1.872
39783W        W 9664  24.614  26.961  14.311
39784W        W 9665  36.972  10.849   3.190
39785W        W 9666  28.465  44.786  11.123
39786W        W 9667  43.773  42.502   2.264
39787W        W 9668  15.641  22.042   1.910
39788W        W 9669  44.944  21.069  10.991
39789W        W 9670   7.413  26.165  14.500
39790W        W 9671  42.995  24.579   4.260
39791W        W 9672  26.206  11.683  10.920
39792W        W 9673   0.780  40.336  11.959
39793W        W 9674  13.813  41.472  11.872
39794W        W 9675  18.671  42.798  14.902
39795W        W 9676  19.085  23.039  12.563
39796W        W 9677  18.620   3.939  13.359
39797W        W 9678  32.119  12.815   2.801
39798W        W 9679  24.113  24.550  12.443
39799W        W 9680   3.228  31.478   1.356
39800W        W 9681  21.711  19.136   0.848
39801W        W 9682  28.179  27.546   3.766
39802W        W 9683  25.694   3.311  10.086
39803W        W 9684  28.143  11.153  14.872
39804W        W 9685  11.306  35.857   1.309
39805W        W 9686  26.572   0.867   4.727
39806W        W 9687   0.899   8.719  14.821
39807W        W 9688  14.719  43.488  12.982
39808W        W 9689  44.754  13.786  13.838
39809W        W 9690  18.202   1.862  14.836
39810W        W 9691   9.291  31.635  11.572
39811W        W 9692  29.983  44.848   0.834
39812W        W 9693  27.518  35.479   0.482
39813W        W 9694  18.757  13.792   2.881
39814W        W 9695  36.592   4.389  10.499
39815W        W 9696   4.418   6.787   4.821
39816W        W 9697  35.468  38.519   0.924
39817W        W 9698  16.185  37.087  14.792
39818W        W 9699  40.480  24.020  14.955
39819W        W 9700   9.238   9.188   1.713
39820W        W 9701  12.748  16.772  14.413
39821W        W 9702   3.227  30.975   4.302
39822W        W 9703  34.943  11.794  12.432
39823W        W 9704  16.717  22.704   4.153
39824W        W 9705   3.256  29.930   2.852
39825W        W 9706  31.512  34.112   2.796
39826W        W 9707   8.831  22.658   2.707
39827W        W 9708  13.835  19.761  10.470
39828W        W 9709  32.517  38.479  12.470
39829W        W 9710  37.537  20.735  14.791
39830W        W 9711  12.762  44.939  11.455
39831W        W 9712   9.701   7.805   3.688
39832W        W 9713  24.659  28.112   3.648
39833W        W 9714   4.875  22.548   1.299
39834W        W 9715  10.263  15.093   2.898
39835W        W 9716  34.911  10.305  12.428
39836W        W 9717  14.628  21.123  10.069
39837W        W 9718  10.168  32.554   4.815
39838W        W 9719   8.885  32.522   1.884
39839W        W 9720  36.568   3.422  11.988
39840W        W 9721  11.759   4.313  11.862
39841W        W 9722  26.104  29.919  11.499
39842W        W 9723   4.711  31.501   4.172
39843W        W 9724  11.733  30.964  13.987
39844W        W 9725  33.492   6.894  12.888
39845W        W 9726   3.450   8.205   1.325
39846W        W 9727  23.044  22.580   1.404
39847W        W 9728   8.670   9.329  10.626
39848W        W 9729  26.140   5.912   2.810
39849W        W 9730  21.160  20.748  14.786
39850W        W 9731  23.583   5.705  10.411
39851W        W 9732  25.165  18.699   2.222
39852W        W 9733  16.687   1.757  14.771
39853W        W 9734  12.167  44.385   1.736
39854W        W 9735  25.623  25.094   2.881
39855W        W 9736  16.086  11.708  13.030
39856W        W 9737  32.064   0.791  11.512
39857W        W 9738  32.896  27.044   4.745
39858W        W 9739  22.026  14.164   3.234
39859W        W 9740  34.069  11.697  11.124
39860W        W 9741  10.663  29.042   1.367
39861W        W 9742  17.061  19.225  12.430
39862W        W 9743  12.181  20.562  13.354
39863W        W 9744  38.447   0.287  10.534
39864W        W 9745   2.849  28.148  14.823
39865W        W 9746  29.522  24.975   3.190
39866W        W 9747  35.364  31.934  12.517
39867W        W 9748  22.620  22.701   5.322
39868W        W 9749  27.692   3.923  13.900
39869W        W 9750  14.117  29.935   4.291
39870W        W 9751  39.467  32.115  14.989
39871W        W 9752  18.292  23.632   1.371
39872W        W 9753  26.512  11.839  13.035
39873W        W 9754  23.168   9.662   4.750
39874W        W 9755  17.153   3.415  10.624
39875W        W 9756  36.890  19.700  13.524
39876W        W 9757  11.713  40.309   4.653
39877W        W 9758  10.858  38.045   4.838
39878W        W 9759  12.222  32.138   4.251
39879W        W 9760   4.293  35.029   2.417
39880W        W 9761   3.294  33.036   1.429
39881W        W 9762  26.481   2.780   2.212
39882W        W 9763   3.422  38.955   0.414
39883W        W 9764  15.764  17.687   5.278
39884W        W 9765  11.266  41.870  14.427
39885W        W 9766  33.392  33.420  11.588
39886W        W 9767  11.196  35.000  11.035
39887W        W 9768  18.266  40.950  14.911
39888W        W 9769  31.644  23.095   4.728
39889W        W 9770   7.707  27.570   4.320
39890W        W 9771  29.593  24.574   3.748
39891W        W 9772  16.668   3.793  14.007
39892W        W 9773   6.704  26.641   2.285
39893W        W 9774  17.291  18.282   0.962
39894W        W 9775   2.339  38.568   1.449
39895W        W 9776  25.017  34.525  10.420
39896W        W 9777  39.829  36.557   3.216
39897W        W 9778  18.575  26.589  13.484
39898W        W 9779   9.864  37.504  11.052
39899W        W 9780  44.339  31.991  12.086
39900W        W 9781  29.923  43.018  14.371
39901W        W 9782  17.068  43.307  14.486
39902W        W 9783   1.859  40.016   4.325
39903W        W 9784  25.511  43.941  14.020
39904W        W 9785  40.344  19.083  14.369
39905W        W 9786  25.061  13.137  11.859
39906W        W 9787  26.205  31.562   3.667
39907W        W 9788  31.583  41.800   0.905
39908W        W 9789  23.602  23.571   1.382
39909W        W 9790   8.236  36.850   0.823
39910W        W 9791  25.557  40.797  12.003
39911W        W 9792  27.515  37.349   1.369
39912W        W 9793  25.009  27.990  14.920
39913W        W 9794  13.700  26.689   0.865
39914W        W 9795   5.857  15.223   3.183
39915W        W 9796  11.797  41.818   0.456
39916W        W 9797  19.264  27.543  12.982
39917W        W 9798  30.420  11.369  11.862
39918W        W 9799  43.327   3.955   4.226
39919W        W 9800   3.336  30.590  12.870
39920W        W 9801  42.951  25.637  11.008
39921W        W 9802  43.874  31.069  14.924
39922W        W 9803  24.147   8.775  14.881
39923W        W 9804  44.312  17.691  10.149
39924W        W 9805  14.593  30.155  12.075
39925W        W 9806  23.138  31.589  12.040
39926W        W 9807  15.281  29.127   0.413
39927W        W 9808  42.409  17.137   1.759
39928W        W 9809  23.599  23.032   2.406
39929W        W 9810  24.684  42.961   3.638
39930W        W 9811   9.679   7.248  10.641
39931W        W 9812  20.766  39.332   0.460
39932W        W 9813  42.412   5.289  12.540
39933W        W 9814  17.661  20.116  13.444
39934W        W 9815  32.008  27.134   0.905
39935W        W 9816  35.054  25.209   4.151
39936W        W 9817  13.745  26.077   1.726
39937W        W 9818  41.922  10.372  10.556
39938W        W 9819  16.613  44.914  13.938
39939W        W 9820  12.777  23.548   4.762
39940W        W 9821   0.280   6.683  13.913
39941W        W 9822  21.160   1.888   2.384
39942W        W 9823  18.074  44.397   2.703
39943W        W 9824   3.784  16.651  14.960
39944W        W 9825  24.097  29.162   0.357
39945W        W 9826  37.836   0.811   4.627
39946W        W 9827  26.067  25.557   0.756
39947W        W 9828  42.382  34.113   2.295
39948W        W 9829   3.923  43.798  11.388
39949W        W 9830  39.880  29.929   4.175
39950W        W 9831  24.506  43.853   0.380
39951W        W 9832  12.239  17.276   0.897
39952W        W 9833  12.649  38.428  11.420
39953W        W 9834  15.138  29.996  10.447
39954W        W 9835  37.507  43.441   5.146
39955W        W 9836  18.075  29.973  11.012
39956W        W 9837   7.213  19.773  11.526
39957W        W 9838  29.521  36.908   0.373
39958W        W 9839   9.682  12.152  11.067
39959W        W 9840  36.894  40.906  12.055
39960W        W 9841  17.166  25.002  14.362
39961W        W 9842  34.600   4.380   4.223
39962W        W 9843  28.509  13.310  10.995
39963W        W 9844  19.771  44.385   1.814
39964W        W 9845  41.309  36.023  11.395
39965W        W 9846  36.366  31.956  10.109
39966W        W 9847  25.500  38.067  12.511
39967W        W 9848  43.860   7.367  14.973
39968W        W 9849  23.491  15.730  10.104
39969W        W 9850  37.337  40.911   3.163
39970W        W 9851  32.448  22.559  11.516
39971W        W 9852  11.804  42.021   2.858
39972W        W 9853  19.056  44.852  10.138
39973W        W 9854  20.672  31.511  11.432
39974W        W 9855  30.959   7.400  13.050
39975W        W 9856  32.936  42.454   3.720
39976W        W 9857  12.243  33.441  11.021
39977W        W 9858  23.545  37.546   4.188
39978W        W 9859  41.487  38.917  12.394
39979W        W 9860  13.759  17.161   1.285
39980W        W 9861  34.101  16.108  10.484
39981W        W 9862  42.867  16.803   4.799
39982W        W 9863  26.182  18.725  12.518
39983W        W 9864  29.049  43.440   3.741
39984W        W 9865   3.887  38.353  12.879
39985W        W 9866  30.912   8.898   3.869
39986W        W 9867  21.739  29.602  11.036
39987W        W 9868  32.618   7.682  12.908
39988W        W 9869  38.993  44.303  10.089
39989W        W 9870  22.645  27.003  11.006
39990W        W 9871  37.532  25.128   0.851
39991W        W 9872  10.267  18.674   9.999
39992W        W 9873  40.305  30.512  11.120
39993W        W 9874  37.852   4.305   0.426
39994W        W 9875  25.176   8.695   1.211
39995W        W 9876  22.607  10.281   0.751
39996W        W 9877  22.742  43.831  13.021
39997W        W 9878  31.028  38.832  10.409
39998W        W 9879  32.058  40.958  13.879
39999W        W 9880   3.799  22.121  12.443
40000W        W 9881  33.028   9.156   1.814
40001W        W 9882  29.134  39.511  10.950
40002W        W 9883  12.719  14.236   4.342
40003W        W 9884  33.570  21.263   0.775
40004W        W 9885  37.951  34.948   1.765
40005W        W 9886  37.837  34.525  12.973
40006W        W 9887  39.384  13.843  13.799
40007W        W 9888  36.432  30.490   5.219
40008W        W 9889  25.197   4.810   4.642
40009W        W 9890   9.297  12.278  11.090
40010W        W 9891  17.717  18.611   3.812
40011W        W 9892  37.522  13.777  12.385
40012W        W 9893  28.668  17.790   2.754
40013W        W 9894  13.819  38.878  13.487
40014W        W 9895  12.637  24.663  14.284
40015W        W 9896  36.529  23.985  11.377
40016W        W 9897  28.163  23.218   4.262
40017W        W 9898  17.291  18.646   1.317
40018W        W 9899   6.868  33.882   2.798
40019W        W 9900  35.003  13.769   0.481
40020W        W 9901  14.717  39.856  13.891
40021W        W 9902  29.460  34.880   1.222
40022W        W 9903  37.969  24.478   0.833
40023W        W 9904   6.843  39.893  14.968
40024W        W 9905  24.643  11.832  13.975
40025W        W 9906   6.864  37.915  14.968
40026W        W 9907  24.075  12.174  12.891
40027W        W 9908  18.116   9.164   3.317
40028W        W 9909  15.257  29.551   3.271
40029W        W 9910   5.253   6.191   1.235
40030W        W 9911  31.937  23.560   2.217
40031W        W 9912  31.418  26.172  14.466
40032W        W 9913  36.996  44.860   2.806
40033W        W 9914   9.273  37.073   0.298
40034W        W 9915  30.952  18.068   5.159
40035W        W 9916  38.967  34.864   5.277
40036W        W 9917  20.766  14.140  14.795
40037W        W 9918  11.235   1.813  12.508
40038W        W 9919  14.126  39.886   2.335
40039W        W 9920  19.568  22.247  11.598
40040W        W 9921  32.988  20.531  12.068
40041W        W 9922  36.592  41.402  13.030
40042W        W 9923  24.082  25.980   3.376
40043W        W 9924  17.714  43.020   0.478
40044W        W 9925  32.010  25.550   2.197
40045W        W 9926  38.061  35.423   0.767
40046W        W 9927   2.293  17.167   5.099
40047W        W 9928  43.423  15.788  10.071
40048W        W 9929  42.906  14.148  10.584
40049W        W 9930   8.243  32.948  14.406
40050W        W 9931  38.558  23.498  12.947
40051W        W 9932   2.916  23.571   4.690
40052W        W 9933  12.654  32.004  14.826
40053W        W 9934   4.884   8.179   0.367
40054W        W 9935   8.332  17.070   4.121
40055W        W 9936  24.641  11.863  11.588
40056W        W 9937  44.419  41.009   4.144
40057W        W 9938  33.891   2.308  12.379
40058W        W 9939  21.725  13.172  14.327
40059W        W 9940   4.715  34.968  11.960
40060W        W 9941  10.343  35.479  13.314
40061W        W 9942  26.653  28.986   0.418
40062W        W 9943  15.582   2.457   1.248
40063W        W 9944  12.614  20.185   1.927
40064W        W 9945  38.359  15.665  14.392
40065W        W 9946  11.688  36.474  11.607
40066W        W 9947   2.772  21.644  13.510
40067W        W 9948  29.145   6.788   0.905
40068W        W 9949   8.868  11.812  13.529
40069W        W 9950  25.496  38.951   0.882
40070W        W 9951  15.654   4.756  12.945
40071W        W 9952  29.520  41.303   3.715
40072W        W 9953  25.183  31.471   0.368
40073W        W 9954  36.872  32.530  14.484
40074W        W 9955  30.987  23.230  10.544
40075W        W 9956  11.783  19.061  14.845
40076W        W 9957  44.350  25.087   0.360
40077W        W 9958   1.420  40.050  14.769
40078W        W 9959  27.600  22.128   4.622
40079W        W 9960  11.178  20.057  12.345
40080W        W 9961   0.746  37.508   1.266
40081W        W 9962  38.918  15.761  11.578
40082W        W 9963  25.600  13.220   1.332
40083W        W 9964  35.458   1.905   0.924
40084W        W 9965   9.844  25.469  14.883
40085W        W 9966  32.894  12.303  11.424
40086W        W 9967  15.088   1.821   1.700
40087W        W 9968  44.262   0.912  12.944
40088W        W 9969  11.237  38.469  14.772
40089W        W 9970  20.210  19.230   3.869
40090W        W 9971  36.913  34.043   1.396
40091W        W 9972  32.430  35.426   4.785
40092W        W 9973  38.472  31.907   0.393
40093W        W 9974   0.282   5.794   3.822
40094W        W 9975  44.010  44.805   3.727
40095W        W 9976   0.909   5.364   3.261
40096W        W 9977  17.658  12.239  11.436
40097W        W 9978   5.847  34.073   0.479
40098W        W 9979  30.585   1.450   1.881
40099W        W 9980  17.259  26.168  11.891
40100W        W 9981  17.224  36.510   1.419
40101W        W 9982  37.914   7.327   5.227
40102W        W 9983  29.143  31.065  14.011
40103W        W 9984  11.852   5.807   1.728
40104W        W 9985  17.285   2.405   2.256
40105W        W 9986  26.141  10.160   1.733
40106W        W 9987  40.836  23.498   2.807
40107W        W 9988  37.430  40.823   1.212
40108W        W 9989   7.788  32.493  12.440
40109W        W 9990  25.967  38.389   4.688
40110W        W 9991  41.512   9.841   3.836
40111W        W 9992  20.556   7.280  13.514
40112W        W 9993   0.268  18.550   4.745
40113W        W 9994   7.390  28.640  12.442
40114W        W 9995  18.698  22.035   3.201
40115W        W 9996  25.682  17.126   3.195
40116W        W 9997  37.040   4.748  12.342
40117W        W 9998  26.147  22.126  11.495
40118W        W 9999  10.315   8.257  13.801
40119W        W10000  34.950  20.195   0.838
40120W        W10001  34.602  14.234  13.931
40121W        W10002  19.731  43.885  12.373
40122W        W10003  30.499   1.757   1.765
40123W        W10004  36.408   8.890  14.011
40124W        W10005   9.692  27.537  13.345
40125W        W10006  11.810   8.217   4.701
40126W        W10007  14.819  21.708  14.913
40127W        W10008  12.210   9.262  14.928
40128W        W10009  16.684  23.710   4.672
40129W        W10010  31.406   1.816   1.364
40130W        W10011  11.689  40.849   2.334
40131W        W10012   6.321   8.866   1.769
40132W        W10013  22.502  36.868  10.626
40133W        W10014  17.278  12.145   2.226
40134W        W10015  43.274  25.671   2.758
40135W        W10016  33.501  17.733   5.231
40136W        W10017   2.382  12.136   2.897
40137W        W10018  44.832  19.042   4.801
40138W        W10019  20.144  36.592  13.983
40139W        W10020  21.254  13.216   5.091
40140W        W10021  11.714  28.126   5.740
40141W        W10022  44.833  22.190  13.967
40142W        W10023  36.428  38.942  14.770
40143W        W10024  10.686  39.446  12.363
40144W        W10025   7.686  41.871   4.747
40145W        W10026  20.048   8.674  13.903
40146W        W10027  11.284  29.654  13.809
40147W        W10028  35.043  34.983  12.433
40148W        W10029  17.100  14.258  11.060
40149W        W10030  28.019  36.490  13.863
40150W        W10031  13.740  30.028  13.960
40151W        W10032  13.600   5.808  10.484
40152W        W10033   5.760  26.182   1.751
40153W        W10034  29.041   5.812   4.158
40154W        W10035  43.424   4.735  14.352
40155W        W10036  17.661   7.743  12.839
40156W        W10037  12.776  39.452   4.315
40157W        W10038  16.638  41.434   0.809
40158W        W10039  15.226  16.735  14.279
40159W        W10040  33.009  36.558  11.023
40160W        W10041  12.332  33.909   1.761
40161W        W10042  14.702  31.019   0.931
40162W        W10043  29.473  13.830   1.359
40163W        W10044   3.883  13.252  13.330
40164W        W10045   8.672  35.525   4.694
40165W        W10046  16.592  24.626  10.421
40166W        W10047  17.579  37.907  13.340
40167W        W10048  39.001   3.223  12.934
40168W        W10049   6.333  34.587  12.041
40169W        W10050  18.129   2.324  11.048
40170W        W10051  19.184  13.655   2.339
40171W        W10052   3.404   7.252  10.442
40172W        W10053  22.668   6.282   4.284
40173W        W10054  31.644  32.976   2.290
40174W        W10055  10.282  21.631  11.373
40175W        W10056  31.915   9.888   4.282
40176W        W10057  33.429  19.720   2.320
40177W        W10058  20.715  35.033   0.922
40178W        W10059  43.800  25.122   4.304
40179W        W10060  16.318  43.439   3.312
40180W        W10061  10.696  21.027  14.794
40181W        W10062  29.523  36.040  14.788
40182W        W10063  28.166  14.296  11.088
40183W        W10064  42.459   5.415   3.246
40184W        W10065   4.847  37.926   1.793
40185W        W10066  25.995  43.804   0.388
40186W        W10067  26.699  27.956   2.267
40187W        W10068  26.546   6.903   2.665
40188W        W10069  39.397  16.096  13.325
40189W        W10070  28.988  30.593  13.955
40190W        W10071  13.121  29.631   5.317
40191W        W10072   0.322   5.720   3.378
40192W        W10073  12.162  16.810   2.873
40193W        W10074   6.712  33.039   2.885
40194W        W10075  29.606  17.104   3.645
40195W        W10076  11.721   7.894   2.212
40196W        W10077   3.460  15.118   1.741
40197W        W10078   7.372  23.572  12.540
40198W        W10079  40.529  13.710  13.025
40199W        W10080  41.026  20.642  12.938
40200W        W10081   9.751  42.894   3.191
40201W        W10082  16.762   0.857   3.847
40202W        W10083   3.321  14.290   1.308
40203W        W10084  12.768  17.296  10.618
40204W        W10085  42.281  23.039   4.255
40205W        W10086  28.577  13.150   0.833
40206W        W10087  28.122  15.329   2.890
40207W        W10088  21.125   9.680  14.328
40208W        W10089   8.698  18.712   4.691
40209W        W10090  19.653  35.051  12.843
40210W        W10091  10.250  13.350  14.502
40211W        W10092  32.127  30.443  12.048
40212W        W10093  27.522  43.298  14.424
40213W        W10094  37.478   7.292  11.468
40214W        W10095  31.557   6.193  11.513
40215W        W10096  24.016  16.248   3.647
40216W        W10097  44.821   0.464  14.995
40217W        W10098   1.966  32.465   3.810
40218W        W10099  18.607  28.182   0.872
40219W        W10100   5.722  26.506   2.734
40220W        W10101  33.482  37.877  14.976
40221W        W10102  12.226  41.010   2.265
40222W        W10103  33.963  24.640   2.248
40223W        W10104  23.182  11.811  10.555
40224W        W10105  37.562  10.738  11.946
40225W        W10106   8.282   3.312   3.747
40226W        W10107  27.546  22.573   3.201
40227W        W10108   0.754  32.123   0.416
40228W        W10109  38.943  20.650  11.379
40229W        W10110  34.420  12.222  14.396
40230W        W10111   5.691  27.637  14.004
40231W        W10112  23.550  13.635  11.905
40232W        W10113  23.591  19.620  11.004
40233W        W10114  44.287  33.400  11.439
40234W        W10115   9.289   7.796  14.333
40235W        W10116  20.063  31.599  14.901
40236W        W10117  42.890  22.659   1.727
40237W        W10118  14.808  43.388   2.187
40238W        W10119  31.508  27.954   2.314
40239W        W10120  15.188  37.005  13.875
40240W        W10121   1.967  13.145   4.292
40241W        W10122  41.908  20.651   2.358
40242W        W10123  30.499  11.671  13.473
40243W        W10124  29.656  42.890  14.906
40244W        W10125  36.553  41.345  10.412
40245W        W10126  32.401   6.748  14.985
40246W        W10127  22.666  42.370   1.806
40247W        W10128  32.616  29.537   3.297
40248W        W10129  16.250  40.903  14.500
40249W        W10130  38.838  22.696  13.904
40250W        W10131  36.414  26.020  12.992
40251W        W10132  44.007  20.721   1.797
40252W        W10133  10.288   3.837  14.962
40253W        W10134  43.296  38.341  11.561
40254W        W10135  29.658   5.880   4.778
40255W        W10136  23.227  42.523   2.713
40256W        W10137  12.209  25.095  12.888
40257W        W10138  34.485   8.695   4.144
40258W        W10139   9.692  29.060  12.868
40259W        W10140  12.227  27.458   5.301
40260W        W10141  21.689  44.282   5.091
40261W        W10142  22.712  12.744  10.026
40262W        W10143  25.670  41.023  13.325
40263W        W10144  13.294  41.878   1.879
40264W        W10145  32.445   7.902   4.690
40265W        W10146   5.366  37.399  10.940
40266W        W10147  33.500  44.830  14.515
40267W        W10148  19.766  28.019  14.383
40268W        W10149  13.631  41.972   0.832
40269W        W10150  11.285   1.463   2.224
40270W        W10151  13.107   4.288   0.801
40271W        W10152  34.447  44.495  10.459
40272W        W10153  19.658  44.415   9.929
40273W        W10154  36.855  10.687  14.830
40274W        W10155  16.153   1.903   5.177
40275W        W10156  44.954  40.460  14.820
40276W        W10157   8.244   9.851  11.962
40277W        W10158  18.145   6.273  10.981
40278W        W10159  36.848   1.790   2.731
40279W        W10160   9.742  33.876   3.174
40280W        W10161   2.388  17.665   4.793
40281W        W10162  39.956   1.922  12.827
40282W        W10163  33.077  43.826   3.866
40283W        W10164  24.604  29.087   3.275
40284W        W10165  29.166  16.760   0.743
40285W        W10166  34.871  23.615  14.500
40286W        W10167  25.060   8.689   0.779
40287W        W10168  16.087  41.495  11.122
40288W        W10169  40.935  26.653   1.310
40289W        W10170  10.781   7.385   0.728
40290W        W10171   5.706  11.834  11.545
40291W        W10172  11.367   4.298  10.900
40292W        W10173  12.713  11.222  10.982
40293W        W10174  15.154  29.136  11.952
40294W        W10175  27.003  32.888   0.813
40295W        W10176  33.388  19.168   3.807
40296W        W10177  37.469  30.462   1.851
40297W        W10178  30.562  29.533   1.867
40298W        W10179   0.816  21.033  14.861
40299W        W10180  34.445   7.373   0.831
40300W        W10181   6.207  32.487  11.610
40301W        W10182  37.484  41.472   0.785
40302W        W10183  23.663  23.003   1.921
40303W        W10184  15.606   6.741  10.888
40304W        W10185   4.867   0.400   4.658
40305W        W10186  43.838  36.473  11.590
40306W        W10187  19.677  25.142   3.339
40307W        W10188  11.835  31.601  12.978
40308W        W10189   7.886  41.330  14.882
40309W        W10190   3.245  16.314  10.914
40310W        W10191  31.424  42.837   0.428
40311W        W10192   6.256   6.747   4.253
40312W        W10193  33.047  22.236   0.844
40313W        W10194  25.558  14.747  10.410
40314W        W10195  10.239  25.485   4.153
40315W        W10196  42.908   2.878   0.465
40316W        W10197  15.807  38.508  14.515
40317W        W10198  42.367   5.229  14.872
40318W        W10199  42.500  25.653  13.376
40319W        W10200   8.849  30.947  11.546
40320W        W10201   9.157  20.591   4.163
40321W        W10202  26.989  27.155   2.676
40322W        W10203  26.634  41.919   0.774
40323W        W10204   4.814  44.939   1.410
40324W        W10205  22.626  15.795   0.442
40325W        W10206  30.932  11.149  10.445
40326W        W10207  19.183   1.326   0.363
40327W        W10208  40.028  13.301   3.251
40328W        W10209   9.817  33.081  12.992
40329W        W10210  11.690  26.108  13.845
40330W        W10211   7.273  37.084   2.403
40331W        W10212   2.753  18.754   4.226
40332W        W10213  10.147  40.852   2.247
40333W        W10214  18.741  23.049  14.884
40334W        W10215   3.857  18.226  12.560
40335W        W10216   9.376  25.989   1.886
40336W        W10217  31.954  23.098   1.819
40337W        W10218  20.211  27.662  12.026
40338W        W10219  31.029  22.596  10.065
40339W        W10220  15.676   6.395  12.365
40340W        W10221  22.593  40.005   0.364
40341W        W10222  24.122  29.565  11.894
40342W        W10223  32.520  32.080   2.684
40343W        W10224  29.979  40.548  13.060
40344W        W10225  21.541  35.373   4.719
40345W        W10226   4.243  14.689   1.878
40346W        W10227  22.196  15.779  14.819
40347W        W10228  31.402  12.200   1.228
40348W        W10229   7.758  19.548   0.350
40349W        W10230  24.576  38.546   4.250
40350W        W10231  18.601  38.438   0.411
40351W        W10232  12.716  12.857  11.973
40352W        W10233  11.280  38.527   2.325
40353W        W10234   8.246  33.891   2.682
40354W        W10235  15.622  27.601  10.116
40355W        W10236   5.855  41.797  14.413
40356W        W10237  28.155  31.074   4.811
40357W        W10238  40.898  24.994   3.276
40358W        W10239  40.894  12.768   3.847
40359W        W10240  17.588   1.425  12.379
40360W        W10241   3.350  31.051   3.722
40361W        W10242  21.610  14.804  14.328
40362W        W10243  23.618   3.768   0.435
40363W        W10244  29.122  25.145   2.247
40364W        W10245  10.728  37.352   2.418
40365W        W10246  18.718  22.236  13.513
40366W        W10247  29.037  24.546   1.221
40367W        W10248   0.311  10.864  13.856
40368W        W10249  28.554  36.925  10.985
40369W        W10250  25.611  40.388  10.563
40370W        W10251  38.422  27.043   0.376
40371W        W10252   2.416   9.154   1.858
40372W        W10253   8.397  12.117  12.454
40373W        W10254  12.695  32.019  11.941
40374W        W10255   8.863  30.460   1.745
40375W        W10256  34.594  22.123   1.329
40376W        W10257  42.313  43.503   4.751
40377W        W10258   7.398   9.221   0.959
40378W        W10259  30.067  33.096  14.321
40379W        W10260  20.150  11.310  11.478
40380W        W10261   2.727  40.494   0.446
40381W        W10262  10.818   0.896  14.432
40382W        W10263  14.739   5.288  14.310
40383W        W10264  34.018  41.387  11.555
40384W        W10265   8.273  24.520  10.528
40385W        W10266  30.516  17.782   2.312
40386W        W10267   5.857  30.490   3.235
40387W        W10268  10.781  32.885  12.016
40388W        W10269   2.258  39.533  10.542
40389W        W10270  35.888  29.464   0.296
40390W        W10271  42.000  38.529  12.556
40391W        W10272  35.365  19.686   3.220
40392W        W10273  40.477  35.409  14.394
40393W        W10274  32.465  37.370  10.529
40394W        W10275   3.369   2.282  14.433
40395W        W10276  23.642  43.448  14.371
40396W        W10277  12.701  25.619   3.262
40397W        W10278  41.323   5.890  14.469
40398W        W10279  28.943  26.651  11.446
40399W        W10280   7.175  34.976   1.910
40400W        W10281  37.058  16.227   2.306
40401W        W10282  10.727  23.505  14.370
40402W        W10283  28.577  35.076   1.315
40403W        W10284   2.936  10.315  14.994
40404W        W10285  18.055  18.113   1.213
40405W        W10286  26.554  18.111   2.267
40406W        W10287  33.544  32.563   2.852
40407W        W10288  23.159  18.276  13.374
40408W        W10289  10.648  13.637   1.234
40409W        W10290  24.542  16.594   1.372
40410W        W10291  12.612  18.182  10.558
40411W        W10292   3.895   9.250  12.987
40412W        W10293  12.770  25.147  11.032
40413W        W10294   5.720  22.111   4.724
40414W        W10295  39.501  10.698   2.856
40415W        W10296   5.870  14.663  10.983
40416W        W10297  33.903  26.684   1.261
40417W        W10298  17.283   1.780  12.933
40418W        W10299  17.687  11.740   4.293
40419W        W10300  10.285  17.742  10.134
40420W        W10301  12.832   1.846  13.930
40421W        W10302   8.736  11.204  13.028
40422W        W10303   0.894   1.365  14.869
40423W        W10304  16.746  10.313  14.498
40424W        W10305  34.448   3.268  14.319
40425W        W10306   0.826  28.976   2.795
40426W        W10307  17.716  21.121  13.949
40427W        W10308  26.699  18.274  14.335
40428W        W10309  43.352  38.879   1.802
40429W        W10310  23.659   0.317  14.325
40430W        W10311  35.404  31.493  13.965
40431W        W10312  15.166  44.981  13.063
40432W        W10313  44.446   0.489  11.886
40433W        W10314   9.162  32.081  13.982
40434W        W10315  43.841  14.735  12.543
40435W        W10316  33.399  27.083   3.161
40436W        W10317  16.180  38.329   4.259
40437W        W10318  29.647  32.934   3.855
40438W        W10319   6.771  22.096   0.298
40439W        W10320  28.472  10.810   4.814
40440W        W10321  24.511  12.623  11.995
40441W        W10322   8.354   8.167  12.420
40442W        W10323  40.440  37.975  14.004
40443W        W10324  41.507  25.589   4.129
40444W        W10325  14.804  17.256  14.352
40445W        W10326  11.175  13.172  13.916
40446W        W10327  10.863  18.624   2.302
40447W        W10328  40.481   7.194  11.058
40448W        W10329   0.937   6.366   2.372
40449W        W10330  24.036  40.983  11.999
40450W        W10331   3.770  28.604  14.923
40451W        W10332   2.446   1.404  13.526
40452W        W10333   9.320  18.217   2.891
40453W        W10334   1.392  24.168  12.068
40454W        W10335  11.859  36.396   1.702
40455W        W10336  12.741  21.682  14.375
40456W        W10337  11.762  23.608   2.372
40457W        W10338  39.840  19.154  12.965
40458W        W10339  29.156  31.537   0.365
40459W        W10340  29.987  31.465  11.958
40460W        W10341  30.130  22.646   1.731
40461W        W10342  40.409  11.139  10.576
40462W        W10343   9.386  32.934  10.504
40463W        W10344  19.245  40.529  14.415
40464W        W10345   4.936  14.726  11.125
40465W        W10346  24.011   8.858  10.121
40466W        W10347  35.995   6.181  11.954
40467W        W10348   7.298   9.736  12.546
40468W        W10349  24.657  40.990   1.279
40469W        W10350  19.214  16.237   0.777
40470W        W10351  41.297  16.607   3.343
40471W        W10352   4.301  32.463  12.992
40472W        W10353  39.553  30.458   2.667
40473W        W10354  35.484  10.273   4.821
40474W        W10355  41.030  37.538   4.173
40475W        W10356  20.208   1.461  14.867
40476W        W10357  11.367  33.937  11.878
40477W        W10358  30.991  23.688   0.476
40478W        W10359  19.268   8.263   2.240
40479W        W10360  23.664  11.815   2.293
40480W        W10361  44.797  33.545   1.852
40481W        W10362  38.367  17.276   0.249
40482W        W10363  17.580   1.862   1.270
40483W        W10364  32.081  34.956  14.833
40484W        W10365  28.967  12.627   4.113
40485W        W10366  31.516  40.511   0.758
40486W        W10367  10.207  27.574  10.046
40487W        W10368  31.496  10.168   4.210
40488W        W10369  19.688  14.194  12.371
40489W        W10370   3.259  13.749   1.355
40490W        W10371   9.239   3.953   1.718
40491W        W10372   2.921   4.945  13.414
40492W        W10373  42.915   6.303  10.574
40493W        W10374  38.506   8.793  10.628
40494W        W10375  36.462   4.766  10.526
40495W        W10376  13.719  18.625  11.541
40496W        W10377  14.720  13.345   0.404
40497W        W10378  40.830   7.885   3.818
40498W        W10379  14.811  16.226  14.396
40499W        W10380   4.755  15.757  10.548
40500W        W10381  24.163  29.539   2.355
40501W        W10382  23.528  17.754   2.887
40502W        W10383  41.796   7.822   4.252
40503W        W10384   1.380  27.183  10.488
40504W        W10385  14.689  42.342   1.318
40505W        W10386   2.287  23.012  11.401
40506W        W10387  36.870  30.001   2.379
40507W        W10388  34.406  11.681   4.318
40508W        W10389  24.217  39.362  11.956
40509W        W10390   1.782  15.256  14.385
40510W        W10391  34.574  20.575  10.900
40511W        W10392  13.250   0.830   3.353
40512W        W10393  38.896  17.287  14.990
40513W        W10394  42.813  34.398   3.255
40514W        W10395   9.244  32.895  12.847
40515W        W10396  17.254   8.724  14.990
40516W        W10397  33.398  18.129  12.980
40517W        W10398  38.382  37.379  13.987
40518W        W10399  22.674  26.071  14.402
40519W        W10400   2.361   4.924   1.794
40520W        W10401  22.688  40.324   0.298
40521W        W10402  22.022  39.831   0.397
40522W        W10403   6.399  25.140   5.127
40523W        W10404  19.669   2.832   1.855
40524W        W10405  32.634   7.174  13.063
40525W        W10406  17.197  12.204   1.698
40526W        W10407  37.044   6.197   3.802
40527W        W10408  12.136  28.120  14.898
40528W        W10409  12.814  33.995  10.567
40529W        W10410  26.110  38.391  11.547
40530W        W10411  29.093  20.234   1.399
40531W        W10412  20.578  39.897   3.840
40532W        W10413   1.286   9.341   1.929
40533W        W10414  10.242   6.868  12.443
40534W        W10415   4.225  44.318  11.941
40535W        W10416  38.495  44.450   0.817
40536W        W10417   6.369  37.833   2.798
40537W        W10418  15.193  39.451   0.280
40538W        W10419  19.571   0.349  10.443
40539W        W10420   2.335  29.081   4.818
40540W        W10421  39.835  31.126   3.640
40541W        W10422  41.488   5.887   0.420
40542W        W10423  32.598  34.615   1.724
40543W        W10424   6.911   6.724   0.333
40544W        W10425  43.822   4.323  10.510
40545W        W10426  27.476  12.618   3.862
40546W        W10427  34.566  23.220   3.205
40547W        W10428  31.618   5.330  12.491
40548W        W10429  43.018  26.004   0.915
40549W        W10430  13.840  41.892   4.121
40550W        W10431  40.464   6.354   5.233
40551W        W10432  25.050   4.722  13.443
40552W        W10433  35.034  27.485   1.719
40553W        W10434   6.212  40.960  10.641
40554W        W10435  21.067  25.615   3.351
40555W        W10436  30.084   3.880   4.276
40556W        W10437   6.241  31.547  13.056
40557W        W10438   4.714  37.338   9.984
40558W        W10439   2.422   7.373   2.723
40559W        W10440  12.796  14.618   0.924
40560W        W10441  26.478  12.676   1.322
40561W        W10442  41.456  25.063   2.785
40562W        W10443  29.589   9.329  14.515
40563W        W10444  27.126  15.299   1.823
40564W        W10445  13.812  13.776   3.288
40565W        W10446  30.614  33.537   1.393
40566W        W10447  26.192  29.990   3.768
40567W        W10448  40.946  39.049  11.441
40568W        W10449  22.736  32.080   2.866
40569W        W10450  42.445   1.305   4.326
40570W        W10451  31.040  40.032   1.230
40571W        W10452   5.345   6.427   0.459
40572W        W10453   3.899   1.394  12.986
40573W        W10454  37.897  28.174   3.383
40574W        W10455  18.560  34.589  12.890
40575W        W10456   1.399  20.562   2.768
40576W        W10457   7.206  34.053  11.083
40577W        W10458  37.447  12.766   3.715
40578W        W10459  37.534  42.996  11.417
40579W        W10460   9.662  39.015   4.736
40580W        W10461  40.549  30.123  10.631
40581W        W10462  15.814  18.570   3.686
40582W        W10463  25.500  25.702   0.846
40583W        W10464   5.296   8.239   0.447
40584W        W10465  14.815  27.964  10.927
40585W        W10466  31.914  15.284  12.918
40586W        W10467  20.681   9.697  11.401
40587W        W10468  29.560  38.986  11.601
40588W        W10469  17.756   6.209   0.275
40589W        W10470  13.828  29.531   4.330
40590W        W10471  19.582   0.267   1.821
40591W        W10472   6.233  29.117   3.809
40592W        W10473   6.342   1.333  13.375
40593W        W10474  40.494  15.173  10.514
40594W        W10475  13.195  12.750   0.318
40595W        W10476   2.726  36.972   0.948
40596W        W10477  41.500  41.897  12.933
40597W        W10478  40.004  43.765   1.355
40598W        W10479  12.237   7.330   1.749
40599W        W10480   1.265  13.346  10.607
40600W        W10481   2.438   9.778   3.370
40601W        W10482  36.893  26.119  14.846
40602W        W10483   1.742  23.151  14.823
40603W        W10484   8.358  11.300  12.854
40604W        W10485  19.147   0.436  11.493
40605W        W10486  41.430  24.552  10.448
40606W        W10487  41.839  13.680  12.515
40607W        W10488  29.167   6.676   4.187
40608W        W10489  16.084   9.152  12.471
40609W        W10490  25.632  31.630   2.858
40610W        W10491  29.464   6.920   0.830
40611W        W10492  20.682  15.607  14.887
40612W        W10493  19.140  34.878  14.799
40613W        W10494   2.272  44.815   2.678
40614W        W10495  40.856  15.799  14.482
40615W        W10496  38.429  43.811  13.497
40616W        W10497  37.537   8.840  10.924
40617W        W10498  36.860  11.680   0.733
40618W        W10499  16.655  34.457  13.497
40619W        W10500  23.730  25.215  12.919
40620W        W10501  11.789  13.200  11.975
40621W        W10502  43.796  30.058  12.369
40622W        W10503  17.565   6.280   3.668
40623W        W10504  17.227  18.158   4.294
40624W        W10505  25.186   4.326   4.838
40625W        W10506  44.973  41.944  10.490
40626W        W10507  43.017  39.862  10.978
40627W        W10508  18.583  40.038  11.383
40628W        W10509  25.188   4.309   1.334
40629W        W10510  20.705  26.203   0.911
40630W        W10511   0.462  42.411   2.787
40631W        W10512   8.400  14.813  12.998
40632W        W10513  37.020  10.364   1.768
40633W        W10514  11.697  30.545   1.243
40634W        W10515  30.472  30.643   2.849
40635W        W10516  14.601  33.493   1.446
40636W        W10517   9.338  43.402   2.825
40637W        W10518  24.548  33.876  12.558
40638W        W10519  21.554  23.163  11.904
40639W        W10520  25.021   8.287   2.851
40640W        W10521  25.561   0.761   4.123
40641W        W10522  25.653  30.963   3.728
40642W        W10523   2.386  36.511  14.955
40643W        W10524   9.337  24.480   0.894
40644W        W10525  23.993  11.171  13.377
40645W        W10526  28.037  24.172   3.170
40646W        W10527  22.007   1.755   0.946
40647W        W10528  21.625  29.584   4.291
40648W        W10529  25.993  15.814   1.843
40649W        W10530  23.034   5.750  14.448
40650W        W10531  32.021  34.552   9.957
40651W        W10532  42.789  29.130  11.437
40652W        W10533  23.100   4.816   1.263
40653W        W10534   0.762  39.858  12.980
40654W        W10535  44.754  41.536   2.250
40655W        W10536  36.049   0.459   0.934
40656W        W10537  16.677  37.972  12.445
40657W        W10538  11.186  43.356  13.819
40658W        W10539  26.685  31.421   4.210
40659W        W10540  32.926  42.497   0.337
40660W        W10541  20.216  44.437  13.824
40661W        W10542  41.972  44.825  13.800
40662W        W10543  25.980  36.477  13.386
40663W        W10544   2.468  17.614   0.473
40664W        W10545  10.741  15.159   2.713
40665W        W10546   6.187  38.907  14.493
40666W        W10547  25.613  41.853   3.348
40667W        W10548  42.451  14.179  12.374
40668W        W10549   6.880   0.378   0.473
40669W        W10550  29.633   5.898  14.985
40670W        W10551  11.779  31.911   3.778
40671W        W10552  11.367  42.815   2.835
40672W        W10553  14.199   5.918   0.424
40673W        W10554  14.133  22.519   1.695
40674W        W10555   2.464  16.233   0.426
40675W        W10556  39.989   6.752   2.873
40676W        W10557  13.304  14.272   4.167
40677W        W10558  22.531  38.475  11.585
40678W        W10559  17.149  42.313  13.383
40679W        W10560  21.622   7.845   2.241
40680W        W10561  25.657  12.350   1.335
40681W        W10562  33.432  41.387  13.489
40682W        W10563  43.764  23.172  12.856
40683W        W10564  42.483  33.964   1.889
40684W        W10565  31.549  19.211   2.674
40685W        W10566  34.387  14.169   4.613
40686W        W10567  17.800  30.127   4.829
40687W        W10568   9.172  27.154   1.338
40688W        W10569  44.356   6.878  13.949
40689W        W10570   4.759  24.184  14.894
40690W        W10571  33.880   4.230   3.732
40691W        W10572  11.851  15.324   4.253
40692W        W10573  33.943  35.473  10.555
40693W        W10574   2.439  31.925  13.827
40694W        W10575  19.564  42.933  14.762
40695W        W10576  22.243  40.981  10.975
40696W        W10577  15.224   6.846  11.995
40697W        W10578  34.568  25.062   4.228
40698W        W10579  31.036  19.191   1.306
40699W        W10580  20.628  20.242   2.353
40700W        W10581  36.438  40.859   3.864
40701W        W10582  41.909  27.053   4.169
40702W        W10583  14.299  32.012  12.967
40703W        W10584  41.379   8.772  11.389
40704W        W10585  30.514  34.986  10.437
40705W        W10586  41.498  43.008  11.913
40706W        W10587  21.665   1.935   1.380
40707W        W10588  44.958  30.420  14.469
40708W        W10589  13.694   7.181  11.944
40709W        W10590  39.874  41.436   2.820
40710W        W10591   8.284  43.924  14.768
40711W        W10592   4.285  30.621   2.309
40712W        W10593   7.293  44.281  12.538
40713W        W10594   1.471  24.497   1.273
40714W        W10595  20.179  16.662  10.453
40715W        W10596  13.192  20.061   2.778
40716W        W10597  11.312  16.767   4.694
40717W        W10598   5.934  10.236   3.753
40718W        W10599  40.444   7.844  13.397
40719W        W10600  19.696  36.084  11.928
40720W        W10601  41.997  16.795   0.272
40721W        W10602   9.282   2.398  13.848
40722W        W10603  32.979  18.251   2.857
40723W        W10604  19.148  24.148   1.264
40724W        W10605  12.650   2.736  14.512
40725W        W10606   2.837  14.635  11.588
40726W        W10607  18.145  37.952  12.878
40727W        W10608  12.640   1.385   4.682
40728W        W10609   9.855  40.828   3.364
40729W        W10610  34.863  16.611  14.443
40730W        W10611  34.507  26.594   1.295
40731W        W10612  40.467  42.895  14.385
40732W        W10613  34.957  35.371  13.051
40733W        W10614  26.626  15.635  13.390
40734W        W10615  31.071  35.437  13.910
40735W        W10616  26.688  23.493  11.454
40736W        W10617  16.316  15.084  11.114
40737W        W10618  28.472  29.090  11.081
40738W        W10619  17.173  35.000  14.338
40739W        W10620   5.224  39.483  10.991
40740W        W10621  22.640   3.870   3.353
40741W        W10622  20.693  22.715  14.339
40742W        W10623  30.642  35.105   2.419
40743W        W10624  10.185  14.164   1.374
40744W        W10625  17.625  21.736   4.609
40745W        W10626  19.091   8.763   4.741
40746W        W10627  33.077  30.010   0.924
40747W        W10628  33.567  11.167  13.515
40748W        W10629  31.606  42.818  11.905
40749W        W10630  44.902   0.472  10.602
40750W        W10631  41.841   4.446   4.739
40751W        W10632  19.655  34.613   1.872
40752W        W10633   9.210   4.288  11.059
40753W        W10634   9.264  38.338  11.109
40754W        W10635   1.794  26.614  11.456
40755W        W10636   1.918   0.429  10.480
40756W        W10637  10.726  24.977  13.497
40757W        W10638   1.370  28.588   4.617
40758W        W10639  21.209   0.877  14.295
40759W        W10640  13.612   2.335  13.435
40760W        W10641  10.859  17.203   1.210
40761W        W10642  34.978  14.185   4.183
40762W        W10643  43.500  40.437  13.892
40763W        W10644  24.107  35.996  11.090
40764W        W10645  15.768  21.163   4.772
40765W        W10646  41.849  39.402   1.367
40766W        W10647   9.180  27.144   4.681
40767W        W10648  26.033  41.862   3.253
40768W        W10649  12.250   3.826   4.159
40769W        W10650  18.567  42.894  13.832
40770W        W10651   9.332   7.354  11.916
40771W        W10652  39.992   7.178   0.763
40772W        W10653  18.558  33.530  10.133
40773W        W10654  31.943   1.875  14.786
40774W        W10655  12.226  23.220   4.773
40775W        W10656   1.342   2.456  11.899
40776W        W10657   6.413  33.515  10.995
40777W        W10658  41.023  39.904  12.377
40778W        W10659   1.878  17.278   3.219
40779W        W10660   7.210  36.488   0.420
40780W        W10661   7.237   8.300   0.452
40781W        W10662   2.883  40.548  13.508
40782W        W10663  25.565  13.139  14.899
40783W        W10664  39.968   9.350  12.863
40784W        W10665  40.015  42.310  13.814
40785W        W10666  32.399  16.736   5.124
40786W        W10667  21.620  15.696   2.692
40787W        W10668  11.249  13.658   3.690
40788W        W10669  43.786  36.063  12.008
40789W        W10670  20.690   4.416   2.414
40790W        W10671  31.404  27.643  12.935
40791W        W10672  34.960  37.559   1.256
40792W        W10673  10.696  30.122  10.094
40793W        W10674  29.074  42.518  10.599
40794W        W10675  39.970  11.663   0.263
40795W        W10676   7.259  32.024   2.689
40796W        W10677  34.016  12.183  14.850
40797W        W10678  39.939  36.885  14.787
40798W        W10679  17.127  40.853   3.647
40799W        W10680  23.490   5.860  14.313
40800W        W10681  29.942  20.729   1.377
40801W        W10682  13.600  36.463  14.951
40802W        W10683  20.624  32.944  13.313
40803W        W10684  34.557   7.823  14.955
40804W        W10685  31.926  44.491  14.881
40805W        W10686  14.732   4.764   2.700
40806W        W10687  38.379  16.804   3.650
40807W        W10688   8.333  13.793   0.935
40808W        W10689  44.263  22.121  11.586
40809W        W10690  14.637   7.756  11.008
40810W        W10691  21.171   8.847  14.855
40811W        W10692  33.485  32.019   5.142
40812W        W10693  26.697   5.260  14.783
40813W        W10694  43.918   7.327   3.212
40814W        W10695  32.549  11.282   1.916
40815W        W10696  25.964  29.923   0.447
40816W        W10697  29.601  11.699   1.888
40817W        W10698  30.038  15.721   4.804
40818W        W10699   2.343  43.454   2.763
40819W        W10700  34.508  40.882  11.902
40820W        W10701   4.251  12.179   3.720
40821W        W10702  34.885  21.172  11.373
40822W        W10703  28.668  36.526  11.540
40823W        W10704  24.559  32.965   3.177
40824W        W10705   7.293  16.656   0.343
40825W        W10706  32.960  10.347  10.625
40826W        W10707  37.374  41.373  13.354
40827W        W10708  28.560  42.792  11.542
40828W        W10709   6.200  38.959  12.373
40829W        W10710  38.376  40.481   4.745
40830W        W10711  11.705  14.825  10.450
40831W        W10712   4.219  32.586   3.192
40832W        W10713  16.136  32.488  11.020
40833W        W10714  22.073  11.852  12.541
40834W        W10715  35.475   4.809   3.226
40835W        W10716  25.964  29.607  10.512
40836W        W10717  40.507  12.318  11.917
40837W        W10718  13.337   7.887   4.131
40838W        W10719   4.782  34.886   2.228
40839W        W10720  29.530  20.154   1.926
40840W        W10721  31.084   3.905   2.832
40841W        W10722  29.474  28.098  14.928
40842W        W10723  10.713  33.521  10.083
40843W        W10724  21.741   3.902  10.935
40844W        W10725  35.865  26.598  11.030
40845W        W10726  20.693  21.536  11.374
40846W        W10727  22.703  24.713  11.459
40847W        W10728  42.945  28.453   0.461
40848W        W10729  38.499  20.603   4.127
40849W        W10730  34.371  40.545   1.421
40850W        W10731  27.464  37.477   0.251
40851W        W10732  33.414   4.891   0.460
40852W        W10733  18.072  15.645  13.820
40853W        W10734  31.634  27.952   2.883
40854W        W10735   9.181  31.567  14.977
40855W        W10736   5.860  40.998  13.418
40856W        W10737   3.945   7.666   4.740
40857W        W10738  38.430  13.810  13.421
40858W        W10739  15.168  37.069   2.677
40859W        W10740  19.544  43.405  12.031
40860W        W10741  27.509  41.431  11.451
40861W        W10742  22.051  17.771   1.231
40862W        W10743  12.147  14.239  13.816
40863W        W10744  19.198  40.347   3.280
40864W        W10745  39.360   0.348  13.928
40865W        W10746   2.806  27.483   0.962
40866W        W10747  35.900   9.661   3.320
40867W        W10748  32.479   8.379  10.900
40868W        W10749  42.327  13.155   3.857
40869W        W10750  25.653   1.822   4.835
40870W        W10751  11.185  43.835   0.355
40871W        W10752   5.927  24.638   0.386
40872W        W10753  23.083  23.133  14.927
40873W        W10754   5.927   3.786   0.406
40874W        W10755  11.204  18.263   2.690
40875W        W10756  31.402  36.979  13.897
40876W        W10757   1.741  12.262   3.146
40877W        W10758  40.379  11.665   3.721
40878W        W10759  40.866  13.684  12.007
40879W        W10760  16.096  43.790   4.340
40880W        W10761  26.603  32.586  11.487
40881W        W10762   3.938   3.946  10.511
40882W        W10763  31.410  29.604  13.818
40883W        W10764  17.561  21.210   2.845
40884W        W10765  37.938   8.347   1.880
40885W        W10766  15.714  42.994   3.634
40886W        W10767  20.599  44.950   1.337
40887W        W10768  42.333  31.928   3.834
40888W        W10769  33.535  13.836   3.296
40889W        W10770  23.040  28.998   4.345
40890W        W10771   6.207  13.770  11.874
40891W        W10772  30.492  24.545   3.335
40892W        W10773   3.939  12.684   2.666
40893W        W10774  26.569  20.722  13.512
40894W        W10775   2.921  38.376   2.862
40895W        W10776  30.610  37.390   3.660
40896W        W10777   0.391  31.917   2.380
40897W        W10778  14.235  21.539   1.355
40898W        W10779  35.006   2.847  11.972
40899W        W10780  38.567   1.907   0.366
40900W        W10781  18.162  40.803  14.296
40901W        W10782  23.547  40.044  14.004
40902W        W10783  32.887  26.997   2.725
40903W        W10784  18.745  15.244   0.922
40904W        W10785  35.501  39.970  12.507
40905W        W10786  29.989   6.374  11.904
40906W        W10787  22.102  39.956  11.420
40907W        W10788  24.553  42.003   1.729
40908W        W10789  28.079  33.024  11.007
40909W        W10790  38.508  42.323   1.723
40910W        W10791  35.053   8.214  13.506
40911W        W10792   0.315  31.600  14.363
40912W        W10793   1.418  23.172   1.437
40913W        W10794   9.812  13.649  14.457
40914W        W10795   4.722  26.012   3.800
40915W        W10796  19.640  12.248  11.406
40916W        W10797   9.347  38.423  12.557
40917W        W10798   5.228   8.756  11.875
40918W        W10799  16.701  36.555   0.759
40919W        W10800   5.402   3.845   1.238
40920W        W10801  33.542  36.996   3.281
40921W        W10802  22.249   3.334   2.417
40922W        W10803  24.201  41.439  12.991
40923W        W10804  11.230  26.553  11.983
40924W        W10805   0.849  25.212   0.461
40925W        W10806  42.423   0.899   4.183
40926W        W10807   2.365  44.342  12.915
40927W        W10808  43.967   5.918  11.610
40928W        W10809  35.555  41.874  12.482
40929W        W10810  10.731  30.487  14.468
40930W        W10811  12.255  14.797  14.459
40931W        W10812   3.285  36.476   0.871
40932W        W10813  11.851  10.823   0.381
40933W        W10814  38.345  28.010   0.877
40934W        W10815  43.812   2.256  11.582
40935W        W10816  37.903  37.454  11.509
40936W        W10817  27.540   9.841   4.613
40937W        W10818   0.249  14.278   4.624
40938W        W10819   0.857  14.180   9.969
40939W        W10820  30.040   3.441   4.752
40940W        W10821  36.064   2.816  11.474
40941W        W10822  43.483  29.504   4.236
40942W        W10823   9.172  22.226   2.253
40943W        W10824   1.339  41.488   1.417
40944W        W10825  37.567  22.225   4.303
40945W        W10826  28.589  32.984  14.302
40946W        W10827  22.644  15.669  10.506
40947W        W10828  40.331  36.099   0.807
40948W        W10829  13.660  44.259  14.428
40949W        W10830  26.489  12.162  13.906
40950W        W10831   7.357  42.917  11.077
40951W        W10832  10.330  22.537   0.335
40952W        W10833  44.930   5.433  12.537
40953W        W10834  12.324   0.259   1.866
40954W        W10835  35.391   3.777   2.837
40955W        W10836  28.135  14.782   2.803
40956W        W10837   4.261   3.243   2.680
40957W        W10838  41.472   3.333  12.007
40958W        W10839  35.979  28.621  12.411
40959W        W10840   9.726   8.664   1.324
40960W        W10841  35.073  33.392   3.200
40961W        W10842  28.042   7.909   3.707
40962W        W10843  44.428  31.519   0.394
40963W        W10844  33.975   4.879   9.928
40964W        W10845  42.482  36.923   2.727
40965W        W10846  17.276  44.783  14.394
40966W        W10847  33.893  42.491   2.364
40967W        W10848   1.366  14.197  12.388
40968W        W10849  34.078   2.726  14.031
40969W        W10850  42.031  23.085   2.714
40970W        W10851  27.974  14.747  11.928
40971W        W10852  42.340  13.242  11.112
40972W        W10853   4.296  18.600  13.418
40973W        W10854  32.493  41.978  14.864
40974W        W10855   4.887  28.004  12.563
40975W        W10856   7.244  12.722   2.868
40976W        W10857  23.004  36.003  14.978
40977W        W10858  19.746  18.750   3.727
40978W        W10859  19.733   2.928  12.358
40979W        W10860  28.011  44.393   0.732
40980W        W10861  25.703   4.874  14.371
40981W        W10862  33.474  18.086   2.676
40982W        W10863  33.944  15.790   3.221
40983W        W10864  14.685   2.901   2.245
40984W        W10865  10.370  11.365   0.729
40985W        W10866   3.955   6.917  12.341
40986W        W10867  34.074  31.457  13.339
40987W        W10868  13.629   2.763  13.878
40988W        W10869  43.433  32.494   4.609
40989W        W10870  44.837  44.916  12.939
40990W        W10871  10.273   2.933  14.019
40991W        W10872  38.418  28.634  10.514
40992W        W10873  17.659  18.269  10.474
40993W        W10874  10.767  20.061  14.892
40994W        W10875   2.798  26.696  12.964
40995W        W10876   7.290  25.103   2.266
40996W        W10877  34.562  26.639   0.732
40997W        W10878  19.669  43.966   5.787
40998W        W10879   7.398  26.636  11.869
40999W        W10880  34.035  17.626  13.349
41000W        W10881   6.186   3.816   4.608
41001W        W10882  30.522  38.927  11.592
41002W        W10883  13.770  17.073  13.494
41003W        W10884   1.806  31.909  13.057
41004W        W10885  34.517  12.646  12.046
41005W        W10886   2.375  13.796   0.865
41006W        W10887  24.111   1.901   2.293
41007W        W10888  35.086   4.227   2.186
41008W        W10889  31.143  29.155  13.801
41009W        W10890  16.306  19.598  10.628
41010W        W10891  15.597  26.457  11.404
41011W        W10892  24.225  12.770  10.417
41012W        W10893  35.858  21.159   4.258
41013W        W10894  31.577  11.304   0.456
41014W        W10895   2.833  40.051   4.346
41015W        W10896  19.146  22.548   1.228
41016W        W10897  19.059  15.664   2.226
41017W        W10898  39.838  14.790   4.798
41018W        W10899  28.970  37.022  10.533
41019W        W10900  19.582  14.262  11.087
41020W        W10901  12.731  19.242   4.305
41021W        W10902  27.651  13.253   0.433
41022W        W10903  33.385  35.436  11.972
41023W        W10904  18.556   0.816  11.538
41024W        W10905   5.780  30.009   3.304
41025W        W10906   5.914  35.597  11.480
41026W        W10907  22.568  10.379   1.781
41027W        W10908  23.532  29.008  10.588
41028W        W10909  29.032  27.463   3.737
41029W        W10910  18.184  18.241   0.794
41030W        W10911  22.078  38.989   2.849
41031W        W10912  30.105   5.321   0.447
41032W        W10913   0.764  19.068  10.961
41033W        W10914  39.338  42.800   3.153
41034W        W10915  24.478  38.821  11.386
41035W        W10916  12.253  20.244  12.911
41036W        W10917  28.443   7.878  13.836
41037W        W10918  37.391   5.263  10.574
41038W        W10919  26.614  40.454  11.551
41039W        W10920  13.262  20.642   2.901
41040W        W10921   9.732  14.243   3.350
41041W        W10922  37.408  10.677  11.418
41042W        W10923  27.156  17.302  14.304
41043W        W10924  20.258  44.995   2.399
41044W        W10925  25.698  37.889  11.503
41045W        W10926   4.407  44.381  12.358
41046W        W10927  41.376  17.220   4.624
41047W        W10928  17.619  17.297   2.197
41048W        W10929   7.340  32.003   2.406
41049W        W10930  35.537  15.199  13.372
41050W        W10931   9.669   1.830   0.414
41051W        W10932   0.444  15.233   4.123
41052W        W10933  41.523  14.703   4.262
41053W        W10934  31.581  12.786   1.318
41054W        W10935  13.152  12.271  10.987
41055W        W10936   9.309  16.306   3.256
41056W        W10937  42.498  34.605  12.885
41057W        W10938  21.522  42.448   1.251
41058W        W10939  27.570   3.340  10.580
41059W        W10940  43.454  34.509  10.034
41060W        W10941  23.647   5.788   2.327
41061W        W10942  17.633  38.409  13.440
41062W        W10943  23.216  42.857   3.868
41063W        W10944  10.225  17.222   0.270
41064W        W10945  38.017   0.254  12.012
41065W        W10946   1.953  18.296  13.460
41066W        W10947  15.136  35.559  14.800
41067W        W10948   3.757   6.208  12.049
41068W        W10949  29.063  31.498   0.727
41069W        W10950  13.121  32.582  13.833
41070W        W10951  36.953  31.050   2.226
41071W        W10952   9.857   4.232  12.874
41072W        W10953  36.094  24.648  11.968
41073W        W10954  36.006  16.076   4.615
41074W        W10955  37.899  44.297   1.376
41075W        W10956   9.691  38.539  14.771
41076W        W10957  30.061  24.022  10.935
41077W        W10958  11.738  35.399   2.257
41078W        W10959  39.048   0.744  13.816
41079W        W10960  40.549   6.261  10.410
41080W        W10961   9.320  43.475  10.594
41081W        W10962  42.953   1.959   0.371
41082W        W10963   8.867  40.307   2.349
41083W        W10964  32.609   1.825   3.695
41084W        W10965   3.343  40.433  14.780
41085W        W10966  42.902   1.371  13.861
41086W        W10967  21.585  27.676  10.900
41087W        W10968  33.981  17.580  10.559
41088W        W10969  34.566  22.219  11.090
41089W        W10970  32.502  22.569   2.743
41090W        W10971  42.796  28.140   5.122
41091W        W10972  37.963  44.344   3.829
41092W        W10973  24.566  29.062  12.860
41093W        W10974  22.018  42.893  14.973
41094W        W10975  39.063  26.649   0.951
41095W        W10976   3.456   9.324   2.366
41096W        W10977  17.194  19.580   2.778
41097W        W10978  33.917  33.937  11.999
41098W        W10979  40.999  12.841  13.329
41099W        W10980  24.628  39.995  14.333
41100W        W10981   7.694  15.267   4.236
41101W        W10982  19.777  28.020   2.303
41102W        W10983   5.397  12.650   1.856
41103W        W10984   2.774  35.934  14.905
41104W        W10985  31.420  44.873   3.279
41105W        W10986  24.222  36.590   3.759
41106W        W10987  11.779   2.806   2.741
41107W        W10988  26.999  34.106  10.995
41108W        W10989  31.496  41.480   2.677
41109W        W10990  21.522   7.346   0.461
41110W        W10991   5.413  43.351  13.341
41111W        W10992  29.651  24.083   2.384
41112W        W10993  11.738  28.995  11.600
41113W        W10994  34.903   9.772   4.249
41114W        W10995   1.470  18.734  13.548
41115W        W10996  41.320  42.428   2.343
41116W        W10997  27.198  15.583  12.876
41117W        W10998  14.203  16.125  10.557
41118W        W10999  44.494  32.404   2.285
41119W        W11000  32.452  17.082   3.808
41120W        W11001  42.331  38.496   0.952
41121W        W11002  32.517  35.865   2.735
41122W        W11003  18.058   0.773  13.842
41123W        W11004  18.091  42.989   3.276
41124W        W11005   1.481  42.994   2.841
41125W        W11006  41.851  28.556  13.530
41126W        W11007  43.965  11.682   2.356
41127W        W11008  32.445   2.294  12.002
41128W        W11009   9.235  29.032   1.356
41129W        W11010  27.040  41.868  10.638
41130W        W11011   6.228  34.534   1.854
41131W        W11012  37.059  21.609   3.699
41132W        W11013  35.051  36.902  14.299
41133W        W11014  40.522  38.369  14.425
41134W        W11015  40.878  18.753   4.793
41135W        W11016  30.588  25.489  12.878
41136W        W11017  31.150  20.682  12.830
41137W        W11018  24.207  33.949  12.984
41138W        W11019  30.485  22.523   2.877
41139W        W11020  37.527  40.334   0.939
41140W        W11021  39.826  35.506  10.900
41141W        W11022  37.074   7.381   3.275
41142W        W11023  22.167  29.480   3.327
41143W        W11024  37.477   2.748  13.033
41144W        W11025  14.121  24.216  12.880
41145W        W11026  25.987  43.512   0.345
41146W        W11027  23.662  14.212  13.902
41147W        W11028   6.814  11.638   1.336
41148W        W11029  16.681  44.933   3.257
41149W        W11030   9.253  32.939   3.717
41150W        W11031  31.478   6.217   2.303
41151W        W11032  33.954  14.206   1.345
41152W        W11033  43.384   1.301  13.957
41153W        W11034   9.774   4.818  14.961
41154W        W11035  24.583   3.379   3.363
41155W        W11036  14.139  19.265  12.009
41156W        W11037   0.383  34.453  14.957
41157W        W11038   2.879  20.156   3.653
41158W        W11039  17.241  19.640   2.263
41159W        W11040   6.713  12.258  13.824
41160W        W11041  34.607  16.705   2.879
41161W        W11042  25.698   4.703  11.909
41162W        W11043   2.401  15.215  12.479
41163W        W11044  35.375  35.570   2.302
41164W        W11045  33.051  22.243  12.467
41165W        W11046  22.080  22.640   2.792
41166W        W11047   5.863   7.243  12.946
41167W        W11048  23.169  19.541   5.291
41168W        W11049  25.604   9.286   2.778
41169W        W11050   9.659  13.737   3.270
41170W        W11051  32.934  20.157  14.346
41171W        W11052   7.876  13.763  11.507
41172W        W11053  15.760   0.410  11.460
41173W        W11054  29.928  31.469   4.117
41174W        W11055  10.193   1.864  11.519
41175W        W11056   6.698  20.603  13.975
41176W        W11057   7.691  31.121  11.118
41177W        W11058  13.166  39.474   5.196
41178W        W11059   9.818  30.439  13.047
41179W        W11060  12.697   4.935  13.852
41180W        W11061  10.173  39.810  14.502
41181W        W11062  33.492  39.971   4.765
41182W        W11063  13.762   2.846  10.409
41183W        W11064  43.908  17.108   1.380
41184W        W11065  14.269   3.849   4.316
41185W        W11066  33.522  14.197  12.478
41186W        W11067  33.132  34.461  10.605
41187W        W11068  39.443  43.314  14.353
41188W        W11069  33.101  13.771   0.396
41189W        W11070   9.774  35.897   3.298
41190W        W11071  21.560  13.791   4.184
41191W        W11072  12.305  26.956   0.373
41192W        W11073  12.246  41.419  14.921
41193W        W11074  38.863  43.365   3.304
41194W        W11075  23.503  30.930   1.221
41195W        W11076   9.323  16.732   4.338
41196W        W11077  17.176  40.026   2.889
41197W        W11078  44.907  42.445  12.564
41198W        W11079  24.485  24.094  10.956
41199W        W11080  30.081  25.154   3.175
41200W        W11081  15.210  42.489   0.338
41201W        W11082   6.196   3.757  12.849
41202W        W11083  37.954  43.395  12.561
41203W        W11084  23.595  38.494  13.378
41204W        W11085  22.651  29.093   4.654
41205W        W11086  10.634   1.959  12.392
41206W        W11087  35.901  33.920  13.973
41207W        W11088  21.159  19.285  10.129
41208W        W11089   4.784  11.763   0.820
41209W        W11090  34.967  20.599   4.609
41210W        W11091  34.508   0.305   3.235
41211W        W11092  15.089  41.894   4.649
41212W        W11093  36.004  35.907  13.859
41213W        W11094   4.414   6.853  12.033
41214W        W11095   3.773  35.094  12.515
41215W        W11096   9.322   9.389   0.967
41216W        W11097  19.199  23.153  10.424
41217W        W11098  14.698  44.262   2.898
41218W        W11099  41.377  10.286  12.935
41219W        W11100   5.702  10.845  12.892
41220W        W11101   3.947  27.657   1.796
41221W        W11102  15.259  43.325  14.784
41222W        W11103   0.483   0.427  14.761
41223W        W11104  28.033  44.998  12.427
41224W        W11105  39.879  29.583  12.884
41225W        W11106  40.440  16.218   2.239
41226W        W11107  11.134  30.926  13.973
41227W        W11108  12.284  28.935  13.488
41228W        W11109  26.683  10.782  10.487
41229W        W11110  44.793  18.714   2.417
41230W        W11111  33.496  44.285  11.931
41231W        W11112  44.438   6.224   4.171
41232W        W11113  21.097   9.675  13.372
41233W        W11114   1.392  15.214   3.222
41234W        W11115  23.156  28.492   2.189
41235W        W11116  36.016  21.221  12.468
41236W        W11117  28.033   7.832   4.822
41237W        W11118  38.872  40.396  11.069
41238W        W11119   1.302  27.584   3.654
41239W        W11120  42.833  10.228   3.761
41240W        W11121  34.064  43.455   3.346
41241W        W11122   9.825   2.797  10.970
41242W        W11123  25.066   1.244  13.832
41243W        W11124  41.012   4.704  13.509
41244W        W11125  27.494  36.005   3.675
41245W        W11126   8.238  21.642   0.245
41246W        W11127   5.394  25.580   1.832
41247W        W11128   5.739   6.731   1.754
41248W        W11129   0.280  36.572  11.062
41249W        W11130  10.285   2.906  11.097
41250W        W11131  20.073  36.502   0.794
41251W        W11132  12.234  36.084  10.481
41252W        W11133   9.870  14.662   2.230
41253W        W11134  40.873  23.508  11.127
41254W        W11135  35.029  29.945   4.260
41255W        W11136  15.137  36.492  12.572
41256W        W11137  17.242  35.583  11.951
41257W        W11138   6.333   5.250  14.315
41258W        W11139  19.255  35.441   0.423
41259W        W11140  17.749   0.935   4.170
41260W        W11141  40.480  27.147   0.873
41261W        W11142  11.716  33.013  10.910
41262W        W11143  29.536  22.575   3.221
41263W        W11144  34.870  26.506   5.106
41264W        W11145  31.928  20.671  11.421
41265W        W11146  31.506  28.593   3.719
41266W        W11147  15.680  28.520  11.530
41267W        W11148  33.081  15.677  13.459
41268W        W11149  40.428  23.634  14.886
41269W        W11150  25.475   9.856   3.371
41270W        W11151  41.795  21.525  11.925
41271W        W11152  37.582  21.141   0.912
41272W        W11153   6.868   8.390  11.125
41273W        W11154  30.945  17.202   0.352
41274W        W11155  32.594  42.395  14.977
41275W        W11156   4.437  12.643  10.917
41276W        W11157   0.296  37.012   3.797
41277W        W11158  42.472  33.952   1.384
41278W        W11159  12.677  25.569  12.994
41279W        W11160  28.171  22.716  10.149
41280W        W11161  36.349  34.929   4.299
41281W        W11162  36.589   5.787   3.353
41282W        W11163  39.847  30.908  12.494
41283W        W11164  19.233  17.648   0.771
41284W        W11165  11.151  17.162  12.890
41285W        W11166  27.457   4.226  11.875
41286W        W11167  40.405  24.492  14.764
41287W        W11168  38.413  35.395  14.343
41288W        W11169  44.994  37.425  12.080
41289W        W11170  20.573  25.175   3.271
41290W        W11171   4.270  33.592   1.884
41291W        W11172   3.369  17.139   4.131
41292W        W11173  22.009  26.037   2.332
41293W        W11174  26.671   6.199   3.843
41294W        W11175  19.268   8.677  10.617
41295W        W11176  16.766  22.512   1.439
41296W        W11177  31.441  41.385  14.985
41297W        W11178  17.172  19.169  13.454
41298W        W11179  35.030  37.459  11.917
41299W        W11180  43.393  16.298   0.804
41300W        W11181  27.106  34.928   0.415
41301W        W11182  12.304   7.187   4.266
41302W        W11183  24.008  29.125  14.424
41303W        W11184  24.708  17.687   1.388
41304W        W11185  27.968  26.675   2.349
41305W        W11186  43.876   2.859   0.440
41306W        W11187  19.569  13.152  11.415
41307W        W11188  39.989  28.165   2.774
41308W        W11189  20.606  34.919  14.958
41309W        W11190  30.147   0.470   4.269
41310W        W11191  26.587  27.982  10.536
41311W        W11192  12.768  30.572  14.827
41312W        W11193  43.967  31.008  10.475
41313W        W11194  15.707  17.235   1.790
41314W        W11195   3.901  20.741  14.417
41315W        W11196  10.311  40.407  13.331
41316W        W11197  14.820   2.301  14.876
41317W        W11198  32.977   7.385   3.694
41318W        W11199  14.719  36.418   3.682
41319W        W11200  13.666  28.474   2.408
41320W        W11201  30.031   5.707   4.601
41321W        W11202  36.434   7.377   2.819
41322W        W11203  23.578  40.446   2.368
41323W        W11204  10.361  42.791  14.355
41324W        W11205  30.623  34.869   1.713
41325W        W11206   4.448   6.424  11.975
41326W        W11207  18.669   5.776   1.388
41327W        W11208  14.721  36.376  10.467
41328W        W11209  13.793  17.079   2.279
41329W        W11210  16.571   9.879  10.904
41330W        W11211  13.338  33.914   3.734
41331W        W11212  34.032   2.468  11.945
41332W        W11213  44.355  32.963   1.357
41333W        W11214  43.316   1.319  13.359
41334W        W11215  28.459  15.633  14.899
41335W        W11216  23.728   1.277  12.089
41336W        W11217  15.802  15.652  14.910
41337W        W11218   1.836  16.229   4.693
41338W        W11219  41.877  44.273   3.313
41339W        W11220  39.501  43.435  14.999
41340W        W11221  37.541   8.217   4.703
41341W        W11222  27.470  10.329  12.474
41342W        W11223  24.630  43.321   3.181
41343W        W11224   0.788  16.712  11.032
41344W        W11225  20.741   1.411   5.700
41345W        W11226  25.062  12.659   3.722
41346W        W11227  22.636   1.349  11.979
41347W        W11228  30.520  31.577  12.366
41348W        W11229  19.239   9.836  11.886
41349W        W11230  32.563   0.267   3.782
41350W        W11231  18.634  22.501   4.728
41351W        W11232  37.431  32.961  11.026
41352W        W11233  25.529  44.389   3.773
41353W        W11234  39.512  29.661  11.942
41354W        W11235  33.494  37.529  11.057
41355W        W11236  23.671  21.124  12.577
41356W        W11237  43.381  29.980  11.528
41357W        W11238  16.683  41.440  14.368
41358W        W11239  26.575  17.739  11.560
41359W        W11240  42.342  18.177  12.423
41360W        W11241  21.148  42.933   4.717
41361W        W11242  35.530  41.504   0.482
41362W        W11243   7.322  27.669   0.460
41363W        W11244  31.948  14.734  10.899
41364W        W11245  31.073  22.235  14.503
41365W        W11246  17.174  30.013   1.233
41366W        W11247  31.949  44.930   3.212
41367W        W11248  18.167  43.484   0.287
41368W        W11249  28.442  11.776   2.850
41369W        W11250  19.103  39.451   2.238
41370W        W11251   1.887  41.925   4.816
41371W        W11252  28.035   4.443   3.711
41372W        W11253  17.713  34.561   4.788
41373W        W11254   6.383  28.930  13.955
41374W        W11255  25.164  37.972  14.400
41375W        W11256  26.638  11.242   2.767
41376W        W11257  43.975  28.492  13.370
41377W        W11258  36.968  30.984   1.340
41378W        W11259  11.748  14.278   3.698
41379W        W11260   2.845  42.437  14.807
41380W        W11261  30.417  26.666   2.203
41381W        W11262  34.465  15.236   4.635
41382W        W11263  19.208  14.604  12.573
41383W        W11264   1.900  39.397   2.752
41384W        W11265  15.096  20.143  11.963
41385W        W11266   5.375   8.720  13.978
41386W        W11267  33.040  29.922   4.728
41387W        W11268   9.365  27.008  10.570
41388W        W11269  40.018  44.908  11.128
41389W        W11270   8.194   6.807  14.366
41390W        W11271  38.558  24.663  12.895
41391W        W11272  35.073  42.312  14.479
41392W        W11273   0.282  19.137  14.952
41393W        W11274  18.135  22.739  11.863
41394W        W11275  15.088  22.131  13.375
41395W        W11276   4.921   0.478  14.841
41396W        W11277  30.577   8.901   1.247
41397W        W11278  15.739  36.563  13.997
41398W        W11279   0.929   2.340  10.643
41399W        W11280  44.978  13.154  11.129
41400W        W11281   0.777  16.568  10.121
41401W        W11282   8.713  30.563   2.663
41402W        W11283  11.716  24.147   1.263
41403W        W11284  39.547   6.840  12.946
41404W        W11285   7.793  14.714  12.493
41405W        W11286   8.766  14.755   4.676
41406W        W11287  41.823  40.384  10.551
41407W        W11288  32.472  34.569   4.732
41408W        W11289  28.462  28.974  12.019
41409W        W11290  37.861  13.696   3.819
41410W        W11291  41.900  21.745  14.927
41411W        W11292  29.980  28.674   1.419
41412W        W11293  29.033  35.969   3.197
41413W        W11294  30.485  15.645   3.309
41414W        W11295  10.153   7.704  14.354
41415W        W11296  28.565  18.701  11.016
41416W        W11297   4.742  15.647  14.389
41417W        W11298  11.665   4.208   2.876
41418W        W11299   0.966   2.882  13.803
41419W        W11300  19.734  19.158   4.671
41420W        W11301  41.470  40.533   0.303
41421W        W11302  21.558  13.291   3.788
41422W        W11303  29.662  32.130   3.288
41423W        W11304  14.643  27.481  12.519
41424W        W11305   6.784   1.922  12.952
41425W        W11306   6.249   8.850   4.246
41426W        W11307  16.234  35.926   5.170
41427W        W11308   5.848  39.549   0.420
41428W        W11309  19.536  44.882  13.040
41429W        W11310  36.040  17.751  11.895
41430W        W11311  25.056   5.193   3.727
41431W        W11312   8.675  41.851  12.061
41432W        W11313   2.735  20.540  14.920
41433W        W11314  37.995  43.376   4.824
41434W        W11315  41.508   4.206  10.428
41435W        W11316   6.714  16.672   1.905
41436W        W11317   4.932  28.603   1.838
41437W        W11318  23.644  38.433   4.791
41438W        W11319  27.660  22.095  10.630
41439W        W11320  10.207  41.961  12.429
41440W        W11321  32.916  37.484   4.627
41441W        W11322  38.049   6.897  10.631
41442W        W11323  23.674  44.992   3.776
41443W        W11324  22.728   7.673   4.805
41444W        W11325  16.242  23.080  11.901
41445W        W11326   1.469  28.939  11.518
41446W        W11327  10.332  21.180  12.991
41447W        W11328  43.943  37.502  12.087
41448W        W11329   8.239   5.849  12.013
41449W        W11330  41.924  43.328  13.876
41450W        W11331  26.514  42.905   1.916
41451W        W11332  37.922  33.522  13.832
41452W        W11333  41.883  18.262   4.131
41453W        W11334  17.614  27.461   1.363
41454W        W11335  18.637  36.085   5.279
41455W        W11336  16.679   7.278  11.470
41456W        W11337   2.868  33.482   4.683
41457W        W11338  10.813  37.066   0.404
41458W        W11339  17.264  25.532  13.813
41459W        W11340  32.526  24.632   1.371
41460W        W11341  12.672  28.629  10.546
41461W        W11342  42.400  36.968   0.963
41462W        W11343  43.408   2.779  11.000
41463W        W11344  24.195  26.951   3.790
41464W        W11345  27.646  30.464   0.895
41465W        W11346  22.544  29.560   0.967
41466W        W11347  18.103   3.764  12.468
41467W        W11348  21.169   4.262  14.981
41468W        W11349  16.222   1.454  12.865
41469W        W11350  10.288  38.064  13.520
41470W        W11351   7.697  29.017  10.089
41471W        W11352  38.062  44.259   4.714
41472W        W11353   0.877  24.699  10.926
41473W        W11354  25.159  42.492   4.763
41474W        W11355  23.679   9.747   4.308
41475W        W11356  14.183  43.465  14.859
41476W        W11357  43.838   3.314   5.131
41477W        W11358  18.124  42.780  13.527
41478W        W11359  40.834  15.801  11.406
41479W        W11360   7.332  29.659  10.501
41480W        W11361  31.001   4.318   3.278
41481W        W11362  29.970   8.162   2.352
41482W        W11363  32.493  44.333   9.957
41483W        W11364  22.625  24.049  14.777
41484W        W11365   3.861  34.991  14.871
41485W        W11366  17.236  27.535   4.778
41486W        W11367  23.668  39.969   0.344
41487W        W11368  12.728  41.016  13.501
41488W        W11369  36.957   8.661   2.363
41489W        W11370  29.970   8.290   4.125
41490W        W11371  20.586   3.394   4.738
41491W        W11372   4.217  15.161   1.791
41492W        W11373  41.862  26.686  11.965
41493W        W11374  36.585  43.319  13.356
41494W        W11375  30.162  12.851  13.033
41495W        W11376   2.428  14.713   3.262
41496W        W11377   4.359  10.367  13.060
41497W        W11378  42.377  12.266   2.764
41498W        W11379  26.023  44.908  14.866
41499W        W11380  32.472  42.866   3.714
41500W        W11381  34.510  29.945  10.980
41501W        W11382  24.208  10.183  14.850
41502W        W11383   2.320  30.518   4.249
41503W        W11384  33.975  26.620  10.408
41504W        W11385  24.182  33.575  13.932
41505W        W11386  27.477  31.550  11.864
41506W        W11387  42.896  27.630  13.932
41507W        W11388  13.143  25.079   0.868
41508W        W11389  39.327  36.082  12.436
41509W        W11390  11.788   0.946   0.469
41510W        W11391   2.844  29.948  11.862
41511W        W11392  36.399  29.935   1.344
41512W        W11393  17.216  33.124  13.989
41513W        W11394  37.009  27.527  12.568
41514W        W11395  26.137  21.740   3.378
41515W        W11396  25.498  30.615  12.833
41516W        W11397   1.946  24.159   3.773
41517W        W11398  28.039  34.117   4.298
41518W        W11399  42.994   4.892  10.473
41519W        W11400  44.335  23.198  10.422
41520W        W11401   0.454  28.934   1.760
41521W        W11402  34.085  37.872   1.389
41522W        W11403  16.319  33.517   1.264
41523W        W11404  20.189  21.028   3.732
41524W        W11405   2.873  16.077  14.933
41525W        W11406  21.230  44.409   0.881
41526W        W11407  10.143  24.589   4.146
41527W        W11408  38.010  13.125  13.852
41528W        W11409  10.783   3.823  11.545
41529W        W11410  13.231   0.786   0.373
41530W        W11411  14.157  14.794  11.511
41531W        W11412  25.161   7.898  13.801
41532W        W11413  28.181   9.754   9.935
41533W        W11414  13.113  24.552  14.908
41534W        W11415  12.833   5.396  13.373
41535W        W11416  31.028  37.898   0.362
41536W        W11417   7.769  26.674   0.270
41537W        W11418   3.840   5.372   0.359
41538W        W11419   4.723  27.620   3.340
41539W        W11420  13.786  30.988   0.953
41540W        W11421   9.797   1.886   1.717
41541W        W11422  24.219   5.300   4.120
41542W        W11423   5.359  22.730   2.820
41543W        W11424  35.572  30.979  11.992
41544W        W11425  36.924  16.730  14.344
41545W        W11426  25.984  22.703   3.770
41546W        W11427  27.582   1.247  11.100
41547W        W11428  42.845  19.577  14.386
41548W        W11429  19.670  30.932   4.327
41549W        W11430  22.565  24.486   4.273
41550W        W11431   1.254  28.511  14.322
41551W        W11432  40.339  23.647  13.874
41552W        W11433   7.803  23.639  10.052
41553W        W11434  38.394  24.037  13.434
41554W        W11435  18.256  40.413  13.893
41555W        W11436  11.317  35.088   0.375
41556W        W11437   0.810  37.490   2.809
41557W        W11438  36.843  20.228   0.304
41558W        W11439  23.499  26.057  13.347
41559W        W11440  20.673   7.884   1.697
41560W        W11441  10.360  30.121   4.186
41561W        W11442  28.003   4.261   0.447
41562W        W11443  35.435  23.677   1.702
41563W        W11444  36.503  41.843  12.547
41564W        W11445  31.596   5.356   4.201
41565W        W11446  39.049  31.092   2.404
41566W        W11447  23.177  33.436   3.384
41567W        W11448  32.004  30.951   5.197
41568W        W11449  39.018  19.201   0.263
41569W        W11450  36.868  22.083  11.963
41570W        W11451   1.920  42.404  14.319
41571W        W11452  15.727  28.585  14.343
41572W        W11453  26.682  36.071  11.016
41573W        W11454  23.695  10.652   3.349
41574W        W11455   6.393  19.614  12.948
41575W        W11456  17.650  22.618  13.959
41576W        W11457  34.042  13.732  12.911
41577W        W11458  18.206  36.870   1.431
41578W        W11459  31.439  11.677   0.757
41579W        W11460  20.174  34.881   2.385
41580W        W11461  36.430  27.540   3.722
41581W        W11462   8.759  43.479   4.117
41582W        W11463  27.059   3.354   3.292
41583W        W11464   4.717  20.708  12.936
41584W        W11465   2.375  30.098  13.012
41585W        W11466  14.823  14.221   0.747
41586W        W11467   1.841  23.016   4.200
41587W        W11468  27.979   5.877  10.474
41588W        W11469  28.461  41.907   1.319
41589W        W11470  32.522  17.615   9.631
41590W        W11471  17.622  20.722  13.007
41591W        W11472  24.626  33.430   1.289
41592W        W11473  21.626   8.850   4.689
41593W        W11474  27.658  10.193   2.841
41594W        W11475  43.818  17.706   1.351
41595W        W11476  38.339   4.745   2.290
41596W        W11477  23.231  20.252   2.310
41597W        W11478   2.923   9.211   0.818
41598W        W11479  13.663  20.220  10.420
41599W        W11480  41.312  33.441   3.860
41600W        W11481  25.038  34.869  12.973
41601W        W11482  38.048  23.542  11.105
41602W        W11483  28.669  22.236   2.322
41603W        W11484  28.613  24.082   2.882
41604W        W11485  12.264   4.379   0.943
41605W        W11486  12.152  29.926   4.278
41606W        W11487  15.223  35.497  11.955
41607W        W11488  36.922  42.776   4.770
41608W        W11489   7.895  19.116   0.847
41609W        W11490   1.238  31.953   2.663
41610W        W11491  37.454   5.902   3.269
41611W        W11492  10.748  25.077   4.829
41612W        W11493  23.003  29.063  11.472
41613W        W11494  13.170   6.284   2.298
41614W        W11495  40.415   4.936   5.241
41615W        W11496  41.510  10.861   1.244
41616W        W11497  37.930  35.941   5.224
41617W        W11498  30.462  33.571  14.370
41618W        W11499   9.169  35.924  14.511
41619W        W11500  23.724  16.245  11.097
41620W        W11501   2.298  32.591   4.641
41621W        W11502  42.891   1.760  13.481
41622W        W11503   1.973  31.513  13.360
41623W        W11504   7.206  31.900  10.545
41624W        W11505  22.215  36.481   3.360
41625W        W11506  40.962  38.448  13.798
41626W        W11507  12.786  32.454   2.877
41627W        W11508  11.145  16.262   3.299
41628W        W11509  16.618  38.874   1.383
41629W        W11510  12.192  29.047   4.769
41630W        W11511  22.566  10.262  13.832
41631W        W11512  31.072  15.106   3.759
41632W        W11513  30.046   1.341  14.849
41633W        W11514  44.452   2.798  12.825
41634W        W11515  19.598  33.128  12.862
41635W        W11516  42.777  31.100   5.245
41636W        W11517   4.267  12.627  11.468
41637W        W11518   7.710  31.646  11.597
41638W        W11519  30.590   3.359   4.247
41639W        W11520  28.930  34.551  13.371
41640W        W11521  38.361  26.101  14.511
41641W        W11522  21.213  15.817  14.475
41642W        W11523   0.304  36.919  13.834
41643W        W11524   2.389  21.132  13.984
41644W        W11525  10.679  29.165   4.678
41645W        W11526  41.412  24.722  13.036
41646W        W11527  25.112  16.119  13.487
41647W        W11528  44.901  28.592   1.715
41648W        W11529   1.327   2.967   2.194
41649W        W11530   5.304  40.486   1.912
41650W        W11531   0.323  10.765  10.434
41651W        W11532  16.185  18.053   3.675
41652W        W11533  32.432  37.345   0.444
41653W        W11534  18.621  12.117  11.958
41654W        W11535  21.658  34.459   2.180
41655W        W11536  44.464  28.459  14.313
41656W        W11537  38.905   4.374  13.044
41657W        W11538  26.035   3.384  10.960
41658W        W11539  22.128   4.877  11.017
41659W        W11540  36.006  28.643  11.025
41660W        W11541   8.800  22.131   1.723
41661W        W11542  37.384   3.887  12.892
41662W        W11543  30.502  42.389  13.857
41663W        W11544   0.805  20.634  11.123
41664W        W11545   4.274  39.474  13.823
41665W        W11546  36.550   7.373  11.858
41666W        W11547   6.696  22.516  13.494
41667W        W11548  25.131   4.747  14.415
41668W        W11549  10.244   4.744   0.858
41669W        W11550  40.971  22.231   1.918
41670W        W11551  25.540  30.930   0.748
41671W        W11552  22.553  38.042  11.020
41672W        W11553   9.832  37.484  11.928
41673W        W11554   8.308   4.390  12.841
41674W        W11555  40.307  19.700   0.322
41675W        W11556  42.932  33.037   3.676
41676W        W11557  44.351  25.051  11.393
41677W        W11558  11.359  15.100  12.946
41678W        W11559   2.425  35.460   4.134
41679W        W11560   2.746  35.506   1.210
41680W        W11561  14.194  36.576  12.088
41681W        W11562   5.272  35.452  10.973
41682W        W11563  12.740  44.812   1.280
41683W        W11564  30.941  20.245  10.536
41684W        W11565  36.550  22.552  13.369
41685W        W11566  14.224  17.231  12.093
41686W        W11567  17.616  30.547  12.902
41687W        W11568  36.364   8.827   5.157
41688W        W11569  37.476   2.805   2.813
41689W        W11570  43.956  34.444  14.841
41690W        W11571  31.970  18.715  13.529
41691W        W11572  15.240  43.869   0.457
41692W        W11573  37.962  29.650   1.290
41693W        W11574  13.300  18.219   4.141
41694W        W11575  14.242  37.507  10.452
41695W        W11576   0.930   1.927   4.241
41696W        W11577  35.488  41.791   2.217
41697W        W11578  40.894  39.833  13.504
41698W        W11579  19.619  39.056   0.367
41699W        W11580  37.554   2.281  14.906
41700W        W11581  35.552  13.807   0.738
41701W        W11582  10.820  28.068  11.510
41702W        W11583  30.574   6.267  12.540
41703W        W11584  17.244  36.375   0.280
41704W        W11585  39.486  38.930  14.491
41705W        W11586   8.320  41.307  12.345
41706W        W11587  31.027   3.784  11.073
41707W        W11588  27.988  13.708   0.245
41708W        W11589  14.665  42.414  11.070
41709W        W11590  42.412   3.894   2.418
41710W        W11591  18.592  29.160  14.018
41711W        W11592   3.390  27.630   2.811
41712W        W11593  14.672  27.010  10.625
41713W        W11594  42.863  35.462   3.850
41714W        W11595  36.536   9.175   3.212
41715W        W11596  29.603   8.213   5.261
41716W        W11597  18.246  17.230  11.571
41717W        W11598  19.106  31.448   4.792
41718W        W11599  22.207  18.209   2.200
41719W        W11600  39.890  16.088  14.281
41720W        W11601  15.633   9.802   1.276
41721W        W11602  14.782  21.151   0.785
41722W        W11603   6.280  39.027  11.604
41723W        W11604  19.602  17.602  12.512
41724W        W11605   2.447  23.595  12.495
41725W        W11606  11.271  33.086   2.879
41726W        W11607  25.495  36.991   4.784
41727W        W11608  27.582   8.343   3.805
41728W        W11609   7.686  28.461   4.709
41729W        W11610   0.861  10.691  10.509
41730W        W11611  39.842  35.023   4.740
41731W        W11612  14.720  43.513  14.286
41732W        W11613  35.556   7.841  10.428
41733W        W11614   8.203  19.778  12.081
41734W        W11615   5.349   4.819   4.327
41735W        W11616  30.659  20.672   2.415
41736W        W11617   7.412  44.480   1.892
41737W        W11618  32.123  29.068   4.204
41738W        W11619   9.783  18.066   5.614
41739W        W11620  38.459   4.837  10.553
41740W        W11621  35.450  34.404   2.776
41741W        W11622  29.089  16.247  14.462
41742W        W11623  40.360   4.848   3.664
41743W        W11624  32.483   9.156  12.906
41744W        W11625  22.600  38.487  10.973
41745W        W11626   6.260   8.334  11.855
41746W        W11627  29.586  21.518  13.828
41747W        W11628  38.877  18.110  14.846
41748W        W11629  43.007  41.015  13.405
41749W        W11630   9.181  18.260  10.032
41750W        W11631  35.485  11.132  14.918
41751W        W11632   4.286  31.475   2.289
41752W        W11633  33.479  32.906  12.963
41753W        W11634  41.535  18.555  11.020
41754W        W11635  40.842  19.653  13.386
41755W        W11636  33.419  41.535   1.794
41756W        W11637   6.341  39.057   2.225
41757W        W11638   5.791  15.717   4.733
41758W        W11639  10.165   3.757   1.415
41759W        W11640  39.485   0.883   0.272
41760W        W11641  16.210   1.766  10.581
41761W        W11642  20.591  15.190   3.335
41762W        W11643  10.143  16.675  13.021
41763W        W11644  43.403  10.171  10.426
41764W        W11645  36.978   1.420   3.779
41765W        W11646  43.840  42.425  10.478
41766W        W11647  42.847  44.305  13.023
41767W        W11648  39.038   9.804   4.216
41768W        W11649  41.462  33.514   3.320
41769W        W11650  15.159  19.274   0.901
41770W        W11651  12.677  19.584   2.900
41771W        W11652   9.648  22.507  14.481
41772W        W11653  17.675  27.050   2.815
41773W        W11654  17.753  26.562   0.465
41774W        W11655  28.140   5.850  10.912
41775W        W11656  16.240  34.894  10.969
41776W        W11657  27.197  36.068   2.676
41777W        W11658  33.119  26.100  13.872
41778W        W11659  40.335  40.488   5.249
41779W        W11660  39.474  36.930   3.862
41780W        W11661  39.962  21.261  11.044
41781W        W11662  36.448  34.865   2.391
41782W        W11663  35.998   4.792  14.808
41783W        W11664  26.183  14.261   0.380
41784W        W11665  36.358  37.073   2.324
41785W        W11666  30.100  13.628   3.386
41786W        W11667   0.932  42.835   4.181
41787W        W11668  43.806   0.877   2.242
41788W        W11669  27.068  39.940   0.860
41789W        W11670  36.463  43.300   4.797
41790W        W11671  25.492  30.498  11.468
41791W        W11672  10.332  10.815   1.298
41792W        W11673   5.289  24.525   0.745
41793W        W11674  17.117  36.050   5.111
41794W        W11675   2.293  44.294  10.024
41795W        W11676  22.214   1.329  14.791
41796W        W11677  16.596  22.120  11.070
41797W        W11678   3.749   8.247  12.382
41798W        W11679   2.248  30.512  10.463
41799W        W11680  23.055  33.027  11.972
41800W        W11681   8.893  33.132   0.916
41801W        W11682  36.591   5.909  14.429
41802W        W11683  23.597   5.840  12.041
41803W        W11684  11.248  16.143   9.516
41804W        W11685  26.690   4.315   4.195
41805W        W11686  23.987  35.525  14.310
41806W        W11687  37.545  15.128   4.761
41807W        W11688  44.816  13.156  11.875
41808W        W11689  10.245  37.406   4.829
41809W        W11690   9.234  38.432   4.171
41810W        W11691  19.096  21.033  14.808
41811W        W11692  14.815  33.878   0.475
41812W        W11693   1.733  17.161  11.992
41813W        W11694  23.056  42.933  12.486
41814W        W11695  17.175   7.761   0.368
41815W        W11696  42.999  27.154  14.412
41816W        W11697  11.149  28.631   3.309
41817W        W11698  26.086  28.129   0.325
41818W        W11699  19.256  11.725   3.739
41819W        W11700   4.792  24.514  11.862
41820W        W11701  43.938  23.207  11.098
41821W        W11702   9.281  40.934   0.275
41822W        W11703   8.735  44.472  14.005
41823W        W11704  40.949  31.146  13.024
41824W        W11705   7.737  25.209   1.872
41825W        W11706  33.935   0.399   4.196
41826W        W11707  15.733   3.805  14.791
41827W        W11708  27.535  23.035   3.148
41828W        W11709   7.253  14.653   0.327
41829W        W11710  19.643  40.007   1.925
41830W        W11711  36.941  33.594   1.361
41831W        W11712   4.738  35.576  13.043
41832W        W11713  36.853  24.084  14.431
41833W        W11714   4.269  18.636  12.528
41834W        W11715   6.775   5.709   2.779
41835W        W11716  25.658  44.322   1.356
41836W        W11717  34.599  33.129   1.767
41837W        W11718  22.673   1.368  14.397
41838W        W11719  12.653  38.852  10.636
41839W        W11720  31.916  16.279   1.341
41840W        W11721  18.767  19.209   1.897
41841W        W11722  39.930  23.133   0.881
41842W        W11723  37.052  39.476   2.797
41843W        W11724  10.767  34.558  11.897
41844W        W11725  22.233  44.362   0.437
41845W        W11726   8.201  32.464  11.103
41846W        W11727  29.124  34.587  10.454
41847W        W11728   3.870   2.441   0.357
41848W        W11729  22.053  24.204   1.354
41849W        W11730  25.212  16.269  11.557
41850W        W11731  32.010   6.736  12.565
41851W        W11732   0.483  22.161  11.888
41852W        W11733  11.238  15.222   5.590
41853W        W11734  28.994  12.154   1.774
41854W        W11735  18.105  22.682   3.297
41855W        W11736  25.065   6.372   4.202
41856W        W11737  10.205  29.943  12.366
41857W        W11738   4.286  22.644  14.373
41858W        W11739  43.926  29.963   0.268
41859W        W11740  35.596  38.932  14.441
41860W        W11741  29.436  17.787  11.925
41861W        W11742  25.511  22.078  11.072
41862W        W11743  41.003  34.005   2.862
41863W        W11744  40.481  15.615   3.296
41864W        W11745  22.089  41.819  12.971
41865W        W11746  38.472   7.238  11.934
41866W        W11747   8.169  12.844   3.654
41867W        W11748  30.109  12.282  12.089
41868W        W11749  34.044  37.867  14.417
41869W        W11750  25.990   1.324   4.797
41870W        W11751   9.806  10.651   0.763
41871W        W11752  43.282  24.572  11.018
41872W        W11753  31.968  32.932   3.320
41873W        W11754  32.977  17.649  11.035
41874W        W11755  24.190  19.711  12.088
41875W        W11756  13.173   0.788  11.597
41876W        W11757  43.395  22.510   4.637
41877W        W11758   6.690   1.289   2.738
41878W        W11759  28.543   0.446   1.709
41879W        W11760  37.539  30.468  12.903
41880W        W11761  22.103  27.658  13.936
41881W        W11762  33.080  39.383   4.283
41882W        W11763   4.883   0.417  14.016
41883W        W11764  19.227  22.065  14.401
41884W        W11765  35.423  10.637  13.455
41885W        W11766  41.376  24.214   0.477
41886W        W11767  37.875  18.186   0.846
41887W        W11768  20.543  22.186  13.458
41888W        W11769  27.594   5.846   2.790
41889W        W11770  24.505   1.271  10.456
41890W        W11771  35.100  44.389  11.544
41891W        W11772   3.889  10.663  11.518
41892W        W11773  21.586  29.120   5.178
41893W        W11774   2.836  37.573   9.984
41894W        W11775  12.149  27.685   0.387
41895W        W11776  27.679  18.752   3.830
41896W        W11777  31.565   0.353   2.785
41897W        W11778  28.527  27.520   2.219
41898W        W11779  41.388  11.785   0.320
41899W        W11780   0.924  32.028   3.274
41900W        W11781   9.661  31.573  13.460
41901W        W11782  13.246  20.612   1.905
41902W        W11783  27.181  14.204   5.257
41903W        W11784   5.763  28.178   2.178
41904W        W11785  16.240  39.420  11.120
41905W        W11786   1.259  10.339  13.320
41906W        W11787  21.233   2.764  12.437
41907W        W11788   2.287  21.241   0.404
41908W        W11789  42.339  43.424  13.972
41909W        W11790  31.984   8.677   0.357
41910W        W11791   4.211  21.218   0.759
41911W        W11792  32.134   6.737  11.474
41912W        W11793  41.482  26.180  14.824
41913W        W11794  25.604  29.590   2.766
41914W        W11795  25.628   7.285   1.816
41915W        W11796  28.584   2.424   2.279
41916W        W11797   9.670  39.535   0.285
41917W        W11798  14.138  41.832   5.237
41918W        W11799  23.573  18.742  12.910
41919W        W11800  33.011  25.702  13.360
41920W        W11801  16.610  29.039   3.278
41921W        W11802  43.512  10.314   2.813
41922W        W11803  39.823  27.010  10.563
41923W        W11804   6.766  29.081   0.402
41924W        W11805   6.268  41.041   4.663
41925W        W11806  42.970  19.219  11.400
41926W        W11807   3.426   0.787  13.480
41927W        W11808   3.919  40.865   3.728
41928W        W11809  34.981  42.350   4.232
41929W        W11810  27.998  10.139   0.852
41930W        W11811  38.520  18.294  12.927
41931W        W11812  17.155  10.714   2.887
41932W        W11813  34.603  22.578   4.233
41933W        W11814  25.540  19.722   1.337
41934W        W11815  28.446  18.188   4.181
41935W        W11816  39.912  20.193  13.804
41936W        W11817  15.724  37.401   2.364
41937W        W11818   0.370  31.949  13.930
41938W        W11819  38.472  44.842   5.288
41939W        W11820  33.582  15.138  12.970
41940W        W11821  23.087  17.589  10.553
41941W        W11822  15.273  15.328   3.800
41942W        W11823  27.964  30.084   3.676
41943W        W11824  27.168  15.090   3.376
41944W        W11825  19.188  44.320   3.647
41945W        W11826   2.423  17.097   0.376
41946W        W11827   7.673  16.619   2.272
41947W        W11828   6.909  32.964  14.402
41948W        W11829  27.570  39.415   1.914
41949W        W11830   0.934  20.204   3.298
41950W        W11831  24.135   0.845   3.165
41951W        W11832   0.887  20.112  12.404
41952W        W11833   9.302  10.305  13.421
41953W        W11834  18.692  14.596  12.413
41954W        W11835  23.201  36.047   2.779
41955W        W11836  16.285  18.713   4.301
41956W        W11837  30.457  33.055  12.424
41957W        W11838  20.124  21.519   1.829
41958W        W11839  29.527  36.579   3.368
41959W        W11840   3.363  24.580  10.925
41960W        W11841   7.670  10.674   3.653
41961W        W11842  10.255  35.032  10.643
41962W        W11843  10.657   2.430  13.483
41963W        W11844  10.705  31.081  10.924
41964W        W11845  37.954  42.914  12.923
41965W        W11846  25.528  23.101   1.784
41966W        W11847  12.191  26.203   0.326
41967W        W11848  38.363  36.439   1.770
41968W        W11849  21.140  22.712  14.493
41969W        W11850  13.648  18.115   4.761
41970W        W11851  13.608   8.298   0.475
41971W        W11852  18.701  16.579   2.857
41972W        W11853  40.809   2.765   3.828
41973W        W11854  22.716  21.063   2.320
41974W        W11855  17.614  26.549  13.943
41975W        W11856  34.466   6.888   0.798
41976W        W11857   3.392  20.565   1.694
41977W        W11858  19.640  15.822  10.141
41978W        W11859  24.707   7.781  12.387
41979W        W11860   7.704  43.962  10.902
41980W        W11861   2.464  18.251   4.158
41981W        W11862  37.997  41.349   0.359
41982W        W11863  37.024  10.263  14.947
41983W        W11864   9.371  29.952  11.906
41984W        W11865  22.170  15.632  10.583
41985W        W11866  39.917  29.542  11.597
41986W        W11867  22.558  26.664  13.360
41987W        W11868  14.197  29.471  11.443
41988W        W11869  17.202  43.925  12.830
41989W        W11870  34.071  41.857  14.001
41990W        W11871  43.921  33.110  13.333
41991W        W11872  29.498  41.460   1.839
41992W        W11873  43.849  18.573  11.882
41993W        W11874   9.792  27.999  13.522
41994W        W11875  13.721  13.211  11.903
41995W        W11876   2.793   7.857   0.730
41996W        W11877  30.508  14.595   4.692
41997W        W11878  32.586  36.423  12.992
41998W        W11879   6.726  16.169  14.332
41999W        W11880   4.328  25.161  12.955
42000W        W11881  44.281  30.637  14.431
42001W        W11882  28.624  16.698  13.452
42002W        W11883   6.246  17.276   0.888
42003W        W11884   4.440  24.673  10.518
42004W        W11885  34.027  25.073   3.805
42005W        W11886  10.231  28.953   3.676
42006W        W11887  34.429  21.710   0.245
42007W        W11888   3.877  42.335   0.790
42008W        W11889  29.615  38.532   1.266
42009W        W11890  18.598   7.690   1.238
42010W        W11891  43.971  19.629  13.922
42011W        W11892   4.777   6.201   1.896
42012W        W11893  31.038  31.139   1.325
42013W        W11894  18.278  35.495  11.529
42014W        W11895  36.484  21.085  12.826
42015W        W11896   4.844  11.146   4.314
42016W        W11897  30.102  27.978  11.607
42017W        W11898   5.204  17.555  10.610
42018W        W11899  43.947  16.684   2.823
42019W        W11900  23.028  17.232   2.301
42020W        W11901  10.762  24.642  14.908
42021W        W11902  16.737   2.440  10.513
42022W        W11903  31.629  39.425   3.217
42023W        W11904   9.733   1.250   3.255
42024W        W11905  19.719  38.525   2.812
42025W        W11906  25.514  39.331   2.775
42026W        W11907  27.570  14.233  14.903
42027W        W11908  44.854  17.601  10.559
42028W        W11909  19.593   6.378  14.844
42029W        W11910  14.213  22.176   4.313
42030W        W11911  35.404  21.643  10.975
42031W        W11912  29.520   9.172  13.977
42032W        W11913   7.807   1.864  12.470
42033W        W11914  29.128  19.267  12.899
42034W        W11915  36.076  14.595  13.849
42035W        W11916  43.381  25.006  14.796
42036W        W11917  35.911  40.865   1.267
42037W        W11918   4.815  41.409   9.955
42038W        W11919  37.077  30.991  14.777
42039W        W11920  16.124  14.273   4.705
42040W        W11921  33.464  19.621   5.315
42041W        W11922   5.306  18.644  12.458
42042W        W11923  18.230  37.836  11.959
42043W        W11924   6.341   6.335   2.801
42044W        W11925  31.562  38.977  12.952
42045W        W11926  24.155  34.899  13.867
42046W        W11927   7.183  38.032   2.670
42047W        W11928   2.866  18.284  12.349
42048W        W11929  21.195  42.379  10.435
42049W        W11930  32.465  35.038   1.344
42050W        W11931   2.866  41.010  12.387
42051W        W11932   6.416  37.869   0.352
42052W        W11933  35.984  12.726   2.847
42053W        W11934   0.895   6.382  11.893
42054W        W11935  16.605   5.851   3.260
42055W        W11936  22.701  16.664  11.081
42056W        W11937  41.371  42.822  14.773
42057W        W11938  22.708  15.237  10.025
42058W        W11939  42.461   9.360  10.523
42059W        W11940  16.707  28.012  13.311
42060W        W11941  29.638  25.594   1.809
42061W        W11942  30.944   8.755   1.236
42062W        W11943  29.151   8.234  10.108
42063W        W11944  26.044  10.680  13.804
42064W        W11945   1.870  28.543   2.735
42065W        W11946  22.234  21.532   1.880
42066W        W11947   2.867  41.369   1.704
42067W        W11948  19.059  41.016  11.003
42068W        W11949  40.978  22.157  11.533
42069W        W11950   7.741  13.678  10.493
42070W        W11951  43.336  35.536   1.257
42071W        W11952  20.172  40.534   1.800
42072W        W11953  44.364  29.605   3.839
42073W        W11954  25.153   2.850   2.212
42074W        W11955  44.883  13.617  12.998
42075W        W11956  15.805  38.478   4.120
42076W        W11957  20.263  43.765   9.442
42077W        W11958   2.781  38.509  13.347
42078W        W11959  38.866  15.316   0.776
42079W        W11960  20.538  40.954   4.751
42080W        W11961   4.783  13.159  14.380
42081W        W11962  31.927   0.339   2.830
42082W        W11963  13.816  17.596  13.018
42083W        W11964   6.807  35.488   0.841
42084W        W11965  27.145  40.840   0.824
42085W        W11966  42.345   1.307   0.936
42086W        W11967  12.228   2.369   2.791
42087W        W11968  28.571  36.544   0.859
42088W        W11969   5.838  12.261   4.761
42089W        W11970  36.077  14.312  11.507
42090W        W11971  18.274  19.713  12.544
42091W        W11972  34.097   6.278  12.912
42092W        W11973   7.417   6.769   2.730
42093W        W11974  27.054   0.885   4.678
42094W        W11975   3.252  17.123  13.042
42095W        W11976  29.941   7.331   2.880
42096W        W11977   3.246  39.025   4.140
42097W        W11978  35.014  44.454  14.782
42098W        W11979  32.490  13.669  11.479
42099W        W11980  22.014  19.637   3.774
42100W        W11981  34.007  44.390   0.340
42101W        W11982  19.236  41.970  13.957
42102W        W11983   0.969  40.312  12.533
42103W        W11984  14.251  24.201  13.334
42104W        W11985  17.683   8.768  11.037
42105W        W11986  41.858  19.724   2.236
42106W        W11987   7.342   1.469   1.223
42107W        W11988  25.985  24.572  12.947
42108W        W11989  24.119   8.699   2.814
42109W        W11990  28.524   4.848   1.407
42110W        W11991   6.378  32.993  11.987
42111W        W11992  33.388  30.102   4.137
42112W        W11993   0.781  44.878  10.516
42113W        W11994  29.172  13.235  12.853
42114W        W11995  19.137  20.530   3.296
42115W        W11996  43.977  38.999  14.388
42116W        W11997  14.653  44.387  10.508
42117W        W11998  14.803  12.655  12.498
42118W        W11999  23.023  40.003   2.282
42119W        W12000  36.457  32.130   3.764
42120W        W12001  12.831   0.825  14.374
42121W        W12002  42.934  27.608   3.833
42122W        W12003  21.534  43.479   2.894
42123W        W12004  28.068  19.246   3.684
42124W        W12005  14.794  39.549  13.438
42125W        W12006  34.406  40.942  10.487
42126W        W12007  27.469  39.390   3.261
42127W        W12008   8.875  38.012  14.328
42128W        W12009  11.838  29.133   5.272
42129W        W12010  20.162  38.517   0.745
42130W        W12011  43.805  27.020  11.578
42131W        W12012   3.321  22.040  10.115
42132W        W12013   1.896   4.717   5.259
42133W        W12014  20.725  34.050  10.568
42134W        W12015   0.981   4.920  11.878
42135W        W12016  41.304  31.411  11.532
42136W        W12017   9.886   4.433  10.596
42137W        W12018   8.745  23.028  14.818
42138W        W12019  40.384  19.584   2.813
42139W        W12020  33.567  12.356  13.908
42140W        W12021  44.495  21.195  14.967
42141W        W12022   5.234  21.138  11.407
42142W        W12023  31.478   9.337   2.675
42143W        W12024  33.889  38.503  11.898
42144W        W12025  25.112  21.594   3.205
42145W        W12026   3.356  26.180   0.903
42146W        W12027   5.198  44.270  14.294
42147W        W12028  26.607   5.389  13.977
42148W        W12029   5.833   3.936  14.438
42149W        W12030  32.631   9.873   4.353
42150W        W12031  19.257  28.514   3.372
42151W        W12032   2.737   9.243  12.568
42152W        W12033   8.732   6.728   0.248
42153W        W12034  31.583  20.080   1.836
42154W        W12035  31.647   8.264   0.429
42155W        W12036  30.144  37.518   3.741
42156W        W12037   6.408  10.770   3.725
42157W        W12038   0.258  27.529   0.392
42158W        W12039  13.163  10.292   0.901
42159W        W12040  32.008   0.444   4.780
42160W        W12041  31.592  38.024  11.106
42161W        W12042  36.915  35.900   2.846
42162W        W12043   6.693  32.454   0.250
42163W        W12044   5.323  16.716   1.239
42164W        W12045   5.697  34.918  13.962
42165W        W12046   5.319  34.991   3.369
42166W        W12047   9.652  24.562  13.828
42167W        W12048   5.888  34.564  14.341
42168W        W12049  18.721  43.292   4.809
42169W        W12050   0.253  38.543  12.417
42170W        W12051  11.648  21.690   2.742
42171W        W12052  40.884   1.870  12.002
42172W        W12053   0.929   8.782  11.545
42173W        W12054  36.380  28.106  10.950
42174W        W12055  15.287   3.217   3.746
42175W        W12056  14.326   4.398  14.881
42176W        W12057  44.375  25.640   2.762
42177W        W12058  28.567   1.859  10.577
42178W        W12059   1.371  40.004   4.809
42179W        W12060  26.519  35.876  14.889
42180W        W12061  21.706  12.819   2.232
42181W        W12062  13.133  37.955  11.009
42182W        W12063  25.674  25.564   2.782
42183W        W12064  41.787   8.324   0.809
42184W        W12065  29.510  10.653  11.056
42185W        W12066  17.710   4.925   2.829
42186W        W12067  13.223   8.345  14.387
42187W        W12068  24.197  15.187  11.504
42188W        W12069  40.403  41.532   4.816
42189W        W12070  25.618  31.901   0.465
42190W        W12071   0.795  27.033  14.374
42191W        W12072  39.470  32.136   2.734
42192W        W12073  25.031  33.470  14.451
42193W        W12074  11.256  22.619   3.170
42194W        W12075  29.620  11.833   3.177
42195W        W12076  28.000   3.284   4.607
42196W        W12077   8.822  25.616   0.803
42197W        W12078  26.119  26.186   4.186
42198W        W12079  18.136   7.910   4.274
42199W        W12080  40.013  43.928   4.735
42200W        W12081   5.866  24.707   4.674
42201W        W12082  28.614  10.732  12.513
42202W        W12083  19.171   0.439   4.134
42203W        W12084  19.559   1.932   0.308
42204W        W12085  15.786  38.382   0.737
42205W        W12086  13.616  44.427   1.421
42206W        W12087  35.599  30.634  12.518
42207W        W12088  33.572  17.680  13.886
42208W        W12089   5.743  43.013  12.493
42209W        W12090  21.056  40.455  12.836
42210W        W12091   9.179  23.646   5.128
42211W        W12092   2.384  11.191  12.372
42212W        W12093  32.960  25.209   3.718
42213W        W12094  11.143  44.427   4.662
42214W        W12095  16.764  33.527   0.954
42215W        W12096  36.398  27.581  10.955
42216W        W12097  10.196  33.989  11.495
42217W        W12098  34.971  25.560   0.417
42218W        W12099  13.212   1.393   2.745
42219W        W12100   1.812  20.703  13.461
42220W        W12101  19.184  12.126  14.459
42221W        W12102  20.580  18.687  13.972
42222W        W12103  39.832  26.475  10.409
42223W        W12104   2.891  36.085   2.816
42224W        W12105   5.200  14.153   1.254
42225W        W12106  34.607  15.741  13.866
42226W        W12107  16.124  23.717  10.896
42227W        W12108  16.146  21.148  10.054
42228W        W12109   3.416   8.698   2.714
42229W        W12110  12.287   9.168   3.674
42230W        W12111   0.255  14.239  14.810
42231W        W12112  32.580  29.619  14.488
42232W        W12113  39.524  31.031   3.363
42233W        W12114  35.867  32.631   2.711
42234W        W12115  44.343  18.182   1.918
42235W        W12116  26.666  42.363  13.861
42236W        W12117  41.017  22.618   2.401
42237W        W12118  24.620  40.873  11.085
42238W        W12119  19.083  16.191  13.963
42239W        W12120  21.603  17.281  11.578
42240W        W12121  44.755  37.579  10.429
42241W        W12122   5.886  29.166  11.510
42242W        W12123  11.328  42.974  11.913
42243W        W12124   2.869  28.443   1.837
42244W        W12125  22.203  33.562  12.393
42245W        W12126  35.921  18.586   3.274
42246W        W12127  36.862   3.935   1.704
42247W        W12128   2.412   7.197  14.355
42248W        W12129  43.878  18.682   3.795
42249W        W12130  40.316  41.953   3.786
42250W        W12131  23.181  19.130  13.925
42251W        W12132  34.497   7.708  10.588
42252W        W12133  29.107  34.043  12.847
42253W        W12134  19.229  44.779   2.802
42254W        W12135  30.609   4.770   3.753
42255W        W12136  20.723  12.659   4.174
42256W        W12137   1.795  37.842  13.798
42257W        W12138   5.925  10.661  13.470
42258W        W12139   3.421  39.842  14.499
42259W        W12140  23.090  42.298   1.881
42260W        W12141  42.996   7.741   1.335
42261W        W12142  36.492  19.646  13.470
42262W        W12143  27.155   7.233  11.979
42263W        W12144   7.210   4.345  13.868
42264W        W12145  18.068  14.683  11.429
42265W        W12146   2.792   4.351   1.725
42266W        W12147  30.944   6.755   5.118
42267W        W12148   6.721  18.265  12.914
42268W        W12149  19.684  10.225   3.672
42269W        W12150  10.749  31.555   4.209
42270W        W12151  29.470  13.255  14.939
42271W        W12152  19.769  39.434   0.774
42272W        W12153  14.814  40.922  12.364
42273W        W12154  42.006  18.749   4.217
42274W        W12155  23.028  12.326  14.354
42275W        W12156   1.332  19.670   1.923
42276W        W12157   4.353  24.179  11.498
42277W        W12158  35.966  42.348   4.191
42278W        W12159  36.529  40.994   3.228
42279W        W12160  32.067   5.746  12.556
42280W        W12161   8.180  39.454  12.579
42281W        W12162  31.547  17.181   0.833
42282W        W12163  16.809  40.354  11.124
42283W        W12164  22.224   3.457   0.841
42284W        W12165   3.902  25.661   0.435
42285W        W12166  38.370  10.658   4.599
42286W        W12167  43.015  16.166  14.419
42287W        W12168  32.992  11.748  10.952
42288W        W12169  20.091   7.284   1.401
42289W        W12170  27.044  24.176   0.877
42290W        W12171  42.828  33.381  13.859
42291W        W12172  43.004   3.244  10.618
42292W        W12173  15.098  18.117  10.892
42293W        W12174  37.404  14.690   1.761
42294W        W12175  41.973  31.611  11.550
42295W        W12176  41.957  13.734  14.010
42296W        W12177   5.337  41.822   0.381
42297W        W12178  38.825  21.512  14.299
42298W        W12179   8.822  30.999  12.354
42299W        W12180  36.442  25.016   1.318
42300W        W12181  41.423  44.980  14.370
42301W        W12182  39.812   1.317   0.395
42302W        W12183  13.251  31.533   3.243
42303W        W12184  16.581   6.251   3.338
42304W        W12185  18.711   6.220  11.939
42305W        W12186  39.471  18.562  12.016
42306W        W12187  14.653  19.780   1.738
42307W        W12188  39.032  15.613   4.200
42308W        W12189  18.696  23.715  11.911
42309W        W12190  18.776  30.490  11.434
42310W        W12191  18.653  25.009   2.256
42311W        W12192  12.258   2.350   4.262
42312W        W12193  21.679  29.450  13.472
42313W        W12194   3.951   8.773  12.360
42314W        W12195  25.490  23.002  11.094
42315W        W12196  35.095  42.841   1.833
42316W        W12197  44.899   4.299   4.173
42317W        W12198  27.097  19.546  13.983
42318W        W12199  44.994  10.293  13.513
42319W        W12200  37.018  44.899  10.525
42320W        W12201  33.439  13.710  11.468
42321W        W12202  25.173  10.347  10.989
42322W        W12203   1.384   4.367  11.461
42323W        W12204   8.402  37.566  13.945
42324W        W12205  42.897  11.860  11.498
42325W        W12206  21.181  43.894  14.939
42326W        W12207  27.182   2.874  12.571
42327W        W12208  29.949  16.282  11.883
42328W        W12209  18.115  10.150   1.853
42329W        W12210  32.422  40.527   1.339
42330W        W12211   4.226  13.189  10.427
42331W        W12212  40.539  39.452  14.838
42332W        W12213  18.571  40.482  12.423
42333W        W12214  10.838  13.704  11.398
42334W        W12215  34.584  43.885   4.836
42335W        W12216  27.467  28.938   4.262
42336W        W12217   1.425  21.569   0.323
42337W        W12218  43.371  29.057  14.993
42338W        W12219  14.643  23.070   1.910
42339W        W12220  38.916  16.143   4.668
42340W        W12221  24.103  40.943   1.258
42341W        W12222  22.728  25.153  13.468
42342W        W12223  40.843  11.362   0.289
42343W        W12224   7.686   2.369   1.826
42344W        W12225  14.259   9.339   1.450
42345W        W12226   7.759  29.615   4.809
42346W        W12227  27.468  15.744  11.026
42347W        W12228  30.037  38.835   3.862
42348W        W12229   2.324  20.600  14.768
42349W        W12230   0.303   9.844  12.059
42350W        W12231  32.963  36.986  14.019
42351W        W12232  24.664  15.683   1.860
42352W        W12233  11.222  11.139   1.296
42353W        W12234  42.793  37.385  12.477
42354W        W12235  32.052  16.217  10.115
42355W        W12236  33.940  12.678  14.786
42356W        W12237   8.243  17.568  14.408
42357W        W12238  22.101  24.097   4.791
42358W        W12239  34.471  33.052   1.257
42359W        W12240  31.611  39.476   0.816
42360W        W12241   7.755  42.428   4.307
42361W        W12242  42.879  15.158   3.236
42362W        W12243  11.244  30.907  11.603
42363W        W12244  14.653  35.483  14.031
42364W        W12245   9.780  13.796  13.911
42365W        W12246  10.362  37.885  12.567
42366W        W12247  38.376   6.877   4.161
42367W        W12248   3.894  26.557   1.304
42368W        W12249   8.764  36.432  12.934
42369W        W12250  30.425  29.079   2.285
42370W        W12251   7.272  40.387  11.053
42371W        W12252  21.071   0.883  13.408
42372W        W12253  32.406   1.841   1.279
42373W        W12254  36.480   5.711  10.533
42374W        W12255  11.293  17.601  14.782
42375W        W12256  20.581  11.812  12.988
42376W        W12257  22.697  31.403   0.915
42377W        W12258  21.258  41.043  14.488
42378W        W12259  23.662  16.185  14.933
42379W        W12260  28.048  44.840  11.920
42380W        W12261  31.513  38.888   4.298
42381W        W12262  17.065  26.037   0.242
42382W        W12263   1.438  33.614   0.895
42383W        W12264  16.091   2.265  12.060
42384W        W12265  27.552   5.718   3.290
42385W        W12266   7.823  10.307   1.878
42386W        W12267   5.912  21.581   1.331
42387W        W12268  20.140  32.517   3.268
42388W        W12269   7.760  32.969   4.755
42389W        W12270  14.774  30.159   3.233
42390W        W12271  27.042  10.740   2.303
42391W        W12272  28.522  15.128  14.282
42392W        W12273  21.598  24.054  10.965
42393W        W12274  31.550  24.200  11.891
42394W        W12275  21.025  18.649  14.904
42395W        W12276   6.712  31.631  12.363
42396W        W12277  11.216  30.958  13.544
42397W        W12278  20.687  17.786  13.898
42398W        W12279  12.339  33.566  10.412
42399W        W12280  40.044  34.501   0.346
42400W        W12281  42.986  18.700   1.927
42401W        W12282  31.645  33.047  13.990
42402W        W12283  10.862  33.926   0.466
42403W        W12284   2.795   7.671   3.184
42404W        W12285  40.370  12.134   3.785
42405W        W12286   5.754  12.243   3.726
42406W        W12287  24.082  14.598   1.372
42407W        W12288   3.758  32.633  13.882
42408W        W12289  34.086  31.930   4.177
42409W        W12290  20.669  32.478   4.642
42410W        W12291  40.418  21.028   2.231
42411W        W12292  15.709   8.171  12.061
42412W        W12293   6.897   9.333  14.351
42413W        W12294  42.949  14.134   3.660
42414W        W12295  26.131  10.687  13.482
42415W        W12296  36.093  12.689   0.254
42416W        W12297  23.231  18.094   0.424
42417W        W12298  43.487  20.680   1.286
42418W        W12299  37.383  43.780  12.094
42419W        W12300  39.996  14.746   1.899
42420W        W12301  32.607  20.610   0.458
42421W        W12302  23.707  41.964  14.954
42422W        W12303  24.230   0.338  11.046
42423W        W12304  28.527  35.563   0.794
42424W        W12305  28.517  29.484  10.904
42425W        W12306  24.143  31.496   1.449
42426W        W12307   4.263  25.172  13.796
42427W        W12308  26.105  39.464  14.796
42428W        W12309  26.987  44.776   3.723
42429W        W12310  12.630  22.160   2.677
42430W        W12311   7.839  16.752  10.429
42431W        W12312   3.421  22.502   0.242
42432W        W12313  42.473  10.172  11.561
42433W        W12314  30.414   8.735  12.430
42434W        W12315   9.211  31.068  11.403
42435W        W12316  14.136  14.237   0.339
42436W        W12317  43.377  32.103  10.406
42437W        W12318  41.405  22.102   3.804
42438W        W12319   4.800   5.845   1.221
42439W        W12320  13.672  23.076   4.154
42440W        W12321  14.252  29.648   2.746
42441W        W12322  11.729  14.233   5.114
42442W        W12323  27.032   0.406  10.893
42443W        W12324  21.548  20.694  12.369
42444W        W12325  42.419  27.118   0.431
42445W        W12326  26.640   3.379   3.727
42446W        W12327  39.878  34.906  12.476
42447W        W12328  22.106   1.459   2.730
42448W        W12329  40.907  41.509  10.459
42449W        W12330  22.743  30.648   2.305
42450W        W12331  26.957  31.153   1.388
42451W        W12332  39.946  22.038  13.515
42452W        W12333  10.364  43.000   3.752
42453W        W12334  23.705  14.271  12.362
42454W        W12335   6.906   6.744  13.817
42455W        W12336  39.000  21.102  10.485
42456W        W12337   6.308   9.856  11.967
42457W        W12338  18.152  27.114   4.320
42458W        W12339  41.009  30.161   1.830
42459W        W12340  31.484   9.352   0.402
42460W        W12341   6.197  20.165   0.787
42461W        W12342  24.614   8.768  11.112
42462W        W12343  16.217  29.582  11.867
42463W        W12344  35.944  43.453  14.331
42464W        W12345  23.653   0.466   0.784
42465W        W12346   8.169  20.735  12.045
42466W        W12347  34.068  31.147   2.290
42467W        W12348  37.434  16.660  13.512
42468W        W12349   0.352  38.944  14.909
42469W        W12350  13.144  20.202   2.268
42470W        W12351   2.293  17.170   2.824
42471W        W12352  31.100  37.409   3.742
42472W        W12353  11.715   2.383  11.598
42473W        W12354  20.052  38.495   1.769
42474W        W12355  19.057  11.792  10.927
42475W        W12356  27.968  15.277   4.719
42476W        W12357  13.142  36.915  14.431
42477W        W12358  12.190   3.780   1.363
42478W        W12359  33.973  34.958  12.882
42479W        W12360  13.122  27.023   3.732
42480W        W12361  27.955  36.380   1.811
42481W        W12362  17.762  15.146   0.775
42482W        W12363  14.204  28.021   3.285
42483W        W12364  20.121  17.136   1.793
42484W        W12365  13.145  38.326   0.413
42485W        W12366  32.543   9.742  10.437
42486W        W12367  15.266   9.395   3.259
42487W        W12368  40.894  41.397  12.377
42488W        W12369  34.474  34.998  13.540
42489W        W12370  27.979  43.440   2.333
42490W        W12371  14.263  29.632   0.839
42491W        W12372  28.479  35.093   4.834
42492W        W12373  25.636   1.429  13.904
42493W        W12374  44.367   4.206   3.221
42494W        W12375   1.365  40.921  12.556
42495W        W12376   6.262   7.364  10.104
42496W        W12377  17.612  21.645   0.950
42497W        W12378  25.475  25.476  10.956
42498W        W12379  43.502  28.641  14.897
42499W        W12380   6.200   9.389   3.178
42500W        W12381  17.300  10.383   3.345
42501W        W12382   0.410   3.459  12.501
42502W        W12383  21.653  33.889  10.550
42503W        W12384  27.580  11.300   2.668
42504W        W12385  35.099  39.507   4.288
42505W        W12386  27.167  24.664  13.818
42506W        W12387  26.532  39.464  10.599
42507W        W12388   2.827  15.167   3.771
42508W        W12389  19.724   5.932  12.881
42509W        W12390  42.898  36.062  10.911
42510W        W12391  16.114  13.168   4.277
42511W        W12392  24.976   2.345   0.458
42512W        W12393   7.693  30.138  12.354
42513W        W12394   6.855  12.349   2.866
42514W        W12395  19.073   9.271   1.903
42515W        W12396  38.934  20.066  13.361
42516W        W12397  19.729   3.231   0.940
42517W        W12398  40.390  29.942  14.286
42518W        W12399  24.035  44.331   4.327
42519W        W12400   7.846  34.499   0.244
42520W        W12401  17.612   3.909  12.959
42521W        W12402  22.160  40.053   3.221
42522W        W12403  44.416  30.569  13.893
42523W        W12404  33.126  42.878  13.352
42524W        W12405   0.346  15.814   0.320
42525W        W12406   1.390  16.772  11.977
42526W        W12407  31.964  19.724   3.638
42527W        W12408   2.256  19.068  10.935
42528W        W12409  12.745  38.356  14.420
42529W        W12410   3.239  31.142  14.981
42530W        W12411   0.838  10.278   1.741
42531W        W12412  31.135  40.965  12.870
42532W        W12413  19.565  16.579   4.174
42533W        W12414  14.710   1.821   1.262
42534W        W12415   0.949  21.558   3.210
42535W        W12416   5.815  13.612   1.369
42536W        W12417  35.854  43.426  10.626
42537W        W12418   7.254  11.738   3.308
42538W        W12419  13.286  30.053  10.511
42539W        W12420  40.848   4.350  14.314
42540W        W12421  37.061  31.561   4.690
42541W        W12422  25.673  25.175  14.841
42542W        W12423   5.436  31.029   0.409
42543W        W12424  17.234  10.306   3.814
42544W        W12425   2.900  33.449   1.357
42545W        W12426  20.110   0.323  12.851
42546W        W12427   2.295  18.554  11.438
42547W        W12428  15.092  35.084  14.419
42548W        W12429  24.111  38.919   3.312
42549W        W12430  23.585  32.897  13.442
42550W        W12431  32.930  32.523  12.527
42551W        W12432  25.544  29.052   1.220
42552W        W12433  44.416  39.383  10.984
42553W        W12434  21.552  14.731   3.654
42554W        W12435  42.336  10.647  10.929
42555W        W12436  16.167  36.371  14.310
42556W        W12437  20.190  31.637   1.717
42557W        W12438  38.342   6.921   3.367
42558W        W12439  37.842   8.822   3.847
42559W        W12440   4.814  43.977  13.925
42560W        W12441  31.481   0.314   2.375
42561W        W12442  29.046   2.858  10.918
42562W        W12443  29.525   2.337  13.494
42563W        W12444  14.808   9.202   2.671
42564W        W12445   2.734  33.387   2.763
42565W        W12446  18.096   3.955  11.433
42566W        W12447  32.091  43.997  12.871
42567W        W12448  10.804  16.258   2.250
42568W        W12449   9.760   6.918   2.368
42569W        W12450   5.437  14.830   4.154
42570W        W12451  19.048  40.490   1.821
42571W        W12452  26.068  38.540   1.437
42572W        W12453  11.316  11.777   2.878
42573W        W12454  36.504  42.950  11.120
42574W        W12455  14.137  36.388   0.246
42575W        W12456  15.158   8.693  13.868
42576W        W12457  44.997  41.972   0.920
42577W        W12458   6.310  32.023  14.879
42578W        W12459  36.447   5.715  13.906
42579W        W12460  14.831  11.787  11.970
42580W        W12461  33.419   8.822  10.634
42581W        W12462   0.315  36.450   3.681
42582W        W12463  20.252  34.022  11.122
42583W        W12464  19.147  42.810  12.407
42584W        W12465  12.245   4.805   3.191
42585W        W12466  38.457  20.154   0.735
42586W        W12467  32.463   4.250   3.204
42587W        W12468   6.778  36.446   2.179
42588W        W12469   7.227  33.085  10.441
42589W        W12470  22.515  31.500   4.316
42590W        W12471  19.711  11.689  14.403
42591W        W12472  29.608  40.833  13.868
42592W        W12473  33.049   2.320  14.355
42593W        W12474  21.043  44.355   1.861
42594W        W12475  29.954  25.968  11.097
42595W        W12476  35.593  10.822  13.001
42596W        W12477  21.542  26.627   2.762
42597W        W12478  43.807  22.211   4.715
42598W        W12479  44.261  30.152  13.434
42599W        W12480  41.915  14.124  14.029
42600W        W12481  19.631  12.776   0.395
42601W        W12482   7.728  44.786   4.117
42602W        W12483   9.317  23.574   4.709
42603W        W12484  37.537  42.430  14.834
42604W        W12485  17.628  39.394  11.950
42605W        W12486  16.262  13.757  14.915
42606W        W12487  38.334  23.075   0.483
42607W        W12488  13.257  29.489   3.294
42608W        W12489   6.814  35.918  12.839
42609W        W12490   9.292  12.665   3.769
42610W        W12491  37.575  12.686   0.831
42611W        W12492  19.209  35.857  11.009
42612W        W12493  39.845   7.416  10.494
42613W        W12494  40.416  40.030  11.897
42614W        W12495  25.517  22.671  13.996
42615W        W12496  23.569  33.424  10.506
42616W        W12497  23.049   6.261   3.698
42617W        W12498  16.201  42.476   4.326
42618W        W12499   4.219  32.000   3.330
42619W        W12500  10.696  29.987  10.434
42620W        W12501  33.542  21.186  14.855
42621W        W12502  18.686  44.831   0.766
42622W        W12503  39.523  12.794   5.255
42623W        W12504  42.526  27.503   0.449
42624W        W12505  28.508  16.656  14.842
42625W        W12506  34.972  39.460  13.986
42626W        W12507   7.175  15.669  13.806
42627W        W12508  35.502   1.838   3.771
42628W        W12509  40.956   9.366  11.039
42629W        W12510  27.564  42.331   4.320
42630W        W12511  36.852  26.518  10.915
42631W        W12512  27.024   3.338  11.993
42632W        W12513  11.731  21.667   3.340
42633W        W12514  44.293  21.533   2.331
42634W        W12515  30.658  14.751  10.553
42635W        W12516  18.097  41.432  13.962
42636W        W12517  30.605  38.479   2.336
42637W        W12518  36.937   4.259  14.773
42638W        W12519   8.199  31.563   4.834
42639W        W12520  41.899  39.342  13.816
42640W        W12521  38.420  33.465   4.355
42641W        W12522  21.097  36.358   4.645
42642W        W12523  34.392   5.296   3.157
42643W        W12524  42.511   2.822   3.157
42644W        W12525  32.898   4.286  13.819
42645W        W12526   5.348  15.254  11.536
42646W        W12527   2.229  28.575  13.031
42647W        W12528   4.885  40.436   5.250
42648W        W12529   9.373   8.828   0.887
42649W        W12530  10.741  38.908  10.626
42650W        W12531   1.249  34.945   4.781
42651W        W12532  37.870  20.181  10.934
42652W        W12533  15.766  22.018  10.532
42653W        W12534  32.893  38.976  12.008
42654W        W12535  38.033   1.466  11.090
42655W        W12536  32.468  40.030   3.807
42656W        W12537  26.151  42.517   1.371
42657W        W12538  34.901   4.231  11.593
42658W        W12539  12.227  41.880  11.487
42659W        W12540   0.347  21.754  14.389
42660W        W12541  10.140  18.728   3.347
42661W        W12542  16.213  32.936  14.945
42662W        W12543   7.375   4.270  12.540
42663W        W12544  35.092  35.021  10.887
42664W        W12545  36.401  13.846  14.989
42665W        W12546  17.643  43.911   2.830
42666W        W12547  26.002  35.893   2.900
42667W        W12548  16.229  24.034   1.306
42668W        W12549   3.223   4.449  12.365
42669W        W12550  44.396  43.503  14.008
42670W        W12551  12.845  44.771  14.367
42671W        W12552  33.974  19.198   2.867
42672W        W12553  21.692   7.823  10.560
42673W        W12554  28.649  18.608   2.771
42674W        W12555  19.546   9.155   3.262
42675W        W12556   8.852  35.080   2.679
42676W        W12557  17.260  19.083   1.725
42677W        W12558  23.705  27.166   2.722
42678W        W12559   5.800  32.994  11.026
42679W        W12560  11.204  21.090   2.382
42680W        W12561   2.335  18.230  10.565
42681W        W12562  33.423  23.240   3.675
42682W        W12563  19.605  25.513  14.292
42683W        W12564   0.846  17.248  13.313
42684W        W12565   3.456   8.697  12.877
42685W        W12566   4.261   2.415  10.945
42686W        W12567  33.509   0.979  10.907
42687W        W12568   9.152  14.336  10.955
42688W        W12569   8.878  26.667   3.846
42689W        W12570  34.068  38.402  12.372
42690W        W12571  12.610  40.812   2.685
42691W        W12572  10.290   0.813  11.534
42692W        W12573   7.297  10.772   4.687
42693W        W12574  43.330  19.070   2.741
42694W        W12575  12.196  36.990  14.781
42695W        W12576  36.406  44.444   3.217
42696W        W12577  21.639  29.094  13.475
42697W        W12578  20.627  44.917  13.847
42698W        W12579  23.052  29.959   2.740
42699W        W12580   9.336  11.799   3.773
42700W        W12581  20.051   0.471   1.808
42701W        W12582  36.361   7.772   4.710
42702W        W12583  23.715  27.020   3.222
42703W        W12584  43.345   4.259  11.080
42704W        W12585  27.688  26.498   9.520
42705W        W12586  24.995  38.067  11.025
42706W        W12587  37.450  10.351  10.461
42707W        W12588  22.199  38.061  11.035
42708W        W12589   0.753   3.861   3.842
42709W        W12590  14.618  38.958   4.289
42710W        W12591  33.387  30.510  12.354
42711W        W12592   5.778  23.544   0.877
42712W        W12593   8.238  18.179   3.292
42713W        W12594  17.067  36.354   4.624
42714W        W12595  11.352  15.633   1.900
42715W        W12596  30.922  18.227   2.746
42716W        W12597   1.289   4.863   1.802
42717W        W12598  35.008  20.203  12.058
42718W        W12599   7.681  19.660  12.072
42719W        W12600  31.068   8.288   2.744
42720W        W12601  44.827  28.118   3.769
42721W        W12602  27.110  37.006  14.852
42722W        W12603   9.773   4.803   3.235
42723W        W12604   0.289  43.429  12.953
42724W        W12605  12.359  21.181  10.497
42725W        W12606   4.315   4.923   1.838
42726W        W12607  27.101  19.079  11.866
42727W        W12608  32.631  10.821  10.541
42728W        W12609  43.365  20.579   2.216
42729W        W12610   1.944  13.655  13.904
42730W        W12611   5.781   3.829  12.060
42731W        W12612  33.963   3.219   2.724
42732W        W12613  14.145   3.919  13.040
42733W        W12614  25.097  22.540  14.846
42734W        W12615  35.967  17.598   0.358
42735W        W12616  12.748   4.914   3.158
42736W        W12617   0.944  23.649  14.844
42737W        W12618   7.271  31.942   4.142
42738W        W12619  27.044  43.780   3.662
42739W        W12620  17.696  39.508  14.982
42740W        W12621  13.132   4.772  13.908
42741W        W12622  37.482   7.693   0.405
42742W        W12623  33.568  21.018   5.281
42743W        W12624  14.104   2.841   4.817
42744W        W12625   6.419  21.104  10.040
42745W        W12626  27.545  10.314   1.818
42746W        W12627   8.315   3.743   4.215
42747W        W12628  25.596   6.283  11.008
42748W        W12629   9.207  32.503  13.893
42749W        W12630  43.971   3.878  11.077
42750W        W12631   0.262  14.312  10.575
42751W        W12632  44.798   7.256  14.976
42752W        W12633  35.014  40.511   1.445
42753W        W12634  24.562  27.685   2.252
42754W        W12635   2.846  29.661   2.278
42755W        W12636  20.730  42.968  11.523
42756W        W12637  27.633  26.029   4.801
42757W        W12638  25.520  19.205  12.875
42758W        W12639  29.452  35.958   3.212
42759W        W12640  43.278  25.007  12.958
42760W        W12641  15.761  12.850  14.881
42761W        W12642  22.741  18.093  11.085
42762W        W12643  17.268  28.091   0.252
42763W        W12644  16.172  30.543   1.708
42764W        W12645   8.819  16.580   4.792
42765W        W12646  13.696  42.831   2.185
42766W        W12647  21.522   5.766  10.408
42767W        W12648  17.771  35.518   0.803
42768W        W12649  31.958  12.733   0.805
42769W        W12650   4.887  43.356  14.516
42770W        W12651  35.012  19.052  13.355
42771W        W12652  40.448  29.669   1.253
42772W        W12653  38.878  34.907   4.271
42773W        W12654  33.495  11.184  11.984
42774W        W12655   5.336  11.152   1.916
42775W        W12656  44.471  11.242   3.710
42776W        W12657  12.136  42.900  13.368
42777W        W12658  23.195  44.856   3.185
42778W        W12659  37.933  34.444   1.736
42779W        W12660  26.486  33.964   1.378
42780W        W12661  32.085  40.440   0.245
42781W        W12662  34.511  31.523  14.426
42782W        W12663   5.926  41.923  10.549
42783W        W12664  24.222  17.643   3.353
42784W        W12665  37.450  20.229  13.458
42785W        W12666  35.063  41.514   2.844
42786W        W12667   3.721  13.306   1.328
42787W        W12668  15.674  23.677  10.916
42788W        W12669  24.599  22.696  11.977
42789W        W12670  33.085  15.320   2.881
42790W        W12671   8.701   2.226  10.636
42791W        W12672  18.260  42.481  14.284
42792W        W12673   7.682  23.548  13.533
42793W        W12674  12.758  40.515   3.798
42794W        W12675   5.236  22.584  10.549
42795W        W12676  23.061   8.678   3.179
42796W        W12677  17.102  32.955  14.878
42797W        W12678  36.400  21.161   3.653
42798W        W12679  16.625   4.374  10.421
42799W        W12680  15.761  29.980  10.894
42800W        W12681   1.747  39.496  14.792
42801W        W12682  18.232  43.333   1.875
42802W        W12683  10.742  18.095  12.852
42803W        W12684  41.513  14.757  13.541
42804W        W12685  16.620  16.809   3.688
42805W        W12686  39.810  11.630  14.512
42806W        W12687  29.449   5.853   9.586
42807W        W12688  13.194  16.140  14.934
42808W        W12689  17.630   7.186   1.425
42809W        W12690  38.045  40.840  13.402
42810W        W12691   5.341  19.725  10.530
42811W        W12692  43.915   6.302   4.765
42812W        W12693  28.034  42.284   3.274
42813W        W12694   3.868  36.886  13.316
42814W        W12695  15.121  41.295  12.447
42815W        W12696   5.920  40.445   4.262
42816W        W12697  42.937   8.174  12.557
42817W        W12698   9.704  24.094  13.016
42818W        W12699  25.171  37.476  14.947
42819W        W12700  41.848  39.981   3.644
42820W        W12701   0.932  24.112  11.570
42821W        W12702  40.033  12.213   3.825
42822W        W12703  30.961  26.048   4.647
42823W        W12704  34.394  38.488   1.825
42824W        W12705  25.481   7.310  11.006
42825W        W12706   6.425  25.704  11.600
42826W        W12707  22.086  42.915  10.998
42827W        W12708  17.749   4.834  12.073
42828W        W12709  38.564  20.232   1.242
42829W        W12710  34.109  30.610   4.718
42830W        W12711  25.098   9.827  13.914
42831W        W12712  28.173   8.327   1.402
42832W        W12713  44.307  21.064   0.462
42833W        W12714  22.569   8.366  12.474
42834W        W12715   9.212  32.028  11.972
42835W        W12716  26.993   0.470   2.903
42836W        W12717  36.579  19.242  13.342
42837W        W12718   0.962  32.138  10.571
42838W        W12719  35.011  21.754   2.389
42839W        W12720  20.044  41.465  14.925
42840W        W12721   2.954  34.603   4.701
42841W        W12722  10.720   9.877   3.161
42842W        W12723  36.569   4.740   3.378
42843W        W12724   2.318  23.638  12.076
42844W        W12725  24.654  35.557  12.002
42845W        W12726   6.856  16.278   2.315
42846W        W12727  23.058   8.751   2.846
42847W        W12728   8.732  15.130  12.414
42848W        W12729  24.579  29.966  10.932
42849W        W12730   7.320  40.917   1.923
42850W        W12731  27.991  19.596   2.812
42851W        W12732  24.068  19.090  10.010
42852W        W12733   7.317  25.053   3.197
42853W        W12734  44.824  30.594  12.933
42854W        W12735   5.195   7.850   2.853
42855W        W12736  34.973  38.917   1.313
42856W        W12737  24.031  41.428   1.703
42857W        W12738  21.086  18.782   0.355
42858W        W12739  39.813  22.539   4.679
42859W        W12740  32.436  26.030  10.983
42860W        W12741   8.842  29.670   0.909
42861W        W12742  32.518  22.014   4.148
42862W        W12743  18.645  31.112  14.445
42863W        W12744  25.129   7.330   2.742
42864W        W12745  15.227   4.824   4.186
42865W        W12746  29.507  12.137  14.279
42866W        W12747   4.808  29.978   3.685
42867W        W12748  39.392   2.808   1.430
42868W        W12749  39.490   0.806   1.852
42869W        W12750  15.591   0.263  12.412
42870W        W12751  33.591  25.120  13.844
42871W        W12752  35.029   6.717   3.819
42872W        W12753  22.526   8.295  13.423
42873W        W12754  14.677   9.336   4.629
42874W        W12755   1.787  29.642   2.182
42875W        W12756   3.246  40.533  14.472
42876W        W12757  28.084  31.040   2.358
42877W        W12758  30.585  12.260   2.197
42878W        W12759  34.941  24.150  10.438
42879W        W12760  35.010  11.792   2.668
42880W        W12761  26.671  22.640   5.289
42881W        W12762  26.603   2.831   4.247
42882W        W12763  34.411   7.771  11.419
42883W        W12764  39.481   8.854  13.313
42884W        W12765  25.181   1.872  11.561
42885W        W12766   3.264  24.494   3.312
42886W        W12767   2.903   4.705  14.448
42887W        W12768  39.917  26.535  14.434
42888W        W12769  36.537  37.494   4.606
42889W        W12770  40.496  10.834  14.964
42890W        W12771  18.158   5.924  14.764
42891W        W12772  44.349  28.538  13.367
42892W        W12773  22.580  35.008   4.139
42893W        W12774   5.861  24.661  12.891
42894W        W12775  16.260  37.399  14.951
42895W        W12776  17.151   8.747  14.002
42896W        W12777   9.796  18.178  13.010
42897W        W12778  19.079   4.386  10.903
42898W        W12779  22.705   3.425   2.382
42899W        W12780  25.685   5.908  13.042
42900W        W12781  32.570  31.551   0.756
42901W        W12782  12.844  37.563  14.460
42902W        W12783  41.011  17.300  13.448
42903W        W12784  30.482  26.018   3.328
42904W        W12785  28.140   2.408  10.989
42905W        W12786  23.520  27.062   2.277
42906W        W12787   0.386  24.127  12.870
42907W        W12788  42.503  22.667  11.408
42908W        W12789  11.739   0.981  10.424
42909W        W12790   2.412  43.372  14.992
42910W        W12791  38.947  21.228   0.907
42911W        W12792   8.334  40.503   1.734
42912W        W12793  30.127   8.364  12.851
42913W        W12794  23.568  12.262  12.539
42914W        W12795  39.998  14.149   4.252
42915W        W12796  28.569  34.000  11.521
42916W        W12797  31.022  15.785   9.957
42917W        W12798  19.632   7.221   4.625
42918W        W12799  17.287  43.014  11.499
42919W        W12800  29.554  37.028  12.557
42920W        W12801  14.178   5.225  11.977
42921W        W12802  25.574  23.988  14.374
42922W        W12803  19.588  12.174   3.716
42923W        W12804  38.890  27.666   1.219
42924W        W12805  44.334  18.230   0.274
42925W        W12806  12.350  23.989  11.536
42926W        W12807  15.738   4.443   3.856
42927W        W12808  19.704  17.557   2.284
42928W        W12809   8.715   6.730   4.253
42929W        W12810  40.379  43.408  12.501
42930W        W12811  17.620   6.762   4.164
42931W        W12812  23.518  31.055   0.467
42932W        W12813  11.719   1.952   4.677
42933W        W12814  14.614  27.634   0.793
42934W        W12815  44.259  20.256  14.414
42935W        W12816  33.494  32.984   0.875
42936W        W12817  33.506  30.959   1.327
42937W        W12818   3.235  24.992  14.003
42938W        W12819  17.711   3.893   1.352
42939W        W12820  18.697  42.990   0.734
42940W        W12821   3.384  19.736   4.632
42941W        W12822  25.203  33.944   3.673
42942W        W12823  28.940  27.568   1.326
42943W        W12824  33.500   8.311  13.319
42944W        W12825  18.107   6.223  11.483
42945W        W12826   6.183  34.407  11.018
42946W        W12827  28.540   8.366  13.476
42947W        W12828  36.479   5.270  10.492
42948W        W12829  22.027   4.371  11.092
42949W        W12830  28.496   5.328  12.469
42950W        W12831  16.115   0.291  10.564
42951W        W12832  27.533  42.814  11.562
42952W        W12833  20.609  33.931   0.813
42953W        W12834  33.887  41.296   3.268
42954W        W12835  16.793  33.132  13.937
42955W        W12836  17.064  25.625  10.422
42956W        W12837  36.513  22.627  10.083
42957W        W12838  18.204  44.891   4.685
42958W        W12839  42.459   8.393  13.361
42959W        W12840  21.593  28.136   2.777
42960W        W12841  23.083  40.547   1.433
42961W        W12842   5.353  20.142  13.415
42962W        W12843  35.488  26.538  10.004
42963W        W12844  39.002  43.877  12.504
42964W        W12845  25.028  27.507  10.594
42965W        W12846  26.549  10.208   1.709
42966W        W12847  24.689  42.295  10.922
42967W        W12848  16.707  21.165  13.982
42968W        W12849  16.766  11.711  14.296
42969W        W12850  10.203   4.267  14.989
42970W        W12851  17.230   1.887  14.017
42971W        W12852  10.802  32.423  13.820
42972W        W12853  13.336   3.710  13.376
42973W        W12854   4.874  37.517  10.407
42974W        W12855  28.118  38.070  14.835
42975W        W12856  41.369  23.529  13.387
42976W        W12857   4.413  31.404   0.286
42977W        W12858  19.719  19.603   5.210
42978W        W12859  38.852  14.746   1.380
42979W        W12860   3.880   5.816  11.604
42980W        W12861  26.517  20.688  11.103
42981W        W12862  40.340  25.007   4.306
42982W        W12863  32.027   4.770   4.822
42983W        W12864  32.996  15.637  14.410
42984W        W12865  44.929  18.291  10.423
42985W        W12866  19.711  37.524  14.848
42986W        W12867   4.417  23.658  14.008
42987W        W12868   5.840  11.244  13.454
42988W        W12869  38.343  13.671   1.863
42989W        W12870  44.944  44.846  10.913
42990W        W12871  24.997  27.554  13.033
42991W        W12872  26.066  13.278  10.628
42992W        W12873  24.657   0.468  11.511
42993W        W12874  41.301  14.826   0.871
42994W        W12875  30.537  28.670   4.274
42995W        W12876  25.971  27.982  14.507
42996W        W12877   1.753  29.926   0.402
42997W        W12878   2.868  21.580  14.016
42998W        W12879  31.069  23.735   2.690
42999W        W12880  10.311   8.283   0.848
43000W        W12881  13.836  23.166  13.334
43001W        W12882  12.733  26.066  12.349
43002W        W12883  36.858  24.590   4.662
43003W        W12884  11.287   0.345  12.405
43004W        W12885  10.272  10.680  11.546
43005W        W12886  32.965  24.041   2.710
43006W        W12887  10.212  39.908   1.908
43007W        W12888  26.650  21.220   2.216
43008W        W12889  14.711  15.646   2.308
43009W        W12890  37.902  17.203  13.827
43010W        W12891   5.273  43.772  14.831
43011W        W12892  28.559  23.651  13.412
43012W        W12893  37.036  35.062  13.883
43013W        W12894  12.290  36.361   4.328
43014W        W12895  26.987  43.851  11.594
43015W        W12896   3.229  11.209   3.719
43016W        W12897   0.834  27.984   5.226
43017W        W12898  13.226  41.417  12.435
43018W        W12899  38.889  11.641  12.347
43019W        W12900   8.320  27.689  13.539
43020W        W12901  26.116  10.739  12.941
43021W        W12902  40.018  31.134  11.012
43022W        W12903  38.558  14.594  14.393
43023W        W12904   8.353  34.912   2.288
43024W        W12905  21.651  31.133  14.462
43025W        W12906  43.874  16.607   4.185
43026W        W12907  26.170  27.177   3.659
43027W        W12908  25.152  12.138   4.750
43028W        W12909  18.115  36.899  14.480
43029W        W12910  12.215  33.025  12.094
43030W        W12911  26.116   5.429   1.934
43031W        W12912  23.541  20.040   1.212
43032W        W12913   5.308   6.418  13.967
43033W        W12914  30.650  12.675  14.763
43034W        W12915  34.473   5.816  13.931
43035W        W12916  23.551  41.913  11.997
43036W        W12917  19.625  34.426   4.228
43037W        W12918  36.401   8.377   4.240
43038W        W12919  23.710  33.990  14.359
43039W        W12920  43.358  15.160  11.580
43040W        W12921  24.640   9.787  14.313
43041W        W12922   3.259  21.144   2.417
43042W        W12923   3.234  11.831   4.728
43043W        W12924  39.529  27.633  13.981
43044W        W12925  38.040  35.057   4.606
43045W        W12926  23.525  42.784   2.356
43046W        W12927  17.563   3.354  13.049
43047W        W12928  42.298  35.892  14.907
43048W        W12929  40.441  40.461  11.983
43049W        W12930   8.871   6.838  13.390
43050W        W12931   2.347  32.626   3.173
43051W        W12932  17.249  30.520  12.339
43052W        W12933  33.099  35.860  11.598
43053W        W12934  21.193  32.909   4.800
43054W        W12935  22.509  18.583  13.477
43055W        W12936   0.940  19.547  11.935
43056W        W12937   1.772   1.808   3.239
43057W        W12938  41.467  32.116   1.819
43058W        W12939  27.967  41.968   2.388
43059W        W12940  39.421   2.744   3.784
43060W        W12941  36.478  31.563   2.320
43061W        W12942  16.630  13.260   3.153
43062W        W12943  28.999   0.307   2.683
43063W        W12944  19.702  43.354   2.315
43064W        W12945  26.196  40.871  13.802
43065W        W12946  14.648  32.472   3.319
43066W        W12947  15.607  21.175  10.971
43067W        W12948  12.828  39.850  13.891
43068W        W12949  33.424  43.455  10.933
43069W        W12950  12.209   9.735  14.847
43070W        W12951  22.652  31.944  14.412
43071W        W12952  16.587   6.272   1.417
43072W        W12953  13.655  30.577   4.210
43073W        W12954  17.744  41.520   1.777
43074W        W12955  18.075  34.948   2.898
43075W        W12956  12.832  29.004  13.357
43076W        W12957  23.146  32.488   0.745
43077W        W12958  30.005  43.371   1.925
43078W        W12959  21.546  21.039   1.326
43079W        W12960  44.504  33.105  14.782
43080W        W12961   8.389   9.702   3.701
43081W        W12962  39.349  24.688  11.488
43082W        W12963  39.430  30.520   3.724
43083W        W12964  33.917   6.691   1.417
43084W        W12965  40.006   1.882   1.326
43085W        W12966   7.686   5.810   1.295
43086W        W12967  43.775  43.999  14.513
43087W        W12968  25.696  22.636  10.065
43088W        W12969   7.232  13.606   2.250
43089W        W12970   8.674   4.880   2.786
43090W        W12971  13.143   7.751  10.491
43091W        W12972  11.744  18.608  10.132
43092W        W12973   9.242  37.437   1.239
43093W        W12974   8.758   8.323  10.404
43094W        W12975  23.123   0.262  13.457
43095W        W12976  23.566  37.032   4.335
43096W        W12977   8.833  29.043   4.207
43097W        W12978  18.181  41.968   3.317
43098W        W12979   0.250  27.597   3.869
43099W        W12980  43.960  28.065  13.850
43100W        W12981  18.701  10.879   1.849
43101W        W12982  34.866  42.973   4.635
43102W        W12983  23.566  19.627  11.942
43103W        W12984  15.206   1.376   0.937
43104W        W12985  35.888  36.431   0.259
43105W        W12986  42.281  24.133   3.234
43106W        W12987  39.044  22.151   0.458
43107W        W12988  22.231  20.258  10.462
43108W        W12989  18.259   2.326  12.939
43109W        W12990  18.584   1.445   0.921
43110W        W12991  25.678   0.894  14.466
43111W        W12992  26.628  26.590  13.393
43112W        W12993  38.979  14.294   4.221
43113W        W12994   8.773  43.850  13.923
43114W        W12995  13.770   9.337   0.478
43115W        W12996  39.026  38.944  14.324
43116W        W12997  37.530   7.332  10.572
43117W        W12998  10.762  44.978  12.382
43118W        W12999  40.915  20.059  11.127
43119W        W13000  44.825   6.416   3.852
43120W        W13001  40.013   9.668  11.479
43121W        W13002  13.244  11.629   3.710
43122W        W13003   9.193   2.760  14.474
43123W        W13004  30.015  11.169  13.531
43124W        W13005  30.593   7.224   1.821
43125W        W13006  22.220  44.773   0.253
43126W        W13007  14.641  18.591  14.811
43127W        W13008  25.139   1.908   3.660
43128W        W13009  40.920   1.406   1.817
43129W        W13010  40.962  34.496   4.678
43130W        W13011  37.415  21.724   1.924
43131W        W13012  42.480   4.917  13.868
43132W        W13013  33.563  19.227   0.406
43133W        W13014  12.305   5.209   3.638
43134W        W13015  12.640  34.521   4.219
43135W        W13016   1.338  34.869  11.447
43136W        W13017   7.780  43.460   1.759
43137W        W13018  37.493  40.998   2.252
43138W        W13019  11.198  39.834  14.372
43139W        W13020  40.911   3.735   4.720
43140W        W13021   1.373   1.455  12.033
43141W        W13022  37.499  38.968   4.172
43142W        W13023  30.987   4.448  11.406
43143W        W13024  31.484   0.827   2.877
43144W        W13025   4.920  31.635   0.766
43145W        W13026   0.415   3.844   2.753
43146W        W13027  42.285  39.470   2.721
43147W        W13028  35.930   5.729  14.398
43148W        W13029  18.655  19.609  10.976
43149W        W13030   1.967  18.674  11.442
43150W        W13031  34.119   7.767  10.889
43151W        W13032   7.714  12.747   1.247
43152W        W13033  37.538  20.720  13.319
43153W        W13034  12.194  30.473   2.416
43154W        W13035   4.414  33.001  11.437
43155W        W13036  42.790  12.850  12.375
43156W        W13037  35.420  29.922   0.747
43157W        W13038  43.289   8.781   2.236
43158W        W13039  17.284   5.872   1.410
43159W        W13040   0.484  38.942   4.612
43160W        W13041  38.472  43.957  14.862
43161W        W13042  20.128  11.261  12.941
43162W        W13043  19.181  27.060  12.092
43163W        W13044  14.687  42.962  10.587
43164W        W13045  37.040  38.967   4.802
43165W        W13046  30.989  27.543   4.182
43166W        W13047  10.169  42.332   3.194
43167W        W13048  22.670  44.845  13.315
43168W        W13049  35.371  27.636   0.458
43169W        W13050  10.261  30.588  13.034
43170W        W13051  28.147  12.332  13.470
43171W        W13052  41.976  19.225   0.959
43172W        W13053  38.834   8.782   0.834
43173W        W13054  44.768  42.459  14.014
43174W        W13055   2.880  14.317  11.546
43175W        W13056  32.531  38.352  11.118
43176W        W13057  33.448  36.036  10.448
43177W        W13058  14.252  13.281   3.215
43178W        W13059  11.623  25.499  12.531
43179W        W13060  24.684  31.429  10.999
43180W        W13061  34.551  15.211   4.300
43181W        W13062  17.154   5.345   1.878
43182W        W13063  41.824  17.086  13.521
43183W        W13064  21.631  25.645  10.556
43184W        W13065  39.560   1.436  14.442
43185W        W13066   4.715   9.720   0.943
43186W        W13067  41.418  44.366  13.895
43187W        W13068  13.678  33.980   4.616
43188W        W13069  44.321  18.255  10.918
43189W        W13070   5.215  16.217   2.386
43190W        W13071  30.627  15.796   4.639
43191W        W13072  41.451  26.617  14.776
43192W        W13073  43.965  40.501   3.387
43193W        W13074  29.023  12.737   0.798
43194W        W13075  23.207  27.552  10.476
43195W        W13076   7.796  25.548  10.625
43196W        W13077  14.821   6.751  14.325
43197W        W13078  23.206  16.149   0.965
43198W        W13079  17.583  24.644   1.241
43199W        W13080  37.879  23.086  12.573
43200W        W13081   0.874   3.814  13.360
43201W        W13082  39.497  38.873   9.971
43202W        W13083  28.492   4.380  14.473
43203W        W13084   3.237  34.992  12.910
43204W        W13085  14.783  37.985   3.662
43205W        W13086  18.675  44.364  13.434
43206W        W13087  35.876  13.635  13.392
43207W        W13088   6.895   1.338  10.895
43208W        W13089  22.102  10.346  11.956
43209W        W13090   9.217   5.879  11.112
43210W        W13091  32.061  20.603  13.399
43211W        W13092  35.370  28.007  14.900
43212W        W13093  25.995  40.355  13.955
43213W        W13094   6.855   1.413   2.337
43214W        W13095  21.537  25.008   3.275
43215W        W13096  18.116  31.448  14.281
43216W        W13097   2.405   5.918   2.685
43217W        W13098  29.623  32.080  11.977
43218W        W13099  14.149  36.912  10.504
43219W        W13100   8.404   5.724  12.387
43220W        W13101   4.763  43.808   1.710
43221W        W13102  15.170  25.527   1.365
43222W        W13103   5.829   5.237   2.860
43223W        W13104  44.803  11.209   3.364
43224W        W13105  16.084  40.920  13.862
43225W        W13106   0.908  38.482  11.604
43226W        W13107   3.863  38.844   0.736
43227W        W13108   9.770  27.593   3.157
43228W        W13109  33.945   3.301  10.970
43229W        W13110  26.090  33.438  10.569
43230W        W13111   0.412   0.867   0.821
43231W        W13112  42.326  35.490   3.702
43232W        W13113   4.438  29.028  12.916
43233W        W13114  32.036   5.247   1.915
43234W        W13115  43.790   5.761   1.927
43235W        W13116  24.027  43.389  11.010
43236W        W13117  15.701  24.537   0.346
43237W        W13118  36.471   7.218   1.364
43238W        W13119   2.800  30.592   1.858
43239W        W13120  13.702   9.644  11.067
43240W        W13121  13.605  10.675  14.813
43241W        W13122  17.191   8.786   0.245
43242W        W13123  19.154  41.980   3.306
43243W        W13124  41.891   6.774  12.547
43244W        W13125  32.595  30.416  10.431
43245W        W13126   0.276  18.728  14.318
43246W        W13127  32.063  36.015   3.337
43247W        W13128  22.633  30.454  12.565
43248W        W13129   6.866  30.442  13.858
43249W        W13130  33.615  17.723  14.359
43250W        W13131  30.433  30.080  14.855
43251W        W13132  34.064  11.238   4.813
43252W        W13133   7.718   3.910   3.358
43253W        W13134  40.978  30.444  10.925
43254W        W13135  14.297   8.335  14.013
43255W        W13136  11.661  36.350   3.289
43256W        W13137  41.323   2.816   2.722
43257W        W13138  19.181   6.841  12.993
43258W        W13139  40.862  29.112  12.045
43259W        W13140  11.329  27.512   2.236
43260W        W13141  39.967  15.665  11.013
43261W        W13142  14.191  35.105   1.882
43262W        W13143  20.239  23.012   2.747
43263W        W13144  28.018  27.946   5.282
43264W        W13145  12.615  43.493   2.261
43265W        W13146  42.941  27.053   0.337
43266W        W13147  12.684  41.842  11.458
43267W        W13148  24.553  36.486   4.267
43268W        W13149  15.265  28.168   0.900
43269W        W13150  41.336  41.791   1.817
43270W        W13151  13.778   6.862   2.195
43271W        W13152  12.142  18.183   1.254
43272W        W13153  35.525  20.680  14.374
43273W        W13154  20.166  33.028  13.062
43274W        W13155  35.044  29.950  13.938
43275W        W13156  13.620   3.763   4.679
43276W        W13157  42.456  17.177  13.347
43277W        W13158  23.029  41.467   1.275
43278W        W13159  41.332  41.435   0.427
43279W        W13160  20.577  21.645   1.380
43280W        W13161  42.386  24.097  12.051
43281W        W13162  20.243   6.704  14.477
43282W        W13163  38.901   5.691  14.310
43283W        W13164   9.878  23.648   3.709
43284W        W13165  34.083  22.017   3.321
43285W        W13166  17.569  41.999  11.975
43286W        W13167  43.893  15.138   0.316
43287W        W13168   3.363  16.178  10.606
43288W        W13169  35.912  36.020  10.439
43289W        W13170  14.612  17.284  13.938
43290W        W13171  11.213  35.375  14.515
43291W        W13172   0.286  44.338   4.181
43292W        W13173  11.353  16.677   2.784
43293W        W13174  30.977  43.787   2.744
43294W        W13175   3.784  18.245   2.286
43295W        W13176  34.999   3.894   1.426
43296W        W13177  20.137  30.075   3.772
43297W        W13178  12.131  36.942  13.792
43298W        W13179   8.240   1.480   4.755
43299W        W13180  28.576   3.778  13.810
43300W        W13181  39.535  35.892   4.292
43301W        W13182   2.852  22.023   0.874
43302W        W13183   4.301   9.826  10.467
43303W        W13184  31.036  21.047   2.762
43304W        W13185  43.019  22.031   4.793
43305W        W13186  25.561   3.920   4.209
43306W        W13187  15.265   5.693   0.296
43307W        W13188  28.992  36.436  14.862
43308W        W13189  20.722  18.075  12.062
43309W        W13190  32.446  21.670   3.673
43310W        W13191  43.965  41.929  11.990
43311W        W13192  25.570  27.999  14.797
43312W        W13193  19.264  27.139  12.832
43313W        W13194  17.258  16.711  11.406
43314W        W13195  32.473  33.475   3.351
43315W        W13196  12.787  10.241   3.713
43316W        W13197  44.441  17.685  12.861
43317W        W13198  30.602  29.027   4.785
43318W        W13199  41.328  34.479   4.722
43319W        W13200  22.687  43.819   0.414
43320W        W13201  26.584   5.895   2.259
43321W        W13202  42.298  10.775  10.623
43322W        W13203  15.652  28.538   0.443
43323W        W13204  16.146  26.147   4.233
43324W        W13205  18.215   9.817  14.341
43325W        W13206   2.288  34.962   1.834
43326W        W13207  24.161   5.894   4.248
43327W        W13208  16.216  44.875   3.738
43328W        W13209  17.616  22.132  10.551
43329W        W13210  17.659  11.847   1.721
43330W        W13211  20.209  28.157  13.315
43331W        W13212   1.385  22.019  12.070
43332W        W13213   1.429   1.451   0.263
43333W        W13214  17.640  13.121   0.773
43334W        W13215  18.086  23.113   0.322
43335W        W13216  41.502  39.860  14.362
43336W        W13217  26.043   3.744  14.513
43337W        W13218  42.947  31.436  12.979
43338W        W13219  44.312  41.795  12.516
43339W        W13220   4.277   6.689   3.380
43340W        W13221  27.177  27.087  13.408
43341W        W13222  39.400   8.893  10.970
43342W        W13223  18.130  22.631  10.463
43343W        W13224  19.073  40.392  14.830
43344W        W13225  33.942  26.161  12.481
43345W        W13226  34.422   6.225  14.360
43346W        W13227   5.384  39.838  13.395
43347W        W13228  25.543  28.528  14.332
43348W        W13229  20.120  20.149  14.830
43349W        W13230   6.716  34.570  11.385
43350W        W13231  14.686  22.019  13.449
43351W        W13232   8.251  16.212  12.412
43352W        W13233   2.814  26.680  11.099
43353W        W13234  19.562  42.293   1.768
43354W        W13235  10.773  21.731   3.770
43355W        W13236  39.378   8.346   3.670
43356W        W13237  11.780  30.122  13.414
43357W        W13238  38.444   4.900   2.773
43358W        W13239   1.951  35.428   2.297
43359W        W13240   6.202  42.891  10.993
43360W        W13241  29.017  30.045  11.508
43361W        W13242  37.552   9.872  13.335
43362W        W13243   7.176  10.145   2.775
43363W        W13244  33.110  18.253   3.774
43364W        W13245  19.724   9.866  12.063
43365W        W13246  40.928  27.946  11.031
43366W        W13247   4.816  39.553   2.783
43367W        W13248  12.129  40.899   0.373
43368W        W13249  22.651  28.047  14.828
43369W        W13250  24.150  38.929  12.439
43370W        W13251  35.411  17.688   4.265
43371W        W13252  36.466  20.263   1.754
43372W        W13253  29.594   1.412  12.567
43373W        W13254  39.971  19.550  14.930
43374W        W13255  35.599  21.019   3.853
43375W        W13256  41.811   2.786  14.971
43376W        W13257  19.772  26.564  12.879
43377W        W13258   2.308  34.005  12.990
43378W        W13259  25.059  23.583   1.231
43379W        W13260  39.852  37.500   1.761
43380W        W13261  20.111  12.319  14.850
43381W        W13262   9.221  25.022   5.148
43382W        W13263  24.119   8.717   0.373
43383W        W13264  44.830   2.793  11.058
43384W        W13265  25.651  32.543  13.888
43385W        W13266  26.643  26.465  10.474
43386W        W13267   7.415   6.749  13.333
43387W        W13268  27.011   6.200   3.652
43388W        W13269   8.267  20.068   3.670
43389W        W13270  10.713  23.583   0.918
43390W        W13271  20.197   5.762  12.447
43391W        W13272  14.639   3.327   2.270
43392W        W13273  26.661  16.257  14.803
43393W        W13274   7.677  28.164  14.379
43394W        W13275  15.140  16.655   0.476
43395W        W13276  22.031  13.318  14.348
43396W        W13277  20.260   6.875  13.041
43397W        W13278  29.637  40.547   3.860
43398W        W13279   7.671  11.823   2.853
43399W        W13280  41.517   7.271   4.227
43400W        W13281  15.646   0.943   3.169
43401W        W13282  35.530  26.504  13.038
43402W        W13283  43.279  38.331  13.361
43403W        W13284  25.654  15.669  11.069
43404W        W13285  15.600  12.760   2.794
43405W        W13286  24.032   4.205   2.715
43406W        W13287  17.158   2.743   0.476
43407W        W13288  15.711  36.969  11.553
43408W        W13289  35.495   6.763   2.360
43409W        W13290  36.498  16.311   1.444
43410W        W13291  14.597  15.623   0.434
43411W        W13292   8.721  27.037  14.864
43412W        W13293  24.219  18.752  13.052
43413W        W13294  15.713  20.224   0.278
43414W        W13295   0.249   7.207  13.008
43415W        W13296   5.274  14.201  11.531
43416W        W13297   2.751  19.746   1.234
43417W        W13298   5.277  22.139   0.348
43418W        W13299  22.048  15.099   3.349
43419W        W13300  10.251  39.480  13.435
43420W        W13301   4.329  14.314   0.353
43421W        W13302  44.275  13.795   4.715
43422W        W13303  32.637   2.961  11.515
43423W        W13304  42.371  26.649   3.700
43424W        W13305   5.356   6.715   3.762
43425W        W13306  38.952  38.436   0.771
43426W        W13307  40.365  40.332  10.557
43427W        W13308   0.945  18.603   3.659
43428W        W13309  27.640  12.727  11.398
43429W        W13310  22.689  44.316   3.372
43430W        W13311  30.004  19.693  14.785
43431W        W13312   2.768  36.470  13.010
43432W        W13313  15.755  38.332  13.007
43433W        W13314  15.637  17.761  12.422
43434W        W13315  27.062  43.273   4.130
43435W        W13316   6.746   8.298  14.514
43436W        W13317   6.838  27.179   3.356
43437W        W13318  23.104  30.622   4.334
43438W        W13319  20.153   9.850  13.458
43439W        W13320  39.320  14.648   3.298
43440W        W13321  24.118  27.478   4.639
43441W        W13322  41.853  35.367   2.301
43442W        W13323  24.103  15.133   2.370
43443W        W13324  41.876  29.640  13.049
43444W        W13325  32.488   1.307   0.822
43445W        W13326  30.460  23.162  11.920
43446W        W13327   3.269  29.968  12.069
43447W        W13328  30.649  32.416   2.885
43448W        W13329  13.111   6.786   4.120
43449W        W13330  13.734  10.218   3.216
43450W        W13331  37.336  17.752   0.324
43451W        W13332  18.691  27.472   5.242
43452W        W13333  35.863  41.465  10.549
43453W        W13334  21.248   1.916  11.091
43454W        W13335  38.447  21.738   1.795
43455W        W13336   0.792  29.525   1.709
43456W        W13337  23.497  16.175  10.568
43457W        W13338  16.109  26.128  12.914
43458W        W13339  29.482  39.818  10.449
43459W        W13340   6.401  36.525   2.344
43460W        W13341  25.060  19.148  13.994
43461W        W13342  39.957  10.148   4.293
43462W        W13343  20.717   6.734  12.450
43463W        W13344  16.658  23.627  14.955
43464W        W13345  37.908   4.781   2.329
43465W        W13346  19.555  30.459  14.399
43466W        W13347   8.182  24.584   3.661
43467W        W13348  39.329  43.945  12.959
43468W        W13349  32.451  22.015   2.192
43469W        W13350   0.962  42.921   3.860
43470W        W13351  25.071  38.468   0.790
43471W        W13352  13.345  32.032  10.421
43472W        W13353  23.498  22.246  14.356
43473W        W13354  23.184  22.073   3.835
43474W        W13355  21.074  32.453  13.872
43475W        W13356  41.382  14.204  10.492
43476W        W13357  20.694  30.086   2.380
43477W        W13358  22.529  29.087   4.338
43478W        W13359  44.977  17.216  10.607
43479W        W13360  39.365  17.106   2.250
43480W        W13361  24.143  29.999  10.432
43481W        W13362  44.459  32.525   3.304
43482W        W13363   8.342  20.085  11.479
43483W        W13364  13.324   2.912   1.925
43484W        W13365   5.830  37.417  11.956
43485W        W13366  26.521   4.921   1.383
43486W        W13367  23.205  44.392  13.043
43487W        W13368  43.793  19.706   4.249
43488W        W13369   1.857  23.616  12.979
43489W        W13370  24.576  36.399   4.752
43490W        W13371   7.404  15.816   4.811
43491W        W13372   3.834  23.597  10.426
43492W        W13373  41.467   9.239   1.887
43493W        W13374   1.828  27.602   1.786
43494W        W13375  33.996   4.315  14.022
43495W        W13376   0.855  42.010   9.925
43496W        W13377  10.282  24.066  13.951
43497W        W13378  24.722  27.973  13.045
43498W        W13379  21.060  40.035  13.943
43499W        W13380  27.036  17.562   2.234
43500W        W13381   9.207  25.138  11.087
43501W        W13382  38.943   3.870  13.351
43502W        W13383  24.064   8.893  13.007
43503W        W13384  23.089  40.875  14.300
43504W        W13385  39.476  37.420  11.469
43505W        W13386   7.218  10.318  10.907
43506W        W13387  14.811  27.176   3.318
43507W        W13388  44.267  38.939   2.233
43508W        W13389  35.472  22.154   4.128
43509W        W13390  12.201  14.658   2.834
43510W        W13391  13.246  41.961   0.810
43511W        W13392   6.212  20.046   1.371
43512W        W13393   3.220  15.226  10.421
43513W        W13394  28.037  13.149  12.541
43514W        W13395   2.858  31.049   4.650
43515W        W13396   1.366  34.984  11.065
43516W        W13397  18.755  11.250  13.545
43517W        W13398  24.037   3.741  12.485
43518W        W13399  39.549  15.696  13.039
43519W        W13400  37.065  43.450  11.879
43520W        W13401  29.139  24.496  10.567
43521W        W13402  39.479  42.417  14.923
43522W        W13403  39.410  26.146   1.739
43523W        W13404  34.020  44.980  14.965
43524W        W13405  19.207  24.601   2.714
43525W        W13406  17.634  16.619   3.793
43526W        W13407  13.664  41.986  12.468
43527W        W13408  32.959  36.523  11.528
43528W        W13409  27.454   8.829   1.419
43529W        W13410  39.010  14.171   1.715
43530W        W13411  29.958  28.005   4.221
43531W        W13412   6.791   6.888  11.482
43532W        W13413   7.317  13.713  13.816
43533W        W13414  24.164   0.786  14.921
43534W        W13415  39.361  34.553   2.817
43535W        W13416   6.737  35.019  10.900
43536W        W13417  32.131  24.078   4.168
43537W        W13418  16.657  38.996  14.499
43538W        W13419   7.874  38.396  10.563
43539W        W13420  39.436  30.047   0.377
43540W        W13421   1.820  20.582   1.909
43541W        W13422   2.349  15.640   1.267
43542W        W13423  14.108  37.397  14.450
43543W        W13424  43.825   0.451  12.886
43544W        W13425  33.430  22.614  13.356
43545W        W13426   1.362  37.027   0.402
43546W        W13427   3.217  29.588   4.277
43547W        W13428  19.604  32.998   4.661
43548W        W13429  30.658   4.918   0.360
43549W        W13430  34.558   5.916  10.504
43550W        W13431   1.435   2.724   3.780
43551W        W13432  44.482  19.107  14.376
43552W        W13433  30.492  12.837   1.753
43553W        W13434  40.308  41.834  11.111
43554W        W13435  40.016  19.121   4.263
43555W        W13436  14.815   4.276  12.467
43556W        W13437  40.364  13.724   3.804
43557W        W13438   7.408   5.243  12.368
43558W        W13439  41.914  31.121  13.986
43559W        W13440   0.283  44.861   0.806
43560W        W13441  27.515  15.234  12.087
43561W        W13442  24.657  42.866  11.574
43562W        W13443   2.271  41.025  11.001
43563W        W13444  22.663  15.328   1.339
43564W        W13445   6.327  32.606   1.210
43565W        W13446  43.819  33.080   2.302
43566W        W13447  37.415  16.094  12.440
43567W        W13448  15.665  29.447   1.360
43568W        W13449  16.682  31.139  11.407
43569W        W13450  34.412  18.214  10.623
43570W        W13451  19.243  31.498  10.644
43571W        W13452  35.361  44.279  10.427
43572W        W13453   7.740  41.431   3.794
43573W        W13454  37.335  29.161  14.305
43574W        W13455  14.766  42.418   0.892
43575W        W13456  10.693  42.912  11.537
43576W        W13457  44.811  29.637  14.861
43577W        W13458  34.923   9.360  12.370
43578W        W13459  41.030  12.225  14.392
43579W        W13460  39.363   2.783   2.226
43580W        W13461  17.779  13.841  12.046
43581W        W13462   9.270  13.255   2.407
43582W        W13463  24.033  19.090  10.568
43583W        W13464  32.602   9.647   1.753
43584W        W13465  19.732  22.091   2.267
43585W        W13466  41.302  14.650  12.849
43586W        W13467  19.165  22.249   3.185
43587W        W13468  32.589   2.810  13.394
43588W        W13469  32.513  29.646   0.316
43589W        W13470  33.384  14.642   4.775
43590W        W13471   6.727  19.760   3.871
43591W        W13472  23.067  39.850   0.459
43592W        W13473   5.805  10.855   1.871
43593W        W13474  36.022  15.167   2.756
43594W        W13475   6.322  12.681  14.876
43595W        W13476  11.704  30.457   3.157
43596W        W13477   9.378  34.876  11.543
43597W        W13478  25.669  33.469   3.706
43598W        W13479   3.426  11.369  12.344
43599W        W13480  44.434  19.247   4.729
43600W        W13481  40.866   2.251  12.092
43601W        W13482  37.435  36.905   2.349
43602W        W13483  13.633  13.235  12.964
43603W        W13484   4.290  27.013   4.207
43604W        W13485  13.767  30.438   1.385
43605W        W13486  13.627  42.996   0.858
43606W        W13487   6.756  30.137   0.951
43607W        W13488   6.418  26.965  11.371
43608W        W13489  18.058  32.918  13.320
43609W        W13490  11.767   4.444  13.807
43610W        W13491  31.105   2.895   3.269
43611W        W13492  42.936  33.899   0.808
43612W        W13493   3.831  21.082   3.338
43613W        W13494  42.311  40.934  14.957
43614W        W13495  35.871  12.747  12.539
43615W        W13496  28.506  27.661   3.835
43616W        W13497  40.358   5.279   0.923
43617W        W13498   5.204  31.989  12.543
43618W        W13499  25.535   7.667  13.478
43619W        W13500  23.121  16.230   1.435
43620W        W13501  25.586  33.475  10.453
43621W        W13502  20.043  12.817   4.832
43622W        W13503  38.977  17.169   0.751
43623W        W13504   8.174  43.364  13.817
43624W        W13505  16.073  29.498  12.463
43625W        W13506  40.950  34.526   2.328
43626W        W13507   9.658  28.126  11.461
43627W        W13508  18.746  18.580   4.187
43628W        W13509   6.681   5.854   3.717
43629W        W13510  34.894  24.975  13.334
43630W        W13511   4.934   9.252  13.968
43631W        W13512  36.535  22.016  10.992
43632W        W13513   6.381  19.104   1.702
43633W        W13514  43.840  41.502  10.950
43634W        W13515  31.446   5.372  14.883
43635W        W13516  16.285   2.781   2.766
43636W        W13517  34.007  41.347   4.206
43637W        W13518  21.584  17.763   0.894
43638W        W13519  38.488   4.799  11.857
43639W        W13520  22.695  31.483   3.159
43640W        W13521  31.073  30.500   9.972
43641W        W13522  27.596  31.989   4.763
43642W        W13523  29.977   7.850  10.505
43643W        W13524  11.774   3.283   2.774
43644W        W13525   0.875  29.143   3.821
43645W        W13526  12.138  42.398  12.497
43646W        W13527  32.572  15.657   4.272
43647W        W13528   2.788  24.617  10.572
43648W        W13529  15.325  20.534   4.172
43649W        W13530  31.105  35.901   0.909
43650W        W13531  40.843  33.425   1.821
43651W        W13532  15.325  24.652  11.129
43652W        W13533  17.733  32.413  13.319
43653W        W13534  41.326   5.818  10.533
43654W        W13535  33.945  29.667  14.515
43655W        W13536  33.583   7.363  11.544
43656W        W13537  33.581  42.406  14.838
43657W        W13538  19.039  43.322  11.463
43658W        W13539  20.158  37.983   2.195
43659W        W13540   2.361  14.108  14.368
43660W        W13541  22.531   3.281  13.486
43661W        W13542   2.952  21.529   0.445
43662W        W13543  18.708  35.057   2.799
43663W        W13544  32.529  41.909   0.791
43664W        W13545  22.115  41.470  12.511
43665W        W13546  24.606  40.439   3.227
43666W        W13547  27.134  16.077   4.303
43667W        W13548  22.616   8.710  13.349
43668W        W13549  26.018  44.810   4.327
43669W        W13550  13.130   2.425  10.986
43670W        W13551  21.248  32.016  11.939
43671W        W13552  44.280   3.411  12.507
43672W        W13553  42.811   3.806  13.000
43673W        W13554  30.529   9.309  11.415
43674W        W13555  12.346  25.644  12.078
43675W        W13556  35.440   4.402  11.058
43676W        W13557  18.087   6.370  11.944
43677W        W13558  31.959  38.500  14.009
43678W        W13559  39.977  18.566   3.339
43679W        W13560  38.021   4.882  11.424
43680W        W13561  12.349  41.819  13.542
43681W        W13562  29.954  18.569  11.440
43682W        W13563   3.862  30.095   3.763
43683W        W13564  22.536  28.975   3.672
43684W        W13565  36.003  34.431  11.416
43685W        W13566  11.207  26.654  12.513
43686W        W13567  40.519  29.165  14.821
43687W        W13568   1.760  14.740   3.863
43688W        W13569   2.367  42.397   2.856
43689W        W13570  39.319   3.742   1.449
43690W        W13571  34.038  40.470   0.246
43691W        W13572  38.952  23.665  14.464
43692W        W13573  23.205  43.829   3.168
43693W        W13574   2.908   8.202   1.232
43694W        W13575  28.158  16.681   4.640
43695W        W13576  14.787  44.776  11.913
43696W        W13577   1.280  37.009  10.929
43697W        W13578  39.960  10.839   4.133
43698W        W13579   5.757  36.383  11.981
43699W        W13580  17.725   2.733   4.176
43700W        W13581   1.913  24.681   3.383
43701W        W13582  14.137  40.408   3.248
43702W        W13583  22.214  13.845   4.606
43703W        W13584   9.843  17.794   3.188
43704W        W13585   3.731  25.184   4.748
43705W        W13586  16.711  12.295  12.370
43706W        W13587  29.965   8.381  14.398
43707W        W13588  25.995  32.634  13.318
43708W        W13589  11.857  38.355  14.926
43709W        W13590  26.963   8.216  11.419
43710W        W13591  32.039  40.977  14.916
43711W        W13592  23.686   9.769   3.753
43712W        W13593   5.756  43.426  12.053
43713W        W13594   5.403  36.542   0.751
43714W        W13595   9.883  30.626   0.961
43715W        W13596  29.043  12.731   1.352
43716W        W13597  34.409  15.743   3.270
43717W        W13598  28.140  17.282  12.923
43718W        W13599  19.105  18.278   1.833
43719W        W13600  24.659  21.530  12.882
43720W        W13601  18.223  34.423   4.783
43721W        W13602   2.460  16.626  12.830
43722W        W13603  25.195  39.343  14.993
43723W        W13604  16.778  26.097   0.930
43724W        W13605  44.912  28.157   1.414
43725W        W13606  20.117  20.668   1.820
43726W        W13607  14.281   3.946   1.247
43727W        W13608  10.234  18.201   9.987
43728W        W13609  21.726   9.339   1.376
43729W        W13610  25.982   2.310  10.532
43730W        W13611  40.854  29.115  14.389
43731W        W13612  41.486  20.079  10.936
43732W        W13613  16.624  29.056  14.493
43733W        W13614  14.184  30.093   3.662
43734W        W13615  18.130   6.788  12.354
43735W        W13616  32.020   4.409   1.802
43736W        W13617  44.987  12.311   0.956
43737W        W13618  36.458  10.334   3.186
43738W        W13619  27.573  21.605   0.780
43739W        W13620  17.734  25.021  14.997
43740W        W13621  23.649  15.207  10.620
43741W        W13622  18.616  26.960  14.932
43742W        W13623  31.426  19.153  13.052
43743W        W13624  42.408  17.624  10.442
43744W        W13625  25.110  29.471  13.538
43745W        W13626  38.959  34.590   0.943
43746W        W13627  39.363  36.582  14.991
43747W        W13628   5.353  26.695   4.237
43748W        W13629  20.738   3.355  12.571
43749W        W13630  22.056  36.539   2.354
43750W        W13631   0.257  11.347   2.815
43751W        W13632  33.959   8.676   2.744
43752W        W13633  32.490  38.353   0.890
43753W        W13634  34.873   2.229  14.891
43754W        W13635  43.486   8.268   2.681
43755W        W13636  44.856  22.155   1.367
43756W        W13637   7.706  25.205  14.375
43757W        W13638  43.408  36.457   2.699
43758W        W13639  13.253  39.317  11.528
43759W        W13640  29.028  20.039   2.320
43760W        W13641  43.800  31.135  13.838
43761W        W13642  25.053  28.999  10.983
43762W        W13643  17.295  36.496  12.093
43763W        W13644   1.908  28.521   4.168
43764W        W13645  37.988  20.546  14.846
43765W        W13646  12.155  39.012   3.849
43766W        W13647  16.654  18.149   2.820
43767W        W13648  35.906  23.134   4.223
43768W        W13649   2.231  35.959   4.193
43769W        W13650  28.555  25.676  12.044
43770W        W13651  31.898  32.507   3.171
43771W        W13652  18.594  33.562  12.893
43772W        W13653   2.861  30.562   2.417
43773W        W13654  35.001   9.163   4.695
43774W        W13655  26.098  44.980  10.997
43775W        W13656  16.692  14.753  13.825
43776W        W13657  44.456  38.398  13.062
43777W        W13658  31.532  24.058   2.740
43778W        W13659  12.256  23.642  14.470
43779W        W13660   1.417  32.426  14.832
43780W        W13661  23.634  14.739  13.499
43781W        W13662   4.799   3.219   3.267
43782W        W13663  20.157  35.969   3.661
43783W        W13664  26.138   8.771  11.975
43784W        W13665  29.603   5.388   2.376
43785W        W13666  20.523  17.624   2.897
43786W        W13667  33.959  15.610  12.539
43787W        W13668  33.945  31.977  12.341
43788W        W13669   3.284   2.908   4.258
43789W        W13670  12.241   0.250  13.547
43790W        W13671  27.522   5.865   4.613
43791W        W13672  34.895   4.441   0.405
43792W        W13673  17.714   8.698   3.782
43793W        W13674  44.368  14.243   0.246
43794W        W13675  20.587  23.728  10.639
43795W        W13676  25.100  22.607  12.858
43796W        W13677  42.840  38.860  13.994
43797W        W13678  39.544   6.877   2.357
43798W        W13679   0.851  30.514  11.518
43799W        W13680  18.707  29.668   3.189
43800W        W13681  10.222  27.099  14.028
43801W        W13682  29.474  31.119   3.201
43802W        W13683  15.254  22.509  14.335
43803W        W13684  20.164  38.853  13.979
43804W        W13685  25.643  20.255   0.965
43805W        W13686  14.789  39.454   9.635
43806W        W13687  41.884  29.464   2.713
43807W        W13688   4.807   2.268   0.859
43808W        W13689  18.109  18.181   1.799
43809W        W13690  42.911  20.193   2.748
43810W        W13691  34.589  24.615   0.905
43811W        W13692  25.508  12.748  12.909
43812W        W13693  42.376  18.695   4.818
43813W        W13694   4.398  43.019  10.116
43814W        W13695  11.146   3.919  13.852
43815W        W13696  17.678  42.416  11.515
43816W        W13697  32.498  24.085   3.685
43817W        W13698  22.575   2.234  12.374
43818W        W13699  11.822  30.524  14.758
43819W        W13700  34.074  20.274  10.446
43820W        W13701  37.523   4.712   0.408
43821W        W13702  20.154   2.851   1.256
43822W        W13703  34.031   1.748  12.824
43823W        W13704  18.178   8.228   3.734
43824W        W13705  31.584  29.625   1.734
43825W        W13706  40.915  21.192   2.222
43826W        W13707  38.846   3.328   4.307
43827W        W13708  32.068  28.144   1.287
43828W        W13709   4.273  34.531   0.750
43829W        W13710  40.527  11.642  11.041
43830W        W13711   2.461   2.797   0.938
43831W        W13712  34.020  10.661  12.959
43832W        W13713   0.353  23.664  11.053
43833W        W13714   3.790  19.103   2.224
43834W        W13715  31.516  27.037  10.998
43835W        W13716  31.993  42.390   1.740
43836W        W13717  14.686  14.131   5.180
43837W        W13718  29.661  32.995   1.911
43838W        W13719  43.924   6.407   2.883
43839W        W13720  26.492  19.583   4.688
43840W        W13721  22.066   1.281  12.954
43841W        W13722  44.761   4.209   0.899
43842W        W13723  19.772  30.915   1.757
43843W        W13724  22.601   7.847   3.300
43844W        W13725  36.846   2.438   2.858
43845W        W13726   7.822   3.398   0.414
43846W        W13727  15.174  34.551   4.713
43847W        W13728  22.667  35.950  12.423
43848W        W13729  42.523  19.172  10.974
43849W        W13730  35.003  39.487   1.749
43850W        W13731   0.903  32.022  13.502
43851W        W13732   3.452  15.774  13.520
43852W        W13733  15.277  21.645  11.926
43853W        W13734  23.511  30.027  14.347
43854W        W13735  27.137  31.585  13.925
43855W        W13736  16.708  21.733   3.871
43856W        W13737   6.915  40.009  10.437
43857W        W13738  35.369  34.526   3.312
43858W        W13739  35.977  21.127   2.280
43859W        W13740  41.467  24.714  11.087
43860W        W13741  39.336  12.127   4.613
43861W        W13742   0.871  15.620  13.522
43862W        W13743   1.399  18.618  11.433
43863W        W13744  11.349  35.975   2.851
43864W        W13745  23.201  38.365   2.882
43865W        W13746  18.127  23.506  13.884
43866W        W13747  34.895  18.136   2.349
43867W        W13748   4.825  14.255  11.418
43868W        W13749  32.924   8.270   2.870
43869W        W13750  28.585  14.261  10.418
43870W        W13751  26.479  41.939   0.357
43871W        W13752  28.113  33.114   1.379
43872W        W13753   0.846  37.900   0.296
43873W        W13754  25.120  35.384   3.367
43874W        W13755   5.720  19.040   1.369
43875W        W13756  22.097  39.403  12.534
43876W        W13757  44.854  38.356  11.909
43877W        W13758   2.378  15.207   0.935
43878W        W13759  18.662   9.815  14.820
43879W        W13760  28.553  17.182  14.359
43880W        W13761  39.455  34.476  14.823
43881W        W13762  43.874  32.505   2.815
43882W        W13763  17.228  39.939  11.542
43883W        W13764   7.698  34.476   1.820
43884W        W13765  42.436  26.510   1.935
43885W        W13766  19.064   1.934   0.476
43886W        W13767  40.458  37.063   4.323
43887W        W13768  40.980  37.508   2.885
43888W        W13769  13.691   9.255   0.813
43889W        W13770  35.467  26.628  12.435
43890W        W13771   0.254  25.174  14.339
43891W        W13772  16.139  10.222  13.505
43892W        W13773  15.628  12.824   3.651
43893W        W13774  29.015  39.902  13.960
43894W        W13775  24.126  25.569   3.369
43895W        W13776  37.938   8.198  11.415
43896W        W13777  44.921   6.892   0.836
43897W        W13778   4.856   4.801  10.928
43898W        W13779  18.236  16.613  12.486
43899W        W13780   2.318  28.526   0.403
43900W        W13781   1.853   6.834  12.987
43901W        W13782  31.549  15.638  13.816
43902W        W13783  15.195   7.823  14.822
43903W        W13784  32.130   6.692  14.409
43904W        W13785  37.544  34.074   3.633
43905W        W13786   5.415  29.460   4.322
43906W        W13787  12.301  13.184   1.704
43907W        W13788  11.708  33.126  11.966
43908W        W13789  14.252   5.315   0.312
43909W        W13790  22.185   9.728  14.420
43910W        W13791   6.881  13.681  11.413
43911W        W13792  41.455  23.722   3.819
43912W        W13793   1.361  31.013  14.354
43913W        W13794  18.696   7.681  13.494
43914W        W13795  26.981  35.936   5.215
43915W        W13796  22.565  42.312   3.682
43916W        W13797  22.244  43.826   0.801
43917W        W13798  44.855  11.269   0.257
43918W        W13799  40.331  43.976  12.360
43919W        W13800  13.321   8.878  13.804
43920W        W13801   8.161  31.521   1.810
43921W        W13802  13.723  26.631   0.480
43922W        W13803  28.538  21.583   2.202
43923W        W13804   0.364  13.308   0.775
43924W        W13805  37.511  31.151  14.770
43925W        W13806  18.235   9.806  11.563
43926W        W13807   0.793  29.088   3.265
43927W        W13808   4.851  18.119  14.861
43928W        W13809  29.114  37.899  13.513
43929W        W13810  20.156   3.809  12.560
43930W        W13811   5.695   7.755   2.726
43931W        W13812  25.995  10.259   4.126
43932W        W13813  35.520  13.283  14.503
43933W        W13814  30.147   9.338  11.601
43934W        W13815  26.186  31.982  11.067
43935W        W13816  18.706  39.510   0.839
43936W        W13817  35.419  24.484  10.930
43937W        W13818   4.781  21.642  10.962
43938W        W13819  36.043  25.176   2.201
43939W        W13820   2.768  32.134  14.809
43940W        W13821  38.934   8.359  12.929
43941W        W13822  38.955  44.781  12.369
43942W        W13823  35.515  38.894   4.241
43943W        W13824  39.829   8.165   2.357
43944W        W13825  37.850  16.746   1.370
43945W        W13826  17.146   8.856   3.203
43946W        W13827  31.648  10.267  12.945
43947W        W13828  25.560  17.127   1.287
43948W        W13829   3.805  35.596  13.379
43949W        W13830  43.392  32.046  12.066
43950W        W13831  26.995  25.574   0.824
43951W        W13832   9.661   0.453   3.282
43952W        W13833  31.595  21.039   4.339
43953W        W13834  30.656  20.743  11.998
43954W        W13835  27.463  35.079  11.592
43955W        W13836   6.852  26.036   0.378
43956W        W13837  27.988  34.070  13.887
43957W        W13838  38.486  34.874  13.311
43958W        W13839  31.065  23.032   0.744
43959W        W13840  10.302  41.030  12.970
43960W        W13841  23.024  22.581  10.892
43961W        W13842  25.652   8.741   2.190
43962W        W13843  35.034  13.831   3.707
43963W        W13844  38.052  21.100  13.355
43964W        W13845   0.785   7.813   4.646
43965W        W13846  19.054  36.578  12.405
43966W        W13847  23.713  19.096  13.025
43967W        W13848  24.525   1.445  14.457
43968W        W13849  11.752  14.180  12.873
43969W        W13850   3.334   0.254   2.771
43970W        W13851  12.726  17.586  14.419
43971W        W13852  32.012  41.022  11.860
43972W        W13853  26.508  17.281   0.906
43973W        W13854  30.636  10.341   2.249
43974W        W13855   8.217  23.987  13.871
43975W        W13856  35.559  24.112   1.249
43976W        W13857  25.548  37.452   2.402
43977W        W13858   9.855  18.156  11.078
43978W        W13859   4.910  36.070   4.814
43979W        W13860  32.923  34.083   3.666
43980W        W13861   7.711   6.194   4.248
43981W        W13862   7.794   4.227  13.823
43982W        W13863   3.714  14.829   2.852
43983W        W13864  22.113  12.682   3.337
43984W        W13865  12.234  31.908   0.956
43985W        W13866  13.777   5.283   0.262
43986W        W13867  37.020  25.110  12.468
43987W        W13868  40.536  30.625  10.516
43988W        W13869  27.193   5.788  11.578
43989W        W13870  26.496  32.464  10.933
43990W        W13871  39.468  44.471  10.935
43991W        W13872   3.375  11.823  13.046
43992W        W13873  39.917   5.272   1.929
43993W        W13874  13.215  20.623   2.418
43994W        W13875  30.542  21.165   5.268
43995W        W13876  35.953   4.449   1.423
43996W        W13877  26.484  17.123  14.509
43997W        W13878  12.217  31.951   1.815
43998W        W13879  42.378  17.127  14.928
43999W        W13880  10.161  27.635   0.417
44000W        W13881  34.977  24.147   2.296
44001W        W13882  43.431  17.739   1.293
44002W        W13883  30.518  25.605   4.808
44003W        W13884  27.446  26.048  10.638
44004W        W13885  10.218  15.293   3.667
44005W        W13886  36.011  18.626  11.574
44006W        W13887   0.780  34.457  14.455
44007W        W13888  12.362  44.972   0.735
44008W        W13889  37.537  33.010  14.824
44009W        W13890  12.138  31.961  10.888
44010W        W13891  14.190  32.399   3.825
44011W        W13892   9.791  20.595   3.665
44012W        W13893  19.281  23.007   0.390
44013W        W13894  39.894  37.920  14.391
44014W        W13895  12.784  26.129   2.257
44015W        W13896  28.132   8.661  11.870
44016W        W13897  14.778  16.606   4.286
44017W        W13898  42.940  29.078   1.412
44018W        W13899   9.199   6.235  10.066
44019W        W13900  32.603  17.072  10.989
44020W        W13901  25.965   8.390   2.367
44021W        W13902   7.769  32.036  13.834
44022W        W13903   1.243   1.873   4.646
44023W        W13904  40.501  22.570   4.168
44024W        W13905  19.593  10.232   5.312
44025W        W13906  24.146  30.658   4.237
44026W        W13907  22.102  25.180   0.267
44027W        W13908  41.879  35.950   2.340
44028W        W13909  40.888  17.265   0.909
44029W        W13910  39.382  18.615   3.337
44030W        W13911  29.936  29.147   4.622
44031W        W13912  44.383  12.723   1.251
44032W        W13913   2.353  28.019   0.424
44033W        W13914   8.269  11.732   4.644
44034W        W13915  17.567  10.141  14.510
44035W        W13916  23.733  38.948  12.426
44036W        W13917  23.521   2.896   4.725
44037W        W13918  41.316   2.820   2.182
44038W        W13919  29.959  32.107   0.844
44039W        W13920   4.264   5.932   0.252
44040W        W13921  17.685   6.393   4.769
44041W        W13922  33.434   7.836   1.380
44042W        W13923  18.103  37.560   1.910
44043W        W13924  13.233  40.844  11.112
44044W        W13925  44.909  20.723   4.298
44045W        W13926  20.661  27.997   5.627
44046W        W13927  41.310  11.815   3.693
44047W        W13928  26.029  32.056   1.330
44048W        W13929  29.634   4.332  14.412
44049W        W13930  42.333  11.823   4.766
44050W        W13931  24.172   3.277   4.642
44051W        W13932  34.031   2.837   2.694
44052W        W13933  27.122   8.265  10.531
44053W        W13934  30.427  34.381   1.934
44054W        W13935  24.209  21.595   2.289
44055W        W13936  20.134  11.854   2.389
44056W        W13937   1.345  32.598   3.247
44057W        W13938  16.192  26.603   4.722
44058W        W13939   5.756  29.071   0.861
44059W        W13940  38.900  26.980  12.012
44060W        W13941  17.081   5.894   4.803
44061W        W13942  35.009  13.154   3.847
44062W        W13943  14.311  18.673  13.041
44063W        W13944  42.972  12.162  13.909
44064W        W13945  33.054  33.038  14.324
44065W        W13946  23.709  43.838   0.442
44066W        W13947  16.212  37.942  14.932
44067W        W13948   7.768   3.753  10.534
44068W        W13949  12.662  35.857   0.821
44069W        W13950  36.519  25.669  11.497
44070W        W13951  35.597  18.178  14.888
44071W        W13952  41.828  28.584   0.357
44072W        W13953  21.036  43.318  13.470
44073W        W13954   5.237  21.669   0.843
44074W        W13955   6.194  28.019   4.739
44075W        W13956  16.303  30.072   2.847
44076W        W13957  20.158  35.443  12.008
44077W        W13958  24.548   5.811   1.369
44078W        W13959  38.048  41.529  10.108
44079W        W13960  36.890  33.423  13.326
44080W        W13961  20.263  22.071   3.201
44081W        W13962  37.066  34.083   2.812
44082W        W13963  23.079   3.417   1.423
44083W        W13964  31.639  42.868   0.914
44084W        W13965   4.863   6.779   0.313
44085W        W13966  23.177  32.900   3.797
44086W        W13967   8.664  24.568  14.882
44087W        W13968  36.475  12.784  10.452
44088W        W13969  41.326  34.472   2.251
44089W        W13970   8.374  34.938   3.651
44090W        W13971  41.313  18.138  13.428
44091W        W13972  16.660  32.490   3.808
44092W        W13973  33.072  11.333  10.645
44093W        W13974   1.346  42.406   3.205
44094W        W13975  31.443   3.806   2.289
44095W        W13976  11.776  13.132   1.848
44096W        W13977  20.651  36.076  11.039
44097W        W13978  31.140  37.066  10.619
44098W        W13979  22.053  41.038   0.344
44099W        W13980  44.855   5.395   4.776
44100W        W13981  44.965  42.520   2.703
44101W        W13982  34.481   9.820  14.783
44102W        W13983  24.977  27.449  10.913
44103W        W13984  17.250  20.736   4.220
44104W        W13985  35.980  35.584   3.237
44105W        W13986  32.919  28.168   3.241
44106W        W13987  26.611  10.250   1.419
44107W        W13988  40.008   4.264   4.654
44108W        W13989  19.080  20.689  12.429
44109W        W13990  41.800   4.363   3.346
44110W        W13991   4.310  12.334  12.344
44111W        W13992   6.766  18.181   4.157
44112W        W13993  42.302  21.589  11.856
44113W        W13994  35.410  24.093   0.342
44114W        W13995  43.767  34.106   2.359
44115W        W13996  40.949  25.593   2.372
44116W        W13997  17.186   9.154   2.878
44117W        W13998  16.072  11.337   0.419
44118W        W13999  24.215  44.991  14.426
44119W        W14000  43.005  36.435   4.816
44120W        W14001  29.126  44.307  12.382
44121W        W14002  31.584  28.608   0.367
44122W        W14003  31.984   1.267   3.262
44123W        W14004   5.364  37.056  11.039
44124W        W14005   3.829  31.591  14.347
44125W        W14006  24.486  16.205   4.820
44126W        W14007  26.482   8.332   0.457
44127W        W14008  40.461   2.963  13.048
44128W        W14009  33.449  31.079  13.904
44129W        W14010   8.281  37.037  11.442
44130W        W14011  26.603   3.252   1.839
44131W        W14012  14.180   4.449  12.973
44132W        W14013  11.858  16.303  11.952
44133W        W14014  10.221  40.376  10.929
44134W        W14015  16.795  38.903   4.634
44135W        W14016  11.810  14.259  11.947
44136W        W14017  36.573   9.803  12.533
44137W        W14018  12.852   8.884   4.763
44138W        W14019  13.239  36.546   0.768
44139W        W14020   4.705   5.203  13.367
44140W        W14021  20.053  34.910  13.942
44141W        W14022  13.168  33.509   2.748
44142W        W14023  11.864  17.210  14.945
44143W        W14024  10.810  42.465  12.941
44144W        W14025  38.414   0.750  10.443
44145W        W14026  33.033  30.995   0.465
44146W        W14027  15.138  37.961   3.360
44147W        W14028  28.541  28.516   2.714
44148W        W14029   9.160   3.871  12.875
44149W        W14030  16.074   8.343  13.454
44150W        W14031  15.782   5.782  13.848
44151W        W14032  12.118  28.997   0.924
44152W        W14033  35.989  37.962   3.206
44153W        W14034  17.194  16.240  12.432
44154W        W14035  13.197  12.289   1.760
44155W        W14036   9.314  25.670   4.658
44156W        W14037   9.776  17.718   5.592
44157W        W14038   8.748  43.387   3.851
44158W        W14039  33.545  37.477  13.831
44159W        W14040   9.888  23.226   2.349
44160W        W14041  35.007   4.797   3.157
44161W        W14042  28.666   7.218  14.411
44162W        W14043  25.687  39.054  10.567
44163W        W14044  32.118  20.152  10.970
44164W        W14045  20.091   1.848  10.117
44165W        W14046   4.718   9.200   0.924
44166W        W14047  24.982   4.311  11.008
44167W        W14048  23.182  19.169   2.725
44168W        W14049   4.855  44.759  14.438
44169W        W14050  36.438  37.870   3.769
44170W        W14051  39.498  23.516   2.827
44171W        W14052  44.380  42.882  11.907
44172W        W14053  34.467   7.323   0.259
44173W        W14054  13.141  42.379  11.378
44174W        W14055   9.273  18.207   0.453
44175W        W14056  21.743  34.076  12.952
44176W        W14057  18.658  10.862  10.474
44177W        W14058  18.229  30.107  12.912
44178W        W14059  41.421  31.642  14.920
44179W        W14060   3.340  23.085  14.407
44180W        W14061  14.793   0.860   2.307
44181W        W14062  21.716  26.634   0.856
44182W        W14063  22.183  10.781   1.750
44183W        W14064  37.001  25.633  10.525
44184W        W14065  38.395  18.692   4.796
44185W        W14066  23.152  36.358  12.045
44186W        W14067   2.431  14.800  11.976
44187W        W14068  10.268   8.730   1.711
44188W        W14069  15.269  42.853   2.819
44189W        W14070  18.093   8.188   0.275
44190W        W14071  44.974  21.581   2.778
44191W        W14072   7.304  32.978   0.410
44192W        W14073  10.702   2.357   3.216
44193W        W14074  12.311   0.876   0.252
44194W        W14075   3.425  32.026  14.370
44195W        W14076  14.601  38.564   0.390
44196W        W14077  12.156  36.558  10.985
44197W        W14078  13.231  29.576  12.024
44198W        W14079  28.476  17.663  12.896
44199W        W14080   6.397   7.777  12.433
44200W        W14081   8.200  15.302  14.833
44201W        W14082   8.170  16.269  14.852
44202W        W14083  13.655   7.375   4.738
44203W        W14084  27.988  29.951  12.452
44204W        W14085   3.902  24.703   1.423
44205W        W14086  30.646  38.974   5.233
44206W        W14087   7.296  30.910  10.573
44207W        W14088  32.557  18.641   1.766
44208W        W14089  40.823  24.989  11.053
44209W        W14090  38.869  40.490  11.467
44210W        W14091  22.137   1.840   4.687
44211W        W14092  31.979  39.406  11.480
44212W        W14093  44.323  35.515  10.504
44213W        W14094  29.447   1.804  10.009
44214W        W14095  34.526  36.946  13.544
44215W        W14096   0.270   7.392  13.429
44216W        W14097  18.757  32.129   2.849
44217W        W14098  42.919  32.117   2.246
44218W        W14099   3.837   4.936   9.981
44219W        W14100  35.055  34.445   3.743
44220W        W14101  13.135   7.223   4.197
44221W        W14102  29.974   5.256   3.205
44222W        W14103   8.205  11.650  10.544
44223W        W14104   6.356  16.230   0.388
44224W        W14105  30.953  15.155   1.333
44225W        W14106  32.400  21.579  10.603
44226W        W14107  37.047  28.653  13.988
44227W        W14108  35.935   6.314   3.687
44228W        W14109  37.439  12.142  14.004
44229W        W14110  13.343  43.513   0.392
44230W        W14111  13.308  27.945   1.343
44231W        W14112  37.376  21.075   3.726
44232W        W14113   6.313  18.111  14.350
44233W        W14114  18.141  22.075  12.858
44234W        W14115   8.225  30.618  11.555
44235W        W14116  41.514  20.603   0.749
44236W        W14117  28.674  28.471  14.514
44237W        W14118  25.070  12.766   1.324
44238W        W14119   8.346  38.988  11.376
44239W        W14120  41.002  28.475  14.445
44240W        W14121  34.010  18.627  11.037
44241W        W14122   8.673   4.233   1.820
44242W        W14123   5.407   4.217   3.767
44243W        W14124  33.977   2.349   4.781
44244W        W14125   9.282  18.776   3.196
44245W        W14126  28.480  25.185  11.998
44246W        W14127  15.654  20.550  12.478
44247W        W14128  25.611   0.755   1.735
44248W        W14129  35.478  32.504  13.442
44249W        W14130  21.547   8.272   2.820
44250W        W14131   6.242  26.642  10.412
44251W        W14132   3.775  39.050   4.786
44252W        W14133   7.272  12.630  11.956
44253W        W14134  41.895  31.013   4.114
44254W        W14135  28.498  27.965  10.462
44255W        W14136  33.904  13.667  10.412
44256W        W14137  36.900  31.569   3.747
44257W        W14138  44.009  22.223  13.378
44258W        W14139  34.406  30.909   3.386
44259W        W14140  12.326  27.033   2.301
44260W        W14141   1.352   1.974  13.961
44261W        W14142  32.977  28.166  11.390
44262W        W14143   6.366  12.352  12.482
44263W        W14144  39.810  29.539   1.920
44264W        W14145  20.574  19.216   1.360
44265W        W14146  15.223  19.151  12.929
44266W        W14147   4.249  42.884   0.260
44267W        W14148  24.041  43.783  11.055
44268W        W14149  32.519  40.036   1.225
44269W        W14150  35.012  44.819   3.262
44270W        W14151  19.241  22.073   1.426
44271W        W14152   1.866  41.932   5.085
44272W        W14153  13.311  27.671  11.989
44273W        W14154   6.832  20.107  10.927
44274W        W14155   4.761  32.531   4.232
44275W        W14156  12.660  21.101   3.349
44276W        W14157  38.024   6.742  10.947
44277W        W14158  10.228  23.603   1.719
44278W        W14159  12.669   5.245   0.298
44279W        W14160  10.731   4.699   4.322
44280W        W14161   2.935  16.683  13.036
44281W        W14162  25.591  41.402   0.879
44282W        W14163  12.143   6.785  11.989
44283W        W14164  24.990  24.061   0.766
44284W        W14165  40.983  36.498  11.401
44285W        W14166  28.165  27.618   0.798
44286W        W14167  39.894  22.539  13.807
44287W        W14168  33.442  41.435  10.946
44288W        W14169  21.567  38.533   0.967
44289W        W14170  34.371  42.403   3.157
44290W        W14171   3.415  12.324   2.750
44291W        W14172  35.921   6.345  12.578
44292W        W14173  33.571  13.107  14.450
44293W        W14174  17.197  26.962  10.893
44294W        W14175   5.419  23.091  12.422
44295W        W14176  43.924  39.434   3.258
44296W        W14177  16.610  39.321   4.118
44297W        W14178   9.270  35.361  14.804
44298W        W14179  43.405   9.388  13.449
44299W        W14180   4.338  24.051   0.735
44300W        W14181  17.175  17.715  13.037
44301W        W14182   4.831  22.698   3.352
44302W        W14183  26.500  26.180   0.347
44303W        W14184  26.678  35.514   2.248
44304W        W14185  24.647  21.039  10.434
44305W        W14186  16.224  20.142   1.912
44306W        W14187   5.926   5.726   1.696
44307W        W14188  30.912  13.157  11.486
44308W        W14189  20.177   9.208   1.300
44309W        W14190  31.939  35.419   1.915
44310W        W14191  29.525  30.440   4.170
44311W        W14192  16.125   6.887   3.212
44312W        W14193   5.788  38.830  10.406
44313W        W14194  24.697  43.487   3.792
44314W        W14195  40.408  13.701   0.465
44315W        W14196  28.949  32.527   3.844
44316W        W14197  10.247  19.643   1.826
44317W        W14198  11.178  40.971   1.818
44318W        W14199   7.239  32.563   2.729
44319W        W14200  43.771  14.206  14.315
44320W        W14201  42.857   2.886  11.532
44321W        W14202  17.592  41.996   2.392
44322W        W14203  41.874  37.548  12.424
44323W        W14204  27.115   5.841  11.053
44324W        W14205   9.168   3.452  12.895
44325W        W14206  33.910   1.271   2.772
44326W        W14207  35.596  24.220   2.841
44327W        W14208  16.159  33.528   4.133
44328W        W14209  29.435  17.642  14.834
44329W        W14210  17.599  13.335   3.315
44330W        W14211  36.890  24.228   1.387
44331W        W14212  14.138  31.965   3.271
44332W        W14213  18.245  23.635  13.510
44333W        W14214  28.508  42.471   2.750
44334W        W14215  40.334  19.283  13.004
44335W        W14216  16.629   7.730  12.447
44336W        W14217  27.675   6.317  12.929
44337W        W14218  41.314  28.152   0.905
44338W        W14219  14.803  14.834  13.004
44339W        W14220  18.783   6.834   0.932
44340W        W14221  12.249  13.730  11.113
44341W        W14222  19.115  34.985   4.809
44342W        W14223  38.545  42.834   0.728
44343W        W14224  41.013   3.387  14.385
44344W        W14225  13.698  21.205   3.192
44345W        W14226  18.066  35.931  11.061
44346W        W14227  32.547  32.016   5.139
44347W        W14228   0.421  12.249  13.340
44348W        W14229  28.081  10.766   3.252
44349W        W14230   9.293   7.208  13.954
44350W        W14231  27.136   4.349  13.834
44351W        W14232  36.495  42.950   4.717
44352W        W14233  11.819  24.484   3.249
44353W        W14234  29.932  18.228   1.250
44354W        W14235   4.336  24.557  13.492
44355W        W14236  16.295  28.048   0.746
44356W        W14237  19.666  43.463   3.214
44357W        W14238  27.002  42.438   1.751
44358W        W14239   5.428  19.201   2.404
44359W        W14240  34.881  37.465  14.979
44360W        W14241  43.425  19.749   3.788
44361W        W14242   0.367  35.468  13.879
44362W        W14243  24.489   4.394   0.412
44363W        W14244   9.745  25.005   1.911
44364W        W14245   8.210  15.326   2.721
44365W        W14246  16.709  17.087  10.511
44366W        W14247  14.731  26.126  12.913
44367W        W14248  13.741  44.827   4.328
44368W        W14249  42.289   0.925   2.383
44369W        W14250  35.413  40.941   2.332
44370W        W14251  12.303  17.736   0.748
44371W        W14252  36.541   6.376   2.827
44372W        W14253  18.107  21.721  14.849
44373W        W14254  40.391  19.684  14.905
44374W        W14255  14.302   6.836   3.766
44375W        W14256  34.080  36.931  14.906
44376W        W14257   5.889   1.897  13.891
44377W        W14258  10.247  29.962   4.782
44378W        W14259   3.276  36.556   3.379
44379W        W14260  22.606  42.846  13.997
44380W        W14261  39.482  28.601   3.833
44381W        W14262  14.660  21.105   2.343
44382W        W14263   2.798  24.219   0.451
44383W        W14264  13.701  11.841   1.358
44384W        W14265  40.336  15.132  14.296
44385W        W14266  27.039  23.656   4.323
44386W        W14267  20.262  18.618   2.878
44387W        W14268  16.273  11.276  10.983
44388W        W14269  34.495   8.808   1.833
44389W        W14270  42.372  38.843   4.334
44390W        W14271  39.409  25.999  12.471
44391W        W14272  26.104  42.958   0.881
44392W        W14273  11.339  27.451   4.647
44393W        W14274  10.663  21.660  11.060
44394W        W14275  31.011  15.670   2.300
44395W        W14276   8.337  11.779  10.915
44396W        W14277  19.271   8.216  14.959
44397W        W14278  33.060  13.241  14.376
44398W        W14279  27.183  33.913   2.277
44399W        W14280   6.923   8.845   1.862
44400W        W14281  29.446  42.031  14.490
44401W        W14282  36.567  17.757   1.268
44402W        W14283  44.807   8.353   4.819
44403W        W14284  10.350  18.685   1.835
44404W        W14285  28.665  24.140   5.631
44405W        W14286  19.626  33.011   1.267
44406W        W14287   4.733  14.589   0.871
44407W        W14288  27.614  33.014   2.295
44408W        W14289  41.352  27.941  12.539
44409W        W14290  25.146   9.694   0.775
44410W        W14291  43.491  26.064  10.421
44411W        W14292  29.966  21.592  11.039
44412W        W14293  15.616  18.076   1.755
44413W        W14294   9.726  33.963  13.530
44414W        W14295  34.451  20.228  11.374
44415W        W14296  27.012  16.750  11.536
44416W        W14297  25.630  23.627   2.299
44417W        W14298  20.733  29.648   3.381
44418W        W14299  26.021  14.697   0.396
44419W        W14300  38.560  42.864  13.431
44420W        W14301  42.334  36.363  12.561
44421W        W14302  26.516  16.115  13.441
44422W        W14303  24.098  11.715   1.328
44423W        W14304   2.233   3.817   1.831
44424W        W14305  37.513  18.579   4.792
44425W        W14306  29.129  40.918  10.932
44426W        W14307  18.292  31.480   3.211
44427W        W14308  18.737  10.236   2.387
44428W        W14309  17.649  17.193   4.776
44429W        W14310  21.249  43.345   0.826
44430W        W14311  17.578  27.106  13.416
44431W        W14312  29.503   3.393  14.484
44432W        W14313   8.741  29.014  14.953
44433W        W14314   0.485   1.824  14.452
44434W        W14315   8.376  30.650   1.700
44435W        W14316  26.466   3.444  14.300
44436W        W14317   5.694  28.051   4.214
44437W        W14318  11.767   1.884   1.256
44438W        W14319   3.216  24.128  11.010
44439W        W14320  27.063  41.418   3.672
44440W        W14321  31.965  18.267  13.836
44441W        W14322   0.922   6.325  14.471
44442W        W14323  16.780   2.356   1.890
44443W        W14324  37.924  12.141  10.500
44444W        W14325  38.937  20.174  12.055
44445W        W14326  17.773  26.089   1.736
44446W        W14327  33.932   7.817   0.428
44447W        W14328  16.693   6.420  14.950
44448W        W14329  15.194  37.573   0.319
44449W        W14330  20.207  19.543   5.265
44450W        W14331  15.233   1.912   4.326
44451W        W14332  12.850  37.835  10.138
44452W        W14333   7.412  42.805   4.174
44453W        W14334  29.046  18.289  13.473
44454W        W14335  32.041   5.927   4.820
44455W        W14336  26.584   1.759   4.689
44456W        W14337  28.460  18.564   4.284
44457W        W14338  33.557  35.871   5.164
44458W        W14339  27.465   1.255  10.587
44459W        W14340  19.077  44.330  13.852
44460W        W14341   6.252  19.094   4.135
44461W        W14342   4.932  36.426   2.178
44462W        W14343  17.764  32.128  12.534
44463W        W14344  24.534   0.416   4.668
44464W        W14345  28.978  34.874  13.890
44465W        W14346  34.475  36.346  12.061
44466W        W14347   3.247   1.462  13.307
44467W        W14348  43.017  26.192  14.340
44468W        W14349  10.687   5.872  14.379
44469W        W14350  35.936  20.528  13.323
44470W        W14351  43.414  28.982   0.336
44471W        W14352  30.035  13.636  13.844
44472W        W14353  18.170  35.942  13.529
44473W        W14354  41.788  10.867  13.952
44474W        W14355  42.468   0.372  11.039
44475W        W14356  21.201  36.585  13.535
44476W        W14357  12.246  38.426  10.895
44477W        W14358  13.815  14.322   0.958
44478W        W14359   6.306  39.538  11.377
44479W        W14360   9.212   8.825   3.667
44480W        W14361  23.062  24.980   2.664
44481W        W14362  29.594   7.876  14.860
44482W        W14363   4.335   9.845   4.751
44483W        W14364  21.204   3.396   0.760
44484W        W14365  25.584  32.083   2.403
44485W        W14366   0.351   6.318  12.571
44486W        W14367  39.933  21.060   3.757
44487W        W14368  36.043  19.680   1.340
44488W        W14369  11.673   5.827   3.640
44489W        W14370  31.542  26.601  14.503
44490W        W14371  17.696   9.276   3.701
44491W        W14372  31.549  40.547  12.911
44492W        W14373  12.350  37.947  11.535
44493W        W14374  20.166  31.061  11.962
44494W        W14375  37.075   0.263  14.759
44495W        W14376  38.489   6.303   2.707
44496W        W14377  23.031   4.790  14.409
44497W        W14378   1.466   3.848   4.294
44498W        W14379  15.087  15.743   3.305
44499W        W14380  25.557  13.836  11.527
44500W        W14381   7.220   0.293  11.446
44501W        W14382   2.759   3.327  12.969
44502W        W14383   3.855  16.673   4.225
44503W        W14384  30.107  43.290  14.991
44504W        W14385  24.054   3.334  10.440
44505W        W14386  16.721   5.835   3.638
44506W        W14387  20.739  33.457  11.001
44507W        W14388   7.847  25.602   4.637
44508W        W14389  29.971  28.146  12.888
44509W        W14390  34.420  10.171  11.117
44510W        W14391  10.370  28.062  13.935
44511W        W14392  17.565   6.362  14.344
44512W        W14393   6.362  23.233  12.063
44513W        W14394  13.310  35.376  13.506
44514W        W14395  42.970   5.806  10.898
44515W        W14396  23.684  39.856  14.844
44516W        W14397   8.361  43.384   4.275
44517W        W14398  29.041  30.133  14.820
44518W        W14399  13.822  14.188   2.802
44519W        W14400  23.586   1.320  14.987
44520W        W14401  37.434  43.886   0.826
44521W        W14402  37.023  37.405   5.150
44522W        W14403  35.991  25.966  13.927
44523W        W14404  29.010  26.520   1.348
44524W        W14405  16.746  25.533  13.353
44525W        W14406  28.023  32.960   3.284
44526W        W14407  36.047  15.609  11.933
44527W        W14408  44.770  27.190  13.883
44528W        W14409   2.839  40.308   4.198
44529W        W14410  17.067  15.319  12.422
44530W        W14411  21.729  21.714   0.966
44531W        W14412  26.615  25.575  10.629
44532W        W14413  24.101  17.162  14.332
44533W        W14414  25.990  17.199  11.871
44534W        W14415  18.289   5.281  11.418
44535W        W14416   2.732   4.933   0.247
44536W        W14417  29.633  27.627  13.478
44537W        W14418  42.303  15.117  14.384
44538W        W14419  35.378  10.229  14.943
44539W        W14420  32.620  33.468  14.973
44540W        W14421   0.895   8.170  14.831
44541W        W14422  19.736   3.792   2.693
44542W        W14423  21.226  17.063   5.089
44543W        W14424  36.851  38.473  12.889
44544W        W14425  32.073  22.129  11.974
44545W        W14426  10.683  44.955  11.497
44546W        W14427  10.320  24.100   0.844
44547W        W14428  35.381   3.822  12.472
44548W        W14429  39.022  31.565   4.665
44549W        W14430   5.812  14.227   3.194
44550W        W14431  34.459  31.635   4.825
44551W        W14432  34.545  33.547  14.832
44552W        W14433   6.870   6.728  13.519
44553W        W14434  29.590  12.825  12.420
44554W        W14435  44.318  31.462  13.833
44555W        W14436  26.988   4.423  12.051
44556W        W14437   1.339  27.610   4.703
44557W        W14438   9.216   9.650  13.887
44558W        W14439  21.060   2.859   0.927
44559W        W14440  38.508  30.419   3.653
44560W        W14441  32.921   1.389   1.306
44561W        W14442   9.867  26.625   3.758
44562W        W14443  10.196   5.768  10.944
44563W        W14444   6.801   4.278  14.761
44564W        W14445  36.541   0.355  11.462
44565W        W14446   2.850  44.923  11.884
44566W        W14447  26.486  41.913   1.917
44567W        W14448   2.469  16.269   1.714
44568W        W14449   5.237  28.667  10.420
44569W        W14450  16.150  16.725  14.761
44570W        W14451  16.086   5.916  12.070
44571W        W14452   5.341  35.401  13.347
44572W        W14453  34.538  18.187   0.272
44573W        W14454   7.722  27.668   2.821
44574W        W14455  26.634  19.193   1.885
44575W        W14456   8.195  10.849  13.534
44576W        W14457  39.381   5.897  10.626
44577W        W14458  29.091  23.672   0.913
44578W        W14459   4.261   8.876   4.300
44579W        W14460   9.195  44.430   1.450
44580W        W14461  33.075  38.464   1.885
44581W        W14462  14.815  40.436   0.811
44582W        W14463  22.228   7.685   0.760
44583W        W14464   9.877  35.988   3.696
44584W        W14465  20.573   9.845   4.164
44585W        W14466  18.252  16.670   3.336
44586W        W14467  17.105  37.919   2.899
44587W        W14468  31.412  26.653   2.840
44588W        W14469  20.540   7.843  10.424
44589W        W14470  15.705  15.702  12.564
44590W        W14471  41.522  17.714   3.697
44591W        W14472  37.413  41.466   2.685
44592W        W14473   4.890  24.114   0.376
44593W        W14474  33.536  13.324   4.242
44594W        W14475  23.639   0.980   2.215
44595W        W14476  23.716   9.795  11.918
44596W        W14477  36.930   9.268  11.459
44597W        W14478   8.729  35.033   2.355
44598W        W14479   1.848  15.640  12.476
44599W        W14480  31.432  11.655  13.836
44600W        W14481   6.803  36.962   0.285
44601W        W14482  39.385  11.675   3.811
44602W        W14483  27.640  10.139  12.970
44603W        W14484   8.382   4.358  11.522
44604W        W14485  37.044   5.294  10.984
44605W        W14486  27.585   7.854  11.918
44606W        W14487  24.601  41.868  13.049
44607W        W14488  31.520   1.798  13.829
44608W        W14489  33.108  26.057   2.864
44609W        W14490  23.632   8.246   0.408
44610W        W14491  32.490   5.266   3.318
44611W        W14492  36.997  23.087   4.237
44612W        W14493  44.307  30.065   3.230
44613W        W14494  19.215  22.147  10.992
44614W        W14495  19.721   6.271   3.298
44615W        W14496   3.453   5.359   2.716
44616W        W14497  22.571  37.036   4.830
44617W        W14498   1.241  16.201   4.717
44618W        W14499  10.823  18.610   1.256
44619W        W14500  20.562  18.598  14.891
44620W        W14501   2.876  37.883  13.495
44621W        W14502  18.071  19.057   3.678
44622W        W14503  22.581  34.602   3.209
44623W        W14504  11.185  27.503  10.096
44624W        W14505  38.865  22.012   2.353
44625W        W14506  38.465  27.683   1.763
44626W        W14507   8.768   7.383  11.526
44627W        W14508  36.521   9.782   3.754
44628W        W14509  15.821  27.114   4.622
44629W        W14510  41.395   9.761   0.745
44630W        W14511  25.143   1.750  14.401
44631W        W14512  29.136  40.809   0.830
44632W        W14513  43.915  39.376  10.599
44633W        W14514  31.406  39.056   3.668
44634W        W14515  38.466  26.105   4.339
44635W        W14516  29.579  21.755   1.802
44636W        W14517  25.698  30.519   2.731
44637W        W14518  30.158   5.237  13.977
44638W        W14519  42.025  28.624   3.837
44639W        W14520  10.762  20.638  13.916
44640W        W14521   3.759  29.513  12.019
44641W        W14522  20.583  17.183   1.866
44642W        W14523  16.773  35.013   3.785
44643W        W14524  30.092  14.214   2.345
44644W        W14525  34.994  38.032  14.340
44645W        W14526   8.278   9.798   0.281
44646W        W14527  40.384   4.377   0.771
44647W        W14528  43.012  43.398  14.869
44648W        W14529   5.830  36.887  12.865
44649W        W14530  36.960  35.565  10.594
44650W        W14531  23.526  11.773  11.987
44651W        W14532  41.011  13.741  13.039
44652W        W14533  13.750  10.766   2.745
44653W        W14534   0.412  15.253   3.693
44654W        W14535   5.832   9.156   0.880
44655W        W14536   5.269   7.811  13.894
44656W        W14537  17.129  26.575   2.677
44657W        W14538  35.905  37.841   1.811
44658W        W14539  40.958   9.844  12.890
44659W        W14540  14.681  32.558  11.413
44660W        W14541  36.061  37.390   3.686
44661W        W14542  17.614  28.954   0.966
44662W        W14543  42.485  12.619   3.340
44663W        W14544  30.113  28.008  12.094
44664W        W14545  35.593  38.567  11.080
44665W        W14546   9.288   2.278   4.785
44666W        W14547   3.378  10.809  13.453
44667W        W14548  37.068  26.983  11.495
44668W        W14549   1.839  42.980  10.411
44669W        W14550  15.108  14.176   2.861
44670W        W14551  23.146  27.940   1.318
44671W        W14552  31.477  36.893   0.861
44672W        W14553  26.150  17.179   2.370
44673W        W14554  37.042   9.388   3.345
44674W        W14555  27.545  30.083   4.269
44675W        W14556   1.965  16.202   0.444
44676W        W14557  12.770  29.650   3.231
44677W        W14558  18.699  33.406   2.689
44678W        W14559   0.306   9.684   1.870
44679W        W14560  37.030   8.326   0.884
44680W        W14561  27.483  42.439   1.875
44681W        W14562  42.352  21.207  12.970
44682W        W14563  12.632  25.533   3.811
44683W        W14564  12.730   3.269   3.688
44684W        W14565  35.589  20.172  13.921
44685W        W14566  25.076  27.975   1.857
44686W        W14567   3.306   7.344   1.842
44687W        W14568  27.477  24.591  13.851
44688W        W14569   3.742  15.203   4.808
44689W        W14570   8.360  25.488  11.472
44690W        W14571  15.746  17.073  13.442
44691W        W14572  12.340   2.388  14.479
44692W        W14573  25.695  39.816   2.275
44693W        W14574  20.198   8.386   0.441
44694W        W14575  41.388  38.067   0.473
44695W        W14576  22.023  39.381   4.766
44696W        W14577  34.036  41.042  10.423
44697W        W14578  20.649  28.049  14.873
44698W        W14579  28.006  30.496   3.270
44699W        W14580  21.048   2.733  11.014
44700W        W14581  36.048  19.093  13.036
44701W        W14582  12.719  19.681   3.800
44702W        W14583  32.510  41.427   1.354
44703W        W14584  28.581  37.973  11.386
44704W        W14585  28.485  27.983   4.691
44705W        W14586  15.112  20.525   2.821
44706W        W14587   0.782  14.752   1.297
44707W        W14588  31.101  21.187  12.906
44708W        W14589  27.037  29.128   0.852
44709W        W14590  15.633  27.959   2.740
44710W        W14591  11.801  32.587   3.758
44711W        W14592  21.715  36.395  14.432
44712W        W14593  20.678   3.906   0.904
44713W        W14594   7.772   0.437  11.580
44714W        W14595  11.146  33.007   1.226
44715W        W14596  17.573  44.494  12.963
44716W        W14597  44.499   2.739   0.281
44717W        W14598   7.247  10.802  13.467
44718W        W14599  25.628  37.562  13.503
44719W        W14600   5.906  12.299  14.943
44720W        W14601  26.537  38.384  10.509
44721W        W14602  10.278  31.501  11.510
44722W        W14603  18.603  17.622   0.433
44723W        W14604  38.384  10.369  10.159
44724W        W14605   0.775  24.140  13.408
44725W        W14606   0.316  21.539   3.717
44726W        W14607   5.920  37.432   0.941
44727W        W14608   2.271  41.372  14.866
44728W        W14609  39.389  30.497   3.351
44729W        W14610  41.396  39.054   3.767
44730W        W14611  37.385   3.244   4.711
44731W        W14612  18.193  20.169  13.933
44732W        W14613  12.741   4.764  13.326
44733W        W14614   0.432  40.425   4.793
44734W        W14615  31.500  12.322   4.122
44735W        W14616  23.554   7.416   3.850
44736W        W14617  13.246  41.487  12.841
44737W        W14618  22.575  13.602  12.046
44738W        W14619  39.424  12.191   2.897
44739W        W14620   1.817   4.424   2.387
44740W        W14621  40.995  35.004   4.735
44741W        W14622  42.951  13.120  12.071
44742W        W14623  24.504  43.495  14.797
44743W        W14624  25.572   0.946   1.359
44744W        W14625   9.308  22.018   3.844
44745W        W14626  30.488  25.610   2.735
44746W        W14627  25.155  19.655  14.801
44747W        W14628   1.256  19.225   2.733
44748W        W14629  32.623  30.651  14.275
44749W        W14630  42.437  15.689   4.266
44750W        W14631  22.716   9.162   4.828
44751W        W14632   4.228   2.409  10.574
44752W        W14633   1.325   7.818   4.614
44753W        W14634  11.342  43.290  13.429
44754W        W14635  20.156  24.601  10.996
44755W        W14636  24.563  18.109   0.928
44756W        W14637  18.783  17.140   4.651
44757W        W14638  34.554  41.516  11.544
44758W        W14639  25.499  27.028  11.060
44759W        W14640  10.806  39.815  14.328
44760W        W14641   7.213  11.255   2.862
44761W        W14642  30.620  10.138   3.673
44762W        W14643  42.506   2.911  12.022
44763W        W14644  23.708  14.113   2.314
44764W        W14645  20.047  35.999   3.329
44765W        W14646  15.166  35.932   1.247
44766W        W14647  40.484  29.125   0.800
44767W        W14648  34.599  32.094   1.702
44768W        W14649  37.890   7.690  13.534
44769W        W14650   2.419  18.555  13.922
44770W        W14651  13.314  21.649   3.378
44771W        W14652  15.217  43.401   2.254
44772W        W14653  34.890  18.066  13.926
44773W        W14654  41.511  13.821  12.464
44774W        W14655  32.505  41.531  13.457
44775W        W14656  16.213  40.303  10.917
44776W        W14657   6.705  21.138   3.765
44777W        W14658  28.103  22.730   4.658
44778W        W14659  10.805  30.443  10.953
44779W        W14660  21.081  24.083  11.938
44780W        W14661  21.526  43.323   4.795
44781W        W14662  23.003  25.152   1.724
44782W        W14663   3.931  29.607  13.394
44783W        W14664  32.941  40.418   4.746
44784W        W14665  12.238  17.088   1.713
44785W        W14666  38.542   4.943   4.282
44786W        W14667  35.439  12.725  10.571
44787W        W14668  44.291  12.636  10.616
44788W        W14669   1.431  29.967  11.463
44789W        W14670  36.369   7.833  11.040
44790W        W14671  22.178  31.150  11.428
44791W        W14672   8.677  37.059  14.920
44792W        W14673   3.915   5.841  12.427
44793W        W14674  43.919  36.544  14.825
44794W        W14675  42.418  32.576   2.894
44795W        W14676  13.685  35.036   0.444
44796W        W14677  39.867  43.810  14.823
44797W        W14678   4.909  20.075   4.665
44798W        W14679  15.089  16.169  12.445
44799W        W14680  23.494  28.610   1.747
44800W        W14681  37.845  29.518   2.750
44801W        W14682  43.404  29.980  12.367
44802W        W14683  41.034  22.034  12.373
44803W        W14684   8.400  29.578  10.945
44804W        W14685   9.789  36.505  13.977
44805W        W14686   1.416  40.522  11.893
44806W        W14687   2.924  13.255   0.368
44807W        W14688  28.077  33.970   2.770
44808W        W14689  27.167  26.679   0.384
44809W        W14690   8.854  26.580  12.965
44810W        W14691  41.868  13.242   0.416
44811W        W14692  16.776  30.572   2.186
44812W        W14693   8.320  25.026   0.359
44813W        W14694  17.295  11.358   3.719
44814W        W14695  35.453  29.009  14.406
44815W        W14696  28.541   4.299   4.669
44816W        W14697   1.936  36.460  10.467
44817W        W14698   0.878  36.056   4.821
44818W        W14699  33.970  37.576   2.276
44819W        W14700  31.560  43.866  14.797
44820W        W14701  15.128   4.447  14.332
44821W        W14702   5.358  37.852  14.829
44822W        W14703  42.329   9.717   4.656
44823W        W14704  20.271  43.963  12.882
44824W        W14705  21.530  43.937  11.871
44825W        W14706  35.403   5.410   0.403
44826W        W14707  27.991   8.371   0.334
44827W        W14708   2.742  20.713  14.025
44828W        W14709  42.937  42.511  13.423
44829W        W14710  37.549  16.790   3.786
44830W        W14711   5.907  11.190  12.564
44831W        W14712  29.130  29.460   0.336
44832W        W14713  21.570  32.429  14.445
44833W        W14714   4.265  16.082  14.763
44834W        W14715  34.568  42.974   2.413
44835W        W14716  32.400  40.436  11.890
44836W        W14717  12.315  17.670   4.229
44837W        W14718  27.504   3.814   4.615
44838W        W14719  26.530  20.081  13.436
44839W        W14720   6.705  22.661   3.833
44840W        W14721  14.225  15.674   4.143
44841W        W14722  20.157  11.199   0.730
44842W        W14723   5.209  42.913  10.515
44843W        W14724  35.047  22.687  13.393
44844W        W14725  34.503  11.235   0.848
44845W        W14726  37.055  17.623   3.844
44846W        W14727  18.060  43.417  10.593
44847W        W14728  32.635  28.649  12.460
44848W        W14729   1.833  42.898   1.336
44849W        W14730  19.605   0.393  10.904
44850W        W14731  20.607   1.932  13.968
44851W        W14732  40.499  25.062   5.103
44852W        W14733  20.632  32.052   4.630
44853W        W14734  15.813  25.675  11.872
44854W        W14735  21.019   7.367  14.483
44855W        W14736  32.394  36.433   4.771
44856W        W14737   1.308   0.979  10.496
44857W        W14738  44.406   0.752  13.363
44858W        W14739  36.424  29.123   0.368
44859W        W14740  23.648  23.509  11.039
44860W        W14741  39.040  40.303  11.975
44861W        W14742  18.667  19.755  14.480
44862W        W14743  25.116  11.130   3.155
44863W        W14744  35.905  21.038   1.844
44864W        W14745  38.836  43.844  14.004
44865W        W14746  20.543   9.391  13.009
44866W        W14747  34.594   0.816  13.857
44867W        W14748  41.941  16.580  11.007
44868W        W14749  38.876  43.850   1.294
44869W        W14750  27.660  33.887   4.141
44870W        W14751  25.661   8.392  12.072
44871W        W14752  37.842  31.510  14.321
44872W        W14753   3.397  18.111  10.553
44873W        W14754  16.738  38.998  11.412
44874W        W14755   0.383  24.719   0.777
44875W        W14756  14.159  14.628  10.942
44876W        W14757  43.926  24.014   4.190
44877W        W14758  20.258   3.353  10.977
44878W        W14759   1.968   5.321  13.540
44879W        W14760   1.323  26.991  12.006
44880W        W14761  32.981  26.625   3.821
44881W        W14762  22.009  15.146   4.167
44882W        W14763   0.285  32.921   0.473
44883W        W14764  23.229  18.717  14.758
44884W        W14765   0.771  36.906   0.839
44885W        W14766  16.573  43.939   2.322
44886W        W14767   1.878  19.243  13.334
44887W        W14768  22.158  19.060  14.419
44888W        W14769  26.478   2.936   3.321
44889W        W14770  18.196  42.937  12.509
44890W        W14771  13.212  24.176   4.200
44891W        W14772  29.562  42.484  13.884
44892W        W14773  31.498  17.604  12.836
44893W        W14774  21.704  18.592   1.296
44894W        W14775  31.580  13.343   0.443
44895W        W14776  23.236  21.153  13.005
44896W        W14777  12.832  26.513   1.872
44897W        W14778  32.033  34.113  13.347
44898W        W14779  36.967  29.138  13.429
44899W        W14780  12.625   3.954   4.792
44900W        W14781  40.504  25.567   2.887
44901W        W14782  12.787   2.904  11.089
44902W        W14783  13.288  18.696   0.374
44903W        W14784  27.976  19.545  12.345
44904W        W14785  13.157  38.359  13.360
44905W        W14786  41.983  29.054   1.841
44906W        W14787  43.455  26.656   1.753
44907W        W14788   2.884  19.640   3.213
44908W        W14789  23.511   3.222  13.035
44909W        W14790  39.510  39.399   2.884
44910W        W14791   2.890  22.735   3.344
44911W        W14792   8.341  10.706  12.420
44912W        W14793  44.494  36.962   2.792
44913W        W14794   8.219  21.678  13.509
44914W        W14795  40.475  11.341  14.984
44915W        W14796  40.987  13.193   3.695
44916W        W14797  35.950  20.716  14.300
44917W        W14798  20.560   7.821   3.189
44918W        W14799  25.591  28.514  12.008
44919W        W14800  39.896   2.251  10.481
44920W        W14801  27.576  33.039  13.801
44921W        W14802   6.310  38.974   4.741
44922W        W14803  44.879  44.340  12.887
44923W        W14804  23.701  13.659  14.284
44924W        W14805  44.784   1.880   4.290
44925W        W14806  38.458   9.804  12.491
44926W        W14807  29.441   6.817  14.319
44927W        W14808  27.182  17.799   4.173
44928W        W14809  27.024  19.722   0.805
44929W        W14810  18.738  43.873   3.703
44930W        W14811  14.719   9.745   1.873
44931W        W14812  15.800  19.095   2.754
44932W        W14813  33.896  37.921  12.993
44933W        W14814   0.981  23.609  14.446
44934W        W14815  29.118   9.287   3.149
44935W        W14816  22.633  31.569  14.383
44936W        W14817  29.095  37.336  13.331
44937W        W14818  18.586  16.261  14.921
44938W        W14819  44.483  34.530   0.912
44939W        W14820  14.776  13.269   2.343
44940W        W14821  36.946  43.865   1.748
44941W        W14822  36.359  17.788   4.656
44942W        W14823   2.239  14.788  14.946
44943W        W14824  38.952  10.212   1.211
44944W        W14825  43.898  26.471   2.222
44945W        W14826   8.865  22.580  11.096
44946W        W14827  20.680  44.447   5.762
44947W        W14828  32.394  44.489  14.307
44948W        W14829  10.227  42.961   3.191
44949W        W14830  24.077  13.736   0.831
44950W        W14831  37.967  24.069  14.487
44951W        W14832  14.611  29.592   3.804
44952W        W14833  27.550  33.382   2.767
44953W        W14834  36.082  11.224  14.338
44954W        W14835  22.041   5.926  14.915
44955W        W14836  16.196  10.322   9.924
44956W        W14837  18.692  40.913   2.903
44957W        W14838   6.353  16.194   3.367
44958W        W14839  10.785   5.287   1.353
44959W        W14840  12.656  10.740   1.832
44960W        W14841  33.529  33.587  12.542
44961W        W14842  33.887  36.044   3.246
44962W        W14843  28.114  37.016   2.397
44963W        W14844   0.901   3.251   4.346
44964W        W14845   6.781  12.712  12.396
44965W        W14846  37.942   4.889   3.326
44966W        W14847  43.901   4.729  13.966
44967W        W14848   4.892   6.897   2.684
44968W        W14849   6.381  43.772  10.491
44969W        W14850  42.985   5.790  13.391
44970W        W14851  39.972   5.900   1.448
44971W        W14852   9.815  10.326   5.178
44972W        W14853   2.921  10.719  13.421
44973W        W14854  18.665  38.828  13.795
44974W        W14855   0.947  28.125   0.285
44975W        W14856  30.918  10.377  14.887
44976W        W14857  11.632  23.727   0.243
44977W        W14858  34.904  39.331   1.389
44978W        W14859  17.790  44.904  10.574
44979W        W14860  37.571  26.024   4.336
44980W        W14861  11.822   8.771  11.912
44981W        W14862  31.634  27.078  14.879
44982W        W14863  20.088   5.708   0.932
44983W        W14864  35.419  44.897  11.462
44984W        W14865  10.146  29.626  11.999
44985W        W14866  18.584   1.951   0.747
44986W        W14867  17.641  17.638   4.783
44987W        W14868  14.654  24.145   3.725
44988W        W14869  27.136  35.591  14.319
44989W        W14870   6.804   6.313  12.960
44990W        W14871  11.667   4.915   5.304
44991W        W14872  12.800  14.728  10.598
44992W        W14873  21.164   0.342  13.938
44993W        W14874   4.761   7.171  10.950
44994W        W14875  42.848   6.356  12.824
44995W        W14876  23.519  36.353  14.388
44996W        W14877  26.523  30.584   0.394
44997W        W14878   9.793  41.487  11.604
44998W        W14879  38.050  43.442  13.431
44999W        W14880  27.577  18.060   2.756
45000W        W14881  29.012   8.754  10.616
45001W        W14882  38.462  14.629   0.272
45002W        W14883  18.163   1.314   2.762
45003W        W14884  24.219  42.384  13.370
45004W        W14885  29.597   4.841   0.950
45005W        W14886   2.286  10.226  13.897
45006W        W14887  13.612  42.493  12.371
45007W        W14888  12.645  10.377  11.375
45008W        W14889  21.145   6.892  11.978
45009W        W14890  44.502  24.991  10.115
45010W        W14891  37.424  40.448   2.283
45011W        W14892  36.504  26.005  10.901
45012W        W14893  27.640  32.502   4.779
45013W        W14894   9.292  28.006   3.331
45014W        W14895  12.210  27.107   0.941
45015W        W14896  34.606  44.909   2.357
45016W        W14897  21.599  14.114  14.320
45017W        W14898  10.362  43.483  10.602
45018W        W14899   1.312  14.815   1.896
45019W        W14900  29.953  11.267  14.917
45020W        W14901  21.091  28.603  13.375
45021W        W14902  30.098  30.421   3.303
45022W        W14903  19.040   1.973   2.204
45023W        W14904  38.497   7.182   1.753
45024W        W14905  15.753  43.323   3.727
45025W        W14906  37.837  17.634   0.917
45026W        W14907   7.377  35.108   5.274
45027W        W14908  11.347  22.124  11.522
45028W        W14909  24.155  42.283  12.895
45029W        W14910  19.670  26.007   2.809
45030W        W14911  11.143  13.833  12.882
45031W        W14912  24.996   1.237  12.019
45032W        W14913  20.718  31.431   1.442
45033W        W14914   4.219  16.196  12.004
45034W        W14915  42.908  12.746   4.336
45035W        W14916   5.279  33.513   4.802
45036W        W14917  10.824  34.909  12.400
45037W        W14918  17.175   3.360   3.834
45038W        W14919  24.511  29.060  10.909
45039W        W14920  15.753  27.998   1.745
45040W        W14921  10.256  39.990  12.432
45041W        W14922  13.809   8.875  13.386
45042W        W14923  31.022   4.364  14.868
45043W        W14924  33.419  20.641   0.261
45044W        W14925  21.628  37.394   1.336
45045W        W14926  18.704  12.834  14.009
45046W        W14927  34.932  39.828   3.760
45047W        W14928  23.644  32.924   2.358
45048W        W14929  33.466  35.550   4.307
45049W        W14930   0.759  31.114   1.784
45050W        W14931  11.702   8.805   2.884
45051W        W14932  29.529  43.766   1.412
45052W        W14933   8.660  23.734  12.549
45053W        W14934  11.321  30.912  10.564
45054W        W14935  12.274  31.646   4.798
45055W        W14936  26.471   1.755  13.846
45056W        W14937  17.599  39.041  14.349
45057W        W14938  40.948   7.783   4.828
45058W        W14939  20.762   8.677   0.252
45059W        W14940  29.629  44.845   4.744
45060W        W14941  19.160  11.349  11.020
45061W        W14942  17.111  34.102   3.826
45062W        W14943  43.512  23.514   4.267
45063W        W14944  31.067  43.432  13.953
45064W        W14945  33.972  36.914   4.289
45065W        W14946   8.754  26.515   4.113
45066W        W14947  39.844   7.408   2.228
45067W        W14948  33.523  36.078  11.044
45068W        W14949  17.731  14.649  10.453
45069W        W14950  18.246  39.329   1.356
45070W        W14951  24.580  42.452  12.038
45071W        W14952  19.042  31.994   3.260
45072W        W14953  21.168  31.627  13.369
45073W        W14954  39.314   6.867   3.302
45074W        W14955  10.330  38.482   3.849
45075W        W14956  15.278  42.845   1.830
45076W        W14957  24.707  11.795   2.717
45077W        W14958   5.874  36.465   3.278
45078W        W14959  33.888   0.285  11.378
45079W        W14960  41.373  31.501   4.805
45080W        W14961  26.983  19.169   1.319
45081W        W14962  25.525   4.722  10.478
45082W        W14963  40.928   2.893  14.494
45083W        W14964  27.664   1.925  11.016
45084W        W14965  21.049  42.858   1.439
45085W        W14966  12.243  23.057  11.862
45086W        W14967  24.157   0.318  12.046
45087W        W14968  38.461   7.249  10.925
45088W        W14969  18.616  18.630   5.112
45089W        W14970   8.311  23.210   0.250
45090W        W14971   3.363  27.631  11.380
45091W        W14972  29.629   6.779   0.440
45092W        W14973  37.939  15.217   0.441
45093W        W14974   0.411  31.973  11.931
45094W        W14975   4.281  14.830  14.884
45095W        W14976   4.915   8.755  11.997
45096W        W14977  11.725  39.501  10.469
45097W        W14978  34.547  43.280   0.780
45098W        W14979  39.840   0.419  13.514
45099W        W14980   1.858   1.237   1.373
45100W        W14981  42.322  29.137   4.114
45101W        W14982  33.937  24.510   0.258
45102W        W14983  35.948   2.241  12.552
45103W        W14984   6.360   1.831  13.378
45104W        W14985  23.117  41.918   2.754
45105W        W14986  27.189   2.943   4.146
45106W        W14987   4.298   4.278   2.727
45107W        W14988  14.167   0.934   3.217
45108W        W14989  25.664  44.871  12.051
45109W        W14990  31.958  41.485  13.956
45110W        W14991  25.012  34.097  12.909
45111W        W14992  30.017  15.617  14.979
45112W        W14993   1.338  25.555   3.156
45113W        W14994  35.566  24.669   4.688
45114W        W14995  17.241   2.728  14.311
45115W        W14996   9.822  28.115  13.832
45116W        W14997   0.751  38.027  12.043
45117W        W14998  15.115  35.979  11.482
45118W        W14999   0.382  43.376  11.128
45119W        W15000  10.797  29.935   3.258
45120W        W15001  14.326   9.384   2.807
45121W        W15002  37.367  44.906   2.708
45122W        W15003  21.693  10.754  13.437
45123W        W15004  34.455   0.818   2.419
45124W        W15005  27.030  43.938   4.615
45125W        W15006  30.916  23.236   3.362
45126W        W15007  29.169   8.241   4.689
45127W        W15008  43.445   4.815   4.725
45128W        W15009   5.280  18.130  11.951
45129W        W15010  12.233  38.346   4.215
45130W        W15011  29.552  11.829   0.255
45131W        W15012   1.953  28.661  12.513
45132W        W15013  38.055   9.739   0.410
45133W        W15014  30.658  15.280   1.877
45134W        W15015  33.494  38.856  11.961
45135W        W15016  34.545  39.949   1.273
45136W        W15017  16.239   1.254   3.324
45137W        W15018  33.999  34.564  11.029
45138W        W15019  41.971  22.536   2.808
45139W        W15020  25.714  33.934  11.894
45140W        W15021  21.079  31.067  13.508
45141W        W15022  38.939  29.055  14.343
45142W        W15023  17.159   1.859   3.340
45143W        W15024  35.421  30.614   0.365
45144W        W15025   3.394  43.939   4.234
45145W        W15026   6.270   7.302   3.629
45146W        W15027  21.564  26.030  11.111
45147W        W15028  37.857  25.553  12.046
45148W        W15029  15.580   9.720   3.703
45149W        W15030  25.210   8.798   2.418
45150W        W15031  28.068  11.220   2.233
45151W        W15032  34.527  41.964   4.837
45152W        W15033  39.882  43.457  11.044
45153W        W15034   3.253  23.028  13.348
45154W        W15035  21.523  14.612  14.928
45155W        W15036  41.868  22.108  13.336
45156W        W15037  14.821  20.039  11.099
45157W        W15038  15.646  41.826   0.754
45158W        W15039   0.908  42.809   0.843
45159W        W15040   0.350  13.701   0.463
45160W        W15041  42.904  36.086  13.532
45161W        W15042   9.741  39.542   4.789
45162W        W15043  35.592  33.512   1.848
45163W        W15044  30.501  42.907   4.204
45164W        W15045  41.918  42.997   0.909
45165W        W15046  41.860   0.927   9.975
45166W        W15047   1.241  25.196  12.024
45167W        W15048  20.079   7.708  13.866
45168W        W15049  23.110  32.607   4.327
45169W        W15050  38.954  44.265  10.587
45170W        W15051  42.884   9.306   1.420
45171W        W15052  23.508  28.128  11.072
45172W        W15053  15.157  37.047  11.927
45173W        W15054  23.728  21.558   4.209
45174W        W15055  44.427  36.479  10.414
45175W        W15056   8.807  12.266  13.422
45176W        W15057   8.657  27.484   1.704
45177W        W15058  16.682  41.381   2.183
45178W        W15059  28.478  30.531   4.751
45179W        W15060  40.036  22.711   4.319
45180W        W15061  44.264   2.780   1.261
45181W        W15062   1.847  21.704   4.291
45182W        W15063  44.281  17.597  14.435
45183W        W15064  27.465  15.594   4.789
45184W        W15065  24.628  20.605  13.913
45185W        W15066  44.928  36.037   4.835
45186W        W15067  25.612   6.708  13.807
45187W        W15068   0.377  21.023   0.808
45188W        W15069  40.453  37.534   4.187
45189W        W15070  33.583  13.288  13.965
45190W        W15071  42.885  24.201  11.063
45191W        W15072  33.460  43.447  13.861
45192W        W15073  29.131  20.098   3.746
45193W        W15074  17.286  32.027  10.992
45194W        W15075  31.501  17.303   3.371
45195W        W15076  11.712   9.285   4.756
45196W        W15077  33.941  38.037  10.513
45197W        W15078  34.477  43.954  13.532
45198W        W15079  13.298  41.818  13.391
45199W        W15080  16.663  27.471  10.433
45200W        W15081  41.383  12.243  10.999
45201W        W15082  25.219  44.455  12.375
45202W        W15083  13.615  18.707  13.428
45203W        W15084  29.963   9.835  11.062
45204W        W15085  34.579  16.604  14.965
45205W        W15086  40.451  19.597  14.508
45206W        W15087  20.580  41.890   1.211
45207W        W15088  36.407  18.059  10.559
45208W        W15089  33.620  44.880   2.840
45209W        W15090   4.918  11.622  14.890
45210W        W15091  33.961  21.220   2.682
45211W        W15092  10.818  34.040  10.600
45212W        W15093  39.998  23.637   0.312
45213W        W15094  26.497  27.133   1.826
45214W        W15095  13.685   3.247  13.931
45215W        W15096  15.634   3.789   2.370
45216W        W15097  21.664  24.590   4.135
45217W        W15098  14.624   6.758  11.400
45218W        W15099  19.220   4.410   0.863
45219W        W15100  24.542  22.600   0.415
45220W        W15101   8.901  38.383  11.385
45221W        W15102  13.158  25.590   2.217
45222W        W15103  12.760   3.879  10.589
45223W        W15104  11.173  23.219  14.771
45224W        W15105  15.588  39.913  11.881
45225W        W15106  31.482  37.353  13.042
45226W        W15107   6.428  15.752   0.914
45227W        W15108  27.091  32.999   0.367
45228W        W15109   2.736  38.440  14.304
45229W        W15110   9.698   0.760   3.258
45230W        W15111   4.812  43.849   2.733
45231W        W15112  17.250   8.254   1.303
45232W        W15113  40.897  16.632  10.555
45233W        W15114  28.081  27.472   2.189
45234W        W15115  44.931  38.495   4.202
45235W        W15116  12.710  36.430  14.984
45236W        W15117  29.937   2.461   4.288
45237W        W15118  20.550  22.054  14.006
45238W        W15119   6.242  26.514   3.633
45239W        W15120   5.420  35.932  13.379
45240W        W15121  20.207   9.798   4.325
45241W        W15122  37.005   4.377   3.235
45242W        W15123   3.324  28.474   2.722
45243W        W15124  28.673   1.315  11.041
45244W        W15125  41.027  35.957  13.326
45245W        W15126  35.553  24.654   2.411
45246W        W15127  36.410  39.452  14.413
45247W        W15128  21.099  18.246   1.431
45248W        W15129  32.584   4.217   3.868
45249W        W15130   1.968   1.770  14.839
45250W        W15131  17.224  42.427  13.790
45251W        W15132   8.256  42.376   3.737
45252W        W15133  11.204  21.716  11.580
45253W        W15134  26.703   3.222  12.866
45254W        W15135   9.366  33.603  14.015
45255W        W15136  43.926  42.871  13.389
45256W        W15137  28.973  29.528  10.584
45257W        W15138  40.540   2.355  14.956
45258W        W15139  32.561  40.978   2.207
45259W        W15140  14.638  14.311  10.911
45260W        W15141  32.077   0.762   1.738
45261W        W15142  18.266  19.163   0.312
45262W        W15143  11.202  23.494   2.852
45263W        W15144  26.007   3.919  13.963
45264W        W15145   9.792   1.748  13.978
45265W        W15146  40.457  27.495  13.009
45266W        W15147  42.928  28.185   4.775
45267W        W15148   1.483  13.240  12.915
45268W        W15149   4.283  28.033  14.356
45269W        W15150  22.240  10.272  14.812
45270W        W15151  32.024  18.264  14.920
45271W        W15152  20.074  40.495  13.334
45272W        W15153   6.216  25.170  13.005
45273W        W15154  36.055  16.214  11.018
45274W        W15155  41.943  10.657  12.991
45275W        W15156  13.325  24.522  14.503
45276W        W15157  26.617  21.028   5.320
45277W        W15158  24.179  38.409   4.643
45278W        W15159  28.616  23.735  10.466
45279W        W15160  35.531   8.809  10.986
45280W        W15161  22.560  10.380  14.319
45281W        W15162   3.912  19.587  13.351
45282W        W15163  17.572  26.009  11.926
45283W        W15164   9.671  21.192   2.712
45284W        W15165  15.601  42.965  14.011
45285W        W15166  39.319  38.504   0.290
45286W        W15167  13.705  32.923   2.370
45287W        W15168  14.695  27.995   0.401
45288W        W15169   3.400  19.249   3.386
45289W        W15170  39.330  29.541   2.347
45290W        W15171  42.917   2.798   3.205
45291W        W15172  22.575  22.135  14.781
45292W        W15173  29.936  30.541   2.305
45293W        W15174  21.123   5.232   4.234
45294W        W15175  19.750  11.860   1.870
45295W        W15176  26.702  26.124  12.016
45296W        W15177   0.250  40.819   3.376
45297W        W15178   0.966  41.912   3.297
45298W        W15179  26.591  25.644   3.769
45299W        W15180   7.299  18.623  14.930
45300W        W15181  15.097  21.548  11.042
45301W        W15182  14.662  34.935   3.223
45302W        W15183  35.415  10.261  13.382
45303W        W15184  12.139  18.226  13.018
45304W        W15185  26.184   4.895  10.617
45305W        W15186  27.135  19.692   2.315
45306W        W15187  29.452  18.059  14.838
45307W        W15188   1.892  17.248  13.044
45308W        W15189  21.027   1.900   2.778
45309W        W15190  12.651   7.680  14.473
45310W        W15191  14.247  37.843   3.267
45311W        W15192  18.656  39.977   4.142
45312W        W15193  15.596  14.135  13.896
45313W        W15194  19.780  36.070   4.760
45314W        W15195  35.591  13.627   4.347
45315W        W15196  11.771  35.861  10.981
45316W        W15197  21.755  15.121  12.050
45317W        W15198   8.301   8.774   1.813
45318W        W15199  18.180  16.232  14.768
45319W        W15200  26.692  44.774  12.079
45320W        W15201  26.101  18.088  13.831
45321W        W15202  19.253   1.383  10.603
45322W        W15203  24.220  22.087  12.900
45323W        W15204   3.255  13.795  11.020
45324W        W15205  42.846   0.460   4.658
45325W        W15206  30.491   8.807   4.126
45326W        W15207  32.968  13.168   3.799
45327W        W15208   1.386  26.180  14.398
45328W        W15209  18.146  32.452  12.058
45329W        W15210   8.776   1.450  12.830
45330W        W15211  21.160   6.207   2.360
45331W        W15212  30.527  18.612   1.220
45332W        W15213   8.302  24.481   4.780
45333W        W15214  19.129   4.351   4.309
45334W        W15215  15.264   2.265  14.506
45335W        W15216  30.649  13.120   0.385
45336W        W15217  19.766   5.279  14.996
45337W        W15218  20.074  14.605  12.413
45338W        W15219  44.799  22.108  14.383
45339W        W15220   0.352  18.150   2.764
45340W        W15221   6.394   5.775   1.282
45341W        W15222  12.624  32.952   2.743
45342W        W15223  22.236  44.895  14.019
45343W        W15224  26.480  42.359   2.329
45344W        W15225  24.086  32.576  13.521
45345W        W15226  13.657  19.158  12.938
45346W        W15227   8.733  28.025  12.386
45347W        W15228  13.838  37.387   4.739
45348W        W15229   8.783  18.735  10.474
45349W        W15230  30.446  43.309   3.822
45350W        W15231  28.153  14.804  12.461
45351W        W15232  37.978  16.284  12.863
45352W        W15233  18.172  26.048   4.675
45353W        W15234  43.452   9.794  11.601
45354W        W15235  31.492  22.706  11.468
45355W        W15236   3.361  26.475  11.095
45356W        W15237  43.770  21.250   0.847
45357W        W15238  25.211  23.532   1.930
45358W        W15239  11.245  36.564  12.490
45359W        W15240  44.974   4.300  10.412
45360W        W15241  27.979  26.117  13.969
45361W        W15242   2.392  13.239  12.448
45362W        W15243   6.722  19.591  14.395
45363W        W15244   0.764  22.617  14.762
45364W        W15245  37.085  16.595   0.944
45365W        W15246  39.846  37.867  11.886
45366W        W15247  18.680  28.512  11.870
45367W        W15248   0.334  39.833   3.825
45368W        W15249  38.534  28.477  13.535
45369W        W15250  19.109   3.804  14.854
45370W        W15251   0.480  14.185  11.042
45371W        W15252   5.264   8.808   0.458
45372W        W15253  24.983  29.987  12.964
45373W        W15254  16.273   9.797   3.189
45374W        W15255  24.661   5.360   3.739
45375W        W15256  17.307  40.515  11.484
45376W        W15257  39.374  11.680  13.964
45377W        W15258  17.746  31.119  13.372
45378W        W15259  22.047  38.391  13.807
45379W        W15260  25.130  20.203   3.733
45380W        W15261  19.142  39.438   4.761
45381W        W15262  41.292  19.696  11.060
45382W        W15263   2.761  20.613   4.131
45383W        W15264  35.044   5.371  13.534
45384W        W15265  31.414  36.471   4.785
45385W        W15266   9.244  12.749  11.598
45386W        W15267  17.139  13.829   3.751
45387W        W15268   0.348  28.953  12.051
45388W        W15269   6.336  15.271   0.243
45389W        W15270   6.695  35.574   1.400
45390W        W15271  15.286  19.546   2.322
45391W        W15272   8.384  15.128   0.344
45392W        W15273  31.461  19.084   4.754
45393W        W15274  20.089  35.947   1.221
45394W        W15275  40.359   4.340   3.203
45395W        W15276  20.642   7.272   1.795
45396W        W15277  17.200  35.398  13.373
45397W        W15278   7.368  40.442   4.609
45398W        W15279  43.360  39.402  11.518
45399W        W15280  42.315  10.367   3.272
45400W        W15281  28.146  27.600  12.841
45401W        W15282  41.877  18.694   5.322
45402W        W15283  17.759  34.599   0.297
45403W        W15284  33.912  19.061  14.841
45404W        W15285   4.357  11.235   3.795
45405W        W15286  28.643   9.877  12.047
45406W        W15287  38.455  13.187  14.490
45407W        W15288  22.147  20.031   0.428
45408W        W15289  44.312   9.646  11.997
45409W        W15290  28.667   1.380   4.348
45410W        W15291  35.894  34.443   2.279
45411W        W15292   2.863   5.704   2.249
45412W        W15293  15.209  27.582  12.007
45413W        W15294  44.883  28.061  14.350
45414W        W15295  43.774  43.337   3.148
45415W        W15296   2.727  24.606  10.987
45416W        W15297  17.244  27.160  14.975
45417W        W15298  34.896   7.706  14.370
45418W        W15299   9.210  38.544  10.471
45419W        W15300   2.872  21.679   1.337
45420W        W15301  16.716  11.189   4.298
45421W        W15302   3.442   8.830  13.883
45422W        W15303  33.064  36.861  14.309
45423W        W15304  36.564  38.838   2.687
45424W        W15305  40.042   4.410   2.400
45425W        W15306  22.240  27.191  11.457
45426W        W15307  15.681   7.176   3.188
45427W        W15308  14.130  20.259   2.222
45428W        W15309  21.044  20.682   3.630
45429W        W15310  15.675  37.491   1.877
45430W        W15311   3.779  29.648   1.722
45431W        W15312  34.555  22.196   0.753
45432W        W15313  29.650  41.348  10.449
45433W        W15314  37.043  12.261  11.874
45434W        W15315  15.272  33.606  13.909
45435W        W15316   1.751  26.976  10.887
45436W        W15317  23.017  18.627   0.823
45437W        W15318  40.532  12.692   0.746
45438W        W15319  40.400  27.045  10.475
45439W        W15320  21.207  31.980   1.813
45440W        W15321   3.736  18.556  11.917
45441W        W15322  42.780  41.489  13.491
45442W        W15323  39.834  29.102  13.377
45443W        W15324  21.625   3.830   2.732
45444W        W15325  29.168  35.907  13.915
45445W        W15326  21.100  17.786   3.265
45446W        W15327  20.147  23.697  14.352
45447W        W15328  40.035   3.916   4.835
45448W        W15329  25.633  27.197   0.387
45449W        W15330   7.346  15.604  12.965
45450W        W15331  30.466  15.816  12.971
45451W        W15332  15.581  38.978  10.475
45452W        W15333  14.192  17.211   4.741
45453W        W15334   0.862  42.860  13.044
45454W        W15335  16.177  40.444  14.418
45455W        W15336  23.731  18.193   0.827
45456W        W15337  18.675  17.113  12.990
45457W        W15338  13.332  40.032  10.638
45458W        W15339  19.162  26.093   2.863
45459W        W15340  32.477   8.200  11.429
45460W        W15341   3.739  11.836   0.767
45461W        W15342  28.025   7.310   2.814
45462W        W15343   9.188  34.404  14.346
45463W        W15344  11.325  42.352   0.778
45464W        W15345  11.735   7.219   0.885
45465W        W15346  28.093   0.381  14.950
45466W        W15347  24.192  24.018   2.738
45467W        W15348  17.659  18.176   0.913
45468W        W15349  34.963  16.161   0.260
45469W        W15350  10.366  42.940   1.365
45470W        W15351   1.482  16.074   0.904
45471W        W15352  21.647  33.025  14.864
45472W        W15353  40.471   9.299  13.377
45473W        W15354   8.181  43.782  11.528
45474W        W15355  37.913  24.706   1.385
45475W        W15356  39.917  14.300  12.074
45476W        W15357  11.286   9.879  10.410
45477W        W15358   1.387  27.496  13.902
45478W        W15359  16.758  17.199  12.973
45479W        W15360  27.505  37.930  13.022
45480W        W15361  10.238  33.460  11.385
45481W        W15362   0.886   5.312   2.833
45482W        W15363  27.131  21.618  14.866
45483W        W15364   2.322   9.705   1.358
45484W        W15365  39.938  10.822  12.953
45485W        W15366  35.858  42.806  12.411
45486W        W15367  20.595  43.324   0.754
45487W        W15368  13.331   9.160  12.413
45488W        W15369  34.919  34.028  10.895
45489W        W15370  22.533  21.214   9.992
45490W        W15371  38.853  22.710  13.519
45491W        W15372  28.569  42.510  10.642
45492W        W15373  28.665  22.023  12.522
45493W        W15374  10.168  35.028   5.254
45494W        W15375  29.491   4.301  10.470
45495W        W15376  17.742  36.003  13.376
45496W        W15377  21.075  33.005  11.564
45497W        W15378  33.625  21.699   4.203
45498W        W15379   1.369   3.273  12.930
45499W        W15380   0.848  15.196  14.019
45500W        W15381  44.916  38.941  12.085
45501W        W15382  14.219  14.745  12.954
45502W        W15383  10.714  34.372  14.917
45503W        W15384   7.888  18.781  14.882
45504W        W15385   1.480  12.751  14.426
45505W        W15386  26.181  43.871  12.480
45506W        W15387   2.732  19.695  14.820
45507W        W15388  41.940  13.688  13.038
45508W        W15389   7.873  29.063  14.967
45509W        W15390   1.474  28.543  12.510
45510W        W15391  44.818  35.873   5.301
45511W        W15392  39.999  11.721   3.269
45512W        W15393  39.005  37.393  13.836
45513W        W15394  35.430  19.746  12.836
45514W        W15395  41.973  38.967   4.306
45515W        W15396  39.400  25.114   3.151
45516W        W15397  18.682  38.027  13.901
45517W        W15398  31.950   2.260  12.564
45518W        W15399  39.021  23.228  14.009
45519W        W15400  16.208  25.003   4.670
45520W        W15401  40.401  32.514   1.328
45521W        W15402  12.350  38.996  11.041
45522W        W15403  41.389  29.983  13.416
45523W        W15404  17.669  22.651   3.864
45524W        W15405  32.005  34.538  11.489
45525W        W15406  42.821  20.568  14.431
45526W        W15407  12.159  25.468   1.352
45527W        W15408  43.474  28.176  10.986
45528W        W15409  27.080   3.944   0.454
45529W        W15410  43.976  21.029   2.837
45530W        W15411  22.555  18.103   0.471
45531W        W15412  38.829   2.360   2.664
45532W        W15413  21.260  13.151   3.146
45533W        W15414  10.679  32.097   2.227
45534W        W15415  24.182  38.476   2.286
45535W        W15416  44.282  18.194   3.385
45536W        W15417  41.374   5.260  14.791
45537W        W15418  10.683   4.933   3.676
45538W        W15419  29.647  11.237   4.644
45539W        W15420  18.771   2.332  10.625
45540W        W15421   9.203   3.719  14.275
45541W        W15422  20.226   1.844   1.905
45542W        W15423  26.207   9.754   4.661
45543W        W15424  38.031   5.289  13.813
45544W        W15425  26.598  33.048   4.322
45545W        W15426  41.534   6.790  10.532
45546W        W15427  23.714   3.457   4.818
45547W        W15428  20.600  22.700   1.372
45548W        W15429  14.643  12.203   4.284
45549W        W15430  27.154  37.512  13.806
45550W        W15431  28.037  29.534   2.231
45551W        W15432  21.250   1.886   0.441
45552W        W15433   2.288   1.284   2.670
45553W        W15434  25.057  14.600  14.452
45554W        W15435  26.190  10.277  13.362
45555W        W15436  40.370  10.180   0.910
45556W        W15437  21.719  31.080  10.569
45557W        W15438  19.599  23.035  13.822
45558W        W15439  34.101  40.390  10.962
45559W        W15440  44.863   0.394   1.864
45560W        W15441  35.931   9.846   1.703
45561W        W15442  40.840  19.214   0.927
45562W        W15443  18.733  36.580  14.485
45563W        W15444  21.260   9.323   0.839
45564W        W15445  18.245  19.238  13.420
45565W        W15446  13.641  19.588  14.851
45566W        W15447   4.714  20.564  14.321
45567W        W15448  27.086  32.904   1.731
45568W        W15449  25.483  14.681   2.317
45569W        W15450  31.571   5.844  13.968
45570W        W15451  29.171  29.440   0.954
45571W        W15452  19.771   2.946   4.669
45572W        W15453   5.811  36.024   1.753
45573W        W15454  13.762  13.722   0.900
45574W        W15455  27.121  30.586  12.559
45575W        W15456  27.490  43.968  11.951
45576W        W15457  37.465  18.561   3.712
45577W        W15458  10.225   5.268   1.755
45578W        W15459   6.689  41.508  10.957
45579W        W15460  15.284  11.235   0.951
45580W        W15461   7.295   3.447  13.866
45581W        W15462  39.891  43.943  11.987
45582W        W15463  43.803  17.720  10.982
45583W        W15464  26.988  43.967  14.914
45584W        W15465  27.505   4.751  11.899
45585W        W15466  35.861  21.663  13.905
45586W        W15467  21.526  20.726   2.301
45587W        W15468   5.714  27.494   4.184
45588W        W15469  43.780   9.193  11.108
45589W        W15470  39.349  23.007   1.863
45590W        W15471   0.971   6.780  13.462
45591W        W15472   0.846  36.944  14.815
45592W        W15473  31.620  38.883   0.266
45593W        W15474   0.850  28.626   0.854
45594W        W15475  38.876  20.621  13.369
45595W        W15476  13.654  23.127  14.283
45596W        W15477  21.166  34.117   3.321
45597W        W15478   0.467  43.403  11.899
45598W        W15479  23.128  41.314   0.878
45599W        W15480  27.661  14.302  14.461
45600W        W15481  30.636  36.052   0.316
45601W        W15482  20.216  40.899  13.013
45602W        W15483  14.681  10.817   3.844
45603W        W15484  25.166  12.287   2.229
45604W        W15485   1.861  29.972   0.866
45605W        W15486   0.807  13.636   2.724
45606W        W15487   1.483  24.593   4.695
45607W        W15488   7.901  35.903  11.920
45608W        W15489  31.921   3.298  13.948
45609W        W15490  25.655  18.783  10.895
45610W        W15491  42.985  40.955  14.324
45611W        W15492  20.221  43.942   4.605
45612W        W15493  23.592  28.630  10.937
45613W        W15494  13.796  12.138   2.263
45614W        W15495   4.835   7.806  14.321
45615W        W15496  35.386  40.544   3.351
45616W        W15497  42.402  34.872  10.494
45617W        W15498  12.253  17.252  11.572
45618W        W15499  34.021  24.147  14.450
45619W        W15500  35.516  16.791  12.412
45620W        W15501  37.987  30.130  13.337
45621W        W15502  38.511  30.551  11.383
45622W        W15503   8.174   3.306  12.857
45623W        W15504   3.383   8.380  10.588
45624W        W15505  13.771  22.514   1.730
45625W        W15506  16.112  41.806  13.379
45626W        W15507   9.284  20.099   3.650
45627W        W15508  36.391  15.226  14.439
45628W        W15509  32.440  15.270  11.435
45629W        W15510  19.161   8.180   0.756
45630W        W15511  20.734  29.454  12.987
45631W        W15512  42.466  24.126   4.318
45632W        W15513  16.132  24.679   0.947
45633W        W15514  11.257  15.697   4.646
45634W        W15515  43.851  30.970   0.480
45635W        W15516  38.008   0.349  11.440
45636W        W15517  19.662  17.192   2.855
45637W        W15518  18.741   4.362   0.406
45638W        W15519  31.910  27.603  13.828
45639W        W15520   5.390  15.298  12.581
45640W        W15521  14.318  22.703  14.948
45641W        W15522   6.719   4.887  14.016
45642W        W15523  42.285  40.853  12.576
45643W        W15524  27.980  43.442  12.949
45644W        W15525  23.576  28.057   4.311
45645W        W15526  21.051  26.081   2.830
45646W        W15527   9.250  11.646  12.550
45647W        W15528  31.599  42.793   1.737
45648W        W15529  23.175  16.688   0.395
45649W        W15530   5.696   4.258   4.205
45650W        W15531  20.185  19.163  13.888
45651W        W15532  25.665  38.364   3.260
45652W        W15533   5.843  16.178  13.966
45653W        W15534  20.063   6.849   0.373
45654W        W15535  13.619  27.047   0.257
45655W        W15536  28.178  33.578   1.238
45656W        W15537   9.169  39.315   1.303
45657W        W15538  15.648  32.437   2.380
45658W        W15539  20.101   8.732   1.269
45659W        W15540  22.644   3.366  14.875
45660W        W15541  29.154  32.498  14.476
45661W        W15542  16.279   1.837  13.889
45662W        W15543  39.006   6.295   0.469
45663W        W15544  41.492  22.156  12.404
45664W        W15545   3.904  39.440   3.642
45665W        W15546  34.413  10.261  14.510
45666W        W15547   6.289  42.878   1.775
45667W        W15548  37.074   9.356  10.933
45668W        W15549  10.807   9.151   2.720
45669W        W15550  23.085  34.519   2.405
45670W        W15551  41.420  40.461   4.340
45671W        W15552  29.109  40.537  14.851
45672W        W15553  25.017  13.281   1.807
45673W        W15554  15.614  14.132   2.209
45674W        W15555  17.243  35.586  13.939
45675W        W15556  43.353   1.380  11.080
45676W        W15557  41.307  44.953  14.760
45677W        W15558  14.285  36.919  11.037
45678W        W15559   9.373  28.104  11.501
45679W        W15560  41.952  39.424   1.923
45680W        W15561  17.160  15.260   3.145
45681W        W15562  11.753   2.309  10.093
45682W        W15563  21.236   5.324   1.799
45683W        W15564  37.991  13.174  13.036
45684W        W15565   6.868  21.132  13.905
45685W        W15566  36.073   1.961   1.765
45686W        W15567  23.083  11.225   4.637
45687W        W15568  20.638   2.934  11.425
45688W        W15569   2.315  34.438   1.297
45689W        W15570   5.246   9.868  12.981
45690W        W15571  20.575  28.176  12.412
45691W        W15572  14.104  29.610   4.274
45692W        W15573   5.771  33.875  11.027
45693W        W15574  42.984  18.593  11.034
45694W        W15575   6.748  23.503   0.299
45695W        W15576   4.381   9.242   1.721
45696W        W15577   8.185  25.533   4.772
45697W        W15578  17.158  37.086  14.765
45698W        W15579   9.389  41.951  14.813
45699W        W15580  22.686  22.704  14.795
45700W        W15581  22.642  19.214   3.803
45701W        W15582  22.006  27.623  11.458
45702W        W15583  31.408   1.879  12.993
45703W        W15584  23.541   6.393  11.917
45704W        W15585   9.313   1.816   1.917
45705W        W15586  14.103  33.896   4.207
45706W        W15587  19.111  36.070  10.424
45707W        W15588  20.092  30.019  10.996
45708W        W15589  15.730  27.466   1.761
45709W        W15590   5.394  42.513   0.933
45710W        W15591  35.402  37.513  13.970
45711W        W15592  21.663  11.661  14.901
45712W        W15593   6.307  40.319  13.975
45713W        W15594   1.929  28.594   3.634
45714W        W15595  21.558  20.240  12.534
45715W        W15596  31.149  39.497  11.028
45716W        W15597  19.138  38.443   3.328
45717W        W15598  16.652   9.881   0.967
45718W        W15599  43.513  28.447   3.275
45719W        W15600  19.777   4.425   4.604
45720W        W15601  26.031  22.595   1.443
45721W        W15602  15.310   2.800   3.686
45722W        W15603  37.835  40.880  12.455
45723W        W15604  24.092  17.638   1.414
45724W        W15605   4.726  29.157  10.552
45725W        W15606  36.067  13.635   1.313
45726W        W15607   4.291  35.909   2.263
45727W        W15608  10.208   6.806   3.837
45728W        W15609  43.972  13.277   2.310
45729W        W15610  22.562  24.536   3.240
45730W        W15611  38.422  14.765   4.256
45731W        W15612  13.135   7.357   0.840
45732W        W15613   8.354  13.241  11.103
45733W        W15614  13.768  25.577   1.265
45734W        W15615   1.291  44.459  14.370
45735W        W15616  43.836   0.747  12.974
45736W        W15617  12.838  16.208   4.830
45737W        W15618  28.595  15.254  13.379
45738W        W15619   0.890  26.481  14.764
45739W        W15620  40.901   9.665   4.704
45740W        W15621   0.491  22.243   2.665
45741W        W15622  25.988  23.656  10.903
45742W        W15623  25.025  31.077   2.891
45743W        W15624  16.115  43.988   4.669
45744W        W15625  33.037  44.485   1.312
45745W        W15626  44.288  24.178  11.491
45746W        W15627   0.427  11.693   0.772
45747W        W15628  41.528   5.245   1.239
45748W        W15629  38.872   1.437  14.919
45749W        W15630   0.259  34.472  11.076
45750W        W15631   4.934  41.482   2.279
45751W        W15632   1.395  37.356  14.014
45752W        W15633  23.664  21.254  10.943
45753W        W15634  26.095  25.712  11.535
45754W        W15635  23.585  25.499   2.898
45755W        W15636   3.455  35.579  13.025
45756W        W15637   9.229  28.478   3.685
45757W        W15638  17.138  34.542   1.352
45758W        W15639  22.730  41.836   0.323
45759W        W15640  23.714  12.834  11.873
45760W        W15641  21.707  26.968   3.205
45761W        W15642   2.838  17.137   0.327
45762W        W15643  34.071  19.161   4.674
45763W        W15644  43.329  40.425  11.550
45764W        W15645  35.441  25.078  13.451
45765W        W15646  38.032   5.884   1.754
45766W        W15647  32.424  18.085  14.280
45767W        W15648  39.407  30.986   4.312
45768W        W15649  38.912  19.762   2.221
45769W        W15650  16.576   0.339  11.565
45770W        W15651  23.185  42.460  12.973
45771W        W15652   1.750   8.883   3.212
45772W        W15653   1.894   7.902   2.334
45773W        W15654  17.119  38.973  10.927
45774W        W15655  33.021  33.041  10.413
45775W        W15656  41.883  23.512  10.993
45776W        W15657  10.869  13.206  13.878
45777W        W15658  31.921  34.029   3.329
45778W        W15659  13.744  22.221   0.285
45779W        W15660  34.941  39.433  14.882
45780W        W15661  33.398   0.801  14.475
45781W        W15662  27.968   9.818   3.849
45782W        W15663  18.629  13.170   2.245
45783W        W15664   0.313  20.031   0.839
45784W        W15665  11.679  28.456  10.918
45785W        W15666  30.027  36.949  12.997
45786W        W15667  14.142   7.899   2.276
45787W        W15668  11.333  34.021  13.880
45788W        W15669   3.948  11.836   4.351
45789W        W15670  42.872  29.097   3.322
45790W        W15671  19.253  41.887  14.284
45791W        W15672  27.029  43.298   2.876
45792W        W15673  34.389  43.289  14.315
45793W        W15674   1.967  29.991  14.284
45794W        W15675  21.119   3.389   1.909
45795W        W15676  35.506  13.607  13.883
45796W        W15677  11.775  29.036  12.466
45797W        W15678  32.119   4.386  12.008
45798W        W15679  30.960  41.414  14.862
45799W        W15680  29.569  40.987  14.392
45800W        W15681  37.505  15.769  11.382
45801W        W15682  34.554  36.508   4.333
45802W        W15683   7.407  12.188  12.356
45803W        W15684   2.336  44.920   3.820
45804W        W15685  22.624  13.346  11.908
45805W        W15686   5.916  29.566  14.300
45806W        W15687  40.848  27.577   2.858
45807W        W15688   9.885  11.711  13.793
45808W        W15689  11.336  30.965   5.620
45809W        W15690  17.273  13.707   2.827
45810W        W15691  38.338  35.009  12.068
45811W        W15692  26.522   4.834   3.185
45812W        W15693  36.588  33.577   0.739
45813W        W15694   9.380  41.488   5.126
45814W        W15695   4.277  21.066   0.319
45815W        W15696  11.832   5.833  12.558
45816W        W15697  39.922  34.022   4.307
45817W        W15698  30.951  40.945   0.734
45818W        W15699  34.897  17.787   4.343
45819W        W15700  20.186  29.572  10.958
45820W        W15701  19.167   8.714   0.854
45821W        W15702  27.449  33.452   1.828
45822W        W15703   9.155  41.954  13.007
45823W        W15704   8.768  37.530  14.310
45824W        W15705  19.575  36.019   1.743
45825W        W15706  18.121  38.906  10.608
45826W        W15707  16.591  20.169  13.793
45827W        W15708  10.660  27.181   3.296
45828W        W15709   8.762  32.130  11.886
45829W        W15710  33.052  22.621   3.293
45830W        W15711  14.694  26.688   4.187
45831W        W15712   0.436  43.977   3.837
45832W        W15713  40.878  14.276  11.932
45833W        W15714  26.614  12.769   0.355
45834W        W15715  31.639  39.466  11.943
45835W        W15716   4.910  14.158   0.450
45836W        W15717  26.207  18.599   0.371
45837W        W15718  29.128  33.607  12.834
45838W        W15719  40.852  38.062   2.293
45839W        W15720  15.762   8.223   2.756
45840W        W15721  40.496  31.958  13.881
45841W        W15722  14.286   3.349  11.536
45842W        W15723  32.078  18.609  13.925
45843W        W15724  41.310  30.054   2.375
45844W        W15725  34.056   0.381  11.883
45845W        W15726  29.117  10.846  14.375
45846W        W15727  43.872  32.070   0.842
45847W        W15728  19.623   2.925  11.607
45848W        W15729  33.096   5.865   4.802
45849W        W15730  44.964  22.727  12.072
45850W        W15731  29.616  23.637  11.048
45851W        W15732  38.374  21.085   4.215
45852W        W15733  39.404  28.581   3.224
45853W        W15734  34.097  32.940  12.830
45854W        W15735   8.356  21.232   4.730
45855W        W15736  23.513   4.734   3.386
45856W        W15737  36.537  39.011   5.293
45857W        W15738  24.679  27.136   1.763
45858W        W15739  38.014   5.386   4.708
45859W        W15740  18.249  10.285  13.396
45860W        W15741  11.773  30.055   5.105
45861W        W15742  36.478  25.965   1.378
45862W        W15743   2.312  24.587   4.142
45863W        W15744  16.720  23.985  12.392
45864W        W15745  44.884  33.539   1.408
45865W        W15746  21.117   6.190   2.782
45866W        W15747  40.409   0.964   2.685
45867W        W15748  27.046  12.274   0.293
45868W        W15749  40.838  38.822   3.802
45869W        W15750  35.987  38.041  11.572
45870W        W15751  25.104  14.298   1.717
45871W        W15752   7.791  40.368   2.812
45872W        W15753  12.154  26.460  14.964
45873W        W15754  15.711   2.361  14.511
45874W        W15755  19.196  10.730   3.192
45875W        W15756  15.328  15.648  12.523
45876W        W15757   8.378  42.283  13.350
45877W        W15758  36.501  11.693  10.468
45878W        W15759  41.844  23.027  13.003
45879W        W15760  25.073  30.648   3.287
45880W        W15761  22.549  10.716   3.862
45881W        W15762   1.909  16.604  12.903
45882W        W15763   0.297  44.352   1.382
45883W        W15764  33.540  25.111   0.484
45884W        W15765  38.493   0.467  11.091
45885W        W15766  13.614  13.282   0.273
45886W        W15767  30.475  17.696  10.057
45887W        W15768  15.304   7.677   4.808
45888W        W15769   9.880  44.396  12.567
45889W        W15770  21.163  12.649  11.956
45890W        W15771  42.335  36.373  13.494
45891W        W15772  17.722  44.476  11.050
45892W        W15773   9.278  24.080   4.224
45893W        W15774  24.146  44.956  14.874
45894W        W15775  28.076   4.921  13.829
45895W        W15776  30.450  28.606   0.387
45896W        W15777  30.064  35.060  13.843
45897W        W15778  13.794  15.631  13.988
45898W        W15779  38.891  42.492   3.666
45899W        W15780  32.112  22.248  12.376
45900W        W15781  19.706   3.823   4.621
45901W        W15782  30.914  11.791  14.433
45902W        W15783  32.997   9.843  11.907
45903W        W15784  21.624  16.282   3.855
45904W        W15785  31.076  20.539  14.886
45905W        W15786  28.156   5.249  14.886
45906W        W15787  24.211  10.709  14.427
45907W        W15788  33.423  15.137   4.715
45908W        W15789   6.809  11.668  11.539
45909W        W15790   6.327   2.839   1.787
45910W        W15791  23.652  29.001  13.799
45911W        W15792   0.767  38.887   4.214
45912W        W15793  26.683  43.356  13.947
45913W        W15794  44.951  36.511   3.670
45914W        W15795  29.108  24.716   0.890
45915W        W15796  24.124   4.265  13.022
45916W        W15797  38.356  28.073  11.029
45917W        W15798  20.192  38.379  12.558
45918W        W15799  24.560  34.479   0.849
45919W        W15800  15.635  22.023   3.153
45920W        W15801  18.623  26.188  10.952
45921W        W15802  19.100  18.103  12.961
45922W        W15803  32.054   5.194   3.181
45923W        W15804  21.563  43.890  11.522
45924W        W15805  21.648  16.269   4.605
45925W        W15806  13.645  19.673   4.307
45926W        W15807  35.020  12.631  12.466
45927W        W15808   3.806  12.335   2.772
45928W        W15809  20.136  14.814   3.678
45929W        W15810  10.672  10.645   1.854
45930W        W15811  13.333  40.873  12.990
45931W        W15812   0.772   8.172   4.354
45932W        W15813  12.278   6.278   0.854
45933W        W15814  21.192  36.084  14.871
45934W        W15815  12.750  35.588   2.889
45935W        W15816  40.829  33.522   2.676
45936W        W15817  36.855  40.343  11.459
45937W        W15818   6.296  21.580  11.972
45938W        W15819  13.751  23.572   3.685
45939W        W15820  26.145   3.753  10.900
45940W        W15821  18.749   8.775  14.937
45941W        W15822  15.195  43.020  12.964
45942W        W15823  41.372  29.640   3.707
45943W        W15824  19.224  34.556  12.993
45944W        W15825   5.204  22.696   3.805
45945W        W15826  10.275  40.910   1.395
45946W        W15827   8.398  39.525   2.388
45947W        W15828   4.286  20.653   4.738
45948W        W15829  44.397  31.616   4.697
45949W        W15830  37.437  24.504  14.955
45950W        W15831  40.363  25.168  14.779
45951W        W15832  24.230  34.451  12.344
45952W        W15833  22.641  36.092   1.425
45953W        W15834  20.587  41.988  14.856
45954W        W15835  44.336  10.262   4.624
45955W        W15836  16.207  19.238   1.776
45956W        W15837  23.676  40.441  14.492
45957W        W15838  37.843   4.761  11.980
45958W        W15839  16.226  42.458  11.441
45959W        W15840  36.572  35.429  12.066
45960W        W15841  34.116  19.057  10.630
45961W        W15842  11.645   4.869   2.198
45962W        W15843  40.304  32.983   4.629
45963W        W15844  44.287  16.194  11.878
45964W        W15845  20.605  30.073   3.193
45965W        W15846  20.176  32.060  11.987
45966W        W15847   4.894  25.969  12.023
45967W        W15848   1.858  17.657   1.827
45968W        W15849  35.986  19.572  13.919
45969W        W15850  30.486  37.838   1.363
45970W        W15851   0.348  20.649  10.917
45971W        W15852   4.360  23.052   0.917
45972W        W15853  37.390  37.578  13.323
45973W        W15854  41.522  34.559  10.637
45974W        W15855  38.471  22.606  12.411
45975W        W15856  25.622  33.008  13.470
45976W        W15857  31.126   1.350  12.545
45977W        W15858  31.644  15.323  12.481
45978W        W15859  10.746  28.484  11.522
45979W        W15860  18.132  17.231   0.796
45980W        W15861  40.439  11.786  12.847
45981W        W15862  33.417   2.797  12.553
45982W        W15863  30.521  22.585  12.356
45983W        W15864  21.171   1.884  11.420
45984W        W15865  39.062  43.344   2.314
45985W        W15866   4.285  29.983   4.650
45986W        W15867  24.087  17.732  11.561
45987W        W15868  10.280  27.509  12.398
45988W        W15869  37.528  15.317   3.219
45989W        W15870  29.510   9.823   3.340
45990W        W15871  21.741  41.361  11.546
45991W        W15872  40.880  35.487   4.335
45992W        W15873   1.370  14.673  11.901
45993W        W15874  25.699  27.081  14.917
45994W        W15875   3.860  19.655   2.760
45995W        W15876  31.063   3.427   4.154
45996W        W15877   1.813   3.265  10.981
45997W        W15878  11.293   1.291   0.433
45998W        W15879  14.298  27.179   5.206
45999W        W15880  35.904   0.838  12.075
46000W        W15881   9.805  29.506  11.091
46001W        W15882  16.658   0.920  11.582
46002W        W15883  40.953  41.864   0.886
46003W        W15884  15.648  24.227  10.513
46004W        W15885  35.073  23.009  11.110
46005W        W15886   3.789   8.187   3.214
46006W        W15887  19.229  29.566  14.022
46007W        W15888   5.405   5.438   4.260
46008W        W15889  41.956  40.005  12.942
46009W        W15890   6.783  18.719  13.872
46010W        W15891  15.796  15.759   0.769
46011W        W15892  20.660   3.924   3.193
46012W        W15893  21.249  27.079  12.469
46013W        W15894   7.302  22.737  13.929
46014W        W15895  19.223  24.720  13.346
46015W        W15896  15.612  26.503   3.374
46016W        W15897   9.293  41.001   3.801
46017W        W15898  25.090  34.577   4.722
46018W        W15899  10.204  24.168   3.266
46019W        W15900  34.395  28.450  13.063
46020W        W15901  19.258  43.867   4.129
46021W        W15902  42.415  43.911   1.227
46022W        W15903  17.200  29.027  12.047
46023W        W15904  18.246  24.139   3.781
46024W        W15905  17.719  28.542   4.162
46025W        W15906  32.963  43.464  14.892
46026W        W15907  21.706  28.083  10.496
46027W        W15908   1.865  12.153  14.894
46028W        W15909   7.294  28.939   2.805
46029W        W15910  24.582  11.133  10.493
46030W        W15911  18.562  14.312  12.552
46031W        W15912  10.753  21.146   0.729
46032W        W15913  21.669   3.915   2.372
46033W        W15914   3.303  19.561   0.443
46034W        W15915  35.853  33.552  11.969
46035W        W15916  30.961   8.246  12.912
46036W        W15917  44.268  30.136   4.796
46037W        W15918  43.767  42.480  11.110
46038W        W15919   3.837  26.986   3.764
46039W        W15920  39.047  12.782   1.254
46040W        W15921  35.468  44.304  13.405
46041W        W15922  22.096  32.963  13.378
46042W        W15923  10.694  32.082   0.887
46043W        W15924  21.518  20.086  13.450
46044W        W15925  23.182  14.242  13.927
46045W        W15926   2.779  29.126   3.172
46046W        W15927  16.108  37.892  12.867
46047W        W15928  20.237  29.652   4.283
46048W        W15929  24.640  13.210   3.159
46049W        W15930  42.286  33.919  12.400
46050W        W15931  42.915  21.712   3.667
46051W        W15932   3.434  29.621  10.907
46052W        W15933  33.470  27.446  14.285
46053W        W15934  44.871  41.920   3.668
46054W        W15935  38.564  27.521   4.675
46055W        W15936  16.778   5.232   0.455
46056W        W15937  21.210  27.138   4.136
46057W        W15938  31.937  34.583  11.907
46058W        W15939   5.336  41.479   0.449
46059W        W15940  30.038  11.280   3.639
46060W        W15941   4.238  27.494   4.754
46061W        W15942  27.074  38.497  11.922
46062W        W15943  25.176   0.779   2.682
46063W        W15944  44.393  37.964   0.391
46064W        W15945  43.416   7.864  13.934
46065W        W15946  32.040   9.279   1.765
46066W        W15947  36.532  35.940   0.278
46067W        W15948  19.602  17.668  13.978
46068W        W15949  34.959  11.828  13.062
46069W        W15950  40.917  39.826   4.208
46070W        W15951   3.901  35.449  12.578
46071W        W15952   0.771  22.205   1.929
46072W        W15953  37.469  27.034   0.269
46073W        W15954   8.675  19.698  12.981
46074W        W15955  17.744  23.995   1.809
46075W        W15956   3.910   5.844  13.056
46076W        W15957  34.871   9.247  10.627
46077W        W15958  16.799  35.033   1.341
46078W        W15959  12.755  31.440   1.702
46079W        W15960   0.440  23.163   2.754
46080W        W15961  19.229  18.063  14.000
46081W        W15962  44.831  14.313  14.916
46082W        W15963  20.557  10.169   0.436
46083W        W15964  13.659  36.903  11.441
46084W        W15965  28.109   6.225  10.630
46085W        W15966  44.475  22.231   0.307
46086W        W15967   4.772   0.786  12.565
46087W        W15968  12.249  38.951  11.547
46088W        W15969   9.748  44.283  11.886
46089W        W15970  14.664   6.373   0.902
46090W        W15971  25.021   6.338  11.500
46091W        W15972  15.640  21.244  14.790
46092W        W15973  38.391  40.935   0.314
46093W        W15974  26.038  40.898   1.746
46094W        W15975   4.721  42.977   0.838
46095W        W15976   8.309  38.050   0.457
46096W        W15977   0.345  37.459  10.997
46097W        W15978   6.378  42.777  12.519
46098W        W15979   8.377   1.345  12.976
46099W        W15980   3.452  36.382  11.882
46100W        W15981  32.120  10.706  11.039
46101W        W15982  17.574  11.714   1.220
46102W        W15983  27.998  13.132  11.061
46103W        W15984  28.550  15.754  12.921
46104W        W15985  31.985  12.774  13.375
46105W        W15986   3.238  36.081  10.055
46106W        W15987  22.736  32.609  12.928
46107W        W15988  15.792  15.286  11.859
46108W        W15989   6.408  38.884   2.853
46109W        W15990  21.063  34.946  14.829
46110W        W15991  11.639  27.605  11.581
46111W        W15992   3.733  13.734  10.991
46112W        W15993  32.418  17.764  14.827
46113W        W15994  35.917  23.594   3.354
46114W        W15995  21.165   3.902  14.510
46115W        W15996  38.911  25.575  12.897
46116W        W15997  23.520  29.047  12.075
46117W        W15998  23.204   2.805  12.491
46118W        W15999  19.097  23.547   3.705
46119W        W16000  32.594  15.755   2.859
46120W        W16001  11.749  43.503  12.954
46121W        W16002  11.692  39.978   5.265
46122W        W16003  38.075  31.053   1.927
46123W        W16004  39.332  29.429   2.773
46124W        W16005   8.312   0.875  11.899
46125W        W16006  34.942  28.958   3.200
46126W        W16007   9.855   2.842  12.021
46127W        W16008  37.403  36.082  14.953
46128W        W16009   0.879  27.493  13.862
46129W        W16010   4.433   8.852  10.444
46130W        W16011  29.540  19.710   2.281
46131W        W16012  40.955  30.592   4.145
46132W        W16013  10.236  28.110   0.836
46133W        W16014  44.778   0.283  11.575
46134W        W16015  29.998  24.586   4.339
46135W        W16016   7.267   7.679   2.891
46136W        W16017  42.454  41.973  14.305
46137W        W16018   2.740   2.921  11.105
46138W        W16019   4.219  34.439   2.182
46139W        W16020  11.732  42.903  14.952
46140W        W16021  29.449  23.723  13.313
46141W        W16022  25.588  34.902   1.764
46142W        W16023  31.906  27.620   3.752
46143W        W16024  44.839  41.825  11.444
46144W        W16025  39.813  38.363  13.993
46145W        W16026  30.009  28.027  13.973
46146W        W16027  27.080  37.853   0.286
46147W        W16028  24.710   9.228   4.267
46148W        W16029  26.971  18.691   0.779
46149W        W16030  24.626  15.328   2.864
46150W        W16031   6.327  24.157   4.754
46151W        W16032  23.173  22.571  13.318
46152W        W16033  18.578   0.822   2.196
46153W        W16034   7.897   5.255  13.845
46154W        W16035  19.743  37.502  14.404
46155W        W16036   1.871  23.052   3.190
46156W        W16037  20.159  34.392   1.233
46157W        W16038  39.528  19.574   2.729
46158W        W16039  20.608  19.567  13.429
46159W        W16040  11.174  29.596  11.934
46160W        W16041  32.121  34.071  11.581
46161W        W16042   7.683  37.938   1.395
46162W        W16043   4.435   3.276  10.428
46163W        W16044  22.737  14.126   0.883
46164W        W16045  40.937  27.617   2.240
46165W        W16046  38.854  15.250  14.798
46166W        W16047  24.079  32.033   3.743
46167W        W16048  31.577  38.368  11.882
46168W        W16049  39.447  15.661   2.324
46169W        W16050   6.739  26.601   3.790
46170W        W16051  43.410  42.357  10.409
46171W        W16052  38.839  19.071  11.115
46172W        W16053   5.274  26.972  11.474
46173W        W16054  23.508  28.485  13.829
46174W        W16055  28.140  34.608   0.447
46175W        W16056   4.806  16.099   3.342
46176W        W16057  34.102   7.203   2.204
46177W        W16058  31.629   4.900   3.826
46178W        W16059   4.747   3.952  12.080
46179W        W16060  16.599  38.934   0.811
46180W        W16061  26.564   1.264  11.007
46181W        W16062  17.097  17.250  12.511
46182W        W16063  11.137  20.633   3.871
46183W        W16064  23.513  12.349   4.621
46184W        W16065  20.600   9.388  11.428
46185W        W16066   5.341  44.862  13.820
46186W        W16067  29.464  23.052   0.799
46187W        W16068  40.006   4.308  14.980
46188W        W16069  23.084  37.386  13.324
46189W        W16070   9.169  23.646  13.531
46190W        W16071  21.253   2.864  10.486
46191W        W16072  27.573  43.950   1.263
46192W        W16073  25.501  20.701   4.678
46193W        W16074  30.534  21.248  14.780
46194W        W16075   5.901  43.821   1.245
46195W        W16076  35.024  38.473  12.874
46196W        W16077  43.405  23.136  12.497
46197W        W16078  42.987   0.371  12.858
46198W        W16079   5.387   1.378  13.419
46199W        W16080  21.519   9.725   0.323
46200W        W16081  43.915  21.244  12.393
46201W        W16082  19.123  16.803  11.380
46202W        W16083   8.213  19.609   1.362
46203W        W16084  17.571  16.092  14.984
46204W        W16085   8.709  12.144   0.901
46205W        W16086  32.627  37.490  13.939
46206W        W16087  35.020  11.348   1.768
46207W        W16088  34.472  34.461   1.442
46208W        W16089  23.075   1.466   0.272
46209W        W16090  27.157  35.075  13.311
46210W        W16091  32.518  29.135  11.461
46211W        W16092  34.395   1.339  14.897
46212W        W16093   3.404  39.460   1.767
46213W        W16094   1.426  37.537   4.602
46214W        W16095  39.824   8.723  13.827
46215W        W16096  19.123  14.210   0.339
46216W        W16097   8.220   5.381  13.984
46217W        W16098  20.244   5.332  11.976
46218W        W16099  44.456   5.306   3.662
46219W        W16100  39.919  37.370  12.495
46220W        W16101  13.151  29.984  13.871
46221W        W16102  43.426   6.780   0.326
46222W        W16103  13.311   6.789  10.503
46223W        W16104  33.608  17.564   2.349
46224W        W16105  44.009  32.002   0.441
46225W        W16106  12.338  16.729  13.964
46226W        W16107  29.546  27.062   4.749
46227W        W16108  35.026  28.054   2.785
46228W        W16109   1.922  25.689  11.563
46229W        W16110  10.797  30.070  14.299
46230W        W16111   3.861  35.092   3.806
46231W        W16112   0.479  17.708   0.882
46232W        W16113  24.220  16.795   2.400
46233W        W16114  27.083  29.497  13.885
46234W        W16115  11.292  17.575   0.273
46235W        W16116  40.403  22.231   1.448
46236W        W16117  12.640  10.290  13.911
46237W        W16118  11.686  26.596   0.912
46238W        W16119   7.205  15.712   2.803
46239W        W16120   8.221  28.437   0.322
46240W        W16121  24.160  17.121  13.003
46241W        W16122  11.161  10.638  14.468
46242W        W16123  19.699  25.484   5.262
46243W        W16124  35.381  31.587  12.391
46244W        W16125  26.017  18.122   0.474
46245W        W16126   2.371  44.322   1.802
46246W        W16127  27.188  15.178  11.384
46247W        W16128  30.550  40.499  13.548
46248W        W16129  36.098   0.322  10.533
46249W        W16130  27.458  43.408   1.933
46250W        W16131   1.481  21.734   2.816
46251W        W16132  15.315  31.543   3.701
46252W        W16133  24.597  32.587   0.329
46253W        W16134  37.872  32.118  13.995
46254W        W16135  44.890   4.309   2.395
46255W        W16136   1.771   5.430  11.957
46256W        W16137  27.046  32.143   4.716
46257W        W16138  39.974   7.844   0.428
46258W        W16139   7.748  15.215   2.747
46259W        W16140  39.345  22.697  11.419
46260W        W16141  21.202  16.257   1.708
46261W        W16142  30.081  36.973   3.683
46262W        W16143  43.393  26.108   4.350
46263W        W16144  20.236   0.926  10.535
46264W        W16145  14.785  42.459   0.257
46265W        W16146  17.732  28.072  12.487
46266W        W16147   5.415  34.903  10.956
46267W        W16148   4.747  31.540  11.512
46268W        W16149  32.617  21.213   1.826
46269W        W16150  14.705  21.514   2.240
46270W        W16151  10.707   8.244  10.926
46271W        W16152  19.099   4.209   1.826
46272W        W16153  30.534  10.213  11.107
46273W        W16154  43.818  31.416   0.846
46274W        W16155   7.260  44.778   4.617
46275W        W16156  11.208  38.401  11.877
46276W        W16157   4.936  38.977   1.314
46277W        W16158  43.461  42.358   3.683
46278W        W16159  40.457   0.753   1.291
46279W        W16160  29.046  32.454   0.408
46280W        W16161   0.369  40.913   2.812
46281W        W16162  43.449  44.895   1.346
46282W        W16163   4.751  36.525   1.366
46283W        W16164  24.526  29.109   0.413
46284W        W16165   7.855  11.235  10.587
46285W        W16166   3.408  31.105  12.949
46286W        W16167  31.119  28.609   0.271
46287W        W16168  30.951  24.583   4.657
46288W        W16169  24.042  40.920  13.442
46289W        W16170  25.140  39.861  14.803
46290W        W16171  36.524  14.267   5.118
46291W        W16172   5.352  12.170   0.312
46292W        W16173  36.406  10.708  12.031
46293W        W16174  28.009  36.942   4.605
46294W        W16175  27.632  11.212  12.964
46295W        W16176  42.939  23.560  11.088
46296W        W16177  12.246  35.601  12.343
46297W        W16178  21.112   5.704   1.796
46298W        W16179   0.765  35.952   1.763
46299W        W16180  16.282  17.088  13.503
46300W        W16181   4.850  29.432   5.261
46301W        W16182  32.921  13.602   1.874
46302W        W16183  14.722  30.604   1.744
46303W        W16184  20.052  35.999  14.351
46304W        W16185  41.334   8.710  13.425
46305W        W16186  15.299  30.459  13.977
46306W        W16187  41.415  14.218   2.784
46307W        W16188  27.077  42.391  14.365
46308W        W16189  16.114  36.435   0.253
46309W        W16190  20.158   6.725   2.324
46310W        W16191  23.207   7.864  13.315
46311W        W16192  20.248  34.439  14.311
46312W        W16193  41.388   3.455   5.143
46313W        W16194  29.942   1.372   0.887
46314W        W16195  41.787  42.907   0.466
46315W        W16196   1.918  25.707   2.341
46316W        W16197  29.428  38.063  12.990
46317W        W16198   5.782   8.394  13.913
46318W        W16199   0.977  42.361   0.482
46319W        W16200  29.547   5.878  10.418
46320W        W16201   2.872  36.384   0.820
46321W        W16202   9.204   1.951  11.963
46322W        W16203   9.695  25.963   0.867
46323W        W16204  17.668  43.435   1.776
46324W        W16205  13.198  29.121   4.665
46325W        W16206  31.503   2.962  10.422
46326W        W16207  36.027  28.591   0.743
46327W        W16208  25.527  14.291  14.954
46328W        W16209   2.912  21.713  14.976
46329W        W16210   1.766  28.644  13.354
46330W        W16211  27.652  27.940  11.027
46331W        W16212  18.281  41.020  11.555
46332W        W16213  14.193  43.797   2.246
46333W        W16214  10.669   1.381  10.428
46334W        W16215   2.922   0.422   3.172
46335W        W16216  25.090  41.024  13.316
46336W        W16217  31.569  26.022  12.462
46337W        W16218  25.581  43.868   3.869
46338W        W16219  34.081  28.635   0.926
46339W        W16220  19.143  12.237   4.119
46340W        W16221  32.470  33.613   4.837
46341W        W16222  24.708  27.046  10.965
46342W        W16223  10.382   1.810   4.123
46343W        W16224  42.973  24.014  13.419
46344W        W16225  36.866  36.365   0.387
46345W        W16226  14.824   5.771  12.906
46346W        W16227  16.307  18.072  12.977
46347W        W16228  22.681  30.468   0.445
46348W        W16229  19.132   5.912   2.350
46349W        W16230  35.078   9.265  14.429
46350W        W16231  44.946  19.251   3.778
46351W        W16232  17.565  32.585   0.964
46352W        W16233   9.753   6.886   0.364
46353W        W16234  19.181  10.301   2.664
46354W        W16235  29.517  32.481  13.992
46355W        W16236  36.947  26.541  13.915
46356W        W16237  17.120  31.644  13.359
46357W        W16238  42.479  19.149  13.987
46358W        W16239  23.716  40.925   2.395
46359W        W16240  24.578  27.585  13.009
46360W        W16241  32.516  21.063  10.467
46361W        W16242  13.816   5.347  11.938
46362W        W16243  16.682   3.830  11.419
46363W        W16244  10.752  41.826  11.451
46364W        W16245  30.519  32.139   1.896
46365W        W16246  23.608  28.164   2.821
46366W        W16247  30.495  27.622   4.222
46367W        W16248  32.570  35.920  10.940
46368W        W16249  29.542   6.367  12.383
46369W        W16250  17.768   8.229  12.422
46370W        W16251  32.969   1.961   3.662
46371W        W16252  20.573   8.675   4.293
46372W        W16253  11.321  31.925   0.359
46373W        W16254  32.543  24.220  12.091
46374W        W16255  44.961  19.113   0.767
46375W        W16256   7.715  17.185  13.909
46376W        W16257   7.238  38.482   2.300
46377W        W16258  34.069  21.645   4.651
46378W        W16259   3.442  29.451  12.486
46379W        W16260  42.817  21.114   4.160
46380W        W16261  44.423  31.442   1.932
46381W        W16262   3.238   3.273   3.222
46382W        W16263  34.971  34.379  11.490
46383W        W16264  38.024  41.399  13.803
46384W        W16265   1.241   4.706   2.665
46385W        W16266   3.860   8.694  14.822
46386W        W16267  42.030   2.737   2.283
46387W        W16268  43.973  41.993  13.981
46388W        W16269   9.322  10.866  14.473
46389W        W16270  18.678  19.541  13.443
46390W        W16271   9.747   6.853  14.501
46391W        W16272  17.767  39.003  10.509
46392W        W16273  15.749   2.358   3.705
46393W        W16274  34.118  30.134  13.413
46394W        W16275  24.718  22.042  10.567
46395W        W16276   2.237  32.479  12.847
46396W        W16277  25.705  22.621   3.269
46397W        W16278  17.598  42.904   4.343
46398W        W16279  35.033  30.557   2.718
46399W        W16280  37.929  13.751  13.461
46400W        W16281  15.270  22.136  12.848
46401W        W16282  32.057   1.748   3.795
46402W        W16283  12.171  30.079   2.667
46403W        W16284  36.094   6.831   3.753
46404W        W16285  29.145  14.270   4.729
46405W        W16286  24.634   6.217  11.488
46406W        W16287  40.383  43.933  11.604
46407W        W16288  20.638  17.622   4.183
46408W        W16289  35.549   3.925  11.075
46409W        W16290  33.402   9.193   2.881
46410W        W16291  21.056  22.664  12.096
46411W        W16292  28.546  35.373   2.376
46412W        W16293  15.655  21.619  14.414
46413W        W16294  29.953  23.696   2.219
46414W        W16295  10.181   1.779  14.440
46415W        W16296  19.727   4.840  10.417
46416W        W16297  16.281  40.039  11.929
46417W        W16298  13.198  30.555  14.964
46418W        W16299  15.700  21.036  11.554
46419W        W16300  32.040  28.535  13.467
46420W        W16301  43.363   8.838   1.293
46421W        W16302   7.728  37.075   2.741
46422W        W16303  27.172   0.480  14.837
46423W        W16304  15.195  27.582  14.949
46424W        W16305  30.088   7.848   0.735
46425W        W16306  26.208  44.443  11.525
46426W        W16307  17.777  32.002   1.713
46427W        W16308   0.892  27.122   4.672
46428W        W16309  20.076  40.926  13.827
46429W        W16310  14.776  24.192   1.258
46430W        W16311  22.587  26.113   3.856
46431W        W16312  37.378  29.432  11.070
46432W        W16313  39.927  13.262  14.507
46433W        W16314  38.828   0.314  14.013
46434W        W16315  29.939  17.636   3.355
46435W        W16316  29.059  12.751   4.705
46436W        W16317  26.992  23.119  12.412
46437W        W16318  30.034   7.906   3.693
46438W        W16319   4.936  34.888   2.774
46439W        W16320  15.713   9.717   0.418
46440W        W16321  10.819  41.919   1.896
46441W        W16322   8.664  31.562   3.708
46442W        W16323  18.160  39.505  10.462
46443W        W16324  31.413   1.787  10.920
46444W        W16325  44.961  18.132   0.268
46445W        W16326   1.279  13.176  14.021
46446W        W16327  27.618  14.739   3.264
46447W        W16328   5.204  23.091  10.896
46448W        W16329   3.300  14.794  12.483
46449W        W16330  39.519   0.969  14.916
46450W        W16331   7.235   8.403  12.092
46451W        W16332  25.486  43.489  10.903
46452W        W16333  29.482  22.608  13.801
46453W        W16334  25.480  42.496   0.957
46454W        W16335  33.593  43.515   2.409
46455W        W16336  31.148  38.885   4.291
46456W        W16337  30.944  16.077  14.964
46457W        W16338   6.683  29.080  13.489
46458W        W16339  22.717  42.939   2.855
46459W        W16340  32.944  24.210  14.793
46460W        W16341  24.107  15.672  14.865
46461W        W16342   6.852  29.170   4.294
46462W        W16343  42.358   5.810   2.900
46463W        W16344   5.820  14.803   2.776
46464W        W16345  31.460   1.454   2.358
46465W        W16346  40.980  40.920   2.687
46466W        W16347  11.253  39.386  14.877
46467W        W16348  23.694  15.162  11.509
46468W        W16349  41.507  26.618   1.876
46469W        W16350  19.667  19.121   2.364
46470W        W16351  22.155  10.762  14.512
46471W        W16352   0.956  12.621  10.143
46472W        W16353  10.661  36.935  10.490
46473W        W16354  10.696  32.575   2.323
46474W        W16355  32.908   8.241   0.481
46475W        W16356  41.905   7.900  13.834
46476W        W16357  41.504  21.166  13.317
46477W        W16358  43.295  17.708  12.073
46478W        W16359   0.776  42.463  11.015
46479W        W16360   3.867   8.666  13.915
46480W        W16361  40.053  30.957   1.229
46481W        W16362   7.344  41.436   1.743
46482W        W16363  42.949  12.155  14.444
46483W        W16364   0.447   9.737  13.014
46484W        W16365   2.277  18.255  12.930
46485W        W16366  20.078  44.361   0.853
46486W        W16367  43.936  39.860  12.447
46487W        W16368  14.749   3.226   4.707
46488W        W16369   4.425  16.128   0.244
46489W        W16370  31.057   6.715   3.789
46490W        W16371   2.864  21.630   0.810
46491W        W16372  36.388  33.039  10.505
46492W        W16373   4.880   4.216  14.771
46493W        W16374   8.757  44.275  11.497
46494W        W16375  39.942  18.053   0.876
46495W        W16376  43.957  37.575   4.306
46496W        W16377   4.834   4.912  10.027
46497W        W16378  32.052  15.648  11.078
46498W        W16379   4.830  32.015   3.691
46499W        W16380  29.498  34.523   2.876
46500W        W16381  34.380  34.111   1.817
46501W        W16382  40.385  16.759   3.301
46502W        W16383  11.659   7.282   3.341
46503W        W16384  21.530   2.826   4.641
46504W        W16385  23.083  37.968   0.752
46505W        W16386  35.467  37.459  14.292
46506W        W16387   5.344   7.408  14.019
46507W        W16388  33.415   3.861  11.396
46508W        W16389  28.462  38.839  11.003
46509W        W16390  26.188  33.941  14.833
46510W        W16391  10.836   2.927   0.843
46511W        W16392  23.217  21.082  13.861
46512W        W16393  40.316   1.788   2.868
46513W        W16394  42.405  29.103   3.729
46514W        W16395   7.334   3.767   2.828
46515W        W16396   5.708  38.462  13.918
46516W        W16397   4.363  33.438  14.308
46517W        W16398  16.205  33.984  12.973
46518W        W16399  42.943  18.104   2.292
46519W        W16400  10.298  44.296   5.282
46520W        W16401  37.871   8.857  12.861
46521W        W16402  24.035  14.096   4.181
46522W        W16403  14.820  33.399   4.740
46523W        W16404  17.213  12.241   3.369
46524W        W16405  37.874  30.494   3.702
46525W        W16406   3.233  39.012  14.882
46526W        W16407  41.462  43.850  12.379
46527W        W16408  28.606  11.635   0.936
46528W        W16409  39.333  29.557  14.995
46529W        W16410  38.914  20.113   1.217
46530W        W16411   2.749   7.231   0.898
46531W        W16412   9.783  43.389   1.853
46532W        W16413   9.349  22.601   2.727
46533W        W16414   5.733  39.987  11.042
46534W        W16415  40.026   9.690  12.383
46535W        W16416  26.058  13.625   4.793
46536W        W16417  27.054  19.617   4.176
46537W        W16418  32.105  23.490  11.105
46538W        W16419  35.386  41.009   4.746
46539W        W16420  25.096   7.859  11.097
46540W        W16421  16.167  43.307   1.807
46541W        W16422  34.604  27.640   4.616
46542W        W16423  34.381   4.396  11.466
46543W        W16424   6.751   7.680   1.867
46544W        W16425  22.679  16.288   1.363
46545W        W16426   9.241   8.259  14.432
46546W        W16427   3.333  41.954   2.377
46547W        W16428  27.112  17.797   1.407
46548W        W16429  38.360  37.578  13.459
46549W        W16430   7.716  18.771  12.928
46550W        W16431  41.298  22.007  10.408
46551W        W16432   2.720   2.254  11.054
46552W        W16433  36.047   1.341   3.211
46553W        W16434  29.938  30.648  13.443
46554W        W16435  40.993  44.796  10.522
46555W        W16436  21.186  38.510   2.309
46556W        W16437   8.243   6.197  14.915
46557W        W16438   6.709  16.613  12.533
46558W        W16439   7.285   2.954   4.794
46559W        W16440  10.655  22.153   2.197
46560W        W16441  37.394  11.310   3.236
46561W        W16442  28.679  22.502  12.443
46562W        W16443  28.618  21.632  10.624
46563W        W16444  36.525  31.927  12.908
46564W        W16445  14.594   8.303  11.579
46565W        W16446  37.366  23.579   0.750
46566W        W16447   3.249  40.496   3.301
46567W        W16448  11.676  13.787  13.864
46568W        W16449  28.987   8.844  11.570
46569W        W16450   6.799  33.942  11.879
46570W        W16451   8.387  43.020  10.026
46571W        W16452  11.141  15.712  11.429
46572W        W16453  42.843  32.608  13.838
46573W        W16454   1.855  19.651   2.779
46574W        W16455  20.150  44.375   4.768
46575W        W16456   1.867  22.025   0.385
46576W        W16457   7.789  39.324  13.894
46577W        W16458  14.616  40.825   0.859
46578W        W16459  30.995  31.406  14.419
46579W        W16460   1.390  22.652   4.653
46580W        W16461  19.161  38.004   3.664
46581W        W16462   3.296  35.891   3.746
46582W        W16463   1.749  28.667   3.238
46583W        W16464  28.992  26.034  12.097
46584W        W16465  29.583  23.585  14.347
46585W        W16466  11.238  29.513   3.659
46586W        W16467  42.031  29.156  14.506
46587W        W16468  38.399  27.024  12.438
46588W        W16469   1.816  39.059   4.349
46589W        W16470   1.752   7.249  11.566
46590W        W16471  27.988  13.177   4.730
46591W        W16472  16.647   6.775  12.372
46592W        W16473   0.341   9.164   3.278
46593W        W16474   4.933  44.337   3.870
46594W        W16475  28.603  44.775  12.358
46595W        W16476  23.159  31.074   1.893
46596W        W16477  28.650  18.679  12.538
46597W        W16478   8.878  44.945   1.775
46598W        W16479  21.090   1.255  10.632
46599W        W16480  33.072  32.124   1.216
46600W        W16481  29.980   4.801  14.369
46601W        W16482  36.974  31.574  10.634
46602W        W16483  28.959  24.113  14.365
46603W        W16484  14.101  27.516   2.832
46604W        W16485   5.927   1.320   3.644
46605W        W16486  15.686  34.398  12.053
46606W        W16487   6.380  43.434   3.197
46607W        W16488  39.539  31.138  12.524
46608W        W16489   7.691  39.471  14.444
46609W        W16490  39.495   4.873   0.794
46610W        W16491  18.118  21.063  10.445
46611W        W16492   3.340  42.490   2.814
46612W        W16493   9.696  35.013  14.396
46613W        W16494  25.710  20.699   1.850
46614W        W16495  15.784  28.655   3.326
46615W        W16496  12.204  19.276  11.022
46616W        W16497  23.204  32.142   0.924
46617W        W16498  43.361  31.976  10.102
46618W        W16499  14.729  26.637   2.754
46619W        W16500  11.212  38.007   4.768
46620W        W16501  42.431  42.969   4.630
46621W        W16502  35.957  26.636  14.335
46622W        W16503  42.442  11.273  14.508
46623W        W16504  18.077  14.718  10.595
46624W        W16505  35.406  32.030   1.818
46625W        W16506   9.810   8.197  11.422
46626W        W16507  42.376  41.967   0.921
46627W        W16508  10.151  24.609  13.985
46628W        W16509  24.524  39.942   2.185
46629W        W16510   2.962  37.050   3.835
46630W        W16511  32.590  29.176   1.434
46631W        W16512   6.853   7.808   0.945
46632W        W16513   7.399  12.836   1.862
46633W        W16514  30.989  10.639  13.997
46634W        W16515  37.060  18.119   3.844
46635W        W16516  18.748  41.351  14.279
46636W        W16517  10.862  12.615  14.406
46637W        W16518  35.057  29.545   0.890
46638W        W16519   7.861  14.308   2.375
46639W        W16520  11.822  41.043  14.410
46640W        W16521  36.436  34.047  12.009
46641W        W16522  35.491  44.267   1.450
46642W        W16523  22.588   8.236  12.849
46643W        W16524  16.076  10.379  14.326
46644W        W16525   7.785  40.495   1.711
46645W        W16526   2.883   0.381  12.962
46646W        W16527  18.051  29.570  14.299
46647W        W16528  22.528  36.439   0.771
46648W        W16529   2.800  33.111  12.984
46649W        W16530  26.486   8.268   5.203
46650W        W16531   0.417  28.017  10.909
46651W        W16532   6.342   2.370   1.809
46652W        W16533  15.191  37.942  14.803
46653W        W16534   0.408  27.526  14.362
46654W        W16535  41.343  11.780  13.909
46655W        W16536  30.007  11.302   2.383
46656W        W16537   2.906  33.080  10.516
46657W        W16538  31.424  24.494  11.597
46658W        W16539  34.536   7.255  14.941
46659W        W16540  32.139  37.527   2.825
46660W        W16541  19.650  20.237   0.325
46661W        W16542  12.728  31.928   0.422
46662W        W16543   4.938  18.753  14.936
46663W        W16544  26.517  44.975   2.179
46664W        W16545   6.829  18.645  14.955
46665W        W16546  20.107  25.539  13.844
46666W        W16547   8.182  13.701   4.283
46667W        W16548  18.629  14.106  11.017
46668W        W16549  39.351   6.745  10.954
46669W        W16550  23.630  31.576  13.896
46670W        W16551   3.460  34.885  11.427
46671W        W16552  16.148  21.632   2.815
46672W        W16553  34.996  24.698  10.601
46673W        W16554  13.836  28.498   4.326
46674W        W16555  27.463   8.325  11.120
46675W        W16556  11.250   8.805  11.474
46676W        W16557   2.338  15.767  12.391
46677W        W16558  22.603  19.246  11.082
46678W        W16559  30.595  35.397   4.265
46679W        W16560   4.297  36.985  12.930
46680W        W16561  31.574  29.517  11.573
46681W        W16562  44.434  23.713   4.634
46682W        W16563  11.769   3.411  10.624
46683W        W16564  37.954   3.776   4.155
46684W        W16565   7.756   0.956  14.892
46685W        W16566  15.721   0.798   4.770
46686W        W16567  14.823  33.546   3.324
46687W        W16568   4.882  13.224   4.800
46688W        W16569  41.959  12.312  13.861
46689W        W16570  29.061  29.923   1.759
46690W        W16571  20.601   6.708  13.024
46691W        W16572  24.479  23.122   4.763
46692W        W16573   2.752  38.442  10.524
46693W        W16574  11.150   4.862   2.266
46694W        W16575  17.565  14.833   2.888
46695W        W16576   0.484   5.722  11.599
46696W        W16577   4.425  12.813   2.247
46697W        W16578  24.635  17.610   3.847
46698W        W16579   5.796  38.981   4.166
46699W        W16580  21.610  30.485  14.294
46700W        W16581  19.722  15.236  14.330
46701W        W16582  40.312  23.119   3.712
46702W        W16583  20.738  18.593   1.877
46703W        W16584  17.225  31.621  11.946
46704W        W16585  18.262  25.558   0.857
46705W        W16586  28.553  24.622   2.223
46706W        W16587   8.707   9.855  14.822
46707W        W16588  27.613  25.979  13.809
46708W        W16589  35.590  27.475   1.816
46709W        W16590  13.793  39.437  13.046
46710W        W16591  32.068  10.632  11.380
46711W        W16592  31.929  36.372  14.939
46712W        W16593   4.337  24.499   4.146
46713W        W16594  35.957  15.731  14.283
46714W        W16595   1.389  13.794  12.444
46715W        W16596  25.510   4.265   0.899
46716W        W16597   4.400  43.820  10.562
46717W        W16598   2.876  41.799  13.803
46718W        W16599  23.047  10.650  13.347
46719W        W16600   2.888  35.511   1.874
46720W        W16601  30.455  24.208  12.868
46721W        W16602  11.358  34.577   0.484
46722W        W16603  13.808  41.302   0.903
46723W        W16604   3.726   7.751  11.869
46724W        W16605  23.025  20.576   2.666
46725W        W16606  36.350   3.816   3.721
46726W        W16607  15.329  23.092   4.200
46727W        W16608   7.336   1.434   3.233
46728W        W16609  22.569  28.500   2.207
46729W        W16610  27.098  19.703   1.740
46730W        W16611   7.197  13.133  11.992
46731W        W16612  29.584  26.566   2.733
46732W        W16613  27.196  10.277   0.786
46733W        W16614  32.122   3.944  13.892
46734W        W16615  19.154  21.226   0.799
46735W        W16616   9.801  16.797   0.907
46736W        W16617  28.124  42.360  12.378
46737W        W16618  34.572   2.452  13.893
46738W        W16619  44.931  39.498  11.380
46739W        W16620  38.006  42.838  14.013
46740W        W16621  29.665  27.985  13.452
46741W        W16622  44.284  25.698  14.905
46742W        W16623  15.086  14.646  14.973
46743W        W16624  22.683  31.125  11.480
46744W        W16625  27.020  16.802  13.358
46745W        W16626   8.841  36.910   3.238
46746W        W16627  34.440  15.174   3.688
46747W        W16628  24.043   9.211   1.308
46748W        W16629  22.211  13.758   1.395
46749W        W16630  11.837   3.423  12.955
46750W        W16631  12.124  24.567  12.052
46751W        W16632  37.344  22.153   1.798
46752W        W16633  25.494  40.963  10.899
46753W        W16634  37.566  23.647   2.192
46754W        W16635   3.884  12.780   1.797
46755W        W16636  38.341  14.595   2.377
46756W        W16637  29.574   3.855   4.804
46757W        W16638  16.258  18.094   5.195
46758W        W16639  35.395   4.385  12.429
46759W        W16640  32.522  22.239   2.739
46760W        W16641  18.240  30.004  14.281
46761W        W16642   6.218   6.677   0.891
46762W        W16643  21.086  24.187   3.383
46763W        W16644  14.098   4.930  13.036
46764W        W16645  42.995  31.433   0.378
46765W        W16646  38.403  21.585   4.685
46766W        W16647   9.739   6.217   4.144
46767W        W16648  30.036   9.390   0.930
46768W        W16649   8.357  35.381  10.451
46769W        W16650  11.781  44.262   1.872
46770W        W16651   5.402  13.112  12.999
46771W        W16652   9.285  42.440   0.272
46772W        W16653  12.803   2.891   2.861
46773W        W16654   6.355  21.666  12.924
46774W        W16655  22.684  22.211  13.457
46775W        W16656  27.676  38.986  11.925
46776W        W16657  33.608  22.635  14.922
46777W        W16658  25.647   6.811   3.234
46778W        W16659  13.314   3.423   1.263
46779W        W16660  27.686  10.781   2.799
46780W        W16661  44.010   0.761   3.356
46781W        W16662  26.617  38.456  12.344
46782W        W16663  16.243  28.024   1.873
46783W        W16664   7.887  25.112  13.997
46784W        W16665  12.669   0.849   0.820
46785W        W16666  22.236   5.864  11.512
46786W        W16667  10.844  11.862   1.292
46787W        W16668  44.316   1.768   4.733
46788W        W16669  11.635  31.616   0.960
46789W        W16670  16.571  43.979   0.790
46790W        W16671  27.534  11.204   0.750
46791W        W16672  26.955  30.973  12.826
46792W        W16673  15.152   1.422  13.809
46793W        W16674  28.936  30.552  10.927
46794W        W16675  24.637  23.736  11.990
46795W        W16676  39.051   2.802  10.070
46796W        W16677  15.145  32.062  13.866
46797W        W16678  13.819  25.545   3.308
46798W        W16679  12.689  38.936   4.202
46799W        W16680  39.417  24.591   3.632
46800W        W16681  15.217  36.479   1.789
46801W        W16682  34.454   5.240   1.413
46802W        W16683   6.826  19.195   4.717
46803W        W16684  42.345  17.284  11.402
46804W        W16685  39.363  14.596   3.853
46805W        W16686   8.857  28.633  13.938
46806W        W16687  11.702  28.067   1.699
46807W        W16688  24.711  10.190   4.200
46808W        W16689  11.860  18.555  14.989
46809W        W16690  35.365   1.788  10.548
46810W        W16691  24.019  30.973   4.340
46811W        W16692  13.638  28.967  11.455
46812W        W16693  44.919  38.011  14.917
46813W        W16694  22.213  21.103  11.517
46814W        W16695  34.932  10.804  13.456
46815W        W16696  16.804  21.104   3.790
46816W        W16697  22.589  40.840   2.219
46817W        W16698  23.663   7.176  11.049
46818W        W16699  28.554   2.351  13.894
46819W        W16700  12.636  32.510   1.875
46820W        W16701  41.948  40.486   0.892
46821W        W16702  17.791  43.500   3.331
46822W        W16703  24.188  39.930  14.402
46823W        W16704  15.652  31.950  10.636
46824W        W16705  15.085  27.966   2.288
46825W        W16706  36.528  14.209  10.155
46826W        W16707  34.010  15.256  12.054
46827W        W16708  27.111  22.177  14.368
46828W        W16709  28.940  25.702  14.988
46829W        W16710  21.248  38.831  14.454
46830W        W16711  27.636  38.341  11.537
46831W        W16712  41.292  43.307   1.871
46832W        W16713  28.475   1.354  12.991
46833W        W16714  16.315  32.056  11.913
46834W        W16715  10.357  24.172  13.458
46835W        W16716  42.420  23.220   1.754
46836W        W16717  23.070  14.145   3.353
46837W        W16718   2.295  29.459  12.977
46838W        W16719  18.726  15.294   0.362
46839W        W16720  10.705  44.305  11.450
46840W        W16721  16.101  21.261   4.232
46841W        W16722  24.200  35.863   3.717
46842W        W16723  41.481  26.984  11.573
46843W        W16724  10.335  36.494   1.308
46844W        W16725  41.410  20.637  10.961
46845W        W16726  36.981  13.610  13.942
46846W        W16727  24.106   4.707  13.886
46847W        W16728  16.755  26.591   2.762
46848W        W16729  44.351   8.388  10.627
46849W        W16730   6.679  14.267  11.378
46850W        W16731   8.892  17.626  13.019
46851W        W16732  16.174  19.620   0.322
46852W        W16733  13.835   3.875  13.010
46853W        W16734  37.539  39.336  12.453
46854W        W16735   5.736  17.119  12.078
46855W        W16736  27.603   5.420  10.544
46856W        W16737  35.464  17.149  13.029
46857W        W16738  10.860  15.819  13.493
46858W        W16739  31.062  26.623   1.327
46859W        W16740   3.364  35.508  12.034
46860W        W16741  30.126  20.061   3.240
46861W        W16742   5.870  36.060   3.277
46862W        W16743  17.071   3.373   2.691
46863W        W16744  33.015  16.745  13.518
46864W        W16745  26.695  21.216   3.835
46865W        W16746  43.503   5.811  10.548
46866W        W16747   7.203  10.150  13.019
46867W        W16748  27.635  25.211   1.247
46868W        W16749  10.271  27.661   2.238
46869W        W16750   8.299  31.939  13.796
46870W        W16751  13.736  19.725   3.846
46871W        W16752  28.535  21.589  14.855
46872W        W16753  41.030  41.974  10.941
46873W        W16754  35.457  26.989   2.334
46874W        W16755  20.230   8.265   3.779
46875W        W16756  25.508  32.543   1.872
46876W        W16757  29.115  39.906  11.473
46877W        W16758  31.982  23.704   3.361
46878W        W16759  34.018  33.519  13.815
46879W        W16760  42.009   5.370   4.735
46880W        W16761  20.245  16.679  13.356
46881W        W16762  26.496   4.299   0.751
46882W        W16763  28.630  18.718   1.914
46883W        W16764  13.625  39.404  13.919
46884W        W16765   1.252  20.158  14.804
46885W        W16766  25.137  38.932   0.860
46886W        W16767  37.557  15.738  10.990
46887W        W16768   6.363  26.071   4.712
46888W        W16769  31.472   7.205  10.094
46889W        W16770  14.308  27.957  14.286
46890W        W16771  14.716  40.469  12.577
46891W        W16772  13.224  44.273   1.807
46892W        W16773  34.934   1.340  13.415
46893W        W16774  39.850  35.008   4.153
46894W        W16775  12.255  25.548   4.183
46895W        W16776  21.581  12.642  12.425
46896W        W16777  10.652  29.106   5.155
46897W        W16778  19.714  18.057   4.823
46898W        W16779   7.366  40.047   2.730
46899W        W16780  37.464  16.615  10.536
46900W        W16781  22.690  15.589   3.221
46901W        W16782  16.150  12.848   0.365
46902W        W16783   3.457  43.869   3.763
46903W        W16784  18.712   4.438   4.276
46904W        W16785   5.274   4.944   3.727
46905W        W16786  41.804   8.181  11.084
46906W        W16787  37.842   1.384  12.884
46907W        W16788  38.425  25.072   1.730
46908W        W16789  18.160  39.944   1.244
46909W        W16790  27.596   1.318   4.317
46910W        W16791   3.822  32.084   9.948
46911W        W16792  23.667   2.753   3.753
46912W        W16793  23.522  24.651   1.397
46913W        W16794  43.290   4.707   1.351
46914W        W16795   9.251  35.595   0.762
46915W        W16796  32.412  23.040  13.350
46916W        W16797   9.226  30.035  13.540
46917W        W16798   1.857  12.334  12.514
46918W        W16799  38.908  25.567  14.987
46919W        W16800  12.304   0.850   1.286
46920W        W16801  10.785  13.185   2.741
46921W        W16802  21.222  20.075   4.241
46922W        W16803  33.404   1.926   2.341
46923W        W16804  20.062   3.341   4.118
46924W        W16805  26.153   6.803  13.947
46925W        W16806  33.968  31.959   0.310
46926W        W16807   5.848  35.544   1.260
46927W        W16808  36.565  29.002  11.424
46928W        W16809  17.760   6.871  13.310
46929W        W16810  34.067   5.241  13.315
46930W        W16811  39.850  37.022  11.906
46931W        W16812  43.932   5.341  13.997
46932W        W16813  34.411  37.027   4.741
46933W        W16814  16.641  19.746   2.219
46934W        W16815  21.529   7.674  14.894
46935W        W16816  27.451   4.365   0.838
46936W        W16817  26.539   5.751  10.458
46937W        W16818  24.671  20.762   4.131
46938W        W16819   7.331  28.947  12.989
46939W        W16820   5.728  13.638  13.459
46940W        W16821   1.373  24.652   2.838
46941W        W16822   1.894   8.216   4.143
46942W        W16823  28.979  27.109  10.453
46943W        W16824  43.476  10.234   1.720
46944W        W16825  29.166  20.086  13.961
46945W        W16826  36.396  35.359  11.049
46946W        W16827   2.301  12.808   1.788
46947W        W16828  24.083   9.152  12.433
46948W        W16829  35.102  38.024   3.315
46949W        W16830  24.639  38.355   2.348
46950W        W16831  32.577  33.499  10.468
46951W        W16832  24.211   4.871  11.587
46952W        W16833  30.463   9.157  13.492
46953W        W16834  11.159  13.796   1.695
46954W        W16835  21.115  39.002  12.405
46955W        W16836  37.957  34.370  14.508
46956W        W16837  11.819   8.275   4.259
46957W        W16838  16.605  33.087  14.845
46958W        W16839  20.113  13.351  10.426
46959W        W16840  15.803   1.423  12.938
46960W        W16841   5.350  44.982  13.458
46961W        W16842  11.744  27.999   1.263
46962W        W16843   9.758  44.869  12.843
46963W        W16844  18.216  20.553  10.970
46964W        W16845  27.481  39.972  12.359
46965W        W16846  40.352   1.778  14.474
46966W        W16847  42.415   3.853   4.227
46967W        W16848   7.668  29.581  12.949
46968W        W16849  34.895   9.700  11.874
46969W        W16850  39.883  42.932  14.361
46970W        W16851   6.400  17.622  11.998
46971W        W16852  23.192   4.334   1.771
46972W        W16853  18.657  23.155   0.838
46973W        W16854  26.157   6.327  14.443
46974W        W16855  35.440  21.735  11.498
46975W        W16856   7.778  26.583  12.879
46976W        W16857   6.310  19.552  10.158
46977W        W16858  43.775  11.646   0.310
46978W        W16859  35.889  26.576   4.702
46979W        W16860  19.561   6.769  13.450
46980W        W16861   5.407  24.582  12.536
46981W        W16862  20.165  34.379  12.047
46982W        W16863  28.506   1.940   4.737
46983W        W16864  43.011   0.329  10.600
46984W        W16865   5.709   4.309   3.805
46985W        W16866  19.040  17.605  14.369
46986W        W16867  31.038  11.744   4.194
46987W        W16868  34.880  25.140  10.634
46988W        W16869  13.323  13.326   4.602
46989W        W16870  20.566   7.370   4.114
46990W        W16871   7.327  41.440  10.993
46991W        W16872  30.614  41.935   2.723
46992W        W16873   0.253  41.389   2.380
46993W        W16874  40.345   5.871  11.994
46994W        W16875  13.746  41.006  11.560
46995W        W16876  40.489  13.141  10.421
46996W        W16877  19.069  20.211  12.884
46997W        W16878  36.965  44.259  11.984
46998W        W16879  43.997  26.593   4.210
46999W        W16880   4.345  38.937   4.235
47000W        W16881   9.192  12.783   4.193
47001W        W16882  11.329  13.145   3.182
47002W        W16883  40.920  14.195   4.151
47003W        W16884   3.891   5.409  11.547
47004W        W16885  33.455  11.262   3.210
47005W        W16886  41.339  41.968  11.450
47006W        W16887  26.700  19.602   9.966
47007W        W16888   3.385  41.451  13.045
47008W        W16889   7.856  41.516   5.101
47009W        W16890   8.768   2.856   4.269
47010W        W16891  27.581  29.028   4.752
47011W        W16892  23.039  40.878   0.271
47012W        W16893  21.173  10.809   0.286
47013W        W16894  27.473  12.241  12.517
47014W        W16895  23.063  15.292   0.247
47015W        W16896  31.083  43.287  10.487
47016W        W16897  33.982  14.616   0.791
47017W        W16898  16.607  40.921   1.430
47018W        W16899  36.475  16.702  12.927
47019W        W16900  16.630  32.103  12.512
47020W        W16901  24.154  21.151   0.940
47021W        W16902   0.378  29.125   3.381
47022W        W16903  43.481   0.914   3.778
47023W        W16904   6.835  37.504  12.532
47024W        W16905  43.338  13.231   0.421
47025W        W16906  24.988  41.313  11.436
47026W        W16907  23.110  23.716  12.900
47027W        W16908  22.162  12.845  13.432
47028W        W16909  12.201  44.375   3.639
47029W        W16910   3.239  30.653  10.526
47030W        W16911  15.316  14.266  13.899
47031W        W16912  41.529  16.284   4.819
47032W        W16913  12.688   3.784   3.294
47033W        W16914  39.447  17.230   2.883
47034W        W16915  26.696  26.672   2.210
47035W        W16916  21.530  31.545   0.265
47036W        W16917  22.156  22.145   1.421
47037W        W16918   1.439  21.116   0.964
47038W        W16919   3.898  24.708   1.764
47039W        W16920  30.913   4.431   2.858
47040W        W16921  24.565   9.252   3.752
47041W        W16922  28.093  17.652   0.246
47042W        W16923   8.686  41.007   1.398
47043W        W16924  43.866  23.657   0.756
47044W        W16925  15.171  18.186   2.299
47045W        W16926  19.714  36.541  12.073
47046W        W16927  29.983  31.408  14.958
47047W        W16928  17.640   8.330  14.938
47048W        W16929  26.986  31.436   4.743
47049W        W16930  43.928  40.321  11.606
47050W        W16931   2.896  25.504  14.025
47051W        W16932  40.918  36.403  10.967
47052W        W16933  27.173  19.629  10.435
47053W        W16934   5.372  38.020  10.920
47054W        W16935  35.042  42.847   0.260
47055W        W16936  32.554  23.500   1.448
47056W        W16937   0.452  23.636   1.352
47057W        W16938   7.717  13.170   0.454
47058W        W16939   0.297   2.917   3.720
47059W        W16940  19.106  32.437   2.855
47060W        W16941  13.736  23.579   0.421
47061W        W16942  23.098   0.844  11.908
47062W        W16943  42.023  41.498  12.471
47063W        W16944  16.796  23.099  11.896
47064W        W16945  36.436   6.333   4.150
47065W        W16946  44.414  20.523  12.554
47066W        W16947  10.259  21.650   4.764
47067W        W16948   8.794   8.407  12.003
47068W        W16949  28.975  30.603   5.300
47069W        W16950  12.815  36.918  13.321
47070W        W16951  14.617  38.988  12.036
47071W        W16952  31.544   5.202  10.467
47072W        W16953   9.177  38.457  14.992
47073W        W16954   9.733   1.949  13.348
47074W        W16955  22.114  43.448   4.126
47075W        W16956  14.154  12.804   2.673
47076W        W16957  25.993  24.013   2.312
47077W        W16958  26.500  25.635   4.699
47078W        W16959  23.582  14.335  11.121
47079W        W16960  14.748  32.505   0.951
47080W        W16961  32.516   0.982   4.156
47081W        W16962  39.515  38.349   4.347
47082W        W16963  17.249  41.938   4.601
47083W        W16964   3.332  36.583  10.441
47084W        W16965  43.873  12.205  14.378
47085W        W16966  42.477  18.705   4.130
47086W        W16967  11.187  16.169  12.525
47087W        W16968  25.056  38.893   1.765
47088W        W16969  39.048  32.529   3.320
47089W        W16970  11.278   5.346  11.519
47090W        W16971  13.276  35.450   1.269
47091W        W16972  10.184  34.453   9.987
47092W        W16973   4.345   6.707  13.967
47093W        W16974   1.376  26.618  11.862
47094W        W16975  13.829   7.279   2.887
47095W        W16976   0.367  30.974   4.629
47096W        W16977  43.918  15.602   0.850
47097W        W16978  41.529   0.958   1.303
47098W        W16979  41.499  41.898   2.249
47099W        W16980  35.880  14.263   3.184
47100W        W16981   5.328  28.149  11.509
47101W        W16982   6.880  41.398   3.671
47102W        W16983   6.397  18.097   4.334
47103W        W16984   4.879  10.325  11.039
47104W        W16985  36.563  38.356   4.275
47105W        W16986  39.021  24.504  12.561
47106W        W16987  36.882  40.427   4.286
47107W        W16988  38.482  27.672   0.731
47108W        W16989   7.308   7.717   1.835
47109W        W16990   9.317  20.687  11.060
47110W        W16991  37.037  44.356   5.669
47111W        W16992   2.253  25.670  14.340
47112W        W16993  44.858  37.440   0.416
47113W        W16994  44.326   6.286  10.608
47114W        W16995  21.604   7.278  13.049
47115W        W16996   0.281  17.266  13.970
47116W        W16997  14.737  39.834  11.014
47117W        W16998  43.367  33.067   3.226
47118W        W16999   9.390   0.293   4.323
47119W        W17000  38.409  28.642  11.508
47120W        W17001  24.227  19.536   4.153
47121W        W17002  18.227  42.888  11.570
47122W        W17003  36.512  31.989  11.489
47123W        W17004  36.080   4.773   4.131
47124W        W17005  15.807  20.185  14.796
47125W        W17006  34.424  19.063  13.981
47126W        W17007  35.595   2.268  12.079
47127W        W17008   2.848  31.925  11.108
47128W        W17009  18.562  38.331  10.615
47129W        W17010  18.624  29.168   4.241
47130W        W17011  17.086  15.741   2.340
47131W        W17012   4.745  15.144   3.651
47132W        W17013  17.144  42.436  11.512
47133W        W17014  23.162  29.517  14.803
47134W        W17015   5.693   8.853   1.423
47135W        W17016   1.435  44.474   0.471
47136W        W17017   8.777  41.350   1.425
47137W        W17018   5.847  15.688  14.025
47138W        W17019  15.627  11.844   4.239
47139W        W17020  43.796  39.334  14.839
47140W        W17021  19.567  19.085   4.331
47141W        W17022   9.159  21.614   3.649
47142W        W17023  24.143   0.368  13.866
47143W        W17024  20.269   4.366  14.401
47144W        W17025  35.510  40.447   4.663
47145W        W17026   8.789  34.586   3.695
47146W        W17027  11.183  35.467   0.338
47147W        W17028  14.787   0.297   3.229
47148W        W17029  20.179  42.807  11.004
47149W        W17030  42.800  14.617   1.311
47150W        W17031  31.021  13.831   3.788
47151W        W17032   5.231  31.974  14.910
47152W        W17033  42.503  10.852  13.420
47153W        W17034  27.003  35.482   3.194
47154W        W17035  18.217  10.789   0.280
47155W        W17036  14.111  40.406   0.300
47156W        W17037  16.601  42.986  11.495
47157W        W17038  38.841   7.777  14.999
47158W        W17039  25.676  22.106   0.770
47159W        W17040  36.861  14.237   3.745
47160W        W17041  17.592  43.347  10.999
47161W        W17042  24.687  23.146  14.324
47162W        W17043   3.401  40.477  12.971
47163W        W17044  32.037  37.551  12.357
47164W        W17045   1.289  35.519   2.675
47165W        W17046   5.217  30.008  12.858
47166W        W17047  16.214  27.544   4.645
47167W        W17048  24.500  23.081   3.246
47168W        W17049  44.880  39.360  10.957
47169W        W17050   1.351  26.572   1.287
47170W        W17051  11.636  33.451   1.803
47171W        W17052  25.166  44.393   2.323
47172W        W17053  35.877  17.595  14.948
47173W        W17054  41.345  11.715   2.865
47174W        W17055   6.846  26.570  11.542
47175W        W17056  23.166  39.471  11.062
47176W        W17057  21.242  25.088   4.191
47177W        W17058  11.363  31.447  14.855
47178W        W17059  29.655  18.260  11.942
47179W        W17060  36.471   0.846  12.574
47180W        W17061  21.610  43.764  14.964
47181W        W17062  44.452   6.314  11.549
47182W        W17063  24.561  41.493  14.427
47183W        W17064  34.999  16.143   4.181
47184W        W17065  21.549  39.853  12.903
47185W        W17066  24.493  19.730  14.494
47186W        W17067   9.394  33.424  12.988
47187W        W17068  15.229  27.191  13.002
47188W        W17069  35.568  14.589   2.214
47189W        W17070  34.874  16.118  11.389
47190W        W17071  10.244  31.945   0.249
47191W        W17072  26.572   0.985  13.395
47192W        W17073  28.085  23.189  12.050
47193W        W17074  22.686  32.445   2.736
47194W        W17075  15.687  39.487   0.250
47195W        W17076  20.149   4.738  10.116
47196W        W17077   0.478  31.907  13.475
47197W        W17078   7.196  27.966  13.917
47198W        W17079   0.867  21.233  13.496
47199W        W17080  26.605  40.025   0.455
47200W        W17081   4.422  36.952  14.933
47201W        W17082  25.580   6.396   3.148
47202W        W17083  39.396   3.218  12.484
47203W        W17084  43.805  35.595   3.821
47204W        W17085   8.272  34.483   3.733
47205W        W17086   6.342  12.785  13.999
47206W        W17087  10.692   4.788  14.877
47207W        W17088   6.302  31.966   2.361
47208W        W17089  17.763  36.450   3.720
47209W        W17090   6.220  16.748  11.889
47210W        W17091   8.357  42.943   3.241
47211W        W17092  11.346   7.261   2.830
47212W        W17093  42.029  18.278  11.481
47213W        W17094  42.936  20.640   1.303
47214W        W17095  36.090  40.540   4.321
47215W        W17096  39.872  11.725  11.921
47216W        W17097  12.674  33.426   0.819
47217W        W17098  12.120  34.037   0.912
47218W        W17099  25.207   7.256  12.352
47219W        W17100  23.622  15.093   0.802
47220W        W17101  12.665  26.158  13.042
47221W        W17102  12.226  42.381  13.800
47222W        W17103   4.753  42.819   2.709
47223W        W17104   8.304  34.580  13.865
47224W        W17105   6.889  43.009  14.786
47225W        W17106   9.154  19.190  14.949
47226W        W17107  43.323  39.951   4.159
47227W        W17108  10.737  44.351   3.666
47228W        W17109  12.308  44.914  11.959
47229W        W17110  39.390  33.936   3.298
47230W        W17111  40.461   2.418   0.289
47231W        W17112  39.815   3.742  13.915
47232W        W17113  28.990  29.581   3.180
47233W        W17114  10.160  15.299   5.124
47234W        W17115  35.912  22.684   1.876
47235W        W17116  34.912   6.870   0.853
47236W        W17117  22.602  19.673  11.858
47237W        W17118  44.269  11.741  13.527
47238W        W17119  11.802  34.926  12.880
47239W        W17120  31.970  25.535  13.521
47240W        W17121  28.089  33.535  12.547
47241W        W17122  38.415  10.715   2.330
47242W        W17123   0.282  38.389   4.292
47243W        W17124  35.045   6.912   0.319
47244W        W17125  17.644   7.286   3.295
47245W        W17126  29.050  37.561  14.971
47246W        W17127  25.023  25.022   3.775
47247W        W17128   5.223  24.991  13.520
47248W        W17129  37.347  40.947  13.390
47249W        W17130  12.662   1.970   1.349
47250W        W17131  22.047   7.180   4.278
47251W        W17132   1.272  26.617  11.511
47252W        W17133  34.601  35.969  10.630
47253W        W17134  33.006  22.659  14.309
47254W        W17135   0.304  43.770   0.299
47255W        W17136  14.331  43.367   0.768
47256W        W17137  44.274  10.716   2.202
47257W        W17138   3.812  14.299  14.803
47258W        W17139  42.472  38.438   2.185
47259W        W17140  33.011  11.342  11.010
47260W        W17141  16.688  36.437   1.296
47261W        W17142  35.445  13.336  10.623
47262W        W17143  19.135  18.686   4.264
47263W        W17144  32.539   8.814   1.279
47264W        W17145  38.514  37.018  13.534
47265W        W17146  24.220  29.459   3.199
47266W        W17147   5.885  39.975  10.544
47267W        W17148  35.587  25.580  13.413
47268W        W17149  25.692  30.595  12.490
47269W        W17150  33.558  24.710   2.257
47270W        W17151  29.137  33.615   1.875
47271W        W17152  41.498   7.900  11.871
47272W        W17153  39.454  22.071  13.521
47273W        W17154   8.351  20.189  10.526
47274W        W17155  21.523  36.592  10.892
47275W        W17156  21.682  38.950   3.267
47276W        W17157  39.475  33.527   1.417
47277W        W17158   1.279   0.248  13.464
47278W        W17159  32.481  35.051  10.437
47279W        W17160  41.358   8.291   2.774
47280W        W17161  40.805  32.500  10.578
47281W        W17162   9.736  36.449   2.846
47282W        W17163  24.487  27.646  10.999
47283W        W17164   7.398  40.396   2.254
47284W        W17165  41.401   0.458  12.356
47285W        W17166  14.675  40.846  14.841
47286W        W17167  13.618  36.564   3.717
47287W        W17168  15.604  15.307  14.807
47288W        W17169   9.247   1.735  10.998
47289W        W17170   9.809   9.769  14.025
47290W        W17171   8.796   3.401   2.838
47291W        W17172  17.650  15.117  11.013
47292W        W17173  25.547  33.605   1.264
47293W        W17174  34.411   0.908  12.000
47294W        W17175  39.349  12.142  13.414
47295W        W17176  31.568  32.556  11.534
47296W        W17177   6.235   7.253   2.277
47297W        W17178  34.030  23.052   2.288
47298W        W17179  20.611  17.584  13.319
47299W        W17180   7.330   5.835  13.339
47300W        W17181   2.367   4.937  10.414
47301W        W17182   6.299  10.789  10.128
47302W        W17183  16.794  41.873   4.752
47303W        W17184  26.060  36.555  12.461
47304W        W17185   8.827  24.085  10.994
47305W        W17186  18.546  38.468  13.458
47306W        W17187  18.786  33.099  12.893
47307W        W17188  34.053  16.158   3.148
47308W        W17189  27.123  14.721   2.729
47309W        W17190  10.352  18.771  12.021
47310W        W17191   9.185   8.356   2.894
47311W        W17192  14.811   0.300   4.341
47312W        W17193   9.657  11.659  13.531
47313W        W17194  34.444  25.566   1.350
47314W        W17195  42.029   8.178   4.220
47315W        W17196  25.104  32.905  13.315
47316W        W17197  12.240  22.553  13.405
47317W        W17198  24.150   8.236  14.992
47318W        W17199  17.109  20.138   3.772
47319W        W17200   9.887  10.740  12.472
47320W        W17201  42.292  14.158  14.412
47321W        W17202  38.903  42.860   1.919
47322W        W17203  28.578  20.769   0.815
47323W        W17204  23.100  14.108  11.386
47324W        W17205  35.062   7.909   2.838
47325W        W17206   9.736  21.630  12.548
47326W        W17207  21.083  32.925   0.816
47327W        W17208  16.695   4.834  13.523
47328W        W17209  23.140  30.422  14.935
47329W        W17210  27.990   3.429  10.609
47330W        W17211  31.969  19.056   1.707
47331W        W17212  43.958   5.862   2.292
47332W        W17213   5.220  28.982   0.340
47333W        W17214  16.223  22.185   2.354
47334W        W17215  17.575  16.243   1.305
47335W        W17216  19.607  44.805   2.349
47336W        W17217  25.546  33.063   2.329
47337W        W17218  23.199  39.454  14.993
47338W        W17219  25.069   8.222  14.956
47339W        W17220  35.852  28.141   0.816
47340W        W17221   1.341  28.139   2.328
47341W        W17222  42.354  33.593  11.002
47342W        W17223   5.712   2.369  13.337
47343W        W17224   7.677  12.198   2.850
47344W        W17225   2.327  21.583   1.289
47345W        W17226  28.618  31.944  12.954
47346W        W17227  38.498   7.683  10.479
47347W        W17228  30.083  10.804   2.269
47348W        W17229  35.012   7.280   3.148
47349W        W17230  39.487  36.987  14.827
47350W        W17231  14.221   9.725   1.323
47351W        W17232  32.896  44.858  10.937
47352W        W17233  42.337  34.928  13.886
47353W        W17234  25.046  28.531  14.027
47354W        W17235   3.848  35.876   2.250
47355W        W17236  22.222  23.050   2.195
47356W        W17237   6.842  40.532  12.432
47357W        W17238  35.014  32.620  13.798
47358W        W17239  43.356   2.735   0.834
47359W        W17240  18.730  14.753  10.540
47360W        W17241  39.499  25.591   0.287
47361W        W17242   0.810   1.926   2.180
47362W        W17243  39.896  31.926   3.833
47363W        W17244  42.308  23.002   3.369
47364W        W17245  16.121   2.242   3.186
47365W        W17246  30.986  18.708  11.422
47366W        W17247  12.281  34.522   3.313
47367W        W17248   9.644  42.819  14.828
47368W        W17249  29.072  39.863  12.542
47369W        W17250   5.248  27.596  12.411
47370W        W17251  21.600  39.837  10.510
47371W        W17252  34.905  26.036   0.888
47372W        W17253   5.867  16.270  14.877
47373W        W17254  32.527   2.354  13.914
47374W        W17255  39.848  42.377  11.878
47375W        W17256  27.183  16.193  12.001
47376W        W17257  21.582  13.340  12.461
47377W        W17258  25.995   3.867  12.991
47378W        W17259  29.920  15.193   0.940
47379W        W17260  26.040   9.790  13.924
47380W        W17261  14.267  26.635  11.554
47381W        W17262  14.339  10.830   4.224
47382W        W17263   5.923   8.674  13.475
47383W        W17264  14.708  32.900  11.493
47384W        W17265  38.897   5.231   1.288
47385W        W17266  27.453  16.185  14.293
47386W        W17267  26.463   9.823   5.272
47387W        W17268   7.229  42.501  12.825
47388W        W17269  11.186  34.047  10.470
47389W        W17270  34.040  26.644   4.747
47390W        W17271  16.733  30.525  10.520
47391W        W17272  32.998  33.402   3.256
47392W        W17273  14.649  16.727  14.364
47393W        W17274   4.729  32.531  13.452
47394W        W17275   4.811  38.972  13.806
47395W        W17276  30.505  44.007   1.771
47396W        W17277  11.693  41.334   3.215
47397W        W17278  30.937  41.881   3.721
47398W        W17279  13.669  39.820  14.904
47399W        W17280  30.091  24.209   1.896
47400W        W17281   8.877  42.934  12.510
47401W        W17282   1.855  16.597  10.549
47402W        W17283   2.470  39.894   2.674
47403W        W17284  17.624  23.591   0.963
47404W        W17285   8.875  25.611  11.911
47405W        W17286  38.509  11.644  11.089
47406W        W17287  28.469  40.833  13.019
47407W        W17288  37.974  12.144  11.612
47408W        W17289  16.699  25.080  13.368
47409W        W17290   0.333  38.494  11.595
47410W        W17291   7.332  29.118  13.537
47411W        W17292  42.464  30.053  11.092
47412W        W17293   0.315  31.154   4.150
47413W        W17294  25.504  13.819  13.861
47414W        W17295  34.954  35.979   4.307
47415W        W17296  33.876  23.087  11.875
47416W        W17297   9.650  11.787   4.744
47417W        W17298  32.016  26.171  10.640
47418W        W17299  41.443  17.283  12.357
47419W        W17300   8.162  25.997   4.133
47420W        W17301  25.034  41.432   3.798
47421W        W17302  17.277  35.886  11.385
47422W        W17303  38.481  14.166   2.794
47423W        W17304   8.380  13.111  13.813
47424W        W17305  11.290  40.505  10.508
47425W        W17306  44.991   9.876   4.339
47426W        W17307  13.199  29.942  12.890
47427W        W17308  27.471  40.493  11.039
47428W        W17309  16.660  31.614   3.272
47429W        W17310  24.513  24.522  11.496
47430W        W17311   7.193  14.103  12.533
47431W        W17312  17.562  26.966   1.342
47432W        W17313   5.701  15.248   0.446
47433W        W17314  20.763  43.456   2.693
47434W        W17315  35.477  29.666   3.207
47435W        W17316  23.033  23.534  10.949
47436W        W17317   9.752  25.619   2.810
47437W        W17318  30.031  20.649   3.363
47438W        W17319  10.330  20.100   0.794
47439W        W17320  25.657  12.137   2.738
47440W        W17321  28.471  12.158  10.904
47441W        W17322  41.017  15.087   4.632
47442W        W17323  42.370  27.080  10.408
47443W        W17324  18.632  43.962   1.852
47444W        W17325   1.876  38.883   1.443
47445W        W17326  18.081  16.583  13.436
47446W        W17327   0.979  34.573   4.760
47447W        W17328  33.892  16.630   0.760
47448W        W17329  24.604   0.263  12.923
47449W        W17330   1.927   1.782  11.086
47450W        W17331  14.311  37.045  14.414
47451W        W17332  34.431  38.061   1.792
47452W        W17333  25.193  34.443   2.323
47453W        W17334   3.242  34.525   3.353
47454W        W17335  44.392  10.380   1.923
47455W        W17336  33.043  42.369   4.289
47456W        W17337   5.315  22.602  11.901
47457W        W17338  38.450  22.713  14.870
47458W        W17339  32.409  30.024   1.900
47459W        W17340  25.018   7.763   1.302
47460W        W17341  10.770   7.354  12.939
47461W        W17342  26.978  11.286  13.882
47462W        W17343  19.130  11.180  11.983
47463W        W17344   5.361   4.390  10.473
47464W        W17345  25.218  43.330   1.227
47465W        W17346   4.884   8.281  11.511
47466W        W17347  17.673  23.217  14.400
47467W        W17348  23.985  23.621   1.866
47468W        W17349  23.084  21.638   4.812
47469W        W17350   8.789   2.810  14.474
47470W        W17351  34.116   3.430   1.739
47471W        W17352  36.027  27.448   1.438
47472W        W17353   8.252  29.472   2.669
47473W        W17354  10.872  25.601  10.528
47474W        W17355   7.853  14.688  14.922
47475W        W17356  25.546  18.693  14.879
47476W        W17357  19.764   2.397   4.301
47477W        W17358  42.896  11.304  11.523
47478W        W17359  29.469  15.281   1.803
47479W        W17360  42.934  32.107   4.784
47480W        W17361  31.495  28.551  13.939
47481W        W17362  37.438  33.029   2.222
47482W        W17363  44.987  40.974  11.096
47483W        W17364   6.258  23.683  13.427
47484W        W17365  19.275  38.832  11.378
47485W        W17366  20.123   4.856   0.423
47486W        W17367  13.658  21.588  10.952
47487W        W17368   8.262  42.993   2.279
47488W        W17369  12.747  22.609   4.747
47489W        W17370  29.982  19.221   0.461
47490W        W17371   7.231  12.708  10.926
47491W        W17372  31.515  11.327   1.862
47492W        W17373   1.242  30.141  10.474
47493W        W17374   7.210  18.736  10.927
47494W        W17375  26.071  31.467  12.484
47495W        W17376  26.588  10.231   3.787
47496W        W17377  13.652   9.795   1.771
47497W        W17378   9.261  37.451  13.040
47498W        W17379  44.880  24.024   2.863
47499W        W17380  27.449  16.687   4.161
47500W        W17381  35.044  20.269  12.375
47501W        W17382   2.884  28.991  12.368
47502W        W17383   9.831  12.736  13.038
47503W        W17384  12.672   4.354   3.719
47504W        W17385  10.643  10.194  10.028
47505W        W17386  12.256  16.635  10.992
47506W        W17387  21.194  32.634   4.673
47507W        W17388  20.654  29.101  13.802
47508W        W17389  41.799   7.266   0.348
47509W        W17390   3.301  12.676   2.759
47510W        W17391  36.506  23.612   3.633
47511W        W17392   7.259  11.206   0.243
47512W        W17393  42.349   4.758  13.395
47513W        W17394  35.064   1.460  14.349
47514W        W17395  23.734   5.799   1.223
47515W        W17396   6.909   1.869  12.009
47516W        W17397  39.996  18.677  12.568
47517W        W17398  14.327  22.603  13.906
47518W        W17399  24.210   6.234   4.821
47519W        W17400  17.289   9.212   3.340
47520W        W17401  29.632  42.449  12.480
47521W        W17402   9.243  26.613  12.411
47522W        W17403   3.308  31.083  10.448
47523W        W17404  37.499  40.489  10.591
47524W        W17405   1.975  12.825  13.833
47525W        W17406  21.723  10.377   0.750
47526W        W17407  15.630  43.464   4.732
47527W        W17408  14.272   5.279   2.784
47528W        W17409   0.940  17.786  14.806
47529W        W17410  35.380  29.950  11.926
47530W        W17411   7.796  16.151   1.258
47531W        W17412  22.113   6.729  12.401
47532W        W17413  23.631   8.896   2.899
47533W        W17414  44.952  27.945   2.887
47534W        W17415  31.151  34.020   3.858
47535W        W17416  13.828   4.729   4.205
47536W        W17417  36.426  15.292  12.004
47537W        W17418  42.984   7.281  14.457
47538W        W17419  26.122   9.689  14.359
47539W        W17420   9.778  39.519  14.431
47540W        W17421  31.563   5.794   0.340
47541W        W17422  18.777  23.635   1.702
47542W        W17423  23.601   0.887  11.902
47543W        W17424   1.300  30.444   0.964
47544W        W17425  26.156   9.271  14.850
47545W        W17426  42.344   3.215  11.888
47546W        W17427  34.427  34.552  14.871
47547W        W17428   7.408  34.971   3.804
47548W        W17429   2.236  33.593  11.992
47549W        W17430  36.492  15.635  10.103
47550W        W17431   7.707  10.852   1.269
47551W        W17432  14.683  13.244   3.748
47552W        W17433   5.688   8.255   1.448
47553W        W17434   1.750  35.443  13.019
47554W        W17435  43.991   5.872  12.365
47555W        W17436  28.098  11.307  12.416
47556W        W17437   9.250  30.648   3.199
47557W        W17438  43.352  24.181   1.779
47558W        W17439  26.649  19.127   2.883
47559W        W17440  23.595  17.603   4.179
47560W        W17441  31.101  14.138   4.828
47561W        W17442  20.582   1.356  11.870
47562W        W17443  16.158  29.601   2.259
47563W        W17444  40.537  28.450   3.797
47564W        W17445  43.334  24.031   3.337
47565W        W17446   9.716   2.771  12.922
47566W        W17447  31.033  44.340  14.296
47567W        W17448  14.294  10.680  11.860
47568W        W17449  29.955  44.816   4.625
47569W        W17450  16.298  38.343   0.908
47570W        W17451  40.927  25.086   1.837
47571W        W17452  11.243  14.665  11.493
47572W        W17453  33.053  14.778  11.571
47573W        W17454  25.182  40.848  11.502
47574W        W17455  10.724  29.968   4.223
47575W        W17456  15.284  27.139  14.364
47576W        W17457  40.488  40.459   0.865
47577W        W17458  14.268  23.000   0.934
47578W        W17459  36.352  35.588  10.510
47579W        W17460  38.861  43.512  13.354
47580W        W17461  25.098  38.478   0.345
47581W        W17462  19.211  44.782   1.228
47582W        W17463   8.183  26.671  11.897
47583W        W17464  42.502  25.040   0.457
47584W        W17465  34.570  35.367  13.056
47585W        W17466  20.205  38.829  10.452
47586W        W17467  41.489  29.493  11.390
47587W        W17468  43.441  14.706   0.948
47588W        W17469   6.264  29.459  14.275
47589W        W17470  18.578  33.001   2.798
47590W        W17471  37.416   4.415   3.722
47591W        W17472   1.407  30.630  10.982
47592W        W17473  35.982  30.959   3.191
47593W        W17474  18.083  42.383  11.982
47594W        W17475  13.110  38.991   0.967
47595W        W17476  43.789  14.674   1.783
47596W        W17477  23.086  25.171   1.436
47597W        W17478  13.601  17.135   4.139
47598W        W17479  42.987  17.788   1.254
47599W        W17480  21.112  22.107   3.714
47600W        W17481  33.110   9.687   3.717
47601W        W17482   0.302  10.264  12.939
47602W        W17483   9.176  31.569  14.440
47603W        W17484   9.198  40.527   2.900
47604W        W17485  22.087  19.045   3.733
47605W        W17486  33.033  13.624  13.034
47606W        W17487  42.351   5.838  14.506
47607W        W17488  20.181  39.982   0.393
47608W        W17489  36.993  39.812  10.989
47609W        W17490   5.282  14.777   3.789
47610W        W17491  37.875  30.045  11.001
47611W        W17492  21.752   3.437   4.722
47612W        W17493  17.214  40.337  13.840
47613W        W17494  28.930  27.596  11.384
47614W        W17495  40.942  34.888   3.246
47615W        W17496  22.039  33.533   4.833
47616W        W17497  14.206  12.676   1.761
47617W        W17498  35.891   9.855   0.433
47618W        W17499  30.620  34.990   3.782
47619W        W17500  28.573  33.577   2.818
47620W        W17501  13.117  21.024  12.952
47621W        W17502   3.787  40.484   1.777
47622W        W17503   6.742  25.016  10.890
47623W        W17504  14.602  30.651  10.966
47624W        W17505  19.146  36.857  10.973
47625W        W17506  26.149  32.057  13.373
47626W        W17507  36.548   0.890  14.985
47627W        W17508  20.560   8.233   2.349
47628W        W17509  28.485  28.492  13.026
47629W        W17510  22.708   2.430   0.456
47630W        W17511  27.505  27.149  13.807
47631W        W17512  44.498   1.739  14.008
47632W        W17513  11.660  42.799   2.751
47633W        W17514   2.884  24.001   3.843
47634W        W17515  38.057   4.395  14.885
47635W        W17516   4.308   9.317   0.274
47636W        W17517  38.342  18.718   4.133
47637W        W17518  19.545   3.890   0.391
47638W        W17519   0.420  12.759  14.437
47639W        W17520  21.032  15.311  10.958
47640W        W17521  25.058  43.912   1.879
47641W        W17522  30.619  31.015  12.565
47642W        W17523  31.079   3.425  13.791
47643W        W17524   1.915  35.999  11.474
47644W        W17525  37.047  22.099  14.429
47645W        W17526  16.705   6.873  13.057
47646W        W17527  38.006   3.278  13.352
47647W        W17528   4.698  29.478  13.887
47648W        W17529   6.862  29.657  12.068
47649W        W17530   3.754  17.146   4.701
47650W        W17531  18.790  10.203  14.494
47651W        W17532  34.412  32.470   2.865
47652W        W17533  35.562  20.672   0.818
47653W        W17534   6.388  29.569   0.915
47654W        W17535   4.437  33.959  14.959
47655W        W17536  10.274  26.657  10.504
47656W        W17537  44.356  41.454   4.631
47657W        W17538  26.022  15.274  12.859
47658W        W17539  35.960  27.622   4.204
47659W        W17540   4.760  35.461   3.342
47660W        W17541  10.203  44.831   1.919
47661W        W17542  29.149  38.376  11.386
47662W        W17543  38.854   4.720  14.467
47663W        W17544  33.419  17.108   1.350
47664W        W17545  43.979  37.969  12.347
47665W        W17546  35.895  26.471  13.483
47666W        W17547  17.622  44.915  11.389
47667W        W17548  31.543   5.296  11.414
47668W        W17549  42.470  39.404   1.930
47669W        W17550  41.349  11.191   2.258
47670W        W17551  15.321  17.704   4.298
47671W        W17552  21.591  24.101  14.782
47672W        W17553  19.221  39.398  12.093
47673W        W17554  11.803  22.702  10.047
47674W        W17555   2.804  28.543  14.472
47675W        W17556  42.480  44.325  11.084
47676W        W17557  38.010  32.401   4.677
47677W        W17558  23.038  29.474   3.651
47678W        W17559  40.031  17.570  12.534
47679W        W17560   1.894  34.611   0.396
47680W        W17561  25.702  43.902   4.312
47681W        W17562  44.971  15.662   4.722
47682W        W17563   3.390  23.621   2.355
47683W        W17564  15.180  33.875  13.992
47684W        W17565  43.990  42.856   2.902
47685W        W17566  19.718  37.944   5.292
47686W        W17567  37.834  25.504  10.579
47687W        W17568  22.660  30.994   0.739
47688W        W17569  25.505  43.400  14.862
47689W        W17570  26.578  32.628  12.446
47690W        W17571  14.589   0.936   2.804
47691W        W17572  26.039   6.768  11.075
47692W        W17573  27.638  13.250  12.394
47693W        W17574  31.034  12.309   4.689
47694W        W17575  34.908   3.269   1.293
47695W        W17576   1.375   8.164  14.780
47696W        W17577  38.433  37.576  14.306
47697W        W17578  28.613  11.826   3.375
47698W        W17579  31.016  15.749   3.760
47699W        W17580   0.779  30.056  10.546
47700W        W17581   3.249   9.379   5.251
47701W        W17582  15.118  36.471  12.867
47702W        W17583  11.179  41.419  14.483
47703W        W17584  28.026  14.339  12.452
47704W        W17585   2.427   5.356   1.838
47705W        W17586  18.692  23.626  11.578
47706W        W17587  20.695   6.833   2.756
47707W        W17588  22.558  26.634   1.429
47708W        W17589   1.799  10.362  10.610
47709W        W17590   7.289  30.057   0.737
47710W        W17591  22.661  33.504   5.285
47711W        W17592  17.741  12.297   2.707
47712W        W17593   6.797  10.765  11.488
47713W        W17594  11.166  26.153   0.379
47714W        W17595  39.885   0.332  10.931
47715W        W17596  10.819  43.476   3.773
47716W        W17597  30.019  13.740  14.407
47717W        W17598   8.272  18.232  11.430
47718W        W17599  26.481  21.742   3.790
47719W        W17600  28.160   8.165  11.418
47720W        W17601  20.616  13.203  10.438
47721W        W17602   7.895   8.341  13.060
47722W        W17603  17.721  14.145   3.206
47723W        W17604   3.351  17.228   3.322
47724W        W17605   8.807  38.398   3.277
47725W        W17606  11.852   1.845   2.338
47726W        W17607  31.536   4.310  14.990
47727W        W17608  33.086   9.204  12.466
47728W        W17609  19.051   1.383   3.861
47729W        W17610  13.695  20.224   4.117
47730W        W17611   4.317  23.554   0.943
47731W        W17612  35.060  12.176   4.690
47732W        W17613   3.264  13.610   0.253
47733W        W17614  40.467   4.753   1.327
47734W        W17615  32.117  37.031  12.943
47735W        W17616   7.734  31.467   3.663
47736W        W17617  13.327   4.437  13.431
47737W        W17618   2.408   0.473  10.424
47738W        W17619  21.091  25.023  11.517
47739W        W17620  31.089  22.506   4.822
47740W        W17621  42.475  15.678  14.913
47741W        W17622  12.672  35.069  13.968
47742W        W17623   9.373  41.869  11.954
47743W        W17624  16.213  30.129  13.853
47744W        W17625  15.603  12.729  14.014
47745W        W17626   6.327  31.403  14.873
47746W        W17627  37.452  20.717  10.520
47747W        W17628  28.947  43.356  13.938
47748W        W17629  37.529  37.960   1.435
47749W        W17630  20.101   0.922   3.758
47750W        W17631  23.179  19.194  11.030
47751W        W17632  25.136  41.787  13.483
47752W        W17633  42.351  16.796   4.183
47753W        W17634  43.950  13.160   3.764
47754W        W17635  20.667   6.408  13.892
47755W        W17636  44.765  42.005  14.292
47756W        W17637   4.812  22.097  10.917
47757W        W17638   0.402  31.494  10.638
47758W        W17639  18.552  12.208   0.262
47759W        W17640  44.439   5.254   5.267
47760W        W17641   9.849  20.124  13.318
47761W        W17642  32.939  38.918  12.465
47762W        W17643  24.032   7.213   2.195
47763W        W17644  10.739  40.988   3.229
47764W        W17645  43.332  40.387  13.063
47765W        W17646  31.644  23.000   2.757
47766W        W17647   1.955  20.568   3.343
47767W        W17648   1.365  13.113   1.707
47768W        W17649  34.971  26.661   9.960
47769W        W17650   3.366  39.926   3.365
47770W        W17651   3.403  19.171   4.169
47771W        W17652  42.928   7.373   0.319
47772W        W17653   9.647   7.708  11.115
47773W        W17654  14.770  32.042   1.892
47774W        W17655   0.251   7.204  13.913
47775W        W17656  10.364  29.493   1.832
47776W        W17657   8.740  22.143  13.445
47777W        W17658  26.595   0.279  13.511
47778W        W17659  23.127   6.274  14.303
47779W        W17660  20.061   2.393  11.452
47780W        W17661  22.616   0.971   4.272
47781W        W17662  19.077  37.967  13.983
47782W        W17663  21.255   0.490  10.925
47783W        W17664  36.986  11.146  13.845
47784W        W17665   2.826  40.917  13.537
47785W        W17666  44.759  29.156   1.392
47786W        W17667   7.891  36.363   3.820
47787W        W17668  36.843  33.935   3.773
47788W        W17669  31.480   5.337  13.882
47789W        W17670  40.434  18.254  13.332
47790W        W17671  37.444  22.504  14.937
47791W        W17672  44.836  30.503  13.958
47792W        W17673   9.748  18.591  10.946
47793W        W17674   7.284  21.613  11.521
47794W        W17675  33.601   1.887  13.492
47795W        W17676  19.245  25.547   2.362
47796W        W17677  17.161  39.375   3.868
47797W        W17678  12.150   8.754   2.833
47798W        W17679  20.562  28.061  13.329
47799W        W17680  44.352  28.516  13.850
47800W        W17681   4.781  29.973   3.306
47801W        W17682   5.309  11.646   1.380
47802W        W17683  36.006  16.737  13.052
47803W        W17684  41.410   4.797   3.353
47804W        W17685  16.264   2.273   0.459
47805W        W17686  32.575  31.499  11.124
47806W        W17687  20.029  27.558   3.667
47807W        W17688  40.432  23.596  11.582
47808W        W17689  28.019  15.217  13.515
47809W        W17690  15.111   3.784   4.182
47810W        W17691  43.398  40.328   4.144
47811W        W17692  10.878  20.751   3.630
47812W        W17693   8.754  28.495  12.503
47813W        W17694   3.400  13.244  13.958
47814W        W17695  16.760  32.461   3.163
47815W        W17696  36.500  19.637   2.255
47816W        W17697  44.865   5.912  13.842
47817W        W17698  25.487  23.660   5.135
47818W        W17699  28.555  29.128  12.376
47819W        W17700  12.768  33.379   4.751
47820W        W17701   6.874  43.866   4.741
47821W        W17702  10.726   1.788   0.373
47822W        W17703  22.690  27.586   4.773
47823W        W17704  23.564  44.848  14.853
47824W        W17705  23.120  14.724   1.244
47825W        W17706  32.000  32.893   0.306
47826W        W17707  37.955  15.117  13.347
47827W        W17708   5.698  29.634  13.520
47828W        W17709   3.284  13.117  14.475
47829W        W17710  36.988  13.120   3.255
47830W        W17711  29.982  32.004   0.392
47831W        W17712  44.261  17.088  10.494
47832W        W17713  33.588  28.081   1.852
47833W        W17714  20.726   3.936   1.315
47834W        W17715  31.088  14.760  14.822
47835W        W17716   3.757  29.074   1.880
47836W        W17717   2.826  34.009   3.167
47837W        W17718  32.050  28.486   5.268
47838W        W17719  35.392   7.399  11.508
47839W        W17720  22.708   6.729  14.461
47840W        W17721  24.678  41.979  10.935
47841W        W17722  37.929  43.843   0.415
47842W        W17723   7.834  17.643   1.852
47843W        W17724  27.128  42.496  11.025
47844W        W17725   2.249  11.675   2.800
47845W        W17726  43.952   1.830   2.244
47846W        W17727  20.225  14.746  11.506
47847W        W17728  14.688  25.651  12.484
47848W        W17729   7.372  40.508  10.583
47849W        W17730  27.640  27.637  10.541
47850W        W17731  32.917  36.543  12.969
47851W        W17732  30.982  27.020  11.866
47852W        W17733  22.016  14.682   3.756
47853W        W17734   0.389  14.724   0.729
47854W        W17735  13.168  19.129   2.356
47855W        W17736  39.978  33.494  11.591
47856W        W17737   5.781  19.749   0.379
47857W        W17738  33.465  34.416  14.433
47858W        W17739  10.850  28.052   1.828
47859W        W17740   7.772  13.763  12.959
47860W        W17741   9.727  39.385   4.227
47861W        W17742   3.892   9.812  11.855
47862W        W17743  32.505  30.639  14.808
47863W        W17744  13.682  36.431   1.307
47864W        W17745   3.257  13.683  10.499
47865W        W17746  35.443  34.966  14.023
47866W        W17747   2.727   7.353  11.532
47867W        W17748  41.396  28.972  11.895
47868W        W17749  15.598  22.137   0.869
47869W        W17750  15.769  11.189   1.707
47870W        W17751  12.136  34.031  11.531
47871W        W17752  12.792  40.843  11.416
47872W        W17753  22.660  25.987   2.201
47873W        W17754   8.357  18.285  13.888
47874W        W17755   0.396  18.666   3.269
47875W        W17756  29.010   3.251   0.301
47876W        W17757  23.211  13.740  10.456
47877W        W17758  33.095  36.516   1.756
47878W        W17759  32.593  12.671   2.689
47879W        W17760  14.137  34.929   3.637
47880W        W17761   7.766  22.558  13.914
47881W        W17762   3.373  32.064   2.184
47882W        W17763  11.264   9.847  12.391
47883W        W17764  21.240   8.804   0.946
47884W        W17765  31.533   5.918   5.694
47885W        W17766  38.480  16.293  10.568
47886W        W17767   3.299   8.217  12.408
47887W        W17768   6.919  11.138   1.325
47888W        W17769  13.304  39.922  10.140
47889W        W17770  14.129  25.175   1.813
47890W        W17771  28.554   5.752  10.435
47891W        W17772  26.645  11.733  13.924
47892W        W17773  28.488  23.037  10.613
47893W        W17774  21.758  42.920   1.421
47894W        W17775  34.071  18.178   1.359
47895W        W17776   1.913  21.231   1.783
47896W        W17777  28.528  25.578   0.941
47897W        W17778  43.511  23.213   1.315
47898W        W17779  44.843  20.076  13.840
47899W        W17780  30.604  14.201   3.145
47900W        W17781  34.556  34.429   0.423
47901W        W17782  29.161  14.205   4.221
47902W        W17783  16.255  39.479  12.499
47903W        W17784   0.893  30.147   2.261
47904W        W17785   2.384  35.013   3.776
47905W        W17786  29.607  22.525  13.489
47906W        W17787   9.661  35.601   2.893
47907W        W17788   9.788  22.183  11.512
47908W        W17789  22.053  32.067   2.892
47909W        W17790  31.490  34.389   1.908
47910W        W17791  14.653  43.924  14.767
47911W        W17792  18.217  36.930  12.080
47912W        W17793  13.291  41.002  12.089
47913W        W17794  27.677  33.913  10.936
47914W        W17795  27.183  33.512  11.426
47915W        W17796  42.524  28.553   0.841
47916W        W17797   1.267   0.436  12.865
47917W        W17798  42.355  13.715   1.229
47918W        W17799  33.042  32.044   2.196
47919W        W17800   2.388   6.254  14.766
47920W        W17801  12.258  11.778  11.387
47921W        W17802  36.959  18.601  13.979
47922W        W17803  34.441  29.588   0.466
47923W        W17804   2.778   2.242  14.373
47924W        W17805   9.795  41.397  11.936
47925W        W17806  11.370   0.897   0.369
47926W        W17807   6.713  40.338  13.962
47927W        W17808  38.481   9.880  14.418
47928W        W17809  38.571  19.712   3.265
47929W        W17810  31.535   8.685  11.026
47930W        W17811   3.339  26.120  14.849
47931W        W17812  42.335  16.758  14.979
47932W        W17813  41.438   6.685  11.417
47933W        W17814   8.820  32.106  10.032
47934W        W17815  13.775  31.526   1.763
47935W        W17816   8.751  39.044  12.061
47936W        W17817  24.668  38.914  12.083
47937W        W17818   2.894   5.302  13.312
47938W        W17819   2.816  35.445   2.733
47939W        W17820  24.655  36.550   1.823
47940W        W17821   7.707  29.470   3.724
47941W        W17822  15.178  28.486  11.490
47942W        W17823  33.404  37.999  11.571
47943W        W17824  12.323  22.571  11.864
47944W        W17825  27.038  40.490  13.510
47945W        W17826  26.125  36.017  13.490
47946W        W17827  23.052  15.293   1.363
47947W        W17828  23.592   5.860  14.885
47948W        W17829  35.020  38.999  10.019
47949W        W17830  27.147  38.037  12.059
47950W        W17831  41.320  43.853   2.690
47951W        W17832  25.171  11.297  11.529
47952W        W17833  42.800  39.990   2.867
47953W        W17834  14.292   2.944  10.903
47954W        W17835  41.460  36.971  10.631
47955W        W17836  20.730  31.993   0.415
47956W        W17837  30.045  19.735  13.980
47957W        W17838  21.640  16.695   1.802
47958W        W17839   9.744  24.534  13.421
47959W        W17840  38.407   8.901  13.932
47960W        W17841  21.587  30.453   5.206
47961W        W17842  29.609  42.819   2.829
47962W        W17843   1.943  42.951  11.981
47963W        W17844  30.935  30.560  13.455
47964W        W17845  14.114  14.676  14.463
47965W        W17846  14.743  44.461   4.827
47966W        W17847  31.121  23.067   1.318
47967W        W17848  33.472  27.008  14.929
47968W        W17849  20.724  15.703   2.793
47969W        W17850  10.188   9.382  12.514
47970W        W17851  12.355  19.594  12.072
47971W        W17852   2.360  14.668   1.851
47972W        W17853  28.153  37.566  13.048
47973W        W17854   9.324  11.710  10.093
47974W        W17855  23.522  14.238  11.565
47975W        W17856  32.077  14.123  12.545
47976W        W17857   4.900  30.942   2.847
47977W        W17858  42.918   9.836  10.924
47978W        W17859  14.625   3.403  14.797
47979W        W17860  39.442  24.206   4.180
47980W        W17861  10.151  14.186   1.833
47981W        W17862   4.832  32.075   0.444
47982W        W17863  36.483  29.561  11.991
47983W        W17864   5.228  36.894   0.297
47984W        W17865   0.382  24.202   2.805
47985W        W17866  27.168  43.013  14.342
47986W        W17867  23.521  21.143  12.888
47987W        W17868   3.892  11.861   2.749
47988W        W17869  36.558  35.939  13.321
47989W        W17870  10.220  33.937   0.930
47990W        W17871  38.562  31.138  14.915
47991W        W17872  37.505  39.023   5.145
47992W        W17873  30.648  35.458  10.509
47993W        W17874  40.352  15.088   4.150
47994W        W17875  43.882  29.621   4.837
47995W        W17876  16.763  20.653   2.709
47996W        W17877  41.004   9.739  13.888
47997W        W17878  23.090  27.148  10.955
47998W        W17879  35.502  39.430  11.524
47999W        W17880   3.840  15.292   4.205
48000W        W17881  32.113  23.211   3.865
48001W        W17882   3.405  15.319  14.939
48002W        W17883  27.032  35.079  12.974
48003W        W17884   5.775  15.187  11.858
48004W        W17885  18.757  43.336   0.831
48005W        W17886  12.823  40.492   2.763
48006W        W17887   7.242  15.178  11.031
48007W        W17888   7.795  18.179   0.872
48008W        W17889   5.231  17.263   3.724
48009W        W17890  28.534   6.188  12.356
48010W        W17891  13.839  14.750   2.722
48011W        W17892  34.065  20.658   4.120
48012W        W17893  35.910  12.648   1.768
48013W        W17894   3.250  34.432   0.932
48014W        W17895  30.048  32.944  13.027
48015W        W17896  41.978  40.007  11.889
48016W        W17897  18.780  43.344   1.820
48017W        W17898  15.615  44.954  12.568
48018W        W17899  44.263  34.929   3.690
48019W        W17900  41.302   9.235   3.354
48020W        W17901  20.656  29.166   3.787
48021W        W17902  11.189   6.185   2.881
48022W        W17903  15.734  39.513  12.082
48023W        W17904  10.737  23.691  12.064
48024W        W17905   9.216  20.713   3.357
48025W        W17906  26.033  34.606   2.396
48026W        W17907   8.400  21.219   1.410
48027W        W17908  21.725  24.583  10.552
48028W        W17909   4.354   3.711  14.880
48029W        W17910  12.754  33.069  12.490
48030W        W17911  26.076  43.351   0.778
48031W        W17912  17.731  15.196  13.063
48032W        W17913  14.635   5.919   0.394
48033W        W17914  41.435  22.193  12.076
48034W        W17915  28.613  18.782  11.586
48035W        W17916   0.300  17.559   2.790
48036W        W17917  26.488  35.868   1.227
48037W        W17918   1.892  38.546  10.538
48038W        W17919  25.134  15.761  11.882
48039W        W17920  43.883  16.219   4.312
48040W        W17921   5.840  24.161   4.811
48041W        W17922   8.763   7.866  10.948
48042W        W17923  27.602  38.473  13.458
48043W        W17924   5.354   7.288  12.366
48044W        W17925   5.207  23.510   4.189
48045W        W17926  35.547  36.359   0.786
48046W        W17927  43.333  33.408  10.581
48047W        W17928  36.022   9.305  10.500
48048W        W17929   5.789  44.391  13.935
48049W        W17930   2.810  44.441  11.028
48050W        W17931  23.000   2.942  12.954
48051W        W17932  20.704   2.723   0.436
48052W        W17933  38.997  43.965   3.707
48053W        W17934  14.765  41.325  12.560
48054W        W17935   1.795  43.939  11.549
48055W        W17936   8.670   4.803  11.040
48056W        W17937  13.626   5.822   3.660
48057W        W17938  12.817  24.534   3.780
48058W        W17939  38.968  25.546  12.575
48059W        W17940  10.372   4.909  11.487
48060W        W17941  21.175  39.392  12.070
48061W        W17942  19.707  15.328  13.873
48062W        W17943  37.412  26.593  11.608
48063W        W17944  40.473   3.270  12.439
48064W        W17945  17.292  27.130  13.833
48065W        W17946  34.964  17.599   1.390
48066W        W17947   9.656  27.658  10.473
48067W        W17948   9.243  31.624  12.011
48068W        W17949  32.536   1.837   0.946
48069W        W17950   2.336  24.156  12.073
48070W        W17951  38.532  26.661  12.915
48071W        W17952  18.633   9.167  13.477
48072W        W17953   7.777   8.714   3.735
48073W        W17954  14.146   1.383  12.499
48074W        W17955  10.824   0.838  10.406
48075W        W17956   8.880  38.832  10.148
48076W        W17957  15.769  43.786  12.949
48077W        W17958  11.199  28.129  12.404
48078W        W17959   1.417  41.870   0.404
48079W        W17960  44.422  40.937   3.707
48080W        W17961  26.512   9.377   3.849
48081W        W17962  44.939  24.156  11.413
48082W        W17963  44.291  41.319   0.382
48083W        W17964  31.993  15.590  13.518
48084W        W17965  20.715  35.511   4.296
48085W        W17966  41.816  36.402   2.219
48086W        W17967  12.266   6.740  13.397
48087W        W17968  26.088  15.689  10.563
48088W        W17969  39.321  36.502  11.395
48089W        W17970   2.869  20.261   0.763
48090W        W17971  19.052  14.727   0.302
48091W        W17972  23.176  43.329   1.903
48092W        W17973  25.148  36.377   3.378
48093W        W17974   8.884  14.254  12.498
48094W        W17975  30.577  16.106   2.760
48095W        W17976  14.827  18.756  11.586
48096W        W17977  15.136  12.726  10.989
48097W        W17978  31.066   4.891  13.475
48098W        W17979  29.447  23.010  14.947
48099W        W17980  31.070  28.614   2.871
48100W        W17981  44.350  22.010   2.200
48101W        W17982  39.022  14.792   0.792
48102W        W17983  13.135  13.822   4.271
48103W        W17984  12.683  37.441   2.281
48104W        W17985  15.655  20.051   0.852
48105W        W17986  10.351  20.191   2.364
48106W        W17987  28.930  11.174   4.804
48107W        W17988  29.926  17.726  12.023
48108W        W17989  13.721   4.939   4.629
48109W        W17990  28.046   6.679   5.220
48110W        W17991  36.420  40.014  12.084
48111W        W17992  31.023  40.912   0.252
48112W        W17993  11.851  15.239  13.004
48113W        W17994  16.274   2.357   4.730
48114W        W17995   4.876   2.345   3.819
48115W        W17996   2.330  12.638   0.358
48116W        W17997  25.093  30.115   0.765
48117W        W17998   7.257   9.322  12.894
48118W        W17999  29.622   9.320   1.392
48119W        W18000  32.416  18.759   3.738
48120W        W18001  35.951  36.874   0.825
48121W        W18002  22.120   4.875  11.959
48122W        W18003  13.832  20.239   2.740
48123W        W18004   4.734  36.079   2.826
48124W        W18005   9.653   5.282  13.400
48125W        W18006  19.538  35.979  13.058
48126W        W18007   8.730  11.778   1.215
48127W        W18008  17.249  13.748  10.959
48128W        W18009  13.830  12.744   3.744
48129W        W18010  23.073   2.749  14.478
48130W        W18011  20.121  26.103   2.362
48131W        W18012  40.983  43.369   3.191
48132W        W18013  24.628  40.802   3.648
48133W        W18014  36.006  10.248   3.313
48134W        W18015  13.161  11.257   1.243
48135W        W18016  16.645  26.605   2.254
48136W        W18017  12.343   3.305   2.886
48137W        W18018  33.560   3.731   0.466
48138W        W18019  30.615  34.927  13.457
48139W        W18020  35.433  33.878  13.950
48140W        W18021   8.676   7.245  14.514
48141W        W18022  35.361   1.835  13.868
48142W        W18023   5.246   4.939  13.483
48143W        W18024  32.045  36.861   1.291
48144W        W18025  39.400  38.836  10.456
48145W        W18026  30.438  13.148   3.289
48146W        W18027  41.392   5.776   4.786
48147W        W18028  36.899  30.058   3.662
48148W        W18029   8.371  33.395   1.913
48149W        W18030  33.968   1.428  11.855
48150W        W18031   4.437  15.206  11.039
48151W        W18032  11.823  44.369   4.794
48152W        W18033  41.439   0.363  14.429
48153W        W18034  42.906  27.054   2.361
48154W        W18035  13.670   9.716   0.914
48155W        W18036   5.238  23.533   3.236
48156W        W18037   0.399  27.516   2.675
48157W        W18038  31.476   0.802  13.898
48158W        W18039  13.183  28.157   3.342
48159W        W18040   1.866   1.265   4.253
48160W        W18041   8.312  24.565   2.275
48161W        W18042  12.675  32.891  13.797
48162W        W18043  40.461  13.268  12.441
48163W        W18044   7.197  19.170  14.487
48164W        W18045  24.125  18.202   4.598
48165W        W18046  22.127   3.901  13.907
48166W        W18047  31.026  20.762  11.010
48167W        W18048  27.507   8.685   4.230
48168W        W18049  42.360  10.375  11.108
48169W        W18050  10.742  33.613   3.307
48170W        W18051  42.909   4.364  13.038
48171W        W18052   5.777  34.074   2.682
48172W        W18053   4.266  19.273  12.048
48173W        W18054  32.537  12.622  11.424
48174W        W18055  33.543   3.263   1.382
48175W        W18056  43.312  25.508   1.343
48176W        W18057  14.627   6.808  13.903
48177W        W18058  37.964   7.787  12.069
48178W        W18059  11.666  36.993   1.221
48179W        W18060   8.700   1.270  14.840
48180W        W18061   5.280   4.360   2.793
48181W        W18062  38.512  29.925   2.712
48182W        W18063  31.547  38.896  12.572
48183W        W18064  25.584  32.047  11.543
48184W        W18065  40.976  26.597   1.852
48185W        W18066   6.249  38.380  13.057
48186W        W18067  12.165  29.994   5.214
48187W        W18068   6.832   3.856  13.824
48188W        W18069  27.604  34.458   4.156
48189W        W18070  41.517  15.600  14.841
48190W        W18071  32.928  13.115  11.543
48191W        W18072  20.095  44.402   2.246
48192W        W18073  30.567  25.556  12.380
48193W        W18074  23.667  31.578   4.155
48194W        W18075  10.816  36.462  11.495
48195W        W18076  34.969  40.901  10.561
48196W        W18077   4.783  30.552  14.309
48197W        W18078  41.808  41.945  11.556
48198W        W18079  26.121  18.241  14.376
48199W        W18080  15.601  17.116  14.890
48200W        W18081  34.094  41.469   1.311
48201W        W18082  44.996   2.756  10.408
48202W        W18083   9.177  44.334   4.613
48203W        W18084  11.228  36.940   0.772
48204W        W18085   7.205  43.861   1.739
48205W        W18086  17.110  32.487  13.038
48206W        W18087  24.140  29.142  13.922
48207W        W18088   5.705   3.305   4.245
48208W        W18089   8.696  44.860   1.271
48209W        W18090  39.827  27.568   1.850
48210W        W18091  26.698  36.489   3.672
48211W        W18092  41.345  15.150  13.321
48212W        W18093  41.511  10.291  14.315
48213W        W18094  42.001  21.526   1.787
48214W        W18095   2.358  38.904   3.161
48215W        W18096  13.820   3.916  14.762
48216W        W18097  19.241   8.862   3.268
48217W        W18098  37.424  18.704  13.964
48218W        W18099   4.357  17.681  11.547
48219W        W18100  43.936  37.481   2.359
48220W        W18101  13.110  28.086  12.850
48221W        W18102  32.046  12.186  10.454
48222W        W18103  28.155  41.456   3.363
48223W        W18104  29.500  26.059   4.783
48224W        W18105  44.781   8.663   0.413
48225W        W18106  36.468  29.582   4.297
48226W        W18107  43.350  31.136  10.583
48227W        W18108  34.538  16.242  13.019
48228W        W18109  22.079  25.645  13.483
48229W        W18110  41.333  21.722   1.342
48230W        W18111   7.249  33.531   1.917
48231W        W18112  36.516   8.841   2.764
48232W        W18113  44.900   4.236  12.458
48233W        W18114  29.544  40.543   4.604
48234W        W18115  39.552  39.437  12.989
48235W        W18116  44.469   9.699  14.820
48236W        W18117  33.053  33.481  12.561
48237W        W18118  38.909  19.077  12.032
48238W        W18119   3.768  34.384  10.522
48239W        W18120  33.938   3.236   1.345
48240W        W18121   3.242  41.404   1.738
48241W        W18122  27.641  42.863   1.406
48242W        W18123  41.498  32.462   0.272
48243W        W18124  31.104  10.707  14.825
48244W        W18125  21.056  26.065  12.369
48245W        W18126   2.868  14.186   0.800
48246W        W18127  12.847  27.685   3.685
48247W        W18128  40.465  14.123   0.327
48248W        W18129   8.371  31.053   0.382
48249W        W18130   9.862  28.507   4.677
48250W        W18131  29.499   5.261  10.619
48251W        W18132   9.371  42.450   0.934
48252W        W18133   7.209  34.048  14.850
48253W        W18134  34.987   5.755   4.334
48254W        W18135   5.784  20.552   2.710
48255W        W18136  37.417   1.407  12.492
48256W        W18137  34.537  41.921  11.049
48257W        W18138  19.551  23.728  14.450
48258W        W18139  41.019  11.246   4.279
48259W        W18140  44.390  41.527   2.697
48260W        W18141   3.840  11.623   3.659
48261W        W18142  25.192  17.798  14.316
48262W        W18143  25.493  36.589  14.474
48263W        W18144  36.039  42.361  12.920
48264W        W18145  33.047  15.595  14.020
48265W        W18146   5.383  25.972   1.382
48266W        W18147  41.984  20.630  11.998
48267W        W18148   6.191  27.055   3.174
48268W        W18149  40.501   1.951   5.303
48269W        W18150  18.694  41.900   1.290
48270W        W18151   9.282  32.057  14.342
48271W        W18152  39.970  12.853   2.188
48272W        W18153  41.900  16.627  12.571
48273W        W18154  13.832   9.315  12.428
48274W        W18155  29.615  36.037  10.498
48275W        W18156   0.340  17.293  14.991
48276W        W18157  25.699  12.680  10.635
48277W        W18158  19.237  40.380  11.432
48278W        W18159  12.251  10.308  14.946
48279W        W18160   1.453   3.725   3.279
48280W        W18161  17.149  40.862  14.394
48281W        W18162  21.175   4.398   3.224
48282W        W18163  22.580  13.172   1.845
48283W        W18164   4.940  36.074   3.188
48284W        W18165  11.276  17.144   4.170
48285W        W18166  24.590   4.391   4.239
48286W        W18167  22.134  37.052   3.826
48287W        W18168  11.741  41.932  14.840
48288W        W18169  20.256  12.740   3.254
48289W        W18170   2.755   4.886   3.182
48290W        W18171  38.017  37.989   3.869
48291W        W18172  37.019  23.656  12.950
48292W        W18173  20.572   2.309   2.765
48293W        W18174   9.755  14.227   3.746
48294W        W18175   2.338  18.257  11.462
48295W        W18176  13.678  12.228   4.743
48296W        W18177  35.382  21.214  13.833
48297W        W18178  20.670   1.316  11.400
48298W        W18179  20.198  43.333   0.770
48299W        W18180  40.486  10.641  12.854
48300W        W18181  19.143  31.145  13.799
48301W        W18182  39.810  35.093   3.303
48302W        W18183  12.649   1.817  12.849
48303W        W18184  20.154  37.490   2.227
48304W        W18185  23.999  26.073  10.493
48305W        W18186  20.719  26.562   1.358
48306W        W18187  39.830  13.712   1.218
48307W        W18188  23.128  43.477   4.837
48308W        W18189  21.102  27.661   1.769
48309W        W18190  13.629  39.555   3.726
48310W        W18191  12.155  41.931   0.884
48311W        W18192  41.441  15.678   2.863
48312W        W18193  13.260  28.437   0.912
48313W        W18194   5.896  40.409   0.282
48314W        W18195  10.250  30.437   2.766
48315W        W18196  19.163  41.908   2.331
48316W        W18197  21.186  32.954  14.304
48317W        W18198  38.472  13.146  10.494
48318W        W18199  42.322  40.820  13.531
48319W        W18200  27.123  11.138   0.402
48320W        W18201  32.014  12.330  13.436
48321W        W18202  24.496  21.723  11.962
48322W        W18203  40.932  42.023   3.745
48323W        W18204  17.145  22.516   4.279
48324W        W18205  26.476  32.476  14.789
48325W        W18206   3.802  42.945  12.000
48326W        W18207   3.826  28.996   3.654
48327W        W18208  43.366  37.015   1.359
48328W        W18209   0.933  43.400   3.720
48329W        W18210  39.410  11.699  11.454
48330W        W18211  44.928  29.162   0.461
48331W        W18212  37.973   3.842  11.878
48332W        W18213  43.815  20.144   0.833
48333W        W18214   2.468  40.455  11.524
48334W        W18215  41.018   6.726  11.063
48335W        W18216  42.908  34.062  13.524
48336W        W18217  38.017  42.309  12.405
48337W        W18218  37.531  31.648   2.794
48338W        W18219  23.639  37.839   3.653
48339W        W18220   9.670  20.713  11.864
48340W        W18221   7.343   0.851   1.239
48341W        W18222  23.088  10.273  12.981
48342W        W18223   6.833  31.965  14.341
48343W        W18224  20.057  25.199   2.260
48344W        W18225  14.800   0.955  11.035
48345W        W18226   5.219  23.603   1.220
48346W        W18227  27.174  24.519   4.830
48347W        W18228  30.612   3.260  13.880
48348W        W18229  19.086  18.723   0.778
48349W        W18230  42.305  34.000  11.052
48350W        W18231  34.103  16.092   1.769
48351W        W18232  18.634  22.700  13.974
48352W        W18233   6.913   9.867   3.675
48353W        W18234   4.782  14.618   3.854
48354W        W18235  44.426   1.874   1.746
48355W        W18236  21.599  12.198   4.616
48356W        W18237   4.937  14.212  10.043
48357W        W18238  13.198   9.338   1.727
48358W        W18239  41.825  34.873   5.100
48359W        W18240  28.934  37.005   0.769
48360W        W18241  26.028  38.866   1.819
48361W        W18242  40.357  34.950  11.609
48362W        W18243  20.168  37.474  10.957
48363W        W18244  37.999  31.505  13.340
48364W        W18245   5.769  15.184   3.702
48365W        W18246   4.812  37.993  14.961
48366W        W18247  25.559  34.546  13.488
48367W        W18248  40.964  16.796   0.806
48368W        W18249  13.224  43.291   1.296
48369W        W18250  15.221  30.912  13.534
48370W        W18251   9.767  30.528  14.900
48371W        W18252  24.976  38.879  11.034
48372W        W18253  12.668  10.858  13.383
48373W        W18254  10.370  29.634  10.082
48374W        W18255  10.288   8.387   2.286
48375W        W18256  28.481  12.187  13.924
48376W        W18257  16.773  18.701   3.317
48377W        W18258  24.084  28.946  10.529
48378W        W18259  33.421   4.368  14.845
48379W        W18260  20.560  10.728   0.262
48380W        W18261  31.089   9.727  12.937
48381W        W18262   9.387  22.054   1.255
48382W        W18263   9.355  26.648   0.901
48383W        W18264  27.088  12.192  10.963
48384W        W18265   3.806  15.324  12.906
48385W        W18266  38.836  23.022  11.988
48386W        W18267  13.261  29.473  14.300
48387W        W18268  10.192  26.570  11.920
48388W        W18269   2.312  13.786   4.133
48389W        W18270  18.163   4.315   3.657
48390W        W18271  35.946  36.372  14.492
48391W        W18272   5.332  21.170   1.276
48392W        W18273  34.930  10.818   0.266
48393W        W18274  18.702   3.715   3.384
48394W        W18275  40.954  38.415   3.259
48395W        W18276  26.660   4.762  12.410
48396W        W18277  33.082  10.257  14.388
48397W        W18278  30.041  33.538   1.332
48398W        W18279  40.841  10.244   3.836
48399W        W18280  24.663  36.898   2.177
48400W        W18281  39.463  29.667  14.511
48401W        W18282   6.828  22.108  10.955
48402W        W18283  17.270  42.952   0.937
48403W        W18284  21.242  32.581  14.415
48404W        W18285  15.139  25.030   2.680
48405W        W18286  15.723  36.536  10.587
48406W        W18287   0.465  26.610  11.975
48407W        W18288  15.592  11.346   0.334
48408W        W18289  18.672  13.247   1.215
48409W        W18290  40.911   7.244  12.356
48410W        W18291  31.543   3.729  14.407
48411W        W18292  14.643  22.214  11.946
48412W        W18293  24.500   2.305  14.425
48413W        W18294  27.464  32.013   4.227
48414W        W18295  20.734  15.659  10.440
48415W        W18296   7.867  44.393   0.379
48416W        W18297  33.608  37.971   2.757
48417W        W18298   0.478  27.017   3.866
48418W        W18299  32.520  44.810  13.002
48419W        W18300  42.905  30.129  14.016
48420W        W18301  19.222  24.633  10.596
48421W        W18302  33.442   4.903  12.830
48422W        W18303  12.679   1.325   1.913
48423W        W18304   4.400  37.472   0.301
48424W        W18305  39.924  40.956   2.251
48425W        W18306  39.809  26.144   2.250
48426W        W18307  16.092   5.771   2.373
48427W        W18308   7.884  23.199  10.985
48428W        W18309  23.662  33.024   0.453
48429W        W18310  38.916  42.350   3.320
48430W        W18311  20.673  25.702  13.394
48431W        W18312  38.880  27.654  13.539
48432W        W18313  28.527  23.068  13.820
48433W        W18314  18.701  35.881  10.988
48434W        W18315   9.644  34.978   2.406
48435W        W18316  25.009  42.504  12.041
48436W        W18317  34.086   7.879  14.439
48437W        W18318  27.993   6.244  11.879
48438W        W18319  20.726  24.667  14.280
48439W        W18320  13.613  12.184   1.844
48440W        W18321  19.092  22.638  10.426
48441W        W18322  18.549  30.982  12.360
48442W        W18323  22.113  11.336   3.658
48443W        W18324  27.459  33.615   1.270
48444W        W18325  43.850  18.737  13.030
48445W        W18326  35.361  11.315   2.710
48446W        W18327  37.366  33.554  11.555
48447W        W18328  35.532  44.831  12.014
48448W        W18329  18.207  29.163  14.771
48449W        W18330  41.805  36.846   4.142
48450W        W18331  27.561  14.812   4.289
48451W        W18332  35.859  34.029   2.858
48452W        W18333  14.231  17.671  13.929
48453W        W18334  18.780   8.695  11.102
48454W        W18335  39.371  18.191   3.734
48455W        W18336  41.963  41.035  13.322
48456W        W18337  27.944  14.714   4.347
48457W        W18338  33.027  35.488  14.390
48458W        W18339   5.923  24.066  12.907
48459W        W18340  33.049  18.135  10.894
48460W        W18341  16.163  20.645   4.128
48461W        W18342  20.524  13.833   4.318
48462W        W18343  23.025  17.090   4.165
48463W        W18344  16.092   1.415  13.862
48464W        W18345  10.773  37.351  10.426
48465W        W18346  12.782   2.722  13.048
48466W        W18347  41.851  27.098  11.381
48467W        W18348  44.821  25.976   3.250
48468W        W18349  21.757  33.491   3.754
48469W        W18350  26.088  35.598  13.808
48470W        W18351   5.398   8.286   4.271
48471W        W18352   0.806  41.830  13.442
48472W        W18353  29.113   0.917   1.444
48473W        W18354  28.565  40.309   1.799
48474W        W18355  12.361  37.886   0.277
48475W        W18356  23.606  41.527   0.792
48476W        W18357  22.636   4.231  13.442
48477W        W18358  20.098  35.470   4.680
48478W        W18359   1.420  27.183   1.239
48479W        W18360  33.977  40.808  11.556
48480W        W18361  31.457  44.818   4.201
48481W        W18362  30.153  18.077   5.782
48482W        W18363  16.113  14.145   3.857
48483W        W18364  39.840  25.107   4.233
48484W        W18365  36.946   5.735  11.533
48485W        W18366  11.325  26.625  14.009
48486W        W18367   5.202  30.517  13.311
48487W        W18368   0.278  24.992   4.734
48488W        W18369   5.207  12.293   4.786
48489W        W18370  36.970  18.199  14.768
48490W        W18371  27.517  36.479   0.867
48491W        W18372  32.414  32.560  10.555
48492W        W18373  36.975   8.192   2.687
48493W        W18374  22.733  40.333  12.893
48494W        W18375  17.202  33.009   0.742
48495W        W18376   1.794  14.721  10.893
48496W        W18377  29.570  24.694   4.694
48497W        W18378  28.177  39.360   4.668
48498W        W18379   5.415  17.125   4.330
48499W        W18380  38.504  39.449  13.491
48500W        W18381  13.113  22.089  12.056
48501W        W18382  14.236  22.653   3.383
48502W        W18383   9.311  24.024   0.892
48503W        W18384  29.002  20.239   4.599
48504W        W18385  19.047   0.963   3.789
48505W        W18386  42.970  25.669  12.507
48506W        W18387  27.604  27.070  12.828
48507W        W18388  15.799  36.522   2.384
48508W        W18389  10.170   7.689  12.947
48509W        W18390  12.203  37.950  14.317
48510W        W18391  42.402  38.396   1.793
48511W        W18392  39.861  31.570  14.287
48512W        W18393  15.686  13.202  14.796
48513W        W18394  12.807  43.806   3.720
48514W        W18395  16.727  39.928   1.881
48515W        W18396   0.775  37.077   1.849
48516W        W18397  11.215  27.994   5.284
48517W        W18398  25.071  21.183  12.366
48518W        W18399  39.406  25.587   4.134
48519W        W18400  25.698  40.956  10.562
48520W        W18401   4.701  28.018   1.449
48521W        W18402  34.374   4.434   3.739
48522W        W18403  21.199  12.145  12.952
48523W        W18404  42.775  26.084  13.793
48524W        W18405   4.806   2.844  11.118
48525W        W18406  28.170  41.934  11.969
48526W        W18407   8.727  41.500  11.107
48527W        W18408  24.560   8.836   0.905
48528W        W18409  11.255  27.993  14.790
48529W        W18410  32.941   0.971   0.891
48530W        W18411  20.167   6.748   1.908
48531W        W18412  33.537  39.329   0.479
48532W        W18413  34.890  25.118  11.030
48533W        W18414  25.676   5.772   3.782
48534W        W18415  42.950  36.969   4.278
48535W        W18416   9.737  41.018  14.904
48536W        W18417   8.179   2.333  14.436
48537W        W18418  36.844   4.383   2.770
48538W        W18419  33.587  20.569   4.638
48539W        W18420  30.419  10.192   1.385
48540W        W18421   3.271  34.081   1.410
48541W        W18422  35.430  10.831  11.407
48542W        W18423  36.462  44.902  12.895
48543W        W18424  23.543   7.283   0.474
48544W        W18425  35.047  40.403   4.752
48545W        W18426  19.653   7.181   2.418
48546W        W18427  41.311  16.101   2.184
48547W        W18428   1.323  28.589   0.351
48548W        W18429  40.491  23.237   2.665
48549W        W18430   8.194  23.236   2.361
48550W        W18431  44.376   5.277   2.222
48551W        W18432   7.833  22.627   4.277
48552W        W18433   0.480   4.288   3.205
48553W        W18434  29.077  28.043  11.433
48554W        W18435  22.738   9.704   3.635
48555W        W18436  36.500  18.156  12.863
48556W        W18437  13.614  13.707   2.670
48557W        W18438  15.735  30.075   2.848
48558W        W18439  22.206  14.705  13.816
48559W        W18440  16.162  38.437  14.857
48560W        W18441  30.921  27.038   4.693
48561W        W18442  20.046  20.103  13.450
48562W        W18443   5.767  21.251   4.198
48563W        W18444  22.557  25.698   1.701
48564W        W18445  19.116  40.914  11.379
48565W        W18446  10.303  13.164   4.128
48566W        W18447  32.603  24.500  13.437
48567W        W18448   7.772  30.071   2.728
48568W        W18449  26.463  41.818  12.975
48569W        W18450  21.136  43.511   1.903
48570W        W18451  24.663  28.071   3.335
48571W        W18452   0.406  30.097  12.037
48572W        W18453  41.440  14.268   3.258
48573W        W18454  31.616  13.344  14.321
48574W        W18455  37.555   6.379  13.521
48575W        W18456   4.827   1.775   3.726
48576W        W18457  40.966  42.834   1.407
48577W        W18458  21.187   2.412   0.856
48578W        W18459   9.279  38.020  10.613
48579W        W18460   7.762  14.190   4.299
48580W        W18461  13.342  39.953   3.199
48581W        W18462  25.144  14.245   5.238
48582W        W18463  32.438  43.816  14.007
48583W        W18464  25.652  15.630  12.028
48584W        W18465  13.666  20.735   4.655
48585W        W18466   1.937  42.919   4.828
48586W        W18467  33.450  12.635  12.927
48587W        W18468  30.038   2.429  13.516
48588W        W18469  24.499  23.072   2.286
48589W        W18470  21.255  11.637  11.903
48590W        W18471  33.515   1.364   0.331
48591W        W18472  32.552  27.998   9.981
48592W        W18473  44.869  22.104  11.114
48593W        W18474   2.470   6.709  12.052
48594W        W18475  15.622  32.920   2.383
48595W        W18476  33.540  37.910  10.921
48596W        W18477   0.341  41.935  12.983
48597W        W18478  17.083  28.631  12.430
48598W        W18479  44.809   7.695   3.327
48599W        W18480  21.513   2.802   1.210
48600W        W18481  27.105  15.649  12.037
48601W        W18482  40.804  33.388   4.217
48602W        W18483  20.133  18.747   4.187
48603W        W18484   7.185  23.550   2.363
48604W        W18485  23.517  32.962  10.901
48605W        W18486  29.101  34.098  13.332
48606W        W18487  43.949  15.658  12.409
48607W        W18488  26.194   8.334   1.744
48608W        W18489  22.574  27.003   3.285
48609W        W18490  31.522  43.874  14.010
48610W        W18491  37.846  40.013   3.762
48611W        W18492   5.228  35.029   1.345
48612W        W18493  27.177  20.543   0.281
48613W        W18494  30.583   4.210   0.882
48614W        W18495   9.812   0.287  13.016
48615W        W18496  17.676  12.656  10.986
48616W        W18497  24.479  20.269  14.493
48617W        W18498  31.978   0.819  13.368
48618W        W18499  39.352   3.423  13.518
48619W        W18500  41.820  44.937   4.804
48620W        W18501  16.809  12.244  13.832
48621W        W18502  22.217  41.915   3.702
48622W        W18503  18.588  33.029  12.576
48623W        W18504  36.998  37.540  11.386
48624W        W18505  31.504  20.101   4.634
48625W        W18506  38.335  43.415   3.664
48626W        W18507  17.202  40.391  10.102
48627W        W18508   9.258  21.694   2.858
48628W        W18509   6.375  22.139   3.214
48629W        W18510  34.610  28.457   4.727
48630W        W18511  28.105   9.760   4.810
48631W        W18512  43.453  13.626  11.584
48632W        W18513  12.638  26.661   0.294
48633W        W18514   1.901  30.559  10.897
48634W        W18515  43.978  18.751   0.796
48635W        W18516  17.064  21.150  14.975
48636W        W18517  22.567   7.348   5.139
48637W        W18518  32.018  29.635  11.897
48638W        W18519  42.280  25.163  10.568
48639W        W18520  11.328  11.197  13.955
48640W        W18521   6.197  28.617  12.057
48641W        W18522  23.574  11.731  12.921
48642W        W18523   7.693   7.857  11.977
48643W        W18524  17.643  35.563  14.792
48644W        W18525   6.790   7.205   4.761
48645W        W18526  12.843  18.264   0.339
48646W        W18527  10.652   3.814   4.346
48647W        W18528  35.465  29.066  13.946
48648W        W18529  37.458  22.043  14.842
48649W        W18530  24.588  39.473  13.352
48650W        W18531  28.155  40.541   4.220
48651W        W18532  20.239  44.864   3.295
48652W        W18533  27.658  17.211   4.251
48653W        W18534  34.410   7.298  12.339
48654W        W18535   9.871  26.562   1.317
48655W        W18536  31.617  14.125  14.336
48656W        W18537  16.696   8.171   3.644
48657W        W18538  29.976  11.768  13.532
48658W        W18539  28.466   2.908  14.514
48659W        W18540   4.876   0.918  11.437
48660W        W18541  20.060  25.138  13.802
48661W        W18542  35.473  41.318   2.226
48662W        W18543  44.467  18.060  13.982
48663W        W18544  34.379  24.198  11.491
48664W        W18545  23.734  24.640   4.320
48665W        W18546  40.381  10.633   1.427
48666W        W18547   6.223  17.087   2.714
48667W        W18548  21.214  29.630  14.278
48668W        W18549  40.033  35.386   4.742
48669W        W18550  10.634  19.212  11.998
48670W        W18551  42.894  36.876   0.256
48671W        W18552  36.497  42.959   3.332
48672W        W18553  40.323   1.975  10.115
48673W        W18554   0.330  10.750   0.832
48674W        W18555  44.921  31.041  14.802
48675W        W18556  10.199  21.561  13.418
48676W        W18557   6.374  25.479  13.819
48677W        W18558  35.369   3.873   1.271
48678W        W18559  26.483  26.599  14.390
48679W        W18560  21.117  20.706   0.285
48680W        W18561  13.658   5.218   4.156
48681W        W18562  32.984  11.344  11.862
48682W        W18563   4.823   4.439  10.972
48683W        W18564  29.992  26.999   4.737
48684W        W18565  39.370  24.538  14.506
48685W        W18566   4.420  38.862  11.883
48686W        W18567  40.497  42.919   2.358
48687W        W18568  32.989  30.572   1.281
48688W        W18569  29.132  15.734   1.331
48689W        W18570  14.268  27.559   4.234
48690W        W18571  39.914   6.207  10.551
48691W        W18572  27.942  23.608   9.981
48692W        W18573  15.121  26.125  10.581
48693W        W18574  34.055  11.260   4.225
48694W        W18575  34.578  11.861   3.715
48695W        W18576  21.610  33.618  13.397
48696W        W18577  39.969  38.469   3.165
48697W        W18578  31.603  33.978  12.972
48698W        W18579   9.807   6.907   0.857
48699W        W18580  16.108   7.408   0.840
48700W        W18581   6.682  31.139  12.840
48701W        W18582  36.078  13.182  10.458
48702W        W18583  37.011   9.793   1.399
48703W        W18584  35.439  43.906   0.372
48704W        W18585  12.614   2.749   1.718
48705W        W18586  21.668   5.774  13.398
48706W        W18587  18.618  15.777   2.283
48707W        W18588   8.797  23.600  11.068
48708W        W18589   5.873   0.839   4.759
48709W        W18590  23.089  21.573  14.300
48710W        W18591   1.762  44.310   4.196
48711W        W18592   4.774  29.427  12.845
48712W        W18593   4.303  13.195   0.461
48713W        W18594   3.747  11.302  14.992
48714W        W18595   9.860  34.451  12.924
48715W        W18596  11.368  29.086  14.770
48716W        W18597  31.017  25.179   5.202
48717W        W18598  11.141  34.558  12.017
48718W        W18599  27.618  22.547  14.377
48719W        W18600  29.999  12.298   0.837
48720W        W18601   1.378  41.900  10.564
48721W        W18602  14.676  34.473  14.355
48722W        W18603  39.852   2.402   1.244
48723W        W18604  32.411  12.226   3.719
48724W        W18605  43.496  41.519  14.292
48725W        W18606  26.564  10.148   0.475
48726W        W18607  27.656  34.888  14.445
48727W        W18608  16.254  35.957  10.925
48728W        W18609  42.942  35.602  14.430
48729W        W18610   9.336  19.088   4.228
48730W        W18611  26.537   7.347  10.950
48731W        W18612  40.015  40.489   4.207
48732W        W18613  15.128  27.979  13.394
48733W        W18614  20.184  32.635   0.367
48734W        W18615  26.084  22.688  13.955
48735W        W18616   8.678  14.742  12.499
48736W        W18617  35.420  43.299  11.895
48737W        W18618  40.991  28.168   1.358
48738W        W18619  17.612  36.575   0.765
48739W        W18620  32.460   2.739  11.001
48740W        W18621  10.371  32.459  11.413
48741W        W18622  31.026  32.998  11.372
48742W        W18623  24.149  29.991   2.351
48743W        W18624  10.321  24.589  14.822
48744W        W18625  32.131  17.787   1.902
48745W        W18626  24.191  44.916   4.139
48746W        W18627   2.782  18.128  14.014
48747W        W18628  27.080  30.549   2.313
48748W        W18629  12.194  30.418  13.835
48749W        W18630   8.792  31.072  10.939
48750W        W18631  26.146  30.610  14.765
48751W        W18632  39.908  41.008  12.444
48752W        W18633  38.983  10.692   2.682
48753W        W18634  37.994  27.592  11.409
48754W        W18635  33.903  27.191  13.022
48755W        W18636  33.996  20.539  11.981
48756W        W18637   8.800  15.755   2.848
48757W        W18638  37.503  37.558   1.884
48758W        W18639  42.395   0.797  13.398
48759W        W18640  24.607   7.893   2.792
48760W        W18641  25.586   1.832   2.306
48761W        W18642  10.673  21.207   4.222
48762W        W18643   1.884   3.436  11.917
48763W        W18644  31.044  40.829   3.690
48764W        W18645  15.106  33.926   0.765
48765W        W18646  14.221  21.172  14.387
48766W        W18647   3.337  23.665  12.476
48767W        W18648  40.905  43.374   4.201
48768W        W18649  41.882  41.036  11.105
48769W        W18650  15.129  34.481   3.721
48770W        W18651  36.387   5.897  14.893
48771W        W18652  18.596  36.492   4.307
48772W        W18653  34.408  21.710   4.726
48773W        W18654  40.303  37.968   4.746
48774W        W18655   3.820  13.251  14.361
48775W        W18656  26.055  37.453  11.541
48776W        W18657  12.696  33.435   3.713
48777W        W18658  25.137  40.939  10.897
48778W        W18659  30.943  26.117   1.376
48779W        W18660  39.380  32.137   4.222
48780W        W18661  33.514  44.867  13.037
48781W        W18662  41.798  38.959   3.349
48782W        W18663   6.905  15.577   1.396
48783W        W18664  26.542  41.533  14.514
48784W        W18665  38.011  42.789  12.083
48785W        W18666   7.786   0.747   4.283
48786W        W18667  15.600  10.662   1.370
48787W        W18668   7.865   0.763   2.366
48788W        W18669   8.661   5.693  12.916
48789W        W18670  36.953  13.238  14.908
48790W        W18671  33.927  18.788   4.812
48791W        W18672  40.424  18.252  10.462
48792W        W18673   0.394   2.395   3.348
48793W        W18674  18.099  36.504   2.281
48794W        W18675  11.327   8.874   3.147
48795W        W18676  12.202  27.540   2.669
48796W        W18677  26.484  32.928   1.721
48797W        W18678  40.956  41.438  14.928
48798W        W18679  23.571  38.367   2.715
48799W        W18680  33.532  31.933   4.219
48800W        W18681  35.376  17.602  13.514
48801W        W18682   9.376  14.744   1.901
48802W        W18683  32.060  13.704   0.789
48803W        W18684  16.108  39.419   0.476
48804W        W18685  33.996   4.765  11.526
48805W        W18686  30.610  24.718  10.601
48806W        W18687  10.821  28.029  12.939
48807W        W18688   2.288  19.050   3.713
48808W        W18689  23.990  12.144  13.533
48809W        W18690  43.487  11.640   3.852
48810W        W18691   2.256   6.919   4.259
48811W        W18692   2.286  42.002  14.337
48812W        W18693  26.543  42.398  14.300
48813W        W18694  42.019  29.534  12.420
48814W        W18695  21.602  30.100   3.710
48815W        W18696  19.188  22.231  11.492
48816W        W18697  40.891  35.053   2.705
48817W        W18698  17.241  18.152   3.313
48818W        W18699  44.505  12.210   2.280
48819W        W18700  19.552  44.972  13.402
48820W        W18701  13.121  38.821  12.846
48821W        W18702  12.171   9.723  11.516
48822W        W18703   8.312  25.537  11.116
48823W        W18704  38.396  40.417   3.245
48824W        W18705  17.594  22.572   4.723
48825W        W18706   4.716  26.471   4.810
48826W        W18707  33.416   3.335  14.392
48827W        W18708   8.749  43.002  13.814
48828W        W18709   5.744  31.609   4.688
48829W        W18710  24.675   3.322   4.619
48830W        W18711   6.308   4.287   0.776
48831W        W18712  34.567  16.199   1.254
48832W        W18713  38.928  42.961   0.247
48833W        W18714  12.312  14.310  11.993
48834W        W18715  28.534  29.615   4.806
48835W        W18716   2.465  35.394  11.952
48836W        W18717  11.665  36.908  13.919
48837W        W18718  22.632   0.308   1.883
48838W        W18719  17.557  18.753  12.897
48839W        W18720  36.076  22.112  14.472
48840W        W18721  34.586   8.804   3.300
48841W        W18722  24.667   8.894   4.660
48842W        W18723  20.262  29.473   4.772
48843W        W18724  34.471  10.208   3.822
48844W        W18725  22.194   2.327   1.270
48845W        W18726   0.382  43.790   4.145
48846W        W18727  22.731  39.414   4.701
48847W        W18728  27.657   1.451   1.354
48848W        W18729  31.037  30.017   0.844
48849W        W18730  28.565   5.876   0.435
48850W        W18731  39.941   7.875   2.681
48851W        W18732  34.945  40.406   1.701
48852W        W18733  10.322  27.112   3.755
48853W        W18734  29.665  26.575   0.727
48854W        W18735   8.805  38.537  14.961
48855W        W18736   8.665  23.237   3.225
48856W        W18737  42.971  42.444   0.274
48857W        W18738  36.401  24.580   3.702
48858W        W18739   8.318  11.276   3.184
48859W        W18740  38.924   2.858  14.798
48860W        W18741  36.962  30.548   0.865
48861W        W18742  27.999  43.475   2.800
48862W        W18743   4.370   7.784   0.329
48863W        W18744  29.604  10.715   0.865
48864W        W18745  43.914  11.145   0.884
48865W        W18746   9.715  39.961   1.329
48866W        W18747   2.783  44.429   0.869
48867W        W18748  16.177   3.269   0.304
48868W        W18749  11.177  31.124  10.111
48869W        W18750  21.108  20.707  10.911
48870W        W18751   2.852   8.163  14.796
48871W        W18752  39.814  24.179   3.207
48872W        W18753  20.106  41.828   0.862
48873W        W18754  40.038   6.874  12.854
48874W        W18755  25.636  33.990   3.842
48875W        W18756  27.057  15.220   3.760
48876W        W18757  35.884  42.020   0.944
48877W        W18758  38.417  38.962   2.889
48878W        W18759  25.610  39.949   5.141
48879W        W18760   3.457  12.300   3.724
48880W        W18761  22.632  15.680   3.836
48881W        W18762  44.978  10.867  13.937
48882W        W18763  12.708   2.841   2.203
48883W        W18764  22.542  29.984  14.939
48884W        W18765  23.495  19.607  11.454
48885W        W18766  36.539  17.174  12.936
48886W        W18767  27.557  30.023   3.745
48887W        W18768  19.630  11.308   1.322
48888W        W18769   9.691   7.850   2.311
48889W        W18770  19.248  37.449  14.924
48890W        W18771  13.119   2.413  14.908
48891W        W18772   2.332  37.548   1.323
48892W        W18773  14.157  36.915  14.002
48893W        W18774   2.804   2.862   1.892
48894W        W18775  36.558  10.181  11.572
48895W        W18776  18.785  38.827  11.122
48896W        W18777  41.865  19.771   4.804
48897W        W18778   2.875  13.308   0.739
48898W        W18779  10.869  35.365  13.396
48899W        W18780  16.692  22.705   2.224
48900W        W18781   6.784  23.625   1.446
48901W        W18782  37.867  35.415  12.464
48902W        W18783  21.523   1.395  11.450
48903W        W18784   5.746  32.470   3.220
48904W        W18785  28.002  32.542  10.011
48905W        W18786  39.995  17.656   0.267
48906W        W18787   3.857  29.531  11.526
48907W        W18788  37.905  10.681  12.428
48908W        W18789  36.499  44.864   5.288
48909W        W18790  39.530  13.745  13.452
48910W        W18791  44.969   0.349   2.798
48911W        W18792  20.763  43.386  11.494
48912W        W18793   8.327   3.815   3.184
48913W        W18794  19.568  29.544   2.774
48914W        W18795  18.118  24.556   4.314
48915W        W18796  31.427  10.370  11.501
48916W        W18797  30.539  16.078  10.466
48917W        W18798   1.240  14.205  13.966
48918W        W18799  13.699  21.519  14.302
48919W        W18800  30.983  39.027  10.146
48920W        W18801   8.175  44.944  12.837
48921W        W18802  28.063  24.672  11.386
48922W        W18803  28.650  12.258   2.785
48923W        W18804  24.636  31.931  13.321
48924W        W18805  33.041   4.294  10.925
48925W        W18806  32.607  13.136   4.133
48926W        W18807   4.411   8.271  10.513
48927W        W18808  11.281  12.623  11.932
48928W        W18809  37.444   7.297   3.755
48929W        W18810  31.073  10.357   0.318
48930W        W18811  23.553   8.328  14.804
48931W        W18812   1.950  36.974  12.441
48932W        W18813  29.943   8.820  10.991
48933W        W18814  29.595   8.324   4.724
48934W        W18815   1.425  40.373  12.399
48935W        W18816  44.766  35.451   0.416
48936W        W18817   1.236  12.782   4.176
48937W        W18818   0.465   1.387   2.331
48938W        W18819  41.990  28.004  10.089
48939W        W18820  42.832  33.597  11.389
48940W        W18821  24.499  39.964   2.797
48941W        W18822  25.182  18.216   2.287
48942W        W18823  17.214  12.828   2.267
48943W        W18824   7.865  18.120   1.227
48944W        W18825  41.406  23.160   1.342
48945W        W18826  44.448  13.602  13.419
48946W        W18827  42.395   2.958  11.608
48947W        W18828  15.645  20.040   1.366
48948W        W18829   0.952  31.417  10.625
48949W        W18830  27.989  42.441  10.473
48950W        W18831   9.316  26.586  12.068
48951W        W18832  43.402   7.788  12.856
48952W        W18833  20.570   0.744  11.889
48953W        W18834  39.828  18.759  11.111
48954W        W18835  23.207  35.572  14.820
48955W        W18836  16.246  24.503  13.397
48956W        W18837  35.944  37.545  11.988
48957W        W18838  43.366  26.508   3.224
48958W        W18839  17.785   1.456  13.396
48959W        W18840  39.406  33.429  11.123
48960W        W18841  35.859   0.930   2.690
48961W        W18842  31.018  37.394  10.892
48962W        W18843  24.071  11.211  14.381
48963W        W18844  12.152  41.819   1.818
48964W        W18845  29.498  34.985  11.965
48965W        W18846  36.040  32.020  13.322
48966W        W18847   0.822  12.329  13.913
48967W        W18848  28.631   5.387   3.749
48968W        W18849   3.782   4.319   3.276
48969W        W18850  37.546  22.534   0.428
48970W        W18851   1.342   3.405  14.765
48971W        W18852  29.610  38.569  11.899
48972W        W18853  13.163   7.379  10.479
48973W        W18854  19.662  18.272   4.339
48974W        W18855  13.678   4.856   1.889
48975W        W18856  11.795  14.703  14.303
48976W        W18857  29.171  25.497   3.864
48977W        W18858  22.066  11.325   2.871
48978W        W18859   4.723  23.132   3.757
48979W        W18860  41.973  36.398   2.776
48980W        W18861  35.083  23.695  10.493
48981W        W18862  28.000   3.432   1.695
48982W        W18863  44.500  35.927  10.608
48983W        W18864  16.609   8.400  11.008
48984W        W18865  22.606  24.511   0.793
48985W        W18866   1.957  16.784   4.186
48986W        W18867  43.012  41.363   3.362
48987W        W18868   6.715  25.475  10.414
48988W        W18869  23.212   6.323  10.467
48989W        W18870  18.592  44.360  12.484
48990W        W18871   6.364   4.370   1.934
48991W        W18872  28.130  13.309   2.714
48992W        W18873  39.925  29.520   2.857
48993W        W18874  42.370   2.257   2.806
48994W        W18875  25.597  21.582   4.256
48995W        W18876   2.855  37.429   4.692
48996W        W18877  42.944  35.444  13.346
48997W        W18878   9.862  35.085   1.909
48998W        W18879   1.366  15.679   0.257
48999W        W18880   4.310  30.040   4.224
49000W        W18881  10.870   6.413  11.592
49001W        W18882  34.991  30.453   1.784
49002W        W18883  25.139  31.432  12.908
49003W        W18884  33.098   5.316   1.771
49004W        W18885  16.167  12.727  13.885
49005W        W18886  25.052  10.221   4.622
49006W        W18887  41.485  34.032  11.026
49007W        W18888   8.248  41.437   4.803
49008W        W18889  35.931  33.449   2.775
49009W        W18890  16.299  30.620  11.065
49010W        W18891  29.652  35.048  14.869
49011W        W18892  15.235  10.819  11.913
49012W        W18893   5.414   4.439   4.220
49013W        W18894   6.681  39.530  10.517
49014W        W18895  11.171  21.570  14.454
49015W        W18896  33.875  12.803   0.762
49016W        W18897  25.578  17.779   4.351
49017W        W18898  11.324   9.388  14.357
49018W        W18899  11.805  36.586   4.624
49019W        W18900  32.535   3.278  14.973
49020W        W18901  36.527  24.214   0.839
49021W        W18902  18.671   7.214   0.469
49022W        W18903  25.062   5.380   4.135
49023W        W18904  27.553  16.683   0.341
49024W        W18905   7.186  22.682   3.816
49025W        W18906  30.638  10.188  10.519
49026W        W18907   8.219  37.475  11.034
49027W        W18908  16.684  23.614  13.410
49028W        W18909   1.369   5.876  12.416
49029W        W18910  41.002  37.456   1.333
49030W        W18911   2.323  10.705  10.983
49031W        W18912   9.371  43.373  12.040
49032W        W18913  38.459  10.875  11.506
49033W        W18914  39.415  16.141  14.895
49034W        W18915  32.446  26.067   0.264
49035W        W18916  27.011  13.105  12.878
49036W        W18917  17.771  26.650  12.954
49037W        W18918   8.780   8.799   0.321
49038W        W18919  11.705  38.996   4.636
49039W        W18920   8.816  11.339   3.845
49040W        W18921  43.297   3.822  14.472
49041W        W18922  15.160   8.286  14.883
49042W        W18923  34.118  31.110   0.909
49043W        W18924  33.968   6.268   0.254
49044W        W18925  23.528   6.759  11.123
49045W        W18926  35.891  40.454  11.494
49046W        W18927  22.611  18.769   2.838
49047W        W18928  42.847   9.702   4.684
49048W        W18929  15.089  12.334  12.572
49049W        W18930  31.029  22.059   0.396
49050W        W18931  20.059  15.213  11.473
49051W        W18932  40.513  32.597   0.270
49052W        W18933  42.447   8.261  11.917
49053W        W18934  30.419   7.759   1.359
49054W        W18935  28.641  31.456   1.740
49055W        W18936  38.025  43.435   3.771
49056W        W18937  38.901  18.788  14.304
49057W        W18938   6.266  18.287   2.809
49058W        W18939  11.284  13.112  12.031
49059W        W18940  21.590  29.113  10.489
49060W        W18941   5.710  32.083  12.876
49061W        W18942   1.925  11.128  12.878
49062W        W18943  33.449  37.017   1.751
49063W        W18944   1.890  24.192   2.767
49064W        W18945  10.763  16.273  10.545
49065W        W18946  19.066  25.097   0.480
49066W        W18947   8.867  24.680  11.545
49067W        W18948  14.290  41.991   1.307
49068W        W18949  29.084  12.298   2.362
49069W        W18950  14.713  15.115  14.417
49070W        W18951   9.272  37.375  12.021
49071W        W18952  21.133  24.173  14.891
49072W        W18953  29.091  39.868  12.847
49073W        W18954  29.664  28.436   0.912
49074W        W18955  20.211   0.475   2.233
49075W        W18956   1.374  36.563  14.317
49076W        W18957  27.646   9.881   2.398
49077W        W18958  33.598   5.392  12.373
49078W        W18959  44.259   5.889   2.846
49079W        W18960  33.955  41.363   1.856
49080W        W18961  40.430   0.348  13.499
49081W        W18962  42.856  24.657  12.924
49082W        W18963  15.697  35.528   5.200
49083W        W18964  42.317  41.340  12.487
49084W        W18965  22.621  23.221  13.842
49085W        W18966  13.694   5.906  13.988
49086W        W18967  33.419  16.587  10.119
49087W        W18968   1.856  15.203  13.064
49088W        W18969  28.607  33.430  12.831
49089W        W18970  21.198   4.392  10.022
49090W        W18971  21.018  36.879   0.890
49091W        W18972  36.574  17.244   3.352
49092W        W18973   9.243  41.887   3.817
49093W        W18974   8.671  16.795  10.920
49094W        W18975  24.227  37.078   4.775
49095W        W18976  10.779  40.512  12.536
49096W        W18977  32.486  10.814  12.463
49097W        W18978   2.246  18.263   0.412
49098W        W18979  25.513   2.933  10.542
49099W        W18980   4.931  19.128   1.814
49100W        W18981  23.158  29.013   3.834
49101W        W18982   8.781  34.902   4.315
49102W        W18983  13.844  32.500   1.890
49103W        W18984  13.186  44.964  12.050
49104W        W18985   6.426  37.061   1.731
49105W        W18986   8.823  26.651  11.454
49106W        W18987  37.376  14.144  13.925
49107W        W18988  27.546  40.337   2.400
49108W        W18989  21.612  30.492   3.296
49109W        W18990   4.824  19.248   4.285
49110W        W18991  16.234  25.701  14.760
49111W        W18992  36.416  31.061  12.392
49112W        W18993  27.027  38.023   1.365
49113W        W18994  34.921  26.541  12.550
49114W        W18995  29.947  36.521   3.833
49115W        W18996   9.191   3.268  12.481
49116W        W18997  27.604  18.706  11.470
49117W        W18998  18.562  32.394  13.959
49118W        W18999  39.397   3.267  12.059
49119W        W19000  15.145  44.416  14.840
49120W        W19001  11.722  37.478   0.424
49121W        W19002  20.723  19.135   2.204
49122W        W19003  23.501  42.346  14.413
49123W        W19004   0.425  43.407  14.465
49124W        W19005  44.845  26.086  10.913
49125W        W19006   7.405   3.262  14.306
49126W        W19007  37.445  25.514   4.222
49127W        W19008   2.290   8.161   2.663
49128W        W19009  33.407  41.003   3.255
49129W        W19010   4.239   6.367   2.845
49130W        W19011   1.754  19.211  10.641
49131W        W19012   4.866  14.708   2.790
49132W        W19013  32.439  43.878  14.416
49133W        W19014  17.708   1.269   1.814
49134W        W19015  27.952  33.081   0.437
49135W        W19016  22.701  36.515  14.014
49136W        W19017  25.985  36.992  12.454
49137W        W19018  20.200   1.455   4.283
49138W        W19019  21.034  34.895  11.482
49139W        W19020  10.321  35.579  12.388
49140W        W19021   5.748  40.488  12.520
49141W        W19022  31.609  37.834  14.998
49142W        W19023  19.564  34.587  12.447
49143W        W19024   9.863  27.086   4.225
49144W        W19025  14.718  39.451   1.237
49145W        W19026   9.649   2.305   4.197
49146W        W19027   0.897  19.558   2.366
49147W        W19028  20.178  27.018   0.878
49148W        W19029  24.135   9.847   2.694
49149W        W19030  41.038   7.755   2.218
49150W        W19031  33.535   4.331  14.433
49151W        W19032  30.540   0.974   4.781
49152W        W19033  16.651   7.840   3.792
49153W        W19034  17.623  31.559  13.980
49154W        W19035   5.275   4.716  10.614
49155W        W19036  12.348  39.420   0.950
49156W        W19037  27.941  39.852   3.163
49157W        W19038   9.335  15.203   4.151
49158W        W19039  39.431   1.426  12.341
49159W        W19040  43.912   3.401   4.304
49160W        W19041  15.716   2.959   4.655
49161W        W19042  15.274   0.922   3.783
49162W        W19043  38.015  38.928   1.345
49163W        W19044  28.600  21.618  12.496
49164W        W19045  15.607  37.337  11.886
49165W        W19046   9.191  11.675  13.417
49166W        W19047  42.892   5.355  11.472
49167W        W19048  33.047  24.198   4.271
49168W        W19049  39.905  19.539   2.669
49169W        W19050  18.058   7.270  13.947
49170W        W19051  14.145  21.080  10.928
49171W        W19052  23.677   0.941   1.261
49172W        W19053  34.450  13.715   4.142
49173W        W19054  12.834  15.752  13.521
49174W        W19055  38.014  31.119  14.008
49175W        W19056  12.297  39.047  11.925
49176W        W19057  22.247  39.377  11.583
49177W        W19058  33.465   3.869   4.613
49178W        W19059   4.269   9.754   2.830
49179W        W19060  17.066  36.542   1.897
49180W        W19061  10.331   8.890  10.939
49181W        W19062  37.047  30.580   1.875
49182W        W19063  17.144   3.827  11.937
49183W        W19064  37.990  36.864  11.521
49184W        W19065   2.315   9.679   1.810
49185W        W19066   1.402   6.356  13.965
49186W        W19067  20.063  33.984   2.370
49187W        W19068  17.084  23.661  11.469
49188W        W19069  33.894   9.389   4.638
49189W        W19070  24.550  30.986  11.864
49190W        W19071  38.506  20.222   1.882
49191W        W19072  44.347   2.377  14.890
49192W        W19073  44.935  12.122  14.031
49193W        W19074  17.798  34.969   0.275
49194W        W19075  25.549  38.454   1.212
49195W        W19076   0.938   3.873  14.909
49196W        W19077   9.649  34.057   2.723
49197W        W19078   7.875  10.845  14.333
49198W        W19079  22.509  20.201  13.940
49199W        W19080  28.018  11.338  14.366
49200W        W19081  18.726  38.005   0.478
49201W        W19082  18.627  26.192   1.260
49202W        W19083   9.150  12.297   4.630
49203W        W19084  17.132  21.599  11.108
49204W        W19085  17.790   5.363  12.399
49205W        W19086  29.484  36.047   5.239
49206W        W19087  35.934   6.256   2.303
49207W        W19088   4.316  39.903  12.437
49208W        W19089  41.788  40.477   0.455
49209W        W19090  29.986  39.433   3.299
49210W        W19091  25.577  32.091   3.767
49211W        W19092  41.427  33.577   0.383
49212W        W19093   4.220   6.789  11.501
49213W        W19094  22.207  42.007  14.929
49214W        W19095  25.581  44.909  11.384
49215W        W19096   4.440  42.344   3.296
49216W        W19097  35.494  19.722  10.480
49217W        W19098  20.188  18.175  12.835
49218W        W19099   0.350  23.673  12.490
49219W        W19100  23.138  28.558   1.252
49220W        W19101  19.725  42.918  11.013
49221W        W19102  44.290   4.849  13.508
49222W        W19103  13.682  26.075  14.481
49223W        W19104  24.563  27.961  11.042
49224W        W19105  37.869  16.649  10.599
49225W        W19106  37.443  30.994  14.497
49226W        W19107  24.974  43.401   4.663
49227W        W19108  32.968  34.389   3.690
49228W        W19109  38.907  23.711  10.926
49229W        W19110  41.870  37.354  11.960
49230W        W19111  13.653   4.846  13.351
49231W        W19112  24.681   6.339   2.734
49232W        W19113  42.858  35.439  13.964
49233W        W19114  37.467  22.069   0.332
49234W        W19115  21.629  41.331  10.438
49235W        W19116   1.381   5.407  12.942
49236W        W19117  13.254  13.737   2.280
49237W        W19118  21.756  32.495  10.508
49238W        W19119   9.395  25.991  11.545
49239W        W19120  13.142  25.082  12.939
49240W        W19121  12.334  24.657   3.149
49241W        W19122  13.166   2.314  14.447
49242W        W19123  29.458   5.888   3.630
49243W        W19124  20.715   9.390   3.833
49244W        W19125   3.846  37.014   4.217
49245W        W19126   8.724  15.264  10.622
49246W        W19127  15.112  36.983   1.373
49247W        W19128  11.267  31.411  14.450
49248W        W19129  31.404  41.970  13.962
49249W        W19130   4.401  32.626  11.957
49250W        W19131  35.594  19.571  11.388
49251W        W19132  36.555  25.629  14.425
49252W        W19133   5.818  32.940   4.321
49253W        W19134  14.305   7.773  13.972
49254W        W19135  44.264   7.853   4.306
49255W        W19136  36.868   5.270  11.926
49256W        W19137  37.377  39.484   4.143
49257W        W19138  23.708  24.976  13.320
49258W        W19139  39.006  30.513  14.860
49259W        W19140  27.518   4.306   4.838
49260W        W19141  12.778  36.993   3.364
49261W        W19142  42.911   6.329  12.063
49262W        W19143  34.444  20.158   3.644
49263W        W19144  19.648  44.983  10.070
49264W        W19145  32.007   9.363   3.206
49265W        W19146  42.850  13.844   3.172
49266W        W19147  28.532  23.662  11.565
49267W        W19148  26.521  42.855  13.515
49268W        W19149   7.352  26.958   3.779
49269W        W19150  31.543  18.201   0.756
49270W        W19151  30.500  29.122   0.272
49271W        W19152  26.483  27.642  13.327
49272W        W19153   5.747  18.084   1.806
49273W        W19154  31.516  23.171   1.371
49274W        W19155  36.404  36.017  11.857
49275W        W19156   1.850   5.426   0.397
49276W        W19157   0.428  30.520  14.346
49277W        W19158  41.335  28.443  11.936
49278W        W19159  14.750  35.889  12.572
49279W        W19160  28.680   9.317  10.930
49280W        W19161  43.429  21.697   2.824
49281W        W19162  16.702   8.698  12.900
49282W        W19163  26.148  21.663  10.585
49283W        W19164   1.830  36.064  11.944
49284W        W19165  29.110  15.667   0.935
49285W        W19166   6.900  19.173  12.961
49286W        W19167   8.705   2.779   0.758
49287W        W19168  35.383  44.929  11.014
49288W        W19169  21.178  43.003  13.531
49289W        W19170  17.110  15.203  14.891
49290W        W19171  17.668  19.147   4.179
49291W        W19172  12.280   8.364  13.920
49292W        W19173  37.348  12.675  11.409
49293W        W19174  27.451   0.285  10.471
49294W        W19175  16.300  22.670   0.334
49295W        W19176   1.758  40.308   1.766
49296W        W19177  26.059   9.857  11.529
49297W        W19178  19.626  20.270   2.845
49298W        W19179  21.572  15.215   0.863
49299W        W19180   0.417   8.307  11.555
49300W        W19181  11.161  14.158   2.708
49301W        W19182  37.479  20.702  12.340
49302W        W19183  39.989  11.753  13.891
49303W        W19184  17.295  12.650   3.720
49304W        W19185   2.352  19.568  13.841
49305W        W19186  41.469  25.494   4.636
49306W        W19187  39.065  36.861   3.779
49307W        W19188   8.864   7.901   4.116
49308W        W19189  40.944  13.305  13.018
49309W        W19190  18.176   9.287   0.772
49310W        W19191  42.861  31.055   4.694
49311W        W19192   9.797  23.124  11.911
49312W        W19193   9.272   4.758   0.323
49313W        W19194  21.582  23.655  14.013
49314W        W19195  39.392  14.282  14.858
49315W        W19196   2.429  32.467  13.387
49316W        W19197   0.962   4.778   2.311
49317W        W19198  43.379  10.732   2.261
49318W        W19199  13.605  20.638   0.890
49319W        W19200  19.136  28.085  11.551
49320W        W19201  13.340  22.595  12.927
49321W        W19202  40.419  38.482   3.698
49322W        W19203  17.703  14.663   0.957
49323W        W19204  43.817  22.238  14.293
49324W        W19205  43.927  34.060  14.322
49325W        W19206   1.759  33.580   2.330
49326W        W19207  15.739  15.618  14.379
49327W        W19208  25.477  15.110  12.413
49328W        W19209  15.216  19.602  13.908
49329W        W19210  32.063   8.888  10.145
49330W        W19211  13.622  25.632   1.933
49331W        W19212  25.478  44.492   4.312
49332W        W19213   1.474  11.279  12.054
49333W        W19214  19.611   6.211  11.494
49334W        W19215  43.275  32.403   4.302
49335W        W19216   3.818  24.532   2.227
49336W        W19217  11.764  41.432   4.690
49337W        W19218  41.297   5.906   2.883
49338W        W19219  10.828  18.603  12.958
49339W        W19220  43.010  22.663   5.284
49340W        W19221   1.465   3.229  11.889
49341W        W19222  11.867  28.040  11.536
49342W        W19223   5.856  34.421  12.962
49343W        W19224  10.678   7.784   3.219
49344W        W19225   0.820  40.374  10.899
49345W        W19226  15.209  37.576   1.815
49346W        W19227   5.228  38.405  12.089
49347W        W19228  44.958  30.086   4.769
49348W        W19229   8.656   5.248  14.421
49349W        W19230  30.526  32.621   2.326
49350W        W19231  29.026  25.106   3.303
49351W        W19232   6.363  12.724   3.793
49352W        W19233  17.774  27.024   1.911
49353W        W19234   2.813   2.263   1.330
49354W        W19235   8.352  32.508   4.174
49355W        W19236  37.383  44.946  13.793
49356W        W19237  35.542  18.659  14.801
49357W        W19238  15.222   4.823   1.812
49358W        W19239  44.819  12.676   1.318
49359W        W19240   9.730   6.686  12.487
49360W        W19241   1.869  11.748  12.392
49361W        W19242  10.290   4.905   2.254
49362W        W19243  35.454  11.693   4.287
49363W        W19244   3.787  43.880   1.833
49364W        W19245  14.791  30.527   2.409
49365W        W19246  13.282  39.904   4.131
49366W        W19247  17.149   9.766  12.851
49367W        W19248  38.501  23.175   2.279
49368W        W19249  35.942  29.962   2.265
49369W        W19250  25.006  10.803   2.344
49370W        W19251  38.478   8.297  14.969
49371W        W19252   6.694  31.999   0.878
49372W        W19253  13.123  11.263   4.669
49373W        W19254  43.846   9.679  11.070
49374W        W19255  21.644  39.356  14.384
49375W        W19256  22.184  15.596   3.158
49376W        W19257  39.878  34.089   2.752
49377W        W19258   0.278  30.653  13.477
49378W        W19259  37.466  29.056   1.837
49379W        W19260  18.205  39.948   3.358
49380W        W19261   8.827  33.939  13.475
49381W        W19262   9.728  16.634  12.015
49382W        W19263  44.473  15.723  13.947
49383W        W19264  10.650  16.775  11.884
49384W        W19265  23.138   5.439  12.347
49385W        W19266  30.641  21.071  10.508
49386W        W19267   8.349  20.694   2.827
49387W        W19268  42.460  25.504   4.145
49388W        W19269  13.737  44.399   0.938
49389W        W19270   6.281  30.966  13.826
49390W        W19271  26.671   7.329  13.515
49391W        W19272  11.755  20.251   0.936
49392W        W19273   0.319  42.385  12.376
49393W        W19274  30.070   3.223  13.957
49394W        W19275   1.379  17.287  13.046
49395W        W19276  35.362  34.480   0.320
49396W        W19277  18.266  35.464  14.764
49397W        W19278   2.910  41.983   0.876
49398W        W19279  25.119   2.806  14.329
49399W        W19280  32.525  40.371   9.967
49400W        W19281  17.219  35.389   1.396
49401W        W19282  42.793  43.836  14.447
49402W        W19283   6.214  10.300   5.083
49403W        W19284  40.494  33.625  12.978
49404W        W19285  15.808   4.731  11.892
49405W        W19286  30.113  36.492  13.871
49406W        W19287  17.116  41.476  13.430
49407W        W19288   6.419  21.195  14.441
49408W        W19289   9.236  43.446  13.386
49409W        W19290  29.600  35.457   2.405
49410W        W19291  23.990  41.953   2.776
49411W        W19292  28.596  33.047  13.394
49412W        W19293  25.063  26.685  13.829
49413W        W19294   9.251  42.821  10.906
49414W        W19295  30.657  28.094   0.820
49415W        W19296   6.885  42.885  12.004
49416W        W19297  20.224  13.302  12.406
49417W        W19298   3.781  44.393   1.329
49418W        W19299  42.904  32.582   0.729
49419W        W19300  37.374   0.968  13.458
49420W        W19301   5.843  18.619   4.829
49421W        W19302   7.823  36.519   1.707
49422W        W19303  37.502  36.922  13.337
49423W        W19304  20.202   8.719  11.971
49424W        W19305  24.691  32.586   2.823
49425W        W19306  32.631  20.766   2.364
49426W        W19307  23.594   0.318   3.374
49427W        W19308   0.866  21.225   3.215
49428W        W19309  11.857  12.241  13.835
49429W        W19310   7.860  34.613   2.325
49430W        W19311  20.166  28.015   1.444
49431W        W19312  14.251  11.775  11.380
49432W        W19313  32.027   8.780   0.835
49433W        W19314  25.677  44.917  12.430
49434W        W19315   4.287  24.998   2.414
49435W        W19316  13.333   8.719  14.404
49436W        W19317  20.658   2.901  11.022
49437W        W19318  43.868  10.747  13.850
49438W        W19319   5.816  39.817  14.979
49439W        W19320  18.601  37.441   0.271
49440W        W19321  44.500  14.819   2.825
49441W        W19322   5.299  42.822   0.412
49442W        W19323   3.881  11.156  12.536
49443W        W19324  21.197  42.863  12.395
49444W        W19325  23.556  21.058  11.916
49445W        W19326  42.877  24.978   0.477
49446W        W19327  10.839  40.979  14.928
49447W        W19328  12.237  29.562   3.855
49448W        W19329  34.117  18.153  11.536
49449W        W19330  44.942  31.599  14.395
49450W        W19331  37.994  30.127   1.763
49451W        W19332   4.861  41.872   1.380
49452W        W19333  11.331  34.489   2.885
49453W        W19334  23.727  33.982  11.877
49454W        W19335  36.571  28.178  14.503
49455W        W19336  38.010  35.516   2.247
49456W        W19337  43.904  35.595   2.242
49457W        W19338  36.369  31.426  14.975
49458W        W19339  21.687  15.223  10.937
49459W        W19340  24.483  18.171   3.313
49460W        W19341  35.006  16.776  13.064
49461W        W19342  17.750   0.842  11.458
49462W        W19343  31.088   6.347  13.444
49463W        W19344   8.339  29.967   1.739
49464W        W19345  28.681   5.847   5.565
49465W        W19346   4.236  17.296   1.739
49466W        W19347  20.702  33.934   2.684
49467W        W19348  36.866  10.804   4.620
49468W        W19349   3.721  34.574   1.353
49469W        W19350  22.160  12.810   0.431
49470W        W19351  15.814  18.699  12.361
49471W        W19352  15.771  17.666   4.606
49472W        W19353  11.275  38.837   1.699
49473W        W19354   7.176   5.784   3.778
49474W        W19355  34.507   8.656  14.864
49475W        W19356  11.707  24.582  13.410
49476W        W19357  13.279  24.216  10.412
49477W        W19358  30.911  42.975  14.455
49478W        W19359  12.188  13.327  14.032
49479W        W19360  28.475  16.614   2.419
49480W        W19361   4.448  43.019  12.533
49481W        W19362  40.934  19.546  12.859
49482W        W19363  12.254   7.707  10.981
49483W        W19364  42.411  23.509  12.505
49484W        W19365  34.507  13.785   4.708
49485W        W19366  35.079  14.258  10.111
49486W        W19367  10.803  35.055  12.854
49487W        W19368   2.390  29.027   1.340
49488W        W19369  11.629  10.301   4.661
49489W        W19370  23.097  11.678   4.150
49490W        W19371  42.912  38.959  12.467
49491W        W19372  19.763  44.423   3.324
49492W        W19373  19.188   5.762   4.709
49493W        W19374  39.949  34.604   4.235
49494W        W19375  37.400  44.492   3.380
49495W        W19376  35.549  23.236  12.574
49496W        W19377  10.815  41.518   2.835
49497W        W19378   1.275  18.234   0.921
49498W        W19379  37.347  19.154  12.932
49499W        W19380  23.214   1.474   1.736
49500W        W19381  11.677  16.616   5.240
49501W        W19382  28.522  41.854  13.007
49502W        W19383  36.047  22.135   4.701
49503W        W19384  24.079   3.798  14.027
49504W        W19385  25.129  32.076   2.279
49505W        W19386  12.844  32.597  12.537
49506W        W19387  38.433  29.163   1.852
49507W        W19388  43.500  41.943   2.778
49508W        W19389   0.319  10.852  14.862
49509W        W19390  39.502  30.057   0.949
49510W        W19391  44.789  23.582   0.820
49511W        W19392   2.795  32.117   2.868
49512W        W19393  23.996  42.975   5.092
49513W        W19394  23.682  17.104   0.923
49514W        W19395  12.241  10.235  11.600
49515W        W19396  30.047  26.477  11.087
49516W        W19397  29.171  42.936   0.935
49517W        W19398  21.180   4.444  10.976
49518W        W19399   6.726  10.315  13.459
49519W        W19400  10.850   5.379   3.841
49520W        W19401   2.887  39.893   3.810
49521W        W19402   1.872   7.768  11.883
49522W        W19403  34.608  13.247   0.810
49523W        W19404  23.183  15.674   4.341
49524W        W19405   6.305  37.367   0.269
49525W        W19406  17.649  32.141   1.332
49526W        W19407  16.084   4.818  10.431
49527W        W19408  20.705  41.450   0.825
49528W        W19409  23.089  42.877  13.437
49529W        W19410   7.866  42.852   0.252
49530W        W19411  25.712   0.484   4.825
49531W        W19412  17.284   6.221  13.426
49532W        W19413  22.515  39.348  11.462
49533W        W19414  17.651  13.274   2.765
49534W        W19415  20.051   5.706  10.059
49535W        W19416   3.423  24.479   4.131
49536W        W19417   7.810  34.079  12.073
49537W        W19418  10.249  20.179   5.103
49538W        W19419  37.399   1.443  11.985
49539W        W19420  38.407  23.493   4.296
49540W        W19421  10.369   0.293  13.353
49541W        W19422  35.001  33.462  14.822
49542W        W19423  10.786  15.810  11.106
49543W        W19424  16.595   8.715   3.239
49544W        W19425  29.932  37.396   0.364
49545W        W19426  40.507  26.006  11.559
49546W        W19427  44.862  18.665   3.826
49547W        W19428  30.130  17.187  11.118
49548W        W19429  22.513  29.006  11.566
49549W        W19430  42.009  10.292  12.023
49550W        W19431  29.649   5.906  10.901
49551W        W19432  14.704  27.993  11.936
49552W        W19433  40.815   2.422  11.405
49553W        W19434  15.621  15.111   1.830
49554W        W19435   2.920   0.350   4.800
49555W        W19436   4.773  27.531  13.949
49556W        W19437  22.170  33.506   2.382
49557W        W19438  32.442   1.438   0.249
49558W        W19439  33.384  39.996   1.744
49559W        W19440  14.777  44.292   1.343
49560W        W19441  11.771  23.656  12.384
49561W        W19442   7.851  32.561  10.920
49562W        W19443  31.411  13.128  13.402
49563W        W19444   4.823  44.343  14.348
49564W        W19445  40.858  30.957   4.263
49565W        W19446  29.040  19.666  10.967
49566W        W19447  12.188  39.401  13.308
49567W        W19448   0.940  12.224  12.870
49568W        W19449  27.560  19.083  12.436
49569W        W19450  34.476  20.597   1.230
49570W        W19451  18.729   5.762  13.024
49571W        W19452  42.334   5.757  13.897
49572W        W19453   5.427  18.544   3.344
49573W        W19454   3.896  23.994   0.837
49574W        W19455   8.823  18.083  14.284
49575W        W19456   3.288  33.038  10.936
49576W        W19457  22.593  32.630   1.711
49577W        W19458  23.102  32.039  14.028
49578W        W19459  29.076  33.983  11.916
49579W        W19460  20.744  33.876   1.364
49580W        W19461   0.439   2.756   1.447
49581W        W19462   3.781  25.062   3.334
49582W        W19463   3.710  10.705  12.381
49583W        W19464   0.273  25.991  13.388
49584W        W19465   9.803  24.616  12.975
49585W        W19466  20.751  19.099  10.448
49586W        W19467  37.513  11.295   1.309
49587W        W19468  28.547   7.345   0.426
49588W        W19469  20.059  38.887   1.403
49589W        W19470  29.546   8.181   9.441
49590W        W19471  24.672  13.300   3.668
49591W        W19472  41.839  10.838   0.918
49592W        W19473  43.909   4.450   4.673
49593W        W19474   1.744  26.557   4.261
49594W        W19475  22.201  37.465  12.569
49595W        W19476  32.575   6.337  11.533
49596W        W19477  21.583  42.984  10.112
49597W        W19478   5.819  42.424  13.312
49598W        W19479  36.555  38.529   4.674
49599W        W19480  42.423  17.708   1.214
49600W        W19481   8.720  37.893  10.968
49601W        W19482  32.115  39.956  10.124
49602W        W19483  28.647  37.369   1.898
49603W        W19484  20.030  13.780  10.518
49604W        W19485  14.726  11.683   1.214
49605W        W19486  21.122  38.822   4.193
49606W        W19487  23.990  36.000   0.796
49607W        W19488  43.020  34.380  14.979
49608W        W19489  27.122  14.773   4.252
49609W        W19490  16.223  11.694   1.821
49610W        W19491   3.895   9.814  12.392
49611W        W19492  33.457  20.101  10.468
49612W        W19493  38.541  25.111   0.872
49613W        W19494   7.277  14.168  14.870
49614W        W19495  22.604  31.057  11.084
49615W        W19496  19.086  21.680  13.042
49616W        W19497   8.782   7.873   0.381
49617W        W19498   5.723  35.026  12.018
49618W        W19499  13.658   7.672  14.354
49619W        W19500  22.119  11.280  13.925
49620W        W19501  41.424  30.984  12.983
49621W        W19502   5.238   0.814  14.815
49622W        W19503  21.207  42.391  12.036
49623W        W19504  24.562  43.799  10.921
49624W        W19505  35.574  34.542  10.437
49625W        W19506  23.553   3.352   0.380
49626W        W19507  29.978   3.824   2.869
49627W        W19508   0.865  42.776  11.446
49628W        W19509  12.184  25.088   0.864
49629W        W19510  35.879   1.466  11.928
49630W        W19511  30.100  35.449  14.279
49631W        W19512   0.875  18.719   1.351
49632W        W19513  43.897   8.189   0.860
49633W        W19514  19.105  38.505  14.973
49634W        W19515  14.241  42.342   4.180
49635W        W19516   3.739   1.962   4.167
49636W        W19517  11.273  25.015  11.999
49637W        W19518  37.504   5.357  14.382
49638W        W19519  10.353  17.156  10.097
49639W        W19520  42.497  16.777  11.946
49640W        W19521   2.337  12.821   1.312
49641W        W19522  21.231  23.592   3.724
49642W        W19523  24.485  21.044   4.722
49643W        W19524  33.623  13.184  11.872
49644W        W19525  22.251  26.177  12.417
49645W        W19526  40.481   8.708  12.018
49646W        W19527  44.344  13.780   0.945
49647W        W19528  14.204   1.475  11.484
49648W        W19529  32.044  19.715  12.897
49649W        W19530   2.275   4.386   0.837
49650W        W19531  24.627  35.547   1.806
49651W        W19532  13.616   0.343   0.376
49652W        W19533  26.561   1.254  14.892
49653W        W19534   1.850  10.138   0.290
49654W        W19535  22.011  23.532  14.766
49655W        W19536  43.373  43.997   0.275
49656W        W19537   5.329  20.039   1.217
49657W        W19538   3.785  20.221  13.003
49658W        W19539  31.418  33.508  14.796
49659W        W19540  25.179  14.665   3.181
49660W        W19541  41.804  20.758   0.264
49661W        W19542  25.051  29.172   2.241
49662W        W19543  29.122   3.460   1.714
49663W        W19544  17.599  20.748   4.660
49664W        W19545  41.318   2.442   0.935
49665W        W19546   2.750  17.100   3.686
49666W        W19547  10.246  42.519  13.345
49667W        W19548  24.190  15.808   5.155
49668W        W19549  37.483  24.667  11.094
49669W        W19550  36.066  13.802   0.373
49670W        W19551  27.025   3.719  12.463
49671W        W19552   7.723  33.405  10.919
49672W        W19553  28.050  40.338   3.835
49673W        W19554  17.162  20.601  10.982
49674W        W19555  34.871  22.999   0.293
49675W        W19556  30.084  16.719  12.502
49676W        W19557   5.391  15.729  10.603
49677W        W19558   3.842   8.752   3.739
49678W        W19559  42.000   0.399  12.538
49679W        W19560  39.909  33.604  13.411
49680W        W19561  37.851  44.480  13.472
49681W        W19562   1.828  24.697  11.885
49682W        W19563   2.803  19.081  13.434
49683W        W19564  10.378   8.343  14.285
49684W        W19565   9.292   9.692   1.802
49685W        W19566  15.584  33.967  10.961
49686W        W19567  24.139  33.113  11.494
49687W        W19568  23.588  41.366   4.327
49688W        W19569  33.071  20.524   4.771
49689W        W19570  29.477  23.626  11.377
49690W        W19571   8.786  17.232  13.326
49691W        W19572  16.275  33.924  14.474
49692W        W19573  24.718   7.326  10.589
49693W        W19574  24.568  10.637   3.813
49694W        W19575  35.090  39.551  10.915
49695W        W19576   3.278  26.028   1.823
49696W        W19577   0.877  37.016  11.031
49697W        W19578  27.129  29.989   4.159
49698W        W19579  20.117  42.984   1.345
49699W        W19580  33.554  20.185  13.917
49700W        W19581  27.529   9.284  13.828
49701W        W19582   4.838  27.595   3.805
49702W        W19583  40.872  36.438   0.797
49703W        W19584   7.752  37.065   3.734
49704W        W19585  29.061  27.155  12.483
49705W        W19586   9.848  33.555  10.590
49706W        W19587   1.841   1.362  10.536
49707W        W19588   7.708  13.296   4.772
49708W        W19589   7.775  17.656  12.955
49709W        W19590  24.595   0.875  13.939
49710W        W19591  32.006  20.736  14.383
49711W        W19592  36.900  18.653   0.259
49712W        W19593  43.334  11.149   4.345
49713W        W19594  17.632   1.300  14.960
49714W        W19595  28.640   3.743  14.906
49715W        W19596   6.267  43.836   1.804
49716W        W19597  12.285  18.136  12.480
49717W        W19598  15.103  22.031  11.998
49718W        W19599  11.133  33.612  10.446
49719W        W19600  12.762  16.600   4.662
49720W        W19601   9.675  12.201  14.854
49721W        W19602  41.947  13.614   3.791
49722W        W19603   5.213  36.011   2.245
49723W        W19604  27.052  14.260  11.387
49724W        W19605  13.191  24.635   0.758
49725W        W19606  33.421  37.479   1.799
49726W        W19607   5.278  22.502  14.934
49727W        W19608  13.315  19.065   4.208
49728W        W19609   2.927  14.793   2.774
49729W        W19610  31.611  33.930  11.519
49730W        W19611  26.587  39.346   0.248
49731W        W19612  28.943  29.990   4.618
49732W        W19613  43.978  25.042   0.954
49733W        W19614  29.550  27.074  12.059
49734W        W19615   9.360  25.708   0.477
49735W        W19616   4.703  24.203  14.342
49736W        W19617   7.409   5.298  12.914
49737W        W19618  22.552  20.234   3.215
49738W        W19619  44.932  18.193  13.991
49739W        W19620  33.098  32.511  10.932
49740W        W19621  11.356  40.871  11.520
49741W        W19622  21.070  23.574   2.322
49742W        W19623  30.933   5.392  12.380
49743W        W19624   2.805   7.757   4.702
49744W        W19625  32.572  12.150   4.135
49745W        W19626  43.810  44.008   2.792
49746W        W19627  39.442  15.275  11.943
49747W        W19628  27.459  44.935  13.849
49748W        W19629  30.022   6.242   0.937
49749W        W19630  15.754  31.492   0.356
49750W        W19631  43.438  30.621  14.830
49751W        W19632  28.147  29.426  14.516
49752W        W19633  15.283  39.355  13.955
49753W        W19634   1.956  29.953  13.355
49754W        W19635  16.169   0.841   2.394
49755W        W19636  15.694  15.299   3.827
49756W        W19637  35.596  19.634  14.300
49757W        W19638  26.517  17.671   1.734
49758W        W19639  28.522  29.556  13.529
49759W        W19640  23.182  16.157  12.052
49760W        W19641  32.898  22.044  10.916
49761W        W19642   4.349  16.745  12.437
49762W        W19643  11.170   5.254   0.802
49763W        W19644   3.710  14.285   2.334
49764W        W19645  19.550  22.547   3.245
49765W        W19646  11.219  39.039  12.360
49766W        W19647  33.487   1.378  13.385
49767W        W19648  16.767  27.504   0.731
49768W        W19649  35.507  42.881   3.652
49769W        W19650  36.581  34.552   2.684
49770W        W19651   0.892   7.326   4.224
49771W        W19652  21.548  20.665  12.087
49772W        W19653   8.828  40.311  12.343
49773W        W19654  27.641  16.665   3.150
49774W        W19655  34.971   2.886   3.326
49775W        W19656  14.822  34.377  10.067
49776W        W19657  25.657  41.001   2.240
49777W        W19658   3.804   0.269   2.675
49778W        W19659  22.074  13.341  10.449
49779W        W19660  24.709  22.715  10.939
49780W        W19661   5.761  23.075   4.697
49781W        W19662  23.504  21.741  12.345
49782W        W19663  18.282  34.927   4.212
49783W        W19664   9.273  37.076  14.347
49784W        W19665  39.383  38.507   4.668
49785W        W19666  21.034  29.984  14.866
49786W        W19667  30.999  42.432  12.012
49787W        W19668   6.252  43.412  14.843
49788W        W19669  35.041  37.946   4.660
49789W        W19670   6.734  23.191   0.954
49790W        W19671  15.329   6.718  14.005
49791W        W19672  27.641  14.220   2.405
49792W        W19673   3.438  24.140  13.041
49793W        W19674  13.803  30.020  14.968
49794W        W19675  43.323  40.822   1.260
49795W        W19676  12.149  38.443   1.865
49796W        W19677  25.625  40.424  14.030
49797W        W19678  28.158   8.182  11.904
49798W        W19679  13.269  16.753  13.504
49799W        W19680   6.890  13.254  11.502
49800W        W19681  32.612  27.604   3.849
49801W        W19682  27.089  10.353   3.288
49802W        W19683  17.689   2.961  14.393
49803W        W19684  41.298  32.531  14.805
49804W        W19685   2.790  38.953  14.994
49805W        W19686  40.511  14.249  13.870
49806W        W19687  35.069  10.375   9.966
49807W        W19688  21.102   5.875  13.993
49808W        W19689  31.126  15.577   2.736
49809W        W19690  16.172  34.449  13.861
49810W        W19691  40.905  18.714  11.938
49811W        W19692  33.402  28.609   1.353
49812W        W19693   9.841  18.777   4.317
49813W        W19694   4.408  37.083   1.840
49814W        W19695  13.244   2.471  12.416
49815W        W19696  24.498  16.090   4.324
49816W        W19697  25.023  35.532   1.316
49817W        W19698  37.573   1.897  12.994
49818W        W19699  27.585  23.575  14.491
49819W        W19700  23.157  32.917  14.282
49820W        W19701  16.318  26.483   3.314
49821W        W19702   3.385  34.004   0.247
49822W        W19703  44.265  38.409   4.240
49823W        W19704  10.355  21.522  11.856
49824W        W19705  23.001  21.182   4.723
49825W        W19706  12.618  31.617   2.190
49826W        W19707   0.836  40.984  11.884
49827W        W19708  22.507  13.677   3.758
49828W        W19709  18.730  18.148  13.932
49829W        W19710  41.817  16.575  13.419
49830W        W19711  41.917  33.947   0.467
49831W        W19712  39.511  29.604  10.974
49832W        W19713  31.929  30.603   2.192
49833W        W19714  32.023  31.648   2.280
49834W        W19715  29.591   2.244   3.336
49835W        W19716  31.553  25.688   2.872
49836W        W19717  12.781  42.829   4.290
49837W        W19718   5.223  37.347   5.105
49838W        W19719  12.682  40.434   0.449
49839W        W19720   8.373  16.569   3.218
49840W        W19721   1.969  28.141   3.343
49841W        W19722  18.187  12.287  13.376
49842W        W19723  30.085   9.364   0.427
49843W        W19724  42.925  35.406   1.816
49844W        W19725  43.505  34.977  14.372
49845W        W19726  33.937  23.501  14.275
49846W        W19727   2.903   9.356  13.514
49847W        W19728  39.337  25.598  13.835
49848W        W19729  16.203  34.421   4.279
49849W        W19730  44.493   7.766  10.502
49850W        W19731  28.443  19.684   0.862
49851W        W19732   0.494  18.561   1.418
49852W        W19733  24.992  15.276   2.822
49853W        W19734  17.294  40.521   3.691
49854W        W19735   0.263  42.416  14.846
49855W        W19736  43.772  19.201  10.512
49856W        W19737  24.126  44.350  10.101
49857W        W19738  40.912  29.072  11.564
49858W        W19739  28.165  11.282   4.611
49859W        W19740   8.674  39.955  10.466
49860W        W19741  43.995  21.037   3.802
49861W        W19742  17.087   6.828  11.868
49862W        W19743  32.483   7.187   4.717
49863W        W19744  15.272  18.747  12.888
49864W        W19745  13.798   2.845   4.735
49865W        W19746   0.807  17.627  11.477
49866W        W19747  29.056  15.696  11.478
49867W        W19748  12.221  20.724   0.467
49868W        W19749  25.546  41.017  14.498
49869W        W19750   9.825   2.866   1.709
49870W        W19751  33.057   8.680   4.227
49871W        W19752  22.601   2.329  10.918
49872W        W19753  12.694   4.768  11.402
49873W        W19754  41.790  25.615  13.382
49874W        W19755  37.436  12.295   3.758
49875W        W19756   4.436   6.225  10.596
49876W        W19757  12.812  37.939  12.884
49877W        W19758  21.170  38.482   4.229
49878W        W19759   5.361  24.184  12.888
49879W        W19760  35.574  41.890   1.336
49880W        W19761   3.215   6.874   0.928
49881W        W19762   7.785   5.242  13.388
49882W        W19763   1.830  32.541  13.803
49883W        W19764  12.290  26.491  11.572
49884W        W19765  19.188  29.975   0.296
49885W        W19766   6.247  25.199  12.503
49886W        W19767  38.350  34.571   1.317
49887W        W19768  27.106   0.454  14.382
49888W        W19769  37.443  25.481   0.309
49889W        W19770  11.705  22.508  13.921
49890W        W19771   1.792  15.626  10.032
49891W        W19772   6.759  35.891   4.131
49892W        W19773  22.676  16.718  14.503
49893W        W19774  19.588  23.637  10.439
49894W        W19775  38.406  28.594   3.178
49895W        W19776  12.327  22.688  10.536
49896W        W19777  16.089  24.167   0.326
49897W        W19778   5.239  21.671   2.313
49898W        W19779  36.909  30.057   4.622
49899W        W19780   4.867  29.060  13.314
49900W        W19781  37.581  30.495   0.346
49901W        W19782  12.834  31.035   3.758
49902W        W19783  42.307  27.145  12.498
49903W        W19784  40.963  13.706  13.337
49904W        W19785  38.475   0.846   4.280
49905W        W19786  17.248  24.124   0.885
49906W        W19787  35.103  24.155  13.470
49907W        W19788  25.672   5.924  14.951
49908W        W19789  42.430  37.932  11.033
49909W        W19790  19.183   3.329  10.994
49910W        W19791  30.576  14.808   0.407
49911W        W19792  20.599   9.851  10.965
49912W        W19793   1.820  26.136  12.521
49913W        W19794   5.696  24.574  13.454
49914W        W19795  36.485  14.134  14.329
49915W        W19796   5.742   1.326   3.281
49916W        W19797   6.717   8.825   0.860
49917W        W19798  43.464  26.006   2.850
49918W        W19799  16.229  15.741   3.245
49919W        W19800  11.703  23.035   1.224
49920W        W19801  40.490   1.882   1.426
49921W        W19802  17.584  13.701   4.601
49922W        W19803  19.780  37.475   0.921
49923W        W19804  18.592   1.444  11.543
49924W        W19805  30.130  40.485   0.775
49925W        W19806  33.423  23.118  14.286
49926W        W19807  11.651  44.871   1.786
49927W        W19808   6.399  30.636  12.946
49928W        W19809  42.819  35.381   0.729
49929W        W19810  36.980  33.395  11.535
49930W        W19811  11.205  15.106  12.471
49931W        W19812  34.570  15.712  12.843
49932W        W19813  13.829  36.896   2.190
49933W        W19814  30.543  20.665  10.925
49934W        W19815  29.602  12.748  14.856
49935W        W19816  19.174  13.289   4.261
49936W        W19817  24.527   3.852  12.402
49937W        W19818  24.687  26.099   4.738
49938W        W19819  25.706   0.972   4.645
49939W        W19820   9.724  14.340  11.535
49940W        W19821  24.620  13.285  11.600
49941W        W19822   6.360  22.522   4.276
49942W        W19823   0.920  39.874   2.674
49943W        W19824  26.614  41.877   3.164
49944W        W19825  13.342  43.292   2.873
49945W        W19826   8.792  30.610  13.972
49946W        W19827  17.722  41.892  14.277
49947W        W19828  26.603  16.811  10.420
49948W        W19829  10.764  24.653  12.946
49949W        W19830  21.586  34.596  12.086
49950W        W19831  34.462  17.748  13.919
49951W        W19832   8.657  29.015  14.332
49952W        W19833  20.557  15.718  14.330
49953W        W19834   8.369  17.596   2.776
49954W        W19835  24.481  30.088   4.694
49955W        W19836  20.679  26.054   2.267
49956W        W19837  34.911  19.779   0.304
49957W        W19838  44.491  29.660  13.038
49958W        W19839  18.194  24.722   3.334
49959W        W19840  15.181  33.425   4.257
49960W        W19841   5.367  20.701   3.778
49961W        W19842  33.887  42.285   3.710
49962W        W19843  34.465   0.382  11.480
49963W        W19844   1.857   5.819   2.729
49964W        W19845  15.264  22.673  12.476
49965W        W19846  37.889  42.310  12.872
49966W        W19847  27.589  30.461   1.824
49967W        W19848  29.075  36.439   2.813
49968W        W19849  44.834  15.687   4.310
49969W        W19850  14.825   6.880   2.731
49970W        W19851  13.722   9.312  10.891
49971W        W19852   9.246  13.841   1.364
49972W        W19853   9.646  32.427   2.818
49973W        W19854  28.025  25.616  11.505
49974W        W19855  31.553  10.781  10.923
49975W        W19856  39.337   7.911   0.938
49976W        W19857  29.582  11.856  11.973
49977W        W19858  10.301  11.353   3.870
49978W        W19859   4.370  17.802  12.909
49979W        W19860  19.273  21.017  14.349
49980W        W19861  24.641   4.301  13.861
49981W        W19862  40.388  36.060   1.913
49982W        W19863  28.113  15.324  10.935
49983W        W19864   6.336  43.415   4.748
49984W        W19865  16.672   0.389   0.362
49985W        W19866  20.225  28.961   2.725
49986W        W19867  26.186  17.156   1.796
49987W        W19868   8.365  40.006   1.275
49988W        W19869  32.436  43.917  12.062
49989W        W19870   1.898   0.411   1.301
49990W        W19871  17.743   1.969  13.387
49991W        W19872   8.661   1.797   1.313
49992W        W19873  11.206  29.079   2.844
49993W        W19874  18.711   8.240  12.465
49994W        W19875  30.144   9.342  13.352
49995W        W19876  13.602  16.300   0.961
49996W        W19877  11.159  15.781   9.609
49997W        W19878  38.331  31.565   0.316
49998W        W19879  34.033  42.989  13.007
49999W        W19880  40.445  24.489  10.490
50000W        W19881  39.925  19.748  12.045
50001W        W19882   0.302   6.194   1.332
50002W        W19883  16.120  16.305   4.329
50003W        W19884  26.979  40.320   1.860
50004W        W19885   3.276  30.011   4.774
50005W        W19886  17.095  13.699  13.064
50006W        W19887   6.261  13.296  10.990
50007W        W19888  43.831   1.253   1.322
50008W        W19889   8.658   8.654  12.360
50009W        W19890   8.893  27.162   0.834
50010W        W19891  41.484  31.514  13.392
50011W        W19892  11.222  21.745   0.444
50012W        W19893  15.134  12.726  12.343
50013W        W19894  17.261  35.440   0.475
50014W        W19895   6.732  21.215  11.900
50015W        W19896  36.010   2.429   4.801
50016W        W19897   5.402   2.430  13.033
50017W        W19898   1.957   4.939  13.463
50018W        W19899  39.837  12.116   2.771
50019W        W19900  18.053  24.226  10.604
50020W        W19901  44.368  11.259   4.610
50021W        W19902  32.614  44.780   0.378
50022W        W19903  10.639  17.285   0.466
50023W        W19904  32.114  25.014   3.295
50024W        W19905  25.201  28.588   2.852
50025W        W19906  23.625  34.510  12.499
50026W        W19907  25.188  20.043  10.475
50027W        W19908  44.868  38.504  10.942
50028W        W19909  17.710  38.354   4.701
50029W        W19910  15.733   5.325  12.954
50030W        W19911  29.173  27.010  10.922
50031W        W19912  24.001  43.902  11.572
50032W        W19913  36.450  36.869   0.799
50033W        W19914  43.965  29.089  14.789
50034W        W19915   4.745  31.042   2.375
50035W        W19916  34.940  10.246   1.274
50036W        W19917  28.067   8.353   3.375
50037W        W19918  14.772  23.523   1.402
50038W        W19919  38.914  37.914  11.887
50039W        W19920  15.093  25.483  10.643
50040W        W19921  44.935  17.635  12.388
50041W        W19922  23.160  25.997  13.461
50042W        W19923  36.959   1.255   0.250
50043W        W19924   5.322  31.902   2.355
50044W        W19925  33.116   0.987   2.296
50045W        W19926  14.801  11.727   4.309
50046W        W19927  23.706  10.246   4.193
50047W        W19928   3.904  36.352   0.884
50048W        W19929  38.349  37.451   4.252
50049W        W19930  29.979   4.307   3.689
50050W        W19931  20.249  16.117   1.857
50051W        W19932  24.657  16.150   3.347
50052W        W19933   4.916  22.567   4.318
50053W        W19934  33.921  15.185   1.440
50054W        W19935  19.603  11.677  11.478
50055W        W19936  32.113  31.999   2.821
50056W        W19937   2.799   3.736  14.934
50057W        W19938  41.940  35.047   0.741
50058W        W19939   2.266  12.761   2.340
50059W        W19940  12.701   0.417  13.004
50060W        W19941   4.269  42.827  13.921
50061W        W19942  33.920  16.079   4.146
50062W        W19943   6.292  39.519  12.554
50063W        W19944  23.677   3.252  10.915
50064W        W19945  27.119  14.694   3.643
50065W        W19946  31.923  27.531  12.918
50066W        W19947  29.533  15.314   4.712
50067W        W19948  38.374  14.749   1.738
50068W        W19949  13.712  11.185   2.281
50069W        W19950   2.938  34.377  14.483
50070W        W19951  35.950   2.891   0.910
50071W        W19952  33.892  20.139   2.693
50072W        W19953  13.198  27.034  11.504
50073W        W19954  42.329  11.807  12.031
50074W        W19955  20.132  43.806   1.775
50075W        W19956  38.512  10.326  10.634
50076W        W19957  15.247  43.012  13.336
50077W        W19958  13.633  22.088   3.315
50078W        W19959   8.658  34.995  10.895
50079W        W19960  13.216  37.995   1.321
50080W        W19961  25.111  28.009   0.480
50081W        W19962  12.169   4.232   1.784
50082W        W19963  10.211  36.842  14.467
50083W        W19964   9.240  14.155   1.269
50084W        W19965   8.832  28.539  14.861
50085W        W19966  37.536  43.950  12.865
50086W        W19967  33.539  29.491  10.542
50087W        W19968  35.865  19.263  10.413
50088W        W19969  26.117  23.583  10.637
50089W        W19970  33.948  24.100  10.607
50090W        W19971   2.370  40.411   3.649
50091W        W19972  38.977  18.240  13.341
50092W        W19973  13.687  30.957  12.528
50093W        W19974   9.180  25.081   4.736
50094W        W19975  11.837  11.740  11.928
50095W        W19976  13.314  17.192  12.888
50096W        W19977  30.454   2.784   0.875
50097W        W19978  17.231  24.542  14.459
50098W        W19979   0.373  25.176  10.418
50099W        W19980   9.726   7.178  12.839
50100W        W19981  39.930  11.353  13.848
50101W        W19982   0.771  31.402  14.782
50102W        W19983  40.890   3.258   4.323
50103W        W19984  27.661  33.098   0.912
50104W        W19985  27.941  14.742  10.472
50105W        W19986   7.779   6.284  14.768
50106W        W19987  32.522  15.210  11.889
50107W        W19988  10.356  19.776  11.044
50108W        W19989   3.452  41.325  11.476
50109W        W19990   2.961  23.193  12.564
50110W        W19991   9.732   5.729  11.082
50111W        W19992  11.857  17.757  12.460
50112W        W19993  14.742  16.664  14.800
50113W        W19994   4.873  38.995   1.764
50114W        W19995  35.425  22.602   4.650
50115W        W19996   7.276  11.289   4.276
50116W        W19997  14.744  23.573  11.870
50117W        W19998   6.841   2.913  12.967
50118W        W19999   7.220  29.176   2.284
50119W        W20000   8.722   3.327  10.052
50120W        W20001  42.350  23.497   0.400
50121W        W20002  37.474   1.294  10.150
50122W        W20003  39.537  33.118   4.167
50123W        W20004   0.374  21.568  11.510
50124W        W20005  20.154  43.948   0.320
50125W        W20006  36.377  12.145   0.770
50126W        W20007   0.941  26.038  13.490
50127W        W20008  42.284  39.865   4.211
50128W        W20009  28.054  33.621  13.399
50129W        W20010  11.648  15.731   5.654
50130W        W20011  19.202  12.840  12.546
50131W        W20012  42.827   7.262  13.884
50132W        W20013   2.460   0.943   0.303
50133W        W20014  19.638   2.322   1.913
50134W        W20015  12.768  15.682   1.710
50135W        W20016  17.792  14.730  11.537
50136W        W20017  11.783  42.410  14.869
50137W        W20018  16.653  10.858   0.305
50138W        W20019   4.388  35.089   2.686
50139W        W20020  36.877   4.805  14.995
50140W        W20021  40.368  41.810  12.067
50141W        W20022  34.472  39.923  14.336
50142W        W20023  44.889  32.142   0.251
50143W        W20024  12.745  42.525  11.905
50144W        W20025  21.539  19.680   3.196
50145W        W20026   1.866   0.485  10.992
50146W        W20027   1.943   0.814  12.894
50147W        W20028  25.683  12.190  11.602
50148W        W20029  39.509  40.367   3.334
50149W        W20030   7.777   0.801   0.962
50150W        W20031  40.996  22.086  11.065
50151W        W20032   2.837  43.272   3.638
50152W        W20033   8.286  35.456  12.987
50153W        W20034  38.043  28.657  10.539
50154W        W20035  41.499  27.556  12.378
50155W        W20036  29.116  34.561   1.271
50156W        W20037  26.540   1.807  11.583
50157W        W20038   9.845  17.110   4.202
50158W        W20039  22.674  27.483  13.990
50159W        W20040   7.231  15.580  12.390
50160W        W20041  23.611  13.703  13.817
50161W        W20042  25.665  26.130  13.504
50162W        W20043  44.899  27.553  11.531
50163W        W20044  37.466  13.179   0.860
50164W        W20045  37.556   2.434   0.373
50165W        W20046  34.020   7.413  11.430
50166W        W20047   7.208  18.217   0.449
50167W        W20048  24.194  43.890   1.787
50168W        W20049  33.427  38.941   2.387
50169W        W20050  19.114   9.376   3.245
50170W        W20051  21.758  44.983  10.033
50171W        W20052  29.116   4.814  14.320
50172W        W20053  42.986  22.669  14.393
50173W        W20054  41.829   4.398  14.330
50174W        W20055  40.305  31.536  11.554
50175W        W20056   2.436  21.130  12.086
50176W        W20057  32.598  16.238  11.421
50177W        W20058  29.963   2.389   3.870
50178W        W20059  15.329   1.344  10.480
50179W        W20060  11.178  44.383   1.912
50180W        W20061  10.334   2.908   2.260
50181W        W20062  41.421   4.765   1.296
50182W        W20063  11.156  13.601  12.469
50183W        W20064   8.265   5.328  11.990
50184W        W20065  30.630   7.733   2.217
50185W        W20066  23.125   6.767  13.455
50186W        W20067  38.516  39.382   4.140
50187W        W20068  28.671  35.394   4.200
50188W        W20069  18.651  30.151   2.302
50189W        W20070  42.469  13.211   1.810
50190W        W20071   7.402  27.040   0.841
50191W        W20072   6.320  38.409   2.677
50192W        W20073  32.523   0.451  11.010
50193W        W20074  11.727  15.699  12.379
50194W        W20075  10.379  36.581   3.670
50195W        W20076   0.455   5.340  10.641
50196W        W20077  13.794  20.050   0.268
50197W        W20078  30.154  34.507   3.153
50198W        W20079  41.354  28.996   2.197
50199W        W20080  35.989   1.238   2.207
50200W        W20081  33.475  27.554  12.972
50201W        W20082  35.024  33.533  13.879
50202W        W20083  28.103  12.120   4.310
50203W        W20084  36.510  19.044  13.962
50204W        W20085   2.245  43.496   1.921
50205W        W20086  15.143   3.946   4.765
50206W        W20087  36.048  17.670  13.876
50207W        W20088  19.126  24.695  14.462
50208W        W20089  16.677  38.054  14.864
50209W        W20090  14.144  31.643  14.819
50210W        W20091  16.792  41.883   0.453
50211W        W20092  12.785   8.304   3.728
50212W        W20093  32.023  42.328   2.812
50213W        W20094  17.094  25.677   4.598
50214W        W20095  19.256  27.512   3.731
50215W        W20096   1.740  38.345   0.920
50216W        W20097   4.776  42.348   1.405
50217W        W20098  31.074   5.727  11.375
50218W        W20099  42.450  25.538   0.429
50219W        W20100  30.920  33.030  14.763
50220W        W20101  23.157  29.172   3.193
50221W        W20102  33.571  40.911  11.883
50222W        W20103   3.436  34.368  10.951
50223W        W20104  21.553  24.660  12.518
50224W        W20105  42.472   9.689  14.871
50225W        W20106  12.719  21.035  10.552
50226W        W20107  19.053  36.566   1.388
50227W        W20108   9.644  24.120  10.495
50228W        W20109  11.824   6.682   1.449
50229W        W20110  26.648  25.531   1.364
50230W        W20111  11.368   7.853   2.396
50231W        W20112  43.869  40.929   4.284
50232W        W20113  40.906  14.675   3.333
50233W        W20114   4.935  24.048  13.835
50234W        W20115   6.902   0.480  13.531
50235W        W20116   2.259  16.749   0.325
50236W        W20117   3.290   6.413   5.248
50237W        W20118  33.409  19.611  12.391
50238W        W20119  27.187  37.573   0.934
50239W        W20120  19.659  38.841  13.948
50240W        W20121  44.801  32.463   4.640
50241W        W20122  21.065   9.383   1.441
50242W        W20123  11.810  37.975   4.804
50243W        W20124  24.052   5.408  13.904
50244W        W20125   7.197  39.482  11.427
50245W        W20126  11.677  35.415  13.015
50246W        W20127  21.525  22.579   0.872
50247W        W20128  23.676   3.882   2.194
50248W        W20129   0.750   3.386   3.169
50249W        W20130  44.937  40.339  14.380
50250W        W20131  36.982  36.851  10.952
50251W        W20132   5.893  25.483  11.962
50252W        W20133  14.604   1.359  10.644
50253W        W20134  33.537  23.558   3.772
50254W        W20135  26.181  23.534  12.900
50255W        W20136  35.392  39.495   4.675
50256W        W20137  22.561  13.121  11.493
50257W        W20138  43.902  30.461  12.425
50258W        W20139  24.531  41.947   4.613
50259W        W20140  31.987  36.076  10.466
50260W        W20141  40.514   3.393  12.873
50261W        W20142  35.994  11.305   1.275
50262W        W20143  20.759  37.860  12.000
50263W        W20144   2.932  27.194   3.657
50264W        W20145  10.272   1.311   0.833
50265W        W20146  12.297  44.972   2.748
50266W        W20147  37.006  32.941   4.703
50267W        W20148  33.422  11.167   4.232
50268W        W20149   7.733   9.843  11.959
50269W        W20150  34.910  42.418   0.730
50270W        W20151  24.705  44.392   0.266
50271W        W20152   2.953  44.437   1.695
50272W        W20153  30.972  27.457   1.776
50273W        W20154   7.813  44.008   3.846
50274W        W20155   1.766   1.257  13.868
50275W        W20156  14.306  16.108  12.488
50276W        W20157  25.622  36.471  12.500
50277W        W20158  19.111  21.607   2.702
50278W        W20159   1.437   0.789  11.575
50279W        W20160  43.275   7.193  14.008
50280W        W20161  18.705  25.105  11.464
50281W        W20162  43.485  18.154   0.934
50282W        W20163  23.028  28.019   0.891
50283W        W20164   6.784  20.724   0.442
50284W        W20165  29.937  17.702  11.584
50285W        W20166  37.838   7.190  13.987
50286W        W20167  34.951  26.025  10.609
50287W        W20168  13.791  24.682  12.511
50288W        W20169  11.163  20.666  13.477
50289W        W20170   8.784   6.842   3.687
50290W        W20171  43.807  21.701  10.549
50291W        W20172  24.021   4.287  14.391
50292W        W20173   6.699   7.323  11.092
50293W        W20174  18.266  11.346  12.491
50294W        W20175  35.458  32.457   1.775
50295W        W20176  40.318  37.441  11.069
50296W        W20177  28.449   0.388   1.292
50297W        W20178  11.345   1.297   2.672
50298W        W20179  39.847   5.383  13.056
50299W        W20180  41.830   0.985   2.826
50300W        W20181  37.449   6.848  11.003
50301W        W20182  23.215  30.108  14.887
50302W        W20183   9.221  31.148  13.021
50303W        W20184  35.962  37.074  13.912
50304W        W20185  18.787   9.687  11.515
50305W        W20186  22.235  43.982   4.737
50306W        W20187   4.914  19.680  12.088
50307W        W20188  44.419  19.261   1.362
50308W        W20189   9.221  21.104   4.180
50309W        W20190   3.898  23.080   2.352
50310W        W20191  41.962  19.132  10.503
50311W        W20192  15.242  43.318   1.269
50312W        W20193   5.852  10.218  13.004
50313W        W20194  39.342  17.195   0.939
50314W        W20195  35.436  30.651  14.784
50315W        W20196  30.033  37.930   3.284
50316W        W20197  43.962  23.069  11.553
50317W        W20198  39.041  43.444  14.760
50318W        W20199  34.053  10.645   3.631
50319W        W20200  33.536   2.472  11.912
50320W        W20201   7.834   1.465   0.429
50321W        W20202  20.637  11.330   1.327
50322W        W20203  23.541   4.924  12.344
50323W        W20204  19.162  33.010   1.230
50324W        W20205  13.666  12.849  14.505
50325W        W20206  16.199  17.760   0.271
50326W        W20207  34.880  19.112  14.808
50327W        W20208  29.937  19.173  11.403
50328W        W20209  40.375  11.278  13.003
50329W        W20210  23.149   4.381   0.369
50330W        W20211  30.512  16.669   2.264
50331W        W20212  34.377  18.157  12.424
50332W        W20213   9.392   9.743  11.943
50333W        W20214   5.857  36.365   2.699
50334W        W20215  10.284  22.024  14.496
50335W        W20216  24.160  12.671   1.740
50336W        W20217  29.499  40.845   4.218
50337W        W20218  15.314   0.777   0.921
50338W        W20219  17.249  34.449   1.820
50339W        W20220  41.405   2.280   3.274
50340W        W20221  23.584   8.900  11.495
50341W        W20222  12.815  29.091   4.769
50342W        W20223   8.356   5.368   0.467
50343W        W20224   3.290  32.580   2.364
50344W        W20225  28.069  34.026  10.911
50345W        W20226   8.796  32.489  14.458
50346W        W20227  35.883  40.951  10.492
50347W        W20228   4.341   6.329  13.045
50348W        W20229  21.591  31.957  13.441
50349W        W20230  15.219   9.691  13.970
50350W        W20231  23.648  26.070  12.002
50351W        W20232   9.334  13.183   4.236
50352W        W20233  32.456  20.151   4.213
50353W        W20234  34.525  22.101  11.978
50354W        W20235  15.696  17.096   5.087
50355W        W20236  21.028  18.138  14.459
50356W        W20237  10.720  12.290  14.275
50357W        W20238  29.923  37.537   2.878
50358W        W20239   4.811  13.685   3.748
50359W        W20240  36.902  12.644  13.885
50360W        W20241  10.297  10.269   3.364
50361W        W20242  34.496   0.864  11.495
50362W        W20243   9.770   3.408   1.295
50363W        W20244  25.081  28.618  10.417
50364W        W20245  19.643   9.764  10.600
50365W        W20246  38.561  11.244   2.224
50366W        W20247  11.864  30.030   9.982
50367W        W20248   7.714  33.016   2.331
50368W        W20249  36.980  30.137  10.943
50369W        W20250  27.594  21.643   0.368
50370W        W20251  12.777  30.581  13.918
50371W        W20252  15.815  20.667  14.885
50372W        W20253  13.656   2.953   1.717
50373W        W20254  41.867  18.123  14.500
50374W        W20255  31.013   8.812  11.928
50375W        W20256  36.061  20.663  14.773
50376W        W20257  27.533   6.236   4.789
50377W        W20258  12.799  17.293   2.702
50378W        W20259  23.170   7.416  14.474
50379W        W20260  42.354  36.513   0.860
50380W        W20261   8.710  13.693  11.865
50381W        W20262  28.015   0.441  12.947
50382W        W20263  41.386  29.116  10.985
50383W        W20264   2.451  33.455   2.307
50384W        W20265  19.244  15.094   0.383
50385W        W20266   7.258  38.498   0.845
50386W        W20267  11.139  30.107   5.321
50387W        W20268  28.947  16.236   4.643
50388W        W20269  42.906  34.964  12.510
50389W        W20270   8.667  30.557   3.234
50390W        W20271  13.253   4.438   4.254
50391W        W20272  31.042  41.936   1.910
50392W        W20273   4.849  12.834  14.922
50393W        W20274  29.611  18.625   2.812
50394W        W20275   1.249   2.803  12.473
50395W        W20276  41.926  23.657  13.325
50396W        W20277   0.392  23.552  11.468
50397W        W20278  15.795  23.613   0.384
50398W        W20279  23.126  34.381  11.974
50399W        W20280   1.474  15.180  13.012
50400W        W20281  41.000  11.246  12.028
50401W        W20282  16.135  12.820  11.051
50402W        W20283  17.208   7.712   0.842
50403W        W20284  36.965   1.480  14.509
50404W        W20285  33.932  44.300   3.222
50405W        W20286  15.133  20.122   1.321
50406W        W20287  15.250   0.860  13.326
50407W        W20288  34.952   2.384  13.313
50408W        W20289  26.128  21.232   0.910
50409W        W20290  20.618  39.364  13.037
50410W        W20291  17.601  26.189  13.895
50411W        W20292   1.401  22.016   2.264
50412W        W20293  40.962  12.743   1.814
50413W        W20294  29.487  14.176   3.369
50414W        W20295  15.799   1.782   1.356
50415W        W20296  33.050   8.301   1.732
50416W        W20297  13.335  29.162   0.956
50417W        W20298  22.694  30.513  14.902
50418W        W20299  21.669  28.013  11.394
50419W        W20300  21.541  24.553   4.705
50420W        W20301  15.275  25.135  11.923
50421W        W20302  36.069  41.811   5.220
50422W        W20303   0.853  43.280   0.334
50423W        W20304   3.342  14.658  11.008
50424W        W20305   8.840  13.655   1.374
50425W        W20306  21.162   4.760   4.727
50426W        W20307  35.093  43.926  11.117
50427W        W20308  14.815  43.375   1.310
50428W        W20309  30.953  13.181   2.287
50429W        W20310  21.580  35.860  10.459
50430W        W20311   4.919  22.060  14.283
50431W        W20312  21.240  40.801   4.178
50432W        W20313  34.050  25.686  14.507
50433W        W20314  17.589  21.044  14.792
50434W        W20315   3.918  21.051   3.836
50435W        W20316   1.433  23.231   1.721
50436W        W20317  34.040  12.750  12.389
50437W        W20318  22.082  19.256  13.487
50438W        W20319  36.527  12.645   5.107
50439W        W20320  25.646  30.607  13.948
50440W        W20321   2.830  40.826   1.854
50441W        W20322  15.237  15.100  13.885
50442W        W20323  13.120  35.045  14.378
50443W        W20324   9.813  40.415  11.985
50444W        W20325  39.344  33.571   4.301
50445W        W20326   6.249   6.894  12.844
50446W        W20327   3.416  33.506  14.393
50447W        W20328   7.748  22.639  14.983
50448W        W20329   6.235  21.249  13.035
50449W        W20330  32.142   6.410  14.884
50450W        W20331  10.712  11.628   2.788
50451W        W20332  42.323  40.814   4.233
50452W        W20333  12.651  24.073  11.427
50453W        W20334   9.776  35.472  11.069
50454W        W20335  33.078   3.457   3.865
50455W        W20336  32.953  35.910   2.378
50456W        W20337   8.690  22.745   1.742
50457W        W20338  20.546  22.107   0.374
50458W        W20339  39.525   2.830   2.727
50459W        W20340  35.926  32.104  11.118
50460W        W20341  22.038  26.138  11.983
50461W        W20342  22.544   1.782  10.596
50462W        W20343   2.810  44.439  14.345
50463W        W20344   3.333  11.637  10.491
50464W        W20345  31.080  40.032   2.255
50465W        W20346  10.168  28.109   0.393
50466W        W20347  36.361  12.673  14.852
50467W        W20348  31.098  39.810  11.904
50468W        W20349  31.623  10.817   1.723
50469W        W20350  36.389  41.859   4.720
50470W        W20351  19.626  15.102  10.979
50471W        W20352   6.215  37.432  13.948
50472W        W20353  33.056  16.602   1.735
50473W        W20354  17.166  34.105  12.008
50474W        W20355  10.268   8.396  13.380
50475W        W20356  32.138   1.836  11.401
50476W        W20357   6.679  19.652   1.223
50477W        W20358  29.989  33.611  14.961
50478W        W20359   9.205  15.780   0.823
50479W        W20360  27.098  33.982   4.273
50480W        W20361  43.469  34.068  10.457
50481W        W20362  12.296   8.353   2.249
50482W        W20363  20.579  23.558   2.821
50483W        W20364   1.797  34.440  13.904
50484W        W20365  18.249  31.128   1.699
50485W        W20366  21.175  28.446   3.300
50486W        W20367   5.207  23.720   0.256
50487W        W20368  15.262  10.679  10.464
50488W        W20369  36.882   0.775   5.787
50489W        W20370   9.663  11.758  12.548
50490W        W20371   4.928  33.568   9.956
50491W        W20372  27.622  24.140   5.084
50492W        W20373   8.877  29.014  10.582
50493W        W20374  20.159  44.411  12.364
50494W        W20375  14.710  24.998   0.362
50495W        W20376  31.980  37.909  14.331
50496W        W20377   4.268   8.333  11.972
50497W        W20378  38.366  19.741   2.844
50498W        W20379   9.655  16.169   4.754
50499W        W20380  33.055  44.387   4.193
50500W        W20381  16.609  13.305  11.391
50501W        W20382   6.732  19.223  10.968
50502W        W20383  26.584  26.150   5.210
50503W        W20384  16.647  21.689  11.422
50504W        W20385  36.926  24.055   2.302
50505W        W20386  21.023  28.119   4.738
50506W        W20387  39.047  16.315  14.803
50507W        W20388   6.910  12.835  11.518
50508W        W20389  32.061  24.486   0.780
50509W        W20390  14.312  28.632   0.341
50510W        W20391  18.265  24.538   1.270
50511W        W20392  40.401   3.374  11.113
50512W        W20393  38.498  36.874  14.287
50513W        W20394  38.569  21.045  11.881
50514W        W20395  30.954  12.741  13.342
50515W        W20396  34.053  38.062   3.690
50516W        W20397   6.762  18.776   4.666
50517W        W20398  12.815  31.097   2.899
50518W        W20399  41.517  35.996  11.880
50519W        W20400   0.334  23.639  13.486
50520W        W20401  13.245   0.447  11.408
50521W        W20402   9.720  12.271   0.295
50522W        W20403  11.866   7.888   3.644
50523W        W20404  28.612  23.687   5.274
50524W        W20405  13.278  10.707  10.895
50525W        W20406   5.705  12.753   3.149
50526W        W20407   4.812  44.288   0.744
50527W        W20408  11.717  44.446  10.951
50528W        W20409  32.115  20.571   0.868
50529W        W20410  27.993  26.494   2.787
50530W        W20411  32.441  22.609   4.716
50531W        W20412   9.649   8.228  13.975
50532W        W20413  41.924  25.666  11.113
50533W        W20414  41.537  17.187  10.462
50534W        W20415   4.728  29.106   2.238
50535W        W20416  29.598  26.684  13.850
50536W        W20417  21.634  34.473  12.952
50537W        W20418   9.699  40.857  12.428
50538W        W20419  11.645  39.531   3.784
50539W        W20420  18.559  20.212   2.821
50540W        W20421  20.727  37.446   0.856
50541W        W20422  41.898  21.699  10.470
50542W        W20423  43.002   8.869  13.420
50543W        W20424  41.333   3.313   0.834
50544W        W20425  36.415   2.390  14.300
50545W        W20426   6.363  44.280   1.914
50546W        W20427   5.755   6.270   4.121
50547W        W20428   6.768   2.729   1.314
50548W        W20429   1.927   5.224  14.921
50549W        W20430  10.771  30.000   2.300
50550W        W20431   7.713   0.259   0.466
50551W        W20432   3.887  24.649  14.933
50552W        W20433  17.300  24.693   1.274
50553W        W20434  16.746  36.866  13.044
50554W        W20435  32.028  36.560  11.529
50555W        W20436   7.831  24.011  10.425
50556W        W20437  19.209   7.668   2.234
50557W        W20438  16.188  39.458  12.047
50558W        W20439  25.077   2.884   1.416
50559W        W20440  32.065   3.226   3.257
50560W        W20441  42.824   4.241  12.541
50561W        W20442  20.084  39.424  12.935
50562W        W20443  19.116   0.794  12.423
50563W        W20444   5.904   7.408  14.866
50564W        W20445   9.733  19.620   1.902
50565W        W20446  27.628   2.966  12.052
50566W        W20447  17.574  36.078   4.240
50567W        W20448  24.037  42.306  12.540
50568W        W20449   6.811  25.531   3.305
50569W        W20450   4.306  13.249   3.806
50570W        W20451   6.377  25.965  11.381
50571W        W20452  30.642  29.954   3.176
50572W        W20453  26.109  22.094   3.335
50573W        W20454   8.858  12.694   0.780
50574W        W20455  27.646  36.896  10.415
50575W        W20456  25.480  15.754   1.298
50576W        W20457   9.367  40.409  10.117
50577W        W20458  33.117  30.484  11.450
50578W        W20459  42.021  44.314   4.226
50579W        W20460  39.889  16.137   0.910
50580W        W20461  21.724  22.683   0.392
50581W        W20462  17.763  34.485  14.345
50582W        W20463  22.153  27.017  11.024
50583W        W20464  22.050   9.262   2.790
50584W        W20465  26.605  22.142  11.971
50585W        W20466   7.859   8.869   5.148
50586W        W20467  12.734  19.208   2.237
50587W        W20468  12.207   6.295   1.277
50588W        W20469  34.083  37.072  10.612
50589W        W20470   2.250   9.750   0.833
50590W        W20471  10.297  36.514  13.962
50591W        W20472   5.734  18.204  11.902
50592W        W20473   1.318  20.713   3.788
50593W        W20474  33.888  41.867  12.548
50594W        W20475  10.633  28.078  11.958
50595W        W20476  18.217   0.978   0.290
50596W        W20477   9.318  10.867   3.851
50597W        W20478  23.192   6.735   0.741
50598W        W20479   0.312  15.154   2.677
50599W        W20480  27.542  40.805  14.910
50600W        W20481  23.992  27.074   4.735
50601W        W20482  43.471  43.353  11.863
50602W        W20483  33.970  34.056  12.395
50603W        W20484  13.132  19.612   5.171
50604W        W20485  42.942  35.489  13.027
50605W        W20486  15.719   1.805   2.851
50606W        W20487  38.440  29.100   4.176
50607W        W20488   4.883  14.315  14.332
50608W        W20489  24.977  15.702   4.745
50609W        W20490   6.319  26.120  11.987
50610W        W20491  42.993  40.946   3.185
50611W        W20492   8.205  17.140  10.455
50612W        W20493  20.051  24.133   2.410
50613W        W20494  23.672  21.697  11.020
50614W        W20495  18.114   7.674  11.515
50615W        W20496  33.380  32.035  13.544
50616W        W20497  19.114   7.189   1.412
50617W        W20498   7.907  25.564   2.306
50618W        W20499  38.961  43.514   0.315
50619W        W20500   5.435  35.568  11.426
50620W        W20501   7.372  33.542  13.434
50621W        W20502  17.140  44.450   3.845
50622W        W20503  23.683   9.742  13.833
50623W        W20504  44.402  42.299   0.928
50624W        W20505   7.840  24.065  14.944
50625W        W20506  32.509  38.007  14.509
50626W        W20507  23.154  32.469  12.855
50627W        W20508  31.407   8.790  12.548
50628W        W20509  32.042  10.227  14.013
50629W        W20510  44.814  33.384  12.579
50630W        W20511  33.093  11.778  14.777
50631W        W20512   5.734  44.958  12.039
50632W        W20513   0.946  21.192   5.151
50633W        W20514  14.205  36.480   0.755
50634W        W20515  31.004  24.534   1.926
50635W        W20516  28.103  23.538   2.727
50636W        W20517  42.826  21.123   1.824
50637W        W20518  35.522  17.600  12.371
50638W        W20519   4.823  35.416   1.919
50639W        W20520   7.820   2.809   2.395
50640W        W20521  29.035   6.743   0.329
50641W        W20522  26.662  19.749  12.995
50642W        W20523  23.610   7.886   3.652
50643W        W20524   0.346  16.092   1.732
50644W        W20525   9.728  42.328   1.306
50645W        W20526  34.988   1.963  13.348
50646W        W20527  14.162  36.883   5.108
50647W        W20528  30.909   9.333  11.110
50648W        W20529  21.735   9.864   2.418
50649W        W20530  25.714  15.234   2.786
50650W        W20531  34.509  12.610  13.970
50651W        W20532  40.841  34.472  11.967
50652W        W20533  20.254   1.833   2.705
50653W        W20534  20.721  39.482  14.280
50654W        W20535  25.993  16.733   3.338
50655W        W20536  31.036  19.548   1.440
50656W        W20537   7.198  38.017  13.909
50657W        W20538  18.173  36.044  14.975
50658W        W20539  41.836   4.914  10.003
50659W        W20540  10.319  30.419  10.461
50660W        W20541  27.104  11.796   1.838
50661W        W20542  26.462  19.579  10.907
50662W        W20543   1.274  24.037   2.251
50663W        W20544  15.618  18.580   0.794
50664W        W20545  38.886  33.529   5.132
50665W        W20546   5.916  12.734  10.436
50666W        W20547  41.861  33.626   5.281
50667W        W20548   0.443   8.365  11.878
50668W        W20549   1.971  10.321  13.459
50669W        W20550  25.118   1.398   0.891
50670W        W20551  20.059  19.175  10.926
50671W        W20552  35.418  36.014  10.450
50672W        W20553  32.580   3.800  12.468
50673W        W20554  21.132   7.858   0.794
50674W        W20555  15.807  43.011  12.030
50675W        W20556  17.194  23.226  14.391
50676W        W20557  20.111  23.532   4.739
50677W        W20558  42.518  27.476  11.095
50678W        W20559  29.461   7.707  12.447
50679W        W20560  13.676  11.302  12.018
50680W        W20561  23.544   6.414  12.484
50681W        W20562  32.912  37.454  12.872
50682W        W20563  40.961   7.780  14.967
50683W        W20564  36.909  26.068  14.495
50684W        W20565   5.794   7.256   2.229
50685W        W20566  10.751  22.583   0.950
50686W        W20567   6.220  19.624   2.757
50687W        W20568  17.205   3.458  11.913
50688W        W20569  17.240  15.154   4.126
50689W        W20570   9.267  36.896  13.416
50690W        W20571   4.767   2.285  11.968
50691W        W20572  12.170  21.663   3.687
50692W        W20573  28.579  17.264  14.884
50693W        W20574  31.541  34.552   3.269
50694W        W20575  29.136  28.512  11.959
50695W        W20576   4.324  23.541   2.313
50696W        W20577   2.868  20.740  10.965
50697W        W20578  19.688  44.803   4.831
50698W        W20579  19.543  26.591  12.375
50699W        W20580  23.108   7.720  12.341
50700W        W20581  33.927   1.952   0.475
50701W        W20582  23.543   1.823  14.968
50702W        W20583   3.317   9.860   2.408
50703W        W20584  39.957  28.599   1.282
50704W        W20585  18.659  22.087  14.349
50705W        W20586   3.440  33.455   2.867
50706W        W20587  38.875   8.887  11.407
50707W        W20588  43.374  31.901   0.902
50708W        W20589  44.273  27.554  13.313
50709W        W20590  24.063  11.130  11.018
50710W        W20591   5.346  30.054   2.785
50711W        W20592  33.394   3.794  12.832
50712W        W20593  13.114  17.205  11.071
50713W        W20594  16.294  17.158  10.947
50714W        W20595  28.130  38.407   4.727
50715W        W20596   3.286  12.639  14.018
50716W        W20597  12.161  27.126   4.323
50717W        W20598  19.605  13.311  13.359
50718W        W20599  12.611  44.427  11.388
50719W        W20600  44.441  20.158   0.249
50720W        W20601   1.367   6.847  10.560
50721W        W20602  43.315  27.123   2.409
50722W        W20603  32.060   7.867  13.520
50723W        W20604  24.042   5.278  12.519
50724W        W20605  10.243  40.049   0.808
50725W        W20606  41.035  10.154  11.108
50726W        W20607  34.597   7.713   0.260
50727W        W20608  35.026  26.985   4.672
50728W        W20609  21.198   1.366  13.462
50729W        W20610  11.322   5.778  10.898
50730W        W20611   4.449  13.159   2.223
50731W        W20612  19.272   8.852  11.584
50732W        W20613   9.359  33.555   0.435
50733W        W20614  13.638  30.504   2.371
50734W        W20615  16.643  23.225   1.915
50735W        W20616  29.931   0.776   2.183
50736W        W20617   9.667   0.938   3.680
50737W        W20618  23.713  22.509  11.125
50738W        W20619  44.363   2.360  10.645
50739W        W20620   8.795  17.219  11.456
50740W        W20621  11.624  34.062   3.851
50741W        W20622  35.951   2.932   4.807
50742W        W20623   0.971  35.999  12.887
50743W        W20624  40.838   7.302  14.980
50744W        W20625  12.655  13.287   5.315
50745W        W20626  33.058  24.138   0.858
50746W        W20627   2.359   2.380  14.807
50747W        W20628  24.687   3.399  12.574
50748W        W20629  43.966  42.856   0.316
50749W        W20630  20.694  34.990   2.195
50750W        W20631  38.559   6.226   4.334
50751W        W20632   3.292  40.053   0.417
50752W        W20633  16.804  25.038   0.869
50753W        W20634  12.807  44.462   0.759
50754W        W20635  29.522  39.011   2.289
50755W        W20636  40.917  28.996   3.850
50756W        W20637  22.028   3.799  11.060
50757W        W20638  22.699  18.253   4.608
50758W        W20639  44.762  40.388  11.112
50759W        W20640   2.962  42.829   1.746
50760W        W20641  42.033   2.894   0.293
50761W        W20642  32.926  27.189  14.968
50762W        W20643  25.167   5.374   0.378
50763W        W20644  44.805  32.568  10.973
50764W        W20645  37.497  22.702   5.195
50765W        W20646  33.005  12.176   3.273
50766W        W20647  14.675   2.858   3.332
50767W        W20648  32.980  29.466   1.853
50768W        W20649  12.700  19.190  14.016
50769W        W20650   6.412  26.691   2.889
50770W        W20651  24.179  37.441   1.324
50771W        W20652  28.453  16.254  10.614
50772W        W20653  27.038  32.121   2.270
50773W        W20654  40.399  25.598  13.463
50774W        W20655  43.931  11.778  10.539
50775W        W20656  24.229  29.560   1.713
50776W        W20657   2.815  15.308   3.313
50777W        W20658  14.173  11.259   0.879
50778W        W20659  43.293  37.414  14.816
50779W        W20660  26.057  18.733   2.898
50780W        W20661  34.470  11.307   2.273
50781W        W20662  19.272   4.819   4.796
50782W        W20663  30.659   0.354  11.916
50783W        W20664  44.481   2.289  11.590
50784W        W20665   8.678  24.983   3.242
50785W        W20666   5.772  34.903  14.934
50786W        W20667  25.042  44.408   4.598
50787W        W20668  39.401   2.275   0.482
50788W        W20669  41.536  34.911  14.934
50789W        W20670  37.054   8.732   0.425
50790W        W20671  26.137  24.071   9.459
50791W        W20672  18.065   8.281  11.553
50792W        W20673  17.132  14.623  13.461
50793W        W20674  16.621   7.818  11.020
50794W        W20675   7.341  37.492  11.538
50795W        W20676  28.094   6.215  12.871
50796W        W20677  23.099  40.043  12.994
50797W        W20678  42.310  37.941  12.339
50798W        W20679   5.309  19.239  11.377
50799W        W20680  29.097  16.254   4.197
50800W        W20681  37.845  17.235  10.977
50801W        W20682  23.996  22.144   0.434
50802W        W20683  38.958  11.790   9.989
50803W        W20684  22.110   9.742   2.752
50804W        W20685  14.207  44.890  10.546
50805W        W20686  21.748  38.862   1.878
50806W        W20687  29.487  31.505   3.724
50807W        W20688  33.952   6.201   4.216
50808W        W20689  40.326  11.859   1.845
50809W        W20690   1.956  22.155   0.736
50810W        W20691  11.164   0.340   0.747
50811W        W20692  30.943  31.413   3.376
50812W        W20693  41.850   6.741   2.336
50813W        W20694  26.659  35.898  10.569
50814W        W20695  35.030  29.428   4.620
50815W        W20696  23.522  20.110  14.767
50816W        W20697   5.345  44.322   2.834
50817W        W20698  38.000  43.778  14.792
50818W        W20699  35.906   2.938   0.402
50819W        W20700  37.899   3.785   2.873
50820W        W20701  41.370  39.461   4.705
50821W        W20702   3.357  39.372  10.464
50822W        W20703   0.957  18.734  10.898
50823W        W20704  29.527   5.430   0.782
50824W        W20705  38.881  34.449   2.760
50825W        W20706   7.394  28.156   3.156
50826W        W20707  43.482   0.259   4.164
50827W        W20708   8.767  11.202  13.442
50828W        W20709   4.423   4.851  14.474
50829W        W20710  31.981   3.797   3.645
50830W        W20711  31.424   2.442   4.772
50831W        W20712  35.589  12.847  12.940
50832W        W20713  12.206  28.524   3.212
50833W        W20714   6.821  24.209   3.700
50834W        W20715   8.818  41.296  11.465
50835W        W20716  15.319  16.299   1.878
50836W        W20717  23.123   2.238  13.052
50837W        W20718  25.168  31.016   3.377
50838W        W20719  24.105  20.717   3.252
50839W        W20720  20.209  33.571   4.694
50840W        W20721  16.718  35.986  12.972
50841W        W20722  24.066  14.765  14.913
50842W        W20723  25.989  40.885  10.966
50843W        W20724  26.203  36.513   3.386
50844W        W20725  22.121  36.966  13.063
50845W        W20726  38.336  10.368   4.664
50846W        W20727  11.306   3.392  10.545
50847W        W20728  15.793  11.839   0.479
50848W        W20729  29.505  32.614  11.442
50849W        W20730  16.157  16.087  11.954
50850W        W20731  30.054  43.329   2.829
50851W        W20732  12.812  13.139  11.577
50852W        W20733  20.755  35.044  10.628
50853W        W20734  15.733  39.411   1.764
50854W        W20735   9.289  13.768   2.882
50855W        W20736  11.637  18.294   3.206
50856W        W20737  37.850  26.001   4.305
50857W        W20738  10.846  13.612  11.066
50858W        W20739  26.010  28.587   4.688
50859W        W20740   3.418  29.067  13.819
50860W        W20741  21.041   5.370  12.899
50861W        W20742  16.775  44.294   3.834
50862W        W20743  28.544  15.244  10.954
50863W        W20744  31.487  31.555  14.015
50864W        W20745  32.615  21.062  14.944
50865W        W20746  14.270  18.609  13.457
50866W        W20747  18.227  18.216  14.895
50867W        W20748  32.522  43.304   4.649
50868W        W20749  35.957  24.982   0.482
50869W        W20750  44.796  11.647   4.721
50870W        W20751  10.331  39.552  10.988
50871W        W20752   3.333  19.087  11.383
50872W        W20753   2.788  15.591  13.029
50873W        W20754  22.677  17.666   3.733
50874W        W20755  27.497   5.918   1.246
50875W        W20756  36.919   8.312   2.351
50876W        W20757  40.034  15.253  14.499
50877W        W20758  15.668  26.628  13.999
50878W        W20759   1.970  10.204  11.049
50879W        W20760  39.959  13.725  12.024
50880W        W20761  26.617  18.071   0.434
50881W        W20762   3.711   1.452  13.846
50882W        W20763  35.464   4.726   0.810
50883W        W20764  44.826  16.641  10.954
50884W        W20765  38.935  21.646   2.232
50885W        W20766  23.499  12.136  14.967
50886W        W20767  41.000  17.268  10.427
50887W        W20768   2.436  25.678   4.724
50888W        W20769  14.109  39.850   4.270
50889W        W20770   2.472  17.181   9.973
50890W        W20771  25.025  13.668  12.439
50891W        W20772  25.687  35.928   3.304
50892W        W20773  11.201  18.175  12.047
50893W        W20774  31.595  15.316   2.179
50894W        W20775  34.044   2.934   2.418
50895W        W20776  17.184  24.230   9.954
50896W        W20777   4.815  31.954   4.116
50897W        W20778  41.904  10.204   2.900
50898W        W20779   4.886  27.564  10.514
50899W        W20780  19.053   0.904  14.964
50900W        W20781  18.693  14.128   1.433
50901W        W20782  14.138  38.946  13.002
50902W        W20783  23.710  30.009   0.757
50903W        W20784  37.526  20.073   4.214
50904W        W20785  28.067  36.067   2.318
50905W        W20786  40.419  30.153  13.382
50906W        W20787  37.518   5.850   0.739
50907W        W20788  12.191  23.014   3.313
50908W        W20789   0.474   7.189  11.393
50909W        W20790  14.312  32.480   2.742
50910W        W20791  42.996  29.664   3.734
50911W        W20792  29.954   3.245  12.435
50912W        W20793   3.753   4.801   2.388
50913W        W20794  30.108  21.166   9.935
50914W        W20795  44.374  19.231  11.502
50915W        W20796  31.564   3.865   3.306
50916W        W20797  11.840  41.474  12.414
50917W        W20798  26.679  32.010  14.922
50918W        W20799   4.405  41.516   0.284
50919W        W20800  40.825   5.234  10.553
50920W        W20801   5.241  12.136   2.765
50921W        W20802   0.382  40.805   3.796
50922W        W20803  44.487  12.219   0.456
50923W        W20804  17.560  11.354   0.296
50924W        W20805   9.280  14.232   4.808
50925W        W20806  34.586  37.909   3.799
50926W        W20807  15.674  24.690  13.396
50927W        W20808  39.354  37.403  14.886
50928W        W20809  10.177  13.653   2.807
50929W        W20810  29.110   2.900  10.436
50930W        W20811   0.363  35.101  13.849
50931W        W20812  43.808  29.067  11.076
50932W        W20813  32.918  26.670  13.911
50933W        W20814  42.959  24.632  11.040
50934W        W20815  18.178  34.084   3.698
50935W        W20816  32.395  27.602   4.173
50936W        W20817  18.650  30.926   1.345
50937W        W20818  25.613  30.919  12.933
50938W        W20819  28.062   5.904   4.228
50939W        W20820  19.276  28.172  14.793
50940W        W20821  27.121  26.649  10.952
50941W        W20822  25.513   6.342   2.213
50942W        W20823  18.644  12.270   2.864
50943W        W20824  41.920  38.871  14.433
50944W        W20825  30.936   0.795   4.719
50945W        W20826  12.301   5.725  14.440
50946W        W20827  29.505  22.087  10.475
50947W        W20828  42.317   9.840  12.915
50948W        W20829  38.000  37.561   2.833
50949W        W20830  16.173  44.861  12.416
50950W        W20831  25.668  41.495   3.321
50951W        W20832  26.166  12.175  10.630
50952W        W20833  37.040  20.067  12.996
50953W        W20834  35.927   5.204  10.530
50954W        W20835  13.682   4.262   1.897
50955W        W20836  33.052   5.809  10.497
50956W        W20837  32.935  38.952  14.982
50957W        W20838  40.430  14.696  10.603
50958W        W20839   6.386  17.125   1.300
50959W        W20840  23.553  14.101  14.495
50960W        W20841  31.424  43.306   2.799
50961W        W20842  42.433  25.578   1.421
50962W        W20843  35.888  38.344  11.976
50963W        W20844   9.363  19.572   1.891
50964W        W20845  42.800  31.633  12.409
50965W        W20846   1.306  37.369   0.843
50966W        W20847  13.784  13.627  14.496
50967W        W20848  14.233  20.039   4.232
50968W        W20849   1.472  40.320  14.824
50969W        W20850  37.936   2.468  12.080
50970W        W20851   3.412  44.417  13.342
50971W        W20852  22.020  30.458   3.348
50972W        W20853  24.589  14.801   0.905
50973W        W20854  39.999  34.108  12.381
50974W        W20855   6.890  28.948   2.261
50975W        W20856   6.710  33.092   0.749
50976W        W20857  29.167  24.508  14.785
50977W        W20858  21.239  34.885   5.259
50978W        W20859  41.357  29.578  12.047
50979W        W20860  28.932   7.386   2.402
50980W        W20861  17.677  40.013  14.761
50981W        W20862  44.779  15.596  10.432
50982W        W20863  15.314  13.206   0.320
50983W        W20864  32.442  24.719  10.905
50984W        W20865  32.405  40.346   4.741
50985W        W20866   0.448   5.917  14.799
50986W        W20867  40.022  38.833   4.751
50987W        W20868   3.768  28.453  11.937
50988W        W20869  20.562  10.326   3.679
50989W        W20870  42.511  29.164  11.908
50990W        W20871  14.653  36.881   2.714
50991W        W20872  30.572  36.909   1.372
50992W        W20873   7.221  28.584   1.418
50993W        W20874  18.199  33.424  10.471
50994W        W20875  42.479   6.700   1.290
50995W        W20876   7.718  20.736   0.873
50996W        W20877  44.339  25.022  14.459
50997W        W20878  22.201  25.512  10.627
50998W        W20879  18.549   6.414   1.231
50999W        W20880  39.872  19.131  13.526
51000W        W20881  19.209  19.179   0.356
51001W        W20882   2.442   6.697  11.557
51002W        W20883  10.140  34.430  14.922
51003W        W20884  37.525  30.628   0.830
51004W        W20885  38.385  28.984  12.484
51005W        W20886  36.418  28.081  11.547
51006W        W20887   7.903  19.574   2.219
51007W        W20888   0.262  38.402   1.331
51008W        W20889  34.505  31.611   3.786
51009W        W20890  22.507  44.852  12.000
51010W        W20891  30.921   3.861   0.270
51011W        W20892  22.571  29.474  10.906
51012W        W20893  34.402  40.347  10.578
51013W        W20894  28.114  32.462   3.755
51014W        W20895  20.740   0.390   2.844
51015W        W20896  35.421  23.510   4.174
51016W        W20897   4.887   2.284  14.868
51017W        W20898  40.537  41.914   2.335
51018W        W20899  14.804  17.687   1.750
51019W        W20900  18.778  40.969  14.428
51020W        W20901  36.531  28.021   0.317
51021W        W20902  33.964  18.547  12.892
51022W        W20903  42.289  14.143   2.894
51023W        W20904  25.207   2.458   3.684
51024W        W20905   3.933  17.698   0.924
51025W        W20906   7.665  37.431   3.346
51026W        W20907  13.777  13.108   1.271
51027W        W20908   2.302  44.345  10.962
51028W        W20909  36.366   4.900  10.016
51029W        W20910  40.366  36.559   1.401
51030W        W20911  22.534  39.348  10.906
51031W        W20912   2.383  28.506   0.938
51032W        W20913  34.910  27.584  14.327
51033W        W20914  22.229   9.864   2.290
51034W        W20915  23.152  41.860  11.097
51035W        W20916   6.371  12.200   0.788
51036W        W20917  33.590  26.500  12.877
51037W        W20918  30.973  39.370   2.776
51038W        W20919  37.073  12.804   1.386
51039W        W20920   3.906  14.266  14.297
51040W        W20921   2.320  25.657   2.280
51041W        W20922  32.023  29.981   1.783
51042W        W20923  42.990  21.140  13.007
51043W        W20924  40.033   3.251  10.913
51044W        W20925  18.643  29.991   4.221
51045W        W20926  37.889  12.662   3.863
51046W        W20927  28.168  42.508   1.256
51047W        W20928  31.450  14.627  11.094
51048W        W20929  42.811  22.744   2.231
51049W        W20930   8.370  40.489  13.869
51050W        W20931  41.325  18.560  12.511
51051W        W20932  10.253  43.338   2.411
51052W        W20933  39.874  27.546  13.506
51053W        W20934   3.945  38.041   0.804
51054W        W20935  32.571  17.692   0.926
51055W        W20936  33.621  14.299   4.832
51056W        W20937  33.618   1.444  13.898
51057W        W20938  37.472  40.913  12.040
51058W        W20939  17.585  39.932   0.351
51059W        W20940  25.477  41.971   1.849
51060W        W20941  25.010  21.262  11.096
51061W        W20942  20.154   7.321   4.222
51062W        W20943  26.492  33.002  14.322
51063W        W20944  42.300  36.071   2.716
51064W        W20945  40.843  27.160  13.419
51065W        W20946  23.998  15.159   0.746
51066W        W20947  38.930   9.732  14.338
51067W        W20948  10.723   4.293  11.991
51068W        W20949   0.381   0.981   2.726
51069W        W20950  21.227  24.981  14.364
51070W        W20951  25.062  43.431   2.757
51071W        W20952  22.201  35.084  11.037
51072W        W20953   0.746   3.428   4.828
51073W        W20954  32.901  17.239   4.155
51074W        W20955  19.659  32.012   3.848
51075W        W20956   4.224  24.101  12.579
51076W        W20957  24.168  39.974  13.403
51077W        W20958  37.547  43.290   2.275
51078W        W20959  11.658  42.468   3.339
51079W        W20960   8.654   7.853   1.372
51080W        W20961  40.024   1.419   1.707
51081W        W20962   1.931   0.454   0.279
51082W        W20963   8.709  12.191   3.677
51083W        W20964  44.839  12.843  11.073
51084W        W20965  13.692  30.139   4.831
51085W        W20966  40.044   6.202   2.758
51086W        W20967   7.848  25.071   3.386
51087W        W20968  39.446   2.922  11.059
51088W        W20969   9.149  41.854   2.673
51089W        W20970   4.773  20.695  12.033
51090W        W20971   8.243  42.943  13.462
51091W        W20972  16.289  43.358   2.242
51092W        W20973   2.260   1.431   1.858
51093W        W20974  35.565   3.909   4.337
51094W        W20975   4.369  40.354   2.751
51095W        W20976  13.117   1.928   4.792
51096W        W20977  44.450   0.416   3.667
51097W        W20978  28.555  22.612  13.479
51098W        W20979  28.109  41.003   1.227
51099W        W20980  39.332  21.210   2.415
51100W        W20981  34.993  21.129  13.975
51101W        W20982  39.416   7.716   1.303
51102W        W20983  43.281  26.007  11.016
51103W        W20984   8.875  38.966  11.600
51104W        W20985  26.683  39.870   2.310
51105W        W20986  18.254   6.691  13.867
51106W        W20987  14.597   7.300   1.380
51107W        W20988   0.346  19.607   1.305
51108W        W20989  41.015   9.236   0.345
51109W        W20990   4.310  31.453   3.285
51110W        W20991  34.394  35.047   0.395
51111W        W20992  26.957  41.465  11.504
51112W        W20993  44.361  15.765   5.238
51113W        W20994  12.170  36.906  10.588
51114W        W20995  16.191  13.651   1.294
51115W        W20996  40.433  16.698   2.378
51116W        W20997  32.401   9.331  11.393
51117W        W20998  30.489  42.925  13.487
51118W        W20999  35.444  10.324  10.453
51119W        W21000  11.155  25.077  13.903
51120W        W21001   2.794  38.973   4.778
51121W        W21002  23.166  31.001   0.893
51122W        W21003  39.818  30.115  12.407
51123W        W21004   1.482  44.852   3.379
51124W        W21005  12.724  43.929   4.166
51125W        W21006  29.546  20.610   3.335
51126W        W21007  17.235  42.855   2.374
51127W        W21008  27.176  32.576   2.405
51128W        W21009   0.482  30.498   4.718
51129W        W21010   4.430   2.957   2.263
51130W        W21011  29.949  14.214   0.835
51131W        W21012  31.450  23.165   2.237
51132W        W21013  22.143   8.767   2.373
51133W        W21014  25.516  24.059  12.844
51134W        W21015   2.262  38.528   3.792
51135W        W21016  24.102  28.057  13.424
51136W        W21017  10.741   2.856   2.662
51137W        W21018  15.703   8.205   1.339
51138W        W21019  40.391  20.601   0.849
51139W        W21020  36.052  41.934  12.041
51140W        W21021  18.154  30.119   0.376
51141W        W21022   6.695  37.853  14.338
51142W        W21023  39.999  33.414   3.272
51143W        W21024  26.460  31.022   3.645
51144W        W21025  26.975  32.486   1.436
51145W        W21026  20.646  42.789   0.841
51146W        W21027  12.777  39.445  11.914
51147W        W21028  11.678  13.143  10.471
51148W        W21029  12.718  43.830   0.342
51149W        W21030  41.819   1.259  10.946
51150W        W21031  34.990  32.111   1.302
51151W        W21032   4.704  33.603  10.998
51152W        W21033  23.566  44.772  12.046
51153W        W21034  24.667  38.939   2.688
51154W        W21035  21.217  31.114   2.816
51155W        W21036  26.990   3.275   1.696
51156W        W21037  20.628  42.429   4.782
51157W        W21038   9.234  30.155   2.380
51158W        W21039   6.287   4.901   1.832
51159W        W21040  44.321  41.306  10.089
51160W        W21041  37.565  15.184  13.027
51161W        W21042  42.969   5.373   1.250
51162W        W21043   7.306  14.801   3.843
51163W        W21044  25.056  30.048  10.896
51164W        W21045  24.656  44.365  14.771
51165W        W21046  29.072  32.087   5.222
51166W        W21047   7.856  39.446  12.008
51167W        W21048  35.488  42.903  12.415
51168W        W21049  42.387  24.142  10.602
51169W        W21050   5.263  27.455  10.502
51170W        W21051  31.057  37.381   4.301
51171W        W21052  30.598  24.701   1.379
51172W        W21053   1.783  24.539   3.852
51173W        W21054  22.133  35.505   1.915
51174W        W21055  28.047  41.825  11.481
51175W        W21056  36.007  25.170  12.009
51176W        W21057  25.963  31.530  14.905
51177W        W21058   0.319   7.384   1.314
51178W        W21059  16.157  39.031  12.440
51179W        W21060  30.051  15.279  11.033
51180W        W21061  12.179  29.019  13.872
51181W        W21062  13.748  24.176   2.886
51182W        W21063  19.640  15.293  12.374
51183W        W21064  19.179   8.761  12.844
51184W        W21065  29.428   0.750   4.706
51185W        W21066  31.533  33.999   1.441
51186W        W21067  11.277  14.316   0.915
51187W        W21068  17.253  44.000   1.803
51188W        W21069  36.909  20.652   4.305
51189W        W21070  33.618  44.372   3.642
51190W        W21071   5.927  10.875   2.676
51191W        W21072   9.384   3.460   9.991
51192W        W21073  29.589  16.631  13.449
51193W        W21074   5.742  43.411  13.510
51194W        W21075   5.241  30.571  12.521
51195W        W21076   4.829  31.596  14.783
51196W        W21077   9.254  29.059  14.801
51197W        W21078  14.757  19.636   0.804
51198W        W21079  37.452   6.877  11.999
51199W        W21080  39.815  11.661   3.722
51200W        W21081   6.849  31.902   4.752
51201W        W21082  37.850  17.670   3.795
51202W        W21083  18.205  17.263   1.699
51203W        W21084  26.611  22.568  11.442
51204W        W21085  15.257  42.432   3.775
51205W        W21086  11.768  15.768   3.373
51206W        W21087  30.954   1.342   1.448
51207W        W21088  35.437  11.342   3.338
51208W        W21089  16.719   7.673   2.723
51209W        W21090  38.403  18.553  11.424
51210W        W21091  24.027  24.646   3.746
51211W        W21092   0.430  23.596  14.281
51212W        W21093  16.713   9.351  14.338
51213W        W21094  15.186  37.930   2.664
51214W        W21095   8.730  23.991   4.752
51215W        W21096  33.025  23.672   1.319
51216W        W21097   0.821  16.646   3.756
51217W        W21098  26.021  44.400   3.797
51218W        W21099   1.758  20.755  10.980
51219W        W21100   7.780  38.523   3.306
51220W        W21101  30.465   0.457   4.601
51221W        W21102  19.277  23.108  11.406
51222W        W21103  22.641  20.097   4.324
51223W        W21104  13.126   1.305   2.378
51224W        W21105  28.596  17.700   1.804
51225W        W21106  42.013  15.292  13.925
51226W        W21107  20.522  21.730  12.355
51227W        W21108  40.045  35.987   1.224
51228W        W21109  11.372  29.938  10.496
51229W        W21110  16.569  20.068  14.297
51230W        W21111  38.424  21.020   3.839
51231W        W21112   3.845  41.398   4.274
51232W        W21113  30.992   6.766  10.463
51233W        W21114   7.721   6.734  14.447
51234W        W21115  14.622  27.534  10.406
51235W        W21116   4.899  32.029   4.766
51236W        W21117  25.005  27.005  14.487
51237W        W21118   4.221  26.183   1.875
51238W        W21119  24.061  36.566   0.917
51239W        W21120   9.157  25.478  10.440
51240W        W21121  14.681  20.228  14.886
51241W        W21122  27.470  44.813   3.250
51242W        W21123   6.861  11.645  10.446
51243W        W21124  11.701  36.007   2.396
51244W        W21125  27.624  24.166   4.171
51245W        W21126  12.247  12.802  11.421
51246W        W21127  10.310  27.122  10.479
51247W        W21128  31.907  16.277  11.524
51248W        W21129  18.782  17.733  10.454
51249W        W21130   4.713  14.184   0.924
51250W        W21131  13.224  33.875  12.567
51251W        W21132  24.071  20.181  11.063
51252W        W21133  35.362  41.306  12.040
51253W        W21134  16.785  13.294   4.336
51254W        W21135  17.061   3.744   3.832
51255W        W21136  12.139  39.402   2.780
51256W        W21137  20.111  35.013   0.819
51257W        W21138  22.224  32.632   2.685
51258W        W21139  27.548  26.607   5.700
51259W        W21140   7.900   3.717   1.728
51260W        W21141  15.714  28.020  12.478
51261W        W21142  42.483  31.076   1.814
51262W        W21143  17.758   6.185  14.802
51263W        W21144  32.123  32.419   4.353
51264W        W21145   4.204  30.428   0.286
51265W        W21146  42.022   3.372  12.576
51266W        W21147  19.205  36.391   3.271
51267W        W21148  27.940  15.811  10.161
51268W        W21149  32.938  12.630  11.095
51269W        W21150  40.329   9.160   1.843
51270W        W21151  10.360   8.673   4.669
51271W        W21152   6.293   3.352  13.951
51272W        W21153   1.241  11.211   0.395
51273W        W21154  15.225   8.351   2.299
51274W        W21155   4.876  42.862  14.025
51275W        W21156  18.661  24.565   0.853
51276W        W21157  23.115  28.177  12.883
51277W        W21158  15.220  39.027   0.368
51278W        W21159  30.004  32.570  10.589
51279W        W21160  10.843  31.024   1.255
51280W        W21161  24.673  23.617  11.050
51281W        W21162  42.294  32.507  11.566
51282W        W21163  28.978  11.219   3.665
51283W        W21164   3.916   3.413  13.502
51284W        W21165   1.371   9.882  14.939
51285W        W21166  33.052  40.389   2.869
51286W        W21167  21.185  13.817   5.098
51287W        W21168  42.833  38.553   1.934
51288W        W21169   6.201  29.157   3.360
51289W        W21170  43.460  14.139  10.637
51290W        W21171  24.201   4.892  14.822
51291W        W21172  28.530  39.845  11.073
51292W        W21173  36.547  10.182  11.116
51293W        W21174  18.208  12.644   1.293
51294W        W21175  14.238  23.210  14.359
51295W        W21176  14.656  38.462   2.819
51296W        W21177  30.645  30.591  14.960
51297W        W21178  12.744  17.709   0.479
51298W        W21179  24.036  17.297  10.896
51299W        W21180  37.430  12.271  14.933
51300W        W21181   6.870   5.384   1.849
51301W        W21182  31.983  36.971  14.770
51302W        W21183  38.012  23.025  13.940
51303W        W21184  22.599   3.410  10.420
51304W        W21185   9.700  14.279  14.977
51305W        W21186  10.648   8.232  13.470
51306W        W21187  15.809  32.413   4.637
51307W        W21188  35.469  34.028   2.755
51308W        W21189   5.320   1.883   4.233
51309W        W21190  43.882  42.365  13.966
51310W        W21191  23.636   4.899   0.735
51311W        W21192  19.712  23.690   2.313
51312W        W21193   7.879  28.933  10.593
51313W        W21194  44.994  33.534   3.238
51314W        W21195   3.740  13.128  10.958
51315W        W21196  36.959  41.882   2.704
51316W        W21197  19.691  24.168   3.185
51317W        W21198  30.155  16.274   3.254
51318W        W21199  36.452  33.575  12.404
51319W        W21200  15.670  28.160   3.856
51320W        W21201  42.436  33.015  10.531
51321W        W21202  38.031   5.856  11.002
51322W        W21203  32.071  35.863  12.839
51323W        W21204  31.132  44.914  10.623
51324W        W21205  12.270  27.978   5.760
51325W        W21206   0.464  34.871   3.230
51326W        W21207  32.936   6.863   0.803
51327W        W21208  37.962  34.017  13.989
51328W        W21209  12.208   8.695  11.523
51329W        W21210  34.541  32.997  12.473
51330W        W21211  16.684  36.854  12.404
51331W        W21212   6.349   2.277   4.332
51332W        W21213  33.576  39.024  10.601
51333W        W21214  20.134  35.570  11.450
51334W        W21215  29.055  38.561  11.950
51335W        W21216   9.358   7.263   2.675
51336W        W21217   4.209  41.401  13.333
51337W        W21218   5.784  17.794   3.164
51338W        W21219   7.380  31.136   0.901
51339W        W21220  23.017  23.611  14.479
51340W        W21221   2.891   7.698  12.916
51341W        W21222  42.496  31.078   3.791
51342W        W21223   7.329  14.151   0.902
51343W        W21224  34.898  23.075   0.813
51344W        W21225   6.248  17.710   2.386
51345W        W21226  30.008  35.469   0.426
51346W        W21227  22.668  44.372   4.332
51347W        W21228  44.998  31.468   1.764
51348W        W21229  22.135  29.947   1.766
51349W        W21230  41.477  10.156  11.419
51350W        W21231  14.683  26.560  14.004
51351W        W21232  18.651  10.200   9.930
51352W        W21233  41.310  26.952  13.903
51353W        W21234  38.359  15.768  11.395
51354W        W21235   3.857  10.332  14.926
51355W        W21236  11.844  10.178  10.934
51356W        W21237  25.711  33.481   0.396
51357W        W21238  34.078  26.486   0.752
51358W        W21239   3.236  24.032  13.451
51359W        W21240   3.951  29.659   0.861
51360W        W21241  44.000   2.365  14.793
51361W        W21242  27.559  39.852  14.485
51362W        W21243  22.250   8.756   0.783
51363W        W21244   6.294  12.253  10.615
51364W        W21245  17.063  16.581   2.415
51365W        W21246  20.522  35.537   2.228
51366W        W21247  39.405  15.677   1.923
51367W        W21248  11.360   6.799  10.595
51368W        W21249  32.602  22.127  14.426
51369W        W21250  40.476  31.016  14.373
51370W        W21251  18.659  13.695   3.739
51371W        W21252  31.956   1.848   1.325
51372W        W21253  27.675   2.354  13.961
51373W        W21254  40.456  36.000   3.636
51374W        W21255   0.463  18.785  13.481
51375W        W21256  29.030  44.966  11.467
51376W        W21257   3.236  43.885   3.385
51377W        W21258  43.828  21.744  14.304
51378W        W21259  44.418   0.333  14.854
51379W        W21260   6.342  30.025   0.285
51380W        W21261  31.056  37.461  14.428
51381W        W21262  37.408  15.194   2.671
51382W        W21263  25.553  20.152   4.835
51383W        W21264  14.187  35.461   0.863
51384W        W21265  36.408  31.565  10.429
51385W        W21266  12.662  28.959   0.895
51386W        W21267   6.854  39.488   1.871
51387W        W21268  21.101  14.303  11.483
51388W        W21269   9.297  29.962   0.317
51389W        W21270  22.221  36.909  11.996
51390W        W21271  36.902  42.903   3.736
51391W        W21272  35.863  19.731   2.400
51392W        W21273  34.115  10.327   2.872
51393W        W21274   9.217   2.735  13.532
51394W        W21275  20.740  42.805   4.186
51395W        W21276  22.179  17.095  12.081
51396W        W21277  23.042   0.746   1.259
51397W        W21278   8.899  30.598   0.795
51398W        W21279  39.949  17.156  14.986
51399W        W21280  32.524  14.650  12.024
51400W        W21281  38.031  36.928  14.317
51401W        W21282  30.027  35.073   0.268
51402W        W21283  43.831   1.237  12.561
51403W        W21284  43.016  20.609   0.451
51404W        W21285  12.741  14.775   4.723
51405W        W21286   7.261   5.241   0.429
51406W        W21287  30.147  23.210  10.445
51407W        W21288  18.778  25.697  12.927
51408W        W21289  33.926  16.245  14.338
51409W        W21290  22.507  15.707   2.412
51410W        W21291  35.057  11.722   0.328
51411W        W21292  32.462   2.821  12.405
51412W        W21293  11.782  24.990  13.548
51413W        W21294  24.983  15.676   1.372
51414W        W21295  26.969  26.576   4.794
51415W        W21296   6.385  10.708  11.917
51416W        W21297  38.927  43.311   3.812
51417W        W21298  35.899   4.800   2.681
51418W        W21299   5.397  11.241  12.344
51419W        W21300  19.746  33.388   5.253
51420W        W21301  25.099  14.204  14.466
51421W        W21302  42.286  33.593  10.606
51422W        W21303  31.130  12.218   2.311
51423W        W21304  42.414  11.292   0.301
51424W        W21305   9.883  32.448  11.606
51425W        W21306  38.958  11.739  14.415
51426W        W21307  17.717  30.914   2.419
51427W        W21308  23.119  32.521   3.746
51428W        W21309   3.831  39.534   1.260
51429W        W21310  29.506  30.583   2.391
51430W        W21311   1.940  25.622  10.887
51431W        W21312  18.551   2.385   3.322
51432W        W21313  35.998  42.467   1.281
51433W        W21314  10.266  17.198   0.878
51434W        W21315  35.003  28.464   0.794
51435W        W21316  21.576  29.559   2.404
51436W        W21317   2.959  12.170  14.963
51437W        W21318   3.895  19.617  14.362
51438W        W21319   9.873   8.798  11.108
51439W        W21320  14.202  11.697   1.365
51440W        W21321   1.738  41.516  13.003
51441W        W21322   7.843  20.205   0.312
51442W        W21323  43.352   4.242  14.508
51443W        W21324  15.580  26.518  13.399
51444W        W21325  20.055  30.958   0.921
51445W        W21326  39.987  15.789   4.193
51446W        W21327   1.317  17.178  11.981
51447W        W21328  18.278  17.681   4.805
51448W        W21329  24.560  15.712   0.786
51449W        W21330  44.374  36.360   4.655
51450W        W21331  19.612  26.647  12.010
51451W        W21332  35.389  35.051   2.779
51452W        W21333   8.317  23.228   1.917
51453W        W21334  40.454  28.504   0.833
51454W        W21335  31.009  34.051   1.275
51455W        W21336  25.698   0.905   3.300
51456W        W21337  21.658  16.744   0.901
51457W        W21338   0.928  44.843   0.436
51458W        W21339  44.332  43.802  12.926
51459W        W21340  31.419  31.137  12.070
51460W        W21341  39.480  18.270  13.872
51461W        W21342   8.352  44.858   1.342
51462W        W21343   9.681  28.523  13.401
51463W        W21344   0.286  36.517  14.890
51464W        W21345  39.418  42.466   4.821
51465W        W21346  38.023  28.176   0.258
51466W        W21347  27.976  29.987  11.921
51467W        W21348  39.361  39.509   3.863
51468W        W21349  39.319  11.233   1.363
51469W        W21350  19.242  39.380   4.114
51470W        W21351  23.181   8.333  14.398
51471W        W21352  25.543  27.004   0.908
51472W        W21353  15.326  11.211   2.375
51473W        W21354   8.241  15.146  14.306
51474W        W21355   3.868  16.777   3.696
51475W        W21356   0.423  15.703  10.645
51476W        W21357  24.031  25.005  10.559
51477W        W21358  16.305   9.864  11.947
51478W        W21359  35.554  20.614  13.438
51479W        W21360  35.914  37.416   3.385
51480W        W21361   2.849   6.321  11.859
51481W        W21362   5.263  26.124   2.357
51482W        W21363  11.814   2.838  12.378
51483W        W21364  33.021   7.338  13.060
51484W        W21365  22.023  30.593   2.231
51485W        W21366  28.984   5.365  14.856
51486W        W21367  31.527  23.085  14.905
51487W        W21368   8.844   2.823  12.551
51488W        W21369  21.038  20.171   1.443
51489W        W21370  13.623   9.287  12.977
51490W        W21371  44.403  24.705   2.741
51491W        W21372  32.910  14.661   1.728
51492W        W21373   3.426  27.170  12.888
51493W        W21374  37.884   4.214  11.504
51494W        W21375  27.940  44.905   3.642
51495W        W21376  33.383  25.638  14.775
51496W        W21377  22.154  36.549  11.546
51497W        W21378  29.636  15.608  10.539
51498W        W21379  20.171   5.272   1.742
51499W        W21380  38.451  44.794  14.998
51500W        W21381   8.793   4.715   1.399
51501W        W21382  40.965  15.298   1.234
51502W        W21383   2.828  30.579  14.431
51503W        W21384  10.321  28.675  11.548
51504W        W21385  18.586  17.266  10.064
51505W        W21386  40.509  34.582   3.778
51506W        W21387  18.100  10.696   2.400
51507W        W21388  19.711  34.488   3.323
51508W        W21389  32.539  43.429   2.283
51509W        W21390  40.885   5.425   2.739
51510W        W21391  23.653  35.512  14.770
51511W        W21392  21.683   4.224   3.217
51512W        W21393  28.502  18.203   3.703
51513W        W21394  11.172   3.800   4.346
51514W        W21395  18.780  31.562  13.027
51515W        W21396  13.327  23.185   1.882
51516W        W21397  18.291  30.599  13.536
51517W        W21398  30.570  16.257  10.891
51518W        W21399  27.560   9.676  13.526
51519W        W21400  23.212   8.703   1.861
51520W        W21401  21.735  23.616   0.454
51521W        W21402  15.215  42.389   1.920
51522W        W21403  21.225  16.193   3.241
51523W        W21404  25.014  20.734   3.338
51524W        W21405  21.043  16.713  12.541
51525W        W21406   2.456  32.947   0.821
51526W        W21407  11.790  35.537  12.571
51527W        W21408  35.879  19.074   2.684
51528W        W21409  23.996   5.746  12.834
51529W        W21410  18.694  10.295  12.529
51530W        W21411  20.168  42.446  12.382
51531W        W21412  39.065   7.312  12.971
51532W        W21413  23.731  12.697  11.605
51533W        W21414  27.654  37.469  12.530
51534W        W21415  29.084  27.593   2.256
51535W        W21416  38.969  44.448   4.607
51536W        W21417  39.351  43.968   3.296
51537W        W21418   0.363   2.418   2.763
51538W        W21419   5.222  26.674   2.827
51539W        W21420  24.660  32.080  13.047
51540W        W21421  18.732  20.206   0.431
51541W        W21422  21.573  32.982   1.408
51542W        W21423  22.594  32.606   1.333
51543W        W21424  25.059   6.878   2.180
51544W        W21425  32.585  36.549   0.349
51545W        W21426  40.461   4.384  12.380
51546W        W21427  36.889  29.473   3.810
51547W        W21428  35.104  13.153  13.443
51548W        W21429  22.230  29.490  13.330
51549W        W21430   3.243  10.336   5.084
51550W        W21431  11.735   0.276  12.512
51551W        W21432  31.991   0.398  12.939
51552W        W21433   9.681  25.068   3.833
51553W        W21434   4.420  14.604   0.837
51554W        W21435  31.900  15.258  10.517
51555W        W21436  15.589  24.666   1.926
51556W        W21437  33.615  35.002   2.401
51557W        W21438  37.052  29.996  13.954
51558W        W21439   4.828   1.871  10.559
51559W        W21440   8.691  22.242  12.866
51560W        W21441  22.183  27.646   2.839
51561W        W21442  42.822   5.301   2.858
51562W        W21443  12.802  39.522   0.253
51563W        W21444  30.106  43.465  11.583
51564W        W21445  11.675  19.635  10.560
51565W        W21446  41.441  14.237   1.821
51566W        W21447  32.521  40.813  10.911
51567W        W21448  44.827   7.402  10.609
51568W        W21449   0.361   9.252   4.638
51569W        W21450   3.737  11.703  13.844
51570W        W21451  17.305  16.632   4.637
51571W        W21452  23.115  20.638  10.616
51572W        W21453  12.181   3.261   1.320
51573W        W21454  33.905  41.391   3.729
51574W        W21455  20.680  39.022  10.411
51575W        W21456  27.611  12.756   3.215
51576W        W21457  22.141  32.954  10.422
51577W        W21458  42.867  17.290   1.872
51578W        W21459   7.229  30.924  11.001
51579W        W21460  11.777   5.321  14.029
51580W        W21461  24.095  41.879   0.430
51581W        W21462  32.415  34.532  12.972
51582W        W21463  19.241  36.518   2.281
51583W        W21464  23.664  15.762   1.347
51584W        W21465   2.841  25.593   3.292
51585W        W21466  29.031  19.545  13.388
51586W        W21467  26.518  36.486  14.356
51587W        W21468  23.675  38.458  12.498
51588W        W21469   5.811  25.990  14.308
51589W        W21470   4.887  43.937   0.258
51590W        W21471  28.026   7.307  12.393
51591W        W21472  41.792  11.853  11.552
51592W        W21473  28.653   7.288  10.522
51593W        W21474  21.218  32.041  12.450
51594W        W21475  10.844  42.401  10.541
51595W        W21476   2.827  34.397   3.336
51596W        W21477  25.963  32.589  10.900
51597W        W21478  17.625  37.031  13.840
51598W        W21479  10.686  34.899   0.947
51599W        W21480  20.226   4.872  13.428
51600W        W21481  15.579  35.859   1.833
51601W        W21482  36.855  36.030   0.756
51602W        W21483  19.712  10.743   3.721
51603W        W21484  25.020  25.626  14.513
51604W        W21485   3.712   0.362  12.389
51605W        W21486  18.122  30.068   2.751
51606W        W21487  44.984  11.341   2.264
51607W        W21488  21.563  12.819  11.967
51608W        W21489   9.366  39.988  12.355
51609W        W21490  31.108  39.006   0.450
51610W        W21491  15.274  39.954  14.936
51611W        W21492  43.883  44.002   3.773
51612W        W21493   4.704  12.759   9.991
51613W        W21494  32.116  25.016   2.328
51614W        W21495  31.477  12.706  13.539
51615W        W21496   5.221  12.247   3.736
51616W        W21497  35.989   6.427   1.928
51617W        W21498   2.439  40.957  10.596
51618W        W21499   5.693  35.463   2.794
51619W        W21500   9.388   5.732   3.222
51620W        W21501  18.737  19.567  14.940
51621W        W21502  25.635  21.069  12.496
51622W        W21503  38.911  27.538  14.422
51623W        W21504  13.835  10.842  13.889
51624W        W21505   9.702  16.292   3.845
51625W        W21506   3.219  39.011   1.905
51626W        W21507  35.931  27.161   1.395
51627W        W21508  20.046  32.575   3.851
51628W        W21509  39.977   4.234  10.985
51629W        W21510  38.022  17.647  10.469
51630W        W21511  15.808   3.779  13.463
51631W        W21512  28.497   5.256  10.580
51632W        W21513  35.964  32.406   4.781
51633W        W21514   5.436   2.451  13.964
51634W        W21515  38.838  22.525   0.374
51635W        W21516  14.591   1.782  10.974
51636W        W21517  16.234  14.340   4.317
51637W        W21518  20.267   0.374   1.322
51638W        W21519  27.193   9.755   1.333
51639W        W21520   0.830  17.672   0.794
51640W        W21521  24.079  23.559  14.785
51641W        W21522  29.574  15.103  12.996
51642W        W21523  13.109  43.939  10.570
51643W        W21524  41.344  24.987  12.469
51644W        W21525  29.471  17.666  11.607
51645W        W21526  28.653  43.347  13.529
51646W        W21527  20.155   6.872   0.913
51647W        W21528   2.390  38.073   3.862
51648W        W21529  26.687  18.756   1.870
51649W        W21530  23.174   0.955  10.480
51650W        W21531  19.760  15.278   4.299
51651W        W21532  20.721  19.744   0.923
51652W        W21533  39.512  36.864   4.329
51653W        W21534  23.634  44.420   3.253
51654W        W21535  23.534  25.025   2.235
51655W        W21536  13.711  27.454  12.067
51656W        W21537  22.678   5.759  12.354
51657W        W21538  22.645  38.437   3.317
51658W        W21539  17.739   6.827   2.839
51659W        W21540  39.936  11.644  13.326
51660W        W21541   2.236  22.746  11.893
51661W        W21542   0.254   2.300   0.299
51662W        W21543  28.436  33.387   1.767
51663W        W21544  36.986  19.222   1.328
51664W        W21545  22.121  22.213   2.739
51665W        W21546  33.521  10.331  14.856
51666W        W21547  21.539  20.685   3.742
51667W        W21548   6.370   2.924   2.397
51668W        W21549  16.093  34.587  12.896
51669W        W21550  14.833   2.720  10.994
51670W        W21551  44.779   9.344  12.851
51671W        W21552  21.549   3.751  13.548
51672W        W21553  18.069  41.389   4.307
51673W        W21554  17.662  16.706  13.980
51674W        W21555  16.608   2.349  11.411
51675W        W21556  39.844  34.572  11.528
51676W        W21557  40.549  15.129  13.820
51677W        W21558  11.729  39.965  13.965
51678W        W21559  30.504  42.949  11.487
51679W        W21560  36.355   6.685  12.912
51680W        W21561  38.543  29.625  12.476
51681W        W21562  28.124  31.474   1.439
51682W        W21563  16.610  44.970   2.759
51683W        W21564  43.343   9.244  13.016
51684W        W21565   5.329  15.666  14.275
51685W        W21566  20.710  24.168   1.231
51686W        W21567  42.487   6.839   0.297
51687W        W21568  11.638   2.855   3.298
51688W        W21569  17.174   1.794   3.715
51689W        W21570  32.465  26.145  12.867
51690W        W21571  10.210  12.335  11.396
51691W        W21572  38.008  14.294   4.792
51692W        W21573  34.087  39.547  12.854
51693W        W21574   8.813   2.758  10.894
51694W        W21575  16.683  18.235   0.731
51695W        W21576  40.874  14.678   2.762
51696W        W21577  18.628  19.163  12.511
51697W        W21578  37.047   1.779  12.475
51698W        W21579  33.107  34.420   1.295
51699W        W21580  17.725  27.174   4.659
51700W        W21581  19.738  30.439   2.358
51701W        W21582   7.872   8.377   4.772
51702W        W21583  37.393  39.016  14.770
51703W        W21584  13.769  40.518   3.327
51704W        W21585   8.323  19.704   2.707
51705W        W21586  21.565  32.886   0.783
51706W        W21587  27.012  20.644  14.989
51707W        W21588  27.530  40.012  10.436
51708W        W21589  35.059  36.032   0.888
51709W        W21590  21.206  34.511   0.936
51710W        W21591  25.711   2.468   2.802
51711W        W21592   4.736  41.964  12.884
51712W        W21593  21.757   8.704  11.381
51713W        W21594  27.609  16.130  11.968
51714W        W21595   7.751  22.528  13.005
51715W        W21596  10.246   1.479  13.869
51716W        W21597  29.156   7.173  10.437
51717W        W21598  25.588  22.023   3.154
51718W        W21599   4.348  19.246   3.692
51719W        W21600   6.849  25.065  11.462
51720W        W21601  22.545  40.486   5.303
51721W        W21602   7.360  17.070   2.380
51722W        W21603  15.300  17.700   2.783
51723W        W21604  29.658   5.329   2.892
51724W        W21605  17.170  31.634   3.307
51725W        W21606  43.853  40.303   3.847
51726W        W21607   0.269  29.165   2.270
51727W        W21608   0.411  22.607   2.681
51728W        W21609  20.058  33.561  14.948
51729W        W21610  31.518   0.441   1.881
51730W        W21611  38.054  34.375   2.231
51731W        W21612  33.487  24.054   4.345
51732W        W21613   1.472  21.679   3.305
51733W        W21614  43.768  18.569  14.977
51734W        W21615  16.079  38.561   3.265
51735W        W21616  21.216   9.275  14.774
51736W        W21617   7.183   4.310  11.935
51737W        W21618  10.282   2.261  14.281
51738W        W21619  36.352  25.657  12.422
51739W        W21620  41.467  34.964  12.512
51740W        W21621  30.094  40.533  14.762
51741W        W21622  21.645  42.371   2.342
51742W        W21623  43.485   5.840   1.892
51743W        W21624  17.224  18.056  14.890
51744W        W21625  40.465  41.873  14.902
51745W        W21626  28.626  26.021  10.419
51746W        W21627  38.863   3.226   1.794
51747W        W21628  27.959  10.879  11.098
51748W        W21629   7.175  13.254   3.174
51749W        W21630  15.745  41.938   3.235
51750W        W21631   8.403  40.521  13.059
51751W        W21632  25.076   6.406  13.366
51752W        W21633  24.629  29.094  11.919
51753W        W21634   5.439   9.250   3.865
51754W        W21635  21.581   0.261   9.977
51755W        W21636  34.108  30.081   2.743
51756W        W21637  24.479  34.510  13.819
51757W        W21638  32.943  31.580   4.135
51758W        W21639  41.961  31.138  11.430
51759W        W21640  29.570  31.443  11.977
51760W        W21641  12.216  31.903  14.470
51761W        W21642   5.314  27.079   3.258
51762W        W21643  11.680  29.626   1.908
51763W        W21644   2.280  26.964   1.800
51764W        W21645  18.183  29.614  11.526
51765W        W21646   0.768  21.187  10.639
51766W        W21647  42.415  34.913  11.893
51767W        W21648   3.777  20.589   3.197
51768W        W21649  27.975   5.238   9.937
51769W        W21650   5.266  30.423   4.714
51770W        W21651  25.535  15.105   2.372
51771W        W21652  12.718  23.645   0.285
51772W        W21653  10.680   7.377   5.242
51773W        W21654  39.909  41.340   4.670
51774W        W21655  11.280  16.292  14.390
51775W        W21656  28.501  14.250  12.902
51776W        W21657  21.550  11.833  14.025
51777W        W21658   3.949  42.914  12.516
51778W        W21659  37.950  27.065   3.870
51779W        W21660  16.248  15.604   1.817
51780W        W21661  44.503  14.311   1.737
51781W        W21662  10.182   0.365   3.738
51782W        W21663  41.448  41.989  10.539
51783W        W21664  22.735  20.200  14.432
51784W        W21665   9.242  32.068   4.280
51785W        W21666   8.735  29.515  10.594
51786W        W21667   7.820   3.928   0.339
51787W        W21668  42.329  33.544   0.423
51788W        W21669  32.017   2.427   1.385
51789W        W21670  30.593   9.277  12.387
51790W        W21671   5.338   8.196  14.434
51791W        W21672  24.615  15.594   3.644
51792W        W21673  19.754  41.320  12.882
51793W        W21674  31.150  25.566  12.516
51794W        W21675  35.982  26.465  14.029
51795W        W21676  28.539  32.562   1.774
51796W        W21677  13.638  34.607   4.135
51797W        W21678   0.958  42.872  10.480
51798W        W21679  23.642  29.012  12.558
51799W        W21680  22.637   8.665   1.414
51800W        W21681  18.127  44.460   0.263
51801W        W21682  37.033   9.677  12.482
51802W        W21683  24.556  12.775  10.525
51803W        W21684  31.897  16.611  10.908
51804W        W21685   9.735   2.779   0.480
51805W        W21686  31.014  43.966  12.849
51806W        W21687  10.707  20.165   4.292
51807W        W21688  29.494   6.303   4.135
51808W        W21689  43.491  22.022   2.831
51809W        W21690  40.452  36.381  10.892
51810W        W21691   8.701  44.433  14.883
51811W        W21692   5.369  33.925   0.892
51812W        W21693  32.962  19.046   4.292
51813W        W21694  29.130  44.806  11.040
51814W        W21695  25.497  14.721   1.703
51815W        W21696  35.054   0.391  10.956
51816W        W21697  10.277  14.215  14.501
51817W        W21698  39.518  37.580   0.917
51818W        W21699  11.351  33.957   3.254
51819W        W21700  34.538  30.908  14.880
51820W        W21701   2.473  10.685  14.862
51821W        W21702  28.028  23.230  12.579
51822W        W21703   4.745  14.739   3.369
51823W        W21704  15.130  41.821   4.333
51824W        W21705  16.220  36.034  10.641
51825W        W21706  14.290   3.342   2.756
51826W        W21707  30.575  25.093  13.909
51827W        W21708  31.531  38.363  14.508
51828W        W21709   5.809   4.720  12.910
51829W        W21710  28.459  25.980  11.947
51830W        W21711  40.537  11.339   3.769
51831W        W21712  30.621   7.387  10.150
51832W        W21713  15.807  15.717  13.520
51833W        W21714   3.901   2.324  12.534
51834W        W21715   6.386  20.724   0.953
51835W        W21716  39.410  30.916  13.352
51836W        W21717  11.263  15.814  11.001
51837W        W21718   5.710  29.482  11.019
51838W        W21719   0.786  20.150   2.246
51839W        W21720  31.975   2.900  10.453
51840W        W21721  30.970  29.586   3.682
51841W        W21722  15.323  29.941   4.703
51842W        W21723  32.968   6.797  13.506
51843W        W21724  39.029  28.154  12.953
51844W        W21725  40.959  22.107   0.810
51845W        W21726  37.526   3.371   3.655
51846W        W21727  13.168  11.695  13.990
51847W        W21728   9.264   2.354  12.946
51848W        W21729  18.722   6.892  11.877
51849W        W21730  22.520  32.894  13.858
51850W        W21731  41.945   8.781   1.393
51851W        W21732  37.435   4.413  14.295
51852W        W21733  17.224  21.541  13.447
51853W        W21734  18.143   1.272   4.293
51854W        W21735  29.117  17.178  12.477
51855W        W21736  42.319   7.731  13.456
51856W        W21737  36.546  14.152  14.872
51857W        W21738  15.597   0.773  11.534
51858W        W21739  37.469  29.501   4.334
51859W        W21740  19.562  34.962  10.564
51860W        W21741   9.156   0.261  13.009
51861W        W21742  13.280   8.716   5.139
51862W        W21743  36.022  37.999  12.569
51863W        W21744   4.241  11.715  12.092
51864W        W21745   6.695  13.139   0.246
51865W        W21746  19.083   9.653  10.431
51866W        W21747  23.601  10.876   3.714
51867W        W21748  29.124   0.398   0.304
51868W        W21749  25.672  27.052  12.543
51869W        W21750  17.187   7.173  11.040
51870W        W21751  31.626  15.662   4.651
51871W        W21752   2.831  20.206  12.823
51872W        W21753   2.412  22.023  12.540
51873W        W21754  17.577  13.345   1.305
51874W        W21755  33.518   0.833  13.489
51875W        W21756  13.661  28.539  12.912
51876W        W21757  17.272  17.611   1.278
51877W        W21758  25.557  13.340  12.086
51878W        W21759  23.997  27.163   1.822
51879W        W21760  28.112   4.855   1.875
51880W        W21761  41.876  16.246  14.016
51881W        W21762   1.932  19.568   1.858
51882W        W21763  28.087  20.147   1.746
51883W        W21764  23.612   5.707  13.438
51884W        W21765  40.014  32.590   2.810
51885W        W21766  23.701   7.768  12.541
51886W        W21767  20.703  31.616   2.414
51887W        W21768   7.676  37.580  14.275
51888W        W21769  14.168  31.139  13.056
51889W        W21770  25.073  28.128   2.834
51890W        W21771  33.112  25.473  11.396
51891W        W21772  33.038  38.380  11.036
51892W        W21773   6.189  17.669  10.422
51893W        W21774  26.536  26.677   3.168
51894W        W21775   5.756   2.259   4.352
51895W        W21776  17.260   6.278  14.895
51896W        W21777  13.686   5.911  14.871
51897W        W21778  14.125   7.859   1.407
51898W        W21779  18.166  20.171  10.408
51899W        W21780  41.002  27.140   1.705
51900W        W21781  29.130   9.385   4.130
51901W        W21782  10.695  38.899  12.550
51902W        W21783  25.472  35.994  10.577
51903W        W21784   2.960   6.355   4.289
51904W        W21785  36.520   0.927  13.881
51905W        W21786  38.509  13.251  11.964
51906W        W21787  28.135  36.058   1.381
51907W        W21788  22.998   6.791  10.576
51908W        W21789  25.651  12.842   3.648
51909W        W21790  18.566   9.306   3.184
51910W        W21791  17.797  23.522  10.509
51911W        W21792  37.891  38.560   4.645
51912W        W21793  16.164  44.987   3.290
51913W        W21794  20.082  44.813  12.000
51914W        W21795   8.868   2.865   2.892
51915W        W21796  41.897  29.159  13.426
51916W        W21797  11.129   6.235   0.870
51917W        W21798  36.045  24.013   1.225
51918W        W21799  35.065   4.915  13.457
51919W        W21800  37.878  22.565  12.978
51920W        W21801  25.526  11.323   2.269
51921W        W21802  35.386  23.082  14.883
51922W        W21803  16.093  23.142  13.805
51923W        W21804   6.184   0.267   4.199
51924W        W21805   7.702  29.455   2.735
51925W        W21806   7.741  37.904  12.083
51926W        W21807  18.260  23.161   4.685
51927W        W21808  18.200  18.054  12.916
51928W        W21809  27.479  13.739   2.886
51929W        W21810  22.236  42.001  12.072
51930W        W21811   8.894  23.656  14.347
51931W        W21812  30.052   5.403  12.956
51932W        W21813  12.764  36.083   1.933
51933W        W21814   2.836  40.873   0.857
51934W        W21815   9.394  34.106   1.708
51935W        W21816  22.623   6.211  11.918
51936W        W21817  15.716  39.809   1.782
51937W        W21818  25.116  18.052  13.039
51938W        W21819  24.125  17.556   2.897
51939W        W21820  31.421  34.963   3.857
51940W        W21821  14.144  19.083   0.913
51941W        W21822   5.196   7.901   1.801
51942W        W21823  33.893  32.411   2.860
51943W        W21824  43.354  30.531   1.895
51944W        W21825   8.230  29.079  13.446
51945W        W21826  18.569  34.107  12.532
51946W        W21827  35.003  24.010  12.069
51947W        W21828   9.828  10.214   2.798
51948W        W21829   6.347   4.847  10.158
51949W        W21830  20.753   2.769   2.331
51950W        W21831  35.888  36.935  12.094
51951W        W21832  44.333  22.728   3.843
51952W        W21833  40.910  34.993   1.838
51953W        W21834  29.069  16.299  10.917
51954W        W21835  23.620  24.609  14.938
51955W        W21836  15.305   3.449  13.926
51956W        W21837  15.699  27.509  10.984
51957W        W21838  40.800  41.327   2.676
51958W        W21839  35.963   0.827   5.166
51959W        W21840  19.631  30.535   2.888
51960W        W21841   5.752   6.877  10.465
51961W        W21842  39.479  20.550  14.862
51962W        W21843  30.097   3.215   0.813
51963W        W21844  22.019  18.083   3.184
51964W        W21845  16.160  15.115  13.358
51965W        W21846   1.309  11.211  12.953
51966W        W21847  36.518   5.314  11.429
51967W        W21848  28.962  29.539  11.035
51968W        W21849  10.657  33.491  11.896
51969W        W21850   2.895  10.151  10.562
51970W        W21851  20.733   0.902   2.871
51971W        W21852  24.053   7.757  14.029
51972W        W21853   7.407  29.598  13.915
51973W        W21854  25.118  17.232  12.014
51974W        W21855  15.742  25.132  12.449
51975W        W21856   5.868   5.372   4.219
51976W        W21857  30.096   3.917  11.008
51977W        W21858  10.327   1.757   1.222
51978W        W21859  38.844   9.234   1.746
51979W        W21860  13.602  20.118   0.892
51980W        W21861   5.274  44.261  13.394
51981W        W21862  40.909  20.552   1.439
51982W        W21863  39.378   8.884  11.372
51983W        W21864   2.940  30.132   4.224
51984W        W21865  10.836  22.545  12.036
51985W        W21866  20.233  17.224   4.618
51986W        W21867  10.215   0.798   4.181
51987W        W21868  15.325  35.049  11.384
51988W        W21869   4.739  20.152   1.369
51989W        W21870   2.444  33.892   0.729
51990W        W21871   9.335  32.562  10.934
51991W        W21872   6.856   2.239  12.510
51992W        W21873   1.480  38.488   3.861
51993W        W21874  27.945   0.798  12.571
51994W        W21875   7.668  24.978   1.233
51995W        W21876  21.642   8.701  13.993
51996W        W21877  43.489   0.964  14.415
51997W        W21878  44.334   2.876  13.850
51998W        W21879   5.739  20.629  14.893
51999W        W21880  31.961  40.982  14.369
52000W        W21881  27.041  17.102   3.351
52001W        W21882  12.335   1.308  10.426
52002W        W21883  12.636  20.734   0.354
52003W        W21884  38.353  11.764   1.270
52004W        W21885  42.325  39.815  10.929
52005W        W21886  42.525  13.190   4.810
52006W        W21887  25.102  43.436  14.977
52007W        W21888  41.857  35.985   5.207
52008W        W21889  29.554  32.394   3.652
52009W        W21890  29.623  28.114  11.083
52010W        W21891  16.667  29.454  12.572
52011W        W21892  10.308  36.956  14.838
52012W        W21893  32.500   4.710   4.290
52013W        W21894  39.534   3.833   1.752
52014W        W21895  27.534  38.927   1.229
52015W        W21896  19.537  24.158  13.034
52016W        W21897   9.183  20.031   3.360
52017W        W21898   9.313  22.552  13.535
52018W        W21899  16.248  29.589   2.714
52019W        W21900  14.219   9.887   0.808
52020W        W21901  10.335  27.951   4.349
52021W        W21902  40.318  26.951  13.515
52022W        W21903  29.006  14.182  13.996
52023W        W21904  34.376  10.143   9.956
52024W        W21905   2.952   5.861   0.797
52025W        W21906  23.515   6.892  14.842
52026W        W21907  34.882  44.470  13.832
52027W        W21908  13.156  14.605  10.440
52028W        W21909  19.555  15.097   0.337
52029W        W21910  13.681  22.081  12.833
52030W        W21911  28.164   5.900   3.303
52031W        W21912  44.504  22.096  12.499
52032W        W21913  39.885  30.585   1.802
52033W        W21914  28.127  29.088  13.521
52034W        W21915  40.017  28.163  14.468
52035W        W21916  16.674   1.482   3.333
52036W        W21917  38.991  32.984  10.611
52037W        W21918   2.319  13.601   2.414
52038W        W21919   9.197  22.548   4.687
52039W        W21920   4.808  14.777   1.295
52040W        W21921   4.768  21.237   2.282
52041W        W21922  18.742  15.696  14.485
52042W        W21923   3.291  38.391  14.762
52043W        W21924  18.069   4.845   0.345
52044W        W21925  41.531   1.451  13.419
52045W        W21926  18.149  10.198  10.089
52046W        W21927  43.475  39.358  12.466
52047W        W21928   5.199  25.073   0.957
52048W        W21929   3.378  38.550   1.762
52049W        W21930  16.754  24.060   2.264
52050W        W21931  23.077  40.836  11.101
52051W        W21932  35.398  13.729  14.446
52052W        W21933  35.912   0.979   3.778
52053W        W21934  11.750  43.859   3.791
52054W        W21935  10.639  22.644   1.295
52055W        W21936  21.691  13.199  12.875
52056W        W21937  24.667   2.956  10.604
52057W        W21938   3.393  27.506   2.348
52058W        W21939  32.990  25.020  10.895
52059W        W21940  16.176  15.141  14.294
52060W        W21941   8.719  30.139  11.497
52061W        W21942   9.269  40.872  12.428
52062W        W21943   3.929  31.088   2.398
52063W        W21944   7.783  19.634  14.877
52064W        W21945  26.156  35.551  11.547
52065W        W21946  16.131  40.042   3.767
52066W        W21947  28.622  23.540   4.200
52067W        W21948  42.357   9.877   2.778
52068W        W21949  18.153  28.075   5.312
52069W        W21950  13.694   0.421  13.384
52070W        W21951  12.763  41.947   2.830
52071W        W21952  19.708  12.738   2.254
52072W        W21953  30.612   2.366  12.364
52073W        W21954   9.389  22.226   0.828
52074W        W21955  30.427  21.747   0.955
52075W        W21956   8.879  34.004  14.964
52076W        W21957  35.023  24.712  12.487
52077W        W21958  29.669  28.603  13.945
52078W        W21959  24.653  41.815   3.242
52079W        W21960  35.886  30.510   2.411
52080W        W21961  42.366  30.479   2.720
52081W        W21962  31.910  31.110   3.686
52082W        W21963  18.689  16.694  12.858
52083W        W21964  38.877  27.146  14.366
52084W        W21965  13.239   0.410   2.348
52085W        W21966  37.838   8.801  13.511
52086W        W21967  21.131  29.522  11.500
52087W        W21968   2.237  36.037   3.258
52088W        W21969   4.249  16.307  10.423
52089W        W21970  31.611  17.735  14.347
52090W        W21971  33.480  43.835  10.550
52091W        W21972  14.214  39.320   9.996
52092W        W21973  34.503  16.736   4.185
52093W        W21974   7.765  16.736   0.941
52094W        W21975  11.335  29.566  10.498
52095W        W21976   9.202  21.657   0.852
52096W        W21977  35.513   8.287   4.664
52097W        W21978  22.505  41.425  14.893
52098W        W21979   7.874  14.829  12.888
52099W        W21980  13.644  38.984  13.961
52100W        W21981  39.981   6.747   3.334
52101W        W21982   7.777  13.332  10.492
52102W        W21983  17.234   2.416   0.929
52103W        W21984  41.362  38.854  12.936
52104W        W21985  18.610  36.495   0.866
52105W        W21986  17.116  32.901   4.789
52106W        W21987   5.792   6.793   2.256
52107W        W21988  17.279   4.829  14.501
52108W        W21989  14.299  15.167  14.834
52109W        W21990   3.232  30.099  12.953
52110W        W21991  41.848   4.847   3.867
52111W        W21992  42.922  24.177  14.878
52112W        W21993  19.106  33.129  12.366
52113W        W21994  18.141  40.346  12.508
52114W        W21995  35.464  25.159   0.471
52115W        W21996  29.964  27.159   1.933
52116W        W21997   0.954   8.366   2.369
52117W        W21998  43.407  15.098  11.078
52118W        W21999  14.135  36.518   9.475
52119W        W22000  43.492  42.457   4.279
52120W        W22001  21.044  14.208   0.338
52121W        W22002  25.122  38.968   5.156
52122W        W22003  25.087  26.100   3.858
52123W        W22004  40.316  34.604  11.048
52124W        W22005  20.274  23.191  10.574
52125W        W22006   2.297  36.520   4.786
52126W        W22007  16.191  13.618  11.044
52127W        W22008   5.409   9.383   4.115
52128W        W22009  25.167  16.646  11.033
52129W        W22010  29.554  32.412   3.197
52130W        W22011  37.871   7.896   3.747
52131W        W22012  11.728  38.918  11.374
52132W        W22013  41.866  30.600  14.459
52133W        W22014   7.675   6.822   4.158
52134W        W22015   8.720  23.677   3.678
52135W        W22016  44.427  29.164  13.925
52136W        W22017  19.141  25.046  12.574
52137W        W22018  43.788  30.163  13.838
52138W        W22019   1.474  38.326  13.548
52139W        W22020  16.705  32.077   4.647
52140W        W22021  40.988  39.914   0.383
52141W        W22022  18.581   9.164  12.886
52142W        W22023  42.364  42.443  10.634
52143W        W22024  40.984   1.308   1.271
52144W        W22025  38.356  42.504  12.943
52145W        W22026  42.368  17.152  11.125
52146W        W22027  11.627  30.631  10.023
52147W        W22028   2.460  33.410   4.187
52148W        W22029  39.837  11.809   2.865
52149W        W22030  39.440  31.974  10.597
52150W        W22031  12.359  27.477   3.216
52151W        W22032  28.075  26.984   1.364
52152W        W22033  38.553   6.355  13.792
52153W        W22034  23.077  35.536   3.365
52154W        W22035  11.204  33.483   1.331
52155W        W22036   3.228  37.568   1.364
52156W        W22037  32.635   4.221  11.529
52157W        W22038  41.473  26.562  10.597
52158W        W22039  41.798   0.897  14.337
52159W        W22040  21.210  43.788  13.441
52160W        W22041  12.232  31.911   2.786
52161W        W22042  28.978  25.101   9.987
52162W        W22043  16.569  16.617   0.830
52163W        W22044  22.193  27.110   3.319
52164W        W22045  25.999   4.832   2.749
52165W        W22046  43.993  35.002  11.919
52166W        W22047  16.795  28.490  11.053
52167W        W22048   1.864  31.510  12.058
52168W        W22049  40.912   3.790   1.446
52169W        W22050   9.183   8.292   4.152
52170W        W22051  35.557  23.719  11.091
52171W        W22052  37.437  14.260  13.482
52172W        W22053   1.911  33.514  12.920
52173W        W22054   5.427  19.584  12.544
52174W        W22055  15.587   2.444   4.316
52175W        W22056  40.001  29.554  14.018
52176W        W22057  12.792   6.847   4.820
52177W        W22058  19.634  18.776  11.610
52178W        W22059   0.821  11.127   2.804
52179W        W22060  39.943   9.304  13.948
52180W        W22061  20.693   3.440  13.350
52181W        W22062  20.597   7.281  12.524
52182W        W22063   4.280   1.961   0.273
52183W        W22064  34.455  35.432   3.807
52184W        W22065  30.651  24.051  13.871
52185W        W22066  43.447  23.187   4.187
52186W        W22067  38.844   0.306  12.396
52187W        W22068  37.005  22.652  12.933
52188W        W22069  44.341  19.264  12.076
52189W        W22070  36.413   2.726   1.743
52190W        W22071   9.370   5.858   2.386
52191W        W22072  18.782  33.910   1.775
52192W        W22073  16.728  43.275   4.782
52193W        W22074   2.848   3.924   0.948
52194W        W22075  35.451  13.284   4.710
52195W        W22076  30.071  15.253  14.438
52196W        W22077   9.775   8.826  14.363
52197W        W22078   0.334   8.876   4.812
52198W        W22079  36.506  34.118   3.704
52199W        W22080  22.133  38.925   1.215
52200W        W22081  10.662  23.549   4.728
52201W        W22082  22.206  13.160   2.853
52202W        W22083   9.684  31.410   0.837
52203W        W22084  39.386  39.032   1.877
52204W        W22085  38.486  38.038   4.239
52205W        W22086  11.156  41.935   0.394
52206W        W22087  20.119  26.470  12.960
52207W        W22088  22.596   0.773  11.910
52208W        W22089  20.036  30.604  11.066
52209W        W22090   8.839  42.928   3.854
52210W        W22091  26.973  40.847  14.006
52211W        W22092  21.060  28.665  11.923
52212W        W22093  42.026   4.282  13.938
52213W        W22094  44.264  19.059  11.120
52214W        W22095  12.631   0.854   4.772
52215W        W22096   0.944  35.561  13.901
52216W        W22097   7.235  32.544   3.241
52217W        W22098  24.535   2.797  11.066
52218W        W22099  35.857  10.335   0.864
52219W        W22100  26.067  32.563  13.900
52220W        W22101  34.943  16.811   1.915
52221W        W22102  29.436  38.965  13.869
52222W        W22103  43.885   4.923   3.146
52223W        W22104  22.227  42.873   4.747
52224W        W22105   3.370  30.490   1.365
52225W        W22106  31.042   5.844   5.292
52226W        W22107  25.562   1.939  10.071
52227W        W22108  21.514  13.640   3.723
52228W        W22109  44.940   2.461   3.349
52229W        W22110  37.987  37.053   2.688
52230W        W22111  42.363  41.819  13.467
52231W        W22112   8.335  20.069   1.778
52232W        W22113  43.381  17.138   2.348
52233W        W22114   1.397  33.511  14.868
52234W        W22115  17.116  20.618   3.250
52235W        W22116  44.003  35.044  12.846
52236W        W22117  44.981   5.892   2.738
52237W        W22118  38.553   2.951  10.940
52238W        W22119  25.132  30.442  11.380
52239W        W22120   4.237   5.327   0.257
52240W        W22121  16.648  37.015   2.404
52241W        W22122  30.908   1.878  11.400
52242W        W22123  39.849  29.450  14.851
52243W        W22124  31.073  16.266  13.499
52244W        W22125  25.544  14.715   4.247
52245W        W22126  33.560  43.865  13.418
52246W        W22127  22.643  43.915  12.450
52247W        W22128  30.915   9.379   3.282
52248W        W22129  22.583  35.383   2.350
52249W        W22130  44.924  42.977  14.299
52250W        W22131  16.643  37.840   2.801
52251W        W22132  33.592  26.498   5.222
52252W        W22133  33.982  12.162  12.824
52253W        W22134  11.866  29.552  11.481
52254W        W22135  33.487  30.028   3.183
52255W        W22136  29.164  23.579  11.981
52256W        W22137  22.506  18.639  11.390
52257W        W22138   1.443  13.695   3.300
52258W        W22139  16.218  22.661   3.741
52259W        W22140  42.433  14.330   4.724
52260W        W22141  36.993  41.316  11.524
52261W        W22142  24.162  34.479  12.923
52262W        W22143   6.816  34.900   1.380
52263W        W22144  14.327  11.174   3.729
52264W        W22145  21.033   3.744  11.545
52265W        W22146  25.605  30.101   0.924
52266W        W22147   6.815  11.330  13.020
52267W        W22148  25.707   4.746   4.823
52268W        W22149  10.807   2.227  14.943
52269W        W22150  39.508  33.483   4.805
52270W        W22151  43.004  27.077   3.802
52271W        W22152  23.491  18.730   9.968
52272W        W22153   4.803  27.155   0.956
52273W        W22154  25.622  35.469   2.292
52274W        W22155  21.180  33.592   3.809
52275W        W22156  12.227  35.862   4.175
52276W        W22157   3.849  15.104  10.905
52277W        W22158  11.830  43.993   1.742
52278W        W22159  28.673   9.369  11.541
52279W        W22160  18.060  27.473   4.600
52280W        W22161  14.124  19.689  11.547
52281W        W22162  16.666   7.775  14.443
52282W        W22163  29.448   0.327   0.830
52283W        W22164   4.369   5.296  12.834
52284W        W22165  26.664  43.795   0.376
52285W        W22166  39.527  37.509   2.770
52286W        W22167   0.897  11.677   4.152
52287W        W22168  31.600  26.209   4.270
52288W        W22169   2.807  10.743  12.552
52289W        W22170   2.730  30.583  12.956
52290W        W22171  21.664  39.335  11.422
52291W        W22172  20.643  15.231  12.865
52292W        W22173   7.712  39.547  11.522
52293W        W22174  12.295  18.780  14.899
52294W        W22175  26.512  34.989   3.636
52295W        W22176   3.917  41.883  11.612
52296W        W22177  41.385  35.933   1.410
52297W        W22178  24.544  15.578   0.480
52298W        W22179  14.109  31.028   3.334
52299W        W22180  11.697   9.736   0.815
52300W        W22181  10.748  31.064  14.796
52301W        W22182  25.172   5.345   2.775
52302W        W22183  30.594   2.374   3.298
52303W        W22184  41.983   5.840  14.317
52304W        W22185  23.015  26.985  13.541
52305W        W22186   4.726  15.314  14.921
52306W        W22187  21.259  10.301   1.696
52307W        W22188  18.131  18.118   0.393
52308W        W22189  18.761   5.215   0.816
52309W        W22190   3.459  35.875  10.569
52310W        W22191   9.684   0.315  14.512
52311W        W22192   3.242   0.338   4.137
52312W        W22193  34.379   7.371  14.329
52313W        W22194  18.284  26.603  13.517
52314W        W22195  39.344  42.489  13.055
52315W        W22196  12.753   6.889  12.420
52316W        W22197  15.621   8.227  14.321
52317W        W22198   3.268  29.942  11.593
52318W        W22199  26.976  32.935  11.592
52319W        W22200  24.061  39.371   3.837
52320W        W22201  14.158  33.973  14.785
52321W        W22202  10.798  23.581   1.354
52322W        W22203  21.546  14.094  12.835
52323W        W22204  38.052  25.640  12.843
52324W        W22205  13.194  19.715   4.624
52325W        W22206  26.590  14.171  14.468
52326W        W22207   4.844  18.601   3.837
52327W        W22208  31.480  23.007   0.832
52328W        W22209   9.347  22.679   5.217
52329W        W22210  31.646  14.300  13.834
52330W        W22211  14.301  35.389   3.771
52331W        W22212  39.858  16.300  13.830
52332W        W22213   5.266   0.361  11.000
52333W        W22214  13.807  25.211  13.375
52334W        W22215  35.082  39.018  10.921
52335W        W22216  41.338  18.547   1.401
52336W        W22217  41.949   3.238  10.046
52337W        W22218  24.092  21.659   2.713
52338W        W22219   1.239  30.537  10.645
52339W        W22220  29.653  29.629   3.302
52340W        W22221  37.436  27.548  14.489
52341W        W22222  13.783   0.484   0.749
52342W        W22223   4.848  41.939   1.930
52343W        W22224   8.859  30.471  14.319
52344W        W22225  21.227  27.686  12.502
52345W        W22226   5.924  40.013   3.771
52346W        W22227  34.913   7.701  11.086
52347W        W22228   8.370   6.899   0.762
52348W        W22229   8.849  22.747   0.337
52349W        W22230  23.585  40.819   3.308
52350W        W22231  10.384   9.710   2.839
52351W        W22232  17.593  25.151   0.799
52352W        W22233   5.364  29.445   2.191
52353W        W22234  10.762   5.264  12.980
52354W        W22235   2.334  13.808  12.542
52355W        W22236  19.123  22.035   0.423
52356W        W22237  27.517  42.957  13.050
52357W        W22238  19.057  24.672  11.566
52358W        W22239  36.365  43.968   0.275
52359W        W22240  23.667   9.861  14.892
52360W        W22241   9.707  36.408  13.362
52361W        W22242  12.717   2.356   3.819
52362W        W22243   6.800  34.470   2.194
52363W        W22244  39.491   3.762   3.262
52364W        W22245   3.876  35.869   1.428
52365W        W22246   0.985  22.636   0.803
52366W        W22247  32.059  10.736   0.808
52367W        W22248  21.213   4.841  13.842
52368W        W22249  24.584  39.373  10.924
52369W        W22250  27.002   3.924  10.512
52370W        W22251  39.866  12.679   0.373
52371W        W22252  26.467   3.308  11.006
52372W        W22253   4.930  14.699  13.420
52373W        W22254  10.789  36.017   4.815
52374W        W22255  17.643  39.970   2.705
52375W        W22256  37.534   7.740  10.916
52376W        W22257   4.698  21.069   9.990
52377W        W22258   9.247   8.847   0.376
52378W        W22259  26.052   5.322  12.026
52379W        W22260  33.618   8.884   2.309
52380W        W22261  37.395  19.079   3.280
52381W        W22262  35.040  24.131  11.514
52382W        W22263  31.468  43.005  14.014
52383W        W22264  25.016  42.977   3.648
52384W        W22265  23.010   0.416   0.807
52385W        W22266  26.065   1.886   1.350
52386W        W22267  16.111  12.287  11.002
52387W        W22268   6.413  35.893   1.924
52388W        W22269  12.834  27.513  11.026
52389W        W22270   4.264  12.654  13.455
52390W        W22271  20.042  44.451   4.190
52391W        W22272  26.467  16.755   4.778
52392W        W22273  31.107  16.808   1.349
52393W        W22274  40.978  31.514   0.405
52394W        W22275  13.740  32.906  12.367
52395W        W22276   4.796  12.709  11.027
52396W        W22277   1.316  44.004  13.061
52397W        W22278  33.468  29.442   3.174
52398W        W22279   8.731  22.075   3.169
52399W        W22280  27.973  10.202  14.492
52400W        W22281  18.154  24.026  10.963
52401W        W22282  20.704   0.376  14.302
52402W        W22283  31.521   8.757   3.191
52403W        W22284  41.464  10.139   1.348
52404W        W22285  17.112  15.801  10.403
52405W        W22286  28.059  12.664  10.516
52406W        W22287   8.815  36.047  12.413
52407W        W22288  41.855  22.546   4.683
52408W        W22289  16.253   1.831   3.779
52409W        W22290  27.130  26.166  13.900
52410W        W22291   3.753  43.799   4.599
52411W        W22292  15.702  22.737  14.765
52412W        W22293   7.270  13.126   1.451
52413W        W22294  37.413   4.212   4.241
52414W        W22295  15.816  16.750  11.600
52415W        W22296  22.647  10.696   2.791
52416W        W22297  30.110   1.325  13.330
52417W        W22298   9.360   6.920  12.544
52418W        W22299  12.829   8.691  11.955
52419W        W22300   9.319  43.809  14.506
52420W        W22301  18.241  32.570   0.272
52421W        W22302  33.031   9.262  13.360
52422W        W22303   7.759  10.275  12.857
52423W        W22304  22.237  10.160  14.374
52424W        W22305  11.652  19.657   2.761
52425W        W22306   4.297  25.519   4.777
52426W        W22307  38.431  35.979  12.462
52427W        W22308   8.332  22.627  12.360
52428W        W22309   6.358  30.924  12.933
52429W        W22310  21.644  20.525  14.974
52430W        W22311  42.858   9.363   2.280
52431W        W22312  33.001  35.556   1.305
52432W        W22313  35.019  24.040  12.404
52433W        W22314  22.172  43.974   0.440
52434W        W22315  26.500  16.595   3.728
52435W        W22316   5.230   9.877   3.794
52436W        W22317  13.730  25.082   0.901
52437W        W22318  37.004   9.164  12.476
52438W        W22319   6.187  26.973  14.773
52439W        W22320  22.640  22.997   2.863
52440W        W22321   6.706   6.849   4.797
52441W        W22322  37.846  34.599   2.828
52442W        W22323  36.498  20.563  13.412
52443W        W22324  37.336  39.880  11.402
52444W        W22325  30.441  42.384  12.408
52445W        W22326  20.625  32.009   2.830
52446W        W22327   0.384   3.714  10.507
52447W        W22328  34.520   1.316  10.617
52448W        W22329   3.944  23.520  10.136
52449W        W22330   5.801  26.619   2.328
52450W        W22331  44.973  35.404   2.178
52451W        W22332   0.983  23.000   3.860
52452W        W22333  24.230  13.611   4.142
52453W        W22334   4.804  10.262   0.867
52454W        W22335   5.763  16.284  12.904
52455W        W22336  44.490  33.510  12.484
52456W        W22337   0.881  41.465  13.858
52457W        W22338  12.844  43.462  13.816
52458W        W22339  20.153   7.704  10.458
52459W        W22340  38.355  35.992  10.514
52460W        W22341   5.252  20.599  14.802
52461W        W22342  28.499  43.410   1.356
52462W        W22343  25.670   7.837  10.508
52463W        W22344  43.282  43.916  12.547
52464W        W22345  36.530  37.413  14.987
52465W        W22346  21.748  23.677  10.422
52466W        W22347  11.222  11.836  12.406
52467W        W22348  27.148   9.328  11.466
52468W        W22349  15.740  35.503   3.739
52469W        W22350  31.476   2.252   4.256
52470W        W22351  13.325  13.831  14.295
52471W        W22352  16.150  42.370  12.088
52472W        W22353  17.772  15.104   1.761
52473W        W22354  13.330   9.659   2.239
52474W        W22355  13.827  31.635   0.860
52475W        W22356  12.307  23.621   2.330
52476W        W22357  37.580  24.188   3.811
52477W        W22358  37.538  40.493   1.754
52478W        W22359  40.829  18.062  11.085
52479W        W22360  25.667  30.076  13.516
52480W        W22361  25.572  41.402  14.481
52481W        W22362  30.450  23.151  11.029
52482W        W22363  33.400  14.192   3.275
52483W        W22364   1.357  12.621   2.895
52484W        W22365  35.467  36.912  14.298
52485W        W22366   9.699   0.405   3.852
52486W        W22367  12.658  21.207  14.325
52487W        W22368  30.574  40.905  13.411
52488W        W22369   6.790   3.311   1.715
52489W        W22370  31.944   9.165   4.173
52490W        W22371  28.036   2.369  13.863
52491W        W22372  15.593  29.173   0.961
52492W        W22373  39.879  10.170   3.318
52493W        W22374   9.653  11.766   0.929
52494W        W22375  20.674  14.224   4.688
52495W        W22376   8.268  16.229   1.317
52496W        W22377   7.835  32.576   4.681
52497W        W22378  20.190   5.288   3.250
52498W        W22379  23.205  30.967   0.369
52499W        W22380  37.417  27.593  10.151
52500W        W22381  35.913   8.777   0.399
52501W        W22382   2.333  14.271   1.214
52502W        W22383  16.753  23.527  14.005
52503W        W22384  24.192  32.453   2.200
52504W        W22385  30.165  10.382  11.945
52505W        W22386  30.078  42.474   0.430
52506W        W22387  33.444  23.061   2.712
52507W        W22388   5.912   5.395  12.482
52508W        W22389  44.445   6.236  12.856
52509W        W22390  35.064   3.879  12.448
52510W        W22391  36.068  24.085   4.173
52511W        W22392  35.094  39.554  11.948
52512W        W22393   3.786  41.963  11.038
52513W        W22394  14.794  37.446  13.988
52514W        W22395  33.952   0.285   1.698
52515W        W22396  34.959  29.572   5.121
52516W        W22397  34.960  23.618  14.891
52517W        W22398  30.980  39.998  13.384
52518W        W22399  35.931   9.753  10.491
52519W        W22400  23.074  24.581   0.288
52520W        W22401   6.839  21.740  10.618
52521W        W22402  13.236  19.270   3.341
52522W        W22403  41.307  20.043   1.308
52523W        W22404   6.411  27.559  12.958
52524W        W22405   1.260  40.392   2.259
52525W        W22406  42.518   6.807   2.729
52526W        W22407   9.166  24.125   4.766
52527W        W22408  31.536  37.539   1.232
52528W        W22409   4.810  29.467  11.947
52529W        W22410  42.516  31.529   1.782
52530W        W22411  37.502  30.608  13.459
52531W        W22412  18.720  33.066   4.231
52532W        W22413  20.089  36.935  14.321
52533W        W22414  41.441  27.678   0.742
52534W        W22415  33.016  44.860  14.283
52535W        W22416  21.601  10.836  14.832
52536W        W22417  43.437  38.067  12.887
52537W        W22418  16.668   5.829  11.482
52538W        W22419   1.775   5.859   4.113
52539W        W22420   7.236  11.648   2.204
52540W        W22421   6.238  26.536  13.861
52541W        W22422  33.586   3.374   4.194
52542W        W22423  38.000   8.874   1.342
52543W        W22424   4.209   4.865  13.421
52544W        W22425  16.212  13.184   4.726
52545W        W22426   8.316   9.811  12.528
52546W        W22427  22.572  22.217  14.512
52547W        W22428  26.633  39.046  14.764
52548W        W22429  37.370   6.358   1.315
52549W        W22430  43.452  31.016   3.188
52550W        W22431  16.712  22.162  11.408
52551W        W22432  15.756  26.458   1.336
52552W        W22433  25.119   4.844  10.995
52553W        W22434  13.187  26.197  10.941
52554W        W22435  17.250  11.779  11.091
52555W        W22436  27.470  30.415   3.332
52556W        W22437  40.361   6.816   3.336
52557W        W22438  33.102  32.934   2.845
52558W        W22439  19.732  35.538   4.750
52559W        W22440  43.372  26.695   0.315
52560W        W22441  30.529  14.766   0.754
52561W        W22442  12.131  40.340   2.313
52562W        W22443  11.787  14.683   4.610
52563W        W22444  18.086  39.536  14.942
52564W        W22445   7.774   4.759   2.682
52565W        W22446  43.812   9.783  14.851
52566W        W22447   7.394   5.747  10.958
52567W        W22448  28.058  39.943  13.422
52568W        W22449   4.231   1.321  12.347
52569W        W22450  15.102  36.455   0.744
52570W        W22451  42.455   7.808   1.359
52571W        W22452  21.113  42.389  13.407
52572W        W22453  39.413  22.047   3.340
52573W        W22454  41.827  26.677  14.878
52574W        W22455  26.544   9.752  13.922
52575W        W22456  31.533  22.044  12.004
52576W        W22457  24.079  27.558   0.895
52577W        W22458  25.510   8.249   2.893
52578W        W22459  17.778  36.964   1.886
52579W        W22460   1.371  26.606   2.394
52580W        W22461  34.406   8.388   2.819
52581W        W22462  38.835  42.012  10.431
52582W        W22463  17.161  27.582   2.772
52583W        W22464  13.603   0.334  13.968
52584W        W22465  24.622  24.586  12.377
52585W        W22466  21.240   4.779  12.969
52586W        W22467   3.804  10.286  11.986
52587W        W22468  19.685  24.090  11.461
52588W        W22469  31.017  35.941   2.241
52589W        W22470  44.330   5.906  11.444
52590W        W22471  13.348  34.059   2.301
52591W        W22472   5.791   9.836  12.934
52592W        W22473  40.911  13.744   3.349
52593W        W22474  37.365  10.816   1.717
52594W        W22475  12.640  33.611  14.340
52595W        W22476  14.773  38.039   0.455
52596W        W22477  15.702  30.048  14.331
52597W        W22478  40.530  35.522   0.740
52598W        W22479  32.603   1.385  14.479
52599W        W22480  28.438   4.908   3.688
52600W        W22481  41.320  30.494   4.660
52601W        W22482  16.664   7.839   3.333
52602W        W22483  42.999  24.194   0.959
52603W        W22484  31.904  28.086   0.883
52604W        W22485  28.498   3.422   1.284
52605W        W22486  24.694  23.503   4.120
52606W        W22487  12.831  18.126  14.830
52607W        W22488  13.721  26.601   4.808
52608W        W22489  42.405   9.342   2.793
52609W        W22490  35.097  28.584   2.258
52610W        W22491  10.330   0.294   4.699
52611W        W22492  42.826  38.369   4.819
52612W        W22493  41.862  23.217   0.322
52613W        W22494   3.819  26.106  13.039
52614W        W22495   4.262   0.319  11.094
52615W        W22496  35.022  16.581  13.339
52616W        W22497   8.259  30.485  10.544
52617W        W22498  35.956  27.690  13.408
52618W        W22499   3.436  31.547   1.720
52619W        W22500  19.566  16.083   0.906
52620W        W22501  22.119  12.224   3.236
52621W        W22502  13.289  32.023  12.476
52622W        W22503  10.762  42.885  14.421
52623W        W22504  40.308  32.498   3.688
52624W        W22505   7.794  26.696  14.852
52625W        W22506   4.319  22.015  11.514
52626W        W22507  31.932  13.780  12.880
52627W        W22508   6.269   8.860   3.740
52628W        W22509  14.824  30.467  11.592
52629W        W22510   8.734   6.356  12.950
52630W        W22511  37.011   7.852   2.661
52631W        W22512  30.064   1.975  13.523
52632W        W22513  41.411  25.476  14.506
52633W        W22514  41.456  16.703   0.784
52634W        W22515  41.990  23.056   4.125
52635W        W22516  17.278  35.480   3.705
52636W        W22517  37.559  21.072  12.537
52637W        W22518  22.708  14.803  13.995
52638W        W22519  20.215  21.523   4.637
52639W        W22520  19.134  33.001   0.930
52640W        W22521  24.030  33.049   3.236
52641W        W22522  38.457  18.255   0.433
52642W        W22523   1.262   0.416   4.735
52643W        W22524  30.034  40.417  13.935
52644W        W22525  20.054   3.880   2.219
52645W        W22526  33.586  11.186  14.984
52646W        W22527  37.036   6.903   1.347
52647W        W22528  40.478  34.584  11.564
52648W        W22529  31.474  30.112  13.883
52649W        W22530   2.857  41.360  14.343
52650W        W22531  24.180   3.410   4.270
52651W        W22532  13.748  27.141  11.056
52652W        W22533   3.927  21.592   0.405
52653W        W22534   7.745  23.639  10.529
52654W        W22535   6.239  11.178  13.866
52655W        W22536   0.327  32.556  12.484
52656W        W22537  30.085  40.928   1.783
52657W        W22538  42.830  13.127  12.440
52658W        W22539  42.420   5.416  11.010
52659W        W22540  28.024  35.956   1.839
52660W        W22541  24.228   6.736  10.548
52661W        W22542  30.630  31.046  13.477
52662W        W22543  41.337  44.393  14.416
52663W        W22544  25.679  32.964  12.511
52664W        W22545  12.171  40.945  12.880
52665W        W22546   4.295  36.379  13.996
52666W        W22547  20.647  13.282   2.823
52667W        W22548  18.287  38.555  13.422
52668W        W22549  41.805  35.948  10.564
52669W        W22550  36.866  37.544  12.427
52670W        W22551  17.214   4.732  12.947
52671W        W22552  10.751  15.742   0.291
52672W        W22553  17.187  11.728   1.346
52673W        W22554  33.927  14.671   3.342
52674W        W22555  37.051  34.111  14.439
52675W        W22556  44.936   3.887   2.788
52676W        W22557   4.406   4.306   0.963
52677W        W22558  34.864  19.555   0.765
52678W        W22559  29.484  40.470  11.562
52679W        W22560  14.760   7.327  10.575
52680W        W22561  17.270   4.901  10.023
52681W        W22562  35.020  36.582   3.653
52682W        W22563  12.731  40.309   4.683
52683W        W22564  43.384  40.873   3.695
52684W        W22565  37.391  27.974   0.775
52685W        W22566   3.237  15.681  10.618
52686W        W22567  17.628  39.815   4.797
52687W        W22568  17.240  32.890  10.458
52688W        W22569  29.142   3.816  11.973
52689W        W22570  11.635  43.470  10.936
52690W        W22571  21.087  42.790  10.503
52691W        W22572   7.716  30.442   2.883
52692W        W22573  10.678  29.537   4.613
52693W        W22574  43.371  36.017  11.937
52694W        W22575  30.580   6.324  14.021
52695W        W22576  38.414  19.114  10.629
52696W        W22577  36.856  42.300  11.501
52697W        W22578  18.762   4.305   1.407
52698W        W22579   7.736  30.079   3.204
52699W        W22580  31.490  40.956   0.774
52700W        W22581  38.060  11.811  10.623
52701W        W22582  12.346   6.759   4.309
52702W        W22583  26.060  13.149  13.443
52703W        W22584  13.655  24.561  13.989
52704W        W22585   7.826  25.111   5.322
52705W        W22586  14.189   8.174   0.328
52706W        W22587   0.295  22.167   4.798
52707W        W22588  25.161  25.582  10.596
52708W        W22589   9.859  20.547  10.998
52709W        W22590   5.283  31.044  14.479
52710W        W22591   2.306   1.922  10.093
52711W        W22592   3.907  36.089  13.820
52712W        W22593   5.338   8.870  14.787
52713W        W22594  40.959  14.638   4.273
52714W        W22595  22.734  12.246  13.471
52715W        W22596  24.603  31.097  13.452
52716W        W22597   3.951  14.607  12.839
52717W        W22598  38.425  20.041   2.779
52718W        W22599   6.818  26.683  12.540
52719W        W22600  32.469  15.734  14.352
52720W        W22601  28.048  26.600   3.640
52721W        W22602  35.930  20.541   1.399
52722W        W22603  10.870  12.225  14.836
52723W        W22604  25.977  24.188   4.817
52724W        W22605   1.853  30.461  13.807
52725W        W22606  30.044  43.835   2.826
52726W        W22607   4.406  23.201  13.027
52727W        W22608  35.588  34.453  12.411
52728W        W22609  10.879  24.034   2.724
52729W        W22610  24.185   0.907   4.682
52730W        W22611  23.044  11.795  13.517
52731W        W22612  16.694   5.323   0.831
52732W        W22613  22.233  29.129  12.463
52733W        W22614  12.341  20.065   0.428
52734W        W22615   4.434  38.030  14.875
52735W        W22616  23.219  22.999   4.624
52736W        W22617  23.079  22.173   4.619
52737W        W22618   8.679  11.221   2.378
52738W        W22619  17.702  31.043  12.360
52739W        W22620  27.138  24.517  12.350
52740W        W22621  32.480  24.572  10.585
52741W        W22622  32.526  34.982  14.349
52742W        W22623  24.668   2.307   0.849
52743W        W22624  36.971  25.001  11.432
52744W        W22625  39.951  13.724  14.840
52745W        W22626  19.664   3.453  11.918
52746W        W22627  34.901  11.336   3.348
52747W        W22628  27.138   8.276  14.966
52748W        W22629  33.511  33.517  13.492
52749W        W22630  19.680   3.858  11.940
52750W        W22631  38.511  20.766  12.953
52751W        W22632  19.085  29.441   3.326
52752W        W22633  36.550  39.825  11.447
52753W        W22634   4.397  19.535   2.778
52754W        W22635  37.968  16.723   3.343
52755W        W22636  27.135  44.439  10.480
52756W        W22637  35.585  44.393   4.718
52757W        W22638  16.111  29.486  13.832
52758W        W22639  42.444  35.007  12.484
52759W        W22640  32.991  23.677  10.471
52760W        W22641  12.147  26.040   1.742
52761W        W22642  19.057  19.183   1.695
52762W        W22643  17.245  41.876  14.358
52763W        W22644  27.582  10.684  12.982
52764W        W22645  43.323  26.018  14.354
52765W        W22646  33.065  36.004   1.431
52766W        W22647  39.526  16.572   3.824
52767W        W22648  28.008  12.224   2.682
52768W        W22649   3.773  36.921  14.836
52769W        W22650  36.051   7.418   0.275
52770W        W22651  26.184  15.267   3.674
52771W        W22652  11.337  24.697   3.209
52772W        W22653   4.898  14.644  13.846
52773W        W22654  15.103  21.738   2.362
52774W        W22655  20.059   0.459  11.575
52775W        W22656  41.818   1.757  10.579
52776W        W22657   4.243  28.157   2.257
52777W        W22658  15.599  13.326  14.443
52778W        W22659   4.892  21.548  10.499
52779W        W22660  27.689  27.074  10.894
52780W        W22661  27.006  26.005   4.788
52781W        W22662   3.894   1.472   1.263
52782W        W22663   7.329   2.435  13.977
52783W        W22664  37.986  38.449  10.608
52784W        W22665  16.126  37.961  11.447
52785W        W22666  38.431  20.057  13.797
52786W        W22667  10.837  43.920   4.128
52787W        W22668   5.842  27.177  14.980
52788W        W22669  19.578  29.145  11.946
52789W        W22670  41.005  16.646  14.760
52790W        W22671  25.507  42.455   4.316
52791W        W22672  34.061   6.808  11.575
52792W        W22673  43.779  27.942  14.934
52793W        W22674  22.741  35.083   1.447
52794W        W22675  43.787  18.199  12.004
52795W        W22676  14.595  24.573   3.670
52796W        W22677  41.827   8.752  10.135
52797W        W22678  16.776  25.473  14.986
52798W        W22679  35.511  43.296  11.001
52799W        W22680   9.804   9.782  13.397
52800W        W22681  44.866  41.450  14.836
52801W        W22682   7.175  30.576   0.246
52802W        W22683   5.857  26.972  12.406
52803W        W22684  17.562   0.355  13.408
52804W        W22685  32.948  40.346   2.264
52805W        W22686  31.036   9.687  13.836
52806W        W22687  25.608   9.351  11.874
52807W        W22688  32.430  24.548  11.890
52808W        W22689  30.565   7.814   2.725
52809W        W22690  13.146  16.799   1.910
52810W        W22691   2.291  18.174   2.315
52811W        W22692  17.291  16.667   0.454
52812W        W22693   4.798  27.675   1.742
52813W        W22694   8.727   0.911  13.794
52814W        W22695  21.514  11.369  11.914
52815W        W22696  40.027  21.520  14.988
52816W        W22697  27.650   5.774   1.830
52817W        W22698  32.440  24.516   2.696
52818W        W22699  31.555  22.504  10.963
52819W        W22700  14.218  27.133   3.203
52820W        W22701   7.858  15.202   1.221
52821W        W22702   4.422  35.097   3.267
52822W        W22703   3.904   3.749   0.780
52823W        W22704  23.694   0.927   4.602
52824W        W22705  31.917  12.286   0.298
52825W        W22706   3.767  34.372  12.964
52826W        W22707  14.161  21.521   3.299
52827W        W22708  16.262  23.698  13.959
52828W        W22709  44.265  30.416  13.049
52829W        W22710   6.878  32.082  12.978
52830W        W22711  44.320  18.667   1.866
52831W        W22712  12.807   5.848  14.290
52832W        W22713  25.998   8.214  13.387
52833W        W22714   2.269  40.314  13.469
52834W        W22715  16.686  16.632  11.485
52835W        W22716  27.138   0.814   3.306
52836W        W22717   1.871  33.479   3.197
52837W        W22718  35.520   9.837  10.422
52838W        W22719  38.986   2.740  13.456
52839W        W22720  27.152   2.856   0.948
52840W        W22721  22.549  31.520   1.260
52841W        W22722  26.478  10.203  13.956
52842W        W22723  31.118   7.897   5.198
52843W        W22724  24.103  34.585  10.444
52844W        W22725  38.822  31.959  13.509
52845W        W22726   8.826  34.028  10.937
52846W        W22727  20.085  27.159   1.827
52847W        W22728  30.548  13.609   0.375
52848W        W22729  11.649   7.263   2.779
52849W        W22730   3.387   8.780   1.897
52850W        W22731  38.931   5.827   2.872
52851W        W22732  27.478  39.493  14.470
52852W        W22733  12.753  32.095  14.434
52853W        W22734  19.711   5.695   3.197
52854W        W22735  21.710   0.468   1.870
52855W        W22736  43.491  22.573   3.189
52856W        W22737   0.896  20.589  10.523
52857W        W22738  22.553  41.390   1.308
52858W        W22739  27.055  37.051  13.889
52859W        W22740  31.134  12.341   0.448
52860W        W22741  12.239  32.950  12.570
52861W        W22742   5.795   9.735  11.380
52862W        W22743  10.697  36.512   3.217
52863W        W22744  15.609  10.253  10.022
52864W        W22745   0.301   3.936  13.921
52865W        W22746  20.057  26.510   4.145
52866W        W22747  44.275  30.620  13.494
52867W        W22748  36.410   0.390  13.541
52868W        W22749  38.967  38.436   3.733
52869W        W22750  24.492  39.521   0.931
52870W        W22751  36.444  18.705   3.264
52871W        W22752   8.741  14.111   4.293
52872W        W22753   0.818  40.941   2.863
52873W        W22754  10.812  32.536   2.870
52874W        W22755  22.145  21.050   0.956
52875W        W22756  17.661  34.879   1.698
52876W        W22757  18.274  27.004   3.285
52877W        W22758  10.182  19.196   4.700
52878W        W22759  12.290  14.597  13.881
52879W        W22760  36.922  19.211  14.759
52880W        W22761   9.217  17.275   4.136
52881W        W22762  24.022  44.946   2.337
52882W        W22763  31.042   3.305  10.471
52883W        W22764  30.463  25.070  12.383
52884W        W22765  25.499  23.082   3.215
52885W        W22766  19.226   0.810  11.021
52886W        W22767   3.951  21.052   2.217
52887W        W22768  25.560  32.117   1.449
52888W        W22769   4.942  14.597   4.753
52889W        W22770  33.973  32.495  13.466
52890W        W22771   9.317  19.577  12.365
52891W        W22772  32.044  19.581  14.774
52892W        W22773  30.996  39.833   1.868
52893W        W22774   5.399  16.092   4.341
52894W        W22775  24.138  42.330  14.323
52895W        W22776  38.342  24.092   4.642
52896W        W22777   9.332  24.562   1.276
52897W        W22778  36.048  13.330   2.676
52898W        W22779  30.993  37.366  12.429
52899W        W22780   0.909   2.897  10.994
52900W        W22781  13.136  38.377   1.809
52901W        W22782  18.201   8.781   0.802
52902W        W22783   4.332  34.061  10.508
52903W        W22784  35.556  29.986   1.239
52904W        W22785  23.551  43.982  13.427
52905W        W22786  31.593  23.628  12.056
52906W        W22787  37.988  15.694  12.996
52907W        W22788  10.291  15.679   4.792
52908W        W22789  29.978  30.011   4.630
52909W        W22790   2.894  15.712   1.904
52910W        W22791  10.323  22.243   1.333
52911W        W22792   3.941  34.597   3.199
52912W        W22793  32.947  26.068  12.037
52913W        W22794  43.022  20.033   0.309
52914W        W22795  13.307   0.956   5.135
52915W        W22796  26.566  42.478  10.898
52916W        W22797  10.258  18.618  10.546
52917W        W22798   7.189  29.962  12.386
52918W        W22799  24.984   6.204  10.621
52919W        W22800  38.996   0.966  12.504
52920W        W22801  26.588  30.454   2.714
52921W        W22802  12.660  19.712  11.870
52922W        W22803  44.775  43.010  11.506
52923W        W22804  44.785  31.980  14.399
52924W        W22805  18.691  22.199   2.734
52925W        W22806  37.544  32.415   0.482
52926W        W22807  40.509  40.947   4.606
52927W        W22808  27.015  22.037   1.802
52928W        W22809  38.390  27.189   1.385
52929W        W22810  43.880  10.156   0.284
52930W        W22811  27.955  20.266  10.970
52931W        W22812  15.751  17.133   0.454
52932W        W22813  33.878  24.006   0.444
52933W        W22814   7.201  12.148   2.747
52934W        W22815  38.515  21.171  11.555
52935W        W22816   2.749  19.137   0.403
52936W        W22817  38.431  21.612   4.181
52937W        W22818  24.543   5.746  11.911
52938W        W22819  29.627  28.119   2.837
52939W        W22820   8.211   4.271  14.766
52940W        W22821  28.005  19.136  11.944
52941W        W22822   7.889  29.098   1.301
52942W        W22823   4.900  17.103  12.842
52943W        W22824   8.308  30.037  14.293
52944W        W22825  27.662   3.217   0.335
52945W        W22826  18.727  14.767   0.392
52946W        W22827  20.061  34.422   4.814
52947W        W22828   0.863  19.727   3.358
52948W        W22829   3.270  35.880   0.315
52949W        W22830  29.583  11.321  10.569
52950W        W22831  13.267   4.816  14.470
52951W        W22832  13.777  14.101   4.836
52952W        W22833   6.911   3.385   4.257
52953W        W22834   8.250  23.572   2.699
52954W        W22835  18.151  33.961   4.217
52955W        W22836  44.323  44.874  12.072
52956W        W22837  28.539  43.921  14.989
52957W        W22838  14.184   1.812  14.928
52958W        W22839  44.453  21.513  14.912
52959W        W22840   1.878  33.879   3.243
52960W        W22841   0.930  36.043   3.651
52961W        W22842  15.301  24.552   0.298
52962W        W22843  33.967  42.447  12.353
52963W        W22844  35.098  39.974  14.015
52964W        W22845  40.973  19.282  14.804
52965W        W22846  30.490  20.129   0.888
52966W        W22847  40.978   9.730  12.374
52967W        W22848  14.160  23.578   0.933
52968W        W22849  15.226  34.030  14.813
52969W        W22850  31.615  18.624   0.340
52970W        W22851  21.666  30.163  14.918
52971W        W22852   9.387   3.932  11.864
52972W        W22853  10.190  21.131   0.897
52973W        W22854  16.094  31.028  13.522
52974W        W22855   8.316   4.346   2.375
52975W        W22856  30.442   1.801  10.607
52976W        W22857  26.477  25.149  10.596
52977W        W22858   9.292  39.847   4.118
52978W        W22859  42.925   1.447   0.291
52979W        W22860  18.121   0.835   1.383
52980W        W22861  25.561  15.665  11.543
52981W        W22862   3.908  24.032   4.192
52982W        W22863  24.161  24.160  12.440
52983W        W22864  33.581  24.121   0.435
52984W        W22865   5.807   3.240   3.164
52985W        W22866  23.491   4.270  12.000
52986W        W22867  19.059  29.086  14.323
52987W        W22868  34.595  29.461  10.628
52988W        W22869  24.985  36.890   1.885
52989W        W22870  44.770  34.053   0.441
52990W        W22871  22.023   3.362   4.640
52991W        W22872   3.293  13.758   0.758
52992W        W22873  17.636  40.430   2.688
52993W        W22874  36.566  22.581   2.669
52994W        W22875  40.402  30.121   2.280
52995W        W22876  34.923  34.923  13.867
52996W        W22877   8.839   0.275  10.606
52997W        W22878  13.688   4.392  11.531
52998W        W22879  39.315  15.277   2.688
52999W        W22880  26.459  30.075   2.678
53000W        W22881  30.568  44.291  11.603
53001W        W22882  13.829  20.059   1.800
53002W        W22883  44.886  33.966   3.860
53003W        W22884  12.769   4.714  11.924
53004W        W22885  34.512   7.903   3.205
53005W        W22886  17.674  30.577   3.347
53006W        W22887  39.059  44.266   2.664
53007W        W22888  16.759  11.273  14.339
53008W        W22889  31.008  26.522   2.207
53009W        W22890  10.214  32.123  13.510
53010W        W22891  41.862  38.500   3.653
53011W        W22892  29.977  24.031  12.884
53012W        W22893  34.940  20.607   1.713
53013W        W22894   5.750   2.397  13.879
53014W        W22895  23.523  24.122  14.367
53015W        W22896  32.457  41.990  13.459
53016W        W22897  26.070  24.086   0.448
53017W        W22898  24.511  40.353   2.892
53018W        W22899  36.390  43.279   1.377
53019W        W22900  42.978  22.592   3.736
53020W        W22901   9.713   4.268   1.694
53021W        W22902  32.895  29.113   4.645
53022W        W22903   7.682  16.755   2.895
53023W        W22904  21.756  20.043   2.283
53024W        W22905  11.860  40.029   4.770
53025W        W22906  19.742  26.503  14.419
53026W        W22907  21.026  24.590  10.635
53027W        W22908  13.769  13.325  13.318
53028W        W22909  10.815  18.208  10.110
53029W        W22910   5.233  39.861  13.004
53030W        W22911  23.191  23.031  11.128
53031W        W22912  28.519  34.891  10.625
53032W        W22913  33.933  36.849   3.790
53033W        W22914  35.039  12.358  12.382
53034W        W22915  33.101  12.631   1.747
53035W        W22916  14.187   7.388   0.863
53036W        W22917  42.878   7.765   0.829
53037W        W22918  32.970  28.476  11.388
53038W        W22919  19.585  42.895   1.761
53039W        W22920   0.776  22.135   3.386
53040W        W22921  31.589  37.521   1.875
53041W        W22922   6.192  29.069   2.710
53042W        W22923  33.888  25.038   1.812
53043W        W22924  44.816  40.448   1.888
53044W        W22925   2.230  26.551  11.018
53045W        W22926   0.289  36.884  14.928
53046W        W22927  26.547  24.091   2.900
53047W        W22928   4.809   1.359  10.926
53048W        W22929  22.528  34.526   1.745
53049W        W22930  27.452  18.150  11.502
53050W        W22931  17.567   4.225   3.859
53051W        W22932  26.672  10.363   4.193
53052W        W22933   1.890  31.556   2.333
53053W        W22934  25.078  20.737   3.796
53054W        W22935  38.866  35.970  14.405
53055W        W22936   3.350   9.207  14.008
53056W        W22937  30.094  43.294  11.036
53057W        W22938   9.224  13.331  13.061
53058W        W22939  29.128  28.142  12.887
53059W        W22940  34.550  13.769  11.074
53060W        W22941  15.315  16.086   4.352
53061W        W22942  34.468  16.623   0.868
53062W        W22943  15.135  29.023   1.234
53063W        W22944   9.723   6.805  10.889
53064W        W22945  41.822  13.227  12.410
53065W        W22946  36.926  27.448   0.816
53066W        W22947  29.647   0.432   1.880
53067W        W22948  15.594   4.926  10.575
53068W        W22949  11.320  23.610  12.366
53069W        W22950  30.454   0.417  14.885
53070W        W22951  20.710  23.123  14.381
53071W        W22952  15.751  29.031  12.366
53072W        W22953  39.983  13.220  13.866
53073W        W22954   9.763  17.754   5.127
53074W        W22955  36.476  25.199   4.736
53075W        W22956  34.479  43.347  13.037
53076W        W22957  19.758   4.300  12.492
53077W        W22958  34.085   6.212   0.915
53078W        W22959  31.535  18.204  14.439
53079W        W22960  11.304  21.534  13.414
53080W        W22961   7.675  12.308   3.663
53081W        W22962   3.431  17.712   1.901
53082W        W22963  18.760   6.323   0.910
53083W        W22964  35.912   3.415  14.898
53084W        W22965  11.199  24.218  13.034
53085W        W22966  25.034  34.420  12.349
53086W        W22967  38.517  39.999   3.787
53087W        W22968  12.321  19.700  11.034
53088W        W22969  28.559   9.778   1.270
53089W        W22970   3.845  28.099  14.994
53090W        W22971  32.067  35.962  14.770
53091W        W22972  44.320  27.024   0.771
53092W        W22973   3.215  41.391  10.418
53093W        W22974  29.170  23.643  10.912
53094W        W22975  20.083  25.148  13.491
53095W        W22976  15.584  22.125  12.409
53096W        W22977  14.226   1.808  12.872
53097W        W22978  11.749   8.226   2.667
53098W        W22979  15.323  43.363   2.818
53099W        W22980  25.695  17.196   2.854
53100W        W22981  22.618   9.188   0.898
53101W        W22982   3.877   7.400  10.908
53102W        W22983  17.110   1.239  14.371
53103W        W22984  27.143  27.498  13.408
53104W        W22985  34.544  33.453   3.776
53105W        W22986  13.840  22.641   4.621
53106W        W22987  44.832  26.107  13.450
53107W        W22988  24.014   9.764   1.880
53108W        W22989  21.185  18.638  11.116
53109W        W22990   3.770  40.499  13.407
53110W        W22991   9.221  23.204  10.460
53111W        W22992  14.246  38.977  10.949
53112W        W22993  16.756  10.818   4.185
53113W        W22994  26.507  32.543  13.970
53114W        W22995   0.362  37.830   4.202
53115W        W22996  32.417   9.326   2.375
53116W        W22997  16.702   4.448  13.850
53117W        W22998  41.480  34.086  14.496
53118W        W22999  39.908  36.552   1.725
53119W        W23000  10.735  37.336   2.700
53120W        W23001  41.338  43.004  12.352
53121W        W23002  30.023   7.245   3.308
53122W        W23003  13.180  19.713  11.110
53123W        W23004  25.086   9.318  10.417
53124W        W23005   1.747   9.705  13.016
53125W        W23006   1.855   5.866  14.847
53126W        W23007  33.471  35.575   1.922
53127W        W23008  11.263  32.044  10.941
53128W        W23009  13.785  39.913  11.566
53129W        W23010   0.768   6.883  10.574
53130W        W23011  40.862  40.938  10.587
53131W        W23012   8.368  26.140   1.360
53132W        W23013  13.204   0.427   3.821
53133W        W23014   3.448  35.935  13.882
53134W        W23015   8.686  28.503   2.840
53135W        W23016  13.669  12.791  11.580
53136W        W23017  19.280   4.370  14.852
53137W        W23018  24.657  33.562  11.048
53138W        W23019  37.840   3.947  10.938
53139W        W23020   6.808  29.035   2.865
53140W        W23021   1.278  20.720   1.269
53141W        W23022   3.913  31.421  12.355
53142W        W23023   9.262  14.720  14.826
53143W        W23024  14.166  12.126  10.505
53144W        W23025  31.614  36.910   2.201
53145W        W23026  21.695  24.656  14.419
53146W        W23027  22.112   4.210  11.991
53147W        W23028  43.857   2.281  12.977
53148W        W23029  34.033  10.670  14.311
53149W        W23030  35.103  19.088  14.332
53150W        W23031  36.442  42.976   4.348
53151W        W23032  26.061  31.482  10.580
53152W        W23033  34.434  41.857  13.842
53153W        W23034  34.001  29.140  11.538
53154W        W23035   1.919  44.320  10.536
53155W        W23036   3.454  14.792  10.565
53156W        W23037  15.680  16.720   0.256
53157W        W23038  38.840  13.124  13.998
53158W        W23039  13.729  39.359   2.811
53159W        W23040   6.299  36.427   4.604
53160W        W23041  36.894  40.435   2.893
53161W        W23042  31.126  22.568  13.366
53162W        W23043  43.873  14.783   0.794
53163W        W23044  14.228   3.351  14.513
53164W        W23045  31.481  41.527  11.378
53165W        W23046  20.179  23.505   4.155
53166W        W23047  30.955  21.593   1.368
53167W        W23048  42.405  30.557  14.431
53168W        W23049  36.861  42.020   0.750
53169W        W23050  30.095  37.426  11.034
53170W        W23051   3.718  36.347  11.596
53171W        W23052  15.168   7.887  12.884
53172W        W23053  23.191   3.458  13.041
53173W        W23054  31.435  16.687  13.495
53174W        W23055  19.556  29.986   2.332
53175W        W23056  10.157   4.793   2.668
53176W        W23057   9.271  17.203  10.539
53177W        W23058  44.786  39.834   3.346
53178W        W23059   1.307  12.240  12.487
53179W        W23060   1.380  39.989  11.456
53180W        W23061  27.162  30.486  11.116
53181W        W23062   1.765  22.609   1.896
53182W        W23063   1.963  13.131  11.100
53183W        W23064  16.726  11.350   1.716
53184W        W23065  32.471  39.003  13.419
53185W        W23066  41.956  36.856  11.078
53186W        W23067  44.497  38.502   3.174
53187W        W23068  17.249  44.000  11.564
53188W        W23069  13.618  28.552   0.842
53189W        W23070  44.781  10.756   2.868
53190W        W23071  38.883  32.627  14.883
53191W        W23072  38.013   2.819   0.427
53192W        W23073  44.263   0.792   5.188
53193W        W23074  31.423  14.196   3.337
53194W        W23075   0.967  23.198  12.457
53195W        W23076  21.052  33.405  13.536
53196W        W23077  28.602  31.531   3.857
53197W        W23078  22.031  34.542   4.605
53198W        W23079  42.938  43.941  10.462
53199W        W23080  37.032  23.001   0.808
53200W        W23081  38.375  40.866   2.362
53201W        W23082  13.158  40.004   2.337
53202W        W23083  39.048  30.580  10.915
53203W        W23084   9.820  40.380   4.240
53204W        W23085  17.166  26.543   4.352
53205W        W23086  18.141  18.632  12.850
53206W        W23087   3.758  15.797   9.993
53207W        W23088  16.668  16.805  13.546
53208W        W23089  23.520  44.829   0.253
53209W        W23090   2.725  29.628  13.532
53210W        W23091  17.135  10.151  14.320
53211W        W23092   3.730  10.643   3.307
53212W        W23093  15.096  40.862  13.445
53213W        W23094  26.576  18.754   2.883
53214W        W23095  38.530  29.617  11.391
53215W        W23096   8.813  41.984  14.006
53216W        W23097  37.944  39.943   2.216
53217W        W23098   9.267  43.939   4.215
53218W        W23099  40.543  44.404  11.856
53219W        W23100  38.918   3.281  14.871
53220W        W23101  27.987   4.783   2.217
53221W        W23102   6.790  38.411   4.798
53222W        W23103  27.096  36.556   2.801
53223W        W23104  35.090   6.771  11.020
53224W        W23105  34.591   9.242   4.248
53225W        W23106   8.228  44.352  11.970
53226W        W23107  23.999  23.736   1.292
53227W        W23108   5.841   6.326   0.346
53228W        W23109  10.816  37.022   4.750
53229W        W23110  32.958  38.329   0.313
53230W        W23111  44.259  10.210   2.199
53231W        W23112  33.998  10.834  10.890
53232W        W23113  22.728  22.740   2.869
53233W        W23114   1.906  32.900   1.722
53234W        W23115  43.970  34.614  14.019
53235W        W23116   2.751   9.863  11.436
53236W        W23117  40.892  39.855   1.320
53237W        W23118   2.752   6.899  11.558
53238W        W23119  28.436   8.898  14.407
53239W        W23120  24.694  17.220  14.919
53240W        W23121  24.225  16.651  13.546
53241W        W23122  13.719  44.843  14.513
53242W        W23123  42.872  32.931   0.804
53243W        W23124  34.863   2.241  14.337
53244W        W23125   4.937  10.844  13.896
53245W        W23126  43.804   0.282  13.414
53246W        W23127  21.182  15.317  11.862
53247W        W23128   1.352  32.525  13.441
53248W        W23129   4.386  29.165   2.765
53249W        W23130  32.569   9.733  11.383
53250W        W23131  22.530  29.521   1.226
53251W        W23132  25.012  12.356   0.435
53252W        W23133  34.906  32.998  13.906
53253W        W23134  11.334   6.792   4.622
53254W        W23135   8.854  12.740  14.397
53255W        W23136  12.192  15.701   3.179
53256W        W23137  38.391  10.264   2.883
53257W        W23138  44.491  12.162   3.778
53258W        W23139  43.415  39.476   0.283
53259W        W23140  44.919   7.871  11.404
53260W        W23141  28.484  25.197   3.280
53261W        W23142  10.874  41.836   0.319
53262W        W23143  36.981  33.586   0.322
53263W        W23144  17.061  17.635  10.528
53264W        W23145  13.665   3.898   4.129
53265W        W23146  18.688  34.960   3.639
53266W        W23147  31.437  33.610  13.486
53267W        W23148  41.409  25.709  11.120
53268W        W23149  36.085  20.718  10.627
53269W        W23150  38.415   3.392   0.330
53270W        W23151  42.903  40.484  10.471
53271W        W23152  41.848   5.744   2.350
53272W        W23153  43.390   3.249  11.459
53273W        W23154   8.266  27.043   1.309
53274W        W23155   6.881  23.020  11.424
53275W        W23156   1.344  37.070   1.406
53276W        W23157  36.849  29.601  13.978
53277W        W23158   2.900   4.449  14.000
53278W        W23159   6.185  19.604   2.353
53279W        W23160   3.327  16.279  13.477
53280W        W23161  10.747  31.983  13.484
53281W        W23162  22.094   6.796   1.761
53282W        W23163  37.955  18.587  12.942
53283W        W23164  28.028  19.615  10.427
53284W        W23165   0.962  23.509   4.645
53285W        W23166  15.677   6.218   0.769
53286W        W23167  19.692  44.464   3.800
53287W        W23168  29.041  40.396   0.368
53288W        W23169  24.605  10.230   2.774
53289W        W23170  40.447  27.465   1.246
53290W        W23171  10.729  15.101   4.349
53291W        W23172  29.589   7.708   2.741
53292W        W23173  19.264  36.427  14.771
53293W        W23174  15.730  18.762   4.277
53294W        W23175  16.691  21.091  12.967
53295W        W23176  15.781  16.080  11.437
53296W        W23177   2.886   6.373   1.725
53297W        W23178   3.838  17.582  14.931
53298W        W23179  27.159  23.537   5.704
53299W        W23180  26.114  25.616   1.741
53300W        W23181  14.243  18.160   0.827
53301W        W23182  32.109   6.208  12.382
53302W        W23183  39.972   4.752   2.733
53303W        W23184  25.710  27.456  11.999
53304W        W23185  24.044  13.699  11.474
53305W        W23186  35.396   4.235   4.722
53306W        W23187  44.994  10.326  14.974
53307W        W23188   6.869  10.864  14.852
53308W        W23189  35.360  39.348   4.269
53309W        W23190  16.748  16.143   3.831
53310W        W23191  11.703  11.235   3.202
53311W        W23192  14.700  35.072  10.600
53312W        W23193   3.775  23.125   3.365
53313W        W23194   5.375  35.529   0.258
53314W        W23195  29.111   9.164   2.723
53315W        W23196  41.935   5.824   1.802
53316W        W23197  31.548   0.464   1.245
53317W        W23198  42.384  35.960   1.752
53318W        W23199  29.919  23.076   0.767
53319W        W23200  19.226  34.041   2.405
53320W        W23201  38.519  36.010  11.115
53321W        W23202  35.857   8.276  12.036
53322W        W23203  20.152  29.991   2.236
53323W        W23204  28.147  12.198  13.997
53324W        W23205   3.261  11.706  12.565
53325W        W23206  16.083  12.221  12.377
53326W        W23207  27.149  16.154   0.848
53327W        W23208  31.648   8.341  13.887
53328W        W23209  30.627   5.782  11.889
53329W        W23210  42.340  44.280  13.803
53330W        W23211  28.565  16.112  11.421
53331W        W23212  14.233  23.727  11.016
53332W        W23213  13.793  42.433   3.849
53333W        W23214  29.500  39.014  12.452
53334W        W23215  16.607  19.119   0.799
53335W        W23216  29.620   8.724  13.802
53336W        W23217   2.857   2.904  13.011
53337W        W23218  14.633  20.609   0.752
53338W        W23219  34.938  11.825   1.431
53339W        W23220  18.062  36.584   3.688
53340W        W23221  33.930  28.115  10.634
53341W        W23222  30.634   6.766  13.791
53342W        W23223   4.704  43.830  10.455
53343W        W23224  35.954  16.180   4.239
53344W        W23225  27.041  29.645  11.563
53345W        W23226  10.686  22.652   4.768
53346W        W23227  31.401   0.859   2.183
53347W        W23228  32.138  31.044  12.997
53348W        W23229  16.160  41.875  13.964
53349W        W23230  40.797  25.497   3.800
53350W        W23231  16.642  20.264  12.847
53351W        W23232  11.213  33.496  10.908
53352W        W23233  23.223   0.352   2.212
53353W        W23234   4.940  22.062   4.794
53354W        W23235  26.525  37.030  10.531
53355W        W23236   4.749  19.616  11.004
53356W        W23237  20.173  17.617   0.845
53357W        W23238  32.582   2.262   4.716
53358W        W23239  19.536  40.832  14.328
53359W        W23240   8.738  35.370  14.844
53360W        W23241   8.253  34.589  12.852
53361W        W23242   1.271  15.644  10.987
53362W        W23243  36.944   7.788  13.972
53363W        W23244  19.206  27.495  14.820
53364W        W23245  36.520  42.437  14.331
53365W        W23246   8.378  34.383   4.805
53366W        W23247  28.578  38.485   1.288
53367W        W23248  32.078  10.242   3.363
53368W        W23249  25.013  42.795   4.319
53369W        W23250  38.837  26.630  11.933
53370W        W23251  16.257   1.316   4.199
53371W        W23252  22.228   9.222   1.447
53372W        W23253  43.339  20.060  11.399
53373W        W23254  10.846  16.687   9.938
53374W        W23255  15.664  10.309  12.437
53375W        W23256  44.755  36.537   1.919
53376W        W23257  20.134  28.147   1.772
53377W        W23258   4.305  29.669  13.918
53378W        W23259  22.669  15.098  10.518
53379W        W23260  23.223  32.088   1.910
53380W        W23261  37.519  34.938   2.278
53381W        W23262  16.738   8.161   1.345
53382W        W23263  15.632  34.916  14.973
53383W        W23264  14.612  39.456   0.767
53384W        W23265   4.849  20.632   4.633
53385W        W23266  36.015  17.786  12.496
53386W        W23267  35.933  22.012   0.245
53387W        W23268  37.420  43.360   0.736
53388W        W23269  23.516  30.104   4.241
53389W        W23270  31.455   8.231  12.860
53390W        W23271  39.995   9.365  13.335
53391W        W23272  28.663  31.904   4.793
53392W        W23273  27.082  26.477   0.882
53393W        W23274   8.394  26.702   3.241
53394W        W23275  16.219  41.869  10.443
53395W        W23276  29.556  24.609   2.840
53396W        W23277  28.058  34.902  13.536
53397W        W23278   9.274  24.667  12.547
53398W        W23279  27.176  20.214  14.790
53399W        W23280  14.816  30.435  10.446
53400W        W23281  38.839  24.594   3.814
53401W        W23282   0.280  12.773  13.331
53402W        W23283   0.901   6.814   0.754
53403W        W23284  34.440  10.328   1.788
53404W        W23285  31.624  25.561  12.392
53405W        W23286  21.214  16.707  12.885
53406W        W23287   7.226  30.953   1.234
53407W        W23288  41.379  44.851   3.643
53408W        W23289  14.202  10.225   9.997
53409W        W23290  41.380   2.764   1.773
53410W        W23291  15.101  21.566   1.752
53411W        W23292  22.116  36.501   3.837
53412W        W23293  37.458  23.532  13.359
53413W        W23294  16.291  43.316   4.815
53414W        W23295  30.118   8.683   3.809
53415W        W23296   9.756   7.323   1.891
53416W        W23297  28.543  25.504  12.400
53417W        W23298  36.515  17.734   2.301
53418W        W23299  15.213   4.741   0.393
53419W        W23300  25.054   4.212  12.981
53420W        W23301  30.090  37.401   3.254
53421W        W23302  36.580   3.806  10.515
53422W        W23303  40.344  15.640   5.311
53423W        W23304  16.199  18.731   1.834
53424W        W23305  38.405  36.009  13.403
53425W        W23306  34.901  17.759  11.393
53426W        W23307  40.515  36.470  12.009
53427W        W23308  41.522  37.983   1.420
53428W        W23309   5.715   1.845   4.176
53429W        W23310  11.199  12.248  12.921
53430W        W23311  25.171  15.119  13.037
53431W        W23312  36.536  13.248   3.854
53432W        W23313  15.735  23.660  12.018
53433W        W23314  35.967  10.844  12.841
53434W        W23315  19.635  23.175  10.998
53435W        W23316  40.466  23.672   1.234
53436W        W23317  15.809  16.784   3.378
53437W        W23318  11.148  22.084  13.358
53438W        W23319  43.898   4.431   2.238
53439W        W23320  10.334  23.188   3.757
53440W        W23321  42.907  11.836  14.782
53441W        W23322  11.626   7.868  11.124
53442W        W23323  42.906   4.405   2.787
53443W        W23324  13.737  39.827  10.497
53444W        W23325  22.021  14.294   3.645
53445W        W23326  26.114  28.116  14.889
53446W        W23327  35.080  28.579   1.255
53447W        W23328  38.886   2.268   2.389
53448W        W23329   9.377  18.092   1.819
53449W        W23330  33.616  27.461  12.393
53450W        W23331  19.095  35.363  14.878
53451W        W23332   2.344  40.375   3.207
53452W        W23333  18.617  40.014   3.674
53453W        W23334  30.912   5.398   0.930
53454W        W23335  18.599  23.118   3.711
53455W        W23336  17.207  43.361   2.730
53456W        W23337  19.084  28.675   2.419
53457W        W23338  11.844  38.351   0.454
53458W        W23339  16.189  30.617   2.853
53459W        W23340  31.525  16.087  13.975
53460W        W23341   7.840  14.165  10.578
53461W        W23342  37.843  35.567   4.621
53462W        W23343   9.735  25.029  13.388
53463W        W23344   3.296  17.676  11.494
53464W        W23345   0.380  36.843  12.462
53465W        W23346   1.408   0.849   3.772
53466W        W23347  11.243  17.592   1.743
53467W        W23348  26.996  11.625  12.010
53468W        W23349  20.158  14.170  12.503
53469W        W23350  18.613  24.672  13.344
53470W        W23351   4.398   0.983   1.283
53471W        W23352   3.229  28.087  13.063
53472W        W23353  39.920   8.718   3.695
53473W        W23354  44.847  19.762   0.815
53474W        W23355  33.607   9.196   2.407
53475W        W23356  26.525   6.203   4.727
53476W        W23357  40.448  33.607  13.966
53477W        W23358  38.893  28.667  13.478
53478W        W23359  41.020  38.018   3.784
53479W        W23360  33.498  25.057  12.090
53480W        W23361  12.837  10.835  12.437
53481W        W23362   1.285  24.639  11.492
53482W        W23363  26.000   8.378  12.525
53483W        W23364  19.165  30.642  12.357
53484W        W23365   8.733  38.551  13.491
53485W        W23366  34.060  30.492   5.245
53486W        W23367  16.093  37.012   0.319
53487W        W23368  29.935   7.801  10.087
53488W        W23369  11.332   7.834  12.529
53489W        W23370  13.718  34.982   0.839
53490W        W23371  21.709  11.815  12.521
53491W        W23372  15.738  21.084   2.414
53492W        W23373  25.081  28.068  11.397
53493W        W23374  39.063  18.116   0.416
53494W        W23375  29.628  30.109   2.315
53495W        W23376  11.633  16.665  12.041
53496W        W23377  20.146  39.418  11.598
53497W        W23378   4.343  16.651  13.368
53498W        W23379  30.467  14.719  14.847
53499W        W23380  40.368  38.454   4.718
53500W        W23381  31.938  41.462  10.495
53501W        W23382  39.513  26.009   2.402
53502W        W23383  11.269  41.508  10.526
53503W        W23384   9.832   9.799  12.838
53504W        W23385  43.824  15.794  13.474
53505W        W23386  32.064  42.370  13.419
53506W        W23387  24.490  23.527  12.998
53507W        W23388  20.593  28.011   0.826
53508W        W23389   2.372  44.803   0.960
53509W        W23390  41.333  44.820   3.359
53510W        W23391   8.779  29.658   2.380
53511W        W23392  33.614   2.380  11.098
53512W        W23393   3.778  30.010   3.183
53513W        W23394  43.386  37.059   0.729
53514W        W23395  18.246   0.439  10.612
53515W        W23396   3.393  14.669   1.377
53516W        W23397   9.369  17.759   0.824
53517W        W23398   6.759  35.389   3.302
53518W        W23399   2.380  28.495  11.604
53519W        W23400   2.261  19.088   3.187
53520W        W23401  26.597  17.225  13.547
53521W        W23402  33.424  18.660   4.326
53522W        W23403  17.270  22.236   4.200
53523W        W23404   4.939   1.483  11.393
53524W        W23405  20.768  13.228   3.254
53525W        W23406   2.823  42.778  14.455
53526W        W23407   3.377   5.211  14.017
53527W        W23408  34.561  38.972  12.886
53528W        W23409   8.656   3.953   4.622
53529W        W23410  33.567  23.162   0.312
53530W        W23411  42.504  41.800   2.737
53531W        W23412  29.093  23.520   3.344
53532W        W23413  27.103  27.045  12.413
53533W        W23414  32.470  24.712  14.946
53534W        W23415  44.501  44.261  14.897
53535W        W23416  38.014   3.721   0.260
53536W        W23417  21.661  35.555   3.837
53537W        W23418   7.271  29.929  10.559
53538W        W23419  43.917   5.879  10.593
53539W        W23420  28.148   1.899  13.344
53540W        W23421  36.889   3.232   4.122
53541W        W23422  14.630  13.747  11.410
53542W        W23423  17.176  32.511   3.331
53543W        W23424  13.223  18.570   1.434
53544W        W23425   6.877  28.090   3.796
53545W        W23426  26.179   6.793   0.821
53546W        W23427  11.142  25.692  12.513
53547W        W23428   8.295  42.964  10.508
53548W        W23429   2.461  44.386  11.547
53549W        W23430  36.994   6.834  12.921
53550W        W23431  17.121  30.603   4.188
53551W        W23432   3.369  40.429  13.397
53552W        W23433  23.240  37.383   4.195
53553W        W23434  13.664  16.314  11.877
53554W        W23435  34.063  36.998   0.461
53555W        W23436  21.175  39.050  13.974
53556W        W23437  11.280  21.729   4.793
53557W        W23438   9.278  44.938   3.665
53558W        W23439   1.869  14.629   2.408
53559W        W23440  41.427   6.417   1.921
53560W        W23441   1.481  31.951  14.378
53561W        W23442  17.269  24.205  12.415
53562W        W23443  24.977  16.275   2.719
53563W        W23444  16.228  43.897   2.263
53564W        W23445  31.009  34.416  13.027
53565W        W23446  24.587  28.599   0.796
53566W        W23447  22.077  26.560   1.231
53567W        W23448  38.836  34.899   1.422
53568W        W23449  21.130   4.384   2.792
53569W        W23450   1.857  21.089  14.429
53570W        W23451  12.202  20.262   4.304
53571W        W23452  36.401  23.129  14.357
53572W        W23453   0.826  22.097   4.745
53573W        W23454   8.227  33.941   0.733
53574W        W23455  42.933  26.064  10.464
53575W        W23456   7.363  44.330  10.055
53576W        W23457  21.124  20.044  10.903
53577W        W23458  18.084  13.285   2.827
53578W        W23459  16.092  41.906  14.829
53579W        W23460   9.708  27.543   0.930
53580W        W23461  40.833  20.575  11.542
53581W        W23462  36.566  23.007  14.831
53582W        W23463  32.449  42.033   4.819
53583W        W23464  19.544  34.448  10.973
53584W        W23465  11.205  19.639   2.874
53585W        W23466  13.691  32.085  12.879
53586W        W23467  15.094   3.794  13.976
53587W        W23468  42.483  22.062   1.835
53588W        W23469  44.308  14.712  12.570
53589W        W23470   8.312   2.948   1.238
53590W        W23471  38.020  42.902  14.431
53591W        W23472   3.748   3.813  13.400
53592W        W23473  33.483  41.371   4.665
53593W        W23474  40.407  35.108   4.761
53594W        W23475   9.388  37.912  11.587
53595W        W23476  28.939  24.080   2.820
53596W        W23477   6.757  22.682   3.146
53597W        W23478   3.225  12.240   0.306
53598W        W23479  33.129  37.396   0.409
53599W        W23480   6.373  25.007   4.633
53600W        W23481  21.074  22.510   3.233
53601W        W23482  12.361  27.649  11.391
53602W        W23483  40.824   8.247   0.786
53603W        W23484  24.611   5.865   1.791
53604W        W23485  12.745  29.063  11.073
53605W        W23486  24.519  11.190  11.857
53606W        W23487  21.062   6.223  14.293
53607W        W23488  19.251  33.557   1.345
53608W        W23489  13.195  36.965   0.741
53609W        W23490  17.101  38.506  10.986
53610W        W23491  42.526   3.312   1.700
53611W        W23492  29.156  31.412  14.279
53612W        W23493   6.304  11.355   3.239
53613W        W23494  20.218   0.363  14.277
53614W        W23495   9.675  13.197   2.306
53615W        W23496   2.248  23.140   1.853
53616W        W23497  25.519   2.926   3.744
53617W        W23498  19.666  22.225  11.972
53618W        W23499  36.842   7.211   0.880
53619W        W23500  24.066  14.650   0.820
53620W        W23501  22.567  34.970  13.994
53621W        W23502  25.547  43.777   4.802
53622W        W23503   2.845  39.864  12.871
53623W        W23504  18.182  44.485  12.408
53624W        W23505   6.816  13.230  12.412
53625W        W23506  34.579  10.187  12.376
53626W        W23507  22.018  13.310   1.738
53627W        W23508  34.541  33.922   4.147
53628W        W23509  13.799  17.627  13.504
53629W        W23510  33.078  35.950   1.806
53630W        W23511  17.101  12.685   3.280
53631W        W23512  41.977  10.382  14.336
53632W        W23513  28.126  10.849   2.879
53633W        W23514   9.810  23.684  14.275
53634W        W23515  10.642  26.592  14.813
53635W        W23516  28.541  18.294  11.069
53636W        W23517  12.671  14.287  12.403
53637W        W23518  16.076  36.864   2.903
53638W        W23519  13.156  29.996   3.818
53639W        W23520   7.814  13.323   5.253
53640W        W23521  20.038  37.959   3.822
53641W        W23522  27.950  15.138   2.269
53642W        W23523  21.096  32.905   3.850
53643W        W23524  40.410  44.789   2.878
53644W        W23525  42.935   0.257   0.356
53645W        W23526  16.758  25.633   2.262
53646W        W23527  31.920  20.707   4.333
53647W        W23528  29.077  41.303   0.250
53648W        W23529  23.139  33.096   3.376
53649W        W23530  41.491  15.221  11.926
53650W        W23531  25.673  42.842   1.342
53651W        W23532  13.789  27.983  12.388
53652W        W23533  12.222   3.758   3.210
53653W        W23534  18.269  22.057  11.371
53654W        W23535  37.997  23.161   1.341
53655W        W23536  36.995  27.630  10.483
53656W        W23537   3.321   1.866  14.922
53657W        W23538   0.363  39.929  12.991
53658W        W23539  19.270  18.631  12.418
53659W        W23540  15.305  39.913  11.090
53660W        W23541  17.139  32.008  10.514
53661W        W23542  44.287  15.668   2.256
53662W        W23543  34.056   4.715   3.166
53663W        W23544  41.531  22.705  11.451
53664W        W23545  40.319  11.641   1.438
53665W        W23546  34.867   9.645  13.833
53666W        W23547  26.059   6.799  12.026
53667W        W23548  11.369  39.358   0.734
53668W        W23549  31.556  24.003   0.323
53669W        W23550  23.041   2.291  11.987
53670W        W23551  17.095  29.670   4.823
53671W        W23552   1.332   1.973   2.820
53672W        W23553  34.423  34.585  10.948
53673W        W23554  18.715  36.432  10.456
53674W        W23555  24.493  32.077   2.263
53675W        W23556  38.501  31.037   1.897
53676W        W23557  16.175  39.054  14.766
53677W        W23558  34.461  13.635  12.563
53678W        W23559   5.409  23.142   1.353
53679W        W23560  41.525  27.520   2.665
53680W        W23561  35.551  22.035  10.983
53681W        W23562   0.473  20.613   4.137
53682W        W23563   6.370   3.796  14.470
53683W        W23564  26.959  38.970  12.054
53684W        W23565  43.311  15.583  10.508
53685W        W23566   2.424  16.240  13.928
53686W        W23567  29.487  25.632  12.352
53687W        W23568  16.256   8.177  13.929
53688W        W23569  20.645  33.456  12.424
53689W        W23570   3.262  14.102  12.846
53690W        W23571  40.941  41.007  11.406
53691W        W23572  32.007  34.863   1.336
53692W        W23573  27.447  20.144   4.808
53693W        W23574   6.395  19.655  13.946
53694W        W23575   0.776  35.937   2.870
53695W        W23576  42.348  25.156  13.821
53696W        W23577   9.171  39.007   1.823
53697W        W23578  13.621   8.275  12.059
53698W        W23579  35.874  24.592   2.864
53699W        W23580   1.430   8.303   3.293
53700W        W23581  12.793  42.952  12.909
53701W        W23582   0.774  13.129   1.730
53702W        W23583  10.768  33.020  12.377
53703W        W23584  23.629   7.247  10.413
53704W        W23585  17.107  14.280   9.938
53705W        W23586  19.205  15.683   4.217
53706W        W23587  30.555   5.739  12.426
53707W        W23588   0.456  15.806  11.457
53708W        W23589  24.720  13.346  14.795
53709W        W23590  32.551  19.718  10.060
53710W        W23591  16.783   0.306   3.352
53711W        W23592   4.210  30.425  13.535
53712W        W23593  21.198   7.720   3.336
53713W        W23594   9.756   9.836  14.906
53714W        W23595  43.311  40.983  12.505
53715W        W23596  38.974  13.194  12.579
53716W        W23597  20.263  18.692   4.794
53717W        W23598  28.638  26.100  11.021
53718W        W23599  14.103  40.476  12.871
53719W        W23600  40.346   6.278   0.826
53720W        W23601  40.008   9.803  10.970
53721W        W23602  14.780  42.816   4.283
53722W        W23603  28.089  26.988  13.387
53723W        W23604  38.024  42.936   4.821
53724W        W23605   8.864  25.694   1.850
53725W        W23606  11.785  42.340   0.263
53726W        W23607  36.411  18.764   5.233
53727W        W23608   5.690  41.823  11.059
53728W        W23609  42.915  30.525  14.388
53729W        W23610  14.605  39.025   2.316
53730W        W23611  36.371  30.019  14.309
53731W        W23612  11.729   3.441   4.115
53732W        W23613  42.348  41.510   3.242
53733W        W23614  25.498  30.569   3.761
53734W        W23615  21.575  19.285   2.746
53735W        W23616  24.031   7.742  13.341
53736W        W23617  15.809   1.405   1.819
53737W        W23618  26.525  36.459  11.068
53738W        W23619  31.534  27.052   0.741
53739W        W23620  33.999  33.436  13.440
53740W        W23621  36.065  23.169   3.729
53741W        W23622  35.966   0.823   0.752
53742W        W23623  12.657  30.158   5.103
53743W        W23624  19.607  10.345   0.360
53744W        W23625  11.703  25.574   4.331
53745W        W23626  18.131  24.215  14.313
53746W        W23627  29.620   4.863  13.527
53747W        W23628  35.887  41.989  13.523
53748W        W23629   3.710  25.700  14.795
53749W        W23630  32.604  17.145   2.413
53750W        W23631  19.549  36.425   1.352
53751W        W23632  15.804   0.432  14.411
53752W        W23633  16.300  27.096  13.388
53753W        W23634  16.315  43.291   0.807
53754W        W23635   1.460  43.837   4.285
53755W        W23636  40.442  42.491   3.705
53756W        W23637  20.553   1.752  12.513
53757W        W23638  31.542  16.806  10.613
53758W        W23639  31.638  16.620   0.864
53759W        W23640  38.382  43.501   4.183
53760W        W23641   1.311  17.292  10.493
53761W        W23642   2.795  26.635   0.423
53762W        W23643  31.526  11.314  13.806
53763W        W23644  29.127  25.642   0.412
53764W        W23645  28.016  15.715  10.623
53765W        W23646  18.774  13.250   3.648
53766W        W23647  17.693   2.230  11.120
53767W        W23648   2.240  17.792  10.545
53768W        W23649   0.869  12.165   9.999
53769W        W23650  10.242  43.276   3.316
53770W        W23651  25.589  23.223  10.433
53771W        W23652  11.679  15.747  14.283
53772W        W23653  30.988  27.145  11.059
53773W        W23654  22.509   0.908   4.681
53774W        W23655  10.656  36.477  12.376
53775W        W23656  17.584   9.187  13.497
53776W        W23657  28.530  16.089  12.944
53777W        W23658  35.079  32.446   0.766
53778W        W23659  22.547   3.457   0.758
53779W        W23660  40.421   0.453   1.829
53780W        W23661  36.542  29.121  13.411
53781W        W23662  41.347  10.255   2.891
53782W        W23663  41.946  19.226   4.331
53783W        W23664  39.964  36.548  11.023
53784W        W23665  42.829  31.627   1.415
53785W        W23666   9.279  30.099  11.521
53786W        W23667  13.120   2.757  13.471
53787W        W23668   9.870   9.383  12.019
53788W        W23669  15.248  20.035  14.431
53789W        W23670   3.432  12.669  10.639
53790W        W23671  40.539  13.143   4.247
53791W        W23672  33.418  26.525  14.515
53792W        W23673   3.846  20.268  14.948
53793W        W23674  19.239  32.011   3.678
53794W        W23675  16.313   1.884   3.242
53795W        W23676  26.955  41.957  13.396
53796W        W23677  36.878  38.447  10.624
53797W        W23678  40.926  19.214   2.836
53798W        W23679  38.550  41.021  12.427
53799W        W23680  33.539  21.195   0.371
53800W        W23681   1.281   7.907   2.305
53801W        W23682   3.221  26.484   3.277
53802W        W23683   8.347   2.232   2.842
53803W        W23684  24.497   9.665  10.563
53804W        W23685   3.808   6.356  10.512
53805W        W23686  34.580   3.841  12.568
53806W        W23687  42.023   3.890  11.591
53807W        W23688  16.231  43.509   2.711
53808W        W23689  10.302  34.058   2.736
53809W        W23690  44.282  33.956  13.906
53810W        W23691  31.928  34.431   3.320
53811W        W23692  25.000  20.101  12.037
53812W        W23693   3.365  31.494  14.943
53813W        W23694  35.587  12.329   0.424
53814W        W23695  13.701  29.627  12.035
53815W        W23696  33.035  29.440  12.916
53816W        W23697  29.503  22.013   0.313
53817W        W23698  29.505  17.640   1.355
53818W        W23699   7.888  10.839   0.466
53819W        W23700  40.341  42.515  12.093
53820W        W23701  29.033  42.898   2.268
53821W        W23702  24.534  12.311  11.513
53822W        W23703   6.269  10.271  12.075
53823W        W23704  14.660  35.447  12.051
53824W        W23705  27.641  35.892   3.150
53825W        W23706  35.384  19.172   3.699
53826W        W23707   8.217  12.621   4.778
53827W        W23708  41.029  21.206  12.936
53828W        W23709  23.017   1.821   3.239
53829W        W23710  35.384  12.670  11.504
53830W        W23711  23.625   9.836  11.403
53831W        W23712  10.754  33.381  13.979
53832W        W23713   3.378   1.780   1.848
53833W        W23714   4.758   5.202  11.026
53834W        W23715   7.195   5.871  14.293
53835W        W23716  14.602  10.216  14.277
53836W        W23717  36.549  14.738  13.936
53837W        W23718  41.823  44.272   0.296
53838W        W23719   6.872   0.819  10.543
53839W        W23720   8.267  39.982  14.996
53840W        W23721  18.290   6.407   2.419
53841W        W23722  13.220  44.299  11.062
53842W        W23723  32.005  44.009  13.458
53843W        W23724  17.104   6.394   0.838
53844W        W23725  32.920  38.836   4.283
53845W        W23726  27.989  36.478   0.888
53846W        W23727  28.501  20.126  12.367
53847W        W23728  15.789  18.739   2.294
53848W        W23729  34.024   7.206   0.445
53849W        W23730  24.056  21.188  12.830
53850W        W23731  30.992  11.736  10.436
53851W        W23732  42.864  37.980   4.219
53852W        W23733  28.087  40.543   4.645
53853W        W23734  44.333  12.654   2.311
53854W        W23735  42.846  37.408  11.036
53855W        W23736  43.962  29.479   4.273
53856W        W23737  41.353   5.875   1.903
53857W        W23738  13.326   7.289  11.883
53858W        W23739  33.553   6.723   1.901
53859W        W23740  21.060  41.505   0.851
53860W        W23741  23.007  38.021  11.977
53861W        W23742  37.340  19.727  11.970
53862W        W23743  30.542   4.789   1.269
53863W        W23744  17.649  44.993   2.667
53864W        W23745  39.515  21.657   2.892
53865W        W23746   3.290  23.018  11.900
53866W        W23747  43.992  14.789  12.016
53867W        W23748  26.565  37.925   4.603
53868W        W23749  12.756  44.391   0.379
53869W        W23750   7.854   2.939  11.030
53870W        W23751  10.817  29.640  14.864
53871W        W23752  41.969  30.468   2.296
53872W        W23753  18.624  40.875   1.303
53873W        W23754  42.012   6.197  10.452
53874W        W23755  10.320  33.492   1.931
53875W        W23756  43.472  28.122   1.441
53876W        W23757  13.224   1.464   4.231
53877W        W23758  24.586  29.960   0.273
53878W        W23759  37.359  44.937   3.794
53879W        W23760  10.877  29.040  11.000
53880W        W23761  16.287  42.437   2.234
53881W        W23762  37.445  41.812   2.871
53882W        W23763   9.652  38.887  10.982
53883W        W23764  29.050   7.282   2.703
53884W        W23765  12.788  27.080   1.880
53885W        W23766   7.353   9.662  13.359
53886W        W23767   9.234  16.101   1.863
53887W        W23768   6.712  40.499  13.476
53888W        W23769  39.516  13.787   4.223
53889W        W23770  10.773  24.689  13.439
53890W        W23771   3.743  13.189  13.060
53891W        W23772   8.196  30.961  10.576
53892W        W23773  27.465  19.075   3.754
53893W        W23774  22.603  10.714   0.352
53894W        W23775  42.815   1.390  14.352
53895W        W23776  22.519  15.090   1.821
53896W        W23777  21.739  33.425   2.729
53897W        W23778   8.361  38.076  14.778
53898W        W23779   8.255  38.983  14.278
53899W        W23780  20.591  14.117   1.702
53900W        W23781  36.474  40.432   4.643
53901W        W23782   8.334  36.369   3.787
53902W        W23783  28.101  21.730  12.387
53903W        W23784  17.126  37.841   3.229
53904W        W23785  20.084  29.555   2.732
53905W        W23786  35.004   4.296  12.367
53906W        W23787   3.918  10.340   1.841
53907W        W23788  33.391   9.877   9.957
53908W        W23789   3.806  28.602   1.339
53909W        W23790   8.765   2.834  12.824
53910W        W23791  40.408  13.638  12.013
53911W        W23792  18.055  27.944   2.230
53912W        W23793  19.622  40.969  11.017
53913W        W23794  32.519  10.369  13.382
53914W        W23795  21.163  39.486   4.742
53915W        W23796  40.534  44.289   1.352
53916W        W23797   8.826  29.039  11.449
53917W        W23798  37.440   6.801  14.984
53918W        W23799  35.055  22.112   2.293
53919W        W23800  29.933   0.803   2.760
53920W        W23801  35.875   4.779   3.759
53921W        W23802  42.499  39.933   3.244
53922W        W23803  27.650  17.660   3.253
53923W        W23804  15.152   5.307   3.193
53924W        W23805  31.627  41.391   2.413
53925W        W23806   1.429   5.692   0.895
53926W        W23807  15.689  29.553   2.847
53927W        W23808  13.662  38.924  11.995
53928W        W23809  36.874   3.289   1.353
53929W        W23810   0.757  17.762   4.304
53930W        W23811  36.402  23.509  13.819
53931W        W23812  17.167  11.843  12.462
53932W        W23813  10.373  23.678   3.728
53933W        W23814  21.577   9.736   3.358
53934W        W23815  23.130  17.569  13.915
53935W        W23816  26.985  12.191   1.441
53936W        W23817  40.909  10.336  11.556
53937W        W23818  30.550   4.887  13.799
53938W        W23819   9.862   5.848   0.371
53939W        W23820   3.899  32.944  10.963
53940W        W23821   8.172   3.381   4.794
53941W        W23822  20.184  16.140  11.017
53942W        W23823  42.471  21.680  14.375
53943W        W23824  35.070  14.137   1.289
53944W        W23825  31.980  35.055   2.772
53945W        W23826   1.247   5.227   3.739
53946W        W23827  37.058   9.770  12.837
53947W        W23828   4.934   3.219   3.856
53948W        W23829   6.917  37.847  10.514
53949W        W23830  12.635   1.296  11.048
53950W        W23831   4.270  10.351  11.589
53951W        W23832  17.065  31.937  14.834
53952W        W23833  38.072  15.234  14.779
53953W        W23834  40.351  17.250  12.533
53954W        W23835   8.264  27.501   0.251
53955W        W23836  34.495   6.865  10.923
53956W        W23837   1.978  42.411  10.972
53957W        W23838  28.070  44.978   2.817
53958W        W23839  32.100  29.025  13.394
53959W        W23840  26.016  33.878  11.544
53960W        W23841  24.499  36.932  11.034
53961W        W23842  44.787  31.500  11.501
53962W        W23843  30.127  38.441  11.947
53963W        W23844  43.348  44.284   0.858
53964W        W23845  32.495   5.716   0.900
53965W        W23846  28.456  36.025  12.868
53966W        W23847  30.980  19.623  13.056
53967W        W23848   4.783  42.288   3.764
53968W        W23849   6.768   1.965   2.793
53969W        W23850  17.195  37.554  11.577
53970W        W23851  14.671  16.589  11.454
53971W        W23852  15.200  44.271  11.430
53972W        W23853  21.653  43.367   3.286
53973W        W23854  19.192   3.459  14.501
53974W        W23855  23.732   2.287  14.854
53975W        W23856  34.037  24.060   1.420
53976W        W23857  33.024  37.029  13.539
53977W        W23858  14.825   7.196  13.811
53978W        W23859  24.606  39.833   4.676
53979W        W23860  32.990  12.127  13.545
53980W        W23861  18.286  15.290  13.310
53981W        W23862  32.989  20.592   1.803
53982W        W23863   4.889  13.653   1.264
53983W        W23864  16.748  24.646   1.438
53984W        W23865  11.322  27.003  13.806
53985W        W23866  23.603  13.600   2.874
53986W        W23867  33.043  30.522   3.763
53987W        W23868  13.654   9.188  14.373
53988W        W23869  28.678  17.657   0.277
53989W        W23870   4.832  41.803  10.468
53990W        W23871  25.167   5.254  13.382
53991W        W23872  35.916  31.531  14.867
53992W        W23873  40.381  34.863  13.411
53993W        W23874  37.563  10.728   1.299
53994W        W23875  24.565  34.420  13.442
53995W        W23876  20.629  18.610  11.868
53996W        W23877   0.757  20.036   1.860
53997W        W23878  35.470   1.323   5.786
53998W        W23879   9.343   9.682   2.259
53999W        W23880   9.263  33.929  10.443
54000W        W23881  34.494  13.756  10.465
54001W        W23882  26.989  14.609  14.500
54002W        W23883  36.910  15.308  10.458
54003W        W23884  25.677   8.845  14.814
54004W        W23885   8.296   1.264  13.403
54005W        W23886  28.506  23.032   2.383
54006W        W23887   6.699  30.971   4.750
54007W        W23888  37.071  35.405   2.709
54008W        W23889  27.072   1.761   2.264
54009W        W23890  22.225  38.055  12.985
54010W        W23891  44.476  37.428   3.238
54011W        W23892  19.692   6.402   1.911
54012W        W23893  25.483  16.166   3.277
54013W        W23894  21.187  16.088   4.147
54014W        W23895  35.985   4.904  10.933
54015W        W23896  20.679  32.471  12.339
54016W        W23897  42.806  41.030  13.045
54017W        W23898   1.262   3.871  11.486
54018W        W23899   3.876  24.134  12.377
54019W        W23900  10.787  41.497   0.881
54020W        W23901  26.002  10.838   0.898
54021W        W23902  34.009  37.974   3.148
54022W        W23903  15.179  16.592   1.812
54023W        W23904  39.998  13.620   2.392
54024W        W23905   4.814   7.783   3.819
54025W        W23906   2.724  41.310   1.331
54026W        W23907   5.824   3.339  10.572
54027W        W23908   3.451   3.873  13.792
54028W        W23909  26.672   1.449   2.192
54029W        W23910  36.492  19.597  11.374
54030W        W23911  42.516  36.378   4.116
54031W        W23912  26.060  15.610   3.257
54032W        W23913  27.013  27.023  13.922
54033W        W23914   5.777  30.966   4.183
54034W        W23915  44.789   3.230  10.527
54035W        W23916   2.871  40.014   2.378
54036W        W23917   1.373   7.357   1.312
54037W        W23918  19.263  38.385  12.017
54038W        W23919  43.810  15.822  14.782
54039W        W23920  25.713  13.211   2.900
54040W        W23921  12.199   2.804   4.246
54041W        W23922  13.806   2.460   1.434
54042W        W23923   1.293  38.464  14.475
54043W        W23924  15.284  29.514  14.009
54044W        W23925  10.379  43.915  12.422
54045W        W23926  23.546  24.213  11.401
54046W        W23927  34.568  17.101  10.961
54047W        W23928  20.151  34.925   1.449
54048W        W23929  28.186  36.016   3.339
54049W        W23930  13.732   5.775   3.222
54050W        W23931   7.370   2.469  12.470
54051W        W23932  33.922   5.896   4.200
54052W        W23933  36.071  40.929   3.247
54053W        W23934  17.193  36.847   2.208
54054W        W23935  30.446   1.965  10.975
54055W        W23936  15.140  28.543   3.324
54056W        W23937  32.562   7.348  11.122
54057W        W23938  40.025  33.465   2.319
54058W        W23939  38.955  30.125  10.410
54059W        W23940  15.707   6.209  12.011
54060W        W23941  20.053   0.411   0.295
54061W        W23942  30.073  21.085  13.841
54062W        W23943   7.288  10.257  12.441
54063W        W23944  44.317   7.187  11.023
54064W        W23945  18.718  12.698  14.366
54065W        W23946  12.810  22.008  13.363
54066W        W23947  34.949  33.524  10.004
54067W        W23948  24.090  38.988  11.094
54068W        W23949   2.825   0.835   4.226
54069W        W23950  40.505  32.078   3.630
54070W        W23951  20.087  18.053   2.208
54071W        W23952  16.784  14.260   0.775
54072W        W23953  44.933   2.236  12.011
54073W        W23954   1.755  12.122   2.830
54074W        W23955  10.342  37.901  12.009
54075W        W23956  25.199   4.349  12.003
54076W        W23957   2.448   5.366   3.819
54077W        W23958  42.803  14.159   0.405
54078W        W23959  40.453  22.566   2.757
54079W        W23960  10.152   2.843  10.540
54080W        W23961  38.998   0.272  11.902
54081W        W23962   9.153  22.606  11.599
54082W        W23963  18.205  11.347  13.902
54083W        W23964  36.558  14.113   4.766
54084W        W23965  21.243  32.570   4.260
54085W        W23966  21.598   5.332  14.393
54086W        W23967   7.889  39.908   2.382
54087W        W23968   8.697  34.394  14.957
54088W        W23969  41.426  39.347   4.352
54089W        W23970  32.461   4.739  13.984
54090W        W23971   7.414  17.646   3.280
54091W        W23972  11.131  38.865  13.408
54092W        W23973   4.932  21.748   5.204
54093W        W23974   0.909  28.047   4.826
54094W        W23975  40.935  12.136  14.767
54095W        W23976   0.856  20.188  13.935
54096W        W23977  14.314  35.374   4.712
54097W        W23978   3.229   0.395   0.282
54098W        W23979  23.167  33.093   1.718
54099W        W23980   3.950  42.366  14.776
54100W        W23981  20.698  41.994  12.855
54101W        W23982  43.348  11.256  11.958
54102W        W23983  16.779   9.726  11.588
54103W        W23984  21.527  10.823   1.815
54104W        W23985  10.846   1.895  13.798
54105W        W23986   7.881  26.964  11.985
54106W        W23987   0.891  33.975  11.602
54107W        W23988  41.325  31.003   3.834
54108W        W23989  44.301  35.494   4.646
54109W        W23990   6.883  37.026  12.056
54110W        W23991  10.757   2.956   1.712
54111W        W23992  10.791  34.056  12.362
54112W        W23993  44.823  22.691  14.785
54113W        W23994  43.368   1.306  12.863
54114W        W23995  13.751   6.774  14.390
54115W        W23996   7.273  27.533  12.049
54116W        W23997  44.972  35.900  11.900
54117W        W23998  44.006  31.461  13.484
54118W        W23999  29.933  41.036  12.049
54119W        W24000  29.925   5.805  11.505
54120W        W24001  30.072   6.701  13.906
54121W        W24002  25.478   2.331  11.580
54122W        W24003   4.242  16.795   0.909
54123W        W24004   6.409  19.576  14.831
54124W        W24005  27.493  36.350  14.285
54125W        W24006  22.620  10.773  13.063
54126W        W24007   1.945  14.649   0.789
54127W        W24008  15.165   6.293  10.590
54128W        W24009  35.972   8.304  10.404
54129W        W24010  12.330  34.050  12.513
54130W        W24011  43.800  28.635   0.474
54131W        W24012  31.933  12.758  12.370
54132W        W24013  21.083  25.173   2.720
54133W        W24014   9.182  19.167  13.011
54134W        W24015  36.498  39.810  10.895
54135W        W24016  40.950  22.506   1.812
54136W        W24017  18.735  23.731   0.911
54137W        W24018   0.908  39.533  14.509
54138W        W24019  27.093   0.748   4.207
54139W        W24020  36.982  27.552   4.769
54140W        W24021  18.275  12.178   4.767
54141W        W24022  25.573  13.274  11.113
54142W        W24023   2.920  26.124  13.520
54143W        W24024  12.629  12.743  13.311
54144W        W24025  41.524   9.161   4.813
54145W        W24026   7.894  43.794   2.664
54146W        W24027  44.965  16.648  10.592
54147W        W24028  32.017  30.539   3.870
54148W        W24029  43.299  29.117   4.298
54149W        W24030  36.976  41.326   1.388
54150W        W24031  15.716  31.509   3.668
54151W        W24032  33.986  39.417  14.872
54152W        W24033  11.782  16.100   4.230
54153W        W24034   2.364  33.890   1.810
54154W        W24035  15.685  38.444   2.699
54155W        W24036  38.525  24.671   2.843
54156W        W24037   7.803  20.067   0.876
54157W        W24038  20.736   4.297   1.791
54158W        W24039  34.909  41.401  13.819
54159W        W24040  25.538   1.308  11.379
54160W        W24041  19.768   9.772   4.659
54161W        W24042  38.434  25.052   3.764
54162W        W24043  13.269   9.293  10.548
54163W        W24044  32.600   1.331  12.093
54164W        W24045   3.358   1.460   2.251
54165W        W24046  17.678  36.930  13.394
54166W        W24047  33.062  12.776  12.573
54167W        W24048  20.575  26.633  13.914
54168W        W24049  34.106  31.933   1.854
54169W        W24050  15.772  11.163  10.036
54170W        W24051   6.810  40.332  10.959
54171W        W24052  26.483   0.832  10.488
54172W        W24053  16.782  14.726  11.062
54173W        W24054   1.428  10.836   2.361
54174W        W24055  40.999  22.210   2.886
54175W        W24056  13.747  32.505  13.916
54176W        W24057  41.883   0.979   4.709
54177W        W24058  12.732  31.612   4.343
54178W        W24059  37.470  36.463   4.709
54179W        W24060   2.879  33.626   4.333
54180W        W24061   0.892  44.353   4.140
54181W        W24062  16.808  36.067  13.803
54182W        W24063  31.605  18.631   5.221
54183W        W24064   7.347  19.557  14.497
54184W        W24065  35.872  39.829   2.257
54185W        W24066  38.071  18.623   2.830
54186W        W24067  21.193  25.062   4.720
54187W        W24068   5.245  19.767   1.292
54188W        W24069  14.775  40.937   4.776
54189W        W24070  41.426   7.345   1.926
54190W        W24071   8.203   3.823  12.914
54191W        W24072  44.897   9.326   0.402
54192W        W24073  19.248  27.031   1.274
54193W        W24074  31.116  41.481   4.718
54194W        W24075  39.452  26.553  12.053
54195W        W24076  27.630   4.242  11.113
54196W        W24077   3.296  34.028   4.799
54197W        W24078  40.415  44.829  11.069
54198W        W24079   3.367  23.666  14.927
54199W        W24080  42.994  10.822   1.283
54200W        W24081  14.759  30.080   0.264
54201W        W24082  25.168  35.005   3.633
54202W        W24083   2.268  41.790   3.858
54203W        W24084  43.291  21.162   3.755
54204W        W24085  13.119  43.978  13.527
54205W        W24086  33.590  28.052  12.378
54206W        W24087  39.964  28.044  11.865
54207W        W24088  30.995  27.590   0.274
54208W        W24089  39.957  35.362  12.479
54209W        W24090   3.365  10.784   1.377
54210W        W24091  40.305  11.704   5.302
54211W        W24092  37.910   9.723  12.066
54212W        W24093   7.812  22.199   1.695
54213W        W24094  32.551  12.226  11.496
54214W        W24095   0.814  24.078  10.598
54215W        W24096   4.236  30.531   1.780
54216W        W24097  30.149  23.548   1.283
54217W        W24098  35.037  42.949  11.560
54218W        W24099  42.315  40.038   2.769
54219W        W24100  39.422  11.813   1.255
54220W        W24101  37.050  27.064   0.859
54221W        W24102  10.346  18.575   0.811
54222W        W24103  24.109  38.901   1.240
54223W        W24104  14.286  34.488   0.794
54224W        W24105  36.446  14.659  12.082
54225W        W24106  11.764  10.657  13.361
54226W        W24107   6.743  29.439   0.927
54227W        W24108   2.430  25.129  12.988
54228W        W24109  43.953  33.540  12.865
54229W        W24110  24.990  11.637  11.385
54230W        W24111   7.278   4.813   0.404
54231W        W24112   4.349   9.265   2.798
54232W        W24113  37.069  42.295  13.011
54233W        W24114  34.440   7.358  10.644
54234W        W24115  28.652  27.130   3.327
54235W        W24116  28.134  41.010   4.820
54236W        W24117  22.693  16.656  12.442
54237W        W24118  14.129  17.650  14.380
54238W        W24119   7.739   1.975  11.914
54239W        W24120  38.839   6.369  13.834
54240W        W24121  23.074  14.749  12.913
54241W        W24122   3.949  36.960  14.428
54242W        W24123  28.064  23.006   3.717
54243W        W24124  10.814  30.012  11.080
54244W        W24125   5.253  30.948   3.163
54245W        W24126  25.481  29.043  13.486
54246W        W24127  44.825  35.452  10.974
54247W        W24128  35.900   6.268   0.350
54248W        W24129  12.619   7.365  14.953
54249W        W24130   7.855  12.151  13.412
54250W        W24131  29.490  43.019   0.450
54251W        W24132  11.677  19.611  13.357
54252W        W24133  37.954   8.845   3.199
54253W        W24134  10.247   0.918  13.322
54254W        W24135  17.147  14.227  10.466
54255W        W24136  31.089  41.501   1.727
54256W        W24137  34.374  39.369  10.976
54257W        W24138   4.719  18.740  10.009
54258W        W24139  13.737   8.399  14.378
54259W        W24140  31.494  30.484  12.492
54260W        W24141   1.865  30.553  13.038
54261W        W24142  35.993  18.294  12.071
54262W        W24143   3.397  42.304  11.392
54263W        W24144  44.362  15.142   4.696
54264W        W24145  14.793   0.943   4.822
54265W        W24146  24.074   9.178  11.409
54266W        W24147   2.957   1.919  12.437
54267W        W24148  24.014  35.915  10.643
54268W        W24149  31.026  40.378   3.357
54269W        W24150  28.549  36.020   0.448
54270W        W24151  26.486   3.383  11.947
54271W        W24152  27.120  29.445  12.004
54272W        W24153  36.379  35.554   4.795
54273W        W24154  40.480  13.286  13.790
54274W        W24155  25.638  28.940  14.354
54275W        W24156  18.225  44.852   1.835
54276W        W24157  38.413  26.528  12.075
54277W        W24158  12.657   6.288   3.748
54278W        W24159   1.916  41.493   3.871
54279W        W24160   4.296  38.010   3.766
54280W        W24161   0.978  36.994  10.447
54281W        W24162  26.144  17.640  13.866
54282W        W24163  19.612  34.462   0.918
54283W        W24164  24.163  44.274   2.414
54284W        W24165  19.098  10.699  13.043
54285W        W24166  17.602  15.646   3.846
54286W        W24167  11.310  21.219   1.314
54287W        W24168  37.951   0.437  14.828
54288W        W24169  40.405   1.745  13.037
54289W        W24170   0.275   2.233  14.451
54290W        W24171  23.092  18.712   1.427
54291W        W24172  30.622  39.348   3.793
54292W        W24173  22.671  14.251   2.272
54293W        W24174   6.822  23.546  14.903
54294W        W24175  36.036  33.481  13.876
54295W        W24176   0.392  29.649  14.977
54296W        W24177  19.132  21.656   4.275
54297W        W24178   7.415  33.388  12.926
54298W        W24179  44.280  23.495  10.481
54299W        W24180  31.149  42.990  10.979
54300W        W24181  10.795  41.819   3.735
54301W        W24182  28.575  44.443  11.871
54302W        W24183  44.830  21.168  12.852
54303W        W24184  31.129   3.845   1.436
54304W        W24185   4.881  13.169   2.251
54305W        W24186  11.763  18.238  12.500
54306W        W24187  33.909  34.909   4.243
54307W        W24188  26.198  12.324  13.486
54308W        W24189   8.285   4.819   3.196
54309W        W24190   9.242  17.144  13.824
54310W        W24191   1.367   1.414   3.685
54311W        W24192  38.536   0.753   1.798
54312W        W24193   8.172  11.638   0.377
54313W        W24194  31.521  34.377  10.515
54314W        W24195  27.479  18.562  13.928
54315W        W24196   0.924   5.787  13.000
54316W        W24197  29.491  34.472   4.663
54317W        W24198  28.596  22.248   2.687
54318W        W24199   9.224  19.234  11.389
54319W        W24200  21.578  26.104  14.848
54320W        W24201  27.562  14.210  12.937
54321W        W24202  29.608  16.186  11.073
54322W        W24203  40.411  43.358   4.767
54323W        W24204  21.551   4.232  10.906
54324W        W24205  34.544  37.988  12.944
54325W        W24206  26.684  24.182   9.961
54326W        W24207  25.580  25.190  12.981
54327W        W24208  35.431  34.048  10.611
54328W        W24209  33.593  34.921   1.357
54329W        W24210  20.532  31.643   3.703
54330W        W24211  27.549  35.554   1.325
54331W        W24212   9.688  41.038   4.795
54332W        W24213  13.333  43.505  13.970
54333W        W24214  30.108   6.365  11.487
54334W        W24215  44.870  19.739  11.440
54335W        W24216  37.045  44.296   2.219
54336W        W24217  34.539   6.719   1.220
54337W        W24218  33.121  20.531  14.453
54338W        W24219  21.126  25.997  13.346
54339W        W24220  33.477  40.026  13.897
54340W        W24221  24.179  25.966  14.893
54341W        W24222  38.328   3.723  11.425
54342W        W24223   6.810   7.377  11.600
54343W        W24224  12.685  35.390  10.925
54344W        W24225   8.333  42.384  10.951
54345W        W24226   8.868  20.189   3.704
54346W        W24227  32.935  21.710   3.711
54347W        W24228  12.819  13.777   0.911
54348W        W24229  21.062  37.060  13.807
54349W        W24230  10.366  41.393  10.963
54350W        W24231  40.522  43.288   3.203
54351W        W24232   0.365   2.362   0.955
54352W        W24233  19.207  21.172  11.923
54353W        W24234  27.692  24.059  11.504
54354W        W24235  11.819   5.726   2.299
54355W        W24236  40.352  10.710   3.195
54356W        W24237  42.912   6.187  13.910
54357W        W24238  10.196  29.171   2.847
54358W        W24239   9.392  28.960  13.050
54359W        W24240  28.030  32.010  14.502
54360W        W24241  31.979  12.197   3.215
54361W        W24242   1.906  20.221   4.808
54362W        W24243  29.650  10.343   4.156
54363W        W24244  16.568  10.678  11.084
54364W        W24245  30.532  32.593  12.911
54365W        W24246  16.266   9.876  14.496
54366W        W24247  18.597   1.354   2.295
54367W        W24248  26.004  19.056  13.845
54368W        W24249   8.725  20.051  10.961
54369W        W24250  42.487  20.715   1.341
54370W        W24251   6.300  15.134   0.779
54371W        W24252   0.963  26.073  10.998
54372W        W24253  29.080  18.287  10.531
54373W        W24254  13.239   4.763  13.339
54374W        W24255  13.828  31.993  10.533
54375W        W24256  31.466  40.812   4.659
54376W        W24257  32.447  36.001   1.912
54377W        W24258  26.154  12.733   0.899
54378W        W24259  30.115  24.012  11.530
54379W        W24260   2.906  41.948  11.492
54380W        W24261   3.227  29.110   2.761
54381W        W24262  17.669  24.980  13.532
54382W        W24263  14.200   1.269  12.848
54383W        W24264  35.498  34.431   4.643
54384W        W24265  30.039  44.267  12.969
54385W        W24266   5.317  21.524   3.367
54386W        W24267  14.171   7.810  13.337
54387W        W24268  12.816  36.480  11.866
54388W        W24269  39.946   4.294  12.014
54389W        W24270  22.554  25.594  12.536
54390W        W24271   8.389  16.600   2.736
54391W        W24272  36.071  33.542   3.635
54392W        W24273  22.528   9.201  11.064
54393W        W24274  36.506   0.301   3.736
54394W        W24275  36.348  31.411   3.305
54395W        W24276  23.511  11.805  13.397
54396W        W24277   7.332   1.466  14.431
54397W        W24278  43.363  36.545  10.439
54398W        W24279  14.133   1.738  10.439
54399W        W24280  18.145  32.560  11.393
54400W        W24281  34.550   3.306   0.809
54401W        W24282  29.494  24.217   0.364
54402W        W24283  36.947   2.936  12.464
54403W        W24284  25.119  40.010  11.446
54404W        W24285  42.996  19.743  11.924
54405W        W24286  44.876  12.196   3.211
54406W        W24287   1.457  25.218   2.211
54407W        W24288  18.085  18.124   2.857
54408W        W24289  25.635   4.301   0.248
54409W        W24290  36.945  23.619  11.014
54410W        W24291  16.628   4.754  10.012
54411W        W24292   3.265  19.572  13.333
54412W        W24293  18.104  39.045   3.801
54413W        W24294   7.819  33.550   0.376
54414W        W24295  44.922  14.177   1.749
54415W        W24296  38.068   7.849   1.777
54416W        W24297  32.507  27.175  11.957
54417W        W24298  39.049  42.524   4.608
54418W        W24299  18.661  10.311   5.299
54419W        W24300  33.418  39.511   1.412
54420W        W24301  42.813  23.507  12.003
54421W        W24302   5.360  38.839   4.236
54422W        W24303  18.553   9.358   3.788
54423W        W24304  27.506  44.866   2.677
54424W        W24305  24.177  42.463   2.408
54425W        W24306   9.315  43.849   2.686
54426W        W24307   9.390   9.333  14.302
54427W        W24308   1.390  26.490  14.308
54428W        W24309   9.739   8.774  12.476
54429W        W24310  41.821  35.571   2.711
54430W        W24311  32.544  17.140   3.307
54431W        W24312  17.611  32.551  11.460
54432W        W24313  44.309   7.294  14.948
54433W        W24314  30.119  28.523  14.808
54434W        W24315  18.279  42.998  14.824
54435W        W24316   9.182  37.857   0.392
54436W        W24317  16.272  25.694   0.323
54437W        W24318   0.978   0.342  14.430
54438W        W24319  19.216  40.949  14.943
54439W        W24320  25.086   2.455  11.030
54440W        W24321   2.268   8.738   3.344
54441W        W24322  28.175  32.017   1.260
54442W        W24323   8.259  12.332  10.565
54443W        W24324  24.608  44.260  10.156
54444W        W24325  43.377  39.059   2.245
54445W        W24326  38.525  24.638   1.876
54446W        W24327  20.604  21.629  11.081
54447W        W24328  16.275  20.731  10.432
54448W        W24329  29.064  10.743  13.007
54449W        W24330  43.870  26.067  12.403
54450W        W24331  26.495  16.129  12.056
54451W        W24332  43.334   3.227  10.160
54452W        W24333  19.132  35.853  13.483
54453W        W24334   9.816  44.439  10.896
54454W        W24335  29.983   0.376   3.200
54455W        W24336  24.522  32.416   3.238
54456W        W24337  36.051  33.544  11.061
54457W        W24338  21.241  34.893   3.167
54458W        W24339   4.858  37.906  12.379
54459W        W24340   1.805  39.402   1.840
54460W        W24341  21.018  21.532   3.843
54461W        W24342   0.407  25.213  10.893
54462W        W24343  13.607  39.889   1.897
54463W        W24344   9.393  35.993   2.756
54464W        W24345  11.134  31.924  10.116
54465W        W24346  12.260  42.486  10.950
54466W        W24347  27.606  39.510  12.900
54467W        W24348   9.774  12.253  11.571
54468W        W24349  17.758  26.573   2.796
54469W        W24350  39.921  13.782   3.340
54470W        W24351   8.685  15.125  11.433
54471W        W24352  35.384  23.536   3.792
54472W        W24353   3.441   8.784  11.866
54473W        W24354  17.800  15.247  14.401
54474W        W24355  37.925  44.991  12.868
54475W        W24356  20.150  40.413   0.442
54476W        W24357  44.807  12.301  12.875
54477W        W24358   3.432  14.111   1.869
54478W        W24359  20.040  44.419  12.082
54479W        W24360  30.936  30.907   3.827
54480W        W24361  31.514  29.479   4.789
54481W        W24362  20.547  33.400   3.381
54482W        W24363  27.670  24.658  13.488
54483W        W24364  26.698  14.302  11.864
54484W        W24365   3.353  26.179   0.340
54485W        W24366  26.647  37.868  13.487
54486W        W24367  39.505  14.208   2.787
54487W        W24368  37.048  17.648  11.482
54488W        W24369  39.393   0.433   4.673
54489W        W24370  13.311  15.587  11.452
54490W        W24371   4.862  25.590  11.538
54491W        W24372   3.865  11.236  12.973
54492W        W24373  20.062  28.536   0.465
54493W        W24374  41.308  32.070   4.321
54494W        W24375  40.336  33.406  13.509
54495W        W24376  30.116  23.706   0.887
54496W        W24377  44.401  13.666  10.921
54497W        W24378  12.618  26.196   1.694
54498W        W24379  41.000  29.030   2.276
54499W        W24380   9.221   2.469   1.321
54500W        W24381  17.121  38.878   2.735
54501W        W24382  28.964   8.820   4.239
54502W        W24383  40.377  16.318   3.359
54503W        W24384  26.067  32.102  10.545
54504W        W24385  35.951  12.250  14.511
54505W        W24386  40.382  33.543  14.862
54506W        W24387   4.844  15.102  10.588
54507W        W24388  40.454  33.064   4.153
54508W        W24389  30.487  31.600  11.408
54509W        W24390   6.688  30.975   4.259
54510W        W24391  13.218  16.770  13.939
54511W        W24392  23.611  17.272   1.914
54512W        W24393  25.043   5.220  11.056
54513W        W24394   4.887  26.691  13.347
54514W        W24395  24.193  31.941   2.835
54515W        W24396  17.301   7.305  13.382
54516W        W24397   5.252  41.898  13.547
54517W        W24398  29.019  32.988   1.728
54518W        W24399  26.485  25.049  14.760
54519W        W24400  34.530  37.042   3.749
54520W        W24401  18.784   7.746  14.497
54521W        W24402  10.283  18.064   0.862
54522W        W24403  25.991   1.775   2.409
54523W        W24404  29.607  39.392   3.797
54524W        W24405  38.842  20.720  12.021
54525W        W24406  12.322  12.189   2.378
54526W        W24407  38.401   9.646  13.041
54527W        W24408  27.125  35.522  13.406
54528W        W24409   8.224   6.261  13.855
54529W        W24410  44.792   9.187   1.902
54530W        W24411  23.677  20.601   1.798
54531W        W24412  11.823  29.442   2.766
54532W        W24413  43.934  41.303  11.565
54533W        W24414   5.739  17.778  14.030
54534W        W24415  41.347  42.002   4.605
54535W        W24416   9.153  25.981  10.477
54536W        W24417   8.348  11.147  14.857
54537W        W24418   5.406  20.075  10.587
54538W        W24419   5.226  26.634  10.502
54539W        W24420   4.926  37.087   4.291
54540W        W24421  34.383   3.759  14.285
54541W        W24422  43.482  44.433  10.986
54542W        W24423  31.463  10.295  14.444
54543W        W24424  16.234  37.548   3.329
54544W        W24425   1.396  35.431   0.387
54545W        W24426   0.837  27.145   0.927
54546W        W24427  43.857  11.213  10.584
54547W        W24428  31.088  40.456   0.478
54548W        W24429  20.528   1.891   5.104
54549W        W24430  35.591  29.936  10.592
54550W        W24431  38.075  25.713  13.482
54551W        W24432  11.849  34.913   4.745
54552W        W24433  15.753  16.735  14.439
54553W        W24434  14.107   5.332  12.463
54554W        W24435  40.513   6.693   0.814
54555W        W24436  31.902  21.604  11.551
54556W        W24437  23.511  29.624   3.830
54557W        W24438  12.654   7.773   3.198
54558W        W24439  32.132  18.089   2.840
54559W        W24440  35.604   2.230  13.916
54560W        W24441  32.066  24.025  10.642
54561W        W24442   3.851  39.340   3.182
54562W        W24443   2.957  11.222   0.257
54563W        W24444  30.414  35.038  14.350
54564W        W24445  40.860  19.630   3.802
54565W        W24446  30.073  38.477   1.700
54566W        W24447   9.879  28.621   0.863
54567W        W24448  28.578   7.755   3.166
54568W        W24449  14.135  16.712   1.300
54569W        W24450   0.784  22.650   9.999
54570W        W24451   3.258  25.621  10.427
54571W        W24452   8.841   5.818  12.019
54572W        W24453   5.801   6.921   2.673
54573W        W24454  44.007  42.950  12.027
54574W        W24455  37.476  24.052  11.996
54575W        W24456   5.282  36.498  11.017
54576W        W24457   0.872  10.676   1.291
54577W        W24458  35.944   0.343  13.003
54578W        W24459  28.608  20.631   3.849
54579W        W24460  24.641  18.226  14.295
54580W        W24461  38.506   6.836  12.474
54581W        W24462  13.803  15.625   0.308
54582W        W24463  33.069   5.193  14.457
54583W        W24464  10.344  27.523  14.009
54584W        W24465   0.912  19.065   4.351
54585W        W24466   6.243   2.745   2.722
54586W        W24467   7.779  31.967  11.487
54587W        W24468  39.052  41.872   3.731
54588W        W24469  26.518  28.007  13.423
54589W        W24470   2.290  30.624   1.926
54590W        W24471   4.810  17.645  10.581
54591W        W24472  27.459   0.444   3.741
54592W        W24473  16.300  23.678  11.374
54593W        W24474  13.182  22.188   2.794
54594W        W24475  38.350   6.284  13.454
54595W        W24476  20.139  30.017  14.980
54596W        W24477   5.195  15.090   1.747
54597W        W24478  31.092  22.189  12.895
54598W        W24479   5.222  37.926  11.519
54599W        W24480  10.824  35.370  11.482
54600W        W24481  30.467  38.921   3.754
54601W        W24482  42.493  12.226   0.379
54602W        W24483  10.816   1.925   4.829
54603W        W24484   8.824  26.591  11.951
54604W        W24485  38.032  20.545   3.328
54605W        W24486   5.237  42.323   2.800
54606W        W24487  43.943  26.006   4.243
54607W        W24488  23.110   0.386  11.517
54608W        W24489  31.581  17.068   1.426
54609W        W24490  25.134  12.837  10.952
54610W        W24491  32.913  17.697  12.410
54611W        W24492   9.879  23.152   3.268
54612W        W24493  41.402  34.055   3.792
54613W        W24494  12.269  42.424   2.827
54614W        W24495  42.791  14.729   4.758
54615W        W24496  12.745  11.275   0.481
54616W        W24497  16.275  28.556  13.013
54617W        W24498  26.678  30.971   0.326
54618W        W24499  10.784  33.504   2.884
54619W        W24500   8.829  30.145   4.610
54620W        W24501   6.799  25.568  12.855
54621W        W24502  18.090  32.988   3.730
54622W        W24503   7.256  17.168   4.732
54623W        W24504   7.677   2.351  12.573
54624W        W24505  19.635  12.253  14.476
54625W        W24506  33.561   2.825  11.444
54626W        W24507  19.737   9.256  14.866
54627W        W24508   7.264   3.237   1.299
54628W        W24509  40.917   3.298  11.568
54629W        W24510  39.984  12.798   2.800
54630W        W24511  22.222   4.817  10.505
54631W        W24512  18.225  31.470   2.687
54632W        W24513   0.253  21.713   2.789
54633W        W24514  34.031  31.515  14.971
54634W        W24515  27.530  29.106   1.932
54635W        W24516  35.473  31.613   1.406
54636W        W24517  13.629  16.248   2.193
54637W        W24518  43.810  34.012  14.782
54638W        W24519   0.921  21.196  13.836
54639W        W24520  31.912  25.475  14.998
54640W        W24521  41.403  36.979   2.391
54641W        W24522  31.477   0.983  13.026
54642W        W24523  32.073  38.979  11.474
54643W        W24524  23.598   0.933   4.254
54644W        W24525  39.998   7.197  14.447
54645W        W24526  38.509   4.315  10.542
54646W        W24527  17.790  31.633  12.085
54647W        W24528  38.006  19.740   1.821
54648W        W24529  32.524  19.284  10.412
54649W        W24530   0.494  34.507   3.223
54650W        W24531   3.382  40.534   5.098
54651W        W24532  33.107  32.895   0.445
54652W        W24533  27.551  39.412   0.758
54653W        W24534   8.738  20.129   1.421
54654W        W24535   8.849  11.777  11.402
54655W        W24536  32.993   4.343  12.890
54656W        W24537  19.744  32.998  11.968
54657W        W24538  44.934  39.364  14.418
54658W        W24539  35.100  37.870  12.347
54659W        W24540  30.111  37.022  13.394
54660W        W24541  21.078  43.841  13.939
54661W        W24542   3.370  16.705   3.162
54662W        W24543  38.843   6.718   2.370
54663W        W24544  23.058   8.163   1.281
54664W        W24545   9.662   0.359   1.317
54665W        W24546  32.094  37.536  11.019
54666W        W24547  29.963  16.120   5.197
54667W        W24548   7.717  33.597  10.120
54668W        W24549  28.487  36.029  10.640
54669W        W24550   4.715  17.712   0.245
54670W        W24551   2.469   9.235   4.806
54671W        W24552  29.116  27.986  14.446
54672W        W24553  26.043  18.615   1.352
54673W        W24554  37.912   2.394   4.169
54674W        W24555  22.562  17.723  10.591
54675W        W24556  42.862  44.494  11.400
54676W        W24557   6.854  43.809  14.806
54677W        W24558  21.620   9.193   4.196
54678W        W24559  40.327  22.603   5.272
54679W        W24560  20.655  32.996  12.958
54680W        W24561  16.621   1.801  13.906
54681W        W24562   2.389   4.799  12.525
54682W        W24563  38.533  15.598   3.264
54683W        W24564  32.987  40.974   1.347
54684W        W24565   2.877  30.583  10.942
54685W        W24566   1.919  34.428  12.373
54686W        W24567  43.453   7.742  14.777
54687W        W24568   3.891  44.801  14.324
54688W        W24569   5.735  34.484  11.392
54689W        W24570  40.535  18.546  11.413
54690W        W24571  14.329  17.198   2.715
54691W        W24572  29.005  15.240  12.843
54692W        W24573  26.632  23.232   3.288
54693W        W24574  32.085   2.906   1.871
54694W        W24575  44.420   5.868  13.838
54695W        W24576   1.853   3.855  11.856
54696W        W24577   1.868  26.554  13.373
54697W        W24578  11.728  40.842   1.879
54698W        W24579  28.484  12.302  11.963
54699W        W24580  24.642  17.789   2.682
54700W        W24581  27.041  21.639   1.246
54701W        W24582  30.133  25.116   2.847
54702W        W24583  43.946  30.587   2.384
54703W        W24584   7.684   3.290  14.847
54704W        W24585  31.499  34.522   0.260
54705W        W24586  36.525  22.074  12.916
54706W        W24587   2.385  30.053  12.399
54707W        W24588  37.832  27.620  13.531
54708W        W24589  10.238   8.859   4.172
54709W        W24590  12.746   9.205  11.029
54710W        W24591   6.347  43.410   4.288
54711W        W24592  24.511   3.325   1.245
54712W        W24593  43.841  22.094   0.385
54713W        W24594  35.468  38.021  12.552
54714W        W24595  33.932  14.335  13.349
54715W        W24596  27.690  32.475  12.532
54716W        W24597  20.618  23.217  12.387
54717W        W24598  34.102  18.070   0.829
54718W        W24599   8.359  29.551  14.965
54719W        W24600   5.331  10.161   1.227
54720W        W24601   6.890  12.268   4.152
54721W        W24602   4.722   7.368  13.346
54722W        W24603   6.228  11.627  11.039
54723W        W24604  18.629  38.404   3.831
54724W        W24605  10.148  24.048   2.391
54725W        W24606   1.298  18.770  13.976
54726W        W24607  38.056  20.610  10.950
54727W        W24608  10.376   4.926  11.005
54728W        W24609  40.907  36.492  14.772
54729W        W24610  18.293   2.768   0.417
54730W        W24611  13.659  37.891  14.333
54731W        W24612  20.248   1.833   3.212
54732W        W24613  17.726  21.209   3.818
54733W        W24614   4.808   6.907  13.948
54734W        W24615  35.998  23.195   1.933
54735W        W24616   8.334  18.586  12.537
54736W        W24617  44.470  16.647   2.854
54737W        W24618  41.044  14.235   2.193
54738W        W24619  18.684  21.743   3.674
54739W        W24620  13.289  35.516   3.796
54740W        W24621  40.510  24.637  11.952
54741W        W24622  43.790  28.665   2.732
54742W        W24623  23.575  35.541  13.433
54743W        W24624  34.932  12.644   0.747
54744W        W24625   7.181  35.403  10.942
54745W        W24626  38.000  11.344   0.387
54746W        W24627   6.894   8.256   4.634
54747W        W24628   5.926  31.430  13.828
54748W        W24629  44.851   7.194   3.255
54749W        W24630  43.318   7.862  10.600
54750W        W24631  26.689  17.291   2.683
54751W        W24632  36.971  24.175  11.949
54752W        W24633  19.647  27.179  14.366
54753W        W24634  36.925  34.405   4.704
54754W        W24635  15.662  27.537  10.547
54755W        W24636   6.185  21.636  14.471
54756W        W24637  32.054  18.055   4.632
54757W        W24638  31.449   1.943  11.888
54758W        W24639  35.879  28.135  14.350
54759W        W24640  31.526  41.503  13.470
54760W        W24641   3.381  42.009   4.716
54761W        W24642  13.819  21.517   0.953
54762W        W24643  13.780  15.699  13.040
54763W        W24644  44.780  32.970  12.895
54764W        W24645  44.774  34.489   3.808
54765W        W24646   2.279  24.614   3.280
54766W        W24647   3.437  30.644   1.834
54767W        W24648   4.912  36.389  10.915
54768W        W24649  26.694  39.324   1.257
54769W        W24650  19.258  36.039   1.737
54770W        W24651  35.884  26.110   3.240
54771W        W24652   5.849  31.931  14.793
54772W        W24653   1.360   0.466  12.491
54773W        W24654  38.840  38.505  13.001
54774W        W24655  41.906  37.902  14.287
54775W        W24656  26.205  43.481  10.638
54776W        W24657   1.393   0.424   2.247
54777W        W24658  16.196  35.517  12.934
54778W        W24659   0.973  24.071  12.834
54779W        W24660  31.005  19.592   0.287
54780W        W24661   6.879  25.162  13.844
54781W        W24662  32.428  40.329  11.373
54782W        W24663  12.709  29.630   0.923
54783W        W24664   4.760  11.747   0.243
54784W        W24665   7.677   8.338  13.952
54785W        W24666  14.783  25.064   1.843
54786W        W24667  42.816   6.873  14.957
54787W        W24668  33.125  15.210  14.977
54788W        W24669   8.342  27.078   3.651
54789W        W24670  41.354   8.713   1.805
54790W        W24671  10.791  27.541   0.360
54791W        W24672  35.890   4.842   0.734
54792W        W24673  41.399   2.259   4.661
54793W        W24674  33.606  16.675  13.548
54794W        W24675  14.720  38.971  11.056
54795W        W24676  39.417  31.974  11.402
54796W        W24677  25.214  42.930  14.511
54797W        W24678  19.171  25.518  14.788
54798W        W24679  43.964   7.747   3.339
54799W        W24680  10.207  36.040   2.870
54800W        W24681  40.986   0.748   1.361
54801W        W24682  25.691  35.934   1.249
54802W        W24683  15.625  39.942   4.334
54803W        W24684  40.906  26.030  11.094
54804W        W24685  28.025   0.421   4.206
54805W        W24686   3.772  21.584  14.316
54806W        W24687   1.431  25.558  11.857
54807W        W24688  41.497  33.971   0.946
54808W        W24689  11.292   1.892   1.407
54809W        W24690  14.219  36.076  14.475
54810W        W24691  16.687   6.705   2.249
54811W        W24692   8.886  43.282  14.416
54812W        W24693  40.466  33.908   4.837
54813W        W24694  39.554  29.100  14.811
54814W        W24695  32.428  22.059   4.799
54815W        W24696   4.918  12.231   2.675
54816W        W24697   3.949  32.136  12.990
54817W        W24698  41.798  18.771   2.884
54818W        W24699  40.015  35.503  13.332
54819W        W24700  33.123  23.535   3.750
54820W        W24701  26.586  25.643  12.365
54821W        W24702   1.844  36.461   0.792
54822W        W24703  27.594   4.432   1.409
54823W        W24704  43.878  26.971  13.877
54824W        W24705   9.193  26.656   3.728
54825W        W24706  12.360  29.919  12.849
54826W        W24707   1.764  10.758   2.903
54827W        W24708   2.247  20.256  12.038
54828W        W24709  27.013   2.849   3.374
54829W        W24710  42.412   8.313   2.686
54830W        W24711  24.484  19.059   4.836
54831W        W24712   2.282  39.428  14.867
54832W        W24713  36.362   9.660   3.323
54833W        W24714  41.988  27.571  10.465
54834W        W24715  24.223  12.242   1.833
54835W        W24716  19.721  32.017  12.364
54836W        W24717   0.957  15.743  10.889
54837W        W24718   7.774  17.307   3.378
54838W        W24719  40.484   0.976  12.886
54839W        W24720  25.002  30.928   0.415
54840W        W24721  29.641  40.323   1.802
54841W        W24722  29.574  30.055  10.493
54842W        W24723   5.792  31.905   1.870
54843W        W24724  41.867  18.208   3.318
54844W        W24725   0.259   0.343   0.820
54845W        W24726  41.811  30.451   3.185
54846W        W24727  28.971  35.985   4.783
54847W        W24728  44.439  27.964  14.961
54848W        W24729   4.416  40.052   3.863
54849W        W24730  42.434   0.755  10.974
54850W        W24731  12.787  12.269  12.882
54851W        W24732  41.787  33.422  11.965
54852W        W24733  38.948   5.930   4.295
54853W        W24734  13.141  44.458   1.429
54854W        W24735  11.674  31.616  14.020
54855W        W24736  34.524  35.403  12.354
54856W        W24737  16.783  16.735  10.988
54857W        W24738  24.215  26.619  11.473
54858W        W24739  10.244  37.969  14.363
54859W        W24740   5.744  26.481  14.380
54860W        W24741  43.346  35.414   3.321
54861W        W24742  12.345   0.824  11.486
54862W        W24743  19.590  17.246   3.334
54863W        W24744  29.471  35.037   1.803
54864W        W24745   6.897  11.229  10.988
54865W        W24746  29.934   0.925  11.906
54866W        W24747  14.324  28.467  14.301
54867W        W24748   1.933   2.263  12.475
54868W        W24749  14.808  23.587   9.956
54869W        W24750  20.620  14.784   2.851
54870W        W24751  24.047  25.151   3.313
54871W        W24752  33.966  40.457  12.090
54872W        W24753  13.778  38.359   3.718
54873W        W24754   5.758   9.741   0.948
54874W        W24755   2.279  44.953   2.222
54875W        W24756   0.383  23.070   3.840
54876W        W24757  13.712  29.139   0.742
54877W        W24758  37.452  34.371   0.872
54878W        W24759   6.799  41.855   3.237
54879W        W24760  33.389  10.145  13.918
54880W        W24761  21.189  40.400  11.878
54881W        W24762  30.430  24.030  11.514
54882W        W24763  25.002   4.249  12.367
54883W        W24764   9.265  36.557  13.406
54884W        W24765  28.079  13.131   3.711
54885W        W24766   8.712  15.109  13.044
54886W        W24767  19.612  36.558  10.592
54887W        W24768  41.876  36.064  13.332
54888W        W24769  39.905  17.229  13.952
54889W        W24770  14.638  24.514  14.867
54890W        W24771  34.518  26.665  12.392
54891W        W24772  22.014  27.154  14.511
54892W        W24773  23.724  38.017  14.796
54893W        W24774  33.098  30.612  11.871
54894W        W24775  27.478   7.862   3.219
54895W        W24776  40.364  30.579  11.972
54896W        W24777  33.422   8.398   0.469
54897W        W24778  28.969  22.609  14.335
54898W        W24779  22.016  31.087   0.819
54899W        W24780  22.215  20.085  13.964
54900W        W24781  11.654  23.030   3.321
54901W        W24782   7.688  12.231   1.756
54902W        W24783   7.309  31.107   0.351
54903W        W24784   8.686  12.760  10.447
54904W        W24785  37.040  36.352   3.181
54905W        W24786  43.931  14.739   4.197
54906W        W24787  10.847   4.311  14.369
54907W        W24788  43.303   9.840  10.437
54908W        W24789   6.301  28.483   0.823
54909W        W24790  44.892  44.961  12.503
54910W        W24791  22.703  28.608  11.996
54911W        W24792  10.872   0.907  12.869
54912W        W24793  25.195   5.907   1.306
54913W        W24794  30.020  20.089  14.398
54914W        W24795  41.810   6.835  14.857
54915W        W24796  13.105  18.142  13.535
54916W        W24797   6.701  30.913  12.362
54917W        W24798  40.815  38.552   2.871
54918W        W24799   3.874  31.526   2.697
54919W        W24800  30.911  37.980  10.452
54920W        W24801  42.320  31.127  12.497
54921W        W24802  15.211   7.179   3.183
54922W        W24803  14.786  16.236  14.916
54923W        W24804  22.224  22.162   2.272
54924W        W24805   4.279  28.096   3.767
54925W        W24806  22.678   0.335  12.477
54926W        W24807  37.905  41.992   1.881
54927W        W24808  42.829  19.544  14.946
54928W        W24809  12.340  33.056  10.644
54929W        W24810  17.082  31.101  12.513
54930W        W24811   0.281   3.925   3.781
54931W        W24812  19.766  39.911   3.705
54932W        W24813   9.677  32.549  14.830
54933W        W24814   0.313   8.691   3.271
54934W        W24815   0.288  34.031  12.986
54935W        W24816  22.627  12.122  12.430
54936W        W24817  34.575   1.439   3.203
54937W        W24818  17.165  36.464  12.457
54938W        W24819  42.842  31.086  12.378
54939W        W24820  23.136  24.507  12.517
54940W        W24821  33.384  14.266  10.113
54941W        W24822   3.851  30.118  11.405
54942W        W24823  16.718  24.053  12.843
54943W        W24824  10.282  14.827   0.919
54944W        W24825   6.252  33.905  11.861
54945W        W24826  19.613  33.960  13.003
54946W        W24827  24.014  25.490  14.425
54947W        W24828   2.823   5.728   1.810
54948W        W24829   8.880  37.981   0.778
54949W        W24830   4.940  30.658   3.322
54950W        W24831  17.159  29.659  12.572
54951W        W24832  27.013   2.938  13.484
54952W        W24833   3.838  37.075  11.610
54953W        W24834   2.887  34.615   2.301
54954W        W24835  11.689   5.747  11.430
54955W        W24836  16.183   8.231   2.843
54956W        W24837  31.967  13.623  13.527
54957W        W24838  35.593  41.978   0.340
54958W        W24839  40.820  12.653   3.199
54959W        W24840   1.934  19.557   0.730
54960W        W24841   3.350  41.296  12.526
54961W        W24842  40.424  31.133   1.382
54962W        W24843   9.177  44.418  12.423
54963W        W24844   5.907   8.825   3.236
54964W        W24845  19.756  22.694  13.824
54965W        W24846   0.479  37.367   0.794
54966W        W24847   9.682   6.883   4.347
54967W        W24848  34.489  16.270  11.404
54968W        W24849  29.062  24.666   4.191
54969W        W24850  31.012  42.909  12.960
54970W        W24851  10.267   4.853  12.370
54971W        W24852  32.030  11.243   1.783
54972W        W24853  23.019  10.694  13.834
54973W        W24854   4.295  11.128  12.488
54974W        W24855  43.399  35.015   2.330
54975W        W24856  24.504  25.025  13.339
54976W        W24857  32.405  32.590   3.660
54977W        W24858   7.219   3.384   1.886
54978W        W24859  22.674  25.707   3.348
54979W        W24860   3.400  16.779  12.386
54980W        W24861  24.061  18.261   3.379
54981W        W24862  14.111  15.617   0.383
54982W        W24863  10.813  16.306   2.890
54983W        W24864  32.486  37.973  10.955
54984W        W24865  10.367  18.760  13.411
54985W        W24866   9.223  40.966   2.744
54986W        W24867   2.858  16.091  12.374
54987W        W24868  26.573  11.315  12.539
54988W        W24869   4.881  11.370   3.661
54989W        W24870  10.810  27.525  14.475
54990W        W24871  11.373  23.151   4.291
54991W        W24872  26.164  16.234  11.940
54992W        W24873  21.592  35.543   0.740
54993W        W24874   3.893  44.849  11.989
54994W        W24875  20.103  13.793  10.983
54995W        W24876  23.624  29.505   1.233
54996W        W24877  12.681   1.828   0.779
54997W        W24878  42.455  39.442  13.790
54998W        W24879  12.830   2.458   2.418
54999W        W24880  36.589  37.574   5.122
55000W        W24881   9.269  13.801   0.258
55001W        W24882  40.041   7.848  11.051
55002W        W24883  40.539  33.543   5.171
55003W        W24884  21.552   8.858  13.329
55004W        W24885  43.292  10.776  11.484
55005W        W24886   8.722  13.633   2.332
55006W        W24887  37.434  32.142  10.958
55007W        W24888  27.529  16.184   4.787
55008W        W24889  25.996  16.582  14.302
55009W        W24890  28.644  26.527  11.988
55010W        W24891   7.898  27.659   1.924
55011W        W24892  21.209  28.637   2.339
55012W        W24893  28.156  13.664   1.365
55013W        W24894  18.550  37.036  13.372
55014W        W24895   8.870   1.302  10.590
55015W        W24896  14.126  42.881  12.365
55016W        W24897   3.236   3.953  13.432
55017W        W24898  21.538  22.598  14.498
55018W        W24899  33.065  23.588  10.940
55019W        W24900  31.008  43.398  13.435
55020W        W24901  22.665  35.901   0.325
55021W        W24902   2.413  37.368  11.068
55022W        W24903  19.169  13.728  10.951
55023W        W24904  38.861  43.884   1.699
55024W        W24905  12.263  32.066  11.388
55025W        W24906  11.156   4.244  11.484
55026W        W24907   5.258  36.961   3.352
55027W        W24908  37.410   0.851  12.834
55028W        W24909  30.942  44.991   3.801
55029W        W24910  17.236  29.500   1.896
55030W        W24911  37.401   5.284   2.264
55031W        W24912  24.542  10.374  12.993
55032W        W24913  33.426  40.899   4.197
55033W        W24914  24.224   7.755  11.928
55034W        W24915   7.302  13.673   1.705
55035W        W24916  27.616  26.106   1.854
55036W        W24917  28.077  35.006   3.666
55037W        W24918  15.128  11.237  10.936
55038W        W24919  39.885  28.177   4.300
55039W        W24920  22.688  18.751   0.429
55040W        W24921  41.333  41.405   3.819
55041W        W24922  34.897  43.986  14.313
55042W        W24923  30.626  17.720   3.158
55043W        W24924  22.112   5.744  13.405
55044W        W24925  12.840   9.223   4.201
55045W        W24926  30.110  30.470   5.112
55046W        W24927  36.383  42.785  12.578
55047W        W24928  29.485  34.520  14.416
55048W        W24929  30.493  27.090   3.721
55049W        W24930  22.082  11.679  10.962
55050W        W24931  39.972  23.042   4.265
55051W        W24932  38.925  26.019   1.355
55052W        W24933   0.471  13.183  13.369
55053W        W24934  17.672   3.455   1.335
55054W        W24935   2.228  18.716   2.204
55055W        W24936  30.632  39.891   3.866
55056W        W24937  33.547   8.191   1.434
55057W        W24938  31.123   3.364   0.418
55058W        W24939   4.715  37.077  11.390
55059W        W24940  21.114  18.212   3.222
55060W        W24941   0.760  20.107   1.219
55061W        W24942  23.056  20.209   4.833
55062W        W24943  28.156   5.416  13.418
55063W        W24944  33.504  38.923  13.432
55064W        W24945   7.683  37.407   1.821
55065W        W24946  43.895  42.444  11.535
55066W        W24947  31.945   1.812  13.324
55067W        W24948  11.719  17.200   9.973
55068W        W24949  41.948   0.277   1.883
55069W        W24950  11.846  40.906  12.427
55070W        W24951  37.582  44.431   1.334
55071W        W24952  18.249  31.051  14.479
55072W        W24953  31.062  41.471   2.367
55073W        W24954  23.717  23.188   3.246
55074W        W24955  30.027   8.208   9.667
55075W        W24956  21.030   6.356   4.673
55076W        W24957   7.730  11.793   1.443
55077W        W24958   7.768   2.357   2.832
55078W        W24959   3.936  15.813   0.417
55079W        W24960  20.072  18.557  11.057
55080W        W24961  35.452  24.527   1.265
55081W        W24962  26.680   4.717   0.393
55082W        W24963  21.076  41.025  12.834
55083W        W24964  13.291  26.595  14.790
55084W        W24965  29.432  13.609   3.380
55085W        W24966  25.703  43.961  14.360
55086W        W24967   8.686  32.076   4.280
55087W        W24968  30.985  20.640  12.580
55088W        W24969   1.795   5.796   1.757
55089W        W24970  25.040  21.220  13.355
55090W        W24971   5.774  25.556   3.233
55091W        W24972  15.219  29.155   4.620
55092W        W24973  23.114  31.494   3.257
55093W        W24974  12.360  34.100  13.440
55094W        W24975  29.166  13.151   1.305
55095W        W24976  17.798  22.006  13.840
55096W        W24977  17.666  42.961  11.869
55097W        W24978  17.215  36.504  11.096
55098W        W24979  20.113  16.702   0.385
55099W        W24980  19.057  30.593  13.883
55100W        W24981  23.556  14.174   1.438
55101W        W24982   5.834  33.579  11.970
55102W        W24983  15.811  33.118  12.507
55103W        W24984  34.509  44.468   4.285
55104W        W24985  21.750   2.471   2.858
55105W        W24986  31.040  16.212   0.958
55106W        W24987  31.083   0.756   2.866
55107W        W24988  37.515   1.356   2.369
55108W        W24989  40.902  33.484  12.918
55109W        W24990   3.348  40.967  11.436
55110W        W24991  29.609   5.742  14.027
55111W        W24992  39.868  44.309  13.950
55112W        W24993  16.660  32.612  10.419
55113W        W24994  20.742  26.696  10.429
55114W        W24995  27.033   8.815  13.981
55115W        W24996  24.705  15.803  14.959
55116W        W24997  19.655  11.278   3.767
55117W        W24998  37.358  16.624  14.967
55118W        W24999  28.483  32.066   2.724
55119W        W25000  16.096  18.266   0.333
55120W        W25001   0.316  22.520   0.454
55121W        W25002  18.112   5.794  12.940
55122W        W25003  11.295  42.025   2.819
55123W        W25004  43.351  10.673   4.694
55124W        W25005  35.585  25.100  11.515
55125W        W25006  16.751   0.285   1.923
55126W        W25007  28.047  10.868  14.921
55127W        W25008  36.857   6.244  14.405
55128W        W25009  19.534  18.734  10.931
55129W        W25010  42.925  15.144   4.339
55130W        W25011  30.527  22.711   5.125
55131W        W25012  35.932  28.640   0.254
55132W        W25013  30.561  10.292  11.962
55133W        W25014  14.654   3.763   0.322
55134W        W25015   1.855  33.579   1.719
55135W        W25016  29.082  24.219   4.286
55136W        W25017  24.518  16.101   3.689
55137W        W25018  15.229   6.271   3.292
55138W        W25019  12.345  16.175  14.389
55139W        W25020  39.845  28.513   0.784
55140W        W25021  42.329   8.727   4.775
55141W        W25022  13.277  40.856   0.325
55142W        W25023  38.493  21.654   1.431
55143W        W25024  37.969  44.912  11.866
55144W        W25025   5.776  18.544  10.408
55145W        W25026  11.663  18.739  13.042
55146W        W25027   9.339   6.842  11.980
55147W        W25028  17.088   6.388   1.871
55148W        W25029  13.146  36.960   3.678
55149W        W25030  12.305  12.192  14.441
55150W        W25031  40.331   7.700   4.245
55151W        W25032  38.915  10.814  12.823
55152W        W25033  43.428  27.627  12.531
55153W        W25034   4.913  16.119   4.631
55154W        W25035   7.811  36.373  14.860
55155W        W25036  11.219  17.641   3.865
55156W        W25037   7.893   3.290  10.443
55157W        W25038  38.381  18.664  13.537
55158W        W25039  24.649  33.947  14.021
55159W        W25040  40.838  36.882   0.747
55160W        W25041  43.893  35.427  11.928
55161W        W25042  34.467  42.285   1.295
55162W        W25043  42.282  17.642  11.921
55163W        W25044  35.439  39.464   1.314
55164W        W25045  43.016   4.771  12.032
55165W        W25046  19.083  40.433   0.906
55166W        W25047  32.508  42.332  11.505
55167W        W25048  24.205  21.260  10.029
55168W        W25049  20.673   8.835  10.482
55169W        W25050   3.263  41.310  11.969
55170W        W25051  12.747  25.065   2.764
55171W        W25052  36.968  27.629   2.301
55172W        W25053  29.650  35.516   1.724
55173W        W25054  29.121   4.296  12.094
55174W        W25055  26.485  43.415  13.401
55175W        W25056  24.698   8.890  12.909
55176W        W25057   8.770  23.688   1.343
55177W        W25058  35.993   0.449   2.201
55178W        W25059   0.489   0.315  13.034
55179W        W25060  39.474  37.086   4.767
55180W        W25061   1.246  26.119   1.415
55181W        W25062   7.836  32.120   2.813
55182W        W25063  25.190  22.533   4.123
55183W        W25064  25.109  21.038  12.077
55184W        W25065  26.615  20.193  13.929
55185W        W25066  41.969   1.770   0.820
55186W        W25067   3.413   0.888   2.753
55187W        W25068  24.494  40.394  14.935
55188W        W25069  33.013  44.902   1.403
55189W        W25070  10.260  11.314   3.178
55190W        W25071  21.250  22.531   3.816
55191W        W25072  32.403  26.992   2.318
55192W        W25073   3.858  41.305   1.895
55193W        W25074  28.125   9.385  13.376
55194W        W25075  23.546   2.768   0.273
55195W        W25076  25.144  21.656  14.909
55196W        W25077  18.051  15.284  10.923
55197W        W25078   2.875  18.756   2.680
55198W        W25079   8.324  23.004   4.646
55199W        W25080   3.301  29.918   4.339
55200W        W25081  35.512  33.414   0.930
55201W        W25082  23.627   2.384  13.517
55202W        W25083  25.098   9.671  12.935
55203W        W25084  31.454  33.022   3.634
55204W        W25085   6.311  36.913   2.720
55205W        W25086  19.775  44.867   5.128
55206W        W25087  38.039  36.533   4.740
55207W        W25088   9.197   6.406   1.284
55208W        W25089   4.945  39.446   0.849
55209W        W25090   2.807   2.304  10.507
55210W        W25091  12.688  38.973   9.613
55211W        W25092  29.051   2.963  14.341
55212W        W25093   3.238  44.274  11.904
55213W        W25094  40.973   5.380  12.982
55214W        W25095  32.500  28.971  12.971
55215W        W25096  38.912  19.709  13.543
55216W        W25097  37.535   2.737   3.189
55217W        W25098  11.838  26.588  10.901
55218W        W25099  21.093  32.541  11.410
55219W        W25100  18.161  22.620  13.471
55220W        W25101  37.387  37.421   4.751
55221W        W25102  24.618   9.269  14.967
55222W        W25103  21.699  19.065  12.911
55223W        W25104  16.260  31.924  13.027
55224W        W25105  11.336   2.442   1.410
55225W        W25106   6.896   9.834  12.361
55226W        W25107   2.769   5.370  12.510
55227W        W25108  17.091   8.227  12.074
55228W        W25109  42.889  17.570   1.863
55229W        W25110  42.834   7.877   5.159
55230W        W25111  17.240  11.324  12.451
55231W        W25112  18.582  11.218   4.737
55232W        W25113  14.663  44.460   3.808
55233W        W25114   2.864  39.426  11.052
55234W        W25115  37.516  11.675  11.877
55235W        W25116  34.931  20.126  10.597
55236W        W25117  23.999   2.259  11.026
55237W        W25118  33.505  44.375   0.939
55238W        W25119  40.308   7.908  12.987
55239W        W25120   3.941  28.559  12.512
55240W        W25121   3.894  35.905  12.979
55241W        W25122   2.893  23.212  14.952
55242W        W25123  44.954  15.148   4.623
55243W        W25124   2.729  31.902   0.421
55244W        W25125  32.056  17.750   4.826
55245W        W25126  15.329  14.723  10.903
55246W        W25127  44.843  17.094   1.213
55247W        W25128  33.945  32.886   1.301
55248W        W25129   6.900   8.750  11.098
55249W        W25130  33.486  30.980   3.267
55250W        W25131   2.793  36.463  12.470
55251W        W25132  28.629   1.366   0.733
55252W        W25133   7.706  38.838   3.235
55253W        W25134   8.357   4.920   2.793
55254W        W25135  17.759  22.597  12.848
55255W        W25136  41.865  28.997   3.719
55256W        W25137  33.934   4.925  12.538
55257W        W25138  12.794  35.074  11.976
55258W        W25139  16.199  27.690  13.860
55259W        W25140  27.488  29.549  14.438
55260W        W25141  19.721  16.120  10.636
55261W        W25142  43.399  23.045  14.339
55262W        W25143   4.767  30.461  12.042
55263W        W25144  21.619  36.947  11.941
55264W        W25145  16.172  30.626   0.445
55265W        W25146  18.054  33.380  11.378
55266W        W25147  34.563  25.477  14.983
55267W        W25148  43.805  32.921  14.027
55268W        W25149  17.732  41.814   4.334
55269W        W25150  10.260  34.437  11.061
55270W        W25151  12.676  17.108   0.834
55271W        W25152  19.286  21.570  12.415
55272W        W25153   5.208  31.467   1.777
55273W        W25154  18.114   8.342  12.942
55274W        W25155  36.507  11.329  14.395
55275W        W25156  32.605  37.984   1.762
55276W        W25157  38.980  13.301   3.719
55277W        W25158  33.553  10.784   4.194
55278W        W25159   6.326  31.518   1.333
55279W        W25160   9.739  39.997  10.541
55280W        W25161  34.978  11.259   4.818
55281W        W25162  28.184  19.668   4.320
55282W        W25163  42.832  28.636   3.227
55283W        W25164  19.777  33.962  13.840
55284W        W25165   7.345  25.201   4.787
55285W        W25166  37.363  31.904  14.359
55286W        W25167   8.756  31.588  10.455
55287W        W25168  24.667  11.199   4.701
55288W        W25169  21.049  30.417   3.715
55289W        W25170  23.592  21.646   2.812
55290W        W25171  36.982  27.066   4.194
55291W        W25172  16.662  28.104   3.764
55292W        W25173   9.170  42.386  14.833
55293W        W25174  30.086  12.239  14.010
55294W        W25175  17.621   1.353   3.666
55295W        W25176  27.954  10.224  13.877
55296W        W25177  23.138  39.555  14.306
55297W        W25178  40.918  40.864   2.249
55298W        W25179   0.447  41.488   1.708
55299W        W25180  23.147   0.966   4.688
55300W        W25181  16.622  33.579  13.453
55301W        W25182  29.505  36.457   0.408
55302W        W25183   8.344  25.193  10.644
55303W        W25184  20.594   0.971  13.530
55304W        W25185  14.282  32.953   0.316
55305W        W25186  41.388   0.780  10.578
55306W        W25187  29.655  10.864  12.553
55307W        W25188  36.075  10.780   0.728
55308W        W25189   4.837  16.170   3.663
55309W        W25190  39.472  31.013  12.002
55310W        W25191  16.711  22.054  11.955
55311W        W25192  34.568   9.770  11.103
55312W        W25193   7.275  21.072   3.359
55313W        W25194  37.020   7.712   3.360
55314W        W25195  17.781  15.619   1.305
55315W        W25196   8.396  28.505   3.635
55316W        W25197  39.881  41.347  13.334
55317W        W25198  28.486  36.976   0.866
55318W        W25199   0.362  31.402  14.834
55319W        W25200  18.789  14.649  13.829
55320W        W25201  10.683   3.881   4.806
55321W        W25202  19.086  14.797   0.756
55322W        W25203   2.907  31.504  13.898
55323W        W25204  33.398  20.655  14.417
55324W        W25205   7.248   7.363  10.920
55325W        W25206   3.455  30.655  12.471
55326W        W25207  19.535   8.764   1.744
55327W        W25208  28.013  43.899  14.991
55328W        W25209  42.409  43.500   2.803
55329W        W25210   0.750  19.196  14.773
55330W        W25211   2.323  23.135   4.718
55331W        W25212  42.005  40.860  14.922
55332W        W25213   3.376   3.391  11.449
55333W        W25214  15.797  24.178  12.363
55334W        W25215  25.120  18.056   1.265
55335W        W25216  42.805  33.404  12.839
55336W        W25217  21.596  24.722  11.014
55337W        W25218  28.675  29.572  14.964
55338W        W25219  11.848  37.525  10.523
55339W        W25220  15.585  12.245  11.879
55340W        W25221  44.362  22.633  11.946
55341W        W25222  21.219  43.299  10.463
55342W        W25223  27.099   1.809  10.573
55343W        W25224   8.714  29.139  11.890
55344W        W25225  32.412  12.732   4.671
55345W        W25226  43.302  12.833   4.772
55346W        W25227  11.850   8.218   1.760
55347W        W25228  22.153  30.001  11.033
55348W        W25229   7.228  15.090   4.662
55349W        W25230   6.761  21.543  11.111
55350W        W25231  30.062   5.743   3.753
55351W        W25232  38.919   7.908  10.915
55352W        W25233  32.971   4.780   1.747
55353W        W25234  23.497   8.771   0.747
55354W        W25235   9.240  39.890   0.739
55355W        W25236  38.369  29.591   0.915
55356W        W25237  30.943  34.450  13.990
55357W        W25238  43.831  17.280  12.472
55358W        W25239   6.189   0.762  10.001
55359W        W25240  19.072  30.922   3.253
55360W        W25241  29.949  11.643   1.415
55361W        W25242  34.089  32.963  13.323
55362W        W25243  19.121  23.156   0.909
55363W        W25244  29.169  21.075  14.972
55364W        W25245  31.046  40.044  11.075
55365W        W25246  26.573  13.323   1.330
55366W        W25247  29.517  13.727  14.007
55367W        W25248  18.106  17.288  13.416
55368W        W25249  12.619  22.199  13.005
55369W        W25250  13.344  28.146  13.835
55370W        W25251  34.461  10.734  13.462
55371W        W25252  40.001  43.388   2.803
55372W        W25253  27.103  35.089   3.773
55373W        W25254   4.808  21.758   1.221
55374W        W25255  44.818   4.879  14.295
55375W        W25256  20.175  16.203   4.691
55376W        W25257  42.379  10.186   2.692
55377W        W25258   3.234   7.895   2.269
55378W        W25259  44.407   1.898   5.124
55379W        W25260  36.869  25.495   0.843
55380W        W25261   6.310  42.826   2.780
55381W        W25262  12.731  19.151  10.588
55382W        W25263  41.308   4.778  13.973
55383W        W25264  42.961   0.415   9.934
55384W        W25265   5.720   7.710  14.496
55385W        W25266  12.833   0.323  10.997
55386W        W25267  40.393  25.097  12.492
55387W        W25268  28.513  22.594   1.440
55388W        W25269   2.324  14.604   3.820
55389W        W25270   3.788   0.372  13.349
55390W        W25271   9.374  38.508  12.899
55391W        W25272  19.180  12.654  14.793
55392W        W25273   2.752  37.404  12.457
55393W        W25274  30.540  41.502   2.210
55394W        W25275  22.033   1.337   0.312
55395W        W25276   3.321   5.304  11.980
55396W        W25277  41.455  24.056  10.888
55397W        W25278  40.523   9.278   3.716
55398W        W25279  11.835  30.611   0.802
55399W        W25280  40.537  44.498   0.753
55400W        W25281  40.515   1.968   0.833
55401W        W25282  38.901  11.697   4.168
55402W        W25283  17.116  10.789   3.696
55403W        W25284   4.800  38.559  10.912
55404W        W25285   8.365  31.090   2.319
55405W        W25286   4.707  41.871   5.111
55406W        W25287  36.464  25.588  11.066
55407W        W25288   0.831   0.273   2.187
55408W        W25289  12.826  12.242   2.341
55409W        W25290  22.707   3.236   1.879
55410W        W25291  44.300  15.237   0.349
55411W        W25292  25.484   4.275  14.871
55412W        W25293  25.036  11.257   4.322
55413W        W25294  18.117  36.403  12.356
55414W        W25295   0.879  44.405   2.864
55415W        W25296   9.697  28.505  11.383
55416W        W25297   1.476  36.939  13.496
55417W        W25298  34.407   3.843   3.649
55418W        W25299  44.438  31.090  10.910
55419W        W25300  32.095  28.018   3.312
55420W        W25301  12.840  40.406  12.882
55421W        W25302  32.416  11.819  13.973
55422W        W25303  24.611  19.542  11.935
55423W        W25304   4.722  23.025  14.834
55424W        W25305  35.519  41.024   1.700
55425W        W25306  41.497  35.878   0.742
55426W        W25307   4.226  33.077   2.346
55427W        W25308  23.988  30.025   3.848
55428W        W25309  13.837   0.987   3.225
55429W        W25310  14.796  33.995  14.760
55430W        W25311  27.107  37.402   1.338
55431W        W25312  43.476  12.830   3.837
55432W        W25313  17.095  14.768   2.320
55433W        W25314  21.135  25.703   1.715
55434W        W25315   3.295  30.142   1.856
55435W        W25316  32.420  41.800  12.041
55436W        W25317  13.233  33.073  11.921
55437W        W25318  15.123   4.915  10.409
55438W        W25319  23.542   0.836  14.919
55439W        W25320  41.449   8.742   3.678
55440W        W25321  37.070  35.497   4.696
55441W        W25322   2.445  22.561   3.285
55442W        W25323   6.782  38.999   0.445
55443W        W25324  19.537   7.176  11.032
55444W        W25325  37.429  23.196  13.058
55445W        W25326  32.562  41.351  12.400
55446W        W25327  24.652   9.661   3.755
55447W        W25328   4.862   4.945   5.145
55448W        W25329  44.793  15.771   1.919
55449W        W25330  36.543  42.977  14.001
55450W        W25331  44.423  13.320  11.415
55451W        W25332  30.511   8.887  14.015
55452W        W25333  35.402  21.714  14.486
55453W        W25334   7.810  22.673   2.313
55454W        W25335  12.204  21.182   2.325
55455W        W25336   3.882  44.319  14.786
55456W        W25337  36.543  44.297  11.558
55457W        W25338   8.187  23.625   2.411
55458W        W25339   1.435  36.935  10.612
55459W        W25340  36.892  42.870  10.583
55460W        W25341  41.323   5.696   0.938
55461W        W25342  10.696  26.981   3.679
55462W        W25343  19.138  30.017   1.786
55463W        W25344  41.043  40.519  10.623
55464W        W25345  43.933  29.019  13.828
55465W        W25346  16.791   7.790   0.805
55466W        W25347   7.284  29.996   0.282
55467W        W25348   6.378  12.284   2.790
55468W        W25349   4.298  22.646  11.013
55469W        W25350  39.828  39.458  11.563
55470W        W25351  21.599   8.306   4.738
55471W        W25352  21.515  43.849   5.592
55472W        W25353  10.277  12.120  10.546
55473W        W25354  14.630  14.770   3.164
55474W        W25355   8.715  16.177  11.002
55475W        W25356  25.692   7.173   4.325
55476W        W25357  19.109  22.523   1.823
55477W        W25358  14.608  17.307   1.263
55478W        W25359  11.320  28.457   0.733
55479W        W25360  21.603   7.788  13.481
55480W        W25361  32.917  33.516  13.004
55481W        W25362  29.105  17.261   1.893
55482W        W25363  43.015  38.916  11.007
55483W        W25364   0.875  14.657  10.445
55484W        W25365  14.672  25.481   0.431
55485W        W25366  29.514  37.364   4.223
55486W        W25367  13.790  23.018   3.368
55487W        W25368  11.265  30.526  12.936
55488W        W25369   4.229  11.236   1.414
55489W        W25370   8.369  32.063   4.653
55490W        W25371  25.669  36.474   0.896
55491W        W25372   9.262  41.897  12.353
55492W        W25373  13.305  39.815  11.064
55493W        W25374  10.355  40.001  13.519
55494W        W25375  40.378  37.012   1.398
55495W        W25376  25.628  18.703   4.331
55496W        W25377   4.413  41.852   4.836
55497W        W25378  36.941  15.245   1.815
55498W        W25379  30.555  12.649   3.227
55499W        W25380  23.119  38.883  11.044
55500W        W25381   7.796   9.257   0.790
55501W        W25382  44.455   8.898  12.394
55502W        W25383  33.572  17.265  12.008
55503W        W25384  28.600  38.065   1.920
55504W        W25385  27.108  34.492  13.490
55505W        W25386  34.033   7.356  12.861
55506W        W25387  22.735   8.293  14.498
55507W        W25388  23.016  19.199   3.843
55508W        W25389  38.998   5.776   1.782
55509W        W25390  41.821  30.017   1.830
55510W        W25391  16.228  31.088   1.450
55511W        W25392  39.560   7.340  13.000
55512W        W25393  19.264   5.227   1.377
55513W        W25394  26.971  20.049   1.788
55514W        W25395  25.148   4.254  11.515
55515W        W25396   4.440  26.103  11.025
55516W        W25397  27.078   6.230   1.703
55517W        W25398   0.367  41.005   4.821
55518W        W25399  26.600  17.659   4.629
55519W        W25400  24.213   4.389   3.841
55520W        W25401  25.968  30.924   1.751
55521W        W25402   7.905   6.405   2.324
55522W        W25403   3.357  36.365   0.357
55523W        W25404   4.760   3.862   3.652
55524W        W25405   7.223  26.200  14.778
55525W        W25406  28.623  20.180   3.348
55526W        W25407  30.038   0.857  12.378
55527W        W25408  27.119  34.487  10.602
55528W        W25409  36.404   7.814  13.056
55529W        W25410  27.525  19.733   4.178
55530W        W25411  37.925  28.639  11.048
55531W        W25412  34.896  38.569   1.851
55532W        W25413   9.882  15.290   3.687
55533W        W25414  30.436  39.316   1.360
55534W        W25415  20.130  32.466  14.308
55535W        W25416  40.490  10.151  10.531
55536W        W25417  41.795  20.523  14.770
55537W        W25418  34.413  40.359  13.969
55538W        W25419  16.713  16.135   4.322
55539W        W25420   3.431  43.335   4.221
55540W        W25421  31.916  15.086  14.955
55541W        W25422  10.637  19.746   4.735
55542W        W25423  11.180  29.121  12.358
55543W        W25424  28.006  16.105   3.840
55544W        W25425   7.262  18.165  11.077
55545W        W25426  25.980  12.175  11.393
55546W        W25427   6.735   3.731  14.838
55547W        W25428   6.191  13.735   0.815
55548W        W25429  19.684  17.091   0.411
55549W        W25430   1.410  20.626  14.879
55550W        W25431  26.118   6.766   1.391
55551W        W25432   9.724   4.833  11.909
55552W        W25433  22.231  27.986  11.520
55553W        W25434  18.103  10.655  11.865
55554W        W25435  18.751  29.106   3.828
55555W        W25436  44.346  21.253  12.455
55556W        W25437  43.867  44.004   2.299
55557W        W25438   7.778  10.712  12.842
55558W        W25439   5.890  21.257  14.764
55559W        W25440   7.811  19.107   2.319
55560W        W25441  11.784   8.247  12.833
55561W        W25442   2.309  37.852  13.316
55562W        W25443  14.227   4.737  10.532
55563W        W25444  40.488  28.060   3.754
55564W        W25445  12.800  14.218  11.986
55565W        W25446  31.465  21.067  14.414
55566W        W25447  15.257  21.602   1.399
55567W        W25448  40.855  32.478   0.337
55568W        W25449  42.837  23.130   1.710
55569W        W25450  10.382   0.322  11.002
55570W        W25451  18.678   9.210   1.302
55571W        W25452  32.908  30.158  11.606
55572W        W25453  31.556   0.468  10.898
55573W        W25454   3.729  38.543   2.411
55574W        W25455  24.691   5.402   0.415
55575W        W25456  11.254   1.945  13.848
55576W        W25457  17.125  26.569   3.168
55577W        W25458   6.307  43.980   2.772
55578W        W25459  25.690  17.608  12.009
55579W        W25460  26.119  32.397   2.702
55580W        W25461  32.005  28.957   1.398
55581W        W25462  30.570   3.923  12.079
55582W        W25463   2.905  26.113   1.394
55583W        W25464  10.752  42.834  12.934
55584W        W25465   9.338  44.856   4.234
55585W        W25466  38.829  21.557  13.445
55586W        W25467   2.867  42.310  10.439
55587W        W25468  44.364  44.343  10.924
55588W        W25469  44.451  44.829  12.470
55589W        W25470   0.785  19.571   4.802
55590W        W25471  22.573  16.695   4.308
55591W        W25472  22.100  28.523   2.316
55592W        W25473  42.815   1.410   4.787
55593W        W25474  16.292  14.196   1.386
55594W        W25475  16.297  18.206  11.900
55595W        W25476  21.623  30.588  13.320
55596W        W25477  35.562  35.463   3.356
55597W        W25478   8.723  21.697  12.086
55598W        W25479  31.431   1.360   2.897
55599W        W25480  38.890  42.909   0.733
55600W        W25481  27.092  42.440  11.556
55601W        W25482  31.105  33.439   0.894
55602W        W25483  10.221  41.326   0.771
55603W        W25484   5.777  20.567   2.379
55604W        W25485  13.745  38.551  12.824
55605W        W25486  19.116  13.640  11.567
55606W        W25487   8.857  15.670   1.934
55607W        W25488  31.140  30.462   2.736
55608W        W25489  21.135  42.797  14.951
55609W        W25490  44.877  13.746   1.929
55610W        W25491  17.091  23.643   2.294
55611W        W25492   9.378  42.887  11.925
55612W        W25493  17.648  32.917  13.063
55613W        W25494  43.903  30.466  10.461
55614W        W25495  25.536   3.758   3.666
55615W        W25496  26.995  34.916  10.425
55616W        W25497  41.907   8.318   3.797
55617W        W25498  39.482  30.078  11.050
55618W        W25499   9.847   8.655  12.835
55619W        W25500  16.691   6.348   4.251
55620W        W25501  25.698  35.083  10.623
55621W        W25502  30.976  40.859   3.217
55622W        W25503   1.971  27.064   0.323
55623W        W25504   6.311  20.594   4.172
55624W        W25505  41.023  32.632   1.265
55625W        W25506  28.072   8.262   2.237
55626W        W25507  39.039   4.782  13.923
55627W        W25508  23.106  42.501  13.436
55628W        W25509   0.853  31.467  13.980
55629W        W25510  28.569  29.956  14.975
55630W        W25511   2.368  35.963   2.283
55631W        W25512  43.302  19.161   4.670
55632W        W25513  28.043   6.858  14.506
55633W        W25514  39.884  11.310  12.040
55634W        W25515  24.561  28.094   0.447
55635W        W25516  18.655  38.862  14.791
55636W        W25517  33.119  25.669   3.792
55637W        W25518   7.842  38.917  13.432
55638W        W25519  30.629   9.775   1.257
55639W        W25520  26.127  11.180   0.411
55640W        W25521  12.664  23.110  14.316
55641W        W25522   9.171  36.968  10.464
55642W        W25523  16.743  38.041   4.778
55643W        W25524  34.610  41.375  12.369
55644W        W25525  23.673  21.187   0.897
55645W        W25526  41.821  21.222  12.020
55646W        W25527  32.942  14.213   1.398
55647W        W25528  44.502   4.923  10.938
55648W        W25529  34.385  24.050   2.376
55649W        W25530  15.247  13.350   1.920
55650W        W25531  37.367   3.265   1.284
55651W        W25532   0.749  13.750  14.817
55652W        W25533  35.940  36.366   1.312
55653W        W25534  39.518  35.549   4.255
55654W        W25535   3.869  12.816  13.051
55655W        W25536  30.640  34.073   3.297
55656W        W25537  36.049  44.976  14.352
55657W        W25538  34.949  26.667  10.490
55658W        W25539  14.649  19.743   4.133
55659W        W25540   9.801  31.994   0.893
55660W        W25541  25.132  19.713   4.654
55661W        W25542  31.150  26.045   2.387
55662W        W25543  39.560   1.415  11.899
55663W        W25544  42.356   7.904  11.044
55664W        W25545  14.287  32.433   0.735
55665W        W25546  10.799  44.813  12.900
55666W        W25547  34.970  36.885   4.304
55667W        W25548  31.071   9.657  11.462
55668W        W25549  41.411  39.450  12.476
55669W        W25550  31.635  19.601   4.775
55670W        W25551  40.039  22.722   2.750
55671W        W25552   6.800  29.658  14.498
55672W        W25553   7.762   6.291  11.554
55673W        W25554  11.730  11.219  14.981
55674W        W25555  15.708  39.437  14.999
55675W        W25556  44.841   4.280   3.862
55676W        W25557   0.844  36.940  11.968
55677W        W25558  37.369   1.243   3.856
55678W        W25559  29.568  25.114   2.189
55679W        W25560   2.464  28.073  10.483
55680W        W25561   2.771  23.498   1.343
55681W        W25562   2.773  15.723  11.504
55682W        W25563   4.885  22.105   2.310
55683W        W25564   4.867   5.715   2.328
55684W        W25565  16.595  21.262   4.260
55685W        W25566  35.430  32.579   4.720
55686W        W25567  20.563   3.736  12.978
55687W        W25568  16.219  24.164   4.126
55688W        W25569  34.540  26.695  11.541
55689W        W25570  27.063  42.390   2.873
55690W        W25571  36.550  41.926   2.668
55691W        W25572  42.412  24.622  14.841
55692W        W25573   2.430  30.480   3.221
55693W        W25574  39.441  36.853  14.333
55694W        W25575  38.859  11.320   2.378
55695W        W25576  43.990  29.527  13.908
55696W        W25577  18.164  10.723   0.919
55697W        W25578  14.139  31.559  14.437
55698W        W25579  14.644  26.175  11.541
55699W        W25580  38.397  32.409   4.297
55700W        W25581  29.106  12.275  10.438
55701W        W25582  34.948  42.975   2.256
55702W        W25583  35.918  32.902   4.246
55703W        W25584  13.716  37.405  14.510
55704W        W25585  19.146   2.421  10.486
55705W        W25586   0.773  38.370  13.813
55706W        W25587  42.910  21.095   4.782
55707W        W25588  23.238   1.315  11.078
55708W        W25589  43.942   7.763  13.338
55709W        W25590  23.032  17.661  14.959
55710W        W25591  33.974  10.733   2.245
55711W        W25592  43.865  31.531   2.261
55712W        W25593  26.161  10.871   4.174
55713W        W25594  42.910   1.372  14.959
55714W        W25595  12.143  22.703  12.965
55715W        W25596  22.566  44.969  10.416
55716W        W25597  28.542   8.779  13.461
55717W        W25598  11.812   6.234   2.280
55718W        W25599  21.172  26.511   2.731
55719W        W25600  22.194  13.330   4.309
55720W        W25601  11.324  37.453  14.946
55721W        W25602  20.096   8.382   2.853
55722W        W25603  42.874   7.287   3.196
55723W        W25604  42.418  17.728  12.848
55724W        W25605   3.429  29.143   0.771
55725W        W25606  36.356  32.944   0.474
55726W        W25607  30.618  23.201   4.633
55727W        W25608  18.102   0.415  13.446
55728W        W25609  11.786  13.791   2.800
55729W        W25610  38.068  34.466  10.506
55730W        W25611  32.393   5.753   1.722
55731W        W25612   5.764  31.003   1.883
55732W        W25613  26.130  26.993  11.960
55733W        W25614   0.771  20.247  11.486
55734W        W25615  43.882  44.849  12.875
55735W        W25616  15.580  23.030   0.762
55736W        W25617  16.162  33.489   1.704
55737W        W25618  14.795   8.248  13.807
55738W        W25619   0.320  44.448   1.817
55739W        W25620  20.633  28.584   3.201
55740W        W25621  39.848  21.702  10.968
55741W        W25622  34.548  39.848   4.679
55742W        W25623  13.663   3.751  10.458
55743W        W25624  41.848  29.513  13.972
55744W        W25625  26.531  25.480  14.397
55745W        W25626  21.074  14.194  13.323
55746W        W25627  41.027  35.520  12.490
55747W        W25628  43.485  30.048   2.390
55748W        W25629  11.784  44.832  14.891
55749W        W25630  24.534  27.453  11.981
55750W        W25631  33.438  18.749  13.959
55751W        W25632  21.522   8.193  14.908
55752W        W25633   1.360  40.898  14.843
55753W        W25634   2.879  34.085  14.347
55754W        W25635   6.255   3.954   3.857
55755W        W25636  19.611  11.642  12.859
55756W        W25637   4.362  25.586  12.383
55757W        W25638   6.351  43.972   4.268
55758W        W25639   6.915   3.839  13.546
55759W        W25640  40.456   7.832   0.856
55760W        W25641  35.874  39.014  11.079
55761W        W25642  36.957   2.311   5.162
55762W        W25643  15.741  27.952   2.205
55763W        W25644  35.444  37.434  10.491
55764W        W25645  28.079   2.250  13.524
55765W        W25646  43.978  13.644   1.270
55766W        W25647  22.063  10.828  13.335
55767W        W25648  44.379   9.799   2.405
55768W        W25649  15.743  30.928  14.372
55769W        W25650   7.282   2.343  11.921
55770W        W25651   9.872   0.441  13.439
55771W        W25652  32.919  32.448   4.630
55772W        W25653  15.104  14.820   1.272
55773W        W25654   6.716   9.288  13.516
55774W        W25655  44.390   6.287   0.864
55775W        W25656  12.661  27.561   3.379
55776W        W25657  17.082  12.792   0.843
55777W        W25658  38.360  40.316  14.820
55778W        W25659   8.784  25.680  11.594
55779W        W25660   5.911  30.430   2.836
55780W        W25661   3.805  20.678  12.005
55781W        W25662  11.654  18.073   5.306
55782W        W25663  20.676  38.545  12.984
55783W        W25664  14.277   1.352  14.387
55784W        W25665  10.380   7.898   2.383
55785W        W25666  23.639  14.264   3.163
55786W        W25667  26.108  37.913   3.837
55787W        W25668  19.234  29.502   2.399
55788W        W25669  15.102  42.519   4.307
55789W        W25670  17.790  14.275   0.297
55790W        W25671  29.002   2.226  11.118
55791W        W25672  30.442  33.093  14.291
55792W        W25673  30.627  39.934  11.961
55793W        W25674  40.857  19.171   3.284
55794W        W25675   1.425  25.644  12.428
55795W        W25676  31.080  27.983   4.621
55796W        W25677   8.357   4.440   4.815
55797W        W25678  33.480  30.582  14.962
55798W        W25679  40.506  33.885   2.712
55799W        W25680  21.080  25.010   2.375
55800W        W25681  36.410  29.655   0.272
55801W        W25682  38.402   3.868   1.222
55802W        W25683  16.109   6.212  10.967
55803W        W25684   9.237   8.378  13.444
55804W        W25685  24.513  10.766   2.785
55805W        W25686  23.045  20.569  13.013
55806W        W25687  32.131  40.401   2.743
55807W        W25688  35.473  27.632   2.395
55808W        W25689   6.273  29.489   4.805
55809W        W25690  35.979   3.820   1.767
55810W        W25691   8.231   0.786  13.949
55811W        W25692  12.213  35.002   4.241
55812W        W25693  40.378  14.338  14.459
55813W        W25694  37.010  14.658   4.705
55814W        W25695  43.334  43.767  13.962
55815W        W25696  43.445   8.199   0.813
55816W        W25697  12.173  30.990  10.016
55817W        W25698   3.407  42.370  12.940
55818W        W25699  26.635  15.187  11.577
55819W        W25700  33.395  29.148   1.252
55820W        W25701   1.785  43.311   3.649
55821W        W25702   9.839   9.258  11.117
55822W        W25703  43.384  10.160   2.381
55823W        W25704  27.688  25.156  12.023
55824W        W25705  19.048   9.751  11.408
55825W        W25706  30.564  25.080  10.506
55826W        W25707   5.875  10.170   0.802
55827W        W25708   4.707  15.302   0.878
55828W        W25709   2.868   8.778   2.245
55829W        W25710   2.280  43.961   3.763
55830W        W25711  38.050  18.620  11.542
55831W        W25712  24.095  18.277   2.408
55832W        W25713  24.541  42.383  12.447
55833W        W25714  41.492  29.946   4.687
55834W        W25715  33.538   9.384  14.277
55835W        W25716  28.660  42.288   0.957
55836W        W25717  13.641  28.659  14.509
55837W        W25718  24.589  44.791   2.258
55838W        W25719  44.480  41.406   3.215
55839W        W25720  18.698   5.740   4.343
55840W        W25721  32.500  10.670   2.760
55841W        W25722   6.774  39.474   2.418
55842W        W25723  15.590   7.371   2.891
55843W        W25724   3.923  17.654  10.424
55844W        W25725  33.409  30.503   4.762
55845W        W25726  11.217  21.208   4.762
55846W        W25727  22.567   1.952  12.079
55847W        W25728  19.198   9.271  13.371
55848W        W25729  41.950   5.294  14.870
55849W        W25730  19.285  27.686  12.426
55850W        W25731  12.761  31.643  14.416
55851W        W25732  23.582  14.787   1.301
55852W        W25733  20.651  22.181  14.483
55853W        W25734  44.770  14.231  13.010
55854W        W25735   0.806   7.243   3.233
55855W        W25736   2.471   2.794  12.547
55856W        W25737  17.782  44.891  14.803
55857W        W25738  24.539  13.178   2.401
55858W        W25739  23.092   2.851   4.678
55859W        W25740  19.221  42.012   0.883
55860W        W25741  23.095  14.764   2.720
55861W        W25742  44.425  21.169  10.416
55862W        W25743  39.388  32.978  10.987
55863W        W25744  31.117  17.296  12.357
55864W        W25745  18.601  30.516   4.755
55865W        W25746   0.803   0.788  12.006
55866W        W25747   0.489  28.611  14.418
55867W        W25748  12.328  14.332  12.932
55868W        W25749  36.491  22.723   5.125
55869W        W25750  44.851  23.622   2.759
55870W        W25751  10.722  42.316  12.411
55871W        W25752  40.495   8.240   3.719
55872W        W25753   4.942  40.031  12.829
55873W        W25754  39.545  31.431  13.849
55874W        W25755  18.746  33.380  12.368
55875W        W25756  10.670   2.428   1.327
55876W        W25757  28.173  37.414   4.293
55877W        W25758  24.537  26.132  13.886
55878W        W25759   8.895   4.393  14.339
55879W        W25760   7.416   6.191   4.758
55880W        W25761  38.933  13.783   1.926
55881W        W25762  30.031  35.976   0.263
55882W        W25763  32.975  13.694  11.890
55883W        W25764  40.802  42.019   4.650
55884W        W25765  13.156  11.349  12.366
55885W        W25766  10.151  15.744  10.077
55886W        W25767   6.903   0.483   0.877
55887W        W25768  40.830  35.558  14.430
55888W        W25769  25.048  17.750   0.394
55889W        W25770  34.904  22.628  12.847
55890W        W25771  16.247   9.339  11.119
55891W        W25772  32.093  13.119   4.775
55892W        W25773  42.348  36.030  11.011
55893W        W25774  38.494  37.999  10.428
55894W        W25775  14.761  12.256   3.367
55895W        W25776   2.919  34.987  11.898
55896W        W25777  15.216   7.408   1.339
55897W        W25778  24.675   3.359  13.451
55898W        W25779   6.376  26.680  13.444
55899W        W25780  20.636  13.798  14.502
55900W        W25781  10.183  28.183   1.359
55901W        W25782  11.816   7.286   5.251
55902W        W25783   1.923  37.074   0.274
55903W        W25784  36.852  29.423   4.170
55904W        W25785   9.670  42.322  11.046
55905W        W25786  26.039  35.857   0.473
55906W        W25787  33.038  28.551   3.341
55907W        W25788   9.655  40.426   2.264
55908W        W25789  10.671   0.795   1.398
55909W        W25790  36.999  44.411  11.109
55910W        W25791   9.729   4.821   3.634
55911W        W25792  34.016   2.821  12.576
55912W        W25793  11.169  18.555   3.636
55913W        W25794  17.133  16.100   1.357
55914W        W25795   6.921  30.614  14.919
55915W        W25796   9.394  18.661   2.399
55916W        W25797  43.000  10.356  13.330
55917W        W25798  14.271  32.560  14.433
55918W        W25799  16.149   5.387   3.178
55919W        W25800  19.641  34.992   1.352
55920W        W25801   0.367  13.255  11.545
55921W        W25802  44.945  26.055   2.799
55922W        W25803   7.218  22.741  10.585
55923W        W25804  16.303  14.251  13.874
55924W        W25805   3.423  23.154   3.360
55925W        W25806  41.931  19.208  11.485
55926W        W25807  38.472  15.648   0.907
55927W        W25808  20.748  30.526  12.477
55928W        W25809  37.581  20.135   2.749
55929W        W25810  44.495  27.572   3.308
55930W        W25811   4.886   3.778   4.646
55931W        W25812  40.489  23.695  12.533
55932W        W25813  13.636  21.258   1.364
55933W        W25814  12.135  26.686   0.761
55934W        W25815  21.115  21.580   1.907
55935W        W25816  17.249  39.476  11.976
55936W        W25817  36.446  36.943  10.474
55937W        W25818  18.103  30.522  12.895
55938W        W25819   8.388   4.433  14.325
55939W        W25820  36.535  11.868   2.718
55940W        W25821  33.456   6.229  14.327
55941W        W25822  31.486   4.309   4.609
55942W        W25823  32.392   8.385  12.511
55943W        W25824   2.951  12.130  10.448
55944W        W25825   2.775  11.831   4.143
55945W        W25826   1.366   4.365   0.902
55946W        W25827  28.437  30.989   1.322
55947W        W25828  11.666   9.861   2.361
55948W        W25829  25.494  23.499   0.318
55949W        W25830  41.865  13.222  13.516
55950W        W25831  16.153  16.168  12.833
55951W        W25832   1.851  25.998  13.930
55952W        W25833  39.886  21.236   2.839
55953W        W25834  40.340  37.833  11.388
55954W        W25835  24.483   7.751  14.926
55955W        W25836   0.442  32.017   3.268
55956W        W25837  22.240  16.578   0.851
55957W        W25838  15.194   1.309  14.770
55958W        W25839   9.789  28.056   3.317
55959W        W25840  28.104  11.243   1.777
55960W        W25841  20.053   5.730   4.650
55961W        W25842  15.323  30.639   2.863
55962W        W25843  35.887  14.291  14.340
55963W        W25844  21.744  28.027  12.525
55964W        W25845  13.120  29.538   0.729
55965W        W25846  13.118  25.539   2.840
55966W        W25847  18.565  35.896   2.742
55967W        W25848   0.940  44.965  14.854
55968W        W25849  35.926  30.607   3.242
55969W        W25850  10.825   7.851  12.556
55970W        W25851  12.702  31.070  14.328
55971W        W25852  32.543   1.923  10.453
55972W        W25853  31.948  19.647   2.766
55973W        W25854  12.832   3.232  11.500
55974W        W25855  29.440  12.761   1.450
55975W        W25856  30.426  39.012   0.261
55976W        W25857  12.338  16.231   1.718
55977W        W25858   7.738  28.162   1.922
55978W        W25859  42.411  28.669   3.174
55979W        W25860   0.781  35.459   0.848
55980W        W25861  42.813   5.259  10.949
55981W        W25862  20.258  14.770  13.857
55982W        W25863   8.327   7.672   3.642
55983W        W25864  18.149  27.108   2.783
55984W        W25865   1.371   5.267  10.461
55985W        W25866   5.887  43.414   4.635
55986W        W25867  25.082  20.615  14.840
55987W        W25868  15.823   4.900   1.804
55988W        W25869   0.348  11.758  11.862
55989W        W25870  33.881   9.171   2.676
55990W        W25871  41.434  17.248   1.258
55991W        W25872  36.383  30.587   0.828
55992W        W25873  23.644  36.861   1.340
55993W        W25874  11.348  42.856  13.475
55994W        W25875  14.190   6.764   3.307
55995W        W25876  39.851  42.828   1.318
55996W        W25877  43.362   6.872  12.975
55997W        W25878   5.773  38.823   3.297
55998W        W25879  34.449  28.624   3.778
55999W        W25880  40.904   2.369   0.359
56000W        W25881  24.482  38.378  12.476
56001W        W25882  11.805  30.654  11.559
56002W        W25883  25.561  27.974   4.761
56003W        W25884  42.969  24.714  14.354
56004W        W25885  43.461  40.448  12.434
56005W        W25886   2.238  11.672   0.244
56006W        W25887  32.463  22.501   9.955
56007W        W25888  27.090  13.806   3.823
56008W        W25889  25.149   6.698  12.978
56009W        W25890  30.911  11.743  12.519
56010W        W25891  44.479   7.173   2.283
56011W        W25892   2.335   9.384  13.430
56012W        W25893  22.119   7.755   4.240
56013W        W25894   1.265   4.868  14.797
56014W        W25895  20.694  29.598   4.159
56015W        W25896   2.471  25.574   3.327
56016W        W25897  36.350  32.903  14.907
56017W        W25898  17.297  41.961  12.959
56018W        W25899   7.338   9.150   2.382
56019W        W25900  25.483   3.272   2.765
56020W        W25901  18.689  20.177  10.464
56021W        W25902  12.647  11.287   4.700
56022W        W25903  24.086  32.568   4.700
56023W        W25904  25.186  40.531   1.845
56024W        W25905  24.124  18.291  14.980
56025W        W25906  29.617  31.946  12.826
56026W        W25907  21.664  20.254  14.794
56027W        W25908  11.788  28.573   9.534
56028W        W25909  18.739  30.519  13.542
56029W        W25910  35.875  36.523   4.708
56030W        W25911  16.184  16.770   1.341
56031W        W25912  37.868   0.771   1.417
56032W        W25913   0.362  17.293   4.737
56033W        W25914  26.605  15.801   4.776
56034W        W25915  26.572  22.199   4.295
56035W        W25916   6.817  24.046   4.193
56036W        W25917  30.635  42.014  10.566
56037W        W25918  26.184  42.346   2.852
56038W        W25919   7.315  16.608  12.983
56039W        W25920   8.277  36.870  14.795
56040W        W25921   9.714  10.342   4.227
56041W        W25922  18.235   0.820  12.944
56042W        W25923   1.820  20.658   3.830
56043W        W25924  28.537  16.794   4.297
56044W        W25925  19.043  20.256  11.486
56045W        W25926   4.762  23.498   0.426
56046W        W25927   0.450  11.666   3.368
56047W        W25928  24.042  41.358  10.612
56048W        W25929   9.656  17.188   5.227
56049W        W25930  38.022   1.346  12.531
56050W        W25931  30.084   5.729   1.734
56051W        W25932  15.752  22.743  13.480
56052W        W25933  19.133   0.271   2.353
56053W        W25934  26.170  24.040  12.882
56054W        W25935   4.922  23.114   2.699
56055W        W25936   3.735  21.619   4.262
56056W        W25937   8.220  41.520  13.482
56057W        W25938  23.124  39.424  11.513
56058W        W25939  40.475  44.480  13.050
56059W        W25940  18.072   9.646  13.017
56060W        W25941   2.394  17.766  12.573
56061W        W25942  20.067  42.999  13.335
56062W        W25943   4.355  11.776  13.330
56063W        W25944   5.215  13.200  12.398
56064W        W25945  30.587  39.492  13.428
56065W        W25946   3.883  22.699  14.283
56066W        W25947   3.294  18.245  14.982
56067W        W25948  29.999  43.943   2.357
56068W        W25949  25.078  42.845   1.331
56069W        W25950  44.369  10.281   9.925
56070W        W25951  20.171   7.320   4.655
56071W        W25952  10.159  38.854  12.480
56072W        W25953  44.807   9.793  12.496
56073W        W25954   3.374  15.791  10.924
56074W        W25955  38.834  41.513   1.785
56075W        W25956  37.973  29.578  14.453
56076W        W25957  26.098  14.677  13.938
56077W        W25958  28.659  27.637  11.119
56078W        W25959  30.082  37.029   0.869
56079W        W25960  13.322  16.661  11.585
56080W        W25961  38.349  37.343   4.689
56081W        W25962   5.756   9.379   3.154
56082W        W25963  34.453  13.244  13.486
56083W        W25964   1.410  10.180   0.966
56084W        W25965   1.844   9.655  13.940
56085W        W25966  41.319  12.255   4.202
56086W        W25967   8.839  24.656   0.740
56087W        W25968  11.742  11.233  13.048
56088W        W25969   5.801   9.344   1.912
56089W        W25970  14.822   9.177  12.013
56090W        W25971  29.658  32.516  14.794
56091W        W25972  40.040  32.594  12.443
56092W        W25973  13.115  23.107   3.808
56093W        W25974   7.306  24.567   3.306
56094W        W25975   8.711  38.454   1.337
56095W        W25976   7.190  20.600  14.441
56096W        W25977  39.856  34.559  13.845
56097W        W25978  43.906   6.217  11.513
56098W        W25979  22.156   1.453   4.792
56099W        W25980  20.065  43.475  13.391
56100W        W25981  28.013   2.799   1.747
56101W        W25982  44.413  26.011  10.440
56102W        W25983  15.790  30.585   3.345
56103W        W25984  29.036  35.861   1.356
56104W        W25985   7.821  36.945   3.226
56105W        W25986  37.886  33.047  12.974
56106W        W25987  21.558  13.806   2.772
56107W        W25988  14.822  25.067   4.309
56108W        W25989  30.659  15.745  14.300
56109W        W25990  11.229  18.052   1.872
56110W        W25991   6.751   7.173   0.455
56111W        W25992  27.041   7.703   4.123
56112W        W25993   0.843  44.965  13.838
56113W        W25994   2.940  33.443  11.582
56114W        W25995  39.398  24.704   1.839
56115W        W25996  14.752  22.680  10.495
56116W        W25997  36.399   0.975  11.470
56117W        W25998  38.341  34.542   3.372
56118W        W25999   3.944  32.095  12.428
56119W        W26000  22.007  25.166   2.190
56120W        W26001  31.501   3.276   3.681
56121W        W26002  40.474  38.495  13.372
56122W        W26003  24.561  25.629   2.364
56123W        W26004  24.150  16.158  11.002
56124W        W26005  33.092  33.023  11.464
56125W        W26006  32.016   1.827   2.392
56126W        W26007   7.236  19.669   4.765
56127W        W26008  29.450   4.798   2.818
56128W        W26009   8.297  11.644  12.980
56129W        W26010   3.273  41.357  14.923
56130W        W26011   5.336  14.609  12.511
56131W        W26012  12.295  30.986   0.935
56132W        W26013  10.747  32.992   1.909
56133W        W26014  41.848  37.020  14.029
56134W        W26015  30.935  28.168   0.735
56135W        W26016   0.308  17.568  14.825
56136W        W26017  40.407  26.544  14.333
56137W        W26018  17.745   1.893  12.389
56138W        W26019   2.922  33.437   0.396
56139W        W26020  24.027  10.325   3.787
56140W        W26021  24.710  37.568   3.690
56141W        W26022   3.773  31.586  13.416
56142W        W26023  12.810  43.958   2.845
56143W        W26024  10.379  33.126  10.471
56144W        W26025  19.739  33.622   3.145
56145W        W26026   1.370  34.455   1.810
56146W        W26027  42.898  37.871  12.379
56147W        W26028   2.251  43.374   2.398
56148W        W26029   0.380   6.814   4.720
56149W        W26030  14.110  41.827  11.109
56150W        W26031  39.484  44.319  11.428
56151W        W26032  28.580  30.100  12.378
56152W        W26033  16.746   7.328   3.807
56153W        W26034  15.292  30.467  11.859
56154W        W26035  21.697   0.821  10.582
56155W        W26036  25.127  34.901  14.877
56156W        W26037  13.308  40.951   3.270
56157W        W26038  43.331   0.421  11.015
56158W        W26039  34.054   6.257   3.721
56159W        W26040   2.416  17.714  10.990
56160W        W26041  44.394  21.573   0.339
56161W        W26042   9.176   6.780  13.312
56162W        W26043  14.824  11.779   0.263
56163W        W26044  24.636  33.070   2.228
56164W        W26045   0.449   8.815   0.380
56165W        W26046  29.486  36.386  14.336
56166W        W26047  19.754   2.836  11.046
56167W        W26048  25.069  36.981   4.680
56168W        W26049  15.773  43.462   2.248
56169W        W26050   5.424  13.336   0.728
56170W        W26051  11.647  39.845   4.301
56171W        W26052  28.152  10.644   3.783
56172W        W26053  37.553   1.847  10.006
56173W        W26054   1.260  37.395   3.772
56174W        W26055  38.903  21.150  10.921
56175W        W26056   8.162  25.592   4.127
56176W        W26057  30.068   8.730   0.812
56177W        W26058  40.015  26.991   2.264
56178W        W26059  11.211  26.117  11.020
56179W        W26060   3.874  13.220   1.789
56180W        W26061   6.770  29.480   2.362
56181W        W26062  37.061  27.688   0.385
56182W        W26063   6.393   1.854  10.449
56183W        W26064  38.828  10.812  14.384
56184W        W26065  30.919  41.818   4.164
56185W        W26066  42.292  30.007   1.410
56186W        W26067  30.426  10.786  13.841
56187W        W26068  28.499  14.669   4.342
56188W        W26069  44.908  40.437  13.529
56189W        W26070  39.989  34.448  10.445
56190W        W26071   9.359  11.338  11.513
56191W        W26072  34.454  23.012   0.261
56192W        W26073  26.494  39.053   1.764
56193W        W26074   4.218  38.417  13.440
56194W        W26075   0.864   4.785   4.135
56195W        W26076  31.026  34.606  12.476
56196W        W26077  25.485  44.495  11.031
56197W        W26078  17.156  41.912   0.856
56198W        W26079  29.018  16.675  11.905
56199W        W26080  23.592  24.586  12.533
56200W        W26081  26.467  35.454   1.896
56201W        W26082   9.318  20.565  13.545
56202W        W26083  30.070  38.404   0.959
56203W        W26084  43.969  36.071   4.297
56204W        W26085  31.108  36.915  13.544
56205W        W26086   9.739  40.474  13.866
56206W        W26087  31.004   5.276  11.995
56207W        W26088  44.415   2.353   3.695
56208W        W26089  18.199   4.354  12.480
56209W        W26090  32.470   4.393  12.980
56210W        W26091  20.255  33.006   1.418
56211W        W26092  26.024  31.571   2.202
56212W        W26093  38.412  23.146  14.915
56213W        W26094  25.181  32.115   0.881
56214W        W26095  33.422  21.164   2.866
56215W        W26096  24.607  27.533  14.817
56216W        W26097  40.964   3.860  11.127
56217W        W26098  28.629  29.000   3.662
56218W        W26099  16.789  28.580  13.826
56219W        W26100   6.355  29.528  12.568
56220W        W26101  20.533  18.548  12.951
56221W        W26102  29.947  36.593  14.883
56222W        W26103  28.606  26.115  10.050
56223W        W26104  27.004  41.380  14.516
56224W        W26105  18.161  17.189   3.697
56225W        W26106  26.179  30.979   2.194
56226W        W26107  24.649  28.554   1.408
56227W        W26108   3.299  18.221   0.365
56228W        W26109  39.946   3.954   1.325
56229W        W26110   3.423  11.638   3.809
56230W        W26111  17.114  39.999  10.905
56231W        W26112   5.416  19.549   3.369
56232W        W26113  37.054  12.120  14.916
56233W        W26114  11.363  21.529   1.751
56234W        W26115  19.162  21.583  14.358
56235W        W26116  33.969  11.678  13.350
56236W        W26117   1.432  38.466   0.775
56237W        W26118  11.866   6.359   1.709
56238W        W26119  42.409  35.557   2.358
56239W        W26120  28.027  25.488  14.999
56240W        W26121  29.446   0.401  10.061
56241W        W26122   4.287  42.023   3.667
56242W        W26123  22.019  29.511   0.937
56243W        W26124   4.930  22.711   0.892
56244W        W26125  41.337  10.144  13.489
56245W        W26126   2.948  12.264   4.140
56246W        W26127   1.952  24.482  13.927
56247W        W26128  11.152   9.292   2.665
56248W        W26129   8.802  18.232   3.664
56249W        W26130  39.525  15.088  13.370
56250W        W26131  20.143   5.303  11.073
56251W        W26132  16.581  21.244  14.814
56252W        W26133  16.595  27.094   0.852
56253W        W26134  32.019  38.384   2.819
56254W        W26135  15.650   7.345  11.384
56255W        W26136   4.930  21.721  12.521
56256W        W26137   9.881  21.227  13.925
56257W        W26138  44.878  33.018  11.596
56258W        W26139  32.539  44.937  11.056
56259W        W26140  44.847  37.473   1.231
56260W        W26141  14.169  11.647  14.816
56261W        W26142  24.094  23.190   4.824
56262W        W26143  23.021  10.362   2.758
56263W        W26144   6.753  39.981  13.876
56264W        W26145   9.817  20.707   2.743
56265W        W26146  34.472  38.964  10.645
56266W        W26147  32.532  39.387  13.928
56267W        W26148  40.849  35.458  11.908
56268W        W26149  17.686   9.846   4.338
56269W        W26150  24.018  24.625  10.502
56270W        W26151   6.853  44.826  11.606
56271W        W26152  26.636   0.411   3.230
56272W        W26153  15.257  42.344  10.411
56273W        W26154  19.188  29.095  12.353
56274W        W26155  10.186  27.453   3.653
56275W        W26156  24.151  12.853  11.502
56276W        W26157  43.467   7.794  11.577
56277W        W26158  29.982  26.165  14.846
56278W        W26159   3.915   0.265  14.929
56279W        W26160  18.171  34.505   1.336
56280W        W26161  44.303  16.711  13.889
56281W        W26162  14.269  13.740  14.806
56282W        W26163  13.809   8.344  14.031
56283W        W26164  29.955   0.876   4.336
56284W        W26165   6.340  40.023  14.954
56285W        W26166  14.689  29.457  11.054
56286W        W26167  14.782  11.300  14.024
56287W        W26168  29.112  41.981  10.622
56288W        W26169  41.816  12.828  10.898
56289W        W26170  28.617  42.375  12.840
56290W        W26171  33.066   9.813   2.805
56291W        W26172  29.124  40.425  13.905
56292W        W26173   9.240   5.334   1.380
56293W        W26174  25.070   9.663  11.062
56294W        W26175  33.389  33.509   1.390
56295W        W26176  22.017  36.905   4.190
56296W        W26177  25.193  30.147   2.385
56297W        W26178  15.251  28.090   1.410
56298W        W26179  24.989  33.420   1.768
56299W        W26180  30.583  44.808   0.331
56300W        W26181  30.944  16.717   1.801
56301W        W26182  14.784  21.018  11.463
56302W        W26183  16.304  17.232  11.955
56303W        W26184  22.223  40.917   4.272
56304W        W26185  20.533  18.547  11.454
56305W        W26186  43.942   0.851  13.445
56306W        W26187  28.112  32.922  10.607
56307W        W26188  19.535  20.250  12.909
56308W        W26189  17.202  29.593  13.332
56309W        W26190  42.467  25.146   3.777
56310W        W26191  34.027  35.893  14.944
56311W        W26192   2.949   0.860   0.247
56312W        W26193  35.430  40.526   0.451
56313W        W26194   4.896  27.027   3.325
56314W        W26195  19.559  20.631   0.730
56315W        W26196  40.837  11.239  11.394
56316W        W26197  17.691  42.021   1.338
56317W        W26198  30.459  29.648   0.862
56318W        W26199  22.616  40.405  13.869
56319W        W26200  25.059   4.434   0.370
56320W        W26201  34.376  42.299  11.927
56321W        W26202  35.563  15.323  11.469
56322W        W26203  41.973  38.345   1.428
56323W        W26204  16.112   3.905   1.799
56324W        W26205  39.836  29.975  12.836
56325W        W26206   3.337  31.550   0.848
56326W        W26207   2.332  25.167   4.606
56327W        W26208  14.736  21.045  11.917
56328W        W26209  17.090   2.831   2.831
56329W        W26210  29.964  33.515  13.033
56330W        W26211  29.116  24.684   3.647
56331W        W26212  17.630  33.451   4.283
56332W        W26213  20.599  41.294   2.220
56333W        W26214  21.173   1.805   3.186
56334W        W26215  21.079  15.648   0.939
56335W        W26216  24.976   6.261   3.765
56336W        W26217  35.541  32.049   3.797
56337W        W26218  20.063  25.486  12.079
56338W        W26219  24.027   2.434   4.225
56339W        W26220   8.786   0.819  14.297
56340W        W26221  15.649  24.708  12.564
56341W        W26222  33.385  12.825  12.564
56342W        W26223  30.435   7.398   3.779
56343W        W26224  38.477  40.955   1.754
56344W        W26225   5.288  38.053  11.992
56345W        W26226  33.429  43.786  12.495
56346W        W26227  30.508  14.340  13.025
56347W        W26228  18.064  24.549   2.182
56348W        W26229  16.154   6.285   0.372
56349W        W26230  14.335  42.431   1.371
56350W        W26231  36.377  11.365  13.532
56351W        W26232  10.161  16.636   4.750
56352W        W26233  21.529  42.472   0.373
56353W        W26234   5.225   1.750   3.362
56354W        W26235  26.550   8.700  11.996
56355W        W26236  12.351  29.139   2.406
56356W        W26237   4.224  38.450  12.376
56357W        W26238  39.465  20.257   2.363
56358W        W26239  19.197  25.534   4.326
56359W        W26240  26.610   0.940   2.219
56360W        W26241  35.412  38.975   1.835
56361W        W26242  25.197  44.819  13.496
56362W        W26243  19.055  33.440   0.948
56363W        W26244   7.701  26.165   4.264
56364W        W26245  17.164  10.172   4.203
56365W        W26246  13.223  22.055   2.380
56366W        W26247  43.393  33.450   3.281
56367W        W26248  32.954  31.633   0.392
56368W        W26249   3.770   9.280  13.966
56369W        W26250   2.951  20.650   1.245
56370W        W26251   8.227  16.152   2.401
56371W        W26252   7.722   6.816  14.810
56372W        W26253   7.349  26.136   2.776
56373W        W26254  36.061  14.820   2.344
56374W        W26255  38.555   5.246  10.915
56375W        W26256  40.409   0.460   2.662
56376W        W26257  30.079   9.866  11.393
56377W        W26258  40.853  44.493   3.207
56378W        W26259   1.976   4.323  13.051
56379W        W26260   9.861  41.795  13.336
56380W        W26261   1.243  21.550   2.308
56381W        W26262  35.375   2.937  14.328
56382W        W26263  39.008  36.008   1.835
56383W        W26264  39.325  10.231  12.946
56384W        W26265  44.440  29.578  13.942
56385W        W26266  33.384  41.955  11.415
56386W        W26267  19.144  20.758  10.905
56387W        W26268   8.227  17.217   3.387
56388W        W26269  30.005  26.592   3.845
56389W        W26270   2.241  24.003   3.155
56390W        W26271  18.078  22.100  14.428
56391W        W26272  19.216  14.136  13.898
56392W        W26273  13.836  25.524   3.858
56393W        W26274  29.960   1.412   2.271
56394W        W26275  11.726  15.200   1.740
56395W        W26276  18.069  19.586   3.641
56396W        W26277  22.605  35.869   0.940
56397W        W26278  14.712  30.968   3.738
56398W        W26279  41.010  42.454  14.316
56399W        W26280  24.175   0.299  14.470
56400W        W26281  11.750  23.141   4.335
56401W        W26282  19.740  28.594  10.524
56402W        W26283  29.608  37.834   2.888
56403W        W26284  37.989  11.144  14.363
56404W        W26285  26.645   8.320  11.862
56405W        W26286   5.810  13.315  14.338
56406W        W26287   0.891  34.031  13.917
56407W        W26288  17.723  32.000   3.748
56408W        W26289   8.261  39.813   3.737
56409W        W26290  25.526  37.491   1.766
56410W        W26291  10.707  19.279  10.635
56411W        W26292   9.813  30.992  14.399
56412W        W26293  35.558  26.036  14.368
56413W        W26294  13.267  10.233   0.480
56414W        W26295  41.317  19.249   4.649
56415W        W26296  41.910  37.555   0.879
56416W        W26297   7.792  14.596  10.982
56417W        W26298  35.890  15.118  10.637
56418W        W26299   8.717  39.064   5.119
56419W        W26300  38.864  16.694  14.935
56420W        W26301  39.960  27.125  11.390
56421W        W26302  31.404  19.570   0.762
56422W        W26303  27.514  23.728   5.153
56423W        W26304   7.245  10.637  12.551
56424W        W26305   2.757  25.164  13.013
56425W        W26306  43.814  27.467  14.363
56426W        W26307  12.358  22.714   0.807
56427W        W26308  38.891  26.539  14.956
56428W        W26309  16.659  31.427  11.985
56429W        W26310  30.549  23.123   0.887
56430W        W26311  12.695  33.958   3.769
56431W        W26312  25.116  15.221  13.328
56432W        W26313  33.878  21.185  12.018
56433W        W26314  18.649  19.614   0.441
56434W        W26315  42.466  35.098   4.191
56435W        W26316  10.640  31.484   0.317
56436W        W26317  16.764  25.186   2.894
56437W        W26318  22.018  27.995  12.045
56438W        W26319  19.178   6.340  10.404
56439W        W26320  39.808  26.162   4.269
56440W        W26321  31.585  36.461   1.694
56441W        W26322  29.655  15.660   0.796
56442W        W26323  21.222  14.653  12.066
56443W        W26324  43.313  16.092  14.451
56444W        W26325  38.343  18.643  14.502
56445W        W26326  32.616  25.575  11.388
56446W        W26327  18.272  35.379  10.634
56447W        W26328  10.307  20.696  11.425
56448W        W26329  14.819  23.091  11.107
56449W        W26330   6.386  39.047  11.859
56450W        W26331   9.387  37.879  11.959
56451W        W26332  12.689  18.751  13.031
56452W        W26333  27.450  33.483   3.330
56453W        W26334  17.275  13.121   1.837
56454W        W26335   2.727  19.139   0.809
56455W        W26336  33.900  23.093  12.492
56456W        W26337  10.782  21.191  12.493
56457W        W26338   6.272  12.318  14.363
56458W        W26339   5.804  25.616   4.301
56459W        W26340  29.518  44.964  11.944
56460W        W26341  19.567  27.180   3.780
56461W        W26342  34.066  32.025  13.888
56462W        W26343  36.376  17.157   2.298
56463W        W26344  29.547  31.619  10.530
56464W        W26345  37.524  42.882   2.882
56465W        W26346  29.514  31.968   1.707
56466W        W26347  36.474  22.220  12.005
56467W        W26348  43.827  29.024  13.492
56468W        W26349  37.544  37.947   0.415
56469W        W26350  22.036  25.161  10.422
56470W        W26351  20.598  21.642   3.643
56471W        W26352   1.943   3.947  10.514
56472W        W26353  22.041  15.630  12.372
56473W        W26354  27.680   8.662  10.952
56474W        W26355  16.253  43.329  13.927
56475W        W26356  32.100   7.822   3.701
56476W        W26357  21.031  22.196  14.792
56477W        W26358  11.319  30.958  14.956
56478W        W26359  25.021   1.427  10.589
56479W        W26360   3.278  19.283  12.027
56480W        W26361  33.589  21.594  12.962
56481W        W26362  32.953  24.591   1.843
56482W        W26363  14.117   6.716  12.881
56483W        W26364  11.343  18.214   0.420
56484W        W26365  41.947  27.118   0.736
56485W        W26366  39.518  29.113   4.316
56486W        W26367  19.255  28.060  10.628
56487W        W26368  18.738  28.940  12.501
56488W        W26369  30.002  16.079   4.261
56489W        W26370  42.443  11.311  13.792
56490W        W26371   3.877  13.260   4.630
56491W        W26372  32.489  30.977   1.245
56492W        W26373  39.007  33.996   3.711
56493W        W26374  43.801  20.651   4.258
56494W        W26375  20.653   5.373  13.939
56495W        W26376  40.824  44.427   4.832
56496W        W26377   3.246  39.427   0.785
56497W        W26378   9.675  32.055  14.808
56498W        W26379   6.819   6.832   1.339
56499W        W26380  38.075  24.531   2.323
56500W        W26381  39.380  15.587  11.990
56501W        W26382  35.394  21.641  11.993
56502W        W26383   9.885   0.878   1.308
56503W        W26384  11.341   0.373  12.053
56504W        W26385  36.572  29.084  14.330
56505W        W26386   1.345  32.542  11.559
56506W        W26387  36.886  20.659   3.357
56507W        W26388  41.840  11.645  14.936
56508W        W26389  18.158  25.209   2.716
56509W        W26390  33.493  11.251   2.718
56510W        W26391  10.275  24.059  12.891
56511W        W26392  29.974  26.093  11.612
56512W        W26393   4.376  27.653  12.977
56513W        W26394  33.521  41.923   3.284
56514W        W26395  39.321  39.466   1.864
56515W        W26396  33.623   5.695  12.574
56516W        W26397  24.722  19.095  13.455
56517W        W26398   0.418   8.800   3.770
56518W        W26399  42.837   1.750   2.240
56519W        W26400   6.389  23.225   4.334
56520W        W26401  21.068   5.785   4.277
56521W        W26402  17.569  11.205  14.484
56522W        W26403  30.643  21.233   2.292
56523W        W26404  26.011   7.396   1.926
56524W        W26405  38.370   8.837  13.409
56525W        W26406  28.594  11.187   0.778
56526W        W26407   6.721  41.843   2.709
56527W        W26408   6.412  20.548  14.915
56528W        W26409  18.740  28.538   2.180
56529W        W26410  28.119  26.554  11.912
56530W        W26411  10.184   7.798   0.958
56531W        W26412  36.927  13.817   2.717
56532W        W26413  40.463  26.092   2.805
56533W        W26414  23.575  31.604  12.555
56534W        W26415  22.516  20.613  14.778
56535W        W26416   0.321  13.675   3.677
56536W        W26417  11.366  36.055  12.927
56537W        W26418  24.563  43.775   1.877
56538W        W26419  35.870  23.515  11.503
56539W        W26420   5.738  18.269  13.895
56540W        W26421  20.201  39.325  13.996
56541W        W26422  35.058   2.946   1.271
56542W        W26423  37.893  39.897   9.981
56543W        W26424  21.058  13.318   0.332
56544W        W26425  30.992  36.074   1.287
56545W        W26426  28.527   5.201   3.215
56546W        W26427  20.741  24.574  11.413
56547W        W26428  26.550   0.902  14.282
56548W        W26429  22.046   0.759   4.789
56549W        W26430  27.038  34.013   4.834
56550W        W26431  11.350  19.628  12.886
56551W        W26432  38.006  10.763  10.574
56552W        W26433  35.450   3.269   3.841
56553W        W26434  34.409  12.725  14.473
56554W        W26435  20.546  15.274  13.811
56555W        W26436  25.572  29.146   5.108
56556W        W26437  28.059   1.257   0.746
56557W        W26438  44.899   3.439  14.897
56558W        W26439   4.904   8.219  12.005
56559W        W26440  28.498  24.701  11.999
56560W        W26441  27.009  35.385  10.532
56561W        W26442  20.132  41.857  11.551
56562W        W26443  33.011  25.109  13.844
56563W        W26444   8.167  32.114  14.436
56564W        W26445  33.932   9.713   4.275
56565W        W26446  27.029   6.917  12.884
56566W        W26447  21.639  23.021   2.312
56567W        W26448  15.742  42.324   1.303
56568W        W26449  43.476  23.034  11.465
56569W        W26450  18.611   7.344  13.478
56570W        W26451  16.797   7.391   1.785
56571W        W26452   7.351  43.305  13.033
56572W        W26453  41.903  14.614  13.907
56573W        W26454  21.734  15.317   3.811
56574W        W26455  16.140  12.648   4.237
56575W        W26456  40.544  29.130  14.346
56576W        W26457   5.286  33.104   2.792
56577W        W26458  20.235  10.744   1.756
56578W        W26459  19.606   5.272  14.009
56579W        W26460   8.844  24.220  12.485
56580W        W26461  20.093  39.515  11.990
56581W        W26462   2.264  43.284   4.346
56582W        W26463  15.644  26.554  10.102
56583W        W26464  30.154   8.703   1.277
56584W        W26465  15.650   8.312  13.960
56585W        W26466  24.060  38.405   0.343
56586W        W26467  10.243   6.360  13.997
56587W        W26468   6.342   1.407   2.748
56588W        W26469  30.024  40.037   4.140
56589W        W26470  14.595  36.961   9.556
56590W        W26471   2.858   4.817  11.065
56591W        W26472  33.129   4.730   0.922
56592W        W26473  43.442   5.915   3.320
56593W        W26474  37.511   4.251  10.405
56594W        W26475  21.559   1.888   4.223
56595W        W26476  31.967   7.331   4.339
56596W        W26477   5.437  19.048  11.037
56597W        W26478  20.116  16.171  14.778
56598W        W26479  26.647   0.482  10.984
56599W        W26480   4.260  43.944   1.754
56600W        W26481  31.971  15.746  11.564
56601W        W26482  36.992  19.051  12.862
56602W        W26483  17.279   7.713  12.447
56603W        W26484  36.390  43.388  11.402
56604W        W26485   8.392   8.790   2.367
56605W        W26486   7.749  40.353  13.911
56606W        W26487   2.444  19.138   0.462
56607W        W26488  35.062  30.937  11.409
56608W        W26489  41.972  26.082   4.630
56609W        W26490   4.301  15.102   1.323
56610W        W26491  44.975  12.256   4.675
56611W        W26492  40.018  32.897  11.550
56612W        W26493  28.474   1.268   4.657
56613W        W26494  28.513  23.148   1.915
56614W        W26495  44.274  10.365  11.470
56615W        W26496   0.352  33.877   2.797
56616W        W26497  20.557  18.682   2.254
56617W        W26498  21.550  39.476   4.669
56618W        W26499  31.947  24.614   4.181
56619W        W26500   0.429   4.938   3.381
56620W        W26501   3.343  25.583  11.892
56621W        W26502  10.187   7.345   1.798
56622W        W26503  29.120  28.131   4.267
56623W        W26504   2.348  10.837   1.771
56624W        W26505   1.903   6.325  12.411
56625W        W26506   5.319   9.256  11.907
56626W        W26507   6.340  39.993   3.793
56627W        W26508  35.001  19.696   2.722
56628W        W26509  28.971  16.296  12.474
56629W        W26510  29.069  20.156   1.766
56630W        W26511  42.387  30.654   3.300
56631W        W26512  20.082  22.136  12.559
56632W        W26513  37.993  43.311   0.903
56633W        W26514   5.388  19.259   1.919
56634W        W26515  32.632  41.920   3.378
56635W        W26516  11.841  37.546  10.078
56636W        W26517  35.370   6.303  13.000
56637W        W26518  21.556  33.011  11.046
56638W        W26519   9.171  38.527  13.439
56639W        W26520   6.752  35.500  10.543
56640W        W26521  19.582  16.192  11.028
56641W        W26522  43.416   2.380  14.785
56642W        W26523  14.711  37.949   0.914
56643W        W26524   7.237   5.395   2.799
56644W        W26525  21.213  16.709   2.381
56645W        W26526  22.063   8.876  14.927
56646W        W26527  31.994  33.621  13.897
56647W        W26528  33.625  15.590   4.127
56648W        W26529  33.555   6.212   1.369
56649W        W26530  44.391   9.322   4.668
56650W        W26531  34.419  30.008   1.306
56651W        W26532   5.844   4.856  10.525
56652W        W26533  12.251   6.787  12.939
56653W        W26534  30.642  21.114  14.334
56654W        W26535  16.734  39.982   1.371
56655W        W26536  33.415  16.190   0.317
56656W        W26537   5.917  32.569   0.324
56657W        W26538  21.731  17.074  14.914
56658W        W26539   1.363  35.431  10.974
56659W        W26540  41.326   8.314  12.926
56660W        W26541  22.040  26.185  10.598
56661W        W26542  34.389  19.621   2.733
56662W        W26543  27.970  29.024  12.350
56663W        W26544  30.020   9.313   5.771
56664W        W26545  41.960  43.921   1.227
56665W        W26546  24.979  39.417  11.587
56666W        W26547  43.344  40.016   4.815
56667W        W26548  43.794  25.963  13.439
56668W        W26549  15.654  19.695   1.313
56669W        W26550  36.033  33.992   3.382
56670W        W26551  18.221  30.498   1.874
56671W        W26552  21.652   1.945  11.420
56672W        W26553  12.776   3.351   4.287
56673W        W26554  37.392  33.419  11.096
56674W        W26555  35.860  12.773  11.094
56675W        W26556  23.726  25.652   0.250
56676W        W26557  24.498  25.968  14.995
56677W        W26558   0.813  28.118   1.287
56678W        W26559  15.749  37.370  10.998
56679W        W26560   5.845   7.244   0.739
56680W        W26561  15.798  41.522  12.408
56681W        W26562  33.091   3.384   0.362
56682W        W26563  43.994  39.826  11.431
56683W        W26564  22.512   7.402  10.964
56684W        W26565  28.185  43.375  14.355
56685W        W26566   9.854  36.383  10.412
56686W        W26567  23.007  32.055  12.367
56687W        W26568   2.385  24.183   5.178
56688W        W26569  25.978   7.260  10.920
56689W        W26570  23.139  11.827  14.401
56690W        W26571  28.036  29.549  13.020
56691W        W26572   5.692  38.972  12.385
56692W        W26573   7.241   9.291   1.335
56693W        W26574  25.672  33.481   1.824
56694W        W26575   4.888  26.576   0.803
56695W        W26576  42.489  27.155   4.738
56696W        W26577   1.369  44.397   1.802
56697W        W26578  40.954  15.093   2.393
56698W        W26579  39.853  43.782   3.772
56699W        W26580  18.192  26.114   4.312
56700W        W26581   4.337  30.575  11.972
56701W        W26582  33.474   2.779   4.821
56702W        W26583   0.361  11.707  14.962
56703W        W26584  36.579  29.956   3.732
56704W        W26585  33.438  31.914   3.870
56705W        W26586  18.115  38.034   3.150
56706W        W26587  27.552  16.738  12.484
56707W        W26588  17.573  14.760   4.787
56708W        W26589   8.808  44.474   1.439
56709W        W26590  26.686  40.334   3.202
56710W        W26591  17.290  19.709  10.489
56711W        W26592  22.698  10.373   1.323
56712W        W26593   3.363  42.778   1.931
56713W        W26594  30.573   0.988   5.263
56714W        W26595   3.228   9.857   1.345
56715W        W26596  40.983  41.354   3.163
56716W        W26597   1.968  31.907   4.689
56717W        W26598  17.222  24.609   0.791
56718W        W26599  19.684  38.881   4.831
56719W        W26600   5.319  21.525  11.900
56720W        W26601   0.797   0.391   2.899
56721W        W26602   0.340   0.280  10.507
56722W        W26603  10.190  25.052   2.208
56723W        W26604  16.271  28.672  13.992
56724W        W26605   5.410   6.362   4.350
56725W        W26606  43.013  39.409   4.277
56726W        W26607  17.230   2.825   0.855
56727W        W26608  12.812  22.687   2.180
56728W        W26609  24.655  31.401  13.530
56729W        W26610  39.978   1.790   4.800
56730W        W26611  43.970   7.254   4.694
56731W        W26612  19.622  28.525   1.413
56732W        W26613  16.165  12.231   3.222
56733W        W26614  11.234  23.172  12.030
56734W        W26615  26.952  13.614  14.370
56735W        W26616   8.195  13.233   1.764
56736W        W26617   7.189  32.502   0.910
56737W        W26618  10.771  11.867   1.712
56738W        W26619  34.396  23.679   1.721
56739W        W26620  44.285  12.163  13.326
56740W        W26621  24.616  34.029   4.124
56741W        W26622  12.667  19.038  11.973
56742W        W26623  25.195  41.920  10.924
56743W        W26624  16.253   8.377   3.691
56744W        W26625  18.587  21.056   0.836
56745W        W26626  40.457  44.341  14.439
56746W        W26627   6.914  24.579  12.026
56747W        W26628   2.739  14.832   4.810
56748W        W26629  34.412  16.769  11.375
56749W        W26630  20.260  18.724   0.807
56750W        W26631  35.916  17.739  13.532
56751W        W26632  24.039   6.210  12.085
56752W        W26633  28.442  26.002   1.242
56753W        W26634  11.783  37.370  11.093
56754W        W26635  44.366   1.367  12.571
56755W        W26636   1.418  33.950  12.463
56756W        W26637   5.288  18.566   1.736
56757W        W26638  32.129   1.239  13.348
56758W        W26639  23.224   3.733  13.038
56759W        W26640  26.109  29.585   2.789
56760W        W26641   3.722  16.079   3.204
56761W        W26642   4.822   9.697  11.539
56762W        W26643  41.511  32.475   3.703
56763W        W26644  32.410  30.450   4.310
56764W        W26645  24.170  37.373  13.841
56765W        W26646  41.942  26.957  14.017
56766W        W26647  38.470  17.704  10.471
56767W        W26648  33.583   0.295  11.944
56768W        W26649  38.925   2.966  14.442
56769W        W26650   7.865  43.374  12.870
56770W        W26651   7.353  18.069  11.448
56771W        W26652  35.045   4.760  14.506
56772W        W26653  32.990  21.194   4.294
56773W        W26654  29.971  42.433  14.275
56774W        W26655  15.231  16.191   0.280
56775W        W26656  33.979   1.373  14.491
56776W        W26657  43.956  32.632  14.822
56777W        W26658  19.685   5.795  11.990
56778W        W26659  36.548  14.209  11.392
56779W        W26660  38.396  12.182  11.055
56780W        W26661  13.286  23.025   3.319
56781W        W26662  29.449   0.391   3.751
56782W        W26663  37.359  24.002   4.273
56783W        W26664   6.405  31.049  11.006
56784W        W26665  12.211  16.109  11.999
56785W        W26666  17.175  44.376  14.778
56786W        W26667  19.536  37.471   2.260
56787W        W26668  27.994  39.876  10.484
56788W        W26669  32.019  13.627   1.340
56789W        W26670  21.221  18.176  11.878
56790W        W26671  25.181  14.280   4.827
56791W        W26672  26.095  18.700   4.327
56792W        W26673  19.111  32.543   2.218
56793W        W26674  35.095  41.297   4.262
56794W        W26675  32.607  11.286   3.759
56795W        W26676  37.485  23.508   9.954
56796W        W26677  33.113  13.749   1.414
56797W        W26678  24.212  28.036  14.338
56798W        W26679  12.144   7.698   2.326
56799W        W26680  18.621  12.243   1.431
56800W        W26681  30.003  11.719  11.112
56801W        W26682   3.858  22.579  13.987
56802W        W26683  20.701  38.984  14.507
56803W        W26684   0.455  31.556  13.877
56804W        W26685  14.768  26.529  11.607
56805W        W26686  17.625  17.101   2.724
56806W        W26687   4.838   9.834  12.888
56807W        W26688  13.834  11.341  11.523
56808W        W26689  31.932  40.354  12.389
56809W        W26690  12.728  18.656   5.216
56810W        W26691  38.941   0.429   4.655
56811W        W26692  14.670  36.024   5.203
56812W        W26693  12.764  28.986  14.989
56813W        W26694  44.991  23.686   3.796
56814W        W26695  39.394  14.191  12.077
56815W        W26696  25.482  29.497  11.533
56816W        W26697  44.869  28.557  11.584
56817W        W26698  23.152  25.545  13.332
56818W        W26699  35.528   9.174   1.706
56819W        W26700  41.448  29.086  12.393
56820W        W26701   7.759  22.739  10.620
56821W        W26702   1.731  24.112  13.956
56822W        W26703  11.155  17.307   2.664
56823W        W26704  37.028  18.591  10.915
56824W        W26705  27.990  25.112   4.738
56825W        W26706  15.661  36.462   1.745
56826W        W26707  38.498  35.589   3.648
56827W        W26708  23.185  16.650  10.541
56828W        W26709  32.053  23.180   4.231
56829W        W26710   8.753  12.169  11.384
56830W        W26711   6.746  42.955  12.980
56831W        W26712  19.763   5.409   0.283
56832W        W26713  25.209   2.843  12.382
56833W        W26714  40.537   0.823  14.377
56834W        W26715  13.327   1.440  11.441
56835W        W26716  44.781  36.862  13.437
56836W        W26717  44.467   7.866   4.615
56837W        W26718   9.351   7.282  10.114
56838W        W26719  33.623   6.212   0.264
56839W        W26720   8.372  43.333   2.206
56840W        W26721  27.178   2.902   1.368
56841W        W26722  34.539  23.224  14.469
56842W        W26723  44.353   6.780   1.867
56843W        W26724  41.322  24.608  14.822
56844W        W26725  35.570  33.947   1.841
56845W        W26726  28.652  29.932  11.877
56846W        W26727  28.469  15.707  12.433
56847W        W26728  27.078  18.069   1.797
56848W        W26729  24.091  39.919  12.834
56849W        W26730   2.839  20.257   1.856
56850W        W26731  12.340   8.186   1.396
56851W        W26732  22.543  19.136  14.758
56852W        W26733  34.865  44.754   2.824
56853W        W26734  39.445  34.515   0.769
56854W        W26735   9.765  40.446  13.333
56855W        W26736  24.199  40.448   2.397
56856W        W26737  12.176  12.695  13.529
56857W        W26738  44.891  35.478   4.753
56858W        W26739  10.663   7.211   4.751
56859W        W26740  20.123  11.148  10.100
56860W        W26741   1.849  39.520   0.877
56861W        W26742  23.021  19.142   2.337
56862W        W26743  15.206  37.397   4.137
56863W        W26744  44.435  18.685   0.361
56864W        W26745  19.716  24.091  12.551
56865W        W26746   4.409   4.371  10.634
56866W        W26747   8.248  44.992   2.678
56867W        W26748  44.830  20.665   2.760
56868W        W26749   1.826   1.835  14.289
56869W        W26750   0.483  15.173  12.947
56870W        W26751  19.757  23.494   0.397
56871W        W26752  27.563  23.580  14.924
56872W        W26753  26.468  13.318  13.968
56873W        W26754  38.852  20.546   4.674
56874W        W26755  23.515  16.298   2.378
56875W        W26756  15.211  25.641  12.570
56876W        W26757   0.859  24.088   3.162
56877W        W26758  37.547  17.711   3.191
56878W        W26759  42.822   0.301  14.430
56879W        W26760   1.826  11.692   4.794
56880W        W26761  32.950  29.493  12.360
56881W        W26762  44.990   6.336  13.057
56882W        W26763  14.751  16.256  10.543
56883W        W26764   3.746  42.910   4.214
56884W        W26765  22.108  30.020  12.857
56885W        W26766  32.479  37.340  13.497
56886W        W26767  40.838   5.754  13.499
56887W        W26768  38.342  11.201  13.792
56888W        W26769  11.860  22.224  12.486
56889W        W26770  27.489   7.885   4.294
56890W        W26771  23.110  40.483  10.502
56891W        W26772  30.518  19.578   4.630
56892W        W26773  11.690   0.367   4.214
56893W        W26774  44.788  26.141  13.962
56894W        W26775   1.953  35.525  14.370
56895W        W26776  39.898  42.355   4.657
56896W        W26777  10.195  42.996   0.810
56897W        W26778  24.156   1.942  10.638
56898W        W26779  37.497   9.844  10.034
56899W        W26780  31.904  43.483  13.372
56900W        W26781  25.017  14.151  12.486
56901W        W26782  40.968  12.661  10.524
56902W        W26783  44.900  34.468   4.188
56903W        W26784   5.339  43.835   1.371
56904W        W26785  24.155  39.406  12.340
56905W        W26786  14.122   5.848  12.881
56906W        W26787  25.651  35.459   3.672
56907W        W26788   4.442  42.836   5.309
56908W        W26789   0.833  13.600   0.954
56909W        W26790  25.570  33.091  13.967
56910W        W26791  27.001  19.269   2.385
56911W        W26792  37.868  19.277   0.456
56912W        W26793  35.502  29.607   2.402
56913W        W26794  17.674  34.887   3.267
56914W        W26795  15.280  14.700   3.737
56915W        W26796  31.601  23.642   2.805
56916W        W26797   8.235  25.183  13.427
56917W        W26798  30.559  28.103  13.040
56918W        W26799  12.846   3.911   4.314
56919W        W26800  16.602  21.122   0.741
56920W        W26801  15.723  20.760   0.836
56921W        W26802  10.270  27.002   0.847
56922W        W26803   9.756   0.760   2.807
56923W        W26804  33.943  20.524   1.798
56924W        W26805  30.436  32.549   1.912
56925W        W26806  24.977  36.521   4.284
56926W        W26807   4.791  36.443   0.735
56927W        W26808  15.174  21.243  12.458
56928W        W26809  22.128   5.830   4.177
56929W        W26810  24.211   8.173   3.330
56930W        W26811  26.660  40.545  12.371
56931W        W26812  28.451   8.768   1.279
56932W        W26813  19.533  11.298  14.873
56933W        W26814  17.235  31.522  14.904
56934W        W26815  33.593   6.912   2.733
56935W        W26816  29.922   5.228   1.287
56936W        W26817  30.470  38.031   4.685
56937W        W26818  20.133  27.053   2.721
56938W        W26819  17.238  21.021  11.108
56939W        W26820  34.550   0.298   0.315
56940W        W26821  43.832   7.775  12.449
56941W        W26822   3.848  27.001  11.861
56942W        W26823  33.986  24.568  12.019
56943W        W26824  37.577   0.887  12.455
56944W        W26825  15.668  18.193  13.447
56945W        W26826  27.604   3.761   4.293
56946W        W26827  42.993  11.698  11.064
56947W        W26828  38.355  34.453   2.254
56948W        W26829  25.712   8.813   0.954
56949W        W26830  28.470  32.096  11.974
56950W        W26831  11.190  13.649  13.853
56951W        W26832  23.567  19.268  14.979
56952W        W26833  12.204  18.093   3.813
56953W        W26834   2.325   1.947   0.447
56954W        W26835  41.371   5.375   2.836
56955W        W26836  42.917  33.431   2.708
56956W        W26837  14.301   7.277  12.021
56957W        W26838  44.350  40.929   4.747
56958W        W26839  37.980  42.790  10.437
56959W        W26840  18.609  14.778   4.653
56960W        W26841  28.467   1.434   0.257
56961W        W26842  40.911  24.091   2.337
56962W        W26843  15.611  11.336   4.212
56963W        W26844  20.178  30.616   5.570
56964W        W26845  40.899  35.564   2.404
56965W        W26846  31.601  25.203   3.315
56966W        W26847  38.360  29.608   2.740
56967W        W26848   2.337  24.660   0.739
56968W        W26849  12.346  30.643   0.786
56969W        W26850  32.894   6.265   1.914
56970W        W26851   4.858  33.444   4.704
56971W        W26852   2.783  34.882  12.855
56972W        W26853  20.536  16.112   3.716
56973W        W26854  31.647  26.573   1.781
56974W        W26855  31.501  11.829  14.317
56975W        W26856  31.899  36.095   9.997
56976W        W26857  10.234  18.645  12.940
56977W        W26858  36.375  40.806  12.932
56978W        W26859  36.039  15.317   1.703
56979W        W26860  21.084  12.347  12.039
56980W        W26861  33.503  41.003  10.980
56981W        W26862   1.952  16.617   2.734
56982W        W26863  11.133   7.766  14.991
56983W        W26864  16.572  12.350   2.266
56984W        W26865  25.644  21.022   0.281
56985W        W26866   7.875   2.961   1.451
56986W        W26867  44.283  13.716  12.936
56987W        W26868   7.834   4.820   0.760
56988W        W26869   3.831  39.995   4.340
56989W        W26870  29.950  20.620  13.331
56990W        W26871  26.634   7.393  11.589
56991W        W26872  30.626  10.711   3.380
56992W        W26873  35.529  34.925  14.474
56993W        W26874  22.072  16.786   4.185
56994W        W26875  20.163  22.220   1.837
56995W        W26876  35.895  39.886   0.252
56996W        W26877  23.190   6.687   1.870
56997W        W26878  24.554  21.195   1.891
56998W        W26879  17.136   0.921   1.766
56999W        W26880  37.436  19.183  12.536
57000W        W26881  38.362  34.037  11.399
57001W        W26882  20.262  17.798   4.293
57002W        W26883   7.874  32.429   3.301
57003W        W26884  28.116  38.900  13.517
57004W        W26885   9.694   6.796  13.796
57005W        W26886   7.186  30.062   4.137
57006W        W26887  35.509  12.666   1.329
57007W        W26888  40.925  24.155   3.261
57008W        W26889  17.699  40.936  10.430
57009W        W26890  20.726  23.238  12.873
57010W        W26891   3.386  34.044  13.476
57011W        W26892  42.957  12.333   4.629
57012W        W26893  27.174  21.532  13.040
57013W        W26894   6.915   4.745   1.756
57014W        W26895   8.699  16.589  12.542
57015W        W26896  29.002   4.317   2.208
57016W        W26897  16.142  23.000   1.897
57017W        W26898  42.493  31.463   4.633
57018W        W26899  10.662  39.996  13.307
57019W        W26900   3.270   6.786  13.886
57020W        W26901  32.965  36.902  11.492
57021W        W26902   8.354   3.865   2.236
57022W        W26903   7.891  28.496   2.739
57023W        W26904   1.318  13.234   2.713
57024W        W26905  32.390  41.525   3.368
57025W        W26906  10.872  32.635  10.901
57026W        W26907  42.869  25.479  12.966
57027W        W26908   0.822  31.434   0.923
57028W        W26909  17.083  43.491   3.654
57029W        W26910  14.157  33.588  14.475
57030W        W26911  13.306   8.320  11.431
57031W        W26912  32.420  32.517  14.838
57032W        W26913  31.941   2.957   4.617
57033W        W26914   7.889  25.518  11.398
57034W        W26915  14.810   4.921   4.200
57035W        W26916  14.239   6.225  13.546
57036W        W26917   4.249  43.815  14.282
57037W        W26918  14.601  16.652   2.192
57038W        W26919  31.896  26.159  13.996
57039W        W26920  12.831  32.109   2.851
57040W        W26921  13.216  40.538  11.419
57041W        W26922  36.981  13.248   1.907
57042W        W26923  33.975   2.345  10.577
57043W        W26924  27.515  28.945  10.529
57044W        W26925  22.624   4.718   1.793
57045W        W26926  35.075   6.385   1.257
57046W        W26927  10.193   2.332  14.990
57047W        W26928   6.855   7.730   2.219
57048W        W26929  20.094  15.268   3.384
57049W        W26930  16.607  13.341  10.438
57050W        W26931  23.162  37.074  11.549
57051W        W26932  38.568   2.795   2.667
57052W        W26933   9.764  35.536  13.881
57053W        W26934  16.614  41.439   3.355
57054W        W26935   3.736  15.115  12.051
57055W        W26936  27.653   4.892   2.266
57056W        W26937  12.359  27.519  14.503
57057W        W26938  38.385  42.784   4.781
57058W        W26939  30.021   7.898   4.332
57059W        W26940  27.541  21.685   3.330
57060W        W26941  27.163   8.736  11.434
57061W        W26942  30.922   6.751  10.054
57062W        W26943   7.803  44.378  14.379
57063W        W26944  30.610   3.336  13.019
57064W        W26945  24.133  24.595  13.402
57065W        W26946  31.502   6.699   3.347
57066W        W26947   5.251  20.710  11.969
57067W        W26948  26.126  17.099   1.283
57068W        W26949  39.032   0.768  13.367
57069W        W26950  16.630   3.764   2.385
57070W        W26951  23.593  42.974   4.232
57071W        W26952  35.592  26.573  13.416
57072W        W26953  17.692   1.460   2.824
57073W        W26954  41.358  32.099  10.583
57074W        W26955   5.389  23.610   3.816
57075W        W26956   8.268  33.410   4.737
57076W        W26957  15.131  21.661  14.513
57077W        W26958  40.050  25.481  12.364
57078W        W26959   5.200  37.028   4.685
57079W        W26960  35.453   9.838   1.824
57080W        W26961  44.315   7.224  11.893
57081W        W26962  19.555   3.904   2.330
57082W        W26963   6.277  31.966  11.972
57083W        W26964   5.269   4.914   1.712
57084W        W26965  25.179  23.687   0.788
57085W        W26966  39.931  32.547  14.354
57086W        W26967  12.672  37.948   0.272
57087W        W26968   4.799   7.805  10.573
57088W        W26969  20.063   7.699   1.695
57089W        W26970  43.796  30.595  10.977
57090W        W26971   0.787   8.779  14.300
57091W        W26972  26.669  32.488  13.062
57092W        W26973  20.212  13.711   4.225
57093W        W26974  12.315  35.406   2.767
57094W        W26975   1.292  10.764  13.948
57095W        W26976  18.200  11.808   0.321
57096W        W26977  34.525  30.628  11.890
57097W        W26978   9.882   5.215  13.949
57098W        W26979   6.840   3.913   1.326
57099W        W26980  14.258   4.305   1.289
57100W        W26981  16.206   2.933  12.977
57101W        W26982  19.613  17.681   1.922
57102W        W26983  29.966  15.086  13.327
57103W        W26984  10.712  44.399  14.003
57104W        W26985  16.705  28.983  14.834
57105W        W26986  31.563   8.738   0.309
57106W        W26987   4.387   5.336   4.302
57107W        W26988  10.380  37.058  11.886
57108W        W26989  27.071  20.540  14.456
57109W        W26990  12.153   2.765   2.898
57110W        W26991  43.419  15.188  11.960
57111W        W26992  10.300  10.648  13.414
57112W        W26993   9.387  25.676  10.933
57113W        W26994  33.417  43.843  13.890
57114W        W26995  19.554  40.920  12.998
57115W        W26996  14.273  19.073   4.615
57116W        W26997  33.594   5.284   1.431
57117W        W26998  28.492   4.437  11.038
57118W        W26999  18.051  28.475   0.267
57119W        W27000   3.782  40.942  11.003
57120W        W27001  25.033  38.381  12.471
57121W        W27002  33.992  30.957   4.340
57122W        W27003  29.490  17.127  11.893
57123W        W27004  42.483  33.967   0.422
57124W        W27005  34.996  30.622  14.994
57125W        W27006  28.158  22.110   2.287
57126W        W27007  27.038  25.066   1.332
57127W        W27008   9.207   0.324  14.398
57128W        W27009  25.175  28.039  10.594
57129W        W27010  13.186   5.250   2.673
57130W        W27011  39.970  34.596   2.274
57131W        W27012  12.680  12.613  10.569
57132W        W27013  18.744   5.798   0.347
57133W        W27014  16.136  17.171   4.192
57134W        W27015  27.585  40.817   1.372
57135W        W27016  28.972  14.738   3.827
57136W        W27017  41.303  31.495   2.280
57137W        W27018  15.749  42.960  14.313
57138W        W27019  36.027  17.143  12.507
57139W        W27020  30.504   5.898  13.808
57140W        W27021  37.973  44.419   0.394
57141W        W27022  13.106  13.180   3.376
57142W        W27023   0.979   2.781  13.410
57143W        W27024  41.379  39.011   0.761
57144W        W27025  17.132  17.085  13.388
57145W        W27026  11.173  31.106   2.788
57146W        W27027  18.172  13.612  12.974
57147W        W27028   6.699  41.389  12.431
57148W        W27029  28.174  11.624  13.836
57149W        W27030  22.542  35.065  11.120
57150W        W27031  38.987   6.222   4.767
57151W        W27032  28.524   6.679  12.366
57152W        W27033   2.833  33.087   3.863
57153W        W27034  33.095   1.314   0.871
57154W        W27035  36.914  34.384   3.785
57155W        W27036   6.796  13.294   4.659
57156W        W27037  24.598   2.471  11.875
57157W        W27038  15.187  13.233   1.330
57158W        W27039  22.176  28.182   3.682
57159W        W27040  24.552  34.108  13.510
57160W        W27041  42.377   0.893   4.629
57161W        W27042  18.274  23.209  11.394
57162W        W27043  12.712   6.857   1.421
57163W        W27044  29.591  37.525  11.070
57164W        W27045  31.113   5.840   2.385
57165W        W27046  42.821  27.675   1.854
57166W        W27047  12.196   7.859  14.330
57167W        W27048  28.477  40.890   4.714
57168W        W27049  39.987  20.563  13.318
57169W        W27050  27.181   3.871  13.310
57170W        W27051  18.202  22.148  11.973
57171W        W27052   2.443  38.964  11.964
57172W        W27053   8.379  27.018  13.870
57173W        W27054  21.225  28.021  10.959
57174W        W27055   0.934  21.579   0.870
57175W        W27056  36.473  11.774  14.815
57176W        W27057  19.141  36.927   1.423
57177W        W27058  13.109   4.382   4.752
57178W        W27059   6.895  39.857  12.407
57179W        W27060  16.295  27.575  13.330
57180W        W27061   2.823  41.889  11.096
57181W        W27062  22.250   9.299   3.303
57182W        W27063  42.462  29.525   0.275
57183W        W27064  43.898  22.657  14.311
57184W        W27065  22.168   0.940   9.990
57185W        W27066  41.537  27.025   0.362
57186W        W27067  40.972  20.579   2.273
57187W        W27068  39.323  43.278   0.398
57188W        W27069  33.441   4.378  12.091
57189W        W27070  31.032   8.667   4.315
57190W        W27071  30.548  27.046  14.949
57191W        W27072  18.611   4.771  10.553
57192W        W27073  37.515  13.220  11.589
57193W        W27074  15.812   3.245   4.758
57194W        W27075  14.229  40.928  13.444
57195W        W27076  42.517   1.395  10.585
57196W        W27077  17.275  41.849   0.410
57197W        W27078  35.001  25.118  14.444
57198W        W27079   3.844   6.890   1.906
57199W        W27080   1.746  32.937   2.762
57200W        W27081  20.634  38.422  12.517
57201W        W27082  41.787  26.551   3.264
57202W        W27083  30.136   8.825  13.053
57203W        W27084   6.339  17.087   1.866
57204W        W27085  12.208  16.188  12.997
57205W        W27086  41.442  39.999  12.014
57206W        W27087  10.145  38.889   5.295
57207W        W27088   1.929  39.943   2.311
57208W        W27089  37.388  20.130  14.463
57209W        W27090   0.272   6.362   2.398
57210W        W27091  41.429  43.867  10.446
57211W        W27092  39.500  13.599   2.406
57212W        W27093  36.473  31.402   0.857
57213W        W27094  24.977  40.898   0.894
57214W        W27095   6.359   5.835   3.640
57215W        W27096  24.226  32.576  11.859
57216W        W27097   5.709   4.270   2.296
57217W        W27098   1.795   8.897  14.830
57218W        W27099  21.058  34.933   2.309
57219W        W27100  18.634  33.429   0.444
57220W        W27101  25.020  42.476   4.283
57221W        W27102  19.738  26.979  13.792
57222W        W27103   2.279  12.285  12.922
57223W        W27104  10.376  16.651   0.401
57224W        W27105  26.975  25.671  13.340
57225W        W27106  22.546  12.289   3.669
57226W        W27107  36.575  12.662  12.977
57227W        W27108   8.403  12.157  13.532
57228W        W27109   8.218  32.452  12.856
57229W        W27110  40.409   7.880  10.639
57230W        W27111  21.121  30.918  12.446
57231W        W27112  19.119  30.033   4.245
57232W        W27113  17.783  20.565   2.406
57233W        W27114  15.157  42.413   1.387
57234W        W27115  15.247  25.508   3.826
57235W        W27116  20.523  42.426   0.908
57236W        W27117  18.669   6.293   2.265
57237W        W27118   0.819  39.418  11.040
57238W        W27119   0.763  44.500  12.094
57239W        W27120  23.198  35.051  13.454
57240W        W27121   7.340  11.854  11.378
57241W        W27122  24.605   4.756  11.601
57242W        W27123  34.493  31.040  14.310
57243W        W27124   2.877  14.324   3.853
57244W        W27125  38.565  29.055  12.897
57245W        W27126   8.810  18.678  11.999
57246W        W27127   9.190  17.159   1.924
57247W        W27128   1.277  33.945  14.010
57248W        W27129  39.378  26.018  13.973
57249W        W27130  14.694  16.318   4.766
57250W        W27131   0.388  33.438  10.922
57251W        W27132   8.782  22.601   0.954
57252W        W27133   3.359  30.480   0.914
57253W        W27134  34.993  30.007   0.452
57254W        W27135  33.890  38.534   2.696
57255W        W27136   9.345  17.743   3.630
57256W        W27137  23.730  26.514   4.793
57257W        W27138  25.114  26.091  12.444
57258W        W27139  12.319  11.749   1.809
57259W        W27140  38.490   3.781  13.497
57260W        W27141  23.700  43.992  11.551
57261W        W27142  26.082  41.974  14.359
57262W        W27143  37.849  34.473  11.562
57263W        W27144   0.309   9.866  11.428
57264W        W27145  10.205  18.122   4.220
57265W        W27146  14.749  26.475   0.793
57266W        W27147  26.056  15.742   4.293
57267W        W27148  12.834  44.996   0.899
57268W        W27149   2.419  39.409  11.042
57269W        W27150   1.431  44.340   3.839
57270W        W27151   8.739  22.605   3.232
57271W        W27152  21.046  36.565   1.371
57272W        W27153  45.000  22.555  13.801
57273W        W27154   8.382  12.848   2.843
57274W        W27155  31.900  15.204  14.000
57275W        W27156  27.975  11.279   2.759
57276W        W27157  25.175   2.938   0.815
57277W        W27158  24.143   5.847   0.954
57278W        W27159  41.792  14.245   3.706
57279W        W27160  24.199  10.692   2.679
57280W        W27161  42.365  13.671  14.764
57281W        W27162   4.777  28.491   1.212
57282W        W27163  29.111  36.885  14.295
57283W        W27164  41.919  42.468   1.368
57284W        W27165  34.953  43.294  14.429
57285W        W27166  34.041  29.448   2.738
57286W        W27167   9.183  39.530  10.515
57287W        W27168   9.233  42.906   4.757
57288W        W27169   3.926  38.857   1.865
57289W        W27170  26.202   6.762   2.242
57290W        W27171   1.413  25.117  13.036
57291W        W27172   6.191  34.989  13.310
57292W        W27173  19.703  23.177   2.258
57293W        W27174  32.985  14.149   2.283
57294W        W27175  44.844  25.106   3.365
57295W        W27176  28.046   1.973   0.412
57296W        W27177  15.764   6.735   2.183
57297W        W27178  34.517   5.211   4.601
57298W        W27179  11.345   9.364  13.517
57299W        W27180  24.516  22.606   2.796
57300W        W27181   1.899  32.893  11.119
57301W        W27182   5.425  15.779   2.760
57302W        W27183  31.961  14.302  13.872
57303W        W27184  17.299  24.591   1.920
57304W        W27185  34.081  44.425   1.801
57305W        W27186  14.823   3.300  13.386
57306W        W27187  36.896  36.565   2.212
57307W        W27188  27.537   4.725  11.111
57308W        W27189  14.146  18.552   0.734
57309W        W27190   0.791  28.109  12.830
57310W        W27191  29.438  14.679  13.489
57311W        W27192   4.422  27.571  11.412
57312W        W27193  23.101   4.424  12.087
57313W        W27194  41.304   2.734  13.470
57314W        W27195  10.153  31.406   4.732
57315W        W27196   4.325   0.434   3.243
57316W        W27197  22.144  31.013  10.557
57317W        W27198   0.945  22.637   2.862
57318W        W27199  23.686  21.257   1.396
57319W        W27200  42.414   5.826  12.824
57320W        W27201   6.309   6.290  14.859
57321W        W27202   7.244  36.974   3.347
57322W        W27203   8.331  40.961  13.937
57323W        W27204   7.292  38.397   4.788
57324W        W27205  23.044  18.257  13.950
57325W        W27206  32.543  17.703  12.507
57326W        W27207  11.675  35.429  13.962
57327W        W27208  38.926   4.781  11.881
57328W        W27209  36.090  15.787  13.882
57329W        W27210  23.090  41.311  13.012
57330W        W27211  42.869   6.815  12.997
57331W        W27212   2.275  36.366  13.399
57332W        W27213  33.967  26.530   0.294
57333W        W27214  18.201  34.940   2.369
57334W        W27215  17.618  17.768   3.368
57335W        W27216  24.569  38.535  14.442
57336W        W27217   4.213   3.383  14.324
57337W        W27218  28.931  26.091  12.845
57338W        W27219  20.148  26.617   9.995
57339W        W27220   3.951   0.454  11.119
57340W        W27221  24.089  43.497  12.433
57341W        W27222  30.120  17.183  14.322
57342W        W27223  25.138  39.922   3.843
57343W        W27224  12.309  44.937   1.831
57344W        W27225  16.764  44.352  12.037
57345W        W27226   6.830  36.564  12.030
57346W        W27227  33.092  22.096  14.426
57347W        W27228  30.106  23.726  12.371
57348W        W27229  23.081   1.749  14.787
57349W        W27230  27.000  39.545   3.781
57350W        W27231  44.357  29.522  12.406
57351W        W27232  29.166  22.216  10.562
57352W        W27233  35.445   0.931  14.479
57353W        W27234  29.932  22.045   2.779
57354W        W27235  38.910  27.969  13.855
57355W        W27236  41.884  33.008  12.428
57356W        W27237   9.232  22.159   3.225
57357W        W27238  21.236  18.574   4.780
57358W        W27239  34.499  30.009  11.916
57359W        W27240  30.964  22.106   4.826
57360W        W27241  20.707  27.499  12.447
57361W        W27242  38.994  35.500  11.418
57362W        W27243  27.157   7.179  14.471
57363W        W27244  30.021  39.521  13.904
57364W        W27245  30.433  18.136   1.758
57365W        W27246   1.777  11.843  14.896
57366W        W27247  44.953  24.029   3.650
57367W        W27248  33.465   8.397  10.458
57368W        W27249   5.795  10.843  14.013
57369W        W27250  15.115  25.166  12.891
57370W        W27251  10.795  22.129   1.742
57371W        W27252   5.761  13.677  11.426
57372W        W27253  35.075   5.396   1.286
57373W        W27254  22.200   3.880  14.498
57374W        W27255  42.854  10.201   2.814
57375W        W27256  14.600  36.066   1.749
57376W        W27257   1.883  26.186   0.770
57377W        W27258  31.152  34.405   2.269
57378W        W27259   9.850  38.829  10.482
57379W        W27260  26.664  17.174   5.239
57380W        W27261  27.660  10.677  14.498
57381W        W27262  39.984  43.374  10.600
57382W        W27263  11.816  22.164  14.386
57383W        W27264   4.293  26.554   4.286
57384W        W27265  43.778  20.069   4.189
57385W        W27266  39.344  39.979   3.303
57386W        W27267  17.674  41.955  12.891
57387W        W27268  10.327   3.912   0.327
57388W        W27269   8.240   7.903   2.364
57389W        W27270  40.391   1.827   3.667
57390W        W27271   8.723  42.367  12.842
57391W        W27272  11.854  25.670  14.860
57392W        W27273  37.433  14.611  14.434
57393W        W27274  34.892  21.195   1.745
57394W        W27275   5.316  23.517  12.016
57395W        W27276  35.431   2.783   4.783
57396W        W27277  13.814  40.311  11.499
57397W        W27278  17.202  11.749   4.706
57398W        W27279  16.644   1.417   4.826
57399W        W27280  21.752  19.267  13.969
57400W        W27281  44.349  38.020   1.863
57401W        W27282  28.103  40.024   3.720
57402W        W27283   1.286  17.772  14.824
57403W        W27284  41.405  37.026   3.843
57404W        W27285  15.280  23.174   3.675
57405W        W27286  12.798   1.795   3.730
57406W        W27287  33.496  41.828  10.479
57407W        W27288   1.822  31.948   1.811
57408W        W27289  43.874   9.647   1.873
57409W        W27290  37.003  42.303  10.443
57410W        W27291  24.583  11.731  12.483
57411W        W27292  10.702   1.444  11.526
57412W        W27293  30.162   5.328   1.832
57413W        W27294  19.267  26.175  13.379
57414W        W27295  11.743   9.721  10.893
57415W        W27296  16.745   2.849   2.354
57416W        W27297  16.205   9.180   2.400
57417W        W27298  38.930  36.364  13.355
57418W        W27299   8.883  39.544   4.170
57419W        W27300   5.911  17.749  14.450
57420W        W27301  37.546  24.983  14.406
57421W        W27302  39.343  42.851   0.438
57422W        W27303  10.257  12.316  13.848
57423W        W27304  38.555  36.458  14.399
57424W        W27305  12.226  29.498   1.838
57425W        W27306  20.054  15.671  13.037
57426W        W27307  39.395  29.094   0.777
57427W        W27308  33.099  24.665  10.604
57428W        W27309  10.816  20.530  11.547
57429W        W27310  11.716  25.088   2.253
57430W        W27311  36.480  39.978   4.250
57431W        W27312   9.363  23.039  13.008
57432W        W27313  42.448  13.691  10.991
57433W        W27314  30.982  44.967   0.269
57434W        W27315  35.467   4.769   4.831
57435W        W27316  12.169  26.088  10.488
57436W        W27317  39.920   3.915   0.420
57437W        W27318   3.928  31.974   3.333
57438W        W27319   3.412  26.483   3.710
57439W        W27320   0.756  33.516  12.449
57440W        W27321   5.825  42.032  13.873
57441W        W27322  14.596  25.009  11.989
57442W        W27323  19.220  20.695   0.403
57443W        W27324   2.438  11.757   1.860
57444W        W27325   1.419  26.991  11.586
57445W        W27326  16.612   0.392   3.786
57446W        W27327  31.058  32.444   0.413
57447W        W27328   4.257  21.515  11.103
57448W        W27329  16.582   1.401   3.746
57449W        W27330  42.456  20.038   1.816
57450W        W27331  31.913  33.428  14.938
57451W        W27332  15.316  42.369   2.408
57452W        W27333  36.076   1.929   2.857
57453W        W27334  28.665  10.759   3.763
57454W        W27335  28.078  18.179   1.812
57455W        W27336  43.437  18.181  14.393
57456W        W27337  35.483  22.718   4.176
57457W        W27338  14.242  18.636  11.405
57458W        W27339   3.949  26.972   0.905
57459W        W27340  26.124   8.828  11.507
57460W        W27341  29.612  18.091  10.046
57461W        W27342   6.882  36.025   4.733
57462W        W27343  44.307   9.258  12.498
57463W        W27344  20.692  44.344   9.578
57464W        W27345   1.334  31.458   3.298
57465W        W27346  41.836  22.072  12.546
57466W        W27347   9.302  12.762   0.811
57467W        W27348   3.897  32.528  14.785
57468W        W27349  40.826  26.698  11.987
57469W        W27350   7.709   7.731  11.522
57470W        W27351  33.592  37.408  13.449
57471W        W27352  14.655  33.456  10.629
57472W        W27353  18.686  35.994   4.346
57473W        W27354  25.649  23.659  14.962
57474W        W27355   1.263   1.465  10.616
57475W        W27356  12.679  33.533   1.367
57476W        W27357  15.272  38.516   3.179
57477W        W27358   0.331  19.131  12.509
57478W        W27359  37.084  15.236  11.434
57479W        W27360   7.908   5.851  11.457
57480W        W27361  38.032   1.272  11.446
57481W        W27362  12.183  30.457  11.536
57482W        W27363  27.093  38.474  12.449
57483W        W27364   9.818  44.847   0.905
57484W        W27365  27.060   3.412  14.886
57485W        W27366  23.182  16.620   3.729
57486W        W27367  39.504   8.742  13.016
57487W        W27368   1.745  10.688  10.482
57488W        W27369  20.534  10.183   3.159
57489W        W27370  43.855  19.753  14.485
57490W        W27371  22.580  22.024   2.267
57491W        W27372  16.754   5.352  10.450
57492W        W27373  10.170   9.345  14.423
57493W        W27374  34.426  15.815   2.241
57494W        W27375  44.440   8.860  10.135
57495W        W27376  19.277  36.908   4.179
57496W        W27377  12.732  39.978   0.268
57497W        W27378  39.884   5.862  12.916
57498W        W27379  43.773  33.130   4.251
57499W        W27380  30.483  39.427  11.865
57500W        W27381  26.968   2.804  10.599
57501W        W27382  43.300  40.864  12.067
57502W        W27383   9.797  17.698  13.433
57503W        W27384  14.693  10.645  14.338
57504W        W27385  32.909  16.264  10.594
57505W        W27386  17.146  34.920  13.013
57506W        W27387  12.782   7.708  12.533
57507W        W27388  24.053   0.252   5.264
57508W        W27389  30.591  14.173   5.169
57509W        W27390  24.641  15.257  11.018
57510W        W27391  17.797  10.746   4.166
57511W        W27392  36.877  25.152   0.922
57512W        W27393   5.717   8.311   0.822
57513W        W27394  12.121  38.498   0.354
57514W        W27395  29.081  40.955  11.452
57515W        W27396  43.491  42.524   4.621
57516W        W27397  21.214  12.720  10.080
57517W        W27398  28.120  24.023  13.876
57518W        W27399  26.510  34.034   3.835
57519W        W27400  19.671  15.766   1.726
57520W        W27401  43.844  16.185  11.863
57521W        W27402  20.264  18.234  14.786
57522W        W27403  19.233   4.912  14.278
57523W        W27404  41.908   7.777   2.269
57524W        W27405   4.351  19.164   3.204
57525W        W27406   8.746   0.476  11.582
57526W        W27407  32.036  10.748   3.870
57527W        W27408   1.448  26.100  13.353
57528W        W27409   8.249  41.806  11.086
57529W        W27410   8.691  42.912  14.282
57530W        W27411  26.971  16.103  14.014
57531W        W27412  40.843  23.547  13.410
57532W        W27413   3.934  36.942   3.866
57533W        W27414  35.373  11.177  10.419
57534W        W27415  26.162  24.479  12.580
57535W        W27416   5.410  16.272   4.709
57536W        W27417  18.292  22.537  14.962
57537W        W27418  33.490  35.098  12.079
57538W        W27419  27.647  13.325  13.048
57539W        W27420  27.101  32.490   1.908
57540W        W27421  25.563  25.479  10.407
57541W        W27422   9.722  30.001   4.118
57542W        W27423  21.144  44.906  12.387
57543W        W27424   8.791  32.022  14.350
57544W        W27425   2.806  41.903  12.393
57545W        W27426  14.702  20.653   1.368
57546W        W27427  17.303   7.275   1.934
57547W        W27428  36.095  29.590  14.807
57548W        W27429   7.699  11.244   2.374
57549W        W27430  21.644  31.453   4.787
57550W        W27431  36.513  24.722  13.986
57551W        W27432  36.585  17.147  13.976
57552W        W27433  33.964  24.580  10.419
57553W        W27434  44.500  26.052   4.330
57554W        W27435  24.079  31.989  11.529
57555W        W27436  41.952   0.428   0.325
57556W        W27437   0.258  19.102   4.781
57557W        W27438  44.828  34.998   1.750
57558W        W27439  44.294  23.619  12.992
57559W        W27440  33.556   3.440   0.287
57560W        W27441  44.897   4.788  13.035
57561W        W27442   3.392  32.435  11.962
57562W        W27443   4.700  19.583   0.944
57563W        W27444  20.752  23.137   3.673
57564W        W27445  10.283  42.342   4.638
57565W        W27446  15.736   7.256   4.711
57566W        W27447  42.783  30.995   3.339
57567W        W27448   6.357  10.850  13.954
57568W        W27449  44.476  21.748  12.411
57569W        W27450  31.969   4.373   4.322
57570W        W27451  34.504  32.484  14.437
57571W        W27452  25.031   8.894  14.403
57572W        W27453  20.731  40.452   0.451
57573W        W27454  19.557  40.872  12.496
57574W        W27455  10.282  29.503   4.660
57575W        W27456  44.755  18.658  10.922
57576W        W27457  20.082  12.341  10.450
57577W        W27458  34.108  20.532   4.807
57578W        W27459  34.488  22.224  14.958
57579W        W27460  12.751  16.118   5.686
57580W        W27461  13.643  44.265   3.695
57581W        W27462   7.264  31.613  14.785
57582W        W27463  41.498   7.751   3.715
57583W        W27464  35.593   3.946   3.645
57584W        W27465   0.393  36.060  14.964
57585W        W27466  11.794  36.517   0.444
57586W        W27467  32.532  35.384  14.408
57587W        W27468   5.902  26.109  14.927
57588W        W27469   7.377  26.132   0.772
57589W        W27470  14.706   9.666   0.744
57590W        W27471  43.869  18.114  13.868
57591W        W27472  10.174  43.812   4.242
57592W        W27473  40.921   2.724   3.377
57593W        W27474  24.149  22.059  14.990
57594W        W27475  26.663  22.565  14.801
57595W        W27476  33.971  34.518   3.306
57596W        W27477  29.056   7.792  11.521
57597W        W27478  28.514  20.150  13.984
57598W        W27479   4.759  16.594   1.420
57599W        W27480  12.274   6.896   2.790
57600W        W27481  13.660  38.521   0.356
57601W        W27482  44.972  41.898  13.969
57602W        W27483  20.133   5.325  14.492
57603W        W27484  16.725  34.104  13.541
57604W        W27485  17.774  27.965  11.995
57605W        W27486   5.236  31.461  13.508
57606W        W27487  40.986  21.726  12.954
57607W        W27488   1.737  21.662  11.526
57608W        W27489  29.994   2.891   2.213
57609W        W27490  28.616  34.520   1.298
57610W        W27491  37.918  33.573  10.068
57611W        W27492  37.542  37.444   1.377
57612W        W27493   2.373  15.179  12.077
57613W        W27494  44.953  43.510   1.229
57614W        W27495  15.096   9.817   3.331
57615W        W27496  31.642   5.201   1.798
57616W        W27497   8.377  25.573   1.439
57617W        W27498   5.916  35.371  12.899
57618W        W27499  37.024  28.078   2.792
57619W        W27500  22.557  12.217  13.957
57620W        W27501  29.560  35.592   1.258
57621W        W27502   8.370   0.451   0.390
57622W        W27503  19.546  31.038   2.835
57623W        W27504  34.588  31.146  11.871
57624W        W27505   9.191  43.431   0.813
57625W        W27506  27.464  42.929  13.949
57626W        W27507   0.932  14.100  11.423
57627W        W27508  14.115  21.543   4.245
57628W        W27509  15.191   1.879   0.407
57629W        W27510  16.719  38.562   3.799
57630W        W27511  43.401  15.308   1.883
57631W        W27512  34.379  21.024   4.274
57632W        W27513  37.374   8.364  12.344
57633W        W27514  28.600  27.034   0.965
57634W        W27515  13.750  19.580  11.582
57635W        W27516   4.940  38.951   5.320
57636W        W27517  31.066  13.691   1.810
57637W        W27518  11.353  44.421  11.933
57638W        W27519   9.257  22.036   4.750
57639W        W27520  25.078   3.356   5.219
57640W        W27521  24.619  35.992  14.502
57641W        W27522  19.047   3.309   2.888
57642W        W27523  10.277  20.545  13.346
57643W        W27524  27.990   0.432   1.285
57644W        W27525  21.203  17.241   1.304
57645W        W27526  27.683  16.250  11.382
57646W        W27527   8.169  28.511   4.264
57647W        W27528  14.301  30.140   4.743
57648W        W27529  16.305  25.047  14.946
57649W        W27530  34.438  39.944   0.407
57650W        W27531   0.308  17.651   2.384
57651W        W27532  37.968   7.413   2.747
57652W        W27533  15.214  37.485  12.076
57653W        W27534  15.805  12.277  14.483
57654W        W27535  35.015  14.594   3.750
57655W        W27536  10.278  44.927   0.358
57656W        W27537  42.362  19.633  13.494
57657W        W27538   4.410  10.853  14.439
57658W        W27539  34.049  39.963   4.802
57659W        W27540   6.757  15.252  14.883
57660W        W27541  40.465  30.452   4.352
57661W        W27542  13.681  29.081   0.261
57662W        W27543  16.148  22.212  13.889
57663W        W27544  34.954  12.851   4.182
57664W        W27545  21.063  42.517   4.689
57665W        W27546  24.692   8.169  12.840
57666W        W27547   4.218  31.553  10.558
57667W        W27548   8.766   7.306  12.026
57668W        W27549  24.010  21.178  14.402
57669W        W27550   0.889  10.754   0.955
57670W        W27551  11.301  22.506   1.396
57671W        W27552  12.228  37.919  11.101
57672W        W27553  31.508  31.584  13.332
57673W        W27554  22.055  14.752  12.962
57674W        W27555  17.563  13.306   4.707
57675W        W27556  21.722  42.776   4.286
57676W        W27557  13.812  11.757  12.501
57677W        W27558  19.553  37.413   1.390
57678W        W27559  36.866  42.521  10.891
57679W        W27560   2.228   4.217   1.427
57680W        W27561   0.929   4.852  12.513
57681W        W27562  32.542  27.170  14.303
57682W        W27563  43.336  36.496  11.986
57683W        W27564   0.873  27.137  11.963
57684W        W27565  23.654  41.319  11.932
57685W        W27566  41.532  38.926  14.289
57686W        W27567  39.325  43.410   1.313
57687W        W27568  21.575  30.545  11.374
57688W        W27569  26.206  44.259   0.817
57689W        W27570  24.667   2.444  13.423
57690W        W27571  38.469  42.816  11.516
57691W        W27572  10.303  11.194  12.838
57692W        W27573  34.947  28.065   5.087
57693W        W27574  44.357  42.992   4.148
57694W        W27575  18.201  22.156   1.258
57695W        W27576  10.731  18.145   1.873
57696W        W27577  17.760   7.307  11.502
57697W        W27578  41.374  42.912   4.136
57698W        W27579   5.755  27.973   1.429
57699W        W27580   7.787   1.914  10.074
57700W        W27581  34.591  25.517  11.513
57701W        W27582   4.782  35.470  10.624
57702W        W27583  31.906  36.064   4.131
57703W        W27584   5.712  31.940  13.543
57704W        W27585  15.741  23.223  11.455
57705W        W27586  28.046  13.787   3.735
57706W        W27587   4.927  13.144  14.827
57707W        W27588  16.131  22.214   4.308
57708W        W27589  36.001   4.429  11.005
57709W        W27590  21.213   8.260  10.424
57710W        W27591  33.921   9.170  13.468
57711W        W27592  19.211  36.877  12.899
57712W        W27593  28.094  29.647   4.149
57713W        W27594  18.786  33.899  14.844
57714W        W27595  28.567  44.422   0.455
57715W        W27596   4.777  10.638   3.849
57716W        W27597   3.345  13.208  11.440
57717W        W27598   0.248  28.585   2.362
57718W        W27599  37.859  40.840  14.917
57719W        W27600  16.236  12.186  12.830
57720W        W27601   3.285  26.679  10.592
57721W        W27602  35.978   0.412  10.154
57722W        W27603  32.464  44.903   4.180
57723W        W27604  37.000  14.289  12.502
57724W        W27605   2.464  33.543  13.530
57725W        W27606  22.707  33.941   2.253
57726W        W27607  23.571   6.849  11.507
57727W        W27608  15.637   8.193  12.536
57728W        W27609  33.558   5.433   4.777
57729W        W27610  41.842   8.294   1.447
57730W        W27611  34.547  16.736  13.933
57731W        W27612  30.610   3.956  10.558
57732W        W27613  19.570   1.880   1.290
57733W        W27614  40.994  32.908   3.642
57734W        W27615  14.197  36.990   2.220
57735W        W27616  32.627  15.255  13.937
57736W        W27617  18.686  33.552   1.905
57737W        W27618   5.745  38.034  12.042
57738W        W27619  27.002  33.601  12.452
57739W        W27620  44.920  44.892   3.810
57740W        W27621  37.379  36.540   1.241
57741W        W27622  23.238  28.457   4.118
57742W        W27623  39.463  12.720  12.898
57743W        W27624   9.788  26.028  12.365
57744W        W27625  39.439  12.823  11.864
57745W        W27626  43.963  18.072  12.572
57746W        W27627  39.040  23.046  13.416
57747W        W27628  29.454  34.071   3.218
57748W        W27629  14.230   5.786   3.183
57749W        W27630  18.082  31.973  11.000
57750W        W27631  30.444  18.156  13.943
57751W        W27632  30.542   4.242  12.458
57752W        W27633  23.985  23.187  10.409
57753W        W27634  27.557  19.717  14.862
57754W        W27635  39.007  18.734  13.029
57755W        W27636  24.507  14.142  11.381
57756W        W27637  35.452  10.843  12.013
57757W        W27638  15.780   6.707   0.773
57758W        W27639   5.415  17.799  11.128
57759W        W27640  21.219  30.472  12.913
57760W        W27641  42.777   6.320  11.534
57761W        W27642  17.073  17.666   0.382
57762W        W27643  19.727  25.705   0.805
57763W        W27644  19.629  21.675   2.227
57764W        W27645  43.889  14.201   0.850
57765W        W27646  25.619   2.763  13.902
57766W        W27647   7.312   9.381   4.794
57767W        W27648  13.267  15.319   2.406
57768W        W27649  36.410  21.124   1.900
57769W        W27650   7.344   6.824  12.934
57770W        W27651  43.340  38.536  11.101
57771W        W27652  36.533  33.891   3.293
57772W        W27653  21.094  39.515   3.347
57773W        W27654  17.293  14.177   1.375
57774W        W27655   3.304  28.615   3.821
57775W        W27656   3.396  16.807   0.385
57776W        W27657  33.903  14.644   4.660
57777W        W27658   9.845  19.134   2.809
57778W        W27659  42.452  33.081   4.267
57779W        W27660  39.057  33.884  13.515
57780W        W27661  32.975  23.604   3.189
57781W        W27662  15.149  19.151   4.274
57782W        W27663  31.634   1.764   2.836
57783W        W27664   8.711  37.016   1.749
57784W        W27665  11.803   0.808   4.185
57785W        W27666  12.158  27.988  12.092
57786W        W27667  40.001  34.071   0.910
57787W        W27668  30.144   0.979  11.375
57788W        W27669  22.538   8.775  10.924
57789W        W27670  38.064  31.936  13.464
57790W        W27671  29.081  22.658  11.940
57791W        W27672  36.892   4.444   1.824
57792W        W27673  24.589   6.275   0.372
57793W        W27674  42.981   5.194   4.836
57794W        W27675  43.475  36.095  10.520
57795W        W27676  36.489  18.125  13.336
57796W        W27677  30.953  18.107   3.272
57797W        W27678  34.879  21.026   5.299
57798W        W27679  18.165   5.370  10.467
57799W        W27680  28.955  33.942   0.364
57800W        W27681  22.194  21.080  14.473
57801W        W27682  12.767  28.089   0.243
57802W        W27683  33.041  19.647  10.902
57803W        W27684  42.387   4.446  12.387
57804W        W27685  33.911  22.244  11.080
57805W        W27686  14.727  25.998  13.452
57806W        W27687   1.437   5.879  12.073
57807W        W27688  32.630  43.486  13.054
57808W        W27689   9.266  16.693   4.799
57809W        W27690  44.763  24.611  14.886
57810W        W27691  23.221  21.636  13.353
57811W        W27692  16.652   0.804  12.827
57812W        W27693  14.834  21.105   1.796
57813W        W27694  32.919  14.737   1.375
57814W        W27695  36.402  32.987  13.539
57815W        W27696  10.690  23.166  12.436
57816W        W27697  28.605  18.122  11.604
57817W        W27698  29.616  31.564  12.486
57818W        W27699   0.748   8.246  12.375
57819W        W27700  26.571  19.169  13.314
57820W        W27701  12.292  40.987  14.853
57821W        W27702   2.876  19.611  12.392
57822W        W27703   4.398  27.163   0.305
57823W        W27704  11.769  43.430   3.339
57824W        W27705  20.237  41.332  14.276
57825W        W27706   6.791  12.719   2.693
57826W        W27707   7.768   9.682   0.271
57827W        W27708  32.885  38.838  10.483
57828W        W27709  40.545  14.279  14.921
57829W        W27710  31.570  35.948  13.852
57830W        W27711   8.856  26.641   1.451
57831W        W27712   3.952  26.169   2.299
57832W        W27713  25.062  42.503   2.402
57833W        W27714  30.977  28.066  11.611
57834W        W27715  14.797  27.532   2.835
57835W        W27716  17.078  36.464   2.377
57836W        W27717  35.970   5.758   2.265
57837W        W27718   5.270  27.123  14.343
57838W        W27719  44.382  41.316   0.766
57839W        W27720  25.159   5.780  13.978
57840W        W27721  24.227  30.589   9.927
57841W        W27722  36.896   7.742   3.698
57842W        W27723  40.324  36.388   1.871
57843W        W27724  42.021  28.056  12.054
57844W        W27725  12.685  29.954  14.863
57845W        W27726   3.732   1.273  14.337
57846W        W27727   5.423  31.005   0.921
57847W        W27728  32.436  29.519   4.769
57848W        W27729  18.767  30.633   1.400
57849W        W27730  37.486  42.474   2.178
57850W        W27731  42.426  44.914   1.278
57851W        W27732  15.289  19.253  13.338
57852W        W27733  31.023  27.104   2.408
57853W        W27734  36.855  36.906   3.378
57854W        W27735   8.893   2.863  13.326
57855W        W27736   8.255   5.343  11.504
57856W        W27737   6.910  19.762   2.328
57857W        W27738  39.517  40.860  11.868
57858W        W27739  37.525  35.590   2.237
57859W        W27740  24.058  33.983  10.940
57860W        W27741  40.499   8.187  14.004
57861W        W27742  13.695  42.029   0.322
57862W        W27743  44.786  42.316   0.763
57863W        W27744  23.187  28.961   2.226
57864W        W27745  21.533  33.519   3.303
57865W        W27746  42.891  34.568   4.331
57866W        W27747  40.876  23.662   2.259
57867W        W27748   1.289  38.398   1.712
57868W        W27749  37.981  39.399  14.820
57869W        W27750   2.965  10.861  13.977
57870W        W27751  19.740  31.142  11.949
57871W        W27752  35.483  32.018   2.305
57872W        W27753  17.160  28.478   0.342
57873W        W27754  24.714  40.413  10.429
57874W        W27755   1.832   5.430  11.000
57875W        W27756  40.446  43.959   0.963
57876W        W27757  15.717   0.356   3.219
57877W        W27758  11.757  20.765   4.729
57878W        W27759   8.245  38.842  14.946
57879W        W27760  17.790   1.888  10.936
57880W        W27761  12.712  43.022  11.912
57881W        W27762   4.875  43.472   0.389
57882W        W27763   5.775  29.552  11.875
57883W        W27764   3.835  11.727   9.943
57884W        W27765  28.679   7.183   4.190
57885W        W27766   6.838  18.618  11.583
57886W        W27767  10.723  25.109   1.753
57887W        W27768   6.318   2.407   3.759
57888W        W27769  36.939  35.543  11.535
57889W        W27770  43.479  10.849  14.854
57890W        W27771  14.806   9.275   2.270
57891W        W27772   5.267  44.757   4.249
57892W        W27773  37.519  22.043  12.967
57893W        W27774   5.419  21.223   4.796
57894W        W27775   5.692  33.382   0.917
57895W        W27776  40.312  13.806  14.310
57896W        W27777  41.792  44.858  14.350
57897W        W27778  19.575  15.757  14.023
57898W        W27779  11.347  40.460  14.904
57899W        W27780  20.721  43.783   0.864
57900W        W27781  23.226  42.306   0.352
57901W        W27782  28.048  33.612  14.465
57902W        W27783   5.385  32.971  12.563
57903W        W27784  12.848  31.548  13.517
57904W        W27785  11.751  30.119  11.861
57905W        W27786  26.124  26.178   1.358
57906W        W27787  25.181  15.602   3.263
57907W        W27788   2.306  33.473   9.998
57908W        W27789   9.215   2.343  10.455
57909W        W27790  19.552  44.286   1.411
57910W        W27791  19.171  35.403  13.538
57911W        W27792  32.570  21.147  12.436
57912W        W27793  19.642   1.284  10.616
57913W        W27794  14.736  28.569  13.481
57914W        W27795  36.968   2.774   0.330
57915W        W27796  18.187  34.983  14.763
57916W        W27797  26.971  25.041   0.901
57917W        W27798  31.543  39.886  13.809
57918W        W27799  28.555   7.335   1.789
57919W        W27800  12.320  13.259  11.442
57920W        W27801  22.653  31.041  12.910
57921W        W27802   7.307  35.905   4.718
57922W        W27803  23.205  15.268  13.969
57923W        W27804  39.357  42.392   4.198
57924W        W27805  10.294  11.626  11.019
57925W        W27806  38.522   4.414   2.842
57926W        W27807  38.501  39.920   1.792
57927W        W27808  38.826  23.230  10.554
57928W        W27809  25.648  11.773   4.683
57929W        W27810   5.752  35.965   2.306
57930W        W27811  39.532  28.176  12.452
57931W        W27812   1.354  31.419  14.328
57932W        W27813   7.709  37.368   3.633
57933W        W27814  22.152   7.871  10.638
57934W        W27815  24.601  20.528  14.431
57935W        W27816  23.053  24.213   1.309
57936W        W27817  35.594  31.557  13.368
57937W        W27818  10.326  33.565   2.200
57938W        W27819  43.776  34.048  13.377
57939W        W27820  23.215  39.997   3.304
57940W        W27821  40.031  23.024   0.348
57941W        W27822  42.881   5.818   2.894
57942W        W27823  37.965   3.249   2.218
57943W        W27824  13.317  14.236  10.449
57944W        W27825  24.173  28.658   2.394
57945W        W27826  12.247  15.328  14.789
57946W        W27827  36.091  21.123   0.857
57947W        W27828  10.811  23.551  12.561
57948W        W27829  11.737  36.565  14.338
57949W        W27830  33.116  40.412   4.333
57950W        W27831  14.820  25.009  10.619
57951W        W27832  24.723  33.480   2.253
57952W        W27833  29.594  22.639   2.299
57953W        W27834  35.368  18.610  12.555
57954W        W27835  16.641  33.533   3.375
57955W        W27836  15.626  27.950  10.959
57956W        W27837  14.133  15.270  10.619
57957W        W27838  41.000  16.224  10.431
57958W        W27839  32.078  24.048   2.749
57959W        W27840  37.513  40.509   4.344
57960W        W27841  20.637  15.644   4.217
57961W        W27842  14.636  41.800   3.340
57962W        W27843   0.255   1.283  10.979
57963W        W27844  26.988  44.369  11.067
57964W        W27845  17.068  10.259  13.398
57965W        W27846   7.763  37.394  10.899
57966W        W27847  35.494   1.423  13.819
57967W        W27848  36.417   3.850  12.001
57968W        W27849  39.040   6.844   4.145
57969W        W27850  30.977   4.717   0.877
57970W        W27851  15.089  18.082  14.316
57971W        W27852   6.766  15.769   1.928
57972W        W27853  19.130  28.082   5.709
57973W        W27854  39.465  11.240   1.811
57974W        W27855  41.499  15.681  12.852
57975W        W27856  17.281   7.706  10.997
57976W        W27857  26.510  22.047  12.450
57977W        W27858  12.799  22.564  11.555
57978W        W27859  40.490  34.015  14.339
57979W        W27860   4.892   4.414   0.247
57980W        W27861  15.174  37.070   4.146
57981W        W27862   5.783  22.026  12.538
57982W        W27863   9.345  41.509  12.905
57983W        W27864   7.291   4.221   3.174
57984W        W27865  28.080  11.311   3.156
57985W        W27866  31.603  39.528  11.070
57986W        W27867  35.875  12.620   4.223
57987W        W27868  41.788   0.962   4.259
57988W        W27869  10.835   7.841  13.536
57989W        W27870  39.346   2.906  13.349
57990W        W27871  27.073  20.045   2.849
57991W        W27872  29.011   2.308  12.074
57992W        W27873  10.215  25.151   0.801
57993W        W27874  23.167  10.206  13.913
57994W        W27875   7.333  43.002  10.426
57995W        W27876  22.711   6.719   4.745
57996W        W27877   1.386  35.588  11.975
57997W        W27878   6.265   4.831   3.810
57998W        W27879  33.977  25.714   2.844
57999W        W27880  14.182  41.418   4.733
58000W        W27881  29.581  39.893   3.760
58001W        W27882   5.796   0.317  14.438
58002W        W27883   2.741  24.581   4.758
58003W        W27884  26.161  21.026   2.884
58004W        W27885  17.069   4.285  12.476
58005W        W27886   6.252  16.584   2.201
58006W        W27887  16.130  17.306   0.244
58007W        W27888  44.777  20.549  12.377
58008W        W27889   2.863  17.100   2.832
58009W        W27890  42.932   8.251   1.215
58010W        W27891  23.558  18.120   1.717
58011W        W27892   8.370   1.752  12.395
58012W        W27893  13.691  43.774   2.189
58013W        W27894   1.862  22.671   3.858
58014W        W27895  10.704  39.409  12.825
58015W        W27896   2.901  29.972  12.376
58016W        W27897  24.537  43.800  13.477
58017W        W27898  26.084  44.959   3.244
58018W        W27899  32.470  34.909   0.365
58019W        W27900  32.598  37.499  12.549
58020W        W27901  25.218  19.061  12.570
58021W        W27902  17.703  32.517   1.914
58022W        W27903  28.578  15.246  11.941
58023W        W27904  40.511  21.247   4.764
58024W        W27905   5.717  36.020  12.916
58025W        W27906  40.352   5.891   0.815
58026W        W27907   2.746   1.763  12.977
58027W        W27908  13.198   1.336   0.320
58028W        W27909   6.754  25.580   4.174
58029W        W27910   5.386  10.741  10.641
58030W        W27911  10.772  37.905   1.892
58031W        W27912  42.324  44.966   0.769
58032W        W27913  29.586  43.449   2.702
58033W        W27914   4.850  43.899  10.988
58034W        W27915  17.118  30.012  11.555
58035W        W27916  39.485  38.546  14.381
58036W        W27917  22.714  34.995   1.795
58037W        W27918  16.632  24.684  11.890
58038W        W27919  34.611  19.045   1.719
58039W        W27920  37.870   4.358   4.659
58040W        W27921  15.108  11.245  13.959
58041W        W27922   5.436  22.709  12.515
58042W        W27923   9.338  44.402   2.738
58043W        W27924   3.806  27.656  12.032
58044W        W27925  21.210  32.120   5.211
58045W        W27926   9.736  19.779  10.959
58046W        W27927  19.585  17.153   5.138
58047W        W27928  31.102  40.821  14.943
58048W        W27929  26.677  35.421   2.674
58049W        W27930  36.395   0.983   3.146
58050W        W27931  11.760   1.298  14.884
58051W        W27932   9.723  19.595   4.294
58052W        W27933  30.544   5.304  10.568
58053W        W27934  28.511  40.953  11.471
58054W        W27935  42.952  37.578  13.792
58055W        W27936  30.044  21.237   1.880
58056W        W27937   3.779  39.406  14.379
58057W        W27938  11.224   1.969   4.239
58058W        W27939  17.274  17.289   4.672
58059W        W27940  36.568  13.313  13.524
58060W        W27941  24.108  42.980  14.456
58061W        W27942  20.614  30.029   5.248
58062W        W27943  15.288   8.717  10.900
58063W        W27944  27.957  43.888  12.527
58064W        W27945   8.782  43.378  10.901
58065W        W27946  26.190  39.054   0.358
58066W        W27947  25.494  19.551   4.673
58067W        W27948  24.196  27.112   1.407
58068W        W27949  15.723   4.799  14.784
58069W        W27950  12.664  44.972  13.815
58070W        W27951  15.767  30.511   0.385
58071W        W27952  22.719  38.563   1.380
58072W        W27953  37.966  17.232  14.826
58073W        W27954  41.318  39.415  14.324
58074W        W27955  42.885  43.966   2.204
58075W        W27956  41.003  40.853  14.772
58076W        W27957  18.556  23.625   0.475
58077W        W27958  42.903  10.323  12.867
58078W        W27959   5.751  16.112   0.399
58079W        W27960  32.067  42.915  13.828
58080W        W27961  29.588  44.484  13.037
58081W        W27962   6.785  41.367   4.229
58082W        W27963  15.641  40.962  10.430
58083W        W27964  31.011  29.994  13.463
58084W        W27965  19.589  19.179  11.907
58085W        W27966  35.531  37.357   1.335
58086W        W27967  17.713  24.687  13.413
58087W        W27968  36.537  43.459   3.260
58088W        W27969   6.224  31.059  10.511
58089W        W27970  37.832  38.846  11.421
58090W        W27971  25.656   9.668   3.856
58091W        W27972  10.735  39.437  10.621
58092W        W27973   6.258  27.079  10.550
58093W        W27974  34.426  37.055  13.945
58094W        W27975  34.580  26.625   4.344
58095W        W27976   3.921  29.423   2.334
58096W        W27977   9.256  18.187  14.513
58097W        W27978   0.919  35.401  12.410
58098W        W27979  29.038  18.260  12.959
58099W        W27980  42.012  36.557   1.301
58100W        W27981  11.772   1.760   5.103
58101W        W27982  31.445  24.687  10.471
58102W        W27983  38.497  37.867   2.863
58103W        W27984  36.394  42.395   1.746
58104W        W27985  27.966  40.476   0.245
58105W        W27986  20.694  25.967   4.259
58106W        W27987  43.474  42.477  13.953
58107W        W27988  22.176  24.985   4.253
58108W        W27989  26.653  26.068   2.367
58109W        W27990   8.278  24.015  11.026
58110W        W27991  17.297   7.703  10.043
58111W        W27992   8.339   7.908  11.498
58112W        W27993  24.127  21.019   2.271
58113W        W27994   5.257  23.045   0.771
58114W        W27995  11.680  21.039   2.698
58115W        W27996  22.736  31.492  11.909
58116W        W27997  17.272   6.396  13.809
58117W        W27998  10.261  43.275   1.220
58118W        W27999  29.055  14.132  13.429
58119W        W28000  12.850   8.354   0.370
58120W        W28001  30.419  35.373  12.014
58121W        W28002  13.328  15.271   3.266
58122W        W28003  36.379  33.610  13.057
58123W        W28004   3.781   3.337  11.927
58124W        W28005  27.948  18.132  10.060
58125W        W28006  16.224  16.641   0.832
58126W        W28007  12.353  37.950   1.247
58127W        W28008   8.294  32.600  13.991
58128W        W28009  24.038  24.099   1.449
58129W        W28010  15.294   0.884   4.219
58130W        W28011   4.931  10.332  14.425
58131W        W28012  22.205  39.482  14.028
58132W        W28013  39.978  20.613  13.849
58133W        W28014  36.473  18.287   4.716
58134W        W28015  10.698  19.764   3.364
58135W        W28016  23.242  28.162  13.499
58136W        W28017  36.083   9.667   4.678
58137W        W28018  27.186  23.648   2.413
58138W        W28019  43.784  31.421   1.930
58139W        W28020  20.757  16.238   2.182
58140W        W28021  42.346  19.242   0.312
58141W        W28022  43.461  19.575   1.867
58142W        W28023  27.029  41.444   5.177
58143W        W28024  22.618   8.786  10.461
58144W        W28025   8.339  27.071   2.398
58145W        W28026  36.953  10.247   0.887
58146W        W28027  39.534  26.479  12.365
58147W        W28028  28.974  27.621  13.450
58148W        W28029   4.772  33.055   1.371
58149W        W28030  34.573   3.843   1.781
58150W        W28031  10.358  28.091  12.866
58151W        W28032  11.681  21.108  13.547
58152W        W28033  39.047  13.107   0.737
58153W        W28034  24.586  21.057  12.959
58154W        W28035  15.819  16.603   1.809
58155W        W28036   5.744  41.000  11.399
58156W        W28037  26.586  32.025   3.238
58157W        W28038  27.150   5.736   1.319
58158W        W28039  41.315  44.447   4.657
58159W        W28040   3.243   2.249   3.177
58160W        W28041  36.452  38.821   4.275
58161W        W28042  40.507  44.460   4.154
58162W        W28043  24.489  24.150  13.368
58163W        W28044  38.072  36.500  12.981
58164W        W28045  18.673  10.321  11.967
58165W        W28046  29.550  21.078  14.462
58166W        W28047  10.214  28.981  10.601
58167W        W28048  40.516  10.725   3.711
58168W        W28049  44.337  43.821  11.019
58169W        W28050  16.230  10.736   3.309
58170W        W28051  32.027  32.092  11.067
58171W        W28052  20.739   3.253   3.264
58172W        W28053   7.743   4.872  13.009
58173W        W28054  22.079  39.875   4.754
58174W        W28055  19.153  11.356  13.949
58175W        W28056   6.716  38.937   4.802
58176W        W28057  19.103  15.320   4.703
58177W        W28058  20.644  18.251  10.520
58178W        W28059   2.449  30.020  13.991
58179W        W28060  18.054  33.410  14.782
58180W        W28061   6.803  15.168   3.844
58181W        W28062  44.320   0.344   5.179
58182W        W28063  33.953  31.426  10.509
58183W        W28064  42.414   5.931   0.410
58184W        W28065  29.937  21.740  12.969
58185W        W28066  10.339  32.027  11.077
58186W        W28067  37.436  31.051  10.473
58187W        W28068  19.235   7.680  13.029
58188W        W28069   7.831   0.412  13.961
58189W        W28070  29.522  27.986   1.849
58190W        W28071  13.842  18.178   3.159
58191W        W28072  19.655   5.203   4.151
58192W        W28073  33.543  12.627   2.411
58193W        W28074   6.897  42.029  12.494
58194W        W28075  44.357  28.674  11.385
58195W        W28076   6.417   1.350   0.895
58196W        W28077  44.304   2.878  11.473
58197W        W28078  42.283  34.583  14.881
58198W        W28079   1.464   2.234  10.446
58199W        W28080  29.995   2.840   4.728
58200W        W28081  31.406  26.465   0.338
58201W        W28082  43.361   8.342  14.345
58202W        W28083  34.899  12.359   3.346
58203W        W28084  34.939  29.516  11.411
58204W        W28085   8.732  11.696  10.977
58205W        W28086   0.789  35.397   0.419
58206W        W28087  14.653  36.841  12.370
58207W        W28088  22.180  19.215  10.045
58208W        W28089  34.909  14.315  11.890
58209W        W28090  22.703   7.838  12.468
58210W        W28091  21.559  40.797  11.948
58211W        W28092  42.914  40.009  14.886
58212W        W28093  20.701  41.361  11.864
58213W        W28094  16.593   4.734   0.397
58214W        W28095  34.938   9.313  12.936
58215W        W28096  26.010  38.560  14.990
58216W        W28097  16.108  42.410   1.777
58217W        W28098   4.218  16.161  13.880
58218W        W28099   5.740  44.307  11.110
58219W        W28100  38.358  27.108  12.974
58220W        W28101   1.926  13.640  13.433
58221W        W28102  20.140  31.917   1.420
58222W        W28103  35.392  44.812   5.310
58223W        W28104  21.126  11.270   1.345
58224W        W28105  29.570  29.522  12.532
58225W        W28106  37.521   9.652  11.948
58226W        W28107  44.364  10.844  14.286
58227W        W28108  39.511   6.757  12.496
58228W        W28109  35.456  20.053  14.466
58229W        W28110  30.474  22.558  12.076
58230W        W28111  41.399  18.567   0.248
58231W        W28112   9.794  18.191  14.296
58232W        W28113   1.972  37.346  11.128
58233W        W28114  34.594  37.858   2.679
58234W        W28115  11.154   3.375   2.258
58235W        W28116  43.290  12.671   1.852
58236W        W28117   2.309  38.403   4.335
58237W        W28118  27.095  12.312   3.154
58238W        W28119  33.499  32.522   0.268
58239W        W28120  25.100  43.890   1.228
58240W        W28121  29.632  37.869   0.403
58241W        W28122   3.956  22.135   2.409
58242W        W28123  12.167  14.824  11.996
58243W        W28124  31.006  33.412  14.293
58244W        W28125  39.963  13.832  13.795
58245W        W28126   5.727  12.700  13.833
58246W        W28127  36.980  20.737   4.734
58247W        W28128  38.040  23.530   0.797
58248W        W28129  11.186   5.775  11.920
58249W        W28130  35.915   1.329   1.790
58250W        W28131  41.360  19.205  14.988
58251W        W28132  22.190  19.084   2.259
58252W        W28133  41.999   0.312   2.227
58253W        W28134  39.433   0.423  13.429
58254W        W28135  22.241  30.493   1.849
58255W        W28136  38.349  22.031  14.494
58256W        W28137  30.534  35.020   2.827
58257W        W28138  41.341  39.445   1.829
58258W        W28139  23.123  35.475  10.611
58259W        W28140   4.815  27.158   4.166
58260W        W28141   0.978  40.339  10.541
58261W        W28142  36.023  29.493   3.385
58262W        W28143  30.979   8.270   9.946
58263W        W28144   1.454  25.126   1.890
58264W        W28145  38.373  17.203  13.061
58265W        W28146  13.229  18.248  12.948
58266W        W28147  23.178  43.791   0.243
58267W        W28148  32.057  27.463  10.115
58268W        W28149  43.934  39.005  13.414
58269W        W28150   9.242   8.676  10.964
58270W        W28151  36.372  18.231   9.960
58271W        W28152  37.844   9.840  13.009
58272W        W28153  27.986  14.205   1.812
58273W        W28154   6.809  26.035  11.418
58274W        W28155  30.161   0.967   4.612
58275W        W28156  34.864  33.912  12.061
58276W        W28157  44.379  18.131   0.798
58277W        W28158  42.477  44.280  12.002
58278W        W28159  26.964  21.550  12.376
58279W        W28160   7.787  17.219  14.410
58280W        W28161   0.924   7.219  12.466
58281W        W28162  33.087  37.518   3.733
58282W        W28163  26.651  29.026  13.879
58283W        W28164  39.511   3.712  10.921
58284W        W28165  39.871  37.068  13.326
58285W        W28166  20.547  12.623  12.343
58286W        W28167  24.583  24.722  10.455
58287W        W28168  37.930  35.875  12.909
58288W        W28169  15.631  36.446  12.550
58289W        W28170  15.707  14.639   3.643
58290W        W28171   5.294  38.991   2.774
58291W        W28172  16.263   2.880   0.822
58292W        W28173   6.280  30.973   2.397
58293W        W28174  44.450   8.162   3.703
58294W        W28175  25.623  19.053   0.348
58295W        W28176  24.629  43.811  13.038
58296W        W28177   7.310  12.693  13.404
58297W        W28178  39.943   0.457  12.353
58298W        W28179   6.386  40.463  14.418
58299W        W28180   6.905  34.897  12.496
58300W        W28181  28.127  38.888  12.030
58301W        W28182  10.150  15.751   0.271
58302W        W28183  32.531  13.660  12.845
58303W        W28184  25.657  30.145  13.022
58304W        W28185  24.038   3.298  13.340
58305W        W28186  27.153  31.035   3.797
58306W        W28187  31.965  19.688  13.968
58307W        W28188   5.819  32.952  14.871
58308W        W28189  36.472   8.185   1.865
58309W        W28190  26.652  21.610   4.166
58310W        W28191  30.473   4.710   1.724
58311W        W28192  35.490  11.320  12.345
58312W        W28193  13.793  30.526   3.367
58313W        W28194  30.997  17.633  13.459
58314W        W28195   2.898  28.498   0.905
58315W        W28196  10.148  23.591   5.184
58316W        W28197  33.421  31.450   1.309
58317W        W28198   0.493  15.593  13.894
58318W        W28199  42.387   4.414   4.287
58319W        W28200  39.908  12.696  10.952
58320W        W28201  19.139  10.686   2.851
58321W        W28202  20.596  27.114  11.470
58322W        W28203  33.901   8.175  10.485
58323W        W28204  15.616  20.043  12.459
58324W        W28205   1.253  22.529  13.999
58325W        W28206  25.091   4.721  14.773
58326W        W28207  32.576  35.491   0.886
58327W        W28208  41.531  42.461   0.305
58328W        W28209  30.076  21.529   1.247
58329W        W28210  37.013   3.266  14.436
58330W        W28211   2.879  36.421  11.035
58331W        W28212  21.673  27.991   0.386
58332W        W28213  31.629  38.997   3.147
58333W        W28214   8.658  43.335   0.261
58334W        W28215   5.699  40.032   1.415
58335W        W28216  41.389  31.503  10.457
58336W        W28217  14.773  31.975   4.788
58337W        W28218  37.947  37.020   0.287
58338W        W28219  41.803  18.690  13.905
58339W        W28220  11.175  17.676   3.304
58340W        W28221  38.901  17.644  14.761
58341W        W28222   5.834  33.533  12.865
58342W        W28223  10.187   9.236   0.372
58343W        W28224  38.977  31.940  12.357
58344W        W28225  40.510  34.055   3.755
58345W        W28226   2.292  17.284  11.495
58346W        W28227   6.739   5.765   0.962
58347W        W28228  26.056  21.112  12.085
58348W        W28229  18.088  38.448  11.994
58349W        W28230  12.205   9.801   4.641
58350W        W28231  40.037  35.560   1.829
58351W        W28232   3.727  33.552   2.279
58352W        W28233  38.362  44.760   1.837
58353W        W28234  34.106  31.100   1.275
58354W        W28235  23.552  36.061  11.433
58355W        W28236  27.047  31.570   0.908
58356W        W28237  24.613  44.464   1.297
58357W        W28238  32.481   5.405  14.304
58358W        W28239  28.080  41.412  14.400
58359W        W28240   2.245  12.818  14.466
58360W        W28241  35.992  13.194  13.458
58361W        W28242  11.243  40.318  13.893
58362W        W28243  36.410  31.464  11.513
58363W        W28244  43.329  39.323   0.895
58364W        W28245  16.121   2.392  10.438
58365W        W28246  14.295  30.624   0.936
58366W        W28247   6.313   6.214   3.362
58367W        W28248   7.866  14.658  11.497
58368W        W28249  41.493  28.959  12.953
58369W        W28250  10.853  15.704  14.372
58370W        W28251  14.226  14.193   2.717
58371W        W28252  11.766  25.087  11.880
58372W        W28253  21.548  28.550   1.869
58373W        W28254   9.812  25.574   0.727
58374W        W28255  12.152   1.795   2.854
58375W        W28256  22.211  24.035  13.834
58376W        W28257  16.749  14.591  14.348
58377W        W28258  28.546  20.244  10.407
58378W        W28259   6.888  31.139   1.904
58379W        W28260  27.035  36.508   1.288
58380W        W28261  36.502   6.210   1.296
58381W        W28262  12.730  18.161  13.497
58382W        W28263  35.944  23.987   4.609
58383W        W28264  16.778  42.827  13.369
58384W        W28265  22.595   3.368   0.398
58385W        W28266  31.936  37.377   0.921
58386W        W28267   6.196  24.585   1.300
58387W        W28268  29.617   5.879  12.914
58388W        W28269  39.349  38.389   1.385
58389W        W28270  13.339  27.457  14.330
58390W        W28271  28.657   5.854   4.319
58391W        W28272  17.253  20.746  13.959
58392W        W28273  40.545   5.710   3.373
58393W        W28274  44.976  22.007  10.608
58394W        W28275   8.656  44.462   2.198
58395W        W28276  37.522  24.664   3.165
58396W        W28277   9.720  41.533   1.312
58397W        W28278  24.644  13.751   3.661
58398W        W28279   8.862  27.687  14.356
58399W        W28280  28.138  44.469   5.184
58400W        W28281  27.956   2.958  11.882
58401W        W28282  14.716  10.303  14.816
58402W        W28283   1.393  21.654   1.865
58403W        W28284  16.621  29.643  13.007
58404W        W28285  38.445   5.249   0.322
58405W        W28286  44.439  35.079   4.210
58406W        W28287  20.245  14.191   4.242
58407W        W28288  25.521  22.148   4.714
58408W        W28289  23.645   1.279   3.739
58409W        W28290  33.004  40.945   1.703
58410W        W28291  23.722  18.715   2.369
58411W        W28292  15.170  31.123  11.987
58412W        W28293  18.228  34.571  12.510
58413W        W28294  24.977   9.226  11.113
58414W        W28295   4.340  39.945   0.743
58415W        W28296  11.356  15.321  12.046
58416W        W28297   1.313  16.624  13.022
58417W        W28298  30.942   2.953   2.758
58418W        W28299  43.285  36.972   2.794
58419W        W28300  36.364  18.273   4.126
58420W        W28301  35.510  39.340  10.523
58421W        W28302  43.988  20.234   2.862
58422W        W28303  21.634   5.409  14.893
58423W        W28304  43.506   7.896   4.139
58424W        W28305  28.947   7.864   1.704
58425W        W28306  11.709  31.154  13.408
58426W        W28307   2.308   2.299   0.751
58427W        W28308  39.042  35.924   0.744
58428W        W28309  31.629   8.783  14.387
58429W        W28310  40.875  21.149  11.947
58430W        W28311   8.878  16.247   3.257
58431W        W28312  31.458   3.752  12.040
58432W        W28313  11.783  15.178   2.757
58433W        W28314  23.141  11.684   1.705
58434W        W28315  15.692  36.894   5.588
58435W        W28316  29.626  27.183   4.287
58436W        W28317   9.882   8.228   2.675
58437W        W28318  36.364  12.311   4.157
58438W        W28319   1.799  41.878  10.506
58439W        W28320  16.689  28.477   1.219
58440W        W28321   5.287   8.212   0.741
58441W        W28322   6.412  23.603  12.080
58442W        W28323   9.659  44.897   4.616
58443W        W28324  18.553  44.440   1.420
58444W        W28325   2.370   8.268  14.945
58445W        W28326  41.043   1.314   3.247
58446W        W28327  24.131  31.526   2.345
58447W        W28328  36.040  43.912   2.399
58448W        W28329  18.781  40.895  13.359
58449W        W28330   7.769  24.645   3.321
58450W        W28331  18.642  16.258   0.383
58451W        W28332  21.227  27.081   5.191
58452W        W28333  23.227  44.485  11.611
58453W        W28334  27.103  19.568  10.900
58454W        W28335  15.129  38.328   2.339
58455W        W28336  28.028  44.817   0.828
58456W        W28337   5.300  38.965  10.427
58457W        W28338  42.801  26.554  14.323
58458W        W28339  14.757  37.500   2.227
58459W        W28340  33.482   3.829   3.844
58460W        W28341  20.266  44.769   5.101
58461W        W28342  37.924  33.029   1.241
58462W        W28343  37.942  20.242  14.420
58463W        W28344  22.047  42.384  10.411
58464W        W28345   6.281  41.896  11.049
58465W        W28346   3.738  19.567   0.432
58466W        W28347  17.616  43.975   3.344
58467W        W28348   2.960  42.486  14.372
58468W        W28349   2.388  18.096   4.672
58469W        W28350  23.571   8.676  11.061
58470W        W28351  37.860  17.754  14.433
58471W        W28352  30.935  27.981  12.374
58472W        W28353  16.159  29.037  10.412
58473W        W28354  42.377   1.274   2.198
58474W        W28355  35.429  11.835  14.765
58475W        W28356  10.144  17.558  10.902
58476W        W28357  12.236  37.033  12.342
58477W        W28358  14.286  21.747  12.075
58478W        W28359  24.185  44.757  12.964
58479W        W28360  10.312   4.215  13.885
58480W        W28361  10.331   6.741  10.559
58481W        W28362  38.958  21.694  10.584
58482W        W28363  25.005   5.728  11.991
58483W        W28364  18.084  10.296  13.852
58484W        W28365   3.931  16.755   4.715
58485W        W28366   0.476   5.409   1.874
58486W        W28367  33.059   6.850   3.787
58487W        W28368  36.846  43.436  10.951
58488W        W28369  22.588   9.688  10.543
58489W        W28370  21.612  26.589  14.422
58490W        W28371  22.674   8.165   2.723
58491W        W28372   5.357  43.827  13.827
58492W        W28373  12.203  19.668  14.000
58493W        W28374   5.222  13.275   1.395
58494W        W28375  26.506  17.717   1.340
58495W        W28376   0.854  39.048   3.226
58496W        W28377  14.329  14.280   0.926
58497W        W28378  18.595  41.839   2.326
58498W        W28379  31.905   5.225   2.211
58499W        W28380  23.202  12.680   2.348
58500W        W28381  35.054   5.198  13.031
58501W        W28382  23.700  40.996   1.295
58502W        W28383  27.983  34.977   2.859
58503W        W28384  44.481  28.156  13.886
58504W        W28385  19.567   9.872   1.311
58505W        W28386  24.048  12.177  14.881
58506W        W28387  16.178  14.596   4.161
58507W        W28388  44.458  38.974   4.772
58508W        W28389  44.791  18.292   4.335
58509W        W28390   0.436   2.964  12.848
58510W        W28391  43.998  15.680   4.300
58511W        W28392  11.302  12.807  13.514
58512W        W28393   5.757   0.904   4.120
58513W        W28394  19.699  11.174   4.185
58514W        W28395  24.555  10.654  11.506
58515W        W28396  11.864  34.961  14.296
58516W        W28397  40.828  19.706  11.910
58517W        W28398   5.409   9.694   0.816
58518W        W28399   2.387  19.755   3.224
58519W        W28400   0.375  19.075   2.312
58520W        W28401  39.552   9.693   1.373
58521W        W28402  35.101  27.525   2.216
58522W        W28403  36.901  34.522  14.773
58523W        W28404  38.002  40.337  10.502
58524W        W28405  29.596  26.161   1.930
58525W        W28406   7.708  30.449  11.859
58526W        W28407  35.961  42.480  13.434
58527W        W28408  44.006  30.104   4.301
58528W        W28409   7.846   6.217  12.579
58529W        W28410  37.867   6.331   1.409
58530W        W28411  16.672  40.881   3.871
58531W        W28412   7.857  23.218  14.421
58532W        W28413  15.791  10.267   4.632
58533W        W28414   7.363   1.932  10.938
58534W        W28415  21.056  18.719  11.881
58535W        W28416  28.618  32.020   3.150
58536W        W28417   6.709  23.140   1.424
58537W        W28418  40.033  25.565  12.872
58538W        W28419  17.584  24.666  11.546
58539W        W28420  20.242   3.842  13.325
58540W        W28421  20.695  18.551   0.896
58541W        W28422  15.816  20.584   1.914
58542W        W28423  43.320  23.600   0.861
58543W        W28424  23.673   2.905   1.804
58544W        W28425  33.418  41.451   0.956
58545W        W28426  37.559  29.951  12.351
58546W        W28427  41.353  38.821  12.085
58547W        W28428  42.923  31.554  10.441
58548W        W28429   0.345  12.653   1.376
58549W        W28430  17.213  21.257   3.710
58550W        W28431  44.805  42.451  13.498
58551W        W28432  14.827   2.733   1.934
58552W        W28433  23.511  18.727   4.832
58553W        W28434  21.642  35.515   0.262
58554W        W28435  22.626   6.329   0.356
58555W        W28436   3.920  18.695   2.848
58556W        W28437  30.566   9.296   0.269
58557W        W28438  26.007  33.411   3.373
58558W        W28439  15.788  30.127  12.992
58559W        W28440   9.650  29.542  12.578
58560W        W28441  32.493  13.638  10.533
58561W        W28442  15.202  31.532   2.796
58562W        W28443  39.860  26.194  12.404
58563W        W28444  43.807  42.798  11.589
58564W        W28445   9.354  30.996   2.800
58565W        W28446  41.846  11.751   9.979
58566W        W28447  34.863   4.301   1.806
58567W        W28448  35.917  44.312  14.011
58568W        W28449  25.015   8.748   0.318
58569W        W28450  30.118  33.414  11.063
58570W        W28451  16.787   7.718  13.823
58571W        W28452   2.348  18.120   2.892
58572W        W28453  32.490  22.685  14.844
58573W        W28454   5.733  43.897   0.813
58574W        W28455  15.770  44.953   3.173
58575W        W28456  33.024  32.980   0.781
58576W        W28457  16.576  11.669   4.820
58577W        W28458   5.336  15.327   1.382
58578W        W28459  39.490   5.249  12.419
58579W        W28460  40.423  36.025   3.285
58580W        W28461  31.482  35.973   3.375
58581W        W28462  32.498  31.471   4.140
58582W        W28463  22.711  15.248   4.336
58583W        W28464  24.662  20.543   0.819
58584W        W28465  31.471  40.830   2.204
58585W        W28466  24.716  40.938  12.970
58586W        W28467   2.269  13.295   3.165
58587W        W28468  28.096  28.606   1.269
58588W        W28469   3.343  10.223  13.942
58589W        W28470  42.868  18.668  11.511
58590W        W28471  15.215   8.224  13.962
58591W        W28472  19.549  15.603  10.432
58592W        W28473  19.678   5.746  11.607
58593W        W28474   6.407   6.709   3.648
58594W        W28475  40.992  26.160   0.448
58595W        W28476   2.939   5.864  12.900
58596W        W28477  31.546   7.187  10.514
58597W        W28478  30.984  29.081   3.836
58598W        W28479  40.002  24.672  14.803
58599W        W28480  34.607  16.575   0.481
58600W        W28481  15.661   7.412  11.921
58601W        W28482   8.373  31.938   1.233
58602W        W28483  26.598   2.805  14.288
58603W        W28484  15.651  16.669  12.965
58604W        W28485  36.945  15.684  10.467
58605W        W28486  32.476  23.195   0.883
58606W        W28487  28.652  17.135  13.504
58607W        W28488  12.126  39.360  12.879
58608W        W28489  28.034  35.965  14.474
58609W        W28490  19.091  13.752   3.368
58610W        W28491  24.094  19.614   2.406
58611W        W28492  42.410  34.966   1.397
58612W        W28493  21.241  44.329   0.289
58613W        W28494   5.783  37.355  13.902
58614W        W28495   6.876  14.675  14.977
58615W        W28496   9.167  11.188  13.923
58616W        W28497   3.419  42.988   0.365
58617W        W28498  35.910  33.468  12.356
58618W        W28499  24.563  39.537  12.956
58619W        W28500  11.748  26.502   4.312
58620W        W28501   9.824  21.734   0.915
58621W        W28502  37.959  44.825   0.420
58622W        W28503  10.140  22.733   2.670
58623W        W28504  24.140  36.485   0.246
58624W        W28505  36.885   0.284   1.865
58625W        W28506  29.133  11.229  12.051
58626W        W28507  32.474  33.877  10.571
58627W        W28508  37.432  21.630  10.404
58628W        W28509  15.178  23.508  13.937
58629W        W28510   1.389  37.975  14.297
58630W        W28511   6.686  18.198  12.433
58631W        W28512  26.193  18.546  13.538
58632W        W28513   6.337   9.246  11.491
58633W        W28514  36.485  13.219   2.317
58634W        W28515  13.114  24.486   4.601
58635W        W28516  22.022  36.348   4.352
58636W        W28517  16.650  41.333  13.536
58637W        W28518   3.923  31.145   0.740
58638W        W28519  36.359  22.153   0.447
58639W        W28520  34.892   3.803  14.904
58640W        W28521  17.641  38.984   1.875
58641W        W28522  33.403   5.756   1.755
58642W        W28523  34.033  14.114  13.897
58643W        W28524  37.014  22.075   3.651
58644W        W28525  11.143  36.403   0.469
58645W        W28526  26.017  13.633   4.248
58646W        W28527   3.817  30.650  14.863
58647W        W28528  25.122   6.206  14.324
58648W        W28529  33.093  14.141   4.200
58649W        W28530   5.699  44.837  12.565
58650W        W28531  31.027  34.864   3.376
58651W        W28532  20.228  36.935   3.150
58652W        W28533  24.697   1.295   4.758
58653W        W28534  22.702   6.298   1.910
58654W        W28535  34.949  15.231  11.391
58655W        W28536  16.318   6.302  10.516
58656W        W28537   2.880  34.946  11.105
58657W        W28538  41.799   8.361   3.362
58658W        W28539  34.592  27.470   4.171
58659W        W28540  11.308   2.870   1.773
58660W        W28541  18.208   4.400   1.729
58661W        W28542  17.791  28.611  10.920
58662W        W28543  23.662   2.729  11.886
58663W        W28544   6.917  11.340  10.484
58664W        W28545  31.402   6.684   2.191
58665W        W28546  16.167  44.411   4.812
58666W        W28547  18.220  33.477   4.746
58667W        W28548   6.904  11.680  12.858
58668W        W28549  30.031  23.121  13.031
58669W        W28550  37.901  27.491   2.847
58670W        W28551  42.468   2.388   4.277
58671W        W28552  20.062  27.019  12.412
58672W        W28553  28.090  23.006  14.930
58673W        W28554  24.101   2.279   4.754
58674W        W28555  32.458  37.352   2.364
58675W        W28556  42.964   8.369   2.196
58676W        W28557   0.435   6.271   4.763
58677W        W28558  41.457  16.666   3.653
58678W        W28559  35.585  15.302  13.993
58679W        W28560   8.685   3.329  11.004
58680W        W28561  24.210   5.859  11.957
58681W        W28562   1.845   4.408  13.892
58682W        W28563  36.471  42.322   4.633
58683W        W28564  14.752  23.172   2.833
58684W        W28565  11.139  38.847   3.643
58685W        W28566  40.545  39.930  13.944
58686W        W28567  34.974   3.291  11.996
58687W        W28568  23.089  18.122   0.761
58688W        W28569   3.398  36.425   2.206
58689W        W28570  36.096  35.900   1.318
58690W        W28571  26.548   6.260   2.260
58691W        W28572  19.074  20.549   0.915
58692W        W28573  36.453   6.315   2.357
58693W        W28574  17.674  32.942   2.702
58694W        W28575  30.569  37.946  14.362
58695W        W28576  26.064  34.598  12.062
58696W        W28577   1.897   9.804  12.075
58697W        W28578   5.711  33.510  10.404
58698W        W28579   1.820  31.608  10.429
58699W        W28580  33.410  26.052  13.896
58700W        W28581  35.922  28.535   4.244
58701W        W28582  44.945  12.771   2.408
58702W        W28583   9.787  32.583  11.917
58703W        W28584  17.646   3.809   0.366
58704W        W28585   6.387  18.641  10.521
58705W        W28586  38.902  11.163  10.523
58706W        W28587   3.384  17.156   3.754
58707W        W28588   4.210  15.637  13.358
58708W        W28589   8.830   8.667   1.769
58709W        W28590  42.363  13.341  10.433
58710W        W28591   3.768  13.109   3.632
58711W        W28592  11.774  17.116   4.165
58712W        W28593  29.641  15.257   2.189
58713W        W28594   8.330  23.550  13.816
58714W        W28595  12.804  18.626  11.856
58715W        W28596  39.911  22.631  14.275
58716W        W28597  29.098  42.912  14.819
58717W        W28598  13.695   0.880   0.371
58718W        W28599  16.647  25.591  10.574
58719W        W28600  32.016  10.690   1.736
58720W        W28601  14.288  13.229   5.089
58721W        W28602  21.665  31.533  11.547
58722W        W28603  37.852   0.413   4.336
58723W        W28604  16.285  12.133   4.238
58724W        W28605  35.445  43.791  11.463
58725W        W28606  27.146  28.979  13.921
58726W        W28607  14.097   1.911   2.878
58727W        W28608  26.601   5.216   2.369
58728W        W28609  29.043   8.336   4.145
58729W        W28610  14.162  26.975   1.705
58730W        W28611  42.339  19.222  11.470
58731W        W28612   5.700  22.092  13.060
58732W        W28613  39.027  18.180   3.198
58733W        W28614  16.647  34.478  14.898
58734W        W28615  41.941  39.817   0.831
58735W        W28616  43.767  25.037  11.913
58736W        W28617  26.688  33.094  12.492
58737W        W28618  16.151  30.557  14.349
58738W        W28619  34.614  15.794   1.831
58739W        W28620  27.942  21.211  11.867
58740W        W28621  21.116  41.490  11.089
58741W        W28622  22.042  34.537   0.825
58742W        W28623   8.206  20.188  12.084
58743W        W28624  36.378  37.034   3.680
58744W        W28625  11.210  17.214  10.450
58745W        W28626  11.821  25.996  12.898
58746W        W28627  28.638   6.841   3.212
58747W        W28628  34.590  38.074   0.885
58748W        W28629  29.467  34.485   0.435
58749W        W28630   1.364  26.529   3.691
58750W        W28631  44.961  36.475  13.347
58751W        W28632  40.944   8.240  12.562
58752W        W28633  39.058  14.236   2.753
58753W        W28634  22.729   1.882  11.015
58754W        W28635  16.787  34.884   4.261
58755W        W28636  31.023  27.090  14.465
58756W        W28637  16.787  14.662   4.296
58757W        W28638  36.469  27.448  11.462
58758W        W28639  15.712   3.800   1.901
58759W        W28640  15.690  44.422   0.856
58760W        W28641   0.767  35.377   1.233
58761W        W28642  42.900  34.486   0.368
58762W        W28643  41.374   4.389   1.770
58763W        W28644  37.068  39.888  12.863
58764W        W28645  27.535  32.967  11.107
58765W        W28646  24.209  20.629  11.093
58766W        W28647  24.229  22.565   3.730
58767W        W28648  35.542  17.649  11.125
58768W        W28649  44.456  17.765   1.791
58769W        W28650  39.975  39.874  13.010
58770W        W28651   3.900  18.184   2.706
58771W        W28652   9.735  42.388  12.406
58772W        W28653  20.196  21.628   1.291
58773W        W28654   7.742  37.539   1.387
58774W        W28655  41.455  42.435   1.374
58775W        W28656   7.175  15.629  14.291
58776W        W28657   5.764  10.288  12.027
58777W        W28658  40.426  20.152  13.849
58778W        W28659  33.046   2.390   4.819
58779W        W28660   3.827   8.786  12.955
58780W        W28661  35.919  35.570  11.905
58781W        W28662   9.721  10.792  11.540
58782W        W28663  34.897  20.211  14.486
58783W        W28664  40.004   0.946   2.857
58784W        W28665  20.640  36.856   4.295
58785W        W28666  37.968  35.901  11.954
58786W        W28667  11.364  25.990   0.894
58787W        W28668   8.725  22.037   2.388
58788W        W28669  26.026  43.804   4.746
58789W        W28670  15.819  41.990  13.920
58790W        W28671  20.176  28.065   3.181
58791W        W28672  43.019  42.325   3.716
58792W        W28673  17.580   6.910  13.060
58793W        W28674  25.509   7.793  13.944
58794W        W28675  26.613  22.072  14.511
58795W        W28676  22.593   9.644   1.732
58796W        W28677  37.948   5.274   4.322
58797W        W28678  18.570  34.379  10.523
58798W        W28679   0.966  25.496  11.997
58799W        W28680  19.154  21.235   1.708
58800W        W28681  41.843  41.488  11.412
58801W        W28682  35.938  11.664  12.525
58802W        W28683  42.292  41.798   3.728
58803W        W28684  33.547  25.629  10.643
58804W        W28685  18.179   1.818  12.447
58805W        W28686  22.684  21.039  11.082
58806W        W28687  40.450  14.257  11.541
58807W        W28688  11.193  33.022  11.953
58808W        W28689  44.775   9.861  13.428
58809W        W28690  13.198   4.872  10.430
58810W        W28691  42.007   7.741  14.931
58811W        W28692   4.740  24.684   0.407
58812W        W28693  44.799  40.838   4.236
58813W        W28694  12.694  38.910  13.818
58814W        W28695  29.127   0.892   4.313
58815W        W28696   5.890  31.535  14.447
58816W        W28697  33.947  33.068  13.910
58817W        W28698  23.117   1.799  13.840
58818W        W28699   1.334   7.785   4.285
58819W        W28700  40.977  23.676  14.916
58820W        W28701  18.269  30.564   2.184
58821W        W28702  19.741  30.631  10.154
58822W        W28703  20.644  42.522   2.199
58823W        W28704  30.589  36.070   0.779
58824W        W28705   2.783  35.487   4.250
58825W        W28706  20.258  34.454  11.447
58826W        W28707  23.077  42.917  11.027
58827W        W28708  36.998  24.485   0.897
58828W        W28709  33.503  18.104   2.310
58829W        W28710  43.927   6.803  10.968
58830W        W28711  20.523  25.012  13.023
58831W        W28712  23.604  33.597  14.448
58832W        W28713   2.461  28.508  14.847
58833W        W28714  30.619  22.030  13.504
58834W        W28715  32.934  37.029   2.852
58835W        W28716  39.047  23.634   2.883
58836W        W28717  32.544   8.356  14.870
58837W        W28718  12.166  18.724  13.462
58838W        W28719  19.707  15.696   0.933
58839W        W28720   3.928  43.339  10.441
58840W        W28721  44.999  30.586  11.124
58841W        W28722  33.875  44.290   4.665
58842W        W28723  37.428   7.213  13.875
58843W        W28724   7.875  17.266   4.739
58844W        W28725  40.365  12.181  12.340
58845W        W28726  14.309  19.211  14.332
58846W        W28727   8.782   5.800   3.811
58847W        W28728  29.942  41.427   0.870
58848W        W28729  33.531   4.923   3.871
58849W        W28730  14.202   1.817   0.815
58850W        W28731  10.718  15.609  10.617
58851W        W28732  17.301  24.693  10.421
58852W        W28733   2.758  12.612   0.846
58853W        W28734  25.008  32.924  13.026
58854W        W28735  18.181  15.817  12.403
58855W        W28736  17.243  26.972  12.080
58856W        W28737   3.932  30.446  14.461
58857W        W28738  11.332  32.118  10.512
58858W        W28739  29.072  21.048  12.355
58859W        W28740  34.941  28.587  11.400
58860W        W28741  33.511  16.141   0.762
58861W        W28742  15.271  16.140  14.842
58862W        W28743  27.632  29.485   2.182
58863W        W28744   5.436  38.519   4.686
58864W        W28745  20.586   9.789   2.370
58865W        W28746  37.366   2.814  10.587
58866W        W28747   0.476   1.331  12.489
58867W        W28748   8.228  26.034  13.393
58868W        W28749  36.858  21.204  13.914
58869W        W28750  10.709  21.192  14.408
58870W        W28751  27.051  36.057   3.781
58871W        W28752  42.995  25.655   1.785
58872W        W28753  23.086  16.299  13.973
58873W        W28754  23.151  26.032  11.554
58874W        W28755  40.052  38.826  14.333
58875W        W28756  25.500  11.685   1.381
58876W        W28757  32.137   9.213  11.969
58877W        W28758  16.217  19.679   1.794
58878W        W28759  23.102  13.612   2.866
58879W        W28760  36.472  15.186  12.497
58880W        W28761  18.671   0.975  10.925
58881W        W28762  11.372  44.901   0.945
58882W        W28763  24.137   4.324   0.277
58883W        W28764   8.273  35.047  11.107
58884W        W28765  10.202  16.098   0.874
58885W        W28766   3.893  26.095  10.625
58886W        W28767  38.534  34.974   3.783
58887W        W28768  37.575  19.669  10.924
58888W        W28769  38.486  21.640  13.875
58889W        W28770  42.817  41.465   4.180
58890W        W28771   9.884  41.837   2.225
58891W        W28772  27.656  32.452   2.227
58892W        W28773  32.995  37.022   0.769
58893W        W28774  27.069  25.539  11.461
58894W        W28775  29.133   9.884  11.862
58895W        W28776  32.988   7.253   4.263
58896W        W28777  12.356  34.088  10.456
58897W        W28778  17.724   6.909  14.337
58898W        W28779  37.400  18.087   3.384
58899W        W28780  43.448   5.392   3.727
58900W        W28781   7.310  32.390   0.321
58901W        W28782  27.112  22.731  12.828
58902W        W28783  31.444  44.503  14.368
58903W        W28784  29.499  17.128  14.472
58904W        W28785  39.894   1.896  14.457
58905W        W28786  24.974  15.759  14.301
58906W        W28787  38.520  19.226   3.816
58907W        W28788  40.973  43.501  12.562
58908W        W28789  29.455   0.957  12.562
58909W        W28790   5.695  23.190  14.982
58910W        W28791  17.557  33.121   0.463
58911W        W28792  31.094  39.974   4.246
58912W        W28793   3.300  16.706   3.722
58913W        W28794  19.237  43.808  14.431
58914W        W28795  16.160  25.705   0.864
58915W        W28796  18.596  40.318  13.544
58916W        W28797  13.344  33.504   4.286
58917W        W28798  23.516   6.323  12.950
58918W        W28799  11.702  26.083   3.788
58919W        W28800  38.383   6.864   3.818
58920W        W28801   1.278   0.302   1.224
58921W        W28802  25.501  27.622  14.944
58922W        W28803  21.218  22.049   2.664
58923W        W28804   0.470  14.312   3.759
58924W        W28805  24.992   1.958  13.501
58925W        W28806   7.281  31.587  10.471
58926W        W28807  43.782  10.289   0.765
58927W        W28808  17.152  26.645  11.557
58928W        W28809   0.360  41.378  11.082
58929W        W28810  30.999  11.149   4.659
58930W        W28811  28.068  23.545   2.260
58931W        W28812   2.919  10.178   0.475
58932W        W28813  12.178  42.794   4.699
58933W        W28814  43.927  23.595   3.661
58934W        W28815   2.345  32.142  10.413
58935W        W28816  25.513  28.041   1.309
58936W        W28817  12.189  13.166   4.130
58937W        W28818  44.936  11.810  14.280
58938W        W28819  30.918  23.728   1.719
58939W        W28820  15.694  17.653  13.437
58940W        W28821  26.656   0.746   0.405
58941W        W28822  25.697  26.517  12.895
58942W        W28823  43.001   7.704  10.936
58943W        W28824  25.599  39.314   0.352
58944W        W28825   9.178  27.607  10.970
58945W        W28826   3.753   0.941  13.004
58946W        W28827  31.962   7.815   2.393
58947W        W28828  32.524  41.012   4.766
58948W        W28829  39.465  19.163  13.547
58949W        W28830   5.886   5.424  10.443
58950W        W28831  39.338   1.332   3.718
58951W        W28832  32.082  13.750  12.404
58952W        W28833  32.102  23.997   1.806
58953W        W28834  32.101   9.881   0.811
58954W        W28835  38.540  35.367   2.854
58955W        W28836  23.039   5.825  13.527
58956W        W28837  16.696  22.587  11.015
58957W        W28838  29.147  32.635  10.977
58958W        W28839  12.146  10.205   4.265
58959W        W28840   2.735  19.212  10.986
58960W        W28841  41.502   0.933  13.310
58961W        W28842   4.764  39.508  10.557
58962W        W28843   4.440  24.594   1.781
58963W        W28844  22.746  18.208  10.497
58964W        W28845  26.692  40.891   2.766
58965W        W28846   7.888  27.977  12.025
58966W        W28847  38.489  16.145   0.774
58967W        W28848   1.910  27.984  12.909
58968W        W28849   3.759  21.670   1.839
58969W        W28850  37.927  37.992  11.557
58970W        W28851  39.923   9.722  13.894
58971W        W28852  32.607  17.245   0.766
58972W        W28853  44.495  24.154  13.899
58973W        W28854  22.031  41.369   1.228
58974W        W28855  29.512  13.779  11.910
58975W        W28856  38.358  20.679  13.941
58976W        W28857  21.181  10.782  11.051
58977W        W28858   8.272   1.343  14.835
58978W        W28859  28.964  27.022   4.680
58979W        W28860  27.457  21.748  11.884
58980W        W28861   1.860  17.762  13.993
58981W        W28862  12.209  39.823  13.860
58982W        W28863  17.657  29.488   4.659
58983W        W28864  36.467  43.386  10.522
58984W        W28865  30.586  29.484  12.981
58985W        W28866  34.003  17.629  14.307
58986W        W28867  24.640  21.231   0.433
58987W        W28868  39.938  16.728   3.764
58988W        W28869  18.694  19.087  11.968
58989W        W28870  28.538   2.747   1.706
58990W        W28871  39.842  33.423  10.618
58991W        W28872  11.714  32.075   1.242
58992W        W28873  37.351   0.438  12.382
58993W        W28874  36.381  22.234  14.013
58994W        W28875   0.358  36.847   4.215
58995W        W28876   0.882   1.388   2.849
58996W        W28877   3.411  29.136  11.868
58997W        W28878  17.750  34.035  14.028
58998W        W28879  12.791  40.389   4.226
58999W        W28880   5.369  41.855  14.377
59000W        W28881  18.754  36.569  12.842
59001W        W28882  44.998   8.270   4.150
59002W        W28883  33.617  24.677   2.804
59003W        W28884  44.306  15.777   4.153
59004W        W28885  17.783  12.220   4.188
59005W        W28886  31.118  44.831  11.412
59006W        W28887  34.443  28.959   3.369
59007W        W28888  11.231  43.966   1.322
59008W        W28889  16.588  28.582   2.199
59009W        W28890  11.695  42.019  11.042
59010W        W28891  11.357  19.652   0.313
59011W        W28892   1.468  21.088   4.354
59012W        W28893  28.503   7.232  13.448
59013W        W28894  31.512  18.784   4.174
59014W        W28895  17.579  21.132  10.434
59015W        W28896  32.029  15.688  11.881
59016W        W28897  29.610  25.502   2.699
59017W        W28898   1.866   2.276   1.879
59018W        W28899  34.608   3.317  11.037
59019W        W28900  41.856  18.210  13.395
59020W        W28901   7.396  32.556   3.737
59021W        W28902  40.926   8.899   1.720
59022W        W28903  18.610  34.483   1.235
59023W        W28904   5.307  22.026  13.033
59024W        W28905   8.856  34.888   4.651
59025W        W28906  13.703  34.889  12.041
59026W        W28907  28.037  22.719  10.404
59027W        W28908  39.553  25.477  11.508
59028W        W28909  34.060  31.974  11.503
59029W        W28910   0.883  24.714  13.059
59030W        W28911  43.458  25.169   1.229
59031W        W28912  35.987  18.111  10.433
59032W        W28913   2.791  31.555   4.697
59033W        W28914   1.392  20.148   3.831
59034W        W28915  26.634  19.544  13.429
59035W        W28916  25.037  33.408  10.539
59036W        W28917  35.016   4.347  14.302
59037W        W28918  40.923   3.393  10.437
59038W        W28919  24.076  11.172  11.482
59039W        W28920   8.400  37.517  14.366
59040W        W28921  22.171   7.843  14.762
59041W        W28922   3.377   5.209   1.860
59042W        W28923   3.329  23.238  13.804
59043W        W28924  19.720  31.921   4.688
59044W        W28925   5.346  14.277   2.889
59045W        W28926  28.515  34.028   0.932
59046W        W28927  37.963  38.979   0.839
59047W        W28928  36.497  16.720   2.781
59048W        W28929  44.915   1.737  14.993
59049W        W28930  33.407  10.245   4.128
59050W        W28931  15.138  17.594  11.038
59051W        W28932  23.171  34.955  12.824
59052W        W28933  18.699  38.011  11.117
59053W        W28934  39.521  32.527  12.445
59054W        W28935  34.885   6.340  10.491
59055W        W28936  38.511   1.266  10.939
59056W        W28937  14.101   7.238  14.352
59057W        W28938  19.678  14.833   2.235
59058W        W28939  21.734  24.500   1.891
59059W        W28940  23.717  15.666  13.042
59060W        W28941  18.771  23.623  14.424
59061W        W28942  13.771  10.778  12.577
59062W        W28943  38.037  19.542   4.178
59063W        W28944  41.517  19.664  14.501
59064W        W28945  30.603  31.974  11.470
59065W        W28946  15.157  44.480  12.860
59066W        W28947  24.187  34.503   2.195
59067W        W28948  35.984  28.145  12.926
59068W        W28949  33.417  21.722  10.466
59069W        W28950  28.034  27.583  10.617
59070W        W28951  29.025   0.279  11.941
59071W        W28952  42.416  20.145   4.748
59072W        W28953  15.126   1.388   2.738
59073W        W28954  42.371  15.662   4.671
59074W        W28955  19.705  31.958   5.236
59075W        W28956  20.125  23.065  14.892
59076W        W28957   0.828  36.371  10.490
59077W        W28958   4.713  23.686   2.754
59078W        W28959  32.413   9.222  11.078
59079W        W28960  37.558  13.309   0.350
59080W        W28961  10.364  30.056  14.771
59081W        W28962  30.914  11.311   2.894
59082W        W28963  43.837  28.575  12.008
59083W        W28964   8.803  43.988   2.234
59084W        W28965  36.959   4.381   4.726
59085W        W28966  36.479  44.995  10.635
59086W        W28967  22.594   2.330  11.381
59087W        W28968  44.771  22.023  11.555
59088W        W28969  27.514  17.268   2.200
59089W        W28970  22.512  42.887  13.494
59090W        W28971   6.192  33.395   1.430
59091W        W28972  12.831  23.548  10.486
59092W        W28973  44.275  30.149   4.153
59093W        W28974   0.762  12.661   1.753
59094W        W28975  22.727  44.948   3.254
59095W        W28976  41.499  27.077  12.481
59096W        W28977  10.651  40.364  10.454
59097W        W28978  35.560  32.577  10.499
59098W        W28979   7.193  32.583  10.529
59099W        W28980  43.777  41.538  10.565
59100W        W28981  29.955  38.333  13.020
59101W        W28982  23.024   2.810   3.272
59102W        W28983   7.295  38.871   5.272
59103W        W28984  32.437  41.891  10.484
59104W        W28985  28.080  29.527   1.343
59105W        W28986  23.069  15.759   2.781
59106W        W28987  19.126  33.015  11.004
59107W        W28988  39.005  14.215   0.796
59108W        W28989  32.615  11.129   1.331
59109W        W28990  24.704  36.461  11.043
59110W        W28991  26.655  33.910  14.380
59111W        W28992  42.474   4.264   3.366
59112W        W28993  23.528  35.853  13.393
59113W        W28994   2.286  19.609   3.841
59114W        W28995   9.340  15.256  13.986
59115W        W28996  42.778  38.565  14.891
59116W        W28997  14.334  28.118   1.868
59117W        W28998  36.550  37.972  13.467
59118W        W28999  26.981  25.160  13.422
59119W        W29000  14.220  13.106   3.694
59120W        W29001  38.868  16.133  11.465
59121W        W29002  35.405  36.458  13.034
59122W        W29003  40.325  30.564  12.848
59123W        W29004  20.607   5.783  11.871
59124W        W29005  11.137  32.892  14.793
59125W        W29006  43.439   2.888  14.794
59126W        W29007  41.374  16.258  10.539
59127W        W29008  12.348  44.277   1.332
59128W        W29009   1.240  26.027   0.258
59129W        W29010  29.018  37.559   0.455
59130W        W29011  26.684  27.119  11.087
59131W        W29012   8.303  12.647  13.405
59132W        W29013   7.311  40.881  10.567
59133W        W29014   1.266   9.268  13.896
59134W        W29015  39.497   8.842   2.296
59135W        W29016  29.458  12.657   5.162
59136W        W29017  18.563  40.871   1.719
59137W        W29018  16.690  30.416   3.371
59138W        W29019  28.576  27.112  11.029
59139W        W29020   0.438  44.841  14.794
59140W        W29021   0.871  10.234  11.492
59141W        W29022  17.658  40.467   4.620
59142W        W29023  28.624  21.090   1.309
59143W        W29024  19.073  37.517  12.518
59144W        W29025  25.099  42.993  12.505
59145W        W29026  10.794  39.389   3.176
59146W        W29027  26.619  43.835   9.997
59147W        W29028  35.470  21.645  13.413
59148W        W29029  20.189  40.313  10.956
59149W        W29030   2.450   1.775   3.146
59150W        W29031   9.304   0.868   0.456
59151W        W29032  21.714   1.914   4.767
59152W        W29033  35.962   6.891   4.344
59153W        W29034  40.873  35.974  14.958
59154W        W29035  33.016  15.772  14.986
59155W        W29036  21.197   4.852   3.657
59156W        W29037   6.414  38.940   1.809
59157W        W29038   1.255  37.965  12.574
59158W        W29039  12.143  14.250  13.373
59159W        W29040  10.375  19.564   4.749
59160W        W29041   7.669  32.922  14.281
59161W        W29042  16.308   5.895   4.137
59162W        W29043  15.236  32.940  14.290
59163W        W29044   0.976  13.132   4.832
59164W        W29045  23.042   7.742  13.017
59165W        W29046  17.273  20.245  13.322
59166W        W29047  19.280  15.240  13.461
59167W        W29048  32.076  23.233   0.281
59168W        W29049  42.287  22.220   0.437
59169W        W29050  31.487  27.614  13.525
59170W        W29051  42.505   7.172   0.848
59171W        W29052  25.467  17.074  14.429
59172W        W29053  15.612  33.540   0.879
59173W        W29054  13.247  24.047   2.312
59174W        W29055   0.941  32.964   3.660
59175W        W29056  10.214   0.355  12.032
59176W        W29057   8.273  24.167  10.541
59177W        W29058  31.630  15.163   2.900
59178W        W29059  39.974  28.588  13.825
59179W        W29060   3.737  37.864  12.088
59180W        W29061   5.736  21.040  11.430
59181W        W29062   2.350  25.106   0.756
59182W        W29063   6.756   5.286  11.993
59183W        W29064  41.393   6.701   2.351
59184W        W29065  40.396   5.767  14.494
59185W        W29066   3.756  35.925  14.437
59186W        W29067  28.937  42.373   1.878
59187W        W29068   3.269   7.225  13.938
59188W        W29069  19.541  11.233   3.315
59189W        W29070   9.217  29.458   3.737
59190W        W29071  19.110   7.829  14.325
59191W        W29072   6.846  44.859   2.814
59192W        W29073  14.237  19.172  12.924
59193W        W29074  22.604  25.575  13.840
59194W        W29075  11.864  39.993   1.261
59195W        W29076  11.792   7.827   0.876
59196W        W29077  27.975   7.687   3.199
59197W        W29078  40.352  26.014   2.322
59198W        W29079  42.285  19.115   1.406
59199W        W29080  10.342   6.343  10.908
59200W        W29081  31.967  32.558   0.339
59201W        W29082   6.345  11.305  12.984
59202W        W29083  32.434  36.011  14.419
59203W        W29084  37.911  30.594   5.207
59204W        W29085  35.569  23.541  12.038
59205W        W29086  41.489  28.678  12.578
59206W        W29087  20.234  37.047  12.354
59207W        W29088  43.967   0.916   1.826
59208W        W29089   1.884  31.543  13.951
59209W        W29090  30.987  39.358  13.340
59210W        W29091  28.172  38.872   4.278
59211W        W29092  42.013   8.883   3.325
59212W        W29093  29.524  13.613  12.406
59213W        W29094   6.709  28.439   3.180
59214W        W29095  11.149  24.604  14.454
59215W        W29096  26.146  16.725   0.811
59216W        W29097  24.525  42.391   0.314
59217W        W29098  35.065   2.247   4.720
59218W        W29099  23.101  16.715   0.809
59219W        W29100   5.815  37.852   2.853
59220W        W29101  31.942  24.630   3.649
59221W        W29102  18.289  19.728  11.033
59222W        W29103  12.853  24.225   4.680
59223W        W29104   8.249  19.641  13.361
59224W        W29105  23.173  37.062  11.129
59225W        W29106  27.538  41.931  10.618
59226W        W29107  18.226  11.356  14.460
59227W        W29108  25.091  43.806   3.236
59228W        W29109  40.325   6.371  14.457
59229W        W29110   9.794  20.223   1.888
59230W        W29111  38.011  24.043   0.286
59231W        W29112  37.414  34.002  13.045
59232W        W29113  38.446  33.446  12.546
59233W        W29114  34.070  35.856  13.410
59234W        W29115  31.483  12.849  11.013
59235W        W29116   9.691  31.097   2.777
59236W        W29117  41.914   0.875  10.417
59237W        W29118  41.900   8.779   2.706
59238W        W29119  22.221  40.305  10.955
59239W        W29120  21.600   2.765  14.906
59240W        W29121  30.611  22.535   3.829
59241W        W29122  10.210  35.445  14.447
59242W        W29123   2.954  24.481  11.947
59243W        W29124  24.537  20.572  10.932
59244W        W29125  27.042   6.251  11.446
59245W        W29126  30.528  23.135  12.936
59246W        W29127  19.112  26.141   3.844
59247W        W29128  33.080   3.787  13.369
59248W        W29129   0.301  22.044   2.349
59249W        W29130   5.857  22.583   0.826
59250W        W29131   1.474   9.230  10.529
59251W        W29132   9.233  26.605  11.026
59252W        W29133  19.120   0.481  10.566
59253W        W29134  29.959  30.630  10.962
59254W        W29135  15.206  13.319   0.768
59255W        W29136  17.793   6.191   4.259
59256W        W29137  34.891   6.308  12.941
59257W        W29138   6.425  20.069  14.027
59258W        W29139   3.840  23.143  11.909
59259W        W29140  22.580  18.067   3.855
59260W        W29141  32.909   4.791   2.864
59261W        W29142  15.154  41.953  11.394
59262W        W29143  34.452  19.607  11.128
59263W        W29144   3.235  30.930   3.189
59264W        W29145   1.264  19.703  14.969
59265W        W29146   6.917  28.538   4.653
59266W        W29147  27.960  30.630  10.419
59267W        W29148  28.986  10.213  10.599
59268W        W29149  32.014  27.076  13.488
59269W        W29150  23.530  13.184  13.804
59270W        W29151  23.129   0.809  12.982
59271W        W29152   1.359  18.111   1.876
59272W        W29153  17.083   0.859   4.597
59273W        W29154  43.998  15.707   3.250
59274W        W29155   2.921  10.248   3.774
59275W        W29156  41.871  38.555  11.984
59276W        W29157   8.713  10.780  12.569
59277W        W29158  28.536  41.998  10.417
59278W        W29159  23.986   2.285   3.261
59279W        W29160  43.323  37.403  13.988
59280W        W29161  21.603  28.955  14.979
59281W        W29162  13.740  44.925   1.725
59282W        W29163  24.621  24.073  12.846
59283W        W29164  25.002  34.947  10.917
59284W        W29165   0.973  15.287   0.824
59285W        W29166  26.059   8.167  14.998
59286W        W29167  27.581   8.857   3.860
59287W        W29168  11.680  12.305   2.857
59288W        W29169  37.997  38.367  11.521
59289W        W29170  33.940   1.929  10.908
59290W        W29171   5.321  32.406  11.910
59291W        W29172   3.771  38.979  11.393
59292W        W29173  32.549  11.694   4.798
59293W        W29174  42.954   3.930   0.420
59294W        W29175  32.963  35.523   0.277
59295W        W29176   9.371  30.937  11.887
59296W        W29177  42.361  13.772   0.366
59297W        W29178  11.677  19.552  12.529
59298W        W29179  24.109  22.104   3.186
59299W        W29180  30.639  24.001   1.433
59300W        W29181  25.130  32.531  14.300
59301W        W29182  38.505  38.950  11.518
59302W        W29183  39.385  22.658  13.957
59303W        W29184  40.428  10.715  13.944
59304W        W29185  35.054   2.817  14.917
59305W        W29186  42.450  20.216  14.494
59306W        W29187  40.328  36.084   0.329
59307W        W29188  24.136   9.387   2.342
59308W        W29189   8.318  11.712  14.368
59309W        W29190  10.289  25.612  11.936
59310W        W29191  21.032  31.063   4.724
59311W        W29192  37.353  38.327  11.925
59312W        W29193  27.944  17.155   3.245
59313W        W29194   0.860  43.884  12.434
59314W        W29195  32.129  25.035  14.504
59315W        W29196  38.496  17.761   0.305
59316W        W29197  18.611  42.805   1.244
59317W        W29198   2.439  44.300   3.717
59318W        W29199  44.934  15.185   4.325
59319W        W29200  44.928  10.784  14.487
59320W        W29201  35.429  12.186   2.274
59321W        W29202  31.015  26.603  14.304
59322W        W29203  13.302  41.501  14.802
59323W        W29204  29.615  31.077  14.308
59324W        W29205  23.128  11.359   3.311
59325W        W29206  32.964   2.823  13.027
59326W        W29207  29.426  34.455  13.544
59327W        W29208  23.674  40.824  14.769
59328W        W29209  33.027  31.108   4.710
59329W        W29210  10.825  20.174   2.814
59330W        W29211  26.136  24.157  10.514
59331W        W29212  41.366  13.331   2.346
59332W        W29213  10.168  14.715  10.108
59333W        W29214  37.451   9.259  12.982
59334W        W29215  31.036  38.347  14.389
59335W        W29216  27.587  29.084   3.728
59336W        W29217   0.350   4.211  14.311
59337W        W29218  12.681  16.138  14.344
59338W        W29219   9.350  20.057  11.860
59339W        W29220  42.436  34.583  13.527
59340W        W29221  15.232  30.121   2.867
59341W        W29222  35.100  32.420  11.074
59342W        W29223   1.462  14.705  13.825
59343W        W29224   7.206  12.230  14.367
59344W        W29225   8.659  14.679   0.736
59345W        W29226  22.133  38.904  11.908
59346W        W29227  23.190  14.139  13.413
59347W        W29228   9.303  34.113   0.754
59348W        W29229   9.702   4.281  10.982
59349W        W29230  11.212  18.584   2.723
59350W        W29231  29.979  39.495   3.711
59351W        W29232   1.471  25.024   3.277
59352W        W29233  18.691  43.270  13.830
59353W        W29234  18.761  36.877   1.348
59354W        W29235  27.453   8.751  13.937
59355W        W29236  28.553  32.483  14.370
59356W        W29237  10.296  42.364   2.703
59357W        W29238  34.560  16.580   3.870
59358W        W29239  38.528  39.476  12.552
59359W        W29240  27.079  33.589   4.144
59360W        W29241  40.363  28.041   3.368
59361W        W29242  37.908   6.790  14.490
59362W        W29243  41.308   5.437  11.937
59363W        W29244  25.992  39.556  10.512
59364W        W29245  29.132   8.167  10.492
59365W        W29246   4.406  34.911  13.925
59366W        W29247  44.855  28.008  12.883
59367W        W29248  34.010  43.485  10.970
59368W        W29249   8.838  34.479   4.346
59369W        W29250  40.881   8.269   4.782
59370W        W29251   3.311   2.780   2.232
59371W        W29252  22.075  28.038  13.901
59372W        W29253  30.446  13.263   0.905
59373W        W29254  36.918  39.469   1.853
59374W        W29255  40.358  33.116  14.025
59375W        W29256  29.434  31.591   2.226
59376W        W29257   0.323  43.783  14.850
59377W        W29258   1.812  39.956   1.319
59378W        W29259  36.384   5.418   0.250
59379W        W29260   1.333  27.996  12.971
59380W        W29261  15.666  24.142  13.855
59381W        W29262  16.591  16.238  12.491
59382W        W29263   4.268  26.173  10.418
59383W        W29264  41.459  29.570   2.813
59384W        W29265  17.700  24.506   3.692
59385W        W29266  10.221  31.908  10.561
59386W        W29267  36.869  44.800   4.773
59387W        W29268  22.643  16.566  11.494
59388W        W29269  20.629  28.121   5.239
59389W        W29270  35.885  31.141   4.321
59390W        W29271  32.949   8.724  13.523
59391W        W29272  27.989   3.767   0.292
59392W        W29273  17.175  30.467  14.337
59393W        W29274  36.017   9.666   1.227
59394W        W29275   6.305  30.119   1.333
59395W        W29276   9.164  13.193  11.381
59396W        W29277  32.569  17.632  10.934
59397W        W29278   2.952  36.972   0.274
59398W        W29279  21.213  44.338  10.987
59399W        W29280  27.168  40.513   2.241
59400W        W29281  36.352  15.725   4.739
59401W        W29282  40.413  16.679   3.788
59402W        W29283   9.343  22.156   4.292
59403W        W29284  24.483  31.472   3.230
59404W        W29285  24.516  30.428  11.574
59405W        W29286  44.916  35.985  13.839
59406W        W29287   5.851  32.085  14.401
59407W        W29288  13.707  41.441  10.543
59408W        W29289  10.273  37.498   4.337
59409W        W29290  36.869  32.551   1.886
59410W        W29291  32.131  35.075  12.894
59411W        W29292  15.308   8.782   2.310
59412W        W29293  12.730  13.125  13.382
59413W        W29294  42.025   7.370  10.002
59414W        W29295  35.022  24.723   1.390
59415W        W29296  13.819  36.885  11.996
59416W        W29297  23.611  42.777   1.883
59417W        W29298  20.159   5.717  12.965
59418W        W29299   4.932   3.929  12.998
59419W        W29300  29.516   4.254   1.450
59420W        W29301  34.947  17.732  10.909
59421W        W29302  30.936  34.107   4.782
59422W        W29303  35.098  22.626   3.756
59423W        W29304  28.601   3.455  14.992
59424W        W29305   4.399  34.978   1.414
59425W        W29306  15.154  17.641  10.513
59426W        W29307  23.236  31.508   2.790
59427W        W29308  37.368  25.591  14.368
59428W        W29309  33.522  17.158  14.919
59429W        W29310  30.471   1.795   4.621
59430W        W29311  34.577  44.305  13.962
59431W        W29312  27.623  10.667   3.734
59432W        W29313  14.599   8.809   5.237
59433W        W29314  42.788  10.208   1.932
59434W        W29315  26.067   6.418   3.845
59435W        W29316  27.503  11.227   1.288
59436W        W29317  39.457  12.736  10.960
59437W        W29318  20.721  26.587   3.748
59438W        W29319  21.183  17.748  13.490
59439W        W29320  30.599  19.155  11.115
59440W        W29321   7.175  40.851   2.780
59441W        W29322  27.672   9.183   0.776
59442W        W29323   9.228  28.974  11.612
59443W        W29324  11.742  17.660   2.748
59444W        W29325  12.628  36.542   0.419
59445W        W29326  13.819  21.657   1.382
59446W        W29327   4.777   3.433   2.725
59447W        W29328   7.718  19.778   1.323
59448W        W29329  24.668   9.815   3.321
59449W        W29330   8.167  32.516   3.764
59450W        W29331  25.109  29.975  14.905
59451W        W29332   1.379  30.513   3.731
59452W        W29333  13.685   2.931   4.178
59453W        W29334  18.074  14.256   0.347
59454W        W29335  19.689   2.759   3.677
59455W        W29336   7.906   3.843   0.796
59456W        W29337  10.371  11.784   1.324
59457W        W29338  41.806   8.174  14.901
59458W        W29339  29.462  36.051  11.541
59459W        W29340   7.674  40.439   4.208
59460W        W29341  24.598  30.448  14.309
59461W        W29342   1.973  34.588   4.683
59462W        W29343  18.651  41.337   0.931
59463W        W29344  25.025   1.750  12.894
59464W        W29345  43.977  23.617  10.589
59465W        W29346  31.647  32.618   1.248
59466W        W29347   5.750  25.157   0.361
59467W        W29348  31.474  30.426   4.769
59468W        W29349  26.032  24.169   2.846
59469W        W29350  17.753  38.077  13.051
59470W        W29351   1.969   2.405   3.725
59471W        W29352  39.357  25.536  10.410
59472W        W29353  31.925  16.676  13.001
59473W        W29354  30.543  35.926  12.856
59474W        W29355  14.293   4.799   3.828
59475W        W29356   4.237  15.738  12.997
59476W        W29357  10.261  33.120   1.376
59477W        W29358  35.444  25.671   2.251
59478W        W29359  18.629  26.603  12.047
59479W        W29360  29.497   9.836   0.927
59480W        W29361  32.618   9.659  12.899
59481W        W29362   1.277   3.233  11.592
59482W        W29363   1.972  17.131   0.453
59483W        W29364  42.508  28.092   3.238
59484W        W29365  23.989  12.659   1.376
59485W        W29366  32.990  15.608   3.220
59486W        W29367  21.140   3.417   0.246
59487W        W29368  29.084  26.698  13.865
59488W        W29369  19.537  26.551  10.417
59489W        W29370  34.875  14.614   0.876
59490W        W29371  25.055  19.127   2.890
59491W        W29372  30.151  27.609  11.885
59492W        W29373  24.585  35.462   1.255
59493W        W29374  15.287   6.184  13.315
59494W        W29375  43.803   9.168   1.431
59495W        W29376  20.649  33.911  14.031
59496W        W29377  35.037   5.756  14.506
59497W        W29378  36.517   6.372   4.730
59498W        W29379  42.955  17.271  13.007
59499W        W29380  31.617   5.702  12.507
59500W        W29381  21.242   3.356   4.343
59501W        W29382   7.690  35.563   4.795
59502W        W29383  31.928   8.839  10.965
59503W        W29384  31.633  39.493  14.031
59504W        W29385  23.717  42.287  10.514
59505W        W29386  34.957  34.061   1.337
59506W        W29387  38.875   2.761   3.770
59507W        W29388  41.480  19.107  12.476
59508W        W29389  36.048  15.128  11.067
59509W        W29390  36.898  33.608  13.020
59510W        W29391  29.984  18.132  12.953
59511W        W29392  14.146  21.199  10.465
59512W        W29393  35.989   0.360   3.190
59513W        W29394  36.456  23.231   1.262
59514W        W29395  38.951  33.438  13.377
59515W        W29396  35.038  27.588   3.253
59516W        W29397  21.757   5.691   2.737
59517W        W29398  39.994  31.954  13.433
59518W        W29399  13.342  28.167  11.394
59519W        W29400  14.620  43.411   4.121
59520W        W29401  15.824  44.006  14.803
59521W        W29402  13.187  18.077   0.751
59522W        W29403   5.871   0.469  12.425
59523W        W29404  24.974  16.215   3.797
59524W        W29405   6.824  35.358  11.553
59525W        W29406  38.836  15.732  12.547
59526W        W29407  33.095  21.605   4.627
59527W        W29408  12.789   2.231   4.832
59528W        W29409  29.953  38.377  12.374
59529W        W29410  29.489  40.501  12.479
59530W        W29411  29.656  16.188  13.332
59531W        W29412  28.515  27.660  12.827
59532W        W29413  35.901   7.899   2.718
59533W        W29414  11.316   4.278   0.800
59534W        W29415  35.940  40.008  14.954
59535W        W29416   6.721  18.755   2.323
59536W        W29417  37.515  29.126  13.919
59537W        W29418  12.146  42.985  14.822
59538W        W29419  26.067  37.573  12.549
59539W        W29420   3.756  44.452  13.956
59540W        W29421   5.202  24.605   4.166
59541W        W29422  40.851  31.634  13.833
59542W        W29423  39.497   5.357  11.126
59543W        W29424  17.237  44.314   0.776
59544W        W29425  14.658  31.459   3.151
59545W        W29426  20.637  16.704   3.362
59546W        W29427  30.505  16.712  11.021
59547W        W29428  26.177  19.755  11.539
59548W        W29429  41.843  41.830   1.758
59549W        W29430  12.630  11.206  12.413
59550W        W29431  36.366  13.645  12.006
59551W        W29432  14.727   6.379  12.900
59552W        W29433  15.682  19.718   4.745
59553W        W29434  38.997  16.073   3.849
59554W        W29435  23.567   1.858   0.740
59555W        W29436  20.673  39.885  13.946
59556W        W29437  39.344  15.714   1.444
59557W        W29438  11.222  24.718   4.230
59558W        W29439   8.185  34.032  10.532
59559W        W29440   2.299  21.198   3.866
59560W        W29441  26.101   9.390  12.072
59561W        W29442  31.034  25.162   2.802
59562W        W29443  35.468   7.282   1.707
59563W        W29444  27.007  33.081  13.907
59564W        W29445  31.020  30.508   1.298
59565W        W29446  27.518   8.288  11.949
59566W        W29447  36.065   7.666   0.421
59567W        W29448  18.763  34.092   3.823
59568W        W29449  28.574  11.133  10.619
59569W        W29450  40.389  12.674   1.263
59570W        W29451  32.617  44.795  14.286
59571W        W29452  14.712  26.207   1.410
59572W        W29453  20.573  11.679   4.762
59573W        W29454   2.457   8.731   2.349
59574W        W29455  18.114  39.845  13.988
59575W        W29456  36.991  11.773  10.942
59576W        W29457  30.609  25.164  12.955
59577W        W29458  34.113   8.875  10.630
59578W        W29459  21.635  36.857   3.824
59579W        W29460  35.513  43.839   2.188
59580W        W29461  36.409  39.845   1.318
59581W        W29462   1.478  34.099   3.633
59582W        W29463  41.534   1.266   0.367
59583W        W29464  36.065  11.360   2.798
59584W        W29465   7.317  11.264   2.383
59585W        W29466   8.235   3.773   1.340
59586W        W29467  28.038  13.115  12.042
59587W        W29468   5.311  19.708   1.897
59588W        W29469   0.441   8.160  14.774
59589W        W29470  15.602  35.403  12.918
59590W        W29471  16.115  14.676  13.888
59591W        W29472  32.473  44.756  11.855
59592W        W29473  14.771  39.554   5.318
59593W        W29474   9.661  40.965  12.930
59594W        W29475  34.396  17.111  14.479
59595W        W29476  26.972  21.602  11.545
59596W        W29477  29.585  29.533  13.931
59597W        W29478  30.436  10.878   0.762
59598W        W29479  39.922  37.566   3.190
59599W        W29480  13.185  35.964   5.228
59600W        W29481  37.564   2.858  13.339
59601W        W29482  30.420  23.510  12.863
59602W        W29483  44.347  44.936   2.880
59603W        W29484  23.562  10.234  10.476
59604W        W29485  37.889  12.762  14.931
59605W        W29486  24.710  18.566  14.970
59606W        W29487  41.451   1.425  11.047
59607W        W29488  37.902  12.344  13.865
59608W        W29489  31.009  22.151   1.282
59609W        W29490  41.002  16.677  11.117
59610W        W29491  35.914  39.548   4.148
59611W        W29492  23.564  15.161   3.263
59612W        W29493  11.133  42.380  11.097
59613W        W29494  24.995  24.584   3.861
59614W        W29495   8.227  21.655   4.725
59615W        W29496  27.077  44.303   0.869
59616W        W29497  20.238  14.690   4.620
59617W        W29498  23.012   1.846  11.601
59618W        W29499  31.098  11.194  14.382
59619W        W29500  26.615  33.458  13.043
59620W        W29501  36.977  21.612   3.309
59621W        W29502  43.450  10.294  12.409
59622W        W29503   0.901   5.362  13.521
59623W        W29504  17.097  29.652   5.292
59624W        W29505  22.099  25.090  13.471
59625W        W29506  23.616  42.861   2.750
59626W        W29507  12.747  16.221   1.791
59627W        W29508  15.770  21.672   3.830
59628W        W29509  32.916  34.517  12.861
59629W        W29510  43.925  16.702   4.619
59630W        W29511  42.417  38.822   3.726
59631W        W29512  43.384  44.889  11.501
59632W        W29513   3.313  10.229  11.610
59633W        W29514   4.315  10.286  11.007
59634W        W29515   2.274  15.242   2.192
59635W        W29516  37.875  32.924   0.873
59636W        W29517  21.752  34.392  14.495
59637W        W29518  30.928   3.456   4.612
59638W        W29519  21.658  11.662  11.498
59639W        W29520   3.432   6.848   2.711
59640W        W29521  28.148  35.937  11.412
59641W        W29522   0.328  37.387  14.393
59642W        W29523  16.120  43.502  11.512
59643W        W29524  19.761   8.886  12.342
59644W        W29525  42.503   7.307  14.835
59645W        W29526  10.810  22.607   4.199
59646W        W29527  17.776  14.735   0.438
59647W        W29528  13.250  16.128   0.868
59648W        W29529   5.215  11.673  12.897
59649W        W29530   0.336  25.596   1.696
59650W        W29531  29.592  19.228  13.520
59651W        W29532  32.575  44.847   1.911
59652W        W29533   6.847  24.496   4.614
59653W        W29534  30.579  40.937   2.855
59654W        W29535  35.014  39.386   3.179
59655W        W29536  15.261  13.136  14.983
59656W        W29537  11.749  20.765   3.160
59657W        W29538  34.994  12.288  13.003
59658W        W29539  23.027  13.617   0.484
59659W        W29540  34.384  16.303   4.181
59660W        W29541  30.441  12.790   4.758
59661W        W29542  16.127  23.110  14.878
59662W        W29543  34.470  44.470  12.085
59663W        W29544  10.197  33.497   3.800
59664W        W29545  15.620  29.600  14.469
59665W        W29546  27.644  26.952  12.061
59666W        W29547  41.014  17.299   3.791
59667W        W29548   7.724  38.472   1.867
59668W        W29549  13.209  22.063  12.426
59669W        W29550  31.109   1.303  11.373
59670W        W29551  16.700  38.417  12.058
59671W        W29552  18.054   6.299   3.719
59672W        W29553  38.021  30.627   2.772
59673W        W29554  37.846  12.857  13.044
59674W        W29555   8.825   7.727  10.509
59675W        W29556   8.654  33.453   4.634
59676W        W29557  10.878  21.243  10.538
59677W        W29558  34.499  42.831   1.409
59678W        W29559   7.199   4.297  14.393
59679W        W29560   0.874  39.955  11.974
59680W        W29561  37.489  21.178  12.946
59681W        W29562   4.804  15.612   2.830
59682W        W29563  16.733   3.384  11.119
59683W        W29564  10.226  11.660   5.318
59684W        W29565  10.633   8.271   4.767
59685W        W29566  18.627  33.516   1.312
59686W        W29567  20.217  14.152  11.399
59687W        W29568  13.146  28.999   1.229
59688W        W29569   2.316   9.296  14.433
59689W        W29570  36.024  29.556   0.839
59690W        W29571  14.718  41.386  13.811
59691W        W29572  15.691  28.124  10.430
59692W        W29573  34.090  41.033  11.983
59693W        W29574   7.796  40.420  12.524
59694W        W29575  33.536  27.148   0.793
59695W        W29576   1.241  27.981  12.381
59696W        W29577  25.648  43.902  10.472
59697W        W29578   7.298   1.851   3.841
59698W        W29579  18.659   4.729   1.913
59699W        W29580  33.519  11.339  13.791
59700W        W29581  34.374  28.961  11.873
59701W        W29582  25.064  10.778  13.518
59702W        W29583  39.384   5.928  14.413
59703W        W29584  11.659  22.606   1.225
59704W        W29585  21.757  44.260   1.895
59705W        W29586  22.562  44.371  10.410
59706W        W29587  29.962  30.960  13.869
59707W        W29588   0.350  15.111  14.497
59708W        W29589  35.508  22.596  14.772
59709W        W29590   6.870  34.987  12.829
59710W        W29591  37.905   2.267   1.289
59711W        W29592  21.127  32.559  10.945
59712W        W29593  10.352  33.874   4.826
59713W        W29594  41.009   7.774  14.495
59714W        W29595  16.644   1.333  14.278
59715W        W29596  10.792  18.779   5.099
59716W        W29597  29.969  44.454   4.707
59717W        W29598  21.023  32.601  13.532
59718W        W29599  28.088  25.597  14.496
59719W        W29600  41.535   5.404  10.913
59720W        W29601  25.205   2.732   0.447
59721W        W29602  15.268   6.377   2.416
59722W        W29603  15.723  18.272  12.086
59723W        W29604   5.738  23.499   2.855
59724W        W29605  24.055  23.510  14.490
59725W        W29606   1.351  27.546   1.852
59726W        W29607  20.563  40.966   2.759
59727W        W29608  22.551  10.237   2.694
59728W        W29609  18.766   0.298  10.985
59729W        W29610  13.222  33.381  12.891
59730W        W29611  11.672  10.700  14.305
59731W        W29612  13.639  38.435   1.790
59732W        W29613  31.963  22.673  13.959
59733W        W29614  38.570  26.583   3.372
59734W        W29615  38.448  38.513   4.131
59735W        W29616   9.334  36.918   0.776
59736W        W29617  43.000  23.728   1.335
59737W        W29618  34.927  38.440  11.961
59738W        W29619  36.371   9.347  11.959
59739W        W29620  26.503   1.407   4.222
59740W        W29621   7.694  34.064   2.364
59741W        W29622  38.036  29.589  12.080
59742W        W29623  44.897   6.802  13.360
59743W        W29624  27.674   9.748  11.907
59744W        W29625  37.917  11.303   1.775
59745W        W29626  21.613  43.316   0.378
59746W        W29627  38.436  25.598  12.989
59747W        W29628   0.959  42.377  11.869
59748W        W29629  43.275   3.799   0.767
59749W        W29630  37.022  25.678   4.259
59750W        W29631  35.095  44.963   0.383
59751W        W29632  38.434  38.924  13.893
59752W        W29633  12.322  23.682  12.461
59753W        W29634   6.396  38.435  13.481
59754W        W29635  31.033  24.229   0.286
59755W        W29636  42.457  38.967  11.978
59756W        W29637  26.984  33.574  14.423
59757W        W29638  35.860  27.006  11.605
59758W        W29639  15.305  19.054   4.744
59759W        W29640   4.266  36.024   3.342
59760W        W29641  44.413   3.232   4.685
59761W        W29642  19.239  26.002  11.059
59762W        W29643  29.552  35.393   4.634
59763W        W29644  30.094   1.314   1.292
59764W        W29645  37.505  27.961  14.016
59765W        W29646  31.522  33.588   4.723
59766W        W29647  43.286  32.580  11.897
59767W        W29648   3.859   8.276   4.685
59768W        W29649  11.833   3.268   3.794
59769W        W29650  15.198   1.947  11.583
59770W        W29651  29.538  26.604   3.208
59771W        W29652   4.418  44.472   3.264
59772W        W29653  14.736  28.090   4.754
59773W        W29654  33.481   5.901   4.616
59774W        W29655  41.960  28.142  12.437
59775W        W29656  20.069  40.817   4.668
59776W        W29657  34.024  25.497   3.284
59777W        W29658  40.890  16.227   4.765
59778W        W29659  41.364   8.852  12.867
59779W        W29660  14.140  31.046   0.363
59780W        W29661  20.657  44.835   5.118
59781W        W29662  22.230   7.231  12.541
59782W        W29663  40.888  30.427   3.185
59783W        W29664  44.413   6.919  11.467
59784W        W29665   0.873  13.204   1.264
59785W        W29666  29.615  24.992  14.968
59786W        W29667   5.348  25.966  13.307
59787W        W29668   4.331   1.293   0.316
59788W        W29669  16.318   6.367  14.790
59789W        W29670  37.967   9.376  13.872
59790W        W29671  22.669  18.105  12.907
59791W        W29672  16.211  37.447  10.585
59792W        W29673  11.627  37.564   2.748
59793W        W29674  27.012  27.519  14.441
59794W        W29675  12.732  29.580   2.867
59795W        W29676  12.710   4.215   1.212
59796W        W29677   8.245  43.900   2.376
59797W        W29678  27.539   4.758   1.247
59798W        W29679  13.298  32.932   4.779
59799W        W29680  23.040  37.026   4.626
59800W        W29681  15.109  41.501   0.865
59801W        W29682  23.160  26.497   3.314
59802W        W29683  39.450   5.267   0.965
59803W        W29684  44.309  22.126  14.766
59804W        W29685  12.193  42.871   0.281
59805W        W29686  30.918   8.901   2.718
59806W        W29687  17.117  42.432   2.865
59807W        W29688   6.712  24.480  14.374
59808W        W29689  20.660  19.129  13.027
59809W        W29690  10.837  30.634   2.196
59810W        W29691  43.986  12.766   3.852
59811W        W29692  10.299  40.393  12.376
59812W        W29693  27.485  22.129   0.474
59813W        W29694  10.830   6.347  11.111
59814W        W29695   9.335  20.196   0.760
59815W        W29696  33.026  27.182  10.572
59816W        W29697  44.810  29.568  13.050
59817W        W29698  35.553  43.776  10.596
59818W        W29699  40.538  32.995   2.730
59819W        W29700  35.919  29.141   2.890
59820W        W29701  18.155   6.235   1.910
59821W        W29702  31.459   6.294   3.153
59822W        W29703   3.359  24.505   0.424
59823W        W29704  23.054  26.669   0.385
59824W        W29705  41.390   3.285   2.789
59825W        W29706  31.457  23.070   0.345
59826W        W29707  17.239  27.948  11.903
59827W        W29708  15.680   3.862   0.919
59828W        W29709  42.819   8.173   4.597
59829W        W29710  10.266  15.108  14.893
59830W        W29711  38.048  33.551  13.501
59831W        W29712  28.511  39.465  10.621
59832W        W29713   5.853  13.158  12.011
59833W        W29714  42.807  16.279   2.226
59834W        W29715  15.683  44.792  11.530
59835W        W29716  27.189  20.674   0.871
59836W        W29717  32.605  12.697  13.354
59837W        W29718  31.411  17.637   3.185
59838W        W29719  37.357  22.226  11.592
59839W        W29720  24.024  16.258   2.853
59840W        W29721  34.046  17.135  10.917
59841W        W29722  16.123  39.049   2.691
59842W        W29723  19.716  13.802   2.677
59843W        W29724   1.936  13.842  12.971
59844W        W29725  26.623  13.779   1.825
59845W        W29726  39.921  40.439   0.964
59846W        W29727  39.058  26.676  10.636
59847W        W29728  15.596  21.225   3.808
59848W        W29729  27.072  29.987   2.373
59849W        W29730  21.572  32.991   2.805
59850W        W29731  16.266  42.777  10.549
59851W        W29732   8.699   7.853   2.360
59852W        W29733  29.657   6.236   9.970
59853W        W29734  29.447  41.513  13.418
59854W        W29735  28.124  35.092   4.785
59855W        W29736  36.475  24.485   1.433
59856W        W29737  29.144  17.594   0.368
59857W        W29738   0.977  20.046  10.406
59858W        W29739  29.567  24.707  13.455
59859W        W29740  14.670  13.771   3.746
59860W        W29741  19.739  38.849   4.231
59861W        W29742  27.114   7.305   3.817
59862W        W29743   3.736  40.939   2.711
59863W        W29744   0.303   7.233   2.821
59864W        W29745  14.302  32.589  14.848
59865W        W29746   7.826  22.625   9.944
59866W        W29747   2.795  19.245  13.800
59867W        W29748  44.833  39.404  13.927
59868W        W29749  21.627  42.968  13.444
59869W        W29750   9.342  24.675  12.913
59870W        W29751   0.344  32.531   3.211
59871W        W29752   9.190  24.692   4.303
59872W        W29753   2.356   3.216  10.033
59873W        W29754  33.438  18.592  12.933
59874W        W29755  17.643  14.112   0.910
59875W        W29756   8.254  42.991  12.004
59876W        W29757   8.767  16.271   4.773
59877W        W29758   2.300  43.796   1.447
59878W        W29759   0.786  14.682  13.318
59879W        W29760  43.458   0.265   1.754
59880W        W29761  31.024  10.670  10.926
59881W        W29762  31.975   5.887   0.871
59882W        W29763  26.487  22.164   1.290
59883W        W29764   4.858  22.679   2.766
59884W        W29765   2.903   2.795   1.280
59885W        W29766   6.888  43.987  11.858
59886W        W29767  36.023  29.086  11.376
59887W        W29768   4.430  34.032   2.742
59888W        W29769  31.090  15.271   2.245
59889W        W29770  39.421  20.116  11.427
59890W        W29771  14.616  16.599  11.053
59891W        W29772  23.531  44.268   4.188
59892W        W29773  39.035  44.920  11.375
59893W        W29774  19.201  18.124   1.341
59894W        W29775  24.597  22.246   0.438
59895W        W29776  10.680  42.949   1.286
59896W        W29777   1.921  36.547  13.362
59897W        W29778  39.898  20.258  12.553
59898W        W29779  16.569   0.983  12.524
59899W        W29780   7.249   0.492   4.194
59900W        W29781  30.954  33.608  12.366
59901W        W29782   2.412  13.631  14.441
59902W        W29783   1.318  43.506  12.550
59903W        W29784   7.187  32.978   4.182
59904W        W29785  33.455  20.038   1.430
59905W        W29786  28.471  24.204  10.081
59906W        W29787  11.166  19.691   2.401
59907W        W29788  22.660   6.730   0.476
59908W        W29789  14.798  35.523  14.964
59909W        W29790   9.205  10.678   1.406
59910W        W29791  13.843   1.394  12.542
59911W        W29792  12.204  12.152  13.495
59912W        W29793  11.206  33.559   0.412
59913W        W29794  40.993  39.982  12.913
59914W        W29795  42.906  28.970  13.872
59915W        W29796  22.574  44.474   3.641
59916W        W29797  18.198  32.965   1.884
59917W        W29798  39.539  14.800   2.320
59918W        W29799  36.476  43.017  10.582
59919W        W29800   6.192   0.880  14.874
59920W        W29801  14.655  16.679   3.301
59921W        W29802  43.827  44.999  10.950
59922W        W29803  27.569  20.207   3.847
59923W        W29804  31.473  10.652  11.896
59924W        W29805  33.074  14.756  13.546
59925W        W29806  12.818  26.531  13.918
59926W        W29807  11.131   8.194  13.005
59927W        W29808  29.136  35.037   1.817
59928W        W29809  38.890  30.058   1.767
59929W        W29810  22.632  21.741   1.215
59930W        W29811  16.702  37.422   3.738
59931W        W29812  26.491  10.839   4.652
59932W        W29813   0.763  24.132  12.559
59933W        W29814  22.613  39.973  12.350
59934W        W29815  21.728  30.018   4.149
59935W        W29816  21.741  23.517  12.959
59936W        W29817   3.717  38.876  11.873
59937W        W29818  21.707  37.833   1.734
59938W        W29819  30.571  19.557  10.914
59939W        W29820  32.088  34.952  11.901
59940W        W29821   1.892  11.785   2.412
59941W        W29822   7.903  21.047   4.770
59942W        W29823  11.260  37.552   1.733
59943W        W29824  26.142  41.311  11.938
59944W        W29825  33.880  34.967   0.397
59945W        W29826  34.425  21.540   2.194
59946W        W29827  28.654  40.959   2.808
59947W        W29828  37.537  15.199  12.340
59948W        W29829  25.108  41.532  13.495
59949W        W29830  17.287  19.228   1.317
59950W        W29831  38.456  19.670   4.675
59951W        W29832  12.263  43.382   0.854
59952W        W29833  31.138  26.156  13.420
59953W        W29834   7.699   5.730   0.753
59954W        W29835  18.728   8.840  12.357
59955W        W29836  24.590  19.056   2.811
59956W        W29837   3.264  30.074   3.371
59957W        W29838  42.023   0.405   4.643
59958W        W29839  23.576  30.436   3.260
59959W        W29840  14.797   7.285  10.924
59960W        W29841  36.431   7.239   3.754
59961W        W29842  40.422  40.378   3.376
59962W        W29843  32.636  32.889  12.579
59963W        W29844  12.363  28.937   0.319
59964W        W29845   9.283   5.405  13.052
59965W        W29846   6.901  14.182   1.803
59966W        W29847  19.052  17.701  12.043
59967W        W29848  25.658   9.235   4.308
59968W        W29849  15.781  39.472  13.851
59969W        W29850   1.360  25.113  14.282
59970W        W29851  21.741  11.305   3.328
59971W        W29852  23.216  33.958  12.824
59972W        W29853   9.325   8.730   1.887
59973W        W29854  16.770  40.024  14.327
59974W        W29855  30.617  33.587  14.853
59975W        W29856  23.097  32.615   1.291
59976W        W29857  35.601  35.949  12.046
59977W        W29858   0.874  19.682  12.927
59978W        W29859  14.819  17.600  14.294
59979W        W29860  33.405  21.596  13.903
59980W        W29861  13.113  42.328   4.148
59981W        W29862   7.905  32.998  10.980
59982W        W29863  10.307  32.412  14.764
59983W        W29864  34.401  36.071   2.679
59984W        W29865   0.975  24.994  14.926
59985W        W29866  26.104  16.276  11.012
59986W        W29867  14.100   3.274   1.336
59987W        W29868  32.579  39.024  11.995
59988W        W29869   6.428  19.683  13.517
59989W        W29870   9.876  28.057  13.047
59990W        W29871  40.483   4.425   4.744
59991W        W29872  23.696  42.016   3.227
59992W        W29873  33.533  24.995  12.827
59993W        W29874  35.581  29.630  12.841
59994W        W29875   9.845  36.470   3.842
59995W        W29876  29.642   8.795  10.412
59996W        W29877  37.401  42.778  14.769
59997W        W29878  33.464  26.203   0.748
59998W        W29879  16.622  33.943  14.275
59999W        W29880  19.565   7.189  12.430
60000W        W29881  32.985   1.266  13.391
60001W        W29882  28.066  41.522   0.295
60002W        W29883  35.902   2.315  11.522
60003W        W29884  18.084   4.341  11.571
60004W        W29885  36.970  25.479   4.806
60005W        W29886   9.720  17.565  14.472
60006W        W29887  43.338   0.384   2.210
60007W        W29888  43.367  34.517  13.888
60008W        W29889   0.338   6.370  10.943
60009W        W29890  26.542   0.325   1.236
60010W        W29891  36.468  12.252  14.852
60011W        W29892  12.140  23.238  14.360
60012W        W29893  36.588  42.954   2.310
60013W        W29894  11.701   8.835   0.865
60014W        W29895  17.603  38.073  10.619
60015W        W29896  39.461  30.066  11.471
60016W        W29897   5.334  28.043  12.954
60017W        W29898   9.812  16.091  12.039
60018W        W29899  38.039  17.178   2.841
60019W        W29900  32.132  35.894  13.968
60020W        W29901   5.198  32.516  13.924
60021W        W29902  23.551  16.711  14.419
60022W        W29903  22.210   3.804   3.330
60023W        W29904   3.730  34.499  11.402
60024W        W29905  16.225  16.317   4.771
60025W        W29906  15.619  39.394  13.536
60026W        W29907  28.043  23.066   0.873
60027W        W29908  33.880  36.075   2.804
60028W        W29909  30.023  33.525  13.860
60029W        W29910  23.702  10.193   3.292
60030W        W29911  29.456  29.520  13.319
60031W        W29912  30.451  19.211   0.261
60032W        W29913  19.699  20.584   2.832
60033W        W29914  19.050  43.502  11.964
60034W        W29915  30.501  14.778  12.836
60035W        W29916  23.020   5.257  13.996
60036W        W29917  38.380  43.384   4.633
60037W        W29918   8.388  41.466  11.862
60038W        W29919  30.572  24.105   3.163
60039W        W29920  14.652  18.679  13.392
60040W        W29921   1.468  37.978  12.986
60041W        W29922  12.671   4.368   2.376
60042W        W29923  43.375  19.266   3.713
60043W        W29924   6.317  23.718   3.688
60044W        W29925  25.614  23.536   3.693
60045W        W29926  42.831   1.897   2.825
60046W        W29927  34.607  14.600   0.277
60047W        W29928  19.094  33.625  11.114
60048W        W29929  15.754  40.950  14.985
60049W        W29930  29.147   3.870  10.916
60050W        W29931  39.476  43.327  13.055
60051W        W29932  43.301  32.046   1.349
60052W        W29933  21.205  35.591  10.494
60053W        W29934  31.527  17.796  10.403
60054W        W29935  40.459  11.706  13.424
60055W        W29936  18.275  24.009   2.343
60056W        W29937   8.341  27.540  13.979
60057W        W29938  29.451  28.453   2.281
60058W        W29939  41.347  20.251   3.715
60059W        W29940   0.917  18.692   3.175
60060W        W29941  20.152  12.330  12.393
60061W        W29942  41.830  13.186   1.694
60062W        W29943  21.083  35.971  10.606
60063W        W29944  35.499  12.756  14.998
60064W        W29945  37.495  16.735   0.913
60065W        W29946   1.243  30.087   0.732
60066W        W29947  29.077   8.657  12.568
60067W        W29948  31.410  36.991   0.269
60068W        W29949  21.543   2.871   0.805
60069W        W29950  14.638  31.530   4.798
60070W        W29951  21.673  37.052   2.194
60071W        W29952  23.144   4.261  13.318
60072W        W29953   1.345  31.582  10.512
60073W        W29954   0.419  12.813  11.023
60074W        W29955  29.032  40.886  12.081
60075W        W29956  30.652   5.210   2.750
60076W        W29957  34.041   5.702  10.517
60077W        W29958  38.415  39.836  13.314
60078W        W29959   3.878   1.479   1.714
60079W        W29960  19.603  36.464   0.245
60080W        W29961  10.731  33.555   3.802
60081W        W29962  19.148   7.303  13.541
60082W        W29963  20.151  34.055   0.879
60083W        W29964  34.467  19.277   2.293
60084W        W29965  30.474  15.801  12.096
60085W        W29966  25.983  35.036   3.373
60086W        W29967  29.662  29.111  14.789
60087W        W29968   8.852  10.667   0.417
60088W        W29969  41.931   2.455  10.939
60089W        W29970  26.534  36.579   3.272
60090W        W29971  42.399   3.943  11.547
60091W        W29972  18.173  29.983  13.352
60092W        W29973  26.159   5.411  11.410
60093W        W29974  20.087  20.635  11.028
60094W        W29975   3.264  39.359  13.959
60095W        W29976   8.217  18.163   2.329
60096W        W29977  18.704   9.304  11.568
60097W        W29978   4.864  13.129   2.857
60098W        W29979  11.216   6.221   3.724
60099W        W29980   7.743  16.097  14.945
60100W        W29981   2.742  37.914  11.897
60101W        W29982  42.886  25.472   4.782
60102W        W29983  20.260  42.911   5.313
60103W        W29984  35.957   8.863   0.936
60104W        W29985  21.625  16.153   4.323
60105W        W29986   7.842  16.174  12.866
60106W        W29987  14.285   4.843  14.513
60107W        W29988  12.291   7.185   2.279
60108W        W29989  26.185  17.629  14.803
60109W        W29990  10.687  26.629   4.258
60110W        W29991  38.971  20.586  12.547
60111W        W29992  39.317  17.124   4.793
60112W        W29993  26.614  41.027  11.088
60113W        W29994  29.091  11.849   0.355
60114W        W29995  32.941  16.283   3.681
60115W        W29996  28.156  27.002   3.369
60116W        W29997  39.415   6.257  13.937
60117W        W29998  33.466  44.839   0.869
60118W        W29999  23.534  21.263   1.873
60119W        W30000  40.938  21.647   4.174
60120W        W30001  30.971  34.893  13.460
60121W        W30002  10.843  14.109  13.438
60122W        W30003  14.135   4.449   0.483
60123W        W30004   6.414  34.442   3.209
60124W        W30005   6.340  27.595   9.963
60125W        W30006  31.955  11.258  10.973
60126W        W30007  33.901  32.474  14.838
60127W        W30008  44.352  18.590  13.422
60128W        W30009  30.503  12.116   2.871
60129W        W30010  37.945  20.049   4.179
60130W        W30011  17.287  18.109  13.335
60131W        W30012  43.968  16.642  13.429
60132W        W30013  20.599   7.700   4.671
60133W        W30014   4.759  44.835  10.645
60134W        W30015  15.200  33.454  13.425
60135W        W30016  26.603  31.103  11.399
60136W        W30017   2.320   4.876   4.614
60137W        W30018  14.186  36.472   5.760
60138W        W30019  11.268  16.203  11.484
60139W        W30020  17.120   9.787   4.641
60140W        W30021  29.506   8.678  11.001
60141W        W30022  39.464  20.703   0.358
60142W        W30023   6.219  31.562  11.536
60143W        W30024  17.143  42.781  13.891
60144W        W30025   2.878   6.201   0.391
60145W        W30026  39.048  31.525  10.956
60146W        W30027  17.175   2.353  11.988
60147W        W30028  27.952  42.504   4.824
60148W        W30029  33.624  34.503   1.853
60149W        W30030   3.882  11.690  10.496
60150W        W30031   7.237  42.407   2.754
60151W        W30032   2.410  15.136  13.931
60152W        W30033  44.976  18.623   1.265
60153W        W30034  36.555  33.945   2.903
60154W        W30035  20.178  31.937   5.296
60155W        W30036   8.277  30.102  10.897
60156W        W30037  19.191  23.131   3.707
60157W        W30038  30.155  17.721   0.890
60158W        W30039  12.664   8.817   0.734
60159W        W30040  22.567   0.947  14.331
60160W        W30041  32.576  36.542  11.022
60161W        W30042  26.653   5.790   2.799
60162W        W30043  17.751   1.844  14.412
60163W        W30044   1.393  19.628   3.823
60164W        W30045  16.269   2.447  13.455
60165W        W30046  34.541  39.930   3.762
60166W        W30047  27.583  44.967  11.049
60167W        W30048   5.263  36.888  14.434
60168W        W30049  16.105  14.751  10.430
60169W        W30050  10.204  34.049  13.011
60170W        W30051   6.780  27.527  11.011
60171W        W30052  42.985  14.768   0.921
60172W        W30053   6.310  21.547   1.776
60173W        W30054  13.350  35.879   0.935
60174W        W30055   6.394  35.104  10.038
60175W        W30056  18.247  23.071  12.553
60176W        W30057   8.689  25.161   3.809
60177W        W30058  10.807  19.761  12.961
60178W        W30059  25.549   3.444   4.732
60179W        W30060  28.575  10.749   2.813
60180W        W30061   1.966  34.109  13.816
60181W        W30062  18.791  42.440   4.695
60182W        W30063  21.109  27.100   2.411
60183W        W30064   4.408  30.027  12.829
60184W        W30065  13.640   3.428   0.845
60185W        W30066  20.092  12.828   2.270
60186W        W30067   3.827  37.035   2.185
60187W        W30068  10.188  44.900  11.902
60188W        W30069  32.424  12.258  14.405
60189W        W30070   0.822  27.579   4.603
60190W        W30071  41.462  35.540  12.910
60191W        W30072  21.193  19.065  11.084
60192W        W30073   0.351   5.688  12.965
60193W        W30074   3.933  39.908   4.604
60194W        W30075  44.969  30.091  10.971
60195W        W30076  19.640  10.300   4.226
60196W        W30077   4.817  35.370   2.879
60197W        W30078  17.713  42.306   2.818
60198W        W30079  11.670  31.447  11.541
60199W        W30080  29.495  31.984  10.068
60200W        W30081  37.866  15.780  14.819
60201W        W30082  31.135   9.876   2.230
60202W        W30083   0.926  31.578   2.277
60203W        W30084  28.109  27.191   4.684
60204W        W30085  34.369  20.185  11.948
60205W        W30086  22.099  44.942  13.327
60206W        W30087  25.693  11.135   4.305
60207W        W30088   7.803  33.104   3.794
60208W        W30089  29.040   2.962  12.824
60209W        W30090  20.248  39.406  12.403
60210W        W30091   9.337  44.839   4.709
60211W        W30092  22.052   8.791   3.215
60212W        W30093  20.760  39.949   1.707
60213W        W30094  31.555   9.346  10.627
60214W        W30095  27.627  37.879   1.338
60215W        W30096  38.947  19.620  11.537
60216W        W30097   1.399  14.664  11.123
60217W        W30098  34.432  44.906   3.648
60218W        W30099   4.373  19.697  12.013
60219W        W30100  43.493  35.983  14.931
60220W        W30101  20.679  15.743   1.398
60221W        W30102  26.994  22.049  14.964
60222W        W30103  12.690  44.263  11.073
60223W        W30104  26.470  36.927   2.363
60224W        W30105  31.628  35.541  12.950
60225W        W30106  13.279  41.340   3.327
60226W        W30107  39.988   3.814  13.491
60227W        W30108   4.449  13.750  11.983
60228W        W30109   0.334  11.326   3.156
60229W        W30110  32.984  18.254  12.348
60230W        W30111  28.068  40.862   2.786
60231W        W30112  20.195  42.986   0.826
60232W        W30113  17.794  36.047   1.901
60233W        W30114  29.048  44.274   3.167
60234W        W30115  37.540  44.914  11.431
60235W        W30116   5.351  39.327   2.676
60236W        W30117  31.088  19.762   4.181
60237W        W30118  40.886   0.852  13.358
60238W        W30119  12.323   8.217  12.349
60239W        W30120   9.813  25.685  10.636
60240W        W30121   7.381  39.417   4.770
60241W        W30122  26.039  40.387  13.334
60242W        W30123  39.038  31.607  11.492
60243W        W30124  16.191  17.656   3.732
60244W        W30125  20.708  20.611  14.882
60245W        W30126  30.962  21.185   0.243
60246W        W30127  33.514  21.539   1.898
60247W        W30128  39.316  13.330   0.880
60248W        W30129  43.993  43.864  10.892
60249W        W30130  35.099   1.274   0.277
60250W        W30131  24.074  36.075   4.719
60251W        W30132  37.457  15.192  13.473
60252W        W30133  25.483  37.878   0.286
60253W        W30134  23.728  25.634  12.543
60254W        W30135  18.103  30.979   3.368
60255W        W30136   3.835  22.144  11.044
60256W        W30137  26.689  24.481   3.298
60257W        W30138   9.275  22.598   0.253
60258W        W30139  41.515   3.223  11.591
60259W        W30140  12.286  17.255  11.123
60260W        W30141  20.153  15.211  12.398
60261W        W30142  23.626  31.034  12.416
60262W        W30143  41.950  13.668   1.258
60263W        W30144  18.727   0.265   0.427
60264W        W30145   3.311  26.613  14.878
60265W        W30146  39.458  28.538  12.529
60266W        W30147  11.705  31.938  10.891
60267W        W30148  41.922  41.814   0.479
60268W        W30149  29.462  34.010  12.910
60269W        W30150  22.560  18.611  10.070
60270W        W30151   2.392  12.737   3.771
60271W        W30152   1.832  27.683  14.816
60272W        W30153  21.119  15.232  14.821
60273W        W30154  11.331  44.769  14.896
60274W        W30155   6.841   2.798  13.812
60275W        W30156  21.537  35.418  13.372
60276W        W30157  39.936  12.152   4.680
60277W        W30158  34.546  33.026  13.032
60278W        W30159  40.511  39.008   2.752
60279W        W30160   2.918   3.337   2.224
60280W        W30161  38.885  22.174   2.676
60281W        W30162  21.024   2.744   1.302
60282W        W30163  41.351   3.353  12.866
60283W        W30164  20.238   4.874  12.928
60284W        W30165  29.097  17.576  12.935
60285W        W30166   2.905  17.172  12.865
60286W        W30167  27.511  16.581   4.630
60287W        W30168  34.517   9.815   4.607
60288W        W30169   2.233  39.423  12.379
60289W        W30170   2.282  26.072  14.367
60290W        W30171  33.477  34.089  13.025
60291W        W30172  24.503   6.886  10.538
60292W        W30173  40.449  28.590   4.651
60293W        W30174  20.039   4.922   2.756
60294W        W30175  19.141  10.762  13.411
60295W        W30176  42.004  18.568  13.359
60296W        W30177  15.201  12.227   0.311
60297W        W30178  31.573   6.284  14.993
60298W        W30179  17.288  43.397   0.407
60299W        W30180   6.786  27.484  13.548
60300W        W30181  32.612  26.563   1.222
60301W        W30182   6.188   6.780  14.484
60302W        W30183  15.109  26.137  13.443
60303W        W30184  12.835  10.168  10.903
60304W        W30185  23.212   0.291  13.882
60305W        W30186  41.388  18.295   2.888
60306W        W30187   6.866  39.402  13.828
60307W        W30188   5.374  20.270   2.836
60308W        W30189  41.001  40.994  10.936
60309W        W30190  14.218  26.516   3.258
60310W        W30191  20.717  41.964   3.718
60311W        W30192   5.850  16.587   2.178
60312W        W30193   5.837  28.970   2.865
60313W        W30194  23.231  30.986  11.410
60314W        W30195  36.970  34.461   3.310
60315W        W30196   7.274  29.507  13.360
60316W        W30197  26.583  29.981   3.760
60317W        W30198   7.222  25.520   1.252
60318W        W30199   2.458  42.967  10.138
60319W        W30200  16.647  15.091  12.933
60320W        W30201  16.715  27.157  10.433
60321W        W30202  34.998  16.685  12.577
60322W        W30203   1.908  42.926   2.387
60323W        W30204  22.607  11.148  11.935
60324W        W30205  37.936  11.348  12.471
60325W        W30206  11.177   6.183  12.091
60326W        W30207  17.797  12.700   4.283
60327W        W30208  27.126  18.773  11.020
60328W        W30209  16.135  20.072  14.029
60329W        W30210  22.590  22.243   0.349
60330W        W30211  35.022  25.637   2.709
60331W        W30212  22.096  22.588   1.903
60332W        W30213   1.886   6.324  13.020
60333W        W30214  39.470  40.409  13.023
60334W        W30215  20.569  41.475   1.756
60335W        W30216   6.894   7.889   3.376
60336W        W30217  23.228   3.743  10.585
60337W        W30218   0.490  28.540  12.345
60338W        W30219  24.527   0.430  11.085
60339W        W30220  41.802  38.004  13.531
60340W        W30221   8.300   2.415  11.393
60341W        W30222  34.409   3.353  11.960
60342W        W30223  35.090  15.302  12.015
60343W        W30224  11.192  36.372   4.332
60344W        W30225  37.485  13.645  11.394
60345W        W30226  32.600  29.167   2.816
60346W        W30227   9.829   7.763   0.259
60347W        W30228  29.656  14.804  10.630
60348W        W30229  41.340   7.201  12.420
60349W        W30230  35.885  16.257  12.354
60350W        W30231   1.785  25.075   4.232
60351W        W30232  23.734  37.028  14.935
60352W        W30233  27.195  37.575   3.775
60353W        W30234  30.598  18.145  11.453
60354W        W30235  23.041  10.736   3.807
60355W        W30236  34.507  23.155  12.353
60356W        W30237  25.528   9.687  14.900
60357W        W30238  29.980  37.874   1.732
60358W        W30239  23.177  11.227   4.283
60359W        W30240   9.219  36.479   3.276
60360W        W30241  29.950  27.557   1.289
60361W        W30242  15.224  34.450   2.256
60362W        W30243  24.009   2.722  12.959
60363W        W30244  42.032  14.622  14.872
60364W        W30245  32.048  36.392   1.926
60365W        W30246  44.988  38.965  11.013
60366W        W30247  29.481  31.518   1.369
60367W        W30248  36.076   8.661   3.219
60368W        W30249  28.658  15.706   3.869
60369W        W30250  19.655   8.357   3.151
60370W        W30251   5.397  35.553  12.569
60371W        W30252  22.591  40.389  12.521
60372W        W30253  24.587  32.522  11.867
60373W        W30254  44.906  19.604   1.714
60374W        W30255  20.649   9.383   0.880
60375W        W30256  28.470  41.936  12.044
60376W        W30257  13.246   5.363   0.374
60377W        W30258  37.381  35.033   0.389
60378W        W30259  22.686  15.103   4.661
60379W        W30260  37.945  22.021  11.490
60380W        W30261  30.031  37.881  14.946
60381W        W30262  40.048  26.153  14.394
60382W        W30263  38.022  15.206  10.429
60383W        W30264  19.578  25.570   4.618
60384W        W30265   6.708  41.479   0.931
60385W        W30266   8.245  41.978   2.852
60386W        W30267  20.540  11.674   4.324
60387W        W30268   2.861  34.550   3.644
60388W        W30269  15.228   2.325   1.754
60389W        W30270  30.985  32.023  12.342
60390W        W30271  31.023  37.550   1.829
60391W        W30272  23.055  38.931  11.504
60392W        W30273  43.345   6.886  14.809
60393W        W30274   6.781   1.811   4.735
60394W        W30275  40.540  23.730  10.110
60395W        W30276  30.444   3.374   3.811
60396W        W30277   5.379  15.103   2.249
60397W        W30278  34.607  35.537   2.671
60398W        W30279  38.985  38.363  12.390
60399W        W30280   6.212  42.846  13.914
60400W        W30281   5.376   9.341   2.206
60401W        W30282  33.612  41.030  13.054
60402W        W30283  22.595  34.995   4.740
60403W        W30284  38.973  33.470   3.291
60404W        W30285  20.646   7.199   4.617
60405W        W30286  20.693  25.685   4.267
60406W        W30287  18.621  41.486  10.120
60407W        W30288  34.512  44.981  14.795
60408W        W30289   8.317  36.579   1.394
60409W        W30290   0.427   8.862  12.912
60410W        W30291   5.895  38.976  14.282
60411W        W30292  30.109  38.029   0.911
60412W        W30293  12.814  43.767  11.913
60413W        W30294  37.860   1.849   0.899
60414W        W30295  26.971  24.179   2.328
60415W        W30296  16.295  40.020   3.257
60416W        W30297  37.371   1.940  14.924
60417W        W30298  17.224  15.678   3.705
60418W        W30299  27.466  35.070   1.276
60419W        W30300   6.734   1.414  11.542
60420W        W30301  28.957  20.702  13.913
60421W        W30302  28.054  25.029   2.381
60422W        W30303   3.310   3.341  13.904
60423W        W30304   8.285  20.536  11.042
60424W        W30305   2.348   5.793  11.427
60425W        W30306  22.637  37.535  14.939
60426W        W30307   2.858  14.323   4.741
60427W        W30308   2.829  32.911  11.545
60428W        W30309  22.163   3.288  11.029
60429W        W30310  44.793  12.261   0.339
60430W        W30311  26.586   3.352   3.273
60431W        W30312  10.771   1.281  14.839
60432W        W30313   0.945  19.145  12.381
60433W        W30314  42.844  29.052  13.521
60434W        W30315  44.787  39.543   1.220
60435W        W30316  12.327  35.512   1.860
60436W        W30317  21.673  37.413   4.325
60437W        W30318  11.175  26.166  14.952
60438W        W30319  28.096  13.658   5.210
60439W        W30320  15.153  14.697  11.413
60440W        W30321  27.027  24.203   2.879
60441W        W30322  39.413  13.274  13.818
60442W        W30323  17.759   6.360   2.790
60443W        W30324  37.926  41.973  14.923
60444W        W30325  30.143  29.649   0.961
60445W        W30326   5.199  17.569   4.193
60446W        W30327  31.571  38.904   1.778
60447W        W30328   7.853   7.225  13.359
60448W        W30329  30.569  19.555   1.257
60449W        W30330  15.103  31.930  13.440
60450W        W30331  37.848  26.633   5.216
60451W        W30332  31.062   0.431   1.910
60452W        W30333  19.660   6.687   3.316
60453W        W30334  43.473   7.226   0.316
60454W        W30335   7.701   9.206   1.786
60455W        W30336   1.973   2.383  13.462
60456W        W30337  39.339   4.326   2.344
60457W        W30338  16.606  40.386  14.445
60458W        W30339  31.000  28.159  11.867
60459W        W30340  11.816  19.173  13.969
60460W        W30341   3.403  37.953  14.794
60461W        W30342  10.727  42.314   3.236
60462W        W30343  11.242  36.546  10.447
60463W        W30344  18.057  28.954  11.092
60464W        W30345  35.988  31.137  10.431
60465W        W30346  41.350  42.959   1.807
60466W        W30347   4.809  27.060  14.010
60467W        W30348  27.024  40.981   3.792
60468W        W30349  25.139  32.410  14.765
60469W        W30350  11.231  29.428   4.143
60470W        W30351  22.244   4.790  10.012
60471W        W30352  38.562  22.680  12.004
60472W        W30353  27.104  17.100   4.805
60473W        W30354  24.703  43.334   4.761
60474W        W30355  30.920  23.525   4.269
60475W        W30356   3.779  34.106   0.948
60476W        W30357   2.241  11.852   5.161
60477W        W30358  18.115   9.323  11.936
60478W        W30359  26.635  38.443  13.824
60479W        W30360   1.445  27.589   2.705
60480W        W30361  42.421  37.842  13.969
60481W        W30362  37.889  36.461  14.418
60482W        W30363   6.900  42.377  14.411
60483W        W30364  25.185  13.199   0.443
60484W        W30365   5.770  44.948  14.474
60485W        W30366  18.690  27.686   5.722
60486W        W30367  25.491  42.967  13.493
60487W        W30368  39.987   2.819   1.274
60488W        W30369  31.553  37.900   3.658
60489W        W30370  11.706  18.110  13.815
60490W        W30371  28.172  22.593  11.454
60491W        W30372  24.144  25.120  11.528
60492W        W30373  16.229   5.233  10.506
60493W        W30374  26.149   3.326  14.465
60494W        W30375  42.474  10.742  14.320
60495W        W30376  14.691  33.095   4.653
60496W        W30377  32.988  40.845  13.836
60497W        W30378  22.667  27.503   3.792
60498W        W30379  35.864  39.406   3.219
60499W        W30380  40.897  39.521   4.125
60500W        W30381   4.358  42.310   2.405
60501W        W30382  36.373  39.329  13.902
60502W        W30383  12.272  11.332   2.351
60503W        W30384  15.225  29.524  12.488
60504W        W30385  26.199  11.688  11.906
60505W        W30386   5.421  14.270   3.795
60506W        W30387  19.670   8.683  12.832
60507W        W30388  36.855  17.188   2.394
60508W        W30389  36.585   4.445  14.993
60509W        W30390  31.974  11.643  10.603
60510W        W30391  15.146  30.470   1.219
60511W        W30392  44.340   8.724   4.703
60512W        W30393  20.726  33.580  13.319
60513W        W30394  11.329   3.221  14.800
60514W        W30395   2.272  30.065  14.513
60515W        W30396  38.331  23.124   4.801
60516W        W30397  42.843  23.083   3.301
60517W        W30398   5.857  10.793   3.714
60518W        W30399   9.762  37.422   1.927
60519W        W30400  18.251  12.234  10.923
60520W        W30401  38.969   8.826  13.833
60521W        W30402  34.500   5.290   3.771
60522W        W30403  25.678   3.228   1.265
60523W        W30404  10.823   8.386  13.061
60524W        W30405  15.579  34.053  10.576
60525W        W30406  40.399  43.331   2.710
60526W        W30407  13.328  26.121  12.001
60527W        W30408   0.252  43.485  12.472
60528W        W30409  17.250   3.719  12.867
60529W        W30410  18.137   0.418   1.216
60530W        W30411  15.687  44.988  11.112
60531W        W30412  36.503   4.221   3.839
60532W        W30413  30.099  22.681  13.996
60533W        W30414  16.194  29.148   2.404
60534W        W30415  39.867   2.278  13.537
60535W        W30416  12.641  14.297  14.389
60536W        W30417  31.975  22.651  14.935
60537W        W30418  32.080  28.674   4.258
60538W        W30419  44.333  15.204   0.939
60539W        W30420   3.317  35.072   1.839
60540W        W30421  44.315   0.459  14.470
60541W        W30422  32.487   7.837  13.797
60542W        W30423   0.490   4.225  11.869
60543W        W30424  19.674  41.852  14.981
60544W        W30425  26.143  10.848   3.810
60545W        W30426   5.856  41.536   3.341
60546W        W30427  14.289  41.505  10.643
60547W        W30428  36.032  33.937  11.999
60548W        W30429  34.994  20.692  11.045
60549W        W30430  22.045  39.922   4.178
60550W        W30431  40.435  18.775  11.932
60551W        W30432  39.393  38.046  10.456
60552W        W30433  25.610   9.267   3.799
60553W        W30434  36.572   3.341  14.437
60554W        W30435   6.689  28.029  12.381
60555W        W30436   0.449   5.311   3.768
60556W        W30437  31.608  39.049   1.236
60557W        W30438  27.669   3.744   1.889
60558W        W30439  33.894  28.038  14.014
60559W        W30440   9.227  27.088  11.005
60560W        W30441  36.534  39.843   2.381
60561W        W30442  17.651  33.924   4.661
60562W        W30443  21.693  26.689  12.384
60563W        W30444  34.972  17.724  11.933
60564W        W30445  34.615  37.993  12.407
60565W        W30446  27.979  31.445  14.987
60566W        W30447  24.186   9.851  14.991
60567W        W30448  30.056   8.732   4.771
60568W        W30449  44.008  39.897   3.193
60569W        W30450  44.330  26.176  13.827
60570W        W30451  38.907   3.312  12.497
60571W        W30452  22.084  41.789   1.422
60572W        W30453  33.525  40.831  13.971
60573W        W30454   7.227   0.808   0.844
60574W        W30455  32.035  16.097   4.675
60575W        W30456  15.649  37.865   0.311
60576W        W30457  40.360   9.307  14.893
60577W        W30458   2.852   3.711  13.030
60578W        W30459   6.326   9.744   3.684
60579W        W30460  21.063  39.924  11.372
60580W        W30461   4.753  25.041   4.721
60581W        W30462   2.423  21.539   4.659
60582W        W30463  44.963  44.939   2.207
60583W        W30464  43.019   9.239   0.841
60584W        W30465  10.309  40.853  14.965
60585W        W30466  13.751   2.234   3.754
60586W        W30467  24.004   0.746  11.951
60587W        W30468  15.288   9.206   4.640
60588W        W30469  40.491  36.568   3.824
60589W        W30470  11.323  43.928  13.331
60590W        W30471  19.650  44.846   3.839
60591W        W30472  35.454  11.818   1.318
60592W        W30473  17.731  24.007  12.854
60593W        W30474  16.793   8.283  12.941
60594W        W30475  31.090  29.137  10.504
60595W        W30476   8.365   2.889  11.601
60596W        W30477  37.432  12.118  11.566
60597W        W30478  32.551  17.160   2.878
60598W        W30479   5.849  24.480   2.760
60599W        W30480  15.812  31.440  14.377
60600W        W30481  20.561   0.248   1.922
60601W        W30482  36.396   0.939   0.413
60602W        W30483  14.612   4.313  10.993
60603W        W30484  36.059  17.564  10.975
60604W        W30485  39.835  29.045  14.879
60605W        W30486  12.192   3.802   2.719
60606W        W30487  43.320  25.697  11.394
60607W        W30488  23.013   3.350   0.962
60608W        W30489  28.145  41.948  13.981
60609W        W30490  21.652  40.434  13.995
60610W        W30491  28.592  28.982  11.581
60611W        W30492  14.273  34.946   2.741
60612W        W30493  28.989  13.649   1.213
60613W        W30494  37.382  32.962  11.512
60614W        W30495  15.273  27.087  12.343
60615W        W30496   2.853  13.269   2.683
60616W        W30497  23.207  22.591  11.410
60617W        W30498  37.442   8.311   2.815
60618W        W30499   3.838  40.323  14.020
60619W        W30500  41.831   3.812   1.242
60620W        W30501   0.248  43.308   2.346
60621W        W30502  37.078  14.678   0.777
60622W        W30503  31.065  42.463  13.935
60623W        W30504   4.422  37.889   0.338
60624W        W30505  39.535  37.840   1.892
60625W        W30506  11.815   5.890   9.959
60626W        W30507  20.583  33.553  12.889
60627W        W30508  12.727  39.970   4.132
60628W        W30509  43.867  44.442   0.307
60629W        W30510  41.484   7.315   3.838
60630W        W30511  43.359   8.290  11.583
60631W        W30512  39.048  37.471   4.651
60632W        W30513  37.934  36.863  14.974
60633W        W30514  42.800   7.899  12.021
60634W        W30515   0.467  19.727   3.733
60635W        W30516  40.468  20.045  14.426
60636W        W30517   0.811  34.583  10.905
60637W        W30518  29.172  15.189  11.387
60638W        W30519  36.388   8.843   1.298
60639W        W30520  24.593  40.810   4.610
60640W        W30521  37.577  11.778  12.352
60641W        W30522  43.462   2.340   3.631
60642W        W30523   8.325  37.408  12.991
60643W        W30524  24.171  28.069   4.659
60644W        W30525  16.704   0.744  11.907
60645W        W30526  13.192  12.153  13.461
60646W        W30527  33.582  23.016  11.111
60647W        W30528  28.107  22.247   0.459
60648W        W30529   0.310  28.629   3.699
60649W        W30530  18.722   1.734   4.261
60650W        W30531  32.090  19.713  14.352
60651W        W30532  39.893  38.971   3.363
60652W        W30533  32.557  44.441  13.001
60653W        W30534  17.661   7.366   1.809
60654W        W30535  34.456   0.277   1.871
60655W        W30536  40.303   1.865  11.550
60656W        W30537  35.096  22.727  10.430
60657W        W30538  39.516  33.000  12.077
60658W        W30539  27.661  21.677  13.024
60659W        W30540  24.218  19.050   4.711
60660W        W30541  37.983  38.886  10.944
60661W        W30542  20.174  32.905   4.611
60662W        W30543  15.595  29.129   1.862
60663W        W30544  27.541   5.391  13.820
60664W        W30545  22.571  15.241   0.248
60665W        W30546   8.194  21.574  13.011
60666W        W30547   6.796   2.291   3.640
60667W        W30548  26.471  35.553   4.137
60668W        W30549  29.625   0.464  11.386
60669W        W30550  43.770  18.657   1.428
60670W        W30551  13.158   6.852  12.416
60671W        W30552  15.759   5.711  13.010
60672W        W30553   1.798  24.170  11.384
60673W        W30554  19.050  12.308  13.510
60674W        W30555  39.430  36.372  14.020
60675W        W30556  24.973   9.272   0.299
60676W        W30557  37.582   4.355  12.846
60677W        W30558  33.552  14.735   1.451
60678W        W30559   9.199  36.042  11.506
60679W        W30560  21.752  43.878   3.316
60680W        W30561   6.679   1.938   4.131
60681W        W30562  10.167  21.139  14.797
60682W        W30563  26.690  21.070  10.008
60683W        W30564   2.236  21.230   5.130
60684W        W30565  36.952  40.804  10.587
60685W        W30566  37.934  38.927  12.040
60686W        W30567   9.228  40.388  12.860
60687W        W30568   7.306   2.816  12.003
60688W        W30569  11.358  20.039   2.705
60689W        W30570  35.538   3.386   0.759
60690W        W30571  37.887  13.626   1.847
60691W        W30572  32.089  25.078  12.855
60692W        W30573  31.571  26.979  13.039
60693W        W30574  38.472  30.600   2.781
60694W        W30575  41.527   6.724  12.018
60695W        W30576  42.402  11.661   0.400
60696W        W30577  40.863  30.632   2.255
60697W        W30578  17.165  21.756  10.491
60698W        W30579   0.776  40.814   3.294
60699W        W30580  16.733  41.961  11.877
60700W        W30581  14.279   3.744  12.367
60701W        W30582   7.177  15.132  13.367
60702W        W30583   9.371  13.272  12.413
60703W        W30584  18.628  38.925  13.064
60704W        W30585   8.218  23.584   0.386
60705W        W30586  35.916  36.520  12.440
60706W        W30587  18.166  28.094  10.084
60707W        W30588   9.653   9.239  12.539
60708W        W30589  14.248  25.191   2.200
60709W        W30590   7.755  34.864  14.319
60710W        W30591  34.527  42.977   4.156
60711W        W30592  36.397  22.506  14.491
60712W        W30593   8.718  37.896   2.737
60713W        W30594  10.822  18.157  12.032
60714W        W30595  29.054  43.780  13.316
60715W        W30596   5.721  32.939   0.264
60716W        W30597  20.093   2.395   2.822
60717W        W30598  16.165   5.869  12.909
60718W        W30599  20.689   3.247   1.369
60719W        W30600  25.183  24.495  13.791
60720W        W30601   2.411  40.363   2.888
60721W        W30602  30.106  26.677   1.229
60722W        W30603   7.252  20.199  14.335
60723W        W30604  23.147   9.828   0.310
60724W        W30605   0.919  19.116  11.376
60725W        W30606   1.440  35.399   3.682
60726W        W30607  11.177  16.640  11.411
60727W        W30608  43.349  23.230  12.002
60728W        W30609  32.102  33.581  10.453
60729W        W30610  22.102  20.697   3.786
60730W        W30611  33.530  10.691   1.287
60731W        W30612  36.564  42.309   3.288
60732W        W30613  18.197  21.756   0.925
60733W        W30614  25.672  26.038   2.333
60734W        W30615   3.841   0.285   2.378
60735W        W30616  40.955  23.133   2.896
60736W        W30617  18.572   9.838   1.762
60737W        W30618   5.399  42.989   4.166
60738W        W30619  18.786  16.763   4.204
60739W        W30620  25.641  32.046  10.107
60740W        W30621  31.107  34.382  11.090
60741W        W30622  12.213   9.375  11.939
60742W        W30623  13.252  26.079  14.831
60743W        W30624   3.768  22.180   3.642
60744W        W30625   6.843   6.910   2.704
60745W        W30626  31.550  32.050  12.973
60746W        W30627   8.874   0.973   3.801
60747W        W30628  34.063  38.900   1.908
60748W        W30629  41.978   7.763   3.779
60749W        W30630  21.583  27.949  11.985
60750W        W30631  27.472  34.614  13.465
60751W        W30632  22.542  30.045   0.424
60752W        W30633  34.613   5.885  14.390
60753W        W30634  35.505   2.231  12.948
60754W        W30635   2.297  41.404  12.879
60755W        W30636  19.238   8.395   4.656
60756W        W30637  27.081  15.192   2.789
60757W        W30638  20.555  10.807  11.912
60758W        W30639  25.990   2.758  10.632
60759W        W30640   6.726   1.322   3.260
60760W        W30641   6.715   3.444   1.385
60761W        W30642  10.694  38.052   1.287
60762W        W30643  18.710  13.272  10.925
60763W        W30644  13.178   5.812  11.483
60764W        W30645   7.273  17.264   4.337
60765W        W30646  32.491  15.208   3.161
60766W        W30647   2.871  13.740  10.536
60767W        W30648  21.245   4.213   0.380
60768W        W30649  11.286  28.996   1.722
60769W        W30650  22.231  23.675  10.495
60770W        W30651  20.220  24.542  14.435
60771W        W30652  40.887  32.043   3.157
60772W        W30653   7.698   3.302  13.894
60773W        W30654  21.540  23.654  12.343
60774W        W30655  29.619  43.766   3.645
60775W        W30656  33.559  29.510  12.992
60776W        W30657  30.629  32.032  14.778
60777W        W30658  42.469  31.944   2.733
60778W        W30659  43.988  29.661  13.348
60779W        W30660   8.741  43.339   2.689
60780W        W30661   8.751   2.918   3.385
60781W        W30662  31.486   4.306  11.556
60782W        W30663  30.477  11.860   1.328
60783W        W30664  27.993  41.939   3.694
60784W        W30665  39.364   9.151   2.766
60785W        W30666  44.472  38.025  11.465
60786W        W30667  12.225  23.167   2.748
60787W        W30668  41.292  29.593  13.319
60788W        W30669   1.974  20.597   2.366
60789W        W30670   2.301  15.159   3.195
60790W        W30671  19.759  35.072  12.375
60791W        W30672  17.659  12.144  13.521
60792W        W30673  12.751  27.660  13.428
60793W        W30674  22.661   8.273   0.243
60794W        W30675  41.349  29.014  13.321
60795W        W30676  24.644  17.182   3.256
60796W        W30677  23.166  40.850   4.722
60797W        W30678  38.986  35.482  10.591
60798W        W30679  41.384  23.663  11.046
60799W        W30680   8.198  13.649  12.348
60800W        W30681  16.784  40.405  11.583
60801W        W30682   8.847   1.353   0.800
60802W        W30683  27.101  22.067  11.044
60803W        W30684  34.063  36.064   4.153
60804W        W30685  17.283   4.726  11.111
60805W        W30686  32.559  18.676  10.029
60806W        W30687  36.973   0.816   4.320
60807W        W30688  20.638  26.107   2.675
60808W        W30689   1.471  22.244   2.855
60809W        W30690   4.300  39.432  14.497
60810W        W30691  35.010   9.675  14.883
60811W        W30692   9.329   6.709   0.747
60812W        W30693  10.647  31.550  10.427
60813W        W30694  19.222  33.875   2.832
60814W        W30695  29.539  44.396   1.877
60815W        W30696   2.405  26.963  12.444
60816W        W30697   6.748   7.861  11.553
60817W        W30698  21.551  29.084   4.762
60818W        W30699  22.536  14.645   2.663
60819W        W30700  21.550  44.934   1.778
60820W        W30701  17.287  32.548  12.541
60821W        W30702  12.737  40.047  11.417
60822W        W30703  35.890  20.115   5.248
60823W        W30704  36.898  30.929  13.368
60824W        W30705  10.658   0.468   2.391
60825W        W30706   0.447  34.434   0.369
60826W        W30707  14.616   1.783   4.740
60827W        W30708  39.024  17.291  11.599
60828W        W30709  17.635   5.416   2.192
60829W        W30710  34.403  21.664   4.276
60830W        W30711  33.601  14.776  11.120
60831W        W30712   1.246  33.394   1.265
60832W        W30713   2.264  38.839  14.971
60833W        W30714  39.886   5.239  14.365
60834W        W30715  18.074  18.295  13.524
60835W        W30716   9.887  43.968   3.838
60836W        W30717  39.458  30.914   3.643
60837W        W30718   5.897   3.315   0.940
60838W        W30719  15.816  44.929   3.747
60839W        W30720   3.750   2.857  12.467
60840W        W30721  12.812  42.968  11.092
60841W        W30722  23.627   6.706  13.023
60842W        W30723  40.486   4.869  10.999
60843W        W30724  17.633   7.776   0.958
60844W        W30725  10.201   8.672  12.921
60845W        W30726   9.323  16.652   3.147
60846W        W30727  14.210  10.292   2.859
60847W        W30728   1.323  28.955   4.272
60848W        W30729   3.239  39.491  14.299
60849W        W30730  12.771  32.559   2.340
60850W        W30731  38.859  33.900   2.252
60851W        W30732  24.996   4.906   1.308
60852W        W30733  19.693  29.030   1.904
60853W        W30734  15.672  35.016   0.245
60854W        W30735  18.199  16.684  13.851
60855W        W30736  26.057  29.559   4.797
60856W        W30737  13.777  32.135   4.142
60857W        W30738  25.086  22.158   2.872
60858W        W30739  21.064   7.881  10.912
60859W        W30740  14.208   5.919   2.369
60860W        W30741  24.594   0.871   4.721
60861W        W30742  14.741   7.314   4.726
60862W        W30743  16.673  14.592  12.968
60863W        W30744   3.317  19.046  14.782
60864W        W30745  14.134  19.271   4.306
60865W        W30746  24.586   2.452   0.296
60866W        W30747  32.039  38.491   4.250
60867W        W30748  27.037  25.187  14.989
60868W        W30749  34.606  24.194  14.967
60869W        W30750  21.606  22.655  12.342
60870W        W30751  44.448   3.879   3.864
60871W        W30752  21.591   0.825   2.682
60872W        W30753  39.404  38.040   2.373
60873W        W30754  21.638  30.044  12.882
60874W        W30755  20.621  38.010   4.270
60875W        W30756  29.161  30.619   0.803
60876W        W30757   8.793   2.757  13.882
60877W        W30758  33.532  34.607  11.041
60878W        W30759  32.608  11.760   0.802
60879W        W30760  34.999  42.008   0.933
60880W        W30761  16.567   3.322  13.816
60881W        W30762  15.794  14.135  10.943
60882W        W30763  26.502  39.419  14.840
60883W        W30764   6.313  12.221   3.203
60884W        W30765  24.522  37.518   4.824
60885W        W30766   7.814  30.123   2.368
60886W        W30767   8.393  41.310   3.326
60887W        W30768  30.131  27.633  10.626
60888W        W30769  28.145  35.864  13.488
60889W        W30770  26.486  26.983  11.524
60890W        W30771  37.939  27.977  10.010
60891W        W30772  31.898   6.345   2.710
60892W        W30773  31.431  39.885  11.535
60893W        W30774  28.457  26.959   1.765
60894W        W30775  31.571  13.816   0.869
60895W        W30776  38.956  36.851  13.852
60896W        W30777  31.586   3.750   1.778
60897W        W30778   2.312  44.454   1.431
60898W        W30779  13.651  38.393   4.740
60899W        W30780  35.515  43.876  13.958
60900W        W30781  44.934  18.718  12.519
60901W        W30782   3.828  42.906   3.255
60902W        W30783  27.123   9.842  11.126
60903W        W30784  30.157  21.547  13.481
60904W        W30785  22.736  12.190   4.709
60905W        W30786  23.672  11.830  11.587
60906W        W30787  38.418   2.925   1.841
60907W        W30788  44.439  11.283   2.861
60908W        W30789  29.568   0.480   0.381
60909W        W30790  13.215  29.039  11.428
60910W        W30791  10.731  13.284  13.013
60911W        W30792  40.955  32.928  13.497
60912W        W30793  28.528  31.437  10.500
60913W        W30794  41.353  30.506   2.296
60914W        W30795  26.189   6.791   4.696
60915W        W30796  37.478  12.708   4.657
60916W        W30797  42.847  29.584  10.558
60917W        W30798  38.459  38.055  13.353
60918W        W30799  13.716  17.194  14.483
60919W        W30800   1.445  42.949  11.859
60920W        W30801  21.135  43.898  10.417
60921W        W30802  39.954   8.268   3.751
60922W        W30803  10.259  23.672  13.465
60923W        W30804   0.287   8.697   0.759
60924W        W30805   3.926   6.360  13.005
60925W        W30806  23.723  37.964  10.456
60926W        W30807  16.319   6.780   2.241
60927W        W30808  19.120  38.351   0.927
60928W        W30809  25.097  29.935  13.312
60929W        W30810  19.069   2.939   0.376
60930W        W30811  11.265  10.337   1.316
60931W        W30812   1.322  19.280   0.960
60932W        W30813  34.071  40.326  12.950
60933W        W30814  24.025  34.993  13.044
60934W        W30815  20.522  37.467  14.492
60935W        W30816   6.347   8.220   3.752
60936W        W30817  36.879  27.563  11.477
60937W        W30818  34.452  13.322  13.943
60938W        W30819  15.691  41.439   2.768
60939W        W30820  42.819  44.320  10.616
60940W        W30821  19.747  37.983  13.361
60941W        W30822  17.620  15.819   5.239
60942W        W30823  34.405  27.110   2.695
60943W        W30824   7.259  13.121  14.375
60944W        W30825  19.173   9.365   0.739
60945W        W30826  22.652  34.524  11.372
60946W        W30827   3.438  35.037   0.336
60947W        W30828  27.196  34.547   3.654
60948W        W30829  19.696   3.389  10.976
60949W        W30830   1.966  44.891  12.896
60950W        W30831  17.719   2.311   2.395
60951W        W30832   3.398  16.812  11.052
60952W        W30833  34.967  32.440   1.213
60953W        W30834  26.002  20.623  13.913
60954W        W30835   0.872  10.336  13.391
60955W        W30836  19.579  18.660   4.687
60956W        W30837  27.681  36.073   1.896
60957W        W30838   2.842  18.233   1.250
60958W        W30839   4.252  10.176  14.372
60959W        W30840   0.361   7.403  12.403
60960W        W30841  36.591   6.423  11.999
60961W        W30842  28.461  22.560   4.735
60962W        W30843  22.159   2.732   1.289
60963W        W30844  37.841  39.924   3.256
60964W        W30845   0.483  36.541   3.274
60965W        W30846  39.505  10.742  12.083
60966W        W30847   7.816   8.687  11.463
60967W        W30848  31.907  33.070  13.803
60968W        W30849  44.773  34.892   2.387
60969W        W30850   6.196  11.787  11.871
60970W        W30851  15.209  32.890   0.353
60971W        W30852  32.484  12.857  11.882
60972W        W30853  25.486  15.221  10.542
60973W        W30854  29.037  20.642   0.283
60974W        W30855  24.701  37.472  13.000
60975W        W30856   3.779  32.564   3.346
60976W        W30857  25.617  38.856   4.332
60977W        W30858  38.382  17.654  13.870
60978W        W30859  37.968  22.553   3.849
60979W        W30860  35.418   3.421   2.287
60980W        W30861   6.294   7.312  14.866
60981W        W30862  23.627  33.887  10.546
60982W        W30863  14.231  17.245   5.178
60983W        W30864  19.578  28.982  13.054
60984W        W30865  43.346  31.435  14.988
60985W        W30866  42.309  26.605  10.449
60986W        W30867  25.571  20.223  14.942
60987W        W30868  32.606  39.479   1.729
60988W        W30869  18.703  13.218   2.796
60989W        W30870  38.992  42.354  10.404
60990W        W30871  35.097  24.657  11.074
60991W        W30872  12.696  29.636  12.869
60992W        W30873  35.985  44.822   4.136
60993W        W30874  22.129  23.020  14.476
60994W        W30875   1.973   5.354  14.512
60995W        W30876   9.248  40.023  13.324
60996W        W30877   7.291  19.174   0.430
60997W        W30878  42.300   7.813   4.343
60998W        W30879   8.845   5.408  12.565
60999W        W30880  35.875  34.120   3.785
61000W        W30881  13.347  27.164  11.065
61001W        W30882  28.952   1.824   1.865
61002W        W30883   5.692  24.059   3.744
61003W        W30884  19.545  15.263   4.631
61004W        W30885  16.119  37.937   3.263
61005W        W30886  29.955   0.978   1.363
61006W        W30887   0.301  25.663  14.980
61007W        W30888   9.232  38.895  14.760
61008W        W30889  21.147   0.804   3.334
61009W        W30890   6.778  32.961  12.853
61010W        W30891  36.357  39.001  10.528
61011W        W30892  10.141  31.105  14.395
61012W        W30893  33.031   1.935  13.021
61013W        W30894  34.990   0.836   5.320
61014W        W30895  17.588  26.500  14.316
61015W        W30896   6.896  42.782  11.407
61016W        W30897  21.725  19.597   4.143
61017W        W30898  36.086  24.049   3.255
61018W        W30899  31.936  16.201  11.011
61019W        W30900  14.801  19.730   3.278
61020W        W30901  42.908  41.338  11.066
61021W        W30902  31.903  18.077   3.829
61022W        W30903   7.265  44.985   3.293
61023W        W30904  20.764   3.347   2.677
61024W        W30905  32.062  19.269   3.709
61025W        W30906  13.314  13.696   3.282
61026W        W30907  41.462  29.923  14.379
61027W        W30908   7.789  39.925  14.031
61028W        W30909   9.678  14.223  13.846
61029W        W30910  34.384   4.941  10.053
61030W        W30911  13.189  14.132  11.872
61031W        W30912  22.023   6.749   3.771
61032W        W30913  16.077  25.050  11.098
61033W        W30914   7.224  41.808  14.897
61034W        W30915   7.413   1.839   4.242
61035W        W30916   6.223  28.003   2.268
61036W        W30917  18.781  17.751   4.749
61037W        W30918  31.566  22.046  11.526
61038W        W30919  16.673  15.652  10.472
61039W        W30920  35.914  17.659   1.309
61040W        W30921  42.519  24.486   3.730
61041W        W30922  31.406  31.531   4.190
61042W        W30923  10.763  35.468  12.404
61043W        W30924  19.104  34.066   4.728
61044W        W30925  20.126  33.471   2.211
61045W        W30926   3.458  25.980  10.593
61046W        W30927  28.457  25.145   5.121
61047W        W30928  23.174  42.316  14.470
61048W        W30929  32.554  36.442   2.413
61049W        W30930   9.229  30.142  10.467
61050W        W30931  21.105  31.578   2.722
61051W        W30932   3.342   3.285   2.194
61052W        W30933  12.810  10.384   4.678
61053W        W30934  17.718   4.237  13.963
61054W        W30935   2.280  31.095  14.792
61055W        W30936  29.153   1.804  14.808
61056W        W30937  35.380  12.677   3.153
61057W        W30938   4.817  19.088   2.273
61058W        W30939   5.244  19.775  14.302
61059W        W30940  37.494  31.083  11.981
61060W        W30941   5.701   3.765   2.417
61061W        W30942  26.105  25.693   2.717
61062W        W30943  13.674  17.246  12.559
61063W        W30944  24.536   5.705   0.869
61064W        W30945   2.424  41.029   1.234
61065W        W30946  12.276  29.008  13.031
61066W        W30947  28.991  39.507   1.734
61067W        W30948  14.244  22.647   1.450
61068W        W30949   5.404  19.553   4.231
61069W        W30950  14.175   6.704  10.614
61070W        W30951  16.105  16.773   3.845
61071W        W30952   6.285  19.246   3.768
61072W        W30953   5.298   4.365   4.634
61073W        W30954   4.283  42.517  14.975
61074W        W30955  41.497  32.054  10.929
61075W        W30956  42.935  20.147   1.712
61076W        W30957  18.112  32.034  10.475
61077W        W30958   3.740  21.262   4.814
61078W        W30959  36.978  22.673  13.826
61079W        W30960   5.880  39.478  11.555
61080W        W30961  18.288  24.987  12.942
61081W        W30962  33.515  18.171  13.493
61082W        W30963   4.390  15.159   3.708
61083W        W30964   9.652  38.422  13.489
61084W        W30965   9.698  23.489  11.578
61085W        W30966  21.523  31.049  11.087
61086W        W30967  38.368   2.264   1.370
61087W        W30968  35.438  33.501   3.380
61088W        W30969   8.709  39.967  11.050
61089W        W30970   4.839  21.247   0.912
61090W        W30971  10.309  13.300   3.804
61091W        W30972  26.986   1.940   0.406
61092W        W30973   3.460   3.824   2.294
61093W        W30974  25.141  17.660   4.212
61094W        W30975   5.425  18.574  11.990
61095W        W30976  31.948   8.836   1.740
61096W        W30977  44.907   6.215  13.850
61097W        W30978  40.400  36.860  13.442
61098W        W30979  23.216  37.974  14.772
61099W        W30980  40.025   2.766  10.416
61100W        W30981  31.987  42.470   1.427
61101W        W30982  21.570  28.977   2.402
61102W        W30983   7.747  12.704   2.382
61103W        W30984   9.376  41.902   1.791
61104W        W30985  39.923  41.462  13.959
61105W        W30986   1.863  27.018  14.437
61106W        W30987  28.082  11.804   2.412
61107W        W30988  40.832   5.712  12.404
61108W        W30989   5.195  41.023   4.146
61109W        W30990  42.368   3.374  10.474
61110W        W30991   6.228  31.138  11.469
61111W        W30992  34.388  11.830  11.429
61112W        W30993   4.443  34.911  14.847
61113W        W30994  15.731  26.061  10.541
61114W        W30995  17.765  20.244  12.369
61115W        W30996  14.320  41.043  14.991
61116W        W30997  27.534   4.375   1.874
61117W        W30998  23.989  20.183  11.987
61118W        W30999  32.521  25.962  14.368
61119W        W31000  37.996  28.629   4.334
61120W        W31001  20.206  35.462  12.955
61121W        W31002  28.589   8.300   3.800
61122W        W31003  30.140  11.677  11.871
61123W        W31004  35.402  26.137   0.929
61124W        W31005  27.983  28.490   0.355
61125W        W31006  31.036  14.280   0.357
61126W        W31007  34.102  26.181   4.810
61127W        W31008  38.543   9.177  11.458
61128W        W31009  19.639   7.783  14.835
61129W        W31010   5.815   0.349  13.432
61130W        W31011  20.623  24.996  12.428
61131W        W31012  12.346   0.432  10.628
61132W        W31013  20.261  43.444  12.825
61133W        W31014  12.627  36.377   1.754
61134W        W31015  28.435  26.160  14.906
61135W        W31016  37.414   0.440  11.866
61136W        W31017  30.493  14.319   1.432
61137W        W31018  32.058  27.050  13.802
61138W        W31019   3.404  20.560   2.896
61139W        W31020  23.729   9.275  13.521
61140W        W31021   6.250  31.528  13.455
61141W        W31022  37.977  14.337   2.400
61142W        W31023  13.135  36.963   3.280
61143W        W31024  23.226  31.490   3.713
61144W        W31025   1.761  17.784   3.147
61145W        W31026  42.925  10.287  11.523
61146W        W31027  27.680  24.680  12.031
61147W        W31028   2.873  26.491   2.846
61148W        W31029  33.576  24.069  12.461
61149W        W31030  28.612  38.005  10.521
61150W        W31031  36.027   1.440   0.781
61151W        W31032  40.440  30.026   4.300
61152W        W31033  16.280   9.188   0.919
61153W        W31034   3.251  44.465   0.281
61154W        W31035  15.110  34.870  11.917
61155W        W31036  34.524   7.745   3.795
61156W        W31037  27.519   7.379   1.794
61157W        W31038  18.739   0.929   4.242
61158W        W31039   3.309  35.565   3.149
61159W        W31040  18.145  19.661   4.298
61160W        W31041  30.647  10.790   1.837
61161W        W31042  42.899   2.921  10.620
61162W        W31043  35.436   3.871  13.923
61163W        W31044  23.528   8.286   2.720
61164W        W31045  10.840  25.642   3.821
61165W        W31046   8.354  10.717   4.605
61166W        W31047   8.703  35.897   3.740
61167W        W31048  42.437  31.078  13.526
61168W        W31049  22.024  38.063  10.636
61169W        W31050  44.414  37.552   2.215
61170W        W31051   1.892  16.080  12.504
61171W        W31052  23.094  13.794   0.750
61172W        W31053  40.835  43.395  12.949
61173W        W31054  17.574  23.164   3.253
61174W        W31055  25.142  22.665   2.748
61175W        W31056   4.833  11.649  11.445
61176W        W31057  35.883  44.363  11.565
61177W        W31058  40.505  25.709  11.527
61178W        W31059  18.598  39.333  14.797
61179W        W31060  16.799  34.420   3.227
61180W        W31061  29.586  12.256  14.015
61181W        W31062  33.422   4.785  13.403
61182W        W31063  36.913  20.050  10.999
61183W        W31064  37.047   0.869   2.666
61184W        W31065  13.314  18.764   2.328
61185W        W31066   9.780  18.617   0.829
61186W        W31067   7.804  43.488  14.319
61187W        W31068   6.192  24.053  14.984
61188W        W31069   2.306  28.015   2.848
61189W        W31070  11.696  22.106  13.839
61190W        W31071   0.863  32.535   4.242
61191W        W31072   7.855   7.216  12.943
61192W        W31073  36.579   9.646  14.399
61193W        W31074  26.128  24.710  13.366
61194W        W31075  25.160  27.993  14.344
61195W        W31076   4.437   9.752  13.975
61196W        W31077   7.285  29.097  13.845
61197W        W31078  16.757   2.378   3.721
61198W        W31079  20.201  10.680  12.446
61199W        W31080  25.686  26.637  14.302
61200W        W31081  16.144  41.787   0.258
61201W        W31082   7.907   8.808   2.768
61202W        W31083  30.519  18.284  13.494
61203W        W31084  38.325  24.215   2.408
61204W        W31085  20.642  23.048  14.942
61205W        W31086  31.009   1.735   4.291
61206W        W31087  20.530  23.621  13.976
61207W        W31088  30.497  30.004  13.046
61208W        W31089   0.445   3.850  10.951
61209W        W31090  34.069  15.086   4.795
61210W        W31091  24.153   6.189  12.401
61211W        W31092  30.944   6.372   4.134
61212W        W31093  42.342   6.782   4.759
61213W        W31094  21.034  29.086  14.982
61214W        W31095  29.068  26.046  11.562
61215W        W31096  18.176  20.689   3.711
61216W        W31097   4.338   2.255   2.281
61217W        W31098   0.485   6.897  11.034
61218W        W31099  11.277   0.955   3.306
61219W        W31100   5.364  16.075  11.948
61220W        W31101  20.619  39.816   1.368
61221W        W31102   1.430  26.026   0.939
61222W        W31103   1.401   1.839  14.457
61223W        W31104  15.606  11.818  11.889
61224W        W31105  28.661  21.202  13.390
61225W        W31106  34.883  34.370   1.235
61226W        W31107  25.013  38.896  12.016
61227W        W31108   9.167  25.100   1.347
61228W        W31109  24.157  13.789   3.748
61229W        W31110  18.672  16.601  10.429
61230W        W31111   4.436   7.193  13.887
61231W        W31112  37.866  33.078   4.715
61232W        W31113  14.734   3.943   1.732
61233W        W31114   0.816  21.709  13.358
61234W        W31115  33.034  11.342   4.834
61235W        W31116   7.871   2.247  13.489
61236W        W31117  19.137  34.533   1.777
61237W        W31118  18.712   7.189   3.635
61238W        W31119   5.873  22.007  10.440
61239W        W31120  26.113  21.049   3.768
61240W        W31121   1.320  19.582   2.782
61241W        W31122  41.481   6.425  13.799
61242W        W31123  27.075  28.186   3.364
61243W        W31124  20.127  26.667  12.361
61244W        W31125  22.685  13.233   0.861
61245W        W31126  27.492  41.950  11.400
61246W        W31127  32.593  30.947   3.741
61247W        W31128  42.436  11.368  11.969
61248W        W31129   5.884   7.323  13.917
61249W        W31130  16.673   0.255   2.788
61250W        W31131  35.531   1.321  11.056
61251W        W31132  29.637  41.881  10.446
61252W        W31133  31.028   6.772  13.539
61253W        W31134  35.044  35.547  14.965
61254W        W31135  39.937  31.478  10.572
61255W        W31136  32.026   6.694   2.703
61256W        W31137  15.299  25.689   1.791
61257W        W31138  29.457  23.531  14.994
61258W        W31139  13.324  39.857  13.310
61259W        W31140  10.353   2.909   3.300
61260W        W31141  34.524  44.845  13.997
61261W        W31142  13.324   8.896  12.440
61262W        W31143  15.184  12.360  11.599
61263W        W31144  39.825  13.234   0.768
61264W        W31145  42.465  28.047  14.886
61265W        W31146  40.311  15.657  12.978
61266W        W31147  39.457  29.005   0.320
61267W        W31148  19.176  25.597   2.706
61268W        W31149   2.742  14.115  13.058
61269W        W31150   2.888  18.247  14.793
61270W        W31151  31.626   0.255  11.390
61271W        W31152   2.461  26.607   1.365
61272W        W31153   9.758  25.197   2.844
61273W        W31154  36.010  40.895  11.373
61274W        W31155  11.130  37.464  13.333
61275W        W31156  42.345   1.329  12.823
61276W        W31157  17.208  19.124   0.867
61277W        W31158  17.139  43.881   2.807
61278W        W31159  26.955  44.352   3.223
61279W        W31160  10.870   6.695  13.431
61280W        W31161  34.999  23.209  14.318
61281W        W31162  40.944  34.523  10.963
61282W        W31163  21.679  40.429  10.949
61283W        W31164  22.060   2.936  11.466
61284W        W31165   6.399  27.074   3.807
61285W        W31166  28.623   1.978   0.291
61286W        W31167  33.977  24.494  11.014
61287W        W31168   8.685  10.857  13.860
61288W        W31169  28.962  37.961   4.233
61289W        W31170  27.457   4.805  10.497
61290W        W31171   5.709  35.916   0.922
61291W        W31172  34.431  44.495  10.937
61292W        W31173   9.717  16.567   9.995
61293W        W31174  13.273  10.159   1.219
61294W        W31175  30.630   0.927   0.274
61295W        W31176  32.957  36.556   4.172
61296W        W31177  31.907  41.526   3.866
61297W        W31178  25.596  14.835   2.668
61298W        W31179   9.289  10.256  13.814
61299W        W31180  25.620  13.222  14.428
61300W        W31181   9.357  23.089  13.322
61301W        W31182  21.695  18.753  13.808
61302W        W31183  35.567  10.780   2.224
61303W        W31184   7.718  25.004  11.569
61304W        W31185   4.264  27.944  14.873
61305W        W31186  37.336  17.721   2.761
61306W        W31187  13.621   5.200  12.535
61307W        W31188  14.782   8.805   1.811
61308W        W31189  12.806   0.808  13.899
61309W        W31190  24.132  28.952  12.045
61310W        W31191  21.156  26.587  12.568
61311W        W31192  41.821   1.312   1.272
61312W        W31193  32.527   4.354  10.409
61313W        W31194   7.209  22.098   2.708
61314W        W31195  40.815  32.520   4.737
61315W        W31196  10.227  25.539   1.832
61316W        W31197  10.662  28.093  14.933
61317W        W31198  25.054  20.632  10.489
61318W        W31199  32.429   0.769  12.404
61319W        W31200   7.184   0.796   1.825
61320W        W31201   6.250  32.591  13.492
61321W        W31202  29.449  37.979  13.528
61322W        W31203  12.218  25.069  13.388
61323W        W31204  16.759   8.765   2.854
61324W        W31205   6.787  27.097   3.797
61325W        W31206  27.584  41.497  10.986
61326W        W31207  18.074   3.915   0.883
61327W        W31208   6.231   7.187   3.223
61328W        W31209  25.074   2.920  13.922
61329W        W31210   6.914  10.658   2.358
61330W        W31211  12.272  11.310   0.814
61331W        W31212  44.396  37.573  14.499
61332W        W31213  13.823  33.893  11.488
61333W        W31214  33.490  22.693  14.411
61334W        W31215  16.074  28.181   1.431
61335W        W31216  23.055  38.474   0.785
61336W        W31217  15.819  36.997  13.325
61337W        W31218  11.777   6.327   4.216
61338W        W31219  16.706   7.690  13.526
61339W        W31220  39.007  18.755   1.306
61340W        W31221   1.383  42.472  11.117
61341W        W31222  42.000   8.200  11.931
61342W        W31223  39.007   0.835  11.545
61343W        W31224  34.908  22.559   0.911
61344W        W31225  13.310  37.038   1.446
61345W        W31226  27.032  10.753  11.572
61346W        W31227  21.229  19.558   1.351
61347W        W31228  31.138  10.876   3.662
61348W        W31229  36.088  41.797   0.332
61349W        W31230  39.945  30.657   2.886
61350W        W31231  12.852  35.364  13.473
61351W        W31232  32.934  11.860  11.551
61352W        W31233  16.179  43.903  14.819
61353W        W31234  40.540  43.802  14.000
61354W        W31235  23.491  36.069  14.277
61355W        W31236  16.229  37.908   1.393
61356W        W31237  35.886   6.275  11.600
61357W        W31238  33.091  14.636   2.825
61358W        W31239  35.449  13.702  12.468
61359W        W31240  42.793  32.000   1.418
61360W        W31241  24.223  18.783  11.465
61361W        W31242  32.948   2.417  12.093
61362W        W31243  25.637  29.587   4.642
61363W        W31244  36.419  29.514   0.796
61364W        W31245  26.561  13.739  10.986
61365W        W31246  22.086  39.897   0.888
61366W        W31247  13.662  17.153  13.013
61367W        W31248  33.466   1.295   3.208
61368W        W31249  12.132  16.309  10.973
61369W        W31250  14.203   0.798  10.574
61370W        W31251  21.206  40.938  12.467
61371W        W31252  19.228  33.985  12.398
61372W        W31253  44.444  38.956  12.919
61373W        W31254  32.920  38.833   1.726
61374W        W31255  21.541  40.945  12.430
61375W        W31256  15.208  23.607   2.389
61376W        W31257  26.149  41.888   0.737
61377W        W31258  26.577  42.885  10.608
61378W        W31259  39.014  29.925   2.409
61379W        W31260  15.160  27.465   1.789
61380W        W31261  25.971  15.185  13.891
61381W        W31262  33.383  20.216   3.657
61382W        W31263  44.481  10.376  13.039
61383W        W31264   3.924  12.769  13.856
61384W        W31265  29.660   0.983   4.284
61385W        W31266  34.496   9.847   1.355
61386W        W31267  15.209  35.427   4.643
61387W        W31268  13.686  23.712  10.932
61388W        W31269   2.842  13.754   3.802
61389W        W31270  11.748  34.868   1.415
61390W        W31271   7.341  24.563  11.602
61391W        W31272   8.383   8.683   3.689
61392W        W31273  13.295  33.615   4.739
61393W        W31274  37.411  37.956   4.145
61394W        W31275  27.986   3.388   1.378
61395W        W31276  11.776  11.326   0.775
61396W        W31277  35.559  22.041   0.944
61397W        W31278  30.085  10.364   2.762
61398W        W31279  19.123   7.199   0.466
61399W        W31280   3.348  40.319  13.857
61400W        W31281  42.792  21.667   4.636
61401W        W31282   0.852  33.912   0.869
61402W        W31283  20.095   9.890   1.317
61403W        W31284  28.481  40.425  14.965
61404W        W31285   2.463  10.253   1.708
61405W        W31286   1.313  33.099   2.835
61406W        W31287  11.187  34.483  10.568
61407W        W31288  16.740   2.248   2.679
61408W        W31289  12.613  16.251  11.033
61409W        W31290  18.594  16.138  10.574
61410W        W31291  12.293  11.263  14.372
61411W        W31292  43.314  25.706   4.241
61412W        W31293  35.986  29.605  12.466
61413W        W31294   8.804   6.786  14.462
61414W        W31295  22.610  11.847  14.828
61415W        W31296  25.090  10.706   4.661
61416W        W31297  10.778   4.209  13.837
61417W        W31298  17.758  39.824  14.406
61418W        W31299  30.562  14.800  11.078
61419W        W31300   5.777   4.420   4.778
61420W        W31301  23.652  30.563   0.327
61421W        W31302  10.759   1.878  11.405
61422W        W31303  20.139  36.454  10.432
61423W        W31304  38.951  35.578   4.171
61424W        W31305   7.757   8.700   1.859
61425W        W31306   5.383  18.779  14.007
61426W        W31307  37.487  22.655  10.896
61427W        W31308  19.268  25.629   3.284
61428W        W31309  15.173  43.383  14.437
61429W        W31310  22.249  39.974  10.438
61430W        W31311  11.341  20.716   4.701
61431W        W31312  18.671  42.858   3.822
61432W        W31313  32.102  24.573  13.937
61433W        W31314  37.354  23.996  11.053
61434W        W31315  22.538  25.508  14.503
61435W        W31316  31.145  35.908   3.369
61436W        W31317   3.815   7.829  11.506
61437W        W31318  30.959  18.582  13.881
61438W        W31319  26.009  30.064  13.860
61439W        W31320  39.421  33.043  13.461
61440W        W31321  36.469  39.318   2.751
61441W        W31322  16.786  19.700   3.824
61442W        W31323  20.660  31.078   4.280
61443W        W31324  33.887  22.746  14.353
61444W        W31325  40.038  10.341   0.452
61445W        W31326   0.943  28.527   3.179
61446W        W31327  29.499   6.411   0.850
61447W        W31328  17.643  21.541   3.301
61448W        W31329  25.192   9.678  14.439
61449W        W31330  30.989  37.005  11.075
61450W        W31331  26.694  44.935   1.805
61451W        W31332  23.546  26.659  11.924
61452W        W31333   4.298  11.634   2.805
61453W        W31334  14.614  32.527   2.699
61454W        W31335  14.211   3.372  12.910
61455W        W31336  22.153  41.523  14.768
61456W        W31337  11.661  11.748   0.471
61457W        W31338  40.023  39.049   0.822
61458W        W31339  14.135  21.632  10.637
61459W        W31340   4.426  39.028   0.482
61460W        W31341  29.132  37.391   3.264
61461W        W31342  28.467  30.542   2.711
61462W        W31343  27.498  29.542   3.725
61463W        W31344   9.165  29.092   0.819
61464W        W31345  35.895  17.064   0.432
61465W        W31346  44.444   4.404  14.805
61466W        W31347  34.461  11.646  14.441
61467W        W31348   6.764   8.658  12.876
61468W        W31349   3.455  44.494   4.599
61469W        W31350   2.937  28.981   0.735
61470W        W31351  30.119  21.025  14.812
61471W        W31352   8.347  28.446  11.010
61472W        W31353  30.431   1.968  14.930
61473W        W31354  33.568  19.204   2.870
61474W        W31355  20.219  19.235   2.382
61475W        W31356   3.715  39.992   2.375
61476W        W31357  26.079  12.160  10.998
61477W        W31358  42.931  19.196  10.974
61478W        W31359   1.443  30.039   1.811
61479W        W31360  43.795  23.197   1.830
61480W        W31361  15.647  27.133  11.395
61481W        W31362  13.669  41.012   3.826
61482W        W31363   8.866  38.377   4.746
61483W        W31364  43.870  44.788   0.920
61484W        W31365  33.539  21.754  13.389
61485W        W31366   2.878  22.182  12.838
61486W        W31367  11.318  18.667  14.451
61487W        W31368  16.733  10.838  11.533
61488W        W31369  30.621  13.724   2.801
61489W        W31370   6.863  19.625   0.822
61490W        W31371  29.541  37.841   3.860
61491W        W31372  24.678  12.355  10.562
61492W        W31373   8.244  41.855   4.704
61493W        W31374  38.406  29.984   3.173
61494W        W31375  20.195  14.695   1.800
61495W        W31376  22.084  44.845   1.294
61496W        W31377   5.279  10.757  10.902
61497W        W31378  15.268   3.861   2.705
61498W        W31379  15.774  25.485   4.604
61499W        W31380  18.656   6.387  12.462
61500W        W31381   2.742   8.795  11.942
61501W        W31382  15.314  28.074  14.865
61502W        W31383   1.795  40.326  11.578
61503W        W31384  28.567  19.065   0.350
61504W        W31385   0.817   2.411   0.783
61505W        W31386  39.330  35.911   3.654
61506W        W31387  23.208   1.450   0.769
61507W        W31388  30.063   8.321  10.140
61508W        W31389  25.106  23.585  12.414
61509W        W31390  39.825  17.295  12.848
61510W        W31391  10.782  23.522  14.870
61511W        W31392  32.978  16.576   3.276
61512W        W31393  39.930  20.129   1.722
61513W        W31394  44.912   9.182   3.672
61514W        W31395   4.217  31.042  12.546
61515W        W31396  39.932  16.097   3.224
61516W        W31397  24.532  42.785   4.224
61517W        W31398  37.882  30.161  11.998
61518W        W31399  42.816   7.765   3.750
61519W        W31400   8.369  17.237  12.081
61520W        W31401  10.142  16.288  11.120
61521W        W31402  29.116  23.621   2.673
61522W        W31403  25.004  32.941  11.119
61523W        W31404   4.270  34.553  13.803
61524W        W31405  20.523  34.888  11.896
61525W        W31406  33.950  23.668   0.309
61526W        W31407  30.516  22.508  14.018
61527W        W31408  12.319  44.010  12.048
61528W        W31409  42.919  33.947   2.776
61529W        W31410  42.281  30.609  14.957
61530W        W31411  22.516  22.161   3.835
61531W        W31412  23.583  29.012   4.745
61532W        W31413   4.704  25.209  13.943
61533W        W31414  27.184  12.132   4.213
61534W        W31415  19.273  39.892  10.615
61535W        W31416   0.266  29.470   2.696
61536W        W31417  18.625  17.730   3.768
61537W        W31418  37.429  17.575   2.193
61538W        W31419  36.395  36.368   3.849
61539W        W31420  31.452  25.050   1.248
61540W        W31421  10.830  26.044  13.450
61541W        W31422  23.571  11.150  14.807
61542W        W31423  32.885  31.127  13.326
61543W        W31424  31.927  41.399   1.286
61544W        W31425  39.547  34.051   1.255
61545W        W31426  23.237  33.427  13.424
61546W        W31427   1.854  41.794   2.869
61547W        W31428  33.997  29.035   1.861
61548W        W31429  30.127  34.560  13.879
61549W        W31430  24.011   5.438  11.460
61550W        W31431  35.091  44.353  10.018
61551W        W31432  36.928  15.668  14.883
61552W        W31433  17.258  29.921  12.370
61553W        W31434   1.328  12.713   2.287
61554W        W31435  25.073   5.870  14.315
61555W        W31436   7.289  30.027   4.614
61556W        W31437  44.318  19.175  10.508
61557W        W31438  21.135  30.053   4.638
61558W        W31439   6.230   5.820   3.224
61559W        W31440  19.077  39.883  13.835
61560W        W31441  29.167   4.281   4.762
61561W        W31442  10.313  21.057   1.900
61562W        W31443  40.357   1.470   3.280
61563W        W31444  29.925  13.242  10.512
61564W        W31445  22.590  32.082   3.829
61565W        W31446  32.517  11.668   1.410
61566W        W31447  38.390  41.873  13.328
61567W        W31448  32.418   8.765  13.312
61568W        W31449  10.861  32.955   2.410
61569W        W31450   6.719   6.191  10.617
61570W        W31451  25.507  16.099   4.225
61571W        W31452  38.535  36.956   2.780
61572W        W31453  20.179   0.782  14.943
61573W        W31454  14.208  16.771  13.824
61574W        W31455  20.212   9.884   0.301
61575W        W31456  23.197  39.816   2.782
61576W        W31457  41.347   6.893   4.746
61577W        W31458  34.515   3.385  11.448
61578W        W31459  27.193  30.604   0.271
61579W        W31460  38.376  12.782   0.882
61580W        W31461  26.109  27.448  14.478
61581W        W31462  42.388   5.208  13.446
61582W        W31463  42.000   9.719   0.930
61583W        W31464  44.969  16.183   4.702
61584W        W31465  34.100  33.978   1.229
61585W        W31466  21.622  19.749   0.257
61586W        W31467   8.754   2.445   4.155
61587W        W31468  25.499  27.004  11.484
61588W        W31469  39.054   0.369   1.874
61589W        W31470  18.768   7.725  13.060
61590W        W31471  38.442  19.055  14.449
61591W        W31472  37.038  15.793  11.010
61592W        W31473  37.561  36.584  12.522
61593W        W31474  20.563  36.072  12.834
61594W        W31475   7.288   1.806  10.543
61595W        W31476  43.420  16.729   4.245
61596W        W31477  38.931  14.646   4.716
61597W        W31478  14.255   8.322   2.407
61598W        W31479  13.767  31.453  14.806
61599W        W31480  27.570  17.736  11.400
61600W        W31481  42.892   8.700   2.687
61601W        W31482   7.182   1.822   2.380
61602W        W31483   2.432  25.701  11.507
61603W        W31484  32.428  22.519   0.273
61604W        W31485  19.143  42.897  14.811
61605W        W31486  13.814  41.867  10.916
61606W        W31487   7.820  28.472   4.126
61607W        W31488  10.852  27.975  14.007
61608W        W31489   8.671  36.374  13.405
61609W        W31490  16.315   2.792   3.750
61610W        W31491  10.383  25.047   4.271
61611W        W31492  40.813   7.784  10.925
61612W        W31493  42.391  39.486   4.220
61613W        W31494  42.303   5.878   4.125
61614W        W31495  14.705  36.965  14.464
61615W        W31496  28.449  12.352  10.422
61616W        W31497  31.614  28.588  14.359
61617W        W31498  33.976  10.246  11.000
61618W        W31499  34.496  38.509   3.645
61619W        W31500  28.083   1.268  14.909
61620W        W31501   2.942  10.668  11.888
61621W        W31502  36.381  21.141   2.345
61622W        W31503   8.195  25.589   0.863
61623W        W31504  43.306  14.752  12.841
61624W        W31505   7.871  11.802   0.371
61625W        W31506  23.143  33.067   2.411
61626W        W31507  37.831  39.959  10.937
61627W        W31508   9.650  16.727  12.987
61628W        W31509  28.459  12.670   3.227
61629W        W31510  18.771  13.648   0.815
61630W        W31511  27.655  43.318   1.240
61631W        W31512   9.233   6.817   1.907
61632W        W31513  27.008  13.757  12.924
61633W        W31514  17.228   0.752  13.405
61634W        W31515  31.951  38.327   3.711
61635W        W31516  32.615   3.782   1.790
61636W        W31517   3.845  23.130   4.171
61637W        W31518  12.201  10.316   1.799
61638W        W31519  20.227  32.030  12.405
61639W        W31520  44.494  10.662  10.509
61640W        W31521  13.194  28.645   3.678
61641W        W31522  44.009  19.759  13.023
61642W        W31523  21.749  13.706   4.656
61643W        W31524   1.384  33.498   2.902
61644W        W31525   6.916  25.079   3.733
61645W        W31526  15.582  27.551   2.807
61646W        W31527  22.125  33.434   0.773
61647W        W31528  15.651   9.377   2.259
61648W        W31529  24.186  39.893  11.104
61649W        W31530   3.279  43.316   2.878
61650W        W31531  17.094  15.116  12.906
61651W        W31532   8.875  30.981   4.651
61652W        W31533  37.026   6.854  14.979
61653W        W31534  24.162  36.937   4.272
61654W        W31535  40.031   4.876  13.419
61655W        W31536  24.132  34.867   4.735
61656W        W31537   9.803  14.333   2.719
61657W        W31538  11.837  12.797  13.418
61658W        W31539  16.305  36.524  12.894
61659W        W31540  36.523   8.206  10.441
61660W        W31541  12.684  44.320   4.685
61661W        W31542  24.630  26.469   2.291
61662W        W31543  42.422   4.711  14.478
61663W        W31544   8.674  19.284   1.355
61664W        W31545  35.532  10.384  11.522
61665W        W31546  11.195  16.195  14.822
61666W        W31547  24.506  40.821  13.401
61667W        W31548   7.715  30.088   1.783
61668W        W31549  13.635  24.091  13.989
61669W        W31550  38.554   3.774  10.534
61670W        W31551  41.413  13.710  10.425
61671W        W31552   2.468  41.326   3.292
61672W        W31553  31.459  42.329  11.974
61673W        W31554  20.753  37.940   3.705
61674W        W31555  16.127  41.311  12.863
61675W        W31556  12.768  21.109  11.449
61676W        W31557  16.146  39.348   2.895
61677W        W31558   1.357  43.473  14.012
61678W        W31559  20.082  40.401   3.382
61679W        W31560  37.011  17.687  12.070
61680W        W31561  25.186  29.664   3.293
61681W        W31562  35.473   9.200   2.345
61682W        W31563  18.577  26.103   3.354
61683W        W31564  33.621  36.896  12.517
61684W        W31565   5.225  14.827  10.934
61685W        W31566   8.899  23.049  13.333
61686W        W31567  36.377   2.418   2.388
61687W        W31568  35.544  29.442  13.863
61688W        W31569  18.114  32.494   3.248
61689W        W31570  44.300  39.451   2.289
61690W        W31571   6.283  11.641  10.480
61691W        W31572   1.363  35.951  13.469
61692W        W31573  33.442  10.826  13.365
61693W        W31574   6.749   2.295   3.290
61694W        W31575  14.808   2.264  14.285
61695W        W31576  27.115   0.446  12.952
61696W        W31577  34.609  37.870  11.544
61697W        W31578  14.748  14.681   1.888
61698W        W31579  12.215  11.218  10.918
61699W        W31580  23.096  21.152   3.771
61700W        W31581  11.138  25.637   0.407
61701W        W31582  11.865  23.193  14.890
61702W        W31583  15.581  23.728  11.397
61703W        W31584  40.356  15.607   0.905
61704W        W31585  29.969  15.217   4.601
61705W        W31586  38.961  24.104  12.880
61706W        W31587  37.362  20.553  14.395
61707W        W31588  34.966  34.493  13.839
61708W        W31589  15.662  23.672   4.305
61709W        W31590   5.199  41.490   2.413
61710W        W31591  30.983   0.274  12.858
61711W        W31592  11.667  35.378  14.509
61712W        W31593  23.670  39.915   1.300
61713W        W31594   4.351  39.857   4.309
61714W        W31595  10.268   8.291   1.298
61715W        W31596  15.813  28.477  13.016
61716W        W31597  12.673  26.061   4.694
61717W        W31598  24.128  26.980   0.832
61718W        W31599  11.325  11.354  12.902
61719W        W31600  13.730  24.576   2.211
61720W        W31601  31.910  29.472   3.811
61721W        W31602  39.480  11.693  14.345
61722W        W31603  29.423  20.677   0.473
61723W        W31604  29.135  39.477  12.396
61724W        W31605  30.928  19.600  13.308
61725W        W31606  17.209  37.344   2.251
61726W        W31607  18.150  23.663   2.749
61727W        W31608   5.722   9.700  14.016
61728W        W31609  44.303  39.875  12.903
61729W        W31610  18.700  41.484   0.294
61730W        W31611  35.447  11.748   3.795
61731W        W31612  16.771  25.671   0.295
61732W        W31613   1.732  24.978  11.989
61733W        W31614  30.009  23.008   0.365
61734W        W31615  37.542  36.027   4.127
61735W        W31616  25.535  32.497  12.428
61736W        W31617  23.549  27.959  11.509
61737W        W31618  14.671   9.656  11.007
61738W        W31619  42.911  19.156   2.186
61739W        W31620   3.331  17.128   2.196
61740W        W31621  26.993   1.270  12.579
61741W        W31622  32.408  28.145  14.779
61742W        W31623  29.992  16.197   1.765
61743W        W31624  15.296  34.992  13.883
61744W        W31625  26.989   9.728  13.992
61745W        W31626  18.171   6.804  10.582
61746W        W31627   7.881  16.249   4.630
61747W        W31628   9.869   0.866  14.820
61748W        W31629   9.395  32.072   0.736
61749W        W31630  33.621   3.781  14.976
61750W        W31631  37.517  24.489   2.294
61751W        W31632  30.604  34.941   4.250
61752W        W31633  42.886  20.624   2.778
61753W        W31634   2.423   4.934  14.319
61754W        W31635  18.762  25.176   1.294
61755W        W31636   4.900  26.111  13.907
61756W        W31637  32.893  32.998   1.378
61757W        W31638  18.192  14.095   4.598
61758W        W31639  19.678  36.410  14.993
61759W        W31640   0.797   7.193   3.739
61760W        W31641  29.458  21.150   0.382
61761W        W31642  39.982  22.694   0.775
61762W        W31643  28.973  28.120   0.473
61763W        W31644  44.992  12.827  10.462
61764W        W31645  16.596  29.009   1.935
61765W        W31646  29.456   9.835  12.577
61766W        W31647  19.166  13.226  10.894
61767W        W31648  23.498  41.016  12.382
61768W        W31649   6.202  24.542  10.998
61769W        W31650  26.143  40.928   1.236
61770W        W31651  40.420   8.218   0.255
61771W        W31652  29.521   2.324   2.721
61772W        W31653  36.902   8.661  12.362
61773W        W31654  14.612   1.386  14.389
61774W        W31655   5.301  35.589   0.730
61775W        W31656  10.729  19.068   4.341
61776W        W31657  26.532  39.399   2.887
61777W        W31658   6.866  31.904  12.392
61778W        W31659  38.559   1.768   1.332
61779W        W31660  12.721  17.701  13.819
61780W        W31661  40.033  26.171   3.260
61781W        W31662   1.893  41.421  13.368
61782W        W31663   9.388  17.579  12.371
61783W        W31664  17.203   7.807   3.836
61784W        W31665  31.517  43.884   1.349
61785W        W31666  16.153  24.692  14.827
61786W        W31667  13.707  15.704  14.395
61787W        W31668   2.845  33.104   2.389
61788W        W31669   5.277  22.047  13.806
61789W        W31670   4.827   5.256   3.147
61790W        W31671  17.649  18.565   1.439
61791W        W31672   3.383  41.847  11.546
61792W        W31673  42.023  21.252   3.313
61793W        W31674  11.266  29.040  12.056
61794W        W31675  22.239  18.137  13.821
61795W        W31676  33.421   0.434   1.387
61796W        W31677   3.320  29.990  10.521
61797W        W31678  20.693  36.058   1.344
61798W        W31679  41.486  41.388  11.902
61799W        W31680  17.137  18.670   2.350
61800W        W31681  37.574  26.174   0.482
61801W        W31682  35.062  40.943   1.855
61802W        W31683  39.995  23.540   1.816
61803W        W31684  22.517  33.424   4.240
61804W        W31685  31.031  10.695  14.307
61805W        W31686  33.895  27.103   3.755
61806W        W31687  34.505  15.179  13.803
61807W        W31688  40.329  41.037   3.751
61808W        W31689  39.559   3.746  14.473
61809W        W31690  10.732  41.894  11.094
61810W        W31691  30.006  16.654  11.522
61811W        W31692   0.960  25.108   3.272
61812W        W31693  18.607  38.372   2.665
61813W        W31694  17.795  18.141  11.575
61814W        W31695  30.124   6.846  14.456
61815W        W31696   6.902   3.286   3.305
61816W        W31697  22.502  41.449   3.688
61817W        W31698   3.450  38.905  12.012
61818W        W31699   5.403  25.966   0.339
61819W        W31700  29.433  44.486  12.570
61820W        W31701  33.034  22.513   0.789
61821W        W31702  16.280  35.518   4.642
61822W        W31703  17.795   3.893   1.882
61823W        W31704  15.194   3.331  13.397
61824W        W31705  32.048  26.178   1.390
61825W        W31706  26.990  27.651   1.364
61826W        W31707  16.739   3.455   5.227
61827W        W31708  44.771  34.532  14.955
61828W        W31709   0.444  43.944  13.855
61829W        W31710   1.870  30.045   1.727
61830W        W31711  44.291  18.674   4.347
61831W        W31712  37.033  21.512   0.284
61832W        W31713   4.422  13.169  13.952
61833W        W31714   9.153  14.300   1.857
61834W        W31715   3.887  12.245  10.414
61835W        W31716  42.484  28.015  10.933
61836W        W31717   3.338  32.920  11.446
61837W        W31718  31.557  30.496  10.547
61838W        W31719   7.304   9.656  11.087
61839W        W31720  44.280  40.410   2.335
61840W        W31721  21.122  13.729   1.713
61841W        W31722  23.109  24.722  11.913
61842W        W31723   6.398  19.081   0.937
61843W        W31724  34.014  42.831  13.324
61844W        W31725  30.555   7.910  10.940
61845W        W31726  18.687  15.626   0.396
61846W        W31727   1.402   3.422  14.457
61847W        W31728  43.293  14.763  14.873
61848W        W31729   2.808   7.863   0.412
61849W        W31730   1.339   0.869   2.809
61850W        W31731  27.984  16.157  13.049
61851W        W31732   9.844  27.678  11.513
61852W        W31733  40.902   4.366   4.143
61853W        W31734  27.176   5.785   2.747
61854W        W31735   0.337   5.326  13.816
61855W        W31736   9.661   3.409   0.351
61856W        W31737  17.633  39.889  11.541
61857W        W31738  12.120  11.257  12.053
61858W        W31739  16.108  14.646   2.302
61859W        W31740  24.648  23.187   4.242
61860W        W31741  22.558  16.224   2.757
61861W        W31742  11.836  42.339  12.932
61862W        W31743  21.513  27.534  10.453
61863W        W31744  39.518  34.390  11.103
61864W        W31745  33.542  33.029  13.448
61865W        W31746   4.212  37.058  11.120
61866W        W31747  30.139  34.913  12.485
61867W        W31748  38.368   9.719   2.345
61868W        W31749   2.254   2.857   3.232
61869W        W31750  12.127   5.696   3.711
61870W        W31751  18.221   7.283   2.718
61871W        W31752  13.179  33.606  11.912
61872W        W31753  29.432  35.987  13.498
61873W        W31754  29.034  27.941  10.477
61874W        W31755  25.075  31.914  14.453
61875W        W31756  32.037  41.415   3.327
61876W        W31757  36.927  21.549   1.785
61877W        W31758  21.083   6.208   3.247
61878W        W31759  20.747  24.083   3.351
61879W        W31760  18.702  39.822  14.009
61880W        W31761  15.688  21.622  13.032
61881W        W31762  21.647   7.400   4.267
61882W        W31763   1.298  24.599   3.650
61883W        W31764  39.480   1.748   3.211
61884W        W31765  39.345  30.085   3.757
61885W        W31766  10.773  35.385   3.179
61886W        W31767  18.061  32.139   0.776
61887W        W31768  18.711   8.252  14.006
61888W        W31769   9.329   2.303   4.348
61889W        W31770  12.343  20.719  10.889
61890W        W31771  33.078  21.068   0.756
61891W        W31772  33.063  18.771  14.000
61892W        W31773  27.576   7.363  14.281
61893W        W31774  42.440  22.220  13.372
61894W        W31775  27.618  26.531   5.241
61895W        W31776  39.469  41.908  12.347
61896W        W31777  16.775  12.361   1.774
61897W        W31778   4.351  31.069  10.630
61898W        W31779   5.789  43.308   3.789
61899W        W31780  43.817  26.984  11.028
61900W        W31781   0.462  21.642   4.773
61901W        W31782  44.430   4.804   0.778
61902W        W31783  14.312  30.639  10.643
61903W        W31784   3.257  19.255   0.294
61904W        W31785  13.112   8.362  12.424
61905W        W31786  22.032  18.110   1.817
61906W        W31787  31.990  22.512  14.457
61907W        W31788  20.158  24.011  10.570
61908W        W31789  23.990  11.658  12.376
61909W        W31790  40.320  20.108   2.335
61910W        W31791  28.605  10.748   0.864
61911W        W31792  18.658  36.996   4.678
61912W        W31793  25.482  43.323   3.690
61913W        W31794  11.853  35.980   0.483
61914W        W31795  44.429  41.930   2.419
61915W        W31796  20.683  30.110  11.895
61916W        W31797  26.548  11.851   0.755
61917W        W31798  31.116  24.568   0.785
61918W        W31799  14.753  14.800  10.887
61919W        W31800   1.262  20.108   2.186
61920W        W31801  27.079  39.390  10.422
61921W        W31802  20.070  10.716   3.264
61922W        W31803  14.700  32.898  13.449
61923W        W31804   5.292  43.385  12.561
61924W        W31805  43.929  25.681   1.826
61925W        W31806  35.495  16.210   3.847
61926W        W31807  37.390   9.393  10.954
61927W        W31808  40.858  12.197  11.475
61928W        W31809  37.474  28.655  14.468
61929W        W31810   6.808  30.044  10.423
61930W        W31811  35.431   4.398  10.445
61931W        W31812  15.147  11.756   3.755
61932W        W31813  31.029   0.880  14.487
61933W        W31814   1.901   0.431  14.883
61934W        W31815  38.537  31.552  12.521
61935W        W31816  18.143  20.717   4.319
61936W        W31817   6.261  34.889   3.850
61937W        W31818  10.302  23.734   0.915
61938W        W31819  26.162   6.425  11.426
61939W        W31820  22.653  34.422   0.355
61940W        W31821   9.197  40.829  12.908
61941W        W31822  21.723  23.050   4.277
61942W        W31823   5.813   9.792   4.243
61943W        W31824  40.373  21.096   5.239
61944W        W31825  42.363  23.580   0.756
61945W        W31826  12.248  17.791  10.888
61946W        W31827  23.064   6.214   4.152
61947W        W31828   0.902  15.131  12.425
61948W        W31829  38.899  11.826  10.995
61949W        W31830  15.123  15.662   0.752
61950W        W31831  22.625  43.861   2.388
61951W        W31832  39.901   8.802   1.899
61952W        W31833  33.039   4.707   4.602
61953W        W31834  27.509  21.532  11.452
61954W        W31835  36.946  13.332   4.819
61955W        W31836  38.075   7.878  11.593
61956W        W31837  40.443   5.421  13.416
61957W        W31838  26.122  32.538  12.898
61958W        W31839  41.377  33.593   1.877
61959W        W31840  39.480  23.195  11.951
61960W        W31841  10.642  38.993   4.738
61961W        W31842  27.189  13.264   1.241
61962W        W31843   4.278  34.892  10.573
61963W        W31844  21.051  43.811   9.654
61964W        W31845   4.848  41.025  14.803
61965W        W31846  19.610  35.892   0.287
61966W        W31847  11.655  40.991   3.355
61967W        W31848  17.582  29.574  10.416
61968W        W31849  28.001  12.212  14.868
61969W        W31850   3.427  32.630   3.259
61970W        W31851  16.755  12.134  13.532
61971W        W31852   6.726   6.380  11.870
61972W        W31853  35.403  20.716   3.733
61973W        W31854  43.495  10.288   4.621
61974W        W31855  38.376   9.370   2.379
61975W        W31856  27.526  35.569   4.615
61976W        W31857   8.316  27.125   0.480
61977W        W31858   4.393  11.278  13.918
61978W        W31859  11.210  41.043   0.332
61979W        W31860   7.304   1.950  13.991
61980W        W31861   4.813  25.470  12.944
61981W        W31862  13.845  29.481   0.954
61982W        W31863   5.305  44.396   4.663
61983W        W31864  22.059  14.136  11.450
61984W        W31865  35.053   2.776  12.406
61985W        W31866  21.049   0.437   0.915
61986W        W31867   9.843   9.288   4.292
61987W        W31868  35.872  12.325   3.321
61988W        W31869  23.225  23.990   3.710
61989W        W31870   2.414   3.744  10.457
61990W        W31871  24.691  35.078   3.192
61991W        W31872  36.566   0.449  14.381
61992W        W31873  25.670  17.251   0.277
61993W        W31874  11.832  11.720   5.108
61994W        W31875  14.804   8.273   4.615
61995W        W31876  34.538  30.506   5.201
61996W        W31877  26.057  11.316  13.502
61997W        W31878  24.643  15.151  14.319
61998W        W31879  24.047  12.812  12.035
61999W        W31880  18.089   0.972  12.443
62000W        W31881  44.777  11.770   3.361
62001W        W31882  20.739  10.369  14.906
62002W        W31883  28.037  32.392  13.378
62003W        W31884  22.573  41.363  10.942
62004W        W31885  29.926  24.064  13.842
62005W        W31886  24.647   8.662  13.896
62006W        W31887   8.210  36.499  13.025
62007W        W31888  27.556  31.585   4.783
62008W        W31889  44.813   4.858  13.541
62009W        W31890  38.456  40.033  11.594
62010W        W31891  26.982   3.413  11.593
62011W        W31892  19.565  14.282   4.638
62012W        W31893  33.022  19.088   2.391
62013W        W31894   3.286  14.329  12.094
62014W        W31895  29.603   3.780  10.907
62015W        W31896  26.123  34.946  12.406
62016W        W31897  35.458  32.035   0.749
62017W        W31898  32.598  10.813  13.020
62018W        W31899  27.505  23.211   5.746
62019W        W31900  33.003  42.320   4.765
62020W        W31901  14.118  42.975   4.119
62021W        W31902  41.943  33.487   1.390
62022W        W31903  39.976  18.623  14.377
62023W        W31904  14.327   2.810  12.558
62024W        W31905   7.853  22.204  14.923
62025W        W31906   6.206  41.379   2.788
62026W        W31907  17.216  32.543  12.087
62027W        W31908   0.913  42.427  14.867
62028W        W31909  40.383   3.414   3.201
62029W        W31910   6.364  26.641   4.349
62030W        W31911  13.113  15.684  12.559
62031W        W31912  15.730  28.065  14.406
62032W        W31913  30.039  41.405   3.772
62033W        W31914  39.454  33.979  11.909
62034W        W31915  16.771   1.355  11.862
62035W        W31916  35.915  32.395   1.364
62036W        W31917  36.981  27.098  11.939
62037W        W31918   8.715  18.257  10.564
62038W        W31919   0.471   7.776   0.892
62039W        W31920  39.933  20.733  11.095
62040W        W31921  24.561  31.570   1.787
62041W        W31922   8.252  33.594   3.823
62042W        W31923  43.889   5.790   1.262
62043W        W31924  25.137  12.667  14.782
62044W        W31925  43.924   3.431  14.007
62045W        W31926  34.465  40.526  14.295
62046W        W31927  24.032  44.468   1.887
62047W        W31928  42.393  43.950  12.475
62048W        W31929  10.367  11.227  11.963
62049W        W31930  11.737  16.666  10.606
62050W        W31931  27.618  32.613   3.807
62051W        W31932  25.633  10.138  11.002
62052W        W31933   8.663   7.236   4.340
62053W        W31934  28.670  10.724   1.250
62054W        W31935  32.558   7.865   3.330
62055W        W31936  15.745   8.258   0.852
62056W        W31937  31.126   2.910  12.532
62057W        W31938  23.217  16.226   4.131
62058W        W31939   0.271  15.659  11.870
62059W        W31940  21.685   7.717   4.830
62060W        W31941  38.047  27.563   0.266
62061W        W31942  25.496  30.550   3.376
62062W        W31943  23.610  43.339  14.855
62063W        W31944  35.099  34.391  12.357
62064W        W31945   6.388   3.318  14.351
62065W        W31946  43.836   4.930   0.285
62066W        W31947   1.463  35.368  11.537
62067W        W31948  19.088  31.126   4.248
62068W        W31949  29.099  29.591  13.905
62069W        W31950   5.349  23.164   2.255
62070W        W31951  23.237  23.048   2.735
62071W        W31952  44.775  32.466   3.267
62072W        W31953  12.685   6.214   0.886
62073W        W31954  36.075  28.469  14.931
62074W        W31955   7.378   9.703  14.005
62075W        W31956  10.867   5.872   3.677
62076W        W31957  16.800  11.803   1.405
62077W        W31958  42.313  40.398  14.946
62078W        W31959   9.313   1.941   3.862
62079W        W31960   5.818   8.315   2.865
62080W        W31961  31.488  35.465  10.959
62081W        W31962   5.823  40.799  10.567
62082W        W31963   5.366  30.019   4.173
62083W        W31964  42.345  42.873   4.117
62084W        W31965   0.434   9.734   3.640
62085W        W31966  44.825   7.177  12.352
62086W        W31967  18.546   1.294  13.006
62087W        W31968   2.461   7.394  10.448
62088W        W31969   3.759  12.163  13.545
62089W        W31970  25.578  41.301  12.890
62090W        W31971  21.699  40.384  12.865
62091W        W31972  22.032  38.977   2.230
62092W        W31973   5.200  16.625   0.323
62093W        W31974  32.488  11.342  11.895
62094W        W31975  12.755  24.124   3.769
62095W        W31976  23.173  29.554   3.245
62096W        W31977  36.449  29.044   0.820
62097W        W31978  12.691   0.302   2.410
62098W        W31979   8.698   1.867   0.390
62099W        W31980  32.053   5.702  13.476
62100W        W31981  26.587   6.813   3.218
62101W        W31982   9.206  12.224  11.402
62102W        W31983  23.049  30.430   4.602
62103W        W31984   1.449  18.193   2.806
62104W        W31985  34.060  43.312  10.403
62105W        W31986  24.033  14.182  11.124
62106W        W31987  34.050   6.702  12.434
62107W        W31988  36.514  27.546   0.277
62108W        W31989  15.253  24.593   4.601
62109W        W31990   7.350  20.552   3.779
62110W        W31991   4.838  42.370   1.809
62111W        W31992  25.033  42.815   2.892
62112W        W31993   5.254   0.408  10.536
62113W        W31994   5.242   3.913   0.304
62114W        W31995   5.372  44.339  14.791
62115W        W31996  13.819  26.178   4.354
62116W        W31997   8.891  10.790   4.288
62117W        W31998  21.723  44.436   2.279
62118W        W31999  19.728  20.075  13.485
62119W        W32000   1.834  18.153  13.993
62120W        W32001   4.338   1.747   2.350
62121W        W32002   8.341  29.136  13.905
62122W        W32003  11.668   6.689   0.475
62123W        W32004  22.527  11.132  14.992
62124W        W32005  19.670  28.157   3.814
62125W        W32006  31.991  26.174   3.744
62126W        W32007  27.519   7.180  14.905
62127W        W32008  23.654   2.957   3.185
62128W        W32009  22.080  33.522   4.127
62129W        W32010  23.075  12.225  12.579
62130W        W32011   3.384  28.640   1.740
62131W        W32012  12.611  12.257  11.968
62132W        W32013  43.499  26.614  10.086
62133W        W32014   4.336  21.108   3.643
62134W        W32015  12.705  31.969  10.481
62135W        W32016   3.809  41.933   3.729
62136W        W32017  31.128  21.538   1.851
62137W        W32018   6.859  18.657  14.320
62138W        W32019  32.441  16.277  12.406
62139W        W32020  39.387  19.073  14.442
62140W        W32021  17.665  43.957  13.861
62141W        W32022  21.753  32.104   1.913
62142W        W32023  23.532  30.485  10.457
62143W        W32024   2.910  10.381   2.309
62144W        W32025   9.771  17.302   2.887
62145W        W32026  22.612  34.066  11.593
62146W        W32027   3.838  17.255   0.865
62147W        W32028  21.697  28.589   3.259
62148W        W32029  31.941  13.115  11.392
62149W        W32030   8.259  31.516  10.592
62150W        W32031  10.854  37.449  10.129
62151W        W32032   0.366  42.938   4.754
62152W        W32033   9.856  37.999  14.964
62153W        W32034   4.405  20.125   1.323
62154W        W32035   6.756  20.067  12.502
62155W        W32036  24.539   8.210   4.624
62156W        W32037  37.080  40.342  12.399
62157W        W32038  30.953   0.851   1.826
62158W        W32039  14.809  38.964  10.450
62159W        W32040   6.272  41.881   0.849
62160W        W32041   8.265  37.049  10.458
62161W        W32042  26.164  12.284   0.269
62162W        W32043  25.204  19.726   2.250
62163W        W32044   4.757  30.141  14.764
62164W        W32045   2.856  39.481   0.902
62165W        W32046   5.933   1.278  14.416
62166W        W32047  31.975  12.317   0.814
62167W        W32048  36.906  19.285  10.925
62168W        W32049   6.228  30.047  13.369
62169W        W32050  10.832   6.746   0.388
62170W        W32051  23.164   0.876   0.296
62171W        W32052  18.619  31.132   0.373
62172W        W32053  18.256  12.613   0.923
62173W        W32054  28.503   9.217   2.403
62174W        W32055  15.747  23.128  13.498
62175W        W32056  19.217  44.442  10.492
62176W        W32057  40.399  27.093  11.929
62177W        W32058  14.670  42.943  11.117
62178W        W32059  10.641  18.190   2.722
62179W        W32060   0.779  14.704  11.942
62180W        W32061  12.766   3.383   0.813
62181W        W32062  12.321  40.401  11.406
62182W        W32063  25.011  20.149  12.398
62183W        W32064  14.626  11.708  12.924
62184W        W32065  33.436  35.445  10.580
62185W        W32066  13.309  14.768  13.952
62186W        W32067  26.036  18.065  12.834
62187W        W32068  10.757  21.733   2.381
62188W        W32069   1.434  18.281  11.988
62189W        W32070  44.816  44.304  11.526
62190W        W32071  28.982  38.962   1.877
62191W        W32072  24.147  31.004   2.308
62192W        W32073  35.559  33.505   2.233
62193W        W32074   1.375  37.914  10.615
62194W        W32075  10.258  15.677   4.237
62195W        W32076  10.233  31.027   3.257
62196W        W32077  25.652   4.435  12.361
62197W        W32078  27.546  20.061   1.339
62198W        W32079  12.766  44.820   3.647
62199W        W32080  21.699  32.531  12.001
62200W        W32081  21.631  10.833  14.362
62201W        W32082  41.787  26.052  13.049
62202W        W32083   4.931  18.192  10.597
62203W        W32084  16.109  15.099  14.004
62204W        W32085  22.627  28.069  11.913
62205W        W32086   9.281  31.006  14.488
62206W        W32087  24.574  13.604  14.906
62207W        W32088  35.443   2.375   1.861
62208W        W32089   2.794  38.484  11.885
62209W        W32090   9.182  36.047  13.475
62210W        W32091  15.140   2.760  11.051
62211W        W32092  10.227   5.265   9.980
62212W        W32093  16.780  20.028  12.479
62213W        W32094  24.200  39.982   4.763
62214W        W32095   0.327   9.673  13.913
62215W        W32096  40.999  23.537  11.889
62216W        W32097  38.484  33.479   0.730
62217W        W32098   0.328  44.895   1.916
62218W        W32099  11.304  34.883   3.196
62219W        W32100  39.819  40.510   3.185
62220W        W32101  38.350  40.950   0.888
62221W        W32102  15.741  11.321  11.916
62222W        W32103  44.995   3.866  11.103
62223W        W32104  22.997  32.126   3.380
62224W        W32105  32.134  30.506   3.279
62225W        W32106  23.688   3.254  12.023
62226W        W32107  25.491  16.170  11.423
62227W        W32108   1.415  39.918  14.319
62228W        W32109  35.977  12.205  13.016
62229W        W32110  18.697  39.032   0.940
62230W        W32111  44.347  17.097  11.402
62231W        W32112  11.674  26.637  13.791
62232W        W32113  38.036  14.188   0.446
62233W        W32114  18.555  38.494   3.373
62234W        W32115   5.355  12.737  13.347
62235W        W32116  13.615  38.908  10.952
62236W        W32117  16.625   0.307  14.510
62237W        W32118   3.861  37.394  13.003
62238W        W32119  13.239  14.802  13.421
62239W        W32120   3.345  15.594  14.864
62240W        W32121   8.267  13.810  13.330
62241W        W32122  41.887  16.187  14.778
62242W        W32123  18.180  40.821   2.313
62243W        W32124  34.577   0.409  12.387
62244W        W32125  29.080   2.408  11.460
62245W        W32126  23.197   6.278   2.255
62246W        W32127  31.633   7.413   2.348
62247W        W32128  17.117   0.814  12.855
62248W        W32129  33.928  40.358  12.468
62249W        W32130   8.196  29.096  12.074
62250W        W32131  37.011   1.454   4.174
62251W        W32132  27.558  19.621   3.194
62252W        W32133  13.727  34.545   0.439
62253W        W32134  14.168  11.230   3.241
62254W        W32135   6.817  18.232  14.019
62255W        W32136  40.542   1.426  12.473
62256W        W32137  42.492   5.294   2.882
62257W        W32138  29.632  30.500  10.483
62258W        W32139  21.180  19.770   0.480
62259W        W32140  42.443  18.233  13.010
62260W        W32141  27.657  28.068   3.781
62261W        W32142   7.370  13.709   3.207
62262W        W32143  13.206  34.102  11.005
62263W        W32144  27.956  17.195   2.838
62264W        W32145  30.981  22.626  10.445
62265W        W32146  28.622  26.134  12.958
62266W        W32147  31.964   1.949   0.881
62267W        W32148  14.623   3.439  10.634
62268W        W32149  38.938  26.463   3.860
62269W        W32150  12.224  44.782  14.874
62270W        W32151  31.128  31.443  11.394
62271W        W32152  23.650  31.598   2.862
62272W        W32153   2.342  33.071   3.667
62273W        W32154  38.903  13.181   1.698
62274W        W32155   8.715  19.676   4.274
62275W        W32156  36.592   5.331   1.876
62276W        W32157   8.795   6.740  12.364
62277W        W32158   4.773   8.340  14.302
62278W        W32159  31.000  31.521  11.046
62279W        W32160  22.620  23.665  10.452
62280W        W32161  26.010  24.646   0.916
62281W        W32162  24.144  34.983  10.470
62282W        W32163  25.503  17.136  11.502
62283W        W32164  25.128  26.525  12.495
62284W        W32165  26.106   7.699  13.476
62285W        W32166  10.234  19.191   1.254
62286W        W32167  36.454   4.860   0.456
62287W        W32168  25.507   6.711  10.891
62288W        W32169  38.962  33.440  14.900
62289W        W32170  14.797  11.226   2.247
62290W        W32171   8.883  35.076  11.943
62291W        W32172  11.847  39.533   2.182
62292W        W32173  36.463  15.635  13.874
62293W        W32174  18.084  33.410   1.730
62294W        W32175  12.173  34.964  13.365
62295W        W32176  20.096  32.625  13.875
62296W        W32177  12.200  25.036  13.877
62297W        W32178   9.303  14.751   3.264
62298W        W32179  38.461   8.794   4.197
62299W        W32180  14.596  41.926  13.797
62300W        W32181   7.862   1.296   0.742
62301W        W32182  18.201  17.712  14.336
62302W        W32183  40.946  39.000  12.029
62303W        W32184   9.752  18.609  12.434
62304W        W32185  30.091   2.851  13.879
62305W        W32186  23.215  10.762   0.326
62306W        W32187   1.889  22.517  11.878
62307W        W32188  12.172   1.960  12.937
62308W        W32189   4.915  10.215   4.169
62309W        W32190  29.966   3.955  12.580
62310W        W32191  11.167  41.529   3.295
62311W        W32192  23.141  13.185  13.806
62312W        W32193  19.140  28.098   2.282
62313W        W32194  12.324   7.836   4.792
62314W        W32195  14.639  17.222  11.582
62315W        W32196  10.154  14.787   3.217
62316W        W32197  20.042   3.372   3.171
62317W        W32198  17.766  11.214  10.924
62318W        W32199  28.599  18.134  12.852
62319W        W32200  30.450  15.128   2.897
62320W        W32201  18.570   6.798   2.756
62321W        W32202  30.473  22.196  12.069
62322W        W32203  14.326  21.690   2.334
62323W        W32204  30.953  33.958   4.273
62324W        W32205  35.032  34.117   0.442
62325W        W32206  28.147  24.104  13.425
62326W        W32207  11.851   9.841   3.717
62327W        W32208   0.429  22.045  10.955
62328W        W32209  13.637  14.168  10.433
62329W        W32210   4.387  19.708  14.321
62330W        W32211  43.454  23.539  11.985
62331W        W32212  39.982   1.965  10.578
62332W        W32213   5.226   8.324  13.063
62333W        W32214  16.088   3.302   1.737
62334W        W32215  27.161  13.154  12.451
62335W        W32216   2.887  26.613  13.338
62336W        W32217   1.928  19.714  13.022
62337W        W32218  31.614  14.261   0.872
62338W        W32219  11.703  33.391  10.429
62339W        W32220  38.458   9.835  11.431
62340W        W32221   2.308  10.252  12.934
62341W        W32222  24.710  11.651  12.988
62342W        W32223  23.573  32.419  12.343
62343W        W32224  36.939   5.297   4.140
62344W        W32225  38.959  38.010  11.526
62345W        W32226  13.606  24.111  14.913
62346W        W32227  40.313  40.032  10.995
62347W        W32228   8.680  39.000   2.820
62348W        W32229  22.203   6.215   3.755
62349W        W32230   6.889  29.589  12.397
62350W        W32231   1.458  24.024   1.415
62351W        W32232  27.691  16.242   1.695
62352W        W32233   7.214  10.350  14.922
62353W        W32234  16.747  11.226  10.920
62354W        W32235  29.547  21.598  13.318
62355W        W32236  34.873   1.311  12.871
62356W        W32237  10.775  41.856   3.173
62357W        W32238  42.430  18.282   2.726
62358W        W32239  29.938  43.443  13.978
62359W        W32240  17.663   3.808  11.968
62360W        W32241   6.736  18.124  14.496
62361W        W32242  36.479  29.461  11.383
62362W        W32243  33.942   3.772   4.797
62363W        W32244  41.538  18.745   2.725
62364W        W32245  42.952  35.868  12.929
62365W        W32246  25.502  28.058  14.498
62366W        W32247  28.112  26.084   1.847
62367W        W32248  16.242   4.395   2.380
62368W        W32249   3.850  14.723   1.803
62369W        W32250  26.051  36.934   4.757
62370W        W32251  24.167  32.919   2.898
62371W        W32252  41.354  34.912  10.495
62372W        W32253   3.393  41.500   1.417
62373W        W32254  24.166  15.757  13.477
62374W        W32255  18.074  39.364   3.865
62375W        W32256  14.156  27.197  14.300
62376W        W32257  18.257   7.400   1.879
62377W        W32258  33.540  17.656   1.235
62378W        W32259  19.144   9.830   4.236
62379W        W32260  21.749  30.644  13.830
62380W        W32261  13.207  12.257  14.496
62381W        W32262   4.383   4.730   2.306
62382W        W32263  37.386  17.562   0.854
62383W        W32264   5.699  11.229   2.790
62384W        W32265   6.322   0.794   2.414
62385W        W32266  22.181  19.750   4.328
62386W        W32267  38.969   4.420   1.700
62387W        W32268  38.021  30.572  12.512
62388W        W32269  21.129  37.445  11.950
62389W        W32270  44.929  19.570   1.301
62390W        W32271   5.287  31.551  12.501
62391W        W32272  14.800   7.297  14.776
62392W        W32273  14.324  19.243   3.344
62393W        W32274  41.880  25.652   0.348
62394W        W32275  39.330   1.773  10.475
62395W        W32276  43.309  37.481  13.422
62396W        W32277  27.560  43.805   0.428
62397W        W32278  10.144  32.487  10.896
62398W        W32279   4.290  36.386  14.936
62399W        W32280  20.179  40.363  10.557
62400W        W32281   7.780  25.111   0.351
62401W        W32282   9.298  13.292   3.382
62402W        W32283  17.628  25.545  10.540
62403W        W32284   1.845  30.608   0.368
62404W        W32285  18.202   7.781   2.233
62405W        W32286  14.833  26.684  11.985
62406W        W32287  30.045  10.147   2.392
62407W        W32288  24.596  21.214   3.742
62408W        W32289  34.096  25.153   4.744
62409W        W32290  32.398  19.554  12.890
62410W        W32291   7.256  20.097  10.476
62411W        W32292   3.858  41.925   1.412
62412W        W32293  17.759  40.392   0.793
62413W        W32294  43.851  28.582   0.939
62414W        W32295  31.081  19.250  13.002
62415W        W32296  16.173  27.532  12.049
62416W        W32297  24.588   8.734   1.266
62417W        W32298  15.240   8.782   1.828
62418W        W32299   2.743  36.055   0.858
62419W        W32300   8.858  26.184   4.671
62420W        W32301  24.202   9.845  10.452
62421W        W32302  44.846   3.793  13.953
62422W        W32303  11.788  35.997  13.997
62423W        W32304  22.726  18.609  14.483
62424W        W32305  43.460   3.448   2.409
62425W        W32306   1.415  41.520   4.189
62426W        W32307  25.151  40.347  10.451
62427W        W32308  25.071   3.272  11.516
62428W        W32309  24.981  19.605   3.340
62429W        W32310  28.649  43.492   2.737
62430W        W32311  28.021  22.032   3.649
62431W        W32312  25.134  17.619   1.845
62432W        W32313   9.644  18.706  14.444
62433W        W32314  33.013  41.511   1.751
62434W        W32315   8.772  27.095   2.813
62435W        W32316   3.406  20.213  10.893
62436W        W32317  23.016  10.180   0.460
62437W        W32318  27.027  10.188   2.885
62438W        W32319  41.972  17.079  13.921
62439W        W32320  40.990  30.027   0.359
62440W        W32321  12.665  21.513   4.137
62441W        W32322  32.479  10.290  12.915
62442W        W32323  44.385  35.908   1.720
62443W        W32324  11.626  31.094  10.067
62444W        W32325  42.814  18.080  11.405
62445W        W32326  10.694  29.056  13.966
62446W        W32327  41.015  17.604   0.477
62447W        W32328  19.222  17.294   0.392
62448W        W32329  10.632  26.104  11.991
62449W        W32330  44.438  13.204   1.414
62450W        W32331   5.272  15.758   3.373
62451W        W32332  32.139  13.297   1.889
62452W        W32333  33.958  32.443   3.645
62453W        W32334  13.238  23.720   2.847
62454W        W32335  40.995  23.118   3.730
62455W        W32336  43.435   0.479   3.227
62456W        W32337  41.794  21.224  13.504
62457W        W32338  32.465  25.692   2.277
62458W        W32339   6.779   2.385  10.896
62459W        W32340  22.649  13.694   4.808
62460W        W32341   4.841  16.306   2.737
62461W        W32342  38.535  30.564   0.455
62462W        W32343   5.340   9.795   4.283
62463W        W32344  33.423  24.997  13.459
62464W        W32345  40.434  19.039  11.390
62465W        W32346  33.571  25.166   4.280
62466W        W32347   7.702  38.514  14.311
62467W        W32348   4.336  38.016  12.345
62468W        W32349  37.974   4.281   1.781
62469W        W32350   5.305  37.995   1.428
62470W        W32351  18.229  41.449  13.389
62471W        W32352  17.685  11.739   2.804
62472W        W32353  22.534  43.010  10.410
62473W        W32354  32.062  21.635  14.303
62474W        W32355  24.157  23.532  12.072
62475W        W32356  23.726  20.712  11.386
62476W        W32357   5.797  37.496   2.268
62477W        W32358  30.124  42.982   0.394
62478W        W32359  40.996   2.730   4.768
62479W        W32360  38.547  39.916  12.458
62480W        W32361  29.095  19.231   1.311
62481W        W32362  22.031  39.381   0.303
62482W        W32363   7.881  42.349  14.372
62483W        W32364  28.655   1.883   4.163
62484W        W32365  29.978  12.829  14.850
62485W        W32366  20.272  24.681   4.120
62486W        W32367  39.948  28.639   2.211
62487W        W32368  11.836  27.085  13.968
62488W        W32369  10.714  41.295  10.487
62489W        W32370  31.925  18.129  12.931
62490W        W32371   4.777   0.850   2.299
62491W        W32372  17.707   9.221   4.714
62492W        W32373  38.893  43.331  11.524
62493W        W32374  18.646  44.895  11.053
62494W        W32375   6.270  11.842   3.341
62495W        W32376  40.337  44.504  12.374
62496W        W32377   7.829  42.992   4.278
62497W        W32378   1.403  37.872  11.889
62498W        W32379  29.126  23.075   0.803
62499W        W32380   4.228   0.414   0.776
62500W        W32381  14.595   1.268   4.608
62501W        W32382  44.382  34.411  13.853
62502W        W32383  38.404  34.074   1.914
62503W        W32384  28.087  43.498  10.488
62504W        W32385   0.951  22.236  11.485
62505W        W32386  17.665  36.036   0.392
62506W        W32387  20.587  20.098   4.645
62507W        W32388  40.845  30.644  11.930
62508W        W32389   6.826   1.403   3.814
62509W        W32390  36.393   6.723   2.336
62510W        W32391  42.781  24.992  14.904
62511W        W32392   3.802  23.186  13.316
62512W        W32393  14.601  17.736  14.965
62513W        W32394  33.012  29.963   2.863
62514W        W32395  25.100  44.377  11.085
62515W        W32396   3.287  26.985   1.719
62516W        W32397  14.181  17.790   4.625
62517W        W32398  27.084  15.676   2.847
62518W        W32399  35.959   2.310  11.894
62519W        W32400  12.642   9.668  11.397
62520W        W32401  21.036  18.143  13.048
62521W        W32402  12.737  39.504   0.890
62522W        W32403   2.727  39.544  12.528
62523W        W32404   3.327  28.540   4.185
62524W        W32405  36.095   3.241   2.810
62525W        W32406  39.542  12.316  10.582
62526W        W32407  19.575  38.518   4.706
62527W        W32408   7.669  12.817  11.019
62528W        W32409   2.347   9.189  14.799
62529W        W32410  22.252  35.966  13.830
62530W        W32411  20.268  14.791   2.257
62531W        W32412   8.814  38.400   3.839
62532W        W32413  14.199  36.003  10.928
62533W        W32414  34.568   5.276  13.434
62534W        W32415  42.325   0.906   3.836
62535W        W32416  25.683   4.417   4.178
62536W        W32417  16.568  14.322  11.582
62537W        W32418  25.704  27.469   4.676
62538W        W32419  19.694  17.611   3.245
62539W        W32420   7.750  12.855   0.894
62540W        W32421  13.348   1.734  13.324
62541W        W32422  37.987   1.929  13.887
62542W        W32423  11.743   2.386  12.363
62543W        W32424   9.734   4.754   0.414
62544W        W32425  19.775   2.366   5.139
62545W        W32426  37.833  34.005   3.331
62546W        W32427  21.547   9.222  13.408
62547W        W32428  22.202   9.290   2.391
62548W        W32429  33.429  40.980  14.316
62549W        W32430   4.243  36.040  11.855
62550W        W32431  37.468   5.700  13.953
62551W        W32432   6.202  24.115  10.633
62552W        W32433  29.647   9.738   1.317
62553W        W32434   3.283  11.244  13.390
62554W        W32435  23.630  28.119  11.941
62555W        W32436   5.866  24.179   0.934
62556W        W32437   7.277  16.117   4.820
62557W        W32438  23.058  22.521  13.023
62558W        W32439  32.092  34.451  13.947
62559W        W32440  36.428  37.452  10.075
62560W        W32441  41.489  27.165   0.779
62561W        W32442   2.295  23.517   2.392
62562W        W32443  13.258  29.069   5.243
62563W        W32444  34.541  32.035  10.000
62564W        W32445   6.340  36.395  11.963
62565W        W32446  14.736  39.012  10.149
62566W        W32447   5.928  19.536   3.850
62567W        W32448  37.008   9.209  14.861
62568W        W32449   1.373  19.651  13.894
62569W        W32450  11.755  34.546   2.885
62570W        W32451  35.451  18.103  14.450
62571W        W32452  21.731  13.638   0.918
62572W        W32453  43.000   0.775  14.480
62573W        W32454  22.051  20.175   0.803
62574W        W32455  31.579   2.760   3.697
62575W        W32456  29.139  40.515  12.544
62576W        W32457  23.205  30.509   2.664
62577W        W32458  30.499  19.705  14.851
62578W        W32459   7.868  27.164   1.399
62579W        W32460  33.624  38.383   2.371
62580W        W32461   4.285  18.643   1.402
62581W        W32462  10.773   7.848  13.963
62582W        W32463  42.875  28.479  10.984
62583W        W32464  35.576   5.325   4.279
62584W        W32465  12.702  42.325  14.483
62585W        W32466   4.232  16.738  11.990
62586W        W32467   9.839  30.080  13.821
62587W        W32468  35.362   4.817  12.553
62588W        W32469  16.250  20.763  14.291
62589W        W32470   1.423   4.764  13.310
62590W        W32471  38.976  16.576   0.251
62591W        W32472  18.711   6.845   0.255
62592W        W32473  24.699  29.599  14.971
62593W        W32474  33.389  19.674   4.143
62594W        W32475   5.411  14.692  11.562
62595W        W32476  44.340   4.325  13.866
62596W        W32477  25.171  36.429  13.028
62597W        W32478  18.284  37.024  14.760
62598W        W32479   6.344  28.573  10.922
62599W        W32480  36.529   0.465   1.432
62600W        W32481  28.502  26.528   2.365
62601W        W32482   1.452   0.763  12.823
62602W        W32483  14.289  44.832  14.845
62603W        W32484  23.213  24.628   2.351
62604W        W32485  43.360   9.889   2.256
62605W        W32486   2.310   7.264  13.855
62606W        W32487  31.142  15.658  14.485
62607W        W32488  21.192  32.437  12.437
62608W        W32489  24.527  23.054  14.978
62609W        W32490  44.313  34.052  10.071
62610W        W32491  18.662  36.531   4.837
62611W        W32492   0.986  11.731  10.578
62612W        W32493  20.202  40.858  14.965
62613W        W32494  39.004  32.479  12.984
62614W        W32495   8.180   3.937   0.407
62615W        W32496   4.313  22.033  14.872
62616W        W32497  10.220  38.030  13.964
62617W        W32498  37.974  15.626  12.498
62618W        W32499  17.787  12.213  14.884
62619W        W32500  26.684  21.233   1.410
62620W        W32501   8.701   3.226   3.768
62621W        W32502  21.604   5.846   0.273
62622W        W32503  21.179  14.223   0.765
62623W        W32504  18.597   1.734  14.998
62624W        W32505  39.491   3.345   1.407
62625W        W32506   7.326  14.315   4.327
62626W        W32507  24.091  20.050  12.873
62627W        W32508  42.831  26.510   3.168
62628W        W32509  14.781  25.616  10.975
62629W        W32510  39.809  34.538  14.393
62630W        W32511  40.343  17.187  11.967
62631W        W32512  36.904  37.841   1.854
62632W        W32513  26.053  14.144   2.804
62633W        W32514  14.274  18.187   3.656
62634W        W32515  11.287  10.217   2.897
62635W        W32516  36.904   4.800   0.440
62636W        W32517   5.323  38.888   0.272
62637W        W32518  42.480  18.740   1.920
62638W        W32519   5.737  36.457   3.708
62639W        W32520  34.370  37.902  13.963
62640W        W32521  39.528   1.942  13.330
62641W        W32522  15.083  26.462  12.352
62642W        W32523   4.835  38.380  12.959
62643W        W32524  12.841  11.310  12.981
62644W        W32525   2.276  32.114  13.536
62645W        W32526  32.559  20.239  14.503
62646W        W32527   4.827  13.632   4.145
62647W        W32528  43.333  11.817  12.533
62648W        W32529  26.198  44.411  14.761
62649W        W32530  37.493  25.997  13.309
62650W        W32531  13.207  19.615   2.887
62651W        W32532  25.553  32.032  14.784
62652W        W32533   3.314  43.799  10.626
62653W        W32534   1.398  31.148   0.931
62654W        W32535  31.045   3.909  12.879
62655W        W32536  29.664  12.632   2.270
62656W        W32537  33.029  13.631   2.806
62657W        W32538   4.363  36.425  12.392
62658W        W32539  21.574   3.768   4.237
62659W        W32540  32.615  30.425  13.837
62660W        W32541  29.972  21.606   0.274
62661W        W32542   6.387   4.239   2.211
62662W        W32543   0.824  43.874   2.877
62663W        W32544  29.564  12.664   0.299
62664W        W32545  42.407  15.766   2.225
62665W        W32546  20.215  15.753   4.721
62666W        W32547  34.402  39.350  12.369
62667W        W32548  30.000   9.226  11.077
62668W        W32549   0.901  38.949  12.992
62669W        W32550  38.070  32.970  13.451
62670W        W32551  31.538   3.415  12.066
62671W        W32552  40.857   7.795  12.059
62672W        W32553  10.634   5.751  10.630
62673W        W32554   4.716  36.997  14.774
62674W        W32555  28.020  36.979  11.090
62675W        W32556  23.103  28.990   4.688
62676W        W32557  37.446   3.843  10.444
62677W        W32558  14.718   2.333   4.189
62678W        W32559  24.489  14.773   4.134
62679W        W32560  23.142  24.639   4.256
62680W        W32561  13.824  28.485   4.642
62681W        W32562  20.247   4.336   3.702
62682W        W32563  28.090  14.295  10.621
62683W        W32564  27.652  10.644  11.418
62684W        W32565  28.945   0.862  10.944
62685W        W32566   3.804  44.395  13.328
62686W        W32567  37.017  17.724   4.157
62687W        W32568  37.350  36.991  10.446
62688W        W32569   8.730   1.903   0.922
62689W        W32570  38.875  31.896  10.455
62690W        W32571  39.457  21.670   0.382
62691W        W32572  43.782  19.660   3.734
62692W        W32573  38.523   8.394   3.722
62693W        W32574  33.952  42.492  13.347
62694W        W32575  21.106  26.119  14.928
62695W        W32576  20.055  43.857   5.791
62696W        W32577  38.422  11.354  14.405
62697W        W32578  11.861  17.118   0.354
62698W        W32579   3.375  37.875   2.374
62699W        W32580   4.407  32.489   0.473
62700W        W32581   2.768  38.995  14.348
62701W        W32582  37.015  28.100  10.588
62702W        W32583  35.962  27.544  12.576
62703W        W32584  25.629  41.518  13.441
62704W        W32585   0.870   1.401  10.601
62705W        W32586  33.623   3.256  11.554
62706W        W32587  37.546  26.463  13.960
62707W        W32588  30.506  39.488   2.229
62708W        W32589  34.054  28.941  12.951
62709W        W32590   0.293   4.732   4.790
62710W        W32591  38.421  21.255  10.940
62711W        W32592  16.777  20.057   1.897
62712W        W32593   5.766  19.124  13.415
62713W        W32594  44.930  18.755  11.403
62714W        W32595  28.968   1.310  13.886
62715W        W32596  34.894  43.466  14.803
62716W        W32597  31.449  16.581  11.488
62717W        W32598  28.177  29.951  14.871
62718W        W32599  25.485   4.843   5.261
62719W        W32600  19.224  14.214   1.755
62720W        W32601  15.143   1.332   0.430
62721W        W32602  25.026  38.031   2.185
62722W        W32603   2.876  44.867  11.593
62723W        W32604   6.777  31.048   1.252
62724W        W32605  13.236  11.250  14.886
62725W        W32606  17.794   9.745   2.779
62726W        W32607  44.944  28.946  12.020
62727W        W32608  39.317  29.154  14.001
62728W        W32609   8.784  31.972   3.223
62729W        W32610  13.810   3.816   3.800
62730W        W32611  15.097  43.370  11.435
62731W        W32612  40.980  13.210  14.771
62732W        W32613  14.808  27.119  11.374
62733W        W32614  36.028   5.739   1.783
62734W        W32615  16.281  21.164  11.095
62735W        W32616   4.371   8.333   4.345
62736W        W32617  10.310   7.720  13.500
62737W        W32618   4.259  33.582  11.894
62738W        W32619  32.908  27.985  11.996
62739W        W32620  16.161  31.139   3.325
62740W        W32621  14.778  27.588  13.977
62741W        W32622  13.703  33.976   0.931
62742W        W32623  27.012  19.700   5.202
62743W        W32624  27.140  44.423   4.174
62744W        W32625   1.881  18.213   3.218
62745W        W32626   9.753   6.201   0.911
62746W        W32627   7.199  39.881   0.372
62747W        W32628  10.266  32.029   4.693
62748W        W32629  19.557  18.671  12.428
62749W        W32630  26.465  17.610   0.755
62750W        W32631  41.991   6.922  11.977
62751W        W32632  26.176  22.013   4.659
62752W        W32633  13.181   9.644   4.774
62753W        W32634  13.753  25.094   2.301
62754W        W32635  18.210  27.110  11.564
62755W        W32636  10.287  16.294  14.792
62756W        W32637   5.312  34.941  11.873
62757W        W32638  22.063  24.095   3.284
62758W        W32639  19.175  23.989   2.322
62759W        W32640  10.649   6.904  12.014
62760W        W32641  15.238  32.510  12.074
62761W        W32642  30.147  35.450  13.311
62762W        W32643  10.214  21.575   0.934
62763W        W32644  18.099  27.051   0.820
62764W        W32645  13.294   3.887  10.930
62765W        W32646   6.374  19.201   1.297
62766W        W32647   9.711   1.834   2.721
62767W        W32648   1.286  35.460   2.178
62768W        W32649  26.004   6.337   0.396
62769W        W32650  36.524  10.273   4.203
62770W        W32651  34.876  38.063  13.400
62771W        W32652  40.537  17.593   3.754
62772W        W32653  17.069   7.732  12.942
62773W        W32654  43.437  41.970  11.855
62774W        W32655  30.091   7.745  14.830
62775W        W32656  32.948  12.210   1.322
62776W        W32657   8.744  30.037   2.701
62777W        W32658  43.990  33.393   0.361
62778W        W32659  31.955  24.014  14.989
62779W        W32660  32.390  19.668   0.761
62780W        W32661  37.509  43.334   3.307
62781W        W32662  43.882  31.547  13.920
62782W        W32663  25.517  37.540  14.908
62783W        W32664  19.538   5.833   1.793
62784W        W32665  28.117   9.311   2.896
62785W        W32666  11.742  19.565   1.437
62786W        W32667  12.261  42.987   0.953
62787W        W32668  37.079  18.740  13.458
62788W        W32669  12.760  10.682  13.821
62789W        W32670  35.395  18.121  11.860
62790W        W32671  38.374  18.718   0.375
62791W        W32672   4.829   3.286  11.376
62792W        W32673  20.586  31.634  13.375
62793W        W32674   4.399  34.887  10.897
62794W        W32675  37.886  36.487   1.790
62795W        W32676  12.281  35.866   0.421
62796W        W32677   9.197  18.731  12.011
62797W        W32678  44.801  20.650   4.775
62798W        W32679  41.439  17.184  14.330
62799W        W32680  42.908   7.846  12.839
62800W        W32681  37.460  13.650  13.012
62801W        W32682  34.089  23.033   1.702
62802W        W32683  13.772  43.903   0.378
62803W        W32684   2.830  27.475   4.129
62804W        W32685  26.628  19.212   3.364
62805W        W32686  27.953  18.110   2.303
62806W        W32687  18.696  44.277   5.143
62807W        W32688  26.973  28.038  12.002
62808W        W32689  30.642  10.778  12.843
62809W        W32690  21.622  23.564   4.694
62810W        W32691  25.656  34.423  11.987
62811W        W32692  14.709  36.993   4.326
62812W        W32693  26.693  44.883   4.177
62813W        W32694  28.489   4.306   4.279
62814W        W32695   5.321  41.011  14.914
62815W        W32696   2.919   2.320   0.459
62816W        W32697   6.745  33.903   4.157
62817W        W32698  10.290  17.199  12.401
62818W        W32699  28.506   2.437  14.860
62819W        W32700  32.610   9.769  14.470
62820W        W32701   3.915  25.640  11.450
62821W        W32702   1.354  35.588  14.928
62822W        W32703  26.190   9.772   0.251
62823W        W32704   7.844  29.145   2.308
62824W        W32705  38.889   3.229   3.745
62825W        W32706  13.239  44.424  11.982
62826W        W32707  22.596  36.454   2.240
62827W        W32708  40.351  29.042  11.456
62828W        W32709  21.684  26.504   3.324
62829W        W32710  10.776  33.091  10.889
62830W        W32711  42.327  36.529  11.530
62831W        W32712  25.111  19.639  13.951
62832W        W32713  23.504  37.887   0.388
62833W        W32714  39.497   8.177   1.807
62834W        W32715  11.242   7.354  12.849
62835W        W32716  21.106   2.735  14.401
62836W        W32717  38.443  39.455  14.465
62837W        W32718   8.683  40.892   2.335
62838W        W32719  29.553  37.489  11.548
62839W        W32720  12.773  27.123   3.869
62840W        W32721   7.801  33.983   4.805
62841W        W32722  29.069  11.262  12.548
62842W        W32723  43.475   3.775  11.911
62843W        W32724   7.837   9.380  14.358
62844W        W32725  26.167  34.913   2.782
62845W        W32726  17.245  42.920   0.273
62846W        W32727  30.440  17.782  11.914
62847W        W32728   8.786  31.539   0.916
62848W        W32729  42.867  11.739   5.278
62849W        W32730  13.194   2.787   2.792
62850W        W32731  33.947  16.274   1.445
62851W        W32732  11.348  38.982   3.191
62852W        W32733  10.783  11.657  13.874
62853W        W32734  31.505   1.465  11.113
62854W        W32735  32.984  10.791  12.010
62855W        W32736  44.010  21.651   4.338
62856W        W32737   6.381  19.048  14.515
62857W        W32738  22.664  23.156  12.396
62858W        W32739  30.011  39.997  11.096
62859W        W32740   9.867  12.620  10.448
62860W        W32741   2.313   3.268  10.959
62861W        W32742  19.661  21.712  14.420
62862W        W32743  22.516  15.657  11.383
62863W        W32744  34.915   0.962  11.466
62864W        W32745  22.658  27.965   3.266
62865W        W32746  11.650  32.491   3.229
62866W        W32747  22.114  19.241  11.476
62867W        W32748  26.569  35.594  11.599
62868W        W32749  28.059  35.917  13.886
62869W        W32750  11.732  16.205   2.859
62870W        W32751   1.417  44.905  12.545
62871W        W32752  34.413  13.345  14.385
62872W        W32753  30.575  29.590   4.132
62873W        W32754  40.989  18.568  13.337
62874W        W32755  20.086  25.487   2.322
62875W        W32756  31.475  42.341   2.305
62876W        W32757  31.149  16.747  10.595
62877W        W32758  14.708  31.411  13.522
62878W        W32759  13.810  39.400  14.381
62879W        W32760   2.807   2.752  14.322
62880W        W32761  36.522  15.143   1.436
62881W        W32762  39.465  37.028  12.460
62882W        W32763  18.090  41.461   1.795
62883W        W32764  15.773  15.690   4.640
62884W        W32765  34.535  16.626  10.985
62885W        W32766  29.616  43.018  10.124
62886W        W32767  26.580  28.040   0.433
62887W        W32768  11.211   4.432  11.992
62888W        W32769  41.355  25.045  14.437
62889W        W32770  21.130  36.875   4.682
62890W        W32771   6.688  16.180  12.920
62891W        W32772  15.600  20.748   0.417
62892W        W32773  28.163  22.641  12.378
62893W        W32774  36.906  35.084  13.467
62894W        W32775   9.658  33.077   3.764
62895W        W32776  41.447  33.116   0.356
62896W        W32777  43.329  44.336  14.389
62897W        W32778  14.316  26.051   2.775
62898W        W32779  12.815  32.596   1.228
62899W        W32780   5.215  42.482  12.047
62900W        W32781  21.535  39.340   3.642
62901W        W32782   7.845  20.246  14.977
62902W        W32783  22.721  17.067   3.732
62903W        W32784   2.817  24.117  11.986
62904W        W32785  12.225  18.189  11.483
62905W        W32786  20.062   5.689  11.951
62906W        W32787  24.215   7.329   4.204
62907W        W32788  18.713  18.053   2.884
62908W        W32789  44.423  31.456  14.422
62909W        W32790  41.523  10.766   0.309
62910W        W32791  38.423  26.489   2.352
62911W        W32792  10.816  33.908  14.467
62912W        W32793  30.426   6.693   0.799
62913W        W32794  20.199  25.486  13.354
62914W        W32795   5.784  18.086   3.736
62915W        W32796  13.802   0.398   2.738
62916W        W32797  32.417  31.149   2.884
62917W        W32798  33.879  44.273  11.010
62918W        W32799  35.896   5.370  12.986
62919W        W32800  29.582  25.183  12.552
62920W        W32801   4.758  24.048   2.243
62921W        W32802  24.059  19.538  10.080
62922W        W32803  32.599   0.420  13.451
62923W        W32804  19.721   0.833   1.356
62924W        W32805  28.967  18.072  14.860
62925W        W32806  12.238  37.054  12.944
62926W        W32807   5.881  20.731  12.420
62927W        W32808  19.681  12.300   0.309
62928W        W32809  27.033  18.150   2.903
62929W        W32810   7.816  28.003  10.540
62930W        W32811  27.193  31.048  13.791
62931W        W32812  19.054  38.920   1.772
62932W        W32813  41.945   0.840   1.243
62933W        W32814  24.100   3.221   0.801
62934W        W32815   0.820  40.438   2.664
62935W        W32816  21.176  10.688  12.004
62936W        W32817  20.244  33.974   0.300
62937W        W32818   9.351  18.192   1.294
62938W        W32819   6.304  10.672  13.466
62939W        W32820  23.706   6.860   2.804
62940W        W32821   7.307  16.096  11.568
62941W        W32822  39.342  26.485  11.060
62942W        W32823  37.533   7.821  12.026
62943W        W32824  43.503  10.188   1.214
62944W        W32825  19.601  11.673   2.344
62945W        W32826  31.518  35.503  10.595
62946W        W32827  40.462  16.269   4.606
62947W        W32828  28.070  30.094   1.852
62948W        W32829  21.167  43.405   2.267
62949W        W32830  22.579  36.972   3.305
62950W        W32831  21.232  37.993  12.973
62951W        W32832   2.391  22.515   0.792
62952W        W32833  10.320  12.740  10.035
62953W        W32834  38.532  44.264   3.261
62954W        W32835  11.758   4.868  12.862
62955W        W32836  15.309  44.416   4.628
62956W        W32837   7.800   4.875   1.303
62957W        W32838  38.440  11.149   0.399
62958W        W32839  44.953  10.140   2.290
62959W        W32840  20.036  35.464  14.507
62960W        W32841  10.253  43.285   9.931
62961W        W32842  32.637   4.221   0.817
62962W        W32843  23.704  37.014  11.991
62963W        W32844  29.601  15.097  14.764
62964W        W32845  13.674  22.583   4.199
62965W        W32846  25.514  16.566   1.820
62966W        W32847   6.831  22.145   4.605
62967W        W32848   5.348   5.799   0.374
62968W        W32849  32.057   2.375   0.896
62969W        W32850  28.174  43.772   4.327
62970W        W32851  22.649  14.122  14.366
62971W        W32852  16.570  23.052   2.767
62972W        W32853  29.931  31.903  12.914
62973W        W32854  38.947   8.374  10.430
62974W        W32855   8.667  34.533   4.606
62975W        W32856   9.778  36.359  11.858
62976W        W32857  34.937  35.466  10.911
62977W        W32858  21.217  36.063   1.899
62978W        W32859  41.985  11.817   1.355
62979W        W32860  18.089  12.361   2.273
62980W        W32861  20.197  37.479  10.583
62981W        W32862   3.773  15.755   3.837
62982W        W32863   9.830  36.076  14.808
62983W        W32864  30.155   4.313  14.994
62984W        W32865  41.016  30.066   0.750
62985W        W32866  19.277  28.632  14.424
62986W        W32867  33.117  17.279  13.976
62987W        W32868  28.436  22.132   1.724
62988W        W32869   2.456  20.220  11.430
62989W        W32870  20.182  37.458  11.534
62990W        W32871  14.192   4.270  11.976
62991W        W32872  32.602  11.844  12.422
62992W        W32873   2.724  22.025  14.856
62993W        W32874  26.185  15.768   9.932
62994W        W32875   3.429  16.751  10.538
62995W        W32876   4.370  42.821  11.969
62996W        W32877  22.686  24.975   2.662
62997W        W32878  17.710  21.727   0.435
62998W        W32879  17.130   1.355  14.897
62999W        W32880   6.202  39.816  10.465
63000W        W32881   6.319   1.931   1.712
63001W        W32882  32.507   3.771   2.708
63002W        W32883  14.769   9.221   1.742
63003W        W32884  40.472  12.829  13.526
63004W        W32885  26.621  20.589   1.770
63005W        W32886   3.872  12.138  14.032
63006W        W32887   2.294   4.361   3.159
63007W        W32888  21.224  15.588   5.281
63008W        W32889   4.745  44.328   1.769
63009W        W32890  35.526  30.468   2.740
63010W        W32891  15.661  35.023   3.827
63011W        W32892   3.446  33.527   3.856
63012W        W32893  39.832   1.360  11.910
63013W        W32894   3.738  23.730  12.966
63014W        W32895  37.379  41.415  12.979
63015W        W32896  29.456  20.164  11.042
63016W        W32897  37.394  31.920   3.753
63017W        W32898  21.119  22.614  13.406
63018W        W32899  24.159   3.413   3.662
63019W        W32900   5.704   4.841  14.898
63020W        W32901  42.830  26.153   9.923
63021W        W32902  19.160   2.751  13.335
63022W        W32903   8.403   5.205   0.889
63023W        W32904   7.795  26.083   2.821
63024W        W32905   8.658  33.579   3.356
63025W        W32906  14.712  32.986   4.242
63026W        W32907   4.389  37.502  14.826
63027W        W32908  44.867  38.325  14.886
63028W        W32909   8.840  14.230   4.779
63029W        W32910  27.964  10.309   2.671
63030W        W32911  16.083   0.904  10.420
63031W        W32912  39.815  36.514   0.251
63032W        W32913   6.319  23.590   0.860
63033W        W32914  27.585   1.237  12.051
63034W        W32915  19.126  28.596  10.574
63035W        W32916  17.302   3.457  14.365
63036W        W32917  34.589  24.580   1.379
63037W        W32918  27.112  41.943  11.412
63038W        W32919  28.601  42.368  14.887
63039W        W32920  44.853  34.491   0.919
63040W        W32921   1.377  17.680   4.786
63041W        W32922  43.945   0.336  10.581
63042W        W32923   8.877  43.336   3.385
63043W        W32924  27.451   4.250   3.851
63044W        W32925  44.935  33.494   3.636
63045W        W32926  17.758  12.121  12.545
63046W        W32927  31.420  27.155   3.170
63047W        W32928  38.347  39.898  12.054
63048W        W32929  12.277  30.606   0.383
63049W        W32930   2.390  26.627  11.868
63050W        W32931  28.456   5.431   2.735
63051W        W32932  13.609   6.211  12.841
63052W        W32933  11.131   8.696   1.695
63053W        W32934  37.531  24.557   1.732
63054W        W32935   9.838  24.516   3.841
63055W        W32936  39.029  30.016   4.316
63056W        W32937  22.081  14.239   2.777
63057W        W32938  28.088   0.940   2.763
63058W        W32939   6.782  43.018   0.867
63059W        W32940  28.114  32.564  10.471
63060W        W32941  12.671   5.424  11.427
63061W        W32942   5.218  15.754  11.883
63062W        W32943  42.951  34.449  14.302
63063W        W32944   3.233  36.378   2.851
63064W        W32945   2.909  26.059  12.862
63065W        W32946  29.082  14.152  12.941
63066W        W32947  42.513  20.101  14.006
63067W        W32948   9.833  17.766   4.242
63068W        W32949   7.245  24.160   3.833
63069W        W32950  11.293  31.450   2.416
63070W        W32951  35.568  39.033   3.263
63071W        W32952  41.397  44.908  13.498
63072W        W32953  30.515  23.594   0.764
63073W        W32954   4.856   3.349  12.953
63074W        W32955  38.553  37.547   2.713
63075W        W32956  27.103  31.517   1.253
63076W        W32957  28.561  17.616  14.947
63077W        W32958  11.171  32.037  11.857
63078W        W32959  17.294   1.766  10.485
63079W        W32960  40.961  43.994  14.480
63080W        W32961  35.884  22.204   3.678
63081W        W32962   3.907  18.143   5.147
63082W        W32963  39.048  25.046   3.686
63083W        W32964  29.998   3.792   1.301
63084W        W32965  34.977  10.247   1.809
63085W        W32966  32.443   9.250   4.255
63086W        W32967  17.178  40.314   0.741
63087W        W32968   0.829  37.544  11.981
63088W        W32969  36.966  32.479   0.248
63089W        W32970  15.300  40.353  13.476
63090W        W32971  23.613  13.779   2.391
63091W        W32972   2.262  12.767  10.106
63092W        W32973  16.228   4.443   3.803
63093W        W32974  25.603  19.137   3.855
63094W        W32975  29.446   8.776  10.154
63095W        W32976  17.288   2.843  12.882
63096W        W32977  25.495  30.455   1.434
63097W        W32978  14.723  20.050  13.315
63098W        W32979   3.935  24.107   2.287
63099W        W32980  15.580   5.815  10.108
63100W        W32981  20.220  18.549   3.790
63101W        W32982  15.662  32.444  10.513
63102W        W32983  25.042  27.624   2.835
63103W        W32984   6.780  28.597   1.743
63104W        W32985  14.330  32.526  13.465
63105W        W32986  42.969  43.013  13.834
63106W        W32987  43.932  24.671  10.910
63107W        W32988  44.918  34.382  14.396
63108W        W32989   6.369  15.734   3.808
63109W        W32990  35.417  36.573   4.351
63110W        W32991  35.392  16.732   0.262
63111W        W32992  34.040  44.369   4.263
63112W        W32993  42.777   2.455   3.678
63113W        W32994  16.222  32.394  12.457
63114W        W32995  20.083  43.495   0.279
63115W        W32996  38.490  33.087  11.558
63116W        W32997   3.858   5.830  14.984
63117W        W32998  36.048   9.170  12.506
63118W        W32999  26.651   7.883   3.166
63119W        W33000  27.502  33.486  14.997
63120W        W33001  31.030  10.340  10.020
63121W        W33002   9.343   7.311   3.657
63122W        W33003  38.471  31.415   4.730
63123W        W33004   6.899   8.677  11.447
63124W        W33005  41.389  11.750   4.743
63125W        W33006  34.877  13.790  14.498
63126W        W33007  10.256  10.837  14.289
63127W        W33008  38.944  34.447  14.839
63128W        W33009  35.004  43.821  10.466
63129W        W33010  30.973  40.864  14.475
63130W        W33011  23.176   5.772   3.751
63131W        W33012   7.261  32.111  12.981
63132W        W33013  36.460  11.166   1.754
63133W        W33014  36.025  22.738  14.769
63134W        W33015  21.128  25.653  14.947
63135W        W33016  35.530  43.968  11.916
63136W        W33017  31.088  13.773   3.174
63137W        W33018  33.104  10.870  10.528
63138W        W33019  18.167  30.092  14.773
63139W        W33020   5.213   6.369  12.961
63140W        W33021  42.397  28.475   4.315
63141W        W33022  27.138  25.612  14.358
63142W        W33023  42.800  29.640  14.986
63143W        W33024  18.068  35.600  10.900
63144W        W33025  22.555  43.333  11.058
63145W        W33026  25.077  44.766  14.878
63146W        W33027  43.863  28.057   3.799
63147W        W33028  44.490  39.947  12.559
63148W        W33029  15.307  26.680  13.513
63149W        W33030   5.287  42.942   4.816
63150W        W33031  13.667  11.163   1.335
63151W        W33032  24.623  17.116   1.372
63152W        W33033   8.395  40.547   1.285
63153W        W33034  37.941   6.834  11.948
63154W        W33035  27.655  11.178  14.293
63155W        W33036  11.213  29.920   1.761
63156W        W33037  35.865  19.137  14.804
63157W        W33038  43.413   8.763   0.273
63158W        W33039   3.736   4.707   3.672
63159W        W33040  36.915  17.801   2.367
63160W        W33041  10.348  13.711  10.938
63161W        W33042  17.240  36.917  10.984
63162W        W33043  10.820   0.439  10.517
63163W        W33044   0.887  15.188   3.766
63164W        W33045  11.153  14.282   1.289
63165W        W33046  42.482   8.805  13.983
63166W        W33047  41.538  27.609   0.302
63167W        W33048   8.698  20.649   0.383
63168W        W33049  20.619   5.348   4.286
63169W        W33050  27.079  26.622   1.790
63170W        W33051  22.231  25.525   2.351
63171W        W33052  24.548  11.221  13.895
63172W        W33053   7.257   7.772   0.322
63173W        W33054  24.139   4.314   4.638
63174W        W33055  30.512  29.028  12.073
63175W        W33056  22.623  31.100  14.965
63176W        W33057  19.203   0.275  13.031
63177W        W33058  22.605  18.644  12.074
63178W        W33059  41.332  34.446   1.848
63179W        W33060   9.284   9.717  13.408
63180W        W33061  32.541   3.897  13.355
63181W        W33062  41.932  32.410  10.940
63182W        W33063  31.509  43.270  11.875
63183W        W33064  33.949  24.527  14.868
63184W        W33065   0.470  31.637  12.431
63185W        W33066  41.988  31.609  13.489
63186W        W33067  20.556  40.455  11.396
63187W        W33068  23.524   8.756  12.445
63188W        W33069  32.572  16.318   9.461
63189W        W33070  41.861   8.808   3.723
63190W        W33071  16.131   8.738  11.494
63191W        W33072  24.559  26.492  12.951
63192W        W33073  23.634  34.105   2.887
63193W        W33074  33.467  25.166   2.709
63194W        W33075  40.543  29.575   4.641
63195W        W33076  15.231  32.099  12.378
63196W        W33077  35.434  11.310  14.322
63197W        W33078  41.789  24.013   1.855
63198W        W33079  28.550  36.889   0.341
63199W        W33080  40.922  11.351  14.345
63200W        W33081  14.135  19.163   2.829
63201W        W33082  43.919   0.270   0.303
63202W        W33083  38.869  35.060   4.700
63203W        W33084  25.635  32.546  12.929
63204W        W33085  43.400  17.289   0.962
63205W        W33086   7.309  31.507   0.942
63206W        W33087  39.856  34.062  10.460
63207W        W33088  32.923  28.960  12.909
63208W        W33089  19.277  40.421   4.788
63209W        W33090  31.644   0.291   4.812
63210W        W33091  15.316  28.572   2.225
63211W        W33092  37.890  16.663   4.704
63212W        W33093  35.474  10.823   3.269
63213W        W33094  11.326  18.210  14.885
63214W        W33095  43.467  31.459  12.034
63215W        W33096   4.333   8.746   0.874
63216W        W33097  27.082  13.633  11.899
63217W        W33098  41.796  40.534  11.061
63218W        W33099   9.188  23.068  14.355
63219W        W33100  10.216  41.535   5.092
63220W        W33101  15.656   7.220   2.226
63221W        W33102  41.943  37.461  13.981
63222W        W33103   3.733  40.807   3.201
63223W        W33104  39.822  31.927  13.981
63224W        W33105  34.424  11.769  12.082
63225W        W33106   0.261   7.799   4.272
63226W        W33107  27.036  14.284   4.216
63227W        W33108  40.371   6.300  13.395
63228W        W33109  39.999  39.405   4.165
63229W        W33110  20.129   0.331   3.159
63230W        W33111  39.932  32.983  10.515
63231W        W33112  25.106  24.489   1.778
63232W        W33113  22.519  44.008  10.590
63233W        W33114  35.099  13.622   2.757
63234W        W33115   8.808  43.387  11.572
63235W        W33116  34.071  44.875  11.871
63236W        W33117  29.147   5.828  10.544
63237W        W33118  25.665  20.733  11.860
63238W        W33119  28.528  22.663  12.850
63239W        W33120  10.203  30.915  11.885
63240W        W33121  28.525  18.187   2.755
63241W        W33122  15.742   3.451  10.530
63242W        W33123  40.527  34.606   0.342
63243W        W33124  16.191   9.784   0.772
63244W        W33125  19.073  33.889  14.024
63245W        W33126  23.218   4.387  14.397
63246W        W33127   1.952  15.658  10.612
63247W        W33128  36.518  21.737   0.347
63248W        W33129  23.652  38.874  14.952
63249W        W33130   7.684   0.279  12.043
63250W        W33131  36.448  24.011  13.467
63251W        W33132   3.352   5.861   2.336
63252W        W33133  43.905  41.407   3.647
63253W        W33134  31.634   2.428  13.429
63254W        W33135  34.047  34.383  11.529
63255W        W33136  35.954   1.927   0.246
63256W        W33137  30.414  18.755   2.341
63257W        W33138  40.308  27.596  14.468
63258W        W33139  42.887  11.154   3.802
63259W        W33140  17.601  42.522  12.070
63260W        W33141  16.199  41.406   1.732
63261W        W33142   6.865  21.704  14.799
63262W        W33143  11.687  23.660   1.439
63263W        W33144  13.708  26.188  10.430
63264W        W33145  14.137  36.925   4.699
63265W        W33146  40.541  38.997  13.910
63266W        W33147  17.227  17.587   3.185
63267W        W33148  31.137   2.910   1.776
63268W        W33149  21.127  15.199   4.673
63269W        W33150  30.036   9.277   2.418
63270W        W33151  30.474  36.901   3.323
63271W        W33152   8.655  12.673  13.931
63272W        W33153  27.528  37.406   0.955
63273W        W33154   2.764  26.006  14.424
63274W        W33155  43.993  21.651  10.950
63275W        W33156   7.713  13.798   1.790
63276W        W33157   9.362   2.234  13.419
63277W        W33158  27.556  16.224   3.840
63278W        W33159  22.118  19.059  12.062
63279W        W33160  23.083  25.664   4.779
63280W        W33161  16.615  35.521   4.738
63281W        W33162  10.380   5.891  12.944
63282W        W33163  41.988   5.819   3.783
63283W        W33164  10.249  43.333   2.720
63284W        W33165  27.174   8.191   0.746
63285W        W33166  41.029  11.337   4.798
63286W        W33167  34.957  35.990   0.313
63287W        W33168  42.432  37.446   0.886
63288W        W33169  37.506   6.286  14.026
63289W        W33170  21.697  44.373   2.703
63290W        W33171  24.040  24.100  11.607
63291W        W33172  27.498  44.890  14.998
63292W        W33173   1.296  41.949  11.446
63293W        W33174  23.116   4.379   2.326
63294W        W33175  41.402  44.957  12.986
63295W        W33176  20.609  44.898   1.870
63296W        W33177  40.338  21.514  11.516
63297W        W33178  30.977  43.515   0.946
63298W        W33179  44.795  31.522   3.313
63299W        W33180  16.673   2.749  14.457
63300W        W33181  27.174  23.725   2.772
63301W        W33182  37.880  29.936  10.486
63302W        W33183  40.303  23.113  13.454
63303W        W33184  11.743  34.452  12.026
63304W        W33185  27.090  39.044  14.834
63305W        W33186  15.169  31.978  14.324
63306W        W33187  20.761  42.353  10.639
63307W        W33188  35.886  34.524   4.199
63308W        W33189   5.914   6.261   3.843
63309W        W33190  17.111   6.905   2.831
63310W        W33191  40.511  33.579   3.240
63311W        W33192  24.596   6.901  13.407
63312W        W33193  11.260  12.689   1.870
63313W        W33194  39.413   6.229  13.453
63314W        W33195  24.213  42.341  14.858
63315W        W33196  35.007  19.243   1.331
63316W        W33197   8.800  23.075   1.241
63317W        W33198  19.706   3.265   4.288
63318W        W33199  33.126  31.018  11.396
63319W        W33200   4.851  35.442   1.231
63320W        W33201  21.707  38.531   3.648
63321W        W33202   2.752  20.175   4.815
63322W        W33203  44.301  13.762  11.885
63323W        W33204  10.866  39.368   0.467
63324W        W33205  36.393  39.014   3.273
63325W        W33206  40.497  19.562   4.334
63326W        W33207  15.162   0.908   2.356
63327W        W33208  44.367  30.563   4.194
63328W        W33209  42.514  41.388   3.651
63329W        W33210  19.650  28.155  11.079
63330W        W33211  37.495  25.530   2.401
63331W        W33212  26.976  24.633  12.856
63332W        W33213  39.531   2.279   1.372
63333W        W33214  29.662   3.333  12.893
63334W        W33215   0.924   0.943   5.088
63335W        W33216  44.371  40.015  14.506
63336W        W33217  40.980  41.990   2.259
63337W        W33218  28.572   5.343  13.798
63338W        W33219   6.245  25.524  13.403
63339W        W33220  24.078  38.824   4.240
63340W        W33221  11.816  34.968   2.364
63341W        W33222  26.149   4.329  13.800
63342W        W33223  10.652  17.172  11.863
63343W        W33224  29.024  11.367  14.430
63344W        W33225  23.698  35.422  12.995
63345W        W33226  43.437  20.684  11.915
63346W        W33227  12.740  23.631   0.889
63347W        W33228  18.168   9.301   2.336
63348W        W33229  44.464  35.038   1.721
63349W        W33230   1.305  12.742   0.811
63350W        W33231  16.733  39.063  11.094
63351W        W33232  30.072  11.287   0.928
63352W        W33233  31.976  37.079  13.988
63353W        W33234  27.106  16.723   4.672
63354W        W33235  15.808  34.412  10.550
63355W        W33236  13.751  28.154   3.764
63356W        W33237   2.361  42.484  13.892
63357W        W33238  28.579  35.441  10.958
63358W        W33239  28.649  39.843  10.462
63359W        W33240   8.832  35.019  11.559
63360W        W33241  18.579  44.381  14.288
63361W        W33242   1.816  26.118   3.342
63362W        W33243  35.431  25.709   4.155
63363W        W33244  15.687  11.739  14.014
63364W        W33245  37.374  23.995   4.783
63365W        W33246  28.137  17.229   1.234
63366W        W33247  44.297  30.477   1.887
63367W        W33248  12.640  24.482  13.388
63368W        W33249   7.708  21.209   1.750
63369W        W33250  18.593  25.488   4.696
63370W        W33251  27.019  32.554  10.440
63371W        W33252  32.129   8.693   3.163
63372W        W33253  28.986   7.264   3.235
63373W        W33254  17.144  20.156  11.903
63374W        W33255  14.319  37.581  13.907
63375W        W33256  11.314   0.835  11.540
63376W        W33257   7.717  36.463   0.430
63377W        W33258  27.558  39.500  10.600
63378W        W33259  39.442   0.793  13.403
63379W        W33260   4.371  43.878  12.341
63380W        W33261  42.030   3.255  11.416
63381W        W33262  16.188  33.555  11.939
63382W        W33263  18.751  27.459  10.891
63383W        W33264  30.996  22.654  11.455
63384W        W33265   4.925  24.722  13.873
63385W        W33266  21.756  30.058  13.899
63386W        W33267  41.819  35.577   4.214
63387W        W33268   0.482  34.580   1.285
63388W        W33269   4.386  42.008   1.438
63389W        W33270  16.603   3.741   1.853
63390W        W33271  39.482  42.813  10.949
63391W        W33272  29.085  27.614  11.105
63392W        W33273  28.136   0.878  13.950
63393W        W33274   3.893  33.951   1.782
63394W        W33275  44.997  29.513  13.987
63395W        W33276  12.333   4.915   4.812
63396W        W33277   7.365  34.870   2.707
63397W        W33278  12.839  31.603   2.665
63398W        W33279   7.326  23.087  12.407
63399W        W33280  33.445  17.619   0.753
63400W        W33281   9.734  15.148   2.270
63401W        W33282  14.818   2.452  13.524
63402W        W33283   6.714   6.314   4.119
63403W        W33284   9.199  30.431  11.114
63404W        W33285  35.539  36.983  13.520
63405W        W33286  10.207   7.857   2.718
63406W        W33287  27.977  13.693   4.597
63407W        W33288  23.142  14.817   3.232
63408W        W33289   2.725  38.377   3.190
63409W        W33290  11.837   8.386   1.327
63410W        W33291  25.690  34.077   0.270
63411W        W33292   1.844  41.988   2.327
63412W        W33293  41.316  20.112   5.314
63413W        W33294   8.198  43.958  14.370
63414W        W33295  44.970  25.168   4.309
63415W        W33296  40.444  34.899   5.309
63416W        W33297  36.873  16.737  13.797
63417W        W33298  16.805  41.920  12.367
63418W        W33299  17.581   0.842   0.915
63419W        W33300  25.176  16.286   1.323
63420W        W33301  20.140  23.201  12.450
63421W        W33302  38.951   1.935   4.155
63422W        W33303  43.379  23.706   1.446
63423W        W33304  13.320  38.460  11.388
63424W        W33305  17.075  23.233  13.893
63425W        W33306  37.910  11.676  10.082
63426W        W33307  26.193   0.321   1.410
63427W        W33308   2.441   8.356   2.178
63428W        W33309  13.218  10.685   0.751
63429W        W33310  39.991   1.860   1.724
63430W        W33311  42.472  33.501  13.950
63431W        W33312  12.174  26.604  10.465
63432W        W33313  39.403  42.320   2.246
63433W        W33314   6.264  10.829  14.914
63434W        W33315   4.352  22.522  12.845
63435W        W33316  15.132   6.400  11.908
63436W        W33317  10.175   2.471   2.709
63437W        W33318  43.377  23.615  10.573
63438W        W33319  18.138  27.675   0.882
63439W        W33320  31.559  18.276   2.664
63440W        W33321   5.293  19.689   0.246
63441W        W33322  21.680   3.450  10.592
63442W        W33323  40.977  32.540   2.876
63443W        W33324  28.175   8.750   0.851
63444W        W33325  17.795   5.710   1.727
63445W        W33326   7.687  37.375  12.433
63446W        W33327  15.627  14.233   4.273
63447W        W33328  44.440   9.241  10.978
63448W        W33329  14.165  29.075  10.957
63449W        W33330  13.151   3.298  14.855
63450W        W33331  14.745  22.520  12.520
63451W        W33332  29.123  28.936  11.406
63452W        W33333  36.369  18.067   3.691
63453W        W33334  25.579  17.801  10.983
63454W        W33335  33.461  15.282   1.697
63455W        W33336   4.928   8.711  13.031
63456W        W33337   5.827  43.896  12.404
63457W        W33338  11.817  12.831  10.003
63458W        W33339   5.914  21.205   3.260
63459W        W33340   0.749  33.570   3.804
63460W        W33341  43.986  44.901  14.501
63461W        W33342  11.235  17.768  11.508
63462W        W33343   2.856   9.809   2.764
63463W        W33344  18.551  22.640  13.447
63464W        W33345  27.502  11.759  14.899
63465W        W33346  15.215  42.353  14.345
63466W        W33347  26.502  12.147  11.068
63467W        W33348   4.344  42.917  13.414
63468W        W33349  31.923  10.190   0.481
63469W        W33350  10.147  36.057  10.041
63470W        W33351  15.735  35.567   4.314
63471W        W33352  16.647  23.491  10.618
63472W        W33353  18.279   9.160   0.285
63473W        W33354   6.906  19.665   0.458
63474W        W33355  20.538  40.880  11.381
63475W        W33356  40.969  20.042  11.550
63476W        W33357  14.199  29.156  13.315
63477W        W33358  29.600  12.789   1.825
63478W        W33359   3.417  15.627   2.257
63479W        W33360   1.925  33.990   4.838
63480W        W33361  44.881  34.084  12.042
63481W        W33362  17.124  40.373  12.908
63482W        W33363  23.988  44.935   3.327
63483W        W33364  31.639   8.783  13.984
63484W        W33365  28.576   8.171   4.121
63485W        W33366  40.354  18.123   4.188
63486W        W33367  23.505  27.649  13.865
63487W        W33368   2.282  23.732  14.851
63488W        W33369  25.087  39.975  10.558
63489W        W33370  16.212  25.554  13.456
63490W        W33371   4.285  28.966  12.395
63491W        W33372  33.094  33.619  13.941
63492W        W33373  29.452  36.459   1.219
63493W        W33374  28.170  44.372   4.608
63494W        W33375  24.122  21.047  13.799
63495W        W33376  35.442   2.896   1.294
63496W        W33377  42.341  22.212  11.594
63497W        W33378  11.255  13.148  13.398
63498W        W33379  18.142  17.164   0.242
63499W        W33380  44.753  36.841   3.713
63500W        W33381  11.249  31.933   2.268
63501W        W33382  21.722  10.225   3.697
63502W        W33383  12.356  10.308  12.502
63503W        W33384  13.705  33.595  12.419
63504W        W33385   6.776  35.042   3.146
63505W        W33386  24.656  31.573   4.136
63506W        W33387   9.224  19.591   3.799
63507W        W33388  12.118  36.870   4.763
63508W        W33389  29.526  32.916  13.970
63509W        W33390  14.269   9.335  10.459
63510W        W33391   2.886  36.439   4.738
63511W        W33392   2.805  23.602   3.831
63512W        W33393  30.552  27.615   2.195
63513W        W33394  38.032  22.135  11.046
63514W        W33395  32.080  11.152  12.396
63515W        W33396   2.734  20.705  12.020
63516W        W33397   8.244   6.836   1.858
63517W        W33398   9.853  40.826   1.853
63518W        W33399  24.129   7.194  11.463
63519W        W33400  16.647   9.178  13.441
63520W        W33401  18.691  40.400   3.335
63521W        W33402  18.096   0.489   3.636
63522W        W33403  20.189  24.517  11.524
63523W        W33404  43.400  43.818   4.128
63524W        W33405  10.786  14.603   1.298
63525W        W33406  21.218   9.803   4.299
63526W        W33407  27.634  38.388  14.468
63527W        W33408   1.832   4.788   2.200
63528W        W33409   0.819  16.785  13.465
63529W        W33410  10.249  33.071  13.329
63530W        W33411   4.935  35.901  10.442
63531W        W33412   7.279  29.952  12.841
63532W        W33413  18.081  41.530  12.011
63533W        W33414  11.149  29.457   1.817
63534W        W33415  43.429  11.300   1.384
63535W        W33416  36.016   5.239   2.190
63536W        W33417  21.719  30.064   3.371
63537W        W33418   2.893  31.135  12.043
63538W        W33419  11.761  22.549   4.774
63539W        W33420  13.283  16.582   0.762
63540W        W33421   8.220  10.149   0.935
63541W        W33422  33.517  38.389  12.859
63542W        W33423  42.921  28.983  12.496
63543W        W33424  43.340  30.084   3.700
63544W        W33425   4.797  33.380   2.189
63545W        W33426  20.619  11.645   3.839
63546W        W33427  26.991  36.009   4.139
63547W        W33428  17.164  34.575   0.481
63548W        W33429  34.996  14.651  10.907
63549W        W33430   0.460  31.946   3.779
63550W        W33431  32.891  36.012  14.941
63551W        W33432  16.132   3.857   4.623
63552W        W33433  27.608  25.618  10.554
63553W        W33434  31.919  42.441  12.375
63554W        W33435  23.239   0.298   1.729
63555W        W33436   4.941  15.156   4.654
63556W        W33437  39.025  18.280  12.507
63557W        W33438  44.764  39.878  14.377
63558W        W33439   2.406  30.553   1.249
63559W        W33440  19.122  35.432  14.513
63560W        W33441  32.423  22.587  11.974
63561W        W33442  23.699  24.115   0.948
63562W        W33443  24.193  29.057   0.739
63563W        W33444   1.415  42.891   4.321
63564W        W33445  16.720   8.775   1.441
63565W        W33446  19.658  30.060   1.318
63566W        W33447  15.224  40.519  14.836
63567W        W33448  11.338   0.339   0.333
63568W        W33449  19.182  44.323  14.424
63569W        W33450  18.162  35.086  13.800
63570W        W33451  19.126  42.838   0.853
63571W        W33452  15.084   7.690  14.371
63572W        W33453  24.649   5.695  13.426
63573W        W33454  39.001  27.006  14.983
63574W        W33455  12.205  22.502   2.897
63575W        W33456  43.460  41.336  10.625
63576W        W33457  14.158  27.108  12.937
63577W        W33458  16.280  32.552   1.772
63578W        W33459  21.699  14.114   2.328
63579W        W33460  20.153  12.144  14.470
63580W        W33461   8.345  15.319   2.398
63581W        W33462  44.313  25.188   2.272
63582W        W33463  35.525   7.405   4.687
63583W        W33464  17.787   6.258  12.556
63584W        W33465  23.660  14.731  11.531
63585W        W33466   0.292  44.481  13.994
63586W        W33467   9.768  44.899   2.412
63587W        W33468  19.185   3.428  13.924
63588W        W33469   9.677   6.202  12.541
63589W        W33470  14.810  37.444  11.116
63590W        W33471  13.798  42.875  13.453
63591W        W33472  30.096  20.569   4.183
63592W        W33473   2.333  23.006   0.286
63593W        W33474  17.185   1.424   2.882
63594W        W33475  33.611  29.476  14.290
63595W        W33476  32.107  16.727   0.312
63596W        W33477  29.114  25.631   1.727
63597W        W33478   8.797  42.450   4.282
63598W        W33479  33.898   7.708   3.288
63599W        W33480  17.099   1.836   1.757
63600W        W33481  30.944  37.510   4.697
63601W        W33482  44.882  30.042  11.425
63602W        W33483  11.764  32.401  14.005
63603W        W33484   7.753  37.934   2.185
63604W        W33485   2.398   5.305   1.432
63605W        W33486  27.103  23.639   1.933
63606W        W33487  33.920  30.130   3.865
63607W        W33488  41.500  43.769  13.503
63608W        W33489   9.334   9.316   2.896
63609W        W33490  11.183  35.008   0.726
63610W        W33491  29.041  18.052  10.898
63611W        W33492  14.712  40.508  14.492
63612W        W33493   0.834  43.881   3.293
63613W        W33494  13.732  34.906  11.082
63614W        W33495  20.592  36.913   0.356
63615W        W33496   4.844  34.559   0.411
63616W        W33497  41.316  10.702   2.773
63617W        W33498  35.905  20.561   2.287
63618W        W33499  20.071  27.115   0.357
63619W        W33500   0.385  11.713  10.610
63620W        W33501  16.775  29.076   3.864
63621W        W33502  11.809  14.696   4.197
63622W        W33503   5.797  33.462   1.778
63623W        W33504  11.666  40.903   1.414
63624W        W33505  41.429  25.619  12.865
63625W        W33506  31.131   4.750   9.994
63626W        W33507  34.035  18.223   1.830
63627W        W33508  41.461  22.233   0.247
63628W        W33509   5.362  27.077   1.248
63629W        W33510  17.120  40.537   3.239
63630W        W33511  35.050  39.004   4.658
63631W        W33512  25.149  14.326  11.990
63632W        W33513  42.830  39.390  10.525
63633W        W33514  44.331  36.487   0.962
63634W        W33515   0.985  22.721  11.937
63635W        W33516   7.403  31.107   4.741
63636W        W33517  40.978  31.016  14.328
63637W        W33518  15.724  43.329   1.712
63638W        W33519  30.517  18.717  14.389
63639W        W33520   6.242  18.642   3.305
63640W        W33521  38.056  25.628   0.344
63641W        W33522   0.311  44.332   0.423
63642W        W33523  28.677  40.955   0.838
63643W        W33524  10.324  22.122  12.344
63644W        W33525  10.764  37.423   1.255
63645W        W33526  43.432  27.483   0.407
63646W        W33527  33.951  26.080   3.177
63647W        W33528  12.781  43.349  10.590
63648W        W33529  31.999   2.360   0.395
63649W        W33530  16.751  15.138   0.479
63650W        W33531  31.015   9.217   3.790
63651W        W33532  21.653  20.730  10.614
63652W        W33533  16.767  23.709   0.867
63653W        W33534  17.589  17.633   1.340
63654W        W33535   3.921  35.881   0.729
63655W        W33536  37.061  31.935  13.821
63656W        W33537  40.019  30.011  14.981
63657W        W33538  18.564  23.128   1.411
63658W        W33539  32.417  14.616   4.681
63659W        W33540  20.602   8.856   3.714
63660W        W33541  23.181  36.530   2.747
63661W        W33542   9.793  34.573  13.791
63662W        W33543  17.095  34.614  14.355
63663W        W33544  15.178   4.825  13.876
63664W        W33545  33.999  20.536  13.327
63665W        W33546  38.438  28.048   4.645
63666W        W33547  30.992  18.070  11.462
63667W        W33548  10.651  44.260  14.432
63668W        W33549  25.685  11.270   1.292
63669W        W33550  35.496  42.937  10.946
63670W        W33551  22.105  27.960  14.393
63671W        W33552  10.340  12.187  12.863
63672W        W33553  30.433   1.278  10.429
63673W        W33554  29.092   8.281  13.973
63674W        W33555  25.109   1.318  12.527
63675W        W33556  17.774  13.215  13.387
63676W        W33557   0.463   0.314  11.046
63677W        W33558  40.547  40.981   2.815
63678W        W33559   3.245   4.425   0.352
63679W        W33560   8.279  19.674   1.902
63680W        W33561  20.158  42.782   1.907
63681W        W33562  13.122  12.230   2.822
63682W        W33563  42.987  30.096   2.860
63683W        W33564  19.729  32.564   1.319
63684W        W33565  38.437   2.326   2.418
63685W        W33566  16.263  42.322  10.582
63686W        W33567  35.978  18.674  13.866
63687W        W33568  16.291  11.284  12.513
63688W        W33569  12.284  11.185   3.851
63689W        W33570  22.225   7.230  14.314
63690W        W33571  21.617  32.425  12.518
63691W        W33572  40.390   3.408  14.783
63692W        W33573  23.039  37.490  10.608
63693W        W33574  32.944  14.337  12.358
63694W        W33575  29.054   7.326   0.966
63695W        W33576  38.839  20.115   2.711
63696W        W33577  10.672   9.723   1.853
63697W        W33578  35.893  33.442  12.955
63698W        W33579  26.468  26.160   0.782
63699W        W33580  31.026  41.022  13.535
63700W        W33581  16.589  37.000  14.479
63701W        W33582  16.750  15.751  13.399
63702W        W33583  35.106  17.082   2.689
63703W        W33584  15.317  19.666   1.216
63704W        W33585  20.742  33.902   3.287
63705W        W33586  31.939  13.220  13.488
63706W        W33587  36.849  27.483   2.874
63707W        W33588  11.327  15.707   1.420
63708W        W33589  39.329  33.604   2.406
63709W        W33590   6.386  37.024  14.011
63710W        W33591  42.019  24.224  14.010
63711W        W33592  33.102  43.506   2.252
63712W        W33593  32.108  32.517  14.875
63713W        W33594  30.089  31.537  14.367
63714W        W33595  20.643  21.590  14.809
63715W        W33596  22.995  21.626  14.025
63716W        W33597  13.305   9.751  11.473
63717W        W33598  24.054   5.417   3.355
63718W        W33599  30.615  32.899  13.054
63719W        W33600  20.192  35.500   2.891
63720W        W33601  19.206  41.441   2.354
63721W        W33602   5.792  10.876  14.872
63722W        W33603   0.807  15.711  12.968
63723W        W33604   7.382  13.726  10.927
63724W        W33605  14.307  11.771   0.413
63725W        W33606  27.998  19.173  10.899
63726W        W33607  43.388  18.253  10.890
63727W        W33608   2.328   7.714   2.301
63728W        W33609  19.579   8.263  11.474
63729W        W33610   4.917  17.286  14.470
63730W        W33611  38.329  25.618   4.604
63731W        W33612  36.093  11.301  12.558
63732W        W33613  43.021  19.106  14.346
63733W        W33614   9.255  35.898   3.719
63734W        W33615  38.044  34.462   0.264
63735W        W33616   6.747   0.870  11.097
63736W        W33617  13.280  44.463  11.431
63737W        W33618  21.254  43.995   0.951
63738W        W33619  35.435  31.565   4.837
63739W        W33620  21.254  35.890   3.687
63740W        W33621  16.722  10.728  14.352
63741W        W33622  16.235  24.995   1.707
63742W        W33623   1.373  44.406  11.045
63743W        W33624  36.533  15.639   3.712
63744W        W33625  37.483  12.849   1.704
63745W        W33626  24.554  22.717   4.220
63746W        W33627  18.251   3.306   1.855
63747W        W33628  37.961   6.208  10.983
63748W        W33629  40.800  31.142   0.285
63749W        W33630  18.079  13.238  13.390
63750W        W33631  42.786  20.091   3.346
63751W        W33632  35.970  44.775   0.364
63752W        W33633  23.518  32.609   4.662
63753W        W33634  21.568  14.191   3.160
63754W        W33635   0.928  20.611   3.734
63755W        W33636  44.433  32.482  12.911
63756W        W33637  38.402  25.183   0.327
63757W        W33638  38.856   1.816  12.538
63758W        W33639   5.355  26.172  11.053
63759W        W33640  36.383  36.435   1.926
63760W        W33641  13.283  42.795  10.102
63761W        W33642  30.583   7.856  11.542
63762W        W33643  33.947  16.802   2.702
63763W        W33644  30.025   6.702   1.252
63764W        W33645  28.178  12.361  10.922
63765W        W33646  10.864   7.703  11.091
63766W        W33647   8.355   4.208  13.828
63767W        W33648   2.318  22.141  13.914
63768W        W33649   6.214  25.540  12.993
63769W        W33650   6.265  30.612  10.050
63770W        W33651  25.544  30.569   4.675
63771W        W33652   5.773  30.498   2.352
63772W        W33653  18.744   1.406   0.313
63773W        W33654  18.274   1.742  11.531
63774W        W33655  34.474  13.286  11.856
63775W        W33656  13.806  44.877  10.470
63776W        W33657  13.781  22.150  14.357
63777W        W33658  21.092   1.933  13.460
63778W        W33659   1.288  20.214   0.403
63779W        W33660  36.552   7.798   0.922
63780W        W33661  36.438  24.672  13.457
63781W        W33662   1.338   2.415  14.768
63782W        W33663   3.847  20.547  14.024
63783W        W33664  10.315  12.236   4.790
63784W        W33665   2.416   8.239   1.863
63785W        W33666  35.574  34.525   1.353
63786W        W33667  18.232  23.636   1.786
63787W        W33668  43.479  30.445  10.488
63788W        W33669  36.095  41.403   3.867
63789W        W33670  29.634  26.551  10.560
63790W        W33671   3.737  37.349   0.370
63791W        W33672  43.813  39.057  14.862
63792W        W33673   8.803   3.420   2.304
63793W        W33674  30.031  23.710   4.215
63794W        W33675  25.209  41.836   2.381
63795W        W33676  12.664  19.044   0.359
63796W        W33677  44.834  24.501   0.923
63797W        W33678   3.780   0.830   1.433
63798W        W33679  24.570  13.128  10.619
63799W        W33680  35.885  12.618   0.933
63800W        W33681   1.961  34.107   0.309
63801W        W33682  42.397  44.319  13.483
63802W        W33683  16.584  24.075   1.822
63803W        W33684  38.561   0.330  14.419
63804W        W33685  34.971  40.953   0.807
63805W        W33686  44.849  29.150  14.917
63806W        W33687  42.461   6.250  14.389
63807W        W33688  30.650  32.441   1.358
63808W        W33689  30.064  17.212  11.906
63809W        W33690  39.981  39.416   3.211
63810W        W33691   0.774  26.650  10.613
63811W        W33692  33.400  41.526  14.501
63812W        W33693  15.292   4.435   3.385
63813W        W33694  38.395   4.834   1.932
63814W        W33695  23.212  33.987  11.529
63815W        W33696  14.270  34.492  12.353
63816W        W33697  28.568  24.047  11.012
63817W        W33698  36.954  28.047  11.952
63818W        W33699  21.241  41.949   4.268
63819W        W33700  26.474  14.325  10.084
63820W        W33701  24.228  36.361   2.711
63821W        W33702  32.900  25.503   0.459
63822W        W33703  31.549  41.383   4.250
63823W        W33704  14.272   1.889  12.429
63824W        W33705   6.375  30.928  13.431
63825W        W33706   1.748   1.261   3.838
63826W        W33707  12.827  21.603   0.783
63827W        W33708   7.902  40.935   2.322
63828W        W33709  20.762  38.537   2.210
63829W        W33710  31.526  19.252   9.628
63830W        W33711  11.800  10.193  12.555
63831W        W33712  41.384  22.703  11.078
63832W        W33713  12.214  38.428   0.776
63833W        W33714  25.585  34.972   4.305
63834W        W33715  17.253  40.461   2.824
63835W        W33716   1.478  30.568  14.931
63836W        W33717  12.321  18.569  10.471
63837W        W33718  25.603  42.367   3.256
63838W        W33719  10.259   6.329   4.346
63839W        W33720  23.231  10.316  10.584
63840W        W33721  26.460  34.930  14.776
63841W        W33722   6.758   9.216  12.828
63842W        W33723   9.841  10.649   1.228
63843W        W33724  43.898  24.538   4.246
63844W        W33725  14.264  42.909   0.412
63845W        W33726   9.284  37.429   0.243
63846W        W33727   1.241  38.931   0.926
63847W        W33728  38.396  31.945  10.589
63848W        W33729  43.799  43.294  11.954
63849W        W33730  38.027  24.505  14.431
63850W        W33731  19.637  15.643  13.322
63851W        W33732  18.263  19.237   1.431
63852W        W33733  23.237   7.846   0.821
63853W        W33734  25.060  23.592   0.262
63854W        W33735  16.162  42.477   0.322
63855W        W33736  42.448  15.234  12.884
63856W        W33737  19.751   6.183   3.752
63857W        W33738  35.008  17.253   4.762
63858W        W33739  19.701   7.345  11.981
63859W        W33740  23.525  38.874   3.178
63860W        W33741  18.620  11.181  11.469
63861W        W33742   6.326  41.506   4.699
63862W        W33743   5.885  20.231  11.126
63863W        W33744  28.596  32.489   0.809
63864W        W33745  37.458   0.429   2.668
63865W        W33746   6.732  22.666  14.891
63866W        W33747  26.534  24.500   3.760
63867W        W33748  30.958   1.447   2.208
63868W        W33749  24.507  34.998  14.990
63869W        W33750  38.468  27.108  12.028
63870W        W33751  34.550  20.686   2.186
63871W        W33752  41.304  17.589  13.976
63872W        W33753   7.697   6.880   4.792
63873W        W33754  40.046  13.162   0.290
63874W        W33755   8.726  23.560   4.136
63875W        W33756  39.526   7.668   2.689
63876W        W33757   0.913   4.420  11.868
63877W        W33758  17.248  32.114  12.075
63878W        W33759  39.021  36.577  12.914
63879W        W33760  40.021  28.929   0.393
63880W        W33761   1.324  21.165  11.452
63881W        W33762  28.946  38.550   1.415
63882W        W33763  34.373  38.505   1.250
63883W        W33764  11.827  20.534  13.370
63884W        W33765  12.200  42.778  11.502
63885W        W33766   6.378  21.252  10.443
63886W        W33767  32.460   8.404  13.529
63887W        W33768  11.765  42.300  10.023
63888W        W33769   1.350  32.560  13.970
63889W        W33770  31.648   7.365  11.059
63890W        W33771  31.406   5.735  11.972
63891W        W33772  17.767   7.747   0.357
63892W        W33773  18.602  30.425   5.253
63893W        W33774   3.429  18.275   1.859
63894W        W33775  16.218  42.384  10.899
63895W        W33776  28.180  25.174   4.203
63896W        W33777   8.761  25.481   0.290
63897W        W33778   2.455  16.113  13.383
63898W        W33779  18.611   5.778  10.462
63899W        W33780  29.006  41.017   1.900
63900W        W33781  20.029  27.074   3.716
63901W        W33782  27.154  32.051   0.404
63902W        W33783  16.698   6.325  13.983
63903W        W33784  21.217  14.115  12.866
63904W        W33785  10.274  27.559  11.523
63905W        W33786   4.821  36.039   1.297
63906W        W33787  23.131   0.336   2.850
63907W        W33788   1.426  43.316  13.340
63908W        W33789  20.212  37.559   0.921
63909W        W33790  36.986   1.321   1.239
63910W        W33791  29.111  42.936   4.716
63911W        W33792   8.194  30.420  11.015
63912W        W33793  15.324  15.789  13.331
63913W        W33794  22.570  37.450   3.735
63914W        W33795  32.531  44.283   4.326
63915W        W33796   4.212  34.467  10.479
63916W        W33797  42.003   3.384   2.282
63917W        W33798  26.997  25.665  11.061
63918W        W33799  22.550  12.261  11.399
63919W        W33800  34.592  16.271   2.897
63920W        W33801  12.741   1.462   2.317
63921W        W33802  13.129  27.002   3.178
63922W        W33803   6.361  42.917   0.403
63923W        W33804   2.436  20.170  14.889
63924W        W33805  26.633  31.049  11.932
63925W        W33806   6.245  37.034  14.954
63926W        W33807  40.839  25.694   1.919
63927W        W33808  15.156  40.354   2.750
63928W        W33809  39.414  21.524  10.965
63929W        W33810  37.378  26.072  10.931
63930W        W33811   7.378  13.258  13.426
63931W        W33812  20.033  15.584   4.310
63932W        W33813   2.945  17.198   4.237
63933W        W33814  15.104  32.918   4.598
63934W        W33815   9.394  11.627  10.471
63935W        W33816   1.465  10.705  13.533
63936W        W33817  22.177  38.443  13.470
63937W        W33818  35.600  10.734  14.312
63938W        W33819  18.134  15.161   3.238
63939W        W33820  24.064  43.291   0.857
63940W        W33821  13.112   3.227   1.893
63941W        W33822  19.066   3.852   1.765
63942W        W33823   0.298   4.317  13.878
63943W        W33824   7.800  43.797   1.834
63944W        W33825  27.627  31.145   3.739
63945W        W33826   4.712  14.195  10.550
63946W        W33827  34.427  42.839   3.350
63947W        W33828  30.010  41.952   1.717
63948W        W33829  17.153  43.939  14.474
63949W        W33830  21.080   0.467   2.337
63950W        W33831  15.606  17.582  11.372
63951W        W33832   7.869  23.160   3.762
63952W        W33833  30.565  34.595  14.449
63953W        W33834   0.778   8.306   0.737
63954W        W33835  15.707  30.949  12.827
63955W        W33836  27.146  43.909   2.258
63956W        W33837  27.593  29.175  13.811
63957W        W33838  19.118   3.378  12.459
63958W        W33839  18.231  44.296   0.792
63959W        W33840   5.263  25.557  11.378
63960W        W33841   1.273  13.175  12.029
63961W        W33842  22.167   8.308  10.452
63962W        W33843   4.334  44.875   3.846
63963W        W33844  36.997  26.634   1.422
63964W        W33845  26.584   5.321   2.894
63965W        W33846  19.652  29.552   5.095
63966W        W33847   4.943  23.224   0.937
63967W        W33848  42.000  12.703  10.595
63968W        W33849   2.792  36.968  11.932
63969W        W33850  42.373  13.621   3.797
63970W        W33851   7.189  16.204   4.176
63971W        W33852  44.972  25.031   0.887
63972W        W33853   1.346  33.520   3.676
63973W        W33854   9.693  32.544   3.221
63974W        W33855  20.672  21.241  12.040
63975W        W33856   9.221  40.877   1.821
63976W        W33857  38.876  12.768  14.418
63977W        W33858  32.403  30.982  11.913
63978W        W33859   4.381   5.901  10.440
63979W        W33860   0.292  19.266   0.385
63980W        W33861  29.978  31.568   1.855
63981W        W33862   7.188  36.364  12.380
63982W        W33863  35.425  30.020  11.064
63983W        W33864  42.470  20.532  14.844
63984W        W33865  34.570  35.068   1.230
63985W        W33866  15.703  30.106   2.404
63986W        W33867  25.514  39.352   2.216
63987W        W33868   7.368  28.054   2.328
63988W        W33869  24.088  44.314  10.411
63989W        W33870  15.088  32.909  11.863
63990W        W33871  11.856  37.447  14.419
63991W        W33872  33.442  24.208  14.855
63992W        W33873   8.194  40.401  14.291
63993W        W33874  27.989   4.321  13.940
63994W        W33875  34.978  32.019  10.513
63995W        W33876  26.197  28.081   0.793
63996W        W33877  39.542  29.147   3.221
63997W        W33878   4.360  22.105   3.230
63998W        W33879  16.314  23.071   2.835
63999W        W33880  21.223  30.443  11.919
64000W        W33881  14.297   3.917   3.299
64001W        W33882  11.675   1.430   3.845
64002W        W33883  18.195  20.233   1.894
64003W        W33884  34.422  40.441   4.716
64004W        W33885  21.550  26.627  11.460
64005W        W33886  27.563  38.051   0.409
64006W        W33887  44.339  16.667   4.796
64007W        W33888  15.813  12.850  10.435
64008W        W33889  34.563   4.369   1.785
64009W        W33890  35.099  25.652  12.567
64010W        W33891   9.183  13.822  10.559
64011W        W33892   3.876  34.518   2.797
64012W        W33893  33.922  38.865  14.381
64013W        W33894  29.449   7.877  10.482
64014W        W33895  23.574  28.025   3.652
64015W        W33896  35.371   2.936  11.499
64016W        W33897  16.680   6.237   1.903
64017W        W33898  20.088  43.962  11.020
64018W        W33899  41.331  40.496  12.885
64019W        W33900  22.590   4.861   4.787
64020W        W33901  32.435   4.336   0.323
64021W        W33902  25.028  32.518   3.867
64022W        W33903  12.128  37.973  13.478
64023W        W33904   5.262  28.599   1.870
64024W        W33905  26.065  24.181  14.815
64025W        W33906  39.884  30.527  13.929
64026W        W33907  22.653   1.272  13.911
64027W        W33908  30.473  39.912  12.486
64028W        W33909  25.123  35.451  14.784
64029W        W33910  23.158   3.936   4.683
64030W        W33911   5.793   1.358  13.390
64031W        W33912  10.335  15.693  12.551
64032W        W33913  32.475  11.756  10.887
64033W        W33914   1.933   6.350   4.220
64034W        W33915  17.612  28.586   1.375
64035W        W33916  11.150  30.434  13.381
64036W        W33917   9.831   4.864   2.684
64037W        W33918  21.635  13.756   2.261
64038W        W33919  24.189  13.150   3.297
64039W        W33920  14.176  22.172  12.349
64040W        W33921  19.223  38.000  11.514
64041W        W33922  17.246  36.399  14.361
64042W        W33923  14.216  25.152   3.272
64043W        W33924  16.785   4.723   3.311
64044W        W33925  32.988  17.298  11.015
64045W        W33926  26.120  34.607  14.982
64046W        W33927  21.024  27.462   4.605
64047W        W33928  36.512  41.352  11.412
64048W        W33929  11.129  37.410   2.866
64049W        W33930  39.413   1.442   1.374
64050W        W33931  17.197  20.082  14.773
64051W        W33932  25.623  15.775  12.912
64052W        W33933  37.052   7.245  12.380
64053W        W33934  10.284  17.246  14.288
64054W        W33935  17.730  26.148   2.409
64055W        W33936  25.214   9.376   2.846
64056W        W33937  31.616  30.109   1.431
64057W        W33938  44.782  24.490   2.825
64058W        W33939  40.911  15.728   4.828
64059W        W33940  30.463  12.825   2.765
64060W        W33941  29.097   9.297   0.784
64061W        W33942  21.723  26.110   0.477
64062W        W33943  44.979  12.160   2.181
64063W        W33944   8.695  16.575  13.794
64064W        W33945  15.728  40.397  11.506
64065W        W33946  41.794  33.025   4.833
64066W        W33947   0.909  41.525   0.445
64067W        W33948  17.725   9.691  10.954
64068W        W33949  17.626  24.002   0.875
64069W        W33950  32.393  28.498  13.912
64070W        W33951   2.752  10.157   4.659
64071W        W33952  21.216  34.459  11.461
64072W        W33953  38.530  14.735   2.805
64073W        W33954  23.556  34.007   1.327
64074W        W33955   8.193  41.991  13.444
64075W        W33956  35.594  40.540  12.542
64076W        W33957  42.416  19.544  13.996
64077W        W33958   7.314  36.907  10.632
64078W        W33959  29.082  44.442   3.683
64079W        W33960  26.683  42.424   3.798
64080W        W33961  25.017  31.458  11.564
64081W        W33962  28.677  33.944  14.294
64082W        W33963  11.632   4.389   4.328
64083W        W33964  42.475   5.792  11.408
64084W        W33965   0.405  41.791   4.748
64085W        W33966  11.186   1.253   3.258
64086W        W33967  28.119  18.201  11.053
64087W        W33968  27.036  21.751   0.424
64088W        W33969   3.245  12.306  13.395
64089W        W33970  23.521   5.692   2.723
64090W        W33971  27.675  40.317  10.533
64091W        W33972  18.608  11.811  11.912
64092W        W33973  22.733  35.440  10.993
64093W        W33974  18.678   9.326  11.097
64094W        W33975  21.659  23.679  14.889
64095W        W33976  40.825   5.364   4.826
64096W        W33977  26.101   8.826   0.245
64097W        W33978  20.566  39.454  13.361
64098W        W33979  44.424  11.645  12.905
64099W        W33980  11.295  27.521   9.676
64100W        W33981   2.947  33.540   0.759
64101W        W33982   0.362   4.431  14.924
64102W        W33983   4.747  42.508  13.354
64103W        W33984  25.972  14.119   4.245
64104W        W33985  30.104  34.403  11.551
64105W        W33986   1.317  35.388   0.886
64106W        W33987   4.741  28.519  12.063
64107W        W33988  29.044  26.034  14.481
64108W        W33989   8.699  20.097   3.296
64109W        W33990  32.402  41.827   4.301
64110W        W33991  15.321  28.068  11.547
64111W        W33992  40.019  36.906  10.632
64112W        W33993  12.795  15.166   4.230
64113W        W33994  13.240  39.323  13.386
64114W        W33995   5.692   0.445  14.785
64115W        W33996   3.746   1.880  14.986
64116W        W33997  13.769  37.509  12.490
64117W        W33998  30.929  12.137   3.759
64118W        W33999  23.671  22.034  11.981
64119W        W34000  28.597  32.922  11.066
64120W        W34001  13.744  40.536   1.244
64121W        W34002  31.053  17.581   4.622
64122W        W34003   1.763  24.720  14.448
64123W        W34004  21.750   8.388   1.713
64124W        W34005  16.093  30.512   1.394
64125W        W34006  16.312  39.845   2.208
64126W        W34007  24.554  39.485  13.811
64127W        W34008   4.729  36.414  13.374
64128W        W34009  33.467  10.210  11.106
64129W        W34010  32.527  23.200  11.120
64130W        W34011  35.092  39.485   0.804
64131W        W34012  19.241  28.079  13.021
64132W        W34013   3.921  38.388   0.830
64133W        W34014  32.613  44.904  10.599
64134W        W34015  44.479  25.606  14.276
64135W        W34016  17.562  20.056  11.402
64136W        W34017  24.146  39.912   3.712
64137W        W34018  10.362  38.384  13.501
64138W        W34019  43.951  20.179  12.898
64139W        W34020  22.117  16.260   4.810
64140W        W34021  41.431  13.225   0.819
64141W        W34022  39.992  12.328   3.258
64142W        W34023  31.923  20.151  10.521
64143W        W34024  18.056  28.071   3.270
64144W        W34025  34.462   5.318  14.439
64145W        W34026  24.098  27.481  11.482
64146W        W34027   1.398  16.080  13.367
64147W        W34028  25.491   6.707  13.026
64148W        W34029  16.086  29.561   0.851
64149W        W34030   9.789  18.187   5.278
64150W        W34031  23.662   5.752   0.250
64151W        W34032  18.665  40.914  10.991
64152W        W34033  26.012  10.702  11.116
64153W        W34034  11.371  39.488   3.746
64154W        W34035  15.790   2.762  13.927
64155W        W34036  43.768   6.428   3.227
64156W        W34037   6.829  31.572   0.836
64157W        W34038  31.996  22.730   0.410
64158W        W34039  11.186  16.681  12.500
64159W        W34040  39.046  23.169  11.431
64160W        W34041   9.340  21.176   0.905
64161W        W34042   6.846  38.452  12.060
64162W        W34043   2.950  31.509   1.374
64163W        W34044  41.982  44.436   0.952
64164W        W34045   2.424  14.293   3.346
64165W        W34046  24.696   6.891   4.702
64166W        W34047  29.074   6.272   0.780
64167W        W34048  42.291  20.712   0.313
64168W        W34049  20.242  33.992   4.320
64169W        W34050  35.474  39.557   1.883
64170W        W34051  17.603   3.923   2.853
64171W        W34052   8.267  32.911   4.130
64172W        W34053  26.669  34.001  10.488
64173W        W34054  29.969  21.555  14.843
64174W        W34055  14.116   2.906   1.228
64175W        W34056  41.451  10.234  10.034
64176W        W34057   0.291  22.689   0.938
64177W        W34058  26.525  21.617   1.426
64178W        W34059  42.923  44.346  13.914
64179W        W34060  40.452  21.632   2.182
64180W        W34061  39.038  44.349   1.329
64181W        W34062   4.444  23.634   2.832
64182W        W34063  25.046   3.383  13.971
64183W        W34064  26.152  28.569   0.254
64184W        W34065  26.698  33.568   1.739
64185W        W34066  28.142  20.250  13.451
64186W        W34067   9.734  18.242  12.479
64187W        W34068  34.903  22.527   1.773
64188W        W34069  14.118  44.984   1.819
64189W        W34070  22.188  28.082   4.264
64190W        W34071  23.652  24.038   1.707
64191W        W34072  30.048  43.281   0.961
64192W        W34073  19.776  12.786  10.466
64193W        W34074  42.323  17.728  14.017
64194W        W34075  23.986  20.694  11.888
64195W        W34076  44.352  35.587   3.778
64196W        W34077  10.329  37.361   3.653
64197W        W34078   5.710  27.191   1.789
64198W        W34079  14.182  37.928  12.389
64199W        W34080  22.214  23.685   0.284
64200W        W34081  17.205  29.450  13.892
64201W        W34082  19.109   4.889  11.569
64202W        W34083  21.540  19.264   1.832
64203W        W34084  11.824  37.529  12.064
64204W        W34085  26.489  35.529  14.447
64205W        W34086  15.239  29.534   1.381
64206W        W34087   6.888  40.821   2.359
64207W        W34088  17.233  32.086   3.790
64208W        W34089  35.595  34.926   4.262
64209W        W34090  42.364  32.121   1.354
64210W        W34091   4.712  44.415  14.985
64211W        W34092  43.505  31.023  11.942
64212W        W34093  35.456  12.356   4.785
64213W        W34094  28.111   7.257   0.374
64214W        W34095  21.150  12.852  14.776
64215W        W34096  42.911  20.057  13.800
64216W        W34097  25.692  21.666   2.181
64217W        W34098  35.096   2.724  13.973
64218W        W34099  41.827  12.159   4.749
64219W        W34100  44.932  15.688   3.839
64220W        W34101   6.780  37.548   0.800
64221W        W34102  38.887  43.777   9.925
64222W        W34103  10.693  30.996   3.188
64223W        W34104  30.983   9.207  14.828
64224W        W34105  39.956  16.811   2.283
64225W        W34106  33.435  28.558  12.361
64226W        W34107  20.070  22.653   9.978
64227W        W34108   6.858  17.222  10.612
64228W        W34109  37.493   7.292   1.332
64229W        W34110  20.642  23.217  11.886
64230W        W34111  28.580  42.797  11.919
64231W        W34112  30.485  24.644  13.061
64232W        W34113  31.999  17.741  12.919
64233W        W34114  29.085  44.930   2.679
64234W        W34115  27.598  28.507   3.650
64235W        W34116  36.497   5.761   0.417
64236W        W34117  11.656  32.413  10.921
64237W        W34118  40.842  21.232   0.276
64238W        W34119  24.027  11.355  10.567
64239W        W34120   9.657  43.333   3.236
64240W        W34121   4.270   6.778  14.375
64241W        W34122  36.041  40.478  10.898
64242W        W34123  33.121  40.831  11.371
64243W        W34124  33.946  42.292   1.323
64244W        W34125  28.119   2.802   0.251
64245W        W34126  19.638  11.211   2.191
64246W        W34127   4.279  28.183  11.035
64247W        W34128   5.314  27.657  11.970
64248W        W34129   8.261  13.143   0.821
64249W        W34130  11.655  11.144  14.427
64250W        W34131  21.028  10.331   1.214
64251W        W34132  25.089  44.928  12.486
64252W        W34133  32.073   6.336  13.953
64253W        W34134  20.663  17.111  13.319
64254W        W34135   5.772  26.134  11.993
64255W        W34136   2.881   6.810  14.777
64256W        W34137  26.180  27.103  13.990
64257W        W34138  29.925  35.951   2.334
64258W        W34139   0.341  26.067   1.850
64259W        W34140  18.743  15.778  10.101
64260W        W34141  36.523  16.095   0.483
64261W        W34142  36.547  19.737  14.869
64262W        W34143  16.695  44.942   4.326
64263W        W34144  44.367  42.936  12.930
64264W        W34145   5.913  22.162  14.993
64265W        W34146  39.527  30.588   0.246
64266W        W34147   9.157  21.096   3.851
64267W        W34148  35.032  26.635   4.688
64268W        W34149   8.708  17.158  12.838
64269W        W34150   0.849   9.802  13.466
64270W        W34151  32.591  43.288   4.279
64271W        W34152  33.561  22.120   3.257
64272W        W34153  36.559  16.267  12.888
64273W        W34154  10.163  38.832   3.789
64274W        W34155   7.337  17.763  12.353
64275W        W34156  18.296   7.374   4.189
64276W        W34157  42.362   2.238  11.501
64277W        W34158  39.490  16.606  13.509
64278W        W34159  14.777  13.820   1.274
64279W        W34160  34.008   0.398   4.688
64280W        W34161  24.612  12.216  12.932
64281W        W34162   7.369  34.383   3.228
64282W        W34163  14.693  10.276   1.729
64283W        W34164   7.845  16.106   3.703
64284W        W34165  22.605   9.383  14.382
64285W        W34166  26.001  20.735  13.469
64286W        W34167  11.723  31.519   1.824
64287W        W34168  13.318  32.983  12.836
64288W        W34169  16.776   6.771   0.456
64289W        W34170  30.576   0.343   0.309
64290W        W34171  14.328  24.504  11.408
64291W        W34172  43.318  38.495  13.923
64292W        W34173   4.411  39.538   3.289
64293W        W34174   2.413   2.372  11.594
64294W        W34175  36.365  38.468   1.293
64295W        W34176   4.735  11.844  14.343
64296W        W34177  17.114  22.067  10.991
64297W        W34178  39.009  32.501  12.466
64298W        W34179  13.116  42.445  13.060
64299W        W34180  21.634  13.748  11.090
64300W        W34181  35.380  37.492   1.785
64301W        W34182  22.182   9.723  10.960
64302W        W34183  20.077  14.640   1.242
64303W        W34184  26.605   9.825   4.351
64304W        W34185  20.060  35.028   3.712
64305W        W34186  12.695  24.193  14.769
64306W        W34187  23.544  32.023   2.242
64307W        W34188   9.688   5.736   0.852
64308W        W34189  28.509  11.288   4.215
64309W        W34190  39.910  13.234   1.248
64310W        W34191   2.797  29.962  10.948
64311W        W34192  28.596   1.376   3.357
64312W        W34193  18.667  16.632   1.862
64313W        W34194  16.567  16.099   4.648
64314W        W34195  42.015  26.030  11.374
64315W        W34196  32.903  19.077  11.057
64316W        W34197  22.206  34.516  14.777
64317W        W34198  36.069   0.812   0.415
64318W        W34199  17.110  13.724   0.869
64319W        W34200  33.928   4.247   0.931
64320W        W34201  38.482   0.787  11.382
64321W        W34202  44.443   9.824   3.212
64322W        W34203  40.470  20.746  10.476
64323W        W34204   2.861  43.280  14.409
64324W        W34205  24.142  10.809  13.913
64325W        W34206  24.490  29.146  13.308
64326W        W34207  27.070  21.748  14.364
64327W        W34208  44.009  11.366   3.740
64328W        W34209  39.037  13.606  10.986
64329W        W34210  13.756  16.077  10.569
64330W        W34211  33.411  17.600   4.227
64331W        W34212  27.155  42.801   2.345
64332W        W34213   7.366  34.965  11.093
64333W        W34214   4.879  25.065   3.187
64334W        W34215  29.983  27.685  13.935
64335W        W34216   5.216  17.185  10.078
64336W        W34217  42.791  15.642  12.424
64337W        W34218  11.183  37.016   3.200
64338W        W34219  12.319   1.257  12.555
64339W        W34220  31.412  24.607   2.785
64340W        W34221  34.408  18.708   4.627
64341W        W34222   8.684  24.546  12.028
64342W        W34223  20.199  14.704  14.969
64343W        W34224  37.920  26.622  13.803
64344W        W34225   1.867  20.254  13.329
64345W        W34226  16.706   1.815  12.551
64346W        W34227  13.720  31.071  13.953
64347W        W34228  20.049  25.649   3.257
64348W        W34229  31.999  19.729  11.070
64349W        W34230  11.209  20.174  14.929
64350W        W34231  33.514  41.817  14.303
64351W        W34232   5.438  12.676   4.180
64352W        W34233  31.929  42.395   0.874
64353W        W34234  36.527   2.371   1.439
64354W        W34235   0.321  10.352  10.960
64355W        W34236  36.370  16.696   4.306
64356W        W34237   8.296   4.919  12.493
64357W        W34238  17.675  25.558  14.435
64358W        W34239  19.275  43.001   4.244
64359W        W34240  18.118  27.676  13.842
64360W        W34241   7.276   6.705   3.807
64361W        W34242   6.822   5.844  12.553
64362W        W34243   2.899  35.503   0.968
64363W        W34244   4.328  41.534  14.927
64364W        W34245   4.341  41.306  13.044
64365W        W34246  41.486  22.545   2.791
64366W        W34247  42.417  26.006   2.878
64367W        W34248  34.530  17.765   2.700
64368W        W34249   7.802  40.988  13.478
64369W        W34250  19.221  40.447  12.951
64370W        W34251  29.054  39.908   4.319
64371W        W34252   6.796  38.518   0.920
64372W        W34253   4.803   5.346   0.921
64373W        W34254  44.954  33.994   4.815
64374W        W34255  27.036   0.400  11.574
64375W        W34256   1.889  27.072   3.712
64376W        W34257   3.955  43.321  14.409
64377W        W34258   7.711  24.052   1.859
64378W        W34259   7.843   6.394   0.728
64379W        W34260  11.708  32.002   3.289
64380W        W34261  42.801  28.056  14.425
64381W        W34262  24.548  35.464   3.287
64382W        W34263  10.248  35.491   4.744
64383W        W34264  24.186  30.970  14.879
64384W        W34265  43.902  17.661   1.743
64385W        W34266  14.153   3.229   1.727
64386W        W34267  21.647  15.692  14.479
64387W        W34268  15.583  35.897  11.983
64388W        W34269  33.482  34.019   1.737
64389W        W34270   8.370   5.251   4.730
64390W        W34271  37.377   9.373   1.767
64391W        W34272   3.354  20.053   4.277
64392W        W34273  11.715  39.908   3.690
64393W        W34274  21.183   5.374  13.454
64394W        W34275  17.607  29.559  11.887
64395W        W34276  36.400  27.104   3.266
64396W        W34277  35.076  11.338  13.814
64397W        W34278  26.605  32.031  12.424
64398W        W34279   2.773  38.822   4.200
64399W        W34280  29.149   3.337   0.823
64400W        W34281   8.691  41.440   2.194
64401W        W34282  16.569   2.920  11.069
64402W        W34283   3.837  12.186  14.448
64403W        W34284  28.642   1.920   1.217
64404W        W34285  43.403  35.966   1.715
64405W        W34286  34.408  26.134   2.191
64406W        W34287  18.779  41.315  11.056
64407W        W34288  17.737  22.230  13.517
64408W        W34289   9.194  40.988  11.514
64409W        W34290  12.657  42.294   3.263
64410W        W34291  42.936  28.511  14.014
64411W        W34292   7.732  14.213  12.830
64412W        W34293  23.075  21.163  12.580
64413W        W34294   1.942  27.951  11.528
64414W        W34295   2.430  14.182  10.014
64415W        W34296  12.793   9.858  12.485
64416W        W34297  14.698  38.563   3.663
64417W        W34298   4.790  29.665   3.787
64418W        W34299  16.077  35.991   3.867
64419W        W34300  13.346  22.031  13.460
64420W        W34301   3.906  16.631  13.519
64421W        W34302  30.658  28.166  11.983
64422W        W34303  23.556  13.650  12.894
64423W        W34304   2.327  14.300   2.344
64424W        W34305  27.606   3.947  11.117
64425W        W34306  38.828   8.375   4.352
64426W        W34307   1.946  32.597   4.599
64427W        W34308  27.943  33.067   4.619
64428W        W34309   3.761  20.238  10.909
64429W        W34310  19.235  34.372   4.147
64430W        W34311   8.387  15.123  13.373
64431W        W34312  30.625  15.118  12.428
64432W        W34313  40.357  14.196  13.432
64433W        W34314  21.627  22.083  12.826
64434W        W34315  25.978   2.744   4.246
64435W        W34316  25.002  33.439   4.642
64436W        W34317  28.955  22.670   2.785
64437W        W34318  17.103  39.938  12.997
64438W        W34319  40.885  33.057   2.217
64439W        W34320  24.126  31.128   1.819
64440W        W34321  37.426  43.330  13.972
64441W        W34322  23.686   8.202  12.873
64442W        W34323   5.360  42.885  14.377
64443W        W34324   9.747  28.641   1.935
64444W        W34325  16.693  17.216   4.289
64445W        W34326   2.306  38.918  11.557
64446W        W34327   0.836   0.344  10.996
64447W        W34328  31.469  30.453   2.247
64448W        W34329  15.255  40.048  13.361
64449W        W34330   8.258  36.880   3.296
64450W        W34331  23.615  44.327   1.933
64451W        W34332   9.737   1.753   1.232
64452W        W34333   3.272  31.610   3.241
64453W        W34334  15.199  22.091   3.757
64454W        W34335   4.277  36.924   0.348
64455W        W34336  14.338  16.613  13.392
64456W        W34337   6.266  41.525  13.381
64457W        W34338   2.721   4.246  11.388
64458W        W34339  12.699   7.673  11.547
64459W        W34340  28.958  25.081   1.400
64460W        W34341  31.151  16.291   2.249
64461W        W34342   4.898  22.218  10.443
64462W        W34343  25.173   4.868   0.289
64463W        W34344  16.250  42.527   2.717
64464W        W34345   9.823   5.202  12.069
64465W        W34346   0.453   1.442  13.352
64466W        W34347   1.817  43.287  14.026
64467W        W34348  17.719  40.848   4.238
64468W        W34349  13.161   3.452   0.341
64469W        W34350  29.073  26.152   4.282
64470W        W34351  31.932  39.045  10.541
64471W        W34352   9.261  28.163   1.363
64472W        W34353  14.751  22.997  14.818
64473W        W34354  32.082  33.982   3.809
64474W        W34355  33.537  10.793  14.959
64475W        W34356  22.689  34.566  14.771
64476W        W34357  39.996  13.184  11.472
64477W        W34358  11.770  23.178  13.814
64478W        W34359  15.255   9.241  14.824
64479W        W34360  18.091  19.147   4.732
64480W        W34361  44.278   4.839   1.368
64481W        W34362  13.252   9.390  13.062
64482W        W34363  38.851  21.049   2.766
64483W        W34364  21.103  19.120  13.890
64484W        W34365   4.831   7.359  11.931
64485W        W34366  11.775  34.959  11.979
64486W        W34367  27.631  11.683   3.820
64487W        W34368  19.185  32.113  10.920
64488W        W34369  25.646  22.674   4.654
64489W        W34370  19.714  19.125   2.860
64490W        W34371   5.794  33.130  13.909
64491W        W34372  28.997  42.858   0.397
64492W        W34373   5.830  14.239  14.312
64493W        W34374  25.535   9.696  12.081
64494W        W34375  19.094   7.363  12.094
64495W        W34376  40.922   5.293  13.877
64496W        W34377  43.415  14.150  14.816
64497W        W34378  31.525   3.873   4.204
64498W        W34379  31.100  25.153   1.814
64499W        W34380  26.088  43.860  11.980
64500W        W34381  17.071  38.397  10.499
64501W        W34382  17.134  38.023   4.126
64502W        W34383  35.969  20.056   0.911
64503W        W34384  26.086  21.175  13.336
64504W        W34385  32.936   1.251  14.346
64505W        W34386  27.195  18.166  12.922
64506W        W34387  27.575  37.575  13.867
64507W        W34388  40.331  42.424  12.538
64508W        W34389  22.644  18.081   0.935
64509W        W34390  18.265  43.955   1.219
64510W        W34391   3.443  25.666  14.925
64511W        W34392   2.311   1.924   0.750
64512W        W34393  14.334  42.949  10.540
64513W        W34394  11.315   0.359   2.217
64514W        W34395  19.120   8.742  13.369
64515W        W34396  25.651  22.613  11.517
64516W        W34397  33.978  16.236  12.934
64517W        W34398   4.867  30.063  11.997
64518W        W34399  10.731  21.168   3.384
64519W        W34400  40.538   5.415   3.181
64520W        W34401   8.231  36.095   2.766
64521W        W34402  33.381  31.109   2.787
64522W        W34403   5.423   9.388  10.972
64523W        W34404   7.690  33.526  12.083
64524W        W34405  44.448   6.781  14.297
64525W        W34406  43.984  14.649  13.472
64526W        W34407  40.416   1.837  13.841
64527W        W34408  41.427  10.684  12.879
64528W        W34409   0.336  35.105  13.040
64529W        W34410   9.375  21.087   2.779
64530W        W34411   4.862  15.083   3.357
64531W        W34412  36.077  38.540  13.883
64532W        W34413  16.247  17.673  11.419
64533W        W34414  25.533  12.214   3.285
64534W        W34415  41.791  18.741  11.388
64535W        W34416  35.889  25.695   2.764
64536W        W34417  19.135  36.898   2.236
64537W        W34418  32.398  15.209   4.742
64538W        W34419  23.717  31.603   3.353
64539W        W34420  30.078  42.913  13.511
64540W        W34421  27.952   6.885  13.892
64541W        W34422  12.717   5.839   4.241
64542W        W34423  15.272  22.510   4.733
64543W        W34424  39.528  32.467   0.307
64544W        W34425  37.532  31.593  10.584
64545W        W34426  36.589  40.906   1.447
64546W        W34427  39.025   8.234   0.278
64547W        W34428  33.112   7.203  11.385
64548W        W34429  15.100  42.936  12.486
64549W        W34430  14.299  39.478  12.047
64550W        W34431  16.629   0.947  10.931
64551W        W34432  39.374   4.913  11.984
64552W        W34433   3.365  13.191   1.871
64553W        W34434   6.422   5.891  13.445
64554W        W34435  33.028  20.042   1.238
64555W        W34436  28.492  37.467   2.398
64556W        W34437   5.399  10.729   4.343
64557W        W34438  14.127  16.258   4.758
64558W        W34439  13.192  33.454  10.065
64559W        W34440  39.842  29.082  12.346
64560W        W34441  17.605  19.197   2.858
64561W        W34442  20.186  23.652   0.855
64562W        W34443   6.913   0.875  12.426
64563W        W34444  33.398  30.115  10.426
64564W        W34445   6.268   7.323   2.703
64565W        W34446   8.331  35.054  11.969
64566W        W34447  21.618   2.756   3.355
64567W        W34448  21.164  22.237  13.020
64568W        W34449  13.797  13.669   4.115
64569W        W34450  43.990  14.264   4.284
64570W        W34451   4.433  39.015  14.498
64571W        W34452  39.434  35.459   3.736
64572W        W34453  37.501  26.500   5.229
64573W        W34454  10.311   3.439  13.011
64574W        W34455   4.423  24.128   3.203
64575W        W34456  12.228  24.057  12.827
64576W        W34457  10.328  40.041  11.384
64577W        W34458  34.969  23.519   2.206
64578W        W34459  42.794  39.521  11.991
64579W        W34460  20.050  13.706  13.945
64580W        W34461   4.246  34.489  12.360
64581W        W34462  21.136  33.077   2.279
64582W        W34463  21.250  10.374  11.001
64583W        W34464  10.872  28.017   1.333
64584W        W34465  43.934  11.206   2.872
64585W        W34466  38.933   5.872  11.908
64586W        W34467   1.280   1.973  10.489
64587W        W34468   3.778  33.988   3.294
64588W        W34469  23.232  38.040  10.918
64589W        W34470  14.626  13.298   1.697
64590W        W34471  35.554  32.907   3.258
64591W        W34472   4.831  28.079   1.807
64592W        W34473  10.265  22.112  10.939
64593W        W34474   3.461  42.852   2.289
64594W        W34475  39.967  12.253   1.899
64595W        W34476   7.313  16.313   1.896
64596W        W34477  36.931  25.037   1.846
64597W        W34478  28.093  10.320   1.776
64598W        W34479  40.510  25.602  12.405
64599W        W34480  36.366  19.054  11.092
64600W        W34481   3.320  33.398  10.887
64601W        W34482  12.638  25.532  14.471
64602W        W34483  39.887  37.575   0.882
64603W        W34484  13.261  44.345  14.865
64604W        W34485  37.859   0.813  11.010
64605W        W34486  21.580  42.503  14.297
64606W        W34487  31.037  19.658  14.770
64607W        W34488  13.747  10.753  11.077
64608W        W34489  42.992  18.623   2.206
64609W        W34490  41.414  35.038  11.604
64610W        W34491  20.199  42.347  12.940
64611W        W34492   9.870  15.145  14.775
64612W        W34493  27.498   7.311   4.142
64613W        W34494  44.963  30.565  11.491
64614W        W34495  33.047  39.843   4.626
64615W        W34496   7.251   6.260  14.430
64616W        W34497  38.911  22.058  11.040
64617W        W34498  19.566   3.847   4.150
64618W        W34499  43.838   3.808  13.917
64619W        W34500  29.990   8.304   2.829
64620W        W34501  20.211   8.686   3.637
64621W        W34502  29.457  35.597  13.963
64622W        W34503   8.206  15.738  13.963
64623W        W34504   4.859  19.704  13.327
64624W        W34505  19.098  23.515   1.426
64625W        W34506  17.631  38.970   1.279
64626W        W34507  35.075   8.394   4.180
64627W        W34508  28.109  36.954  12.527
64628W        W34509   0.820  34.895   2.304
64629W        W34510  15.721  40.386   1.889
64630W        W34511   2.905   8.266   0.245
64631W        W34512  27.177   8.695   2.721
64632W        W34513  19.726  26.641   3.321
64633W        W34514  11.140   6.423  10.889
64634W        W34515  44.962   5.848  12.441
64635W        W34516  39.365   5.702   1.818
64636W        W34517  16.593   4.748  10.571
64637W        W34518  25.990  13.199  11.599
64638W        W34519  18.582  21.151   5.296
64639W        W34520  34.940  43.340  11.598
64640W        W34521  38.883  20.641   1.752
64641W        W34522   3.820  43.469   0.309
64642W        W34523  24.195  29.462  10.440
64643W        W34524  31.592  19.075   0.343
64644W        W34525  17.125  17.770   4.136
64645W        W34526  30.604  37.566  11.088
64646W        W34527  32.623  36.993  12.044
64647W        W34528  16.146  35.448   0.410
64648W        W34529   0.425  15.736   2.880
64649W        W34530  37.438  44.299   1.814
64650W        W34531  43.926   2.876  13.033
64651W        W34532  44.852  42.860  11.958
64652W        W34533  30.619  36.030  10.515
64653W        W34534   0.777  10.269  11.120
64654W        W34535  18.232  22.743  11.015
64655W        W34536  12.126  10.286  12.011
64656W        W34537  32.072  18.625   3.808
64657W        W34538  19.625  15.820   1.231
64658W        W34539  10.727  44.369   4.730
64659W        W34540   7.783  25.086   4.341
64660W        W34541  37.064  41.449  10.617
64661W        W34542  32.488  39.515  12.447
64662W        W34543  24.651   9.247   0.334
64663W        W34544   1.292  31.066  13.911
64664W        W34545   5.874  21.620   4.637
64665W        W34546  34.390  39.325   1.396
64666W        W34547   0.292   5.332  11.910
64667W        W34548  41.917  35.399   3.641
64668W        W34549   3.354   1.392   3.754
64669W        W34550  30.507  12.180  11.607
64670W        W34551  24.017  11.740   0.480
64671W        W34552  19.548  39.032  14.981
64672W        W34553  16.759  24.191  11.939
64673W        W34554  18.782  39.062   2.834
64674W        W34555   8.739   9.290  12.942
64675W        W34556  40.836  44.477  10.004
64676W        W34557  18.212  29.039  13.522
64677W        W34558  32.067  34.974  10.587
64678W        W34559  43.800  23.621  14.847
64679W        W34560  15.181  25.965   4.127
64680W        W34561  22.633   6.375  14.801
64681W        W34562  16.076  20.593  11.574
64682W        W34563  36.497  29.992   2.284
64683W        W34564  26.625   8.288  12.452
64684W        W34565  38.479  40.943   4.143
64685W        W34566  12.355  19.188  13.538
64686W        W34567  11.852  22.177  11.419
64687W        W34568  28.027   1.926   9.929
64688W        W34569  43.953  21.678  12.456
64689W        W34570  11.773  22.591   0.282
64690W        W34571  43.811   4.791   1.803
64691W        W34572  40.977  42.021  12.000
64692W        W34573  40.008  30.588  13.378
64693W        W34574  30.991  36.053  14.428
64694W        W34575  29.030   2.236  13.923
64695W        W34576  14.786  19.125  12.341
64696W        W34577  37.477  23.125   3.194
64697W        W34578  16.615  43.849  12.436
64698W        W34579  26.474  21.026  12.479
64699W        W34580  20.536  40.404  10.470
64700W        W34581  34.485  16.188   4.620
64701W        W34582   1.900  28.070  10.933
64702W        W34583  29.944   7.844   1.924
64703W        W34584   6.816   8.370   1.372
64704W        W34585  31.418  27.566   3.655
64705W        W34586  12.734  28.055   4.135
64706W        W34587   8.837  11.842   2.773
64707W        W34588  27.460  25.115  11.444
64708W        W34589  43.387  26.656  14.299
64709W        W34590  20.523  12.291   3.787
64710W        W34591  44.897   1.966   2.704
64711W        W34592  25.550  40.978   1.719
64712W        W34593  25.032  44.003  13.848
64713W        W34594  28.126   5.784  13.963
64714W        W34595   4.227  32.954   0.375
64715W        W34596  27.104   8.870   3.747
64716W        W34597  43.917   6.772   3.775
64717W        W34598   9.767  11.248   0.297
64718W        W34599   5.888  26.698  14.806
64719W        W34600   8.716  15.307  11.876
64720W        W34601  32.081  33.009   0.781
64721W        W34602   3.279  21.160   4.326
64722W        W34603   6.877   1.315   1.386
64723W        W34604  41.041  38.929  14.512
64724W        W34605  13.706  10.272   2.366
64725W        W34606  25.551   6.882   1.288
64726W        W34607  29.171   8.728   3.804
64727W        W34608   7.735  27.519  13.012
64728W        W34609   7.850  16.243   4.192
64729W        W34610  33.977  31.113  10.640
64730W        W34611  19.248  10.730   2.340
64731W        W34612  19.234   6.200   4.833
64732W        W34613   7.379   7.716  11.516
64733W        W34614  27.546  14.718  10.573
64734W        W34615  24.653  12.253   3.183
64735W        W34616  31.062  33.471   4.203
64736W        W34617  19.083   2.331  13.516
64737W        W34618  25.591   1.854  12.976
64738W        W34619   4.243  32.475   4.612
64739W        W34620  15.714  35.040  12.097
64740W        W34621  16.608  17.738  13.804
64741W        W34622  27.691  20.254   4.325
64742W        W34623   3.924  30.578  12.997
64743W        W34624  30.468  13.716  14.790
64744W        W34625  39.521  41.425  13.864
64745W        W34626  37.356  43.996   2.745
64746W        W34627  37.341   0.256   4.642
64747W        W34628  11.130  37.865  10.893
64748W        W34629  25.113   3.404   3.842
64749W        W34630  38.373   7.178  10.427
64750W        W34631  33.131  28.181  10.449
64751W        W34632   1.846  13.278  13.530
64752W        W34633  25.067  20.631   1.842
64753W        W34634  18.145  24.142   0.455
64754W        W34635  28.476  38.062   0.260
64755W        W34636   0.798  28.531  12.041
64756W        W34637  26.966  37.049  12.359
64757W        W34638  21.670  13.232  11.437
64758W        W34639  16.628  41.033   1.806
64759W        W34640  30.438   9.231   1.874
64760W        W34641  28.070  37.383   9.975
64761W        W34642  39.433  16.160  11.076
64762W        W34643  18.267  33.075   4.790
64763W        W34644  35.494  39.468  13.922
64764W        W34645  23.054   0.808  10.988
64765W        W34646   2.805  22.194  13.545
64766W        W34647  19.715   8.312  13.404
64767W        W34648  24.582  24.677  12.078
64768W        W34649  16.298  38.353  10.633
64769W        W34650  16.301   8.288  12.375
64770W        W34651  18.050  29.967  14.026
64771W        W34652  31.983  29.114  14.505
64772W        W34653  42.444  10.240  10.604
64773W        W34654  22.146  39.386  11.968
64774W        W34655   3.711  28.581   2.848
64775W        W34656  20.110  27.587   0.477
64776W        W34657   7.772  32.624   0.911
64777W        W34658  27.642  21.555   1.316
64778W        W34659  19.133  18.676  11.984
64779W        W34660  14.600  14.246   3.385
64780W        W34661  28.616   5.390   0.783
64781W        W34662  32.034   5.833   3.196
64782W        W34663  31.540  43.282   0.361
64783W        W34664  29.063  16.606   1.887
64784W        W34665  24.695  19.233   4.126
64785W        W34666  14.197  39.340  11.489
64786W        W34667  15.125  19.544  12.458
64787W        W34668  11.787   5.420   0.480
64788W        W34669  17.131   3.829   1.825
64789W        W34670  10.271   3.333  10.561
64790W        W34671   0.444  11.210  12.353
64791W        W34672  22.186  23.196  14.836
64792W        W34673  24.698  21.144   1.392
64793W        W34674  38.041  40.411  11.544
64794W        W34675   2.335  28.027   4.753
64795W        W34676  42.293   9.736  13.814
64796W        W34677   1.354   0.803   0.967
64797W        W34678   6.373  11.191   2.743
64798W        W34679  28.544  34.391  13.388
64799W        W34680  35.589  22.133  11.977
64800W        W34681  18.684   4.747  11.046
64801W        W34682   3.240   9.241  11.047
64802W        W34683   6.379  24.657  10.546
64803W        W34684   1.860  26.492   2.812
64804W        W34685  36.881  25.468  12.438
64805W        W34686   0.433  26.521  13.822
64806W        W34687  37.526  35.518   4.115
64807W        W34688  21.132  29.073  14.507
64808W        W34689  25.210  28.569  11.075
64809W        W34690  20.098  37.435  13.944
64810W        W34691  18.212   9.785  10.522
64811W        W34692  11.674  18.556   4.801
64812W        W34693  24.111  14.240   3.665
64813W        W34694  25.972   8.248   1.322
64814W        W34695   6.881   8.289  10.552
64815W        W34696  20.156   4.760   3.833
64816W        W34697  20.719   4.431   4.826
64817W        W34698  21.598   6.331  12.482
64818W        W34699  16.276  21.072  11.538
64819W        W34700   2.917  16.667   2.850
64820W        W34701   4.340   3.295  14.980
64821W        W34702   4.306   8.840   2.761
64822W        W34703  34.516  16.216  12.370
64823W        W34704   8.765  44.757  10.521
64824W        W34705  20.677  34.949  12.957
64825W        W34706  36.560  42.795   1.900
64826W        W34707   6.283  28.163   3.847
64827W        W34708  34.878  12.117  13.480
64828W        W34709  21.634  43.892   9.651
64829W        W34710  18.296   6.769   3.353
64830W        W34711  32.070  18.259  10.044
64831W        W34712  17.128  36.392  13.812
64832W        W34713  12.355  13.226  13.349
64833W        W34714  22.717  14.282  12.561
64834W        W34715  29.073  31.619  13.383
64835W        W34716  35.080  14.103   3.217
64836W        W34717  34.120  11.348  12.043
64837W        W34718  15.614  12.278  13.993
64838W        W34719   6.212  33.478  11.545
64839W        W34720   6.226  39.036   3.268
64840W        W34721  13.804  36.519   0.465
64841W        W34722  24.017   8.392   4.229
64842W        W34723   4.352   9.833  12.449
64843W        W34724  40.937  25.551  10.906
64844W        W34725  31.081  27.497   0.948
64845W        W34726  11.721  13.800  14.384
64846W        W34727  32.080  32.490   3.800
64847W        W34728  18.559  33.387  14.928
64848W        W34729  23.735  12.242  10.475
64849W        W34730   6.922  37.007  12.541
64850W        W34731   6.216  33.584  10.070
64851W        W34732  42.969  20.184  11.967
64852W        W34733   2.360  27.975   3.203
64853W        W34734   8.239   7.342   3.295
64854W        W34735  36.355  22.243   3.770
64855W        W34736   6.705  42.486  13.415
64856W        W34737  23.686  26.143   1.754
64857W        W34738  33.898  41.020   1.734
64858W        W34739  12.717   5.273   1.330
64859W        W34740  38.358  24.621  11.097
64860W        W34741   7.864  26.965   0.348
64861W        W34742   7.287   9.311   3.776
64862W        W34743  18.597  12.319   4.714
64863W        W34744  37.868   9.230   0.464
64864W        W34745  22.628  12.751   4.680
64865W        W34746  24.646  22.189   0.890
64866W        W34747  19.108  34.913  10.585
64867W        W34748  25.047  40.332  11.895
64868W        W34749  22.589  27.063   2.322
64869W        W34750  28.949   4.230  12.956
64870W        W34751  32.139  31.603   1.891
64871W        W34752  21.158  17.292  12.836
64872W        W34753  12.291   1.323  13.334
64873W        W34754  42.400  42.964  11.979
64874W        W34755  35.493  41.316   1.317
64875W        W34756  36.389  17.245   1.922
64876W        W34757   5.426  23.211   3.762
64877W        W34758  25.564  27.458   0.944
64878W        W34759  35.477  19.189   1.722
64879W        W34760  14.781   4.709   2.391
64880W        W34761  23.156  43.448   2.407
64881W        W34762  32.528  10.258   3.839
64882W        W34763  33.446   2.274   2.264
64883W        W34764  33.385  41.865  13.459
64884W        W34765  12.298  21.530  11.867
64885W        W34766  30.551  38.570   1.858
64886W        W34767  14.607  10.378  12.425
64887W        W34768  42.337  35.935  11.949
64888W        W34769  28.476  14.648   0.292
64889W        W34770   8.890  15.271   3.794
64890W        W34771  13.817  41.848   3.805
64891W        W34772   3.300  43.018  12.415
64892W        W34773   8.188  34.899   3.171
64893W        W34774   9.828   2.434  14.477
64894W        W34775  17.216  30.640   0.295
64895W        W34776   9.227   8.335   3.639
64896W        W34777  28.933  38.472  14.861
64897W        W34778  23.608  10.337  14.887
64898W        W34779  20.275  26.075   0.820
64899W        W34780  15.329  20.709   1.389
64900W        W34781  18.249  23.154   2.712
64901W        W34782   2.453  44.340   0.825
64902W        W34783  15.791  26.494   4.836
64903W        W34784  36.562  36.497  11.420
64904W        W34785  12.140   8.763   1.351
64905W        W34786  37.364  24.982   1.879
64906W        W34787  39.424  17.714  12.055
64907W        W34788  18.717  28.490   9.988
64908W        W34789   9.650  20.233  12.859
64909W        W34790  22.119  15.210   3.795
64910W        W34791  41.977   0.743   0.465
64911W        W34792   8.786  32.594   0.756
64912W        W34793  36.524  18.285   2.246
64913W        W34794  33.061   6.714  14.869
64914W        W34795   4.397  22.007  13.506
64915W        W34796  37.489  24.688  11.583
64916W        W34797   9.721  44.785  10.424
64917W        W34798  42.787  29.997   4.175
64918W        W34799  12.734  17.774   3.287
64919W        W34800  23.187  29.979  13.471
64920W        W34801  20.574  25.559  14.908
64921W        W34802  34.107  15.259   2.353
64922W        W34803  39.949  30.136  11.120
64923W        W34804  41.003  18.284   0.945
64924W        W34805  16.217   7.273   1.930
64925W        W34806   3.442  18.728  11.905
64926W        W34807  34.021   7.698   1.216
64927W        W34808  13.833  27.187   4.256
64928W        W34809   7.338  24.632  14.798
64929W        W34810   7.757  41.884  11.971
64930W        W34811  38.997  20.587   0.815
64931W        W34812   5.733  15.713  11.489
64932W        W34813  38.956  23.715  11.903
64933W        W34814  26.586  38.952  11.077
64934W        W34815  43.471  29.624  13.996
64935W        W34816  21.624  31.007   0.429
64936W        W34817  28.525  25.502   2.335
64937W        W34818  33.560   7.296   3.363
64938W        W34819  38.510  17.640  12.935
64939W        W34820  30.447   5.368  12.908
64940W        W34821  36.020  13.113   2.317
64941W        W34822  25.143  32.503  11.381
64942W        W34823  23.084  18.699   3.731
64943W        W34824  43.845  12.670   1.905
64944W        W34825  17.585   2.748  11.126
64945W        W34826  37.893  35.045   4.240
64946W        W34827  15.799   8.805   2.815
64947W        W34828   7.260  10.311   1.254
64948W        W34829  36.870  40.018  10.611
64949W        W34830  35.104  36.068   1.256
64950W        W34831  12.809   4.209  11.551
64951W        W34832  31.633  18.193   4.734
64952W        W34833  44.778   8.731  10.436
64953W        W34834  12.828  33.386  12.843
64954W        W34835  38.833  20.127   0.357
64955W        W34836  14.262  33.602  12.839
64956W        W34837   2.960  22.080  13.942
64957W        W34838  25.647  42.297  14.433
64958W        W34839  35.555  34.917   0.920
64959W        W34840  19.707   1.842  12.062
64960W        W34841  36.351   2.746   4.832
64961W        W34842  34.884  31.484  14.428
64962W        W34843  24.723  18.723   1.410
64963W        W34844   9.782  16.601  11.033
64964W        W34845  36.577  20.038  13.433
64965W        W34846   6.422  15.583   2.721
64966W        W34847  44.818  39.530   1.789
64967W        W34848  30.427  24.514  13.810
64968W        W34849  27.978  10.323   2.237
64969W        W34850  32.941  27.469   3.192
64970W        W34851  31.913  41.841   2.802
64971W        W34852  25.640   9.223  13.333
64972W        W34853  43.947  19.642   3.352
64973W        W34854  39.048  25.670  11.970
64974W        W34855  19.634   7.830  14.457
64975W        W34856  27.482   3.372  11.494
64976W        W34857  24.070  25.066  13.858
64977W        W34858   8.861  33.475  11.411
64978W        W34859  23.003  12.636   4.125
64979W        W34860   7.804  27.457   4.805
64980W        W34861  17.225  15.743  12.960
64981W        W34862   4.780  14.172   1.419
64982W        W34863  23.036  22.236  14.462
64983W        W34864   2.927  20.198   2.361
64984W        W34865   5.898   0.830  11.963
64985W        W34866   3.243   6.334  11.482
64986W        W34867  43.857  35.942   0.890
64987W        W34868  14.115  38.927   5.141
64988W        W34869  44.823  32.896  12.007
64989W        W34870  38.880  25.062   0.336
64990W        W34871  37.363  19.569   4.243
64991W        W34872  26.196  37.490   3.327
64992W        W34873  42.892  27.183  12.482
64993W        W34874  29.579  40.841   3.782
64994W        W34875  33.995  10.641  10.522
64995W        W34876  41.993  14.213   1.767
64996W        W34877  11.697   5.248  10.508
64997W        W34878  35.364  13.814   4.734
64998W        W34879  27.599   5.895  14.310
64999W        W34880  26.104   5.223  13.859
65000W        W34881  35.458  44.792  13.490
65001W        W34882  26.969  28.116  10.085
65002W        W34883   0.973   0.322   0.352
65003W        W34884   1.910  30.584  10.413
65004W        W34885  18.745  15.175   1.793
65005W        W34886  42.408  33.998   2.690
65006W        W34887   6.687  34.863   0.327
65007W        W34888  28.070   0.749   3.360
65008W        W34889  35.068  31.046  13.345
65009W        W34890   6.869  18.725   1.242
65010W        W34891  31.912  28.638  10.506
65011W        W34892  44.331  42.438   4.137
65012W        W34893   1.807  29.948   3.204
65013W        W34894  21.146  38.008  14.488
65014W        W34895  35.065  33.894   2.866
65015W        W34896   1.849  33.055   2.282
65016W        W34897  30.059  35.090  10.895
65017W        W34898  34.534  13.658   2.824
65018W        W34899  10.709   6.808   3.199
65019W        W34900   2.943  25.672  10.446
65020W        W34901  16.316  29.140   1.919
65021W        W34902   2.794  37.505  13.998
65022W        W34903  21.757  29.431  13.045
65023W        W34904  19.197  26.536  11.047
65024W        W34905  14.778  29.077  11.048
65025W        W34906  12.658   5.887  13.355
65026W        W34907  37.403   9.323   1.264
65027W        W34908  11.629   9.319  14.950
65028W        W34909  25.607  31.511   4.338
65029W        W34910  12.808   5.738   4.630
65030W        W34911   7.891  15.200   0.326
65031W        W34912  37.839   9.889   0.936
65032W        W34913  36.033   2.840  13.531
65033W        W34914   3.730  25.150  10.126
65034W        W34915  38.936  31.522   1.382
65035W        W34916  28.471  29.543  12.447
65036W        W34917   5.883   2.416   4.833
65037W        W34918  26.546  29.146  11.524
65038W        W34919  39.427  38.505   2.285
65039W        W34920   6.274   7.329  10.457
65040W        W34921  39.486   3.258   2.207
65041W        W34922  44.977  19.097  13.527
65042W        W34923  35.410  11.755   3.376
65043W        W34924  16.224  30.633  11.407
65044W        W34925  18.732  15.642  11.403
65045W        W34926  39.985  31.575  13.330
65046W        W34927  17.261  21.514   4.809
65047W        W34928  43.872  10.823   1.391
65048W        W34929  25.650  38.457  13.872
65049W        W34930  26.512  38.850   3.860
65050W        W34931  15.153  33.118  11.125
65051W        W34932  23.701   8.235   4.127
65052W        W34933  41.999   9.768  11.974
65053W        W34934  34.513  20.153  12.905
65054W        W34935  43.930  26.122   4.768
65055W        W34936  33.987   8.184  11.481
65056W        W34937   2.882  25.999   3.780
65057W        W34938  27.605  13.214   0.961
65058W        W34939   5.341  38.919  10.936
65059W        W34940  14.667  41.891  14.388
65060W        W34941  15.314  34.538  13.499
65061W        W34942  18.679  34.492   3.786
65062W        W34943  33.916   9.646   3.812
65063W        W34944   9.329  15.579   1.255
65064W        W34945  20.273  41.433   0.333
65065W        W34946  35.416  41.875   0.885
65066W        W34947  31.407   6.809  13.345
65067W        W34948  27.481   5.870  11.375
65068W        W34949  25.561  19.127   2.389
65069W        W34950  12.768  26.497   2.816
65070W        W34951  29.458  44.331  13.453
65071W        W34952   6.893  20.162   4.246
65072W        W34953  32.530  20.262  11.465
65073W        W34954  22.036  44.846   3.318
65074W        W34955   6.678  14.298   1.268
65075W        W34956  39.472  13.821  14.850
65076W        W34957  19.079  40.391   2.233
65077W        W34958  39.525  30.533  13.937
65078W        W34959  14.746  27.520  14.469
65079W        W34960  34.596  25.606   3.269
65080W        W34961  29.031   0.807   0.875
65081W        W34962   2.959  22.678  11.962
65082W        W34963  30.628  19.620  11.550
65083W        W34964   0.386  39.408  10.536
65084W        W34965   7.891  23.003  12.083
65085W        W34966  12.705  37.931  14.286
65086W        W34967  21.647  43.288  13.879
65087W        W34968  21.019  33.059   1.246
65088W        W34969  18.190  10.182  14.867
65089W        W34970  44.334  36.847  14.308
65090W        W34971   6.812  10.212  10.446
65091W        W34972  12.778  39.027   0.956
65092W        W34973  19.074   0.427   3.168
65093W        W34974  23.102  31.629   2.222
65094W        W34975  34.914   8.850  10.472
65095W        W34976   8.842  38.961  13.412
65096W        W34977  23.010   4.261   0.923
65097W        W34978  27.084  24.193   1.399
65098W        W34979  28.011  38.068  12.010
65099W        W34980  44.335  38.925  14.797
65100W        W34981   9.350   9.812   2.664
65101W        W34982   7.292   9.685   3.346
65102W        W34983  24.694  28.626  12.018
65103W        W34984  28.060  28.608  10.111
65104W        W34985  31.416  30.591   0.304
65105W        W34986  30.536  25.652   0.302
65106W        W34987  33.095   5.837  14.939
65107W        W34988   6.679  36.363  10.555
65108W        W34989  33.048  24.686  12.857
65109W        W34990   4.847  15.604   1.302
65110W        W34991   8.179  32.115   2.823
65111W        W34992  14.714  41.370   2.265
65112W        W34993   0.761  44.352  12.972
65113W        W34994   9.177  37.936   4.337
65114W        W34995  28.635  30.119  14.285
65115W        W34996  27.578  19.044  11.003
65116W        W34997  27.060  16.777   0.315
65117W        W34998  22.656  20.047  11.028
65118W        W34999  16.751   6.876   0.734
65119W        W35000   9.205   1.459  13.355
65120W        W35001  34.421  17.643   2.343
65121W        W35002  13.317   2.739  13.918
65122W        W35003  32.090  40.431  12.932
65123W        W35004  33.124  36.015   4.313
65124W        W35005  36.427  44.315  12.384
65125W        W35006   6.357   8.182   2.747
65126W        W35007  19.063  27.145  12.379
65127W        W35008  36.362  31.520   2.712
65128W        W35009  38.520  10.187  11.558
65129W        W35010   1.252  36.917  11.863
65130W        W35011  17.131  30.136  10.534
65131W        W35012  44.423  38.854   5.113
65132W        W35013  44.404   5.747  13.000
65133W        W35014  22.580  44.819  13.029
65134W        W35015  33.485  27.113  13.430
65135W        W35016  44.924  38.836  14.776
65136W        W35017  10.783  27.992   4.244
65137W        W35018   4.315  20.232  13.338
65138W        W35019  11.801   7.754  12.459
65139W        W35020   5.402  11.733  14.989
65140W        W35021  30.527  14.296  11.872
65141W        W35022  26.185  14.677   3.377
65142W        W35023   7.306  29.954  13.518
65143W        W35024   0.829  22.159  12.848
65144W        W35025  15.701  20.700   1.400
65145W        W35026  21.583  37.022   3.354
65146W        W35027  25.063  39.407   1.734
65147W        W35028   8.281   8.824  14.789
65148W        W35029  38.913  20.562  14.777
65149W        W35030   9.702  41.849  13.954
65150W        W35031  20.195  23.034   0.817
65151W        W35032  14.593  15.702   1.350
65152W        W35033   2.927   9.748  12.998
65153W        W35034   4.828  36.879  14.470
65154W        W35035   1.438   3.225  11.110
65155W        W35036   9.669  29.572  14.986
65156W        W35037  30.502   7.316   2.678
65157W        W35038  20.563  15.616   3.789
65158W        W35039  11.226  10.834   2.737
65159W        W35040  21.631  23.722   2.757
65160W        W35041  40.925  38.368  10.559
65161W        W35042  33.623   3.742  13.435
65162W        W35043   6.711   7.822  12.927
65163W        W35044   5.874  36.085  14.426
65164W        W35045  29.429  17.120   3.295
65165W        W35046  31.088   8.850   5.174
65166W        W35047  14.180   7.417   4.159
65167W        W35048  18.213  36.412  13.432
65168W        W35049  26.471   7.256   1.335
65169W        W35050   8.392   0.429  10.929
65170W        W35051   6.328  18.701   4.318
65171W        W35052  38.411  16.802   1.263
65172W        W35053  36.906   8.280  13.057
65173W        W35054   8.826   3.785  13.791
65174W        W35055  34.010   6.842   3.793
65175W        W35056  37.580  24.622  12.476
65176W        W35057   7.357  40.947   0.264
65177W        W35058  28.649  31.491   3.147
65178W        W35059  12.228  19.061   4.241
65179W        W35060  34.517  25.031   2.876
65180W        W35061  26.679  10.374   3.310
65181W        W35062  42.974   1.911  14.023
65182W        W35063  15.138  11.807   1.733
65183W        W35064   5.825  16.269   3.148
65184W        W35065  31.613   9.376   3.380
65185W        W35066   0.913  37.343  13.908
65186W        W35067  43.275  21.701  13.878
65187W        W35068  32.489   5.425  13.331
65188W        W35069   7.392  32.406  13.032
65189W        W35070   3.749  27.675  11.383
65190W        W35071  28.946   2.247  13.012
65191W        W35072   5.894  26.008   3.372
65192W        W35073  22.022  42.471   1.812
65193W        W35074  19.639  18.726   0.292
65194W        W35075  18.136  38.459   3.718
65195W        W35076  20.610  35.544   4.836
65196W        W35077  25.542  33.413   0.957
65197W        W35078  11.369   4.760   4.620
65198W        W35079  40.811   4.814  13.985
65199W        W35080  28.098  27.149  11.062
65200W        W35081  29.085   3.295   4.602
65201W        W35082  38.439  10.166  14.454
65202W        W35083  20.233  13.117   1.236
65203W        W35084  26.680  35.868   0.426
65204W        W35085  44.288  23.609   2.824
65205W        W35086   3.906  37.362  12.396
65206W        W35087  12.684  32.458   4.616
65207W        W35088  43.391  30.596   1.350
65208W        W35089  44.273   0.340  10.092
65209W        W35090  41.507  44.347   1.319
65210W        W35091  26.114  18.705   2.188
65211W        W35092   9.834  38.060  12.371
65212W        W35093  20.744  10.207  11.077
65213W        W35094  42.364  30.526  11.463
65214W        W35095  34.414  12.243   3.632
65215W        W35096   8.687  24.151  11.888
65216W        W35097  36.036  14.146   4.200
65217W        W35098  39.525  42.300   3.265
65218W        W35099  34.401  24.654   4.811
65219W        W35100  27.659  41.813  11.892
65220W        W35101  40.991  43.792   3.815
65221W        W35102  20.706   7.217   0.879
65222W        W35103   7.738  19.263  14.432
65223W        W35104  37.057  34.398  12.406
65224W        W35105  35.454  17.691   1.819
65225W        W35106   5.232  22.029  11.040
65226W        W35107  32.464  39.556  12.896
65227W        W35108  17.274  26.467   1.801
65228W        W35109  29.620  22.134   3.223
65229W        W35110  22.047   6.916  10.582
65230W        W35111  40.855  24.654  11.112
65231W        W35112  27.137  22.677   4.327
65232W        W35113  40.049  41.832  14.939
65233W        W35114  27.646   2.471   0.361
65234W        W35115  19.208  37.493   2.875
65235W        W35116  37.359  38.886   3.329
65236W        W35117  11.175  10.300  14.002
65237W        W35118  37.515  40.349  13.455
65238W        W35119   2.356  29.929  11.497
65239W        W35120  42.926  26.103  11.546
65240W        W35121  33.431   1.782   2.835
65241W        W35122  43.473   0.426   4.622
65242W        W35123  18.127  14.174   0.859
65243W        W35124   4.276  11.251  14.765
65244W        W35125   3.267  39.053   4.631
65245W        W35126  31.556  43.419  14.808
65246W        W35127  37.026  23.495   0.807
65247W        W35128   8.262   6.845  14.975
65248W        W35129  31.614  13.664   1.726
65249W        W35130  25.513   7.184  12.867
65250W        W35131  12.771  18.288  12.897
65251W        W35132  31.470   1.336  11.980
65252W        W35133   9.206  23.736  14.309
65253W        W35134  34.607  23.115  11.922
65254W        W35135  41.961   2.396  14.775
65255W        W35136  27.550  42.318  14.918
65256W        W35137  23.700  25.583  12.898
65257W        W35138  29.038  17.639   2.327
65258W        W35139   2.451  37.438  12.572
65259W        W35140  28.048  16.739  11.994
65260W        W35141  30.521   5.345   4.796
65261W        W35142  13.326  19.688  12.054
65262W        W35143  35.523  21.080  12.067
65263W        W35144  31.480  19.541  13.518
65264W        W35145  29.099   4.774  13.359
65265W        W35146  21.515  30.907   4.333
65266W        W35147  43.388  40.838  14.876
65267W        W35148  11.848  28.608   3.315
65268W        W35149  29.625  18.642   5.217
65269W        W35150  23.014  27.545   3.363
65270W        W35151  31.609  23.498   2.274
65271W        W35152  42.483  26.533   2.819
65272W        W35153   0.802  12.256  14.342
65273W        W35154  38.831   2.792  11.552
65274W        W35155   9.226  27.017   0.764
65275W        W35156  16.762  27.519  14.766
65276W        W35157   2.817  32.531   1.328
65277W        W35158   1.346  10.773  12.828
65278W        W35159  12.269  29.572   1.286
65279W        W35160  44.388   8.345  11.897
65280W        W35161   8.210  12.129   4.802
65281W        W35162   1.368  36.951  13.026
65282W        W35163  23.520  11.853   2.769
65283W        W35164  32.021  43.352   3.713
65284W        W35165   2.852  35.986   3.386
65285W        W35166  21.707   7.880   0.300
65286W        W35167   1.292  22.089  13.447
65287W        W35168  29.110  27.681   0.334
65288W        W35169  28.017  31.953  11.564
65289W        W35170   7.401  27.171  14.941
65290W        W35171  19.779  29.104  14.881
65291W        W35172  22.246  25.182   3.680
65292W        W35173  10.759  34.032  14.811
65293W        W35174  33.416  12.178  10.561
65294W        W35175  38.508  10.697   3.217
65295W        W35176  18.173   3.849  13.542
65296W        W35177  36.035  44.262  10.498
65297W        W35178  12.855  15.809  11.857
65298W        W35179   3.457  35.931   3.192
65299W        W35180  28.539  42.402   4.690
65300W        W35181   9.696  14.639   1.733
65301W        W35182   7.299   9.691  11.523
65302W        W35183  32.020  44.791  12.056
65303W        W35184   8.802   1.964   4.253
65304W        W35185  17.740   2.399  11.433
65305W        W35186  28.479  35.459   3.260
65306W        W35187  21.691  19.732  10.945
65307W        W35188  13.174  14.791   2.312
65308W        W35189  39.371   7.715  11.606
65309W        W35190  38.417  26.105  13.358
65310W        W35191   9.246  38.434   2.385
65311W        W35192  32.115  28.520   3.785
65312W        W35193  27.487  27.049   0.748
65313W        W35194  37.371  38.510  12.574
65314W        W35195   8.813  37.853  11.869
65315W        W35196  29.635   4.304  14.929
65316W        W35197  39.008  14.760   2.843
65317W        W35198  17.563   6.798  14.866
65318W        W35199  19.263  23.013  11.938
65319W        W35200   0.752  33.543  13.802
65320W        W35201  38.022   0.305   1.722
65321W        W35202   0.943   3.428  11.059
65322W        W35203  29.138  39.847  12.047
65323W        W35204  12.120   9.723  12.488
65324W        W35205  27.060  39.916   3.284
65325W        W35206  13.270  30.438  13.063
65326W        W35207  42.372   2.313  13.945
65327W        W35208  41.836  11.223  10.593
65328W        W35209  33.121   0.355  13.540
65329W        W35210   5.328   2.319   2.185
65330W        W35211   6.216  16.698   0.353
65331W        W35212  21.709   8.313   2.352
65332W        W35213  27.976  21.708   3.176
65333W        W35214  40.549  38.859   3.238
65334W        W35215  42.026   9.188  12.065
65335W        W35216  43.478  36.558   1.780
65336W        W35217  12.240  14.125   3.187
65337W        W35218   1.816  21.100  11.083
65338W        W35219   0.805  32.928   1.391
65339W        W35220  31.590  14.784   4.312
65340W        W35221   1.750  42.807  14.998
65341W        W35222  13.141  44.378   3.207
65342W        W35223  10.872  14.811  14.835
65343W        W35224  21.661  35.033  13.017
65344W        W35225  30.462  43.003  10.640
65345W        W35226  27.479  44.762   0.416
65346W        W35227   5.194  37.558   2.809
65347W        W35228  44.990  38.004  13.952
65348W        W35229   4.267  16.660   4.736
65349W        W35230  10.810  11.274  12.441
65350W        W35231  37.000  20.171  14.990
65351W        W35232   4.711  41.301   1.400
65352W        W35233  30.564  16.588   0.825
65353W        W35234   8.711  14.652   2.273
65354W        W35235  24.121  12.222  11.463
65355W        W35236  12.624   2.846   3.265
65356W        W35237   0.883  23.545  12.012
65357W        W35238  16.291  33.623   0.729
65358W        W35239   6.787  34.042  11.553
65359W        W35240   0.423   1.823  12.088
65360W        W35241  29.054  16.714  12.571
65361W        W35242  10.871   5.278  13.971
65362W        W35243  35.400   7.744  11.577
65363W        W35244  32.443   9.861  10.889
65364W        W35245  35.993  41.331  12.438
65365W        W35246  18.118  37.413  10.587
65366W        W35247  22.091   5.809  13.003
65367W        W35248  39.495   4.333  13.906
65368W        W35249   2.922  14.732   0.334
65369W        W35250   7.704  11.822   3.204
65370W        W35251  44.342  15.668   0.797
65371W        W35252   2.398  17.167  14.869
65372W        W35253  37.080  40.033   1.751
65373W        W35254  14.180  38.399   2.892
65374W        W35255  21.201   3.356   1.386
65375W        W35256   6.388   5.861   4.607
65376W        W35257  20.701   4.738  13.966
65377W        W35258  40.362  37.061  14.426
65378W        W35259  29.988  13.657  11.973
65379W        W35260   3.768  16.149  13.504
65380W        W35261  32.132  16.778   1.930
65381W        W35262   8.691  23.568  11.377
65382W        W35263  42.848  32.946   2.306
65383W        W35264  12.628  28.496  14.842
65384W        W35265  29.984  31.425  12.904
65385W        W35266  36.072  23.697  14.827
65386W        W35267  14.116   1.954   0.349
65387W        W35268  33.034  37.508   2.324
65388W        W35269  10.641  34.393   1.717
65389W        W35270  25.058  37.431   2.185
65390W        W35271   1.871  26.016  10.603
65391W        W35272  42.975  10.195  11.000
65392W        W35273  30.042  38.019  13.379
65393W        W35274  29.941  10.143   3.293
65394W        W35275   8.292  24.082   3.849
65395W        W35276  11.283  18.134   2.207
65396W        W35277   9.227  15.737  13.443
65397W        W35278  18.623  21.116  14.458
65398W        W35279   3.290  41.025  13.387
65399W        W35280  42.946  17.631   3.309
65400W        W35281  18.207  12.627   2.860
65401W        W35282  44.884  10.362   2.754
65402W        W35283  41.529   8.249   2.388
65403W        W35284   1.319  43.270   0.410
65404W        W35285  13.316  18.727  12.008
65405W        W35286  19.733  20.671   1.280
65406W        W35287  36.081   4.445  10.570
65407W        W35288  32.412  27.600  11.398
65408W        W35289  11.266  21.721   1.221
65409W        W35290  14.116  44.989  11.122
65410W        W35291  34.043   2.357  13.030
65411W        W35292  39.911  41.413   4.204
65412W        W35293   7.678  16.179  11.903
65413W        W35294   3.939   2.773   0.953
65414W        W35295  19.134   9.676  13.344
65415W        W35296  40.005  17.789  13.492
65416W        W35297  29.468   1.958   2.880
65417W        W35298  37.904  31.150   4.839
65418W        W35299  40.406  19.690  12.390
65419W        W35300  21.139  20.239   0.462
65420W        W35301  24.568  44.883  14.826
65421W        W35302  17.736  16.652   4.808
65422W        W35303  20.755  10.644   1.242
65423W        W35304  29.955  23.230   1.829
65424W        W35305  18.155  40.957   0.832
65425W        W35306  15.691  20.097  10.642
65426W        W35307  25.587   7.750   3.158
65427W        W35308   0.834  36.355   0.484
65428W        W35309  28.600  36.932  13.831
65429W        W35310  21.613  26.464   3.667
65430W        W35311  38.929  11.162   0.406
65431W        W35312  42.938  33.531  12.435
65432W        W35313   0.351  33.064  14.499
65433W        W35314  30.023  30.923  10.984
65434W        W35315  27.447  28.164  10.460
65435W        W35316   7.715  37.918   1.933
65436W        W35317  40.017  44.359   0.465
65437W        W35318  13.777   5.391   4.740
65438W        W35319  15.636  22.739  12.499
65439W        W35320  35.063  28.055   0.358
65440W        W35321   6.872   2.232   0.751
65441W        W35322  44.282  29.655  11.858
65442W        W35323  35.467  35.915   2.863
65443W        W35324  29.503  21.691   2.853
65444W        W35325  21.631  23.199   1.774
65445W        W35326   3.298   8.194  12.888
65446W        W35327   7.858  17.703  11.458
65447W        W35328  40.312   0.970   0.436
65448W        W35329  14.166  23.525  12.407
65449W        W35330  30.024   3.341   1.902
65450W        W35331  13.712   7.188  13.464
65451W        W35332   0.822   9.643  10.592
65452W        W35333   8.218  20.706   3.295
65453W        W35334  32.111  31.031   4.788
65454W        W35335  41.496   3.740   0.458
65455W        W35336  20.673  28.671   0.956
65456W        W35337  19.159   8.309  13.543
65457W        W35338  34.447  43.887  10.941
65458W        W35339  30.907  27.185  12.567
65459W        W35340  16.281  41.379   3.244
65460W        W35341   1.769  26.124  10.904
65461W        W35342  30.012  34.557  12.497
65462W        W35343  11.288  41.869   1.876
65463W        W35344  19.696  24.178   4.832
65464W        W35345   2.904  14.822   1.846
65465W        W35346   9.873  42.477  13.813
65466W        W35347  14.116  10.860  14.356
65467W        W35348  35.450  29.572  10.958
65468W        W35349  36.958   4.805   1.403
65469W        W35350  37.465  28.123  10.642
65470W        W35351  37.971   7.300  13.011
65471W        W35352  34.039   0.903   4.244
65472W        W35353  21.512   6.727   0.284
65473W        W35354  35.409   5.320   3.259
65474W        W35355  32.033  41.925   1.716
65475W        W35356  14.155  17.702  11.941
65476W        W35357  22.208  20.158   4.777
65477W        W35358  21.051   6.919   4.122
65478W        W35359   8.714  18.202   0.839
65479W        W35360  26.165  13.690  10.588
65480W        W35361  44.434  15.191  11.008
65481W        W35362  19.156  13.727  10.616
65482W        W35363   1.872  13.811  10.627
65483W        W35364  28.175  29.084  13.004
65484W        W35365  43.293  44.435  13.465
65485W        W35366  20.156  33.108   0.435
65486W        W35367  23.583  37.536   3.251
65487W        W35368  26.987  28.955  11.871
65488W        W35369  41.948  15.588   9.959
65489W        W35370  17.783  21.729  11.547
65490W        W35371  22.746  11.184   2.298
65491W        W35372  11.176   4.835   2.808
65492W        W35373  42.283  37.481  11.383
65493W        W35374  12.759  44.354  10.599
65494W        W35375  40.375  20.719   1.750
65495W        W35376  28.980  14.679  11.002
65496W        W35377  26.656   6.242   2.716
65497W        W35378  44.911  10.798   2.325
65498W        W35379  19.157  16.202  11.578
65499W        W35380   9.249  26.189   3.382
65500W        W35381  29.175  37.958  14.277
65501W        W35382  16.752  42.878   2.719
65502W        W35383  31.983  12.785  12.933
65503W        W35384  24.224  12.157   0.863
65504W        W35385  33.493  32.530  10.570
65505W        W35386   1.845  26.060   2.277
65506W        W35387  38.984  40.436  14.969
65507W        W35388  31.606  43.452   3.331
65508W        W35389  23.575  40.886  13.813
65509W        W35390  27.002  30.037   0.390
65510W        W35391  22.604  31.415  12.401
65511W        W35392  42.029  30.032   3.157
65512W        W35393  26.145   4.409   3.184
65513W        W35394  24.478  19.250   2.401
65514W        W35395  38.872   0.420  10.409
65515W        W35396  40.969  18.570  11.524
65516W        W35397  28.489  21.702   4.624
65517W        W35398   4.388  22.130   0.246
65518W        W35399  36.590   5.864   2.387
65519W        W35400  42.425  39.986  12.077
65520W        W35401   0.428  41.890   3.691
65521W        W35402   0.453  21.238  13.822
65522W        W35403  42.873   1.345  12.956
65523W        W35404  41.352  26.636  12.438
65524W        W35405  29.641  29.634  12.913
65525W        W35406  14.726   6.279  14.504
65526W        W35407  11.653  44.361   0.248
65527W        W35408  25.139   7.751   4.312
65528W        W35409   8.768  28.450   0.774
65529W        W35410  17.590  36.985  12.920
65530W        W35411   3.341  10.863   0.350
65531W        W35412   1.303  25.973  12.409
65532W        W35413  37.511   1.303   1.268
65533W        W35414  13.230  25.200  14.909
65534W        W35415  35.440  23.521   0.469
65535W        W35416   6.228  40.981  13.460
65536W        W35417  42.391   7.883  11.390
65537W        W35418  21.130  40.007   2.268
65538W        W35419  14.613   5.877  11.856
65539W        W35420  11.801  12.282   2.226
65540W        W35421   7.363  11.196   1.302
65541W        W35422  37.500  43.952  13.487
65542W        W35423   4.917  38.052   4.602
65543W        W35424  32.930  41.798   2.233
65544W        W35425  15.097  20.748   3.735
65545W        W35426  20.248  13.715   2.678
65546W        W35427   6.850  22.638   1.302
65547W        W35428  31.053  14.128  10.496
65548W        W35429  15.756  13.335  12.897
65549W        W35430  10.683  32.966   2.901
65550W        W35431  28.048  26.161   0.813
65551W        W35432  10.298  17.740   1.303
65552W        W35433  22.741  24.560  13.392
65553W        W35434  25.578  17.155  13.936
65554W        W35435  22.655  34.529   4.283
65555W        W35436  12.128  22.545  14.767
65556W        W35437  29.046  43.449  14.800
65557W        W35438  16.194  44.362  15.000
65558W        W35439  11.668  13.201  14.308
65559W        W35440  26.084   6.188   4.719
65560W        W35441  14.596   5.784   2.306
65561W        W35442  13.185  13.674  10.569
65562W        W35443  20.103   8.786   4.789
65563W        W35444   8.806   8.835  12.095
65564W        W35445  32.566  20.263   1.808
65565W        W35446  14.701  24.478  10.437
65566W        W35447  21.538  11.848  12.843
65567W        W35448  33.080  37.901   1.231
65568W        W35449  21.702  42.482  13.322
65569W        W35450  15.084  26.552   1.345
65570W        W35451   8.167  13.171  14.410
65571W        W35452  34.986  31.616  13.420
65572W        W35453  16.719  44.503  12.376
65573W        W35454  32.595  17.102   4.617
65574W        W35455  29.594   0.837   1.730
65575W        W35456  15.200  17.608  12.514
65576W        W35457  41.933   2.436   3.166
65577W        W35458  39.064  30.631   0.766
65578W        W35459  40.005  20.053   2.304
65579W        W35460  40.907   9.310  12.840
65580W        W35461   2.464  18.586  11.897
65581W        W35462  29.652  27.004  11.117
65582W        W35463   7.303   7.267  14.358
65583W        W35464  16.781  40.521  13.880
65584W        W35465   4.737  31.552   0.417
65585W        W35466  17.246  25.106  10.084
65586W        W35467  18.545  36.903   3.153
65587W        W35468  40.908   6.330  13.874
65588W        W35469  40.398  12.822   2.873
65589W        W35470  43.325  38.534   2.196
65590W        W35471   8.848  25.551  10.418
65591W        W35472  34.003  32.557   4.223
65592W        W35473  24.682  15.596  11.429
65593W        W35474  27.641  11.724   0.840
65594W        W35475  30.942  34.087  11.474
65595W        W35476   7.817   0.977  11.383
65596W        W35477  37.376  25.610   1.276
65597W        W35478   9.243  35.979   1.411
65598W        W35479  11.851   4.421   3.323
65599W        W35480  18.291   7.699   3.291
65600W        W35481   3.397  43.964  12.526
65601W        W35482  35.955  22.600  11.913
65602W        W35483  29.453   6.256   2.663
65603W        W35484  37.859   2.937  12.368
65604W        W35485   7.227  20.176   3.358
65605W        W35486  37.936  44.425  12.342
65606W        W35487  37.555  32.107   0.791
65607W        W35488  13.119  17.661   2.779
65608W        W35489   3.816  44.890   1.905
65609W        W35490  39.409  26.023  10.990
65610W        W35491  23.059  12.676   3.632
65611W        W35492  13.291  21.060   0.726
65612W        W35493  10.294   3.847   3.754
65613W        W35494  12.817  20.130  14.849
65614W        W35495  37.923  34.066  11.439
65615W        W35496  19.622  31.075   4.816
65616W        W35497  18.079  30.163   5.250
65617W        W35498  36.530  36.516  13.381
65618W        W35499  12.657  43.488  14.931
65619W        W35500  43.004  19.612  13.455
65620W        W35501  43.506  18.072  11.869
65621W        W35502  27.034   2.962  11.036
65622W        W35503  24.585   4.389   3.668
65623W        W35504   6.306   2.324  10.622
65624W        W35505  16.629  19.718   2.870
65625W        W35506  39.895  12.795  10.524
65626W        W35507  38.862  21.560  10.975
65627W        W35508  19.092  32.090  12.395
65628W        W35509  20.054   6.786   1.409
65629W        W35510  32.140  23.687  14.356
65630W        W35511  35.907   0.800  10.510
65631W        W35512   4.362  26.157  12.069
65632W        W35513  14.598  44.846   2.675
65633W        W35514  27.971  30.053  11.000
65634W        W35515  34.507  13.112   2.881
65635W        W35516  44.992   6.350   3.378
65636W        W35517  28.643  22.118  11.973
65637W        W35518  39.997   5.326   2.872
65638W        W35519  13.786   0.986  12.472
65639W        W35520  30.113   0.395  13.039
65640W        W35521  42.502  22.164   1.256
65641W        W35522  23.541   4.372   2.286
65642W        W35523  40.984  16.094  12.959
65643W        W35524  25.105  27.168   0.889
65644W        W35525  23.991  39.822   3.274
65645W        W35526  11.359  41.939   3.298
65646W        W35527  22.230  44.877  12.004
65647W        W35528  20.219  15.668  13.350
65648W        W35529   7.795  21.711   3.273
65649W        W35530  12.767  27.111   0.888
65650W        W35531  23.082  22.047   2.763
65651W        W35532   4.829  24.205  12.423
65652W        W35533  29.029  39.849   2.821
65653W        W35534  33.877  23.035  13.897
65654W        W35535  30.023  19.647   4.150
65655W        W35536  12.693   5.931   0.845
65656W        W35537  15.718  23.641   5.172
65657W        W35538  26.586  24.214   1.285
65658W        W35539  10.667  17.268  10.498
65659W        W35540   8.404   8.863   0.960
65660W        W35541   0.416   7.395   1.892
65661W        W35542  17.783  22.060   2.826
65662W        W35543  28.138  33.491   3.276
65663W        W35544  33.036  22.249   4.180
65664W        W35545  38.421  14.744   3.384
65665W        W35546  20.659  27.018   3.767
65666W        W35547   6.902  44.820  14.848
65667W        W35548  14.782  34.023   4.784
65668W        W35549  12.786  14.720  14.922
65669W        W35550  25.589  20.069   4.221
65670W        W35551  22.670  42.793  14.877
65671W        W35552  36.387  34.588  12.909
65672W        W35553  39.410  15.141  11.409
65673W        W35554   6.731  15.212   1.349
65674W        W35555  38.441  14.324   1.222
65675W        W35556  10.175   0.827   2.219
65676W        W35557  41.967  24.697   2.395
65677W        W35558  13.825  18.612   2.230
65678W        W35559  31.123  25.152  14.947
65679W        W35560  28.679   5.397  12.842
65680W        W35561  10.801   1.795  12.848
65681W        W35562  31.429  18.295  10.536
65682W        W35563  29.556   9.806   0.279
65683W        W35564  41.909  35.576  13.499
65684W        W35565  20.048   6.799   3.719
65685W        W35566   3.440   5.915   3.784
65686W        W35567  14.767  22.040   2.699
65687W        W35568  43.438   7.828   3.222
65688W        W35569  23.237  44.760   2.186
65689W        W35570  18.712  42.317  12.880
65690W        W35571  14.807  31.609  10.621
65691W        W35572  24.066   3.363  14.471
65692W        W35573   2.447   2.757  14.860
65693W        W35574  33.984  24.110   2.370
65694W        W35575  22.552  33.385   4.816
65695W        W35576  35.580  31.471  10.641
65696W        W35577  17.248   5.868   2.267
65697W        W35578   1.859  38.931   1.918
65698W        W35579  24.022   3.761  14.975
65699W        W35580   6.885   2.304   4.304
65700W        W35581  36.986   8.896   4.316
65701W        W35582  14.298  17.285   0.836
65702W        W35583   8.689  24.130   4.229
65703W        W35584  20.527   7.283  13.816
65704W        W35585  36.565  40.431   0.257
65705W        W35586  19.561  43.297   4.797
65706W        W35587  26.552  37.088   4.650
65707W        W35588  36.542  17.755  13.057
65708W        W35589   4.794   3.801   1.306
65709W        W35590   4.253  21.245   1.226
65710W        W35591   1.825  25.088  13.966
65711W        W35592  11.327  19.609  12.547
65712W        W35593  40.028  39.969   4.663
65713W        W35594  27.608   2.891   3.333
65714W        W35595  30.995   0.459  11.121
65715W        W35596  32.540  20.654   4.216
65716W        W35597  37.875  22.509   3.275
65717W        W35598   4.853  12.342  14.379
65718W        W35599  25.478   5.330   0.836
65719W        W35600  44.260  19.536   5.237
65720W        W35601  16.643   3.903  11.963
65721W        W35602   0.945  13.123  14.828
65722W        W35603  13.755   4.921  14.334
65723W        W35604  12.296   3.318  14.912
65724W        W35605  41.294  11.176   4.145
65725W        W35606  13.237   1.740   5.299
65726W        W35607  17.712  38.411  14.805
65727W        W35608  26.665   9.889   2.251
65728W        W35609  24.510   6.296   1.859
65729W        W35610  18.134  43.899   4.114
65730W        W35611  44.886  34.600  12.860
65731W        W35612  41.002  40.974   3.364
65732W        W35613   6.237  14.335  12.903
65733W        W35614  27.980  39.984   1.411
65734W        W35615   7.376  31.008  11.495
65735W        W35616  22.543  39.546  14.917
65736W        W35617  32.573  30.055  11.420
65737W        W35618  20.693  44.907  10.575
65738W        W35619  41.835  37.071   4.825
65739W        W35620  23.499  24.718  11.928
65740W        W35621  18.545  22.631  12.448
65741W        W35622   3.842  33.609   3.833
65742W        W35623   9.190  22.560   0.871
65743W        W35624   4.775  24.611  14.970
65744W        W35625  33.540  15.308  12.439
65745W        W35626  35.029  21.042   0.477
65746W        W35627  36.877  40.964  13.048
65747W        W35628  40.333  33.464   3.794
65748W        W35629   1.901  31.595   3.797
65749W        W35630   0.744  12.720  10.408
65750W        W35631  15.590  26.969   0.811
65751W        W35632   3.427  23.706  10.977
65752W        W35633   4.942  17.279  14.866
65753W        W35634  32.628  21.736   1.264
65754W        W35635  44.443  29.517   2.772
65755W        W35636  12.213   9.378   0.403
65756W        W35637  27.659  35.400  11.513
65757W        W35638  11.260  31.618  12.388
65758W        W35639  21.107   8.892  13.379
65759W        W35640   1.324  26.614   4.703
65760W        W35641  41.422  35.427   3.665
65761W        W35642  44.474  35.377  12.824
65762W        W35643   9.389  19.610   4.748
65763W        W35644  16.575   1.399   0.815
65764W        W35645  40.841  42.424   3.158
65765W        W35646   2.284  13.746   3.379
65766W        W35647  26.191  11.864  13.955
65767W        W35648  33.581  42.899   1.344
65768W        W35649  41.324   7.774  10.923
65769W        W35650   5.794  24.507   4.220
65770W        W35651  10.170  42.879  13.542
65771W        W35652  13.136  21.194  13.844
65772W        W35653  17.232  23.716   3.381
65773W        W35654   2.731  18.630   1.302
65774W        W35655  10.382  40.912  10.481
65775W        W35656   5.403  35.462  14.988
65776W        W35657   2.399  21.519  12.566
65777W        W35658  15.177  29.041   3.162
65778W        W35659  41.436  36.851   0.928
65779W        W35660  15.231  23.203   0.440
65780W        W35661  25.703  39.382   0.820
65781W        W35662  42.510  27.617  12.938
65782W        W35663  11.168  32.023  11.508
65783W        W35664  22.119  10.197   2.685
65784W        W35665   9.381  10.757  10.900
65785W        W35666   8.233  15.289  11.087
65786W        W35667  24.563  43.980   3.855
65787W        W35668  27.015   6.786  11.513
65788W        W35669  32.460  37.525  11.958
65789W        W35670   9.272  27.197   2.794
65790W        W35671  24.659  27.557  11.562
65791W        W35672   2.390  40.431  11.039
65792W        W35673   0.328  19.072   2.763
65793W        W35674  13.224  16.746  10.561
65794W        W35675  29.953  25.507   3.861
65795W        W35676  22.141   2.248  12.836
65796W        W35677   4.787  34.939   3.327
65797W        W35678  31.056   7.245  11.906
65798W        W35679  24.604  15.707  10.911
65799W        W35680  23.183  43.401  12.499
65800W        W35681  15.116  27.015  11.045
65801W        W35682   6.318  42.896  11.883
65802W        W35683  34.375  26.001   4.768
65803W        W35684  13.200  29.945  14.419
65804W        W35685   3.905  44.363   4.778
65805W        W35686   8.383  28.586   2.377
65806W        W35687   2.945  20.088  14.464
65807W        W35688  28.615  17.761  14.327
65808W        W35689  26.579  10.188  11.911
65809W        W35690  26.654  34.957  12.919
65810W        W35691  30.995   9.245   1.330
65811W        W35692  35.965  24.081  12.096
65812W        W35693  37.925  17.707  12.958
65813W        W35694  25.982  28.168   4.711
65814W        W35695  19.071  35.989   3.853
65815W        W35696  11.659  20.081  11.596
65816W        W35697  43.428   1.373  10.552
65817W        W35698  24.116  14.615  11.587
65818W        W35699  42.021  16.242  12.568
65819W        W35700  44.770  36.043   2.733
65820W        W35701  16.256  29.172   3.815
65821W        W35702  18.616  34.411   4.243
65822W        W35703  15.612  28.029  13.028
65823W        W35704   3.391  37.992  11.457
65824W        W35705  36.515  44.007  14.833
65825W        W35706  36.578   8.680   9.995
65826W        W35707  43.490   1.778   9.929
65827W        W35708  44.463  38.375  13.794
65828W        W35709  18.255   2.829   4.195
65829W        W35710  34.442  32.974  13.341
65830W        W35711   8.715  18.216  12.356
65831W        W35712  41.372  23.048  10.994
65832W        W35713  19.226  14.164  13.440
65833W        W35714  38.341   9.287   2.710
65834W        W35715  23.048  40.880   0.749
65835W        W35716  13.787  10.722  11.492
65836W        W35717  21.672  41.302   0.954
65837W        W35718  38.917  20.603   0.409
65838W        W35719  29.977  28.036   1.240
65839W        W35720  28.454  20.044  11.609
65840W        W35721  40.926  44.504  11.611
65841W        W35722  25.975  27.964   2.299
65842W        W35723  29.129  44.835  13.828
65843W        W35724  20.241  36.412  13.408
65844W        W35725   1.814  43.969   4.235
65845W        W35726  13.339  14.281   3.865
65846W        W35727  16.688  36.049   4.186
65847W        W35728   3.920  19.735  11.042
65848W        W35729  42.824  20.545  11.872
65849W        W35730  33.898   3.779  14.894
65850W        W35731  12.731  38.050   1.791
65851W        W35732  36.064  16.636  13.904
65852W        W35733  18.117  10.316   1.331
65853W        W35734  18.672  44.780   0.366
65854W        W35735  20.760  14.204  12.418
65855W        W35736  33.512  28.980   4.250
65856W        W35737  34.070  36.390  14.279
65857W        W35738   7.292  24.642   2.894
65858W        W35739  41.900  17.742   2.730
65859W        W35740  34.986   0.984  14.957
65860W        W35741  21.150   7.383   0.459
65861W        W35742  23.124  40.338   4.756
65862W        W35743  27.568  15.216   3.778
65863W        W35744  26.182   4.809   0.894
65864W        W35745  19.262   2.368   3.245
65865W        W35746  12.654  20.525  11.009
65866W        W35747  38.505   3.844   3.680
65867W        W35748  23.706  40.902   0.299
65868W        W35749   8.367  28.177   1.318
65869W        W35750  10.333  13.183  14.897
65870W        W35751   5.261  25.490  14.454
65871W        W35752  16.257   9.241  11.465
65872W        W35753  17.294   7.207  10.132
65873W        W35754  34.416   5.240   2.209
65874W        W35755  13.148  23.222  13.961
65875W        W35756  22.640  41.869   0.875
65876W        W35757  19.068  26.202   0.308
65877W        W35758  13.179  36.852  13.333
65878W        W35759  40.015  18.201  10.899
65879W        W35760  36.566  28.486  14.960
65880W        W35761  30.952  19.616   5.315
65881W        W35762  23.690  36.537   3.374
65882W        W35763   9.228  21.718   2.411
65883W        W35764  42.515   0.972  11.379
65884W        W35765   7.868  21.574  13.025
65885W        W35766   2.374  43.970   0.272
65886W        W35767  39.560   4.377  14.860
65887W        W35768  15.144   5.367   3.710
65888W        W35769   2.363  22.586  12.387
65889W        W35770  33.008  18.200  14.499
65890W        W35771   3.271  14.803   2.868
65891W        W35772  42.018  37.064  11.405
65892W        W35773  34.397  33.546   3.249
65893W        W35774  32.584  40.309  13.519
65894W        W35775  37.374  14.774   4.652
65895W        W35776  30.137  38.866  14.514
65896W        W35777  36.082  31.567  11.899
65897W        W35778  24.028  41.028  12.408
65898W        W35779  10.712  20.201  12.835
65899W        W35780  28.569   8.892  13.861
65900W        W35781  20.204  25.148  14.911
65901W        W35782   2.289  34.059  10.620
65902W        W35783   8.751  36.349   3.240
65903W        W35784  23.033  23.087  13.313
65904W        W35785  22.718  24.608  10.962
65905W        W35786  37.045  33.041   4.217
65906W        W35787  39.971  19.620  14.470
65907W        W35788  44.780  43.484  10.945
65908W        W35789  37.886   5.823   4.249
65909W        W35790  10.819  18.596  11.568
65910W        W35791  41.474   8.358  12.371
65911W        W35792  30.940  31.914  10.144
65912W        W35793  43.378  39.471  13.413
65913W        W35794  34.048  17.788  12.940
65914W        W35795  18.083  33.017   2.790
65915W        W35796  42.785   6.414   0.375
65916W        W35797   4.703  13.156  11.869
65917W        W35798  27.683  10.850  12.469
65918W        W35799  19.682  28.577   4.661
65919W        W35800  19.196   1.972  12.475
65920W        W35801   2.813  42.824  13.859
65921W        W35802   0.769   2.301  12.486
65922W        W35803   9.709  28.100   1.370
65923W        W35804  40.536  38.486   1.213
65924W        W35805  43.403   5.300  12.415
65925W        W35806  25.967  14.812  11.581
65926W        W35807  12.285  11.688  12.441
65927W        W35808  30.568  33.448  12.052
65928W        W35809  34.550   8.279  10.928
65929W        W35810  42.885  28.507  12.366
65930W        W35811  20.667   2.449  13.969
65931W        W35812  28.488  15.627   0.358
65932W        W35813  31.607  13.677  11.126
65933W        W35814  33.028  37.867   0.849
65934W        W35815  27.566   1.949   2.734
65935W        W35816  17.244  18.063  11.594
65936W        W35817  25.195  33.065   3.212
65937W        W35818  17.218   4.889   0.246
65938W        W35819  10.832   4.442  11.570
65939W        W35820  10.745  16.101   3.172
65940W        W35821  22.663  19.239   5.086
65941W        W35822  40.044  42.871  12.998
65942W        W35823  26.675  25.190   2.856
65943W        W35824  38.045  26.537  10.086
65944W        W35825  29.166  11.764   1.749
65945W        W35826  31.014   3.275  11.476
65946W        W35827  17.079  16.274  14.833
65947W        W35828  42.019   6.708   0.882
65948W        W35829  10.702  32.894  13.410
65949W        W35830  22.586  40.442  14.426
65950W        W35831  23.017  25.067  13.047
65951W        W35832  20.533  17.226   4.656
65952W        W35833   0.484  16.123  12.912
65953W        W35834  20.078  36.890  13.019
65954W        W35835   9.294  11.180   4.206
65955W        W35836  28.948  15.639  10.580
65956W        W35837  20.667  14.797  12.438
65957W        W35838  26.004  26.598  11.416
65958W        W35839  31.045  41.888   0.367
65959W        W35840  17.714  28.434   5.211
65960W        W35841  13.169  36.395  12.930
65961W        W35842   7.244  31.037  14.287
65962W        W35843  24.142  20.125  10.487
65963W        W35844  43.458  40.421   4.830
65964W        W35845  26.693   0.950  11.481
65965W        W35846  29.463   1.898   5.188
65966W        W35847  21.162   0.429  13.064
65967W        W35848  16.600  13.153   4.671
65968W        W35849  23.118  18.135   3.844
65969W        W35850  26.987  34.028   1.827
65970W        W35851  25.108  17.206  14.414
65971W        W35852   5.830   7.780  12.569
65972W        W35853  13.785  26.556  13.954
65973W        W35854  44.475  19.224  12.504
65974W        W35855  38.834  14.602  14.378
65975W        W35856   4.248  22.107  14.024
65976W        W35857  42.313   0.468   1.225
65977W        W35858  23.702  39.841  14.450
65978W        W35859  16.619  14.286  14.913
65979W        W35860   9.260  23.187   1.299
65980W        W35861  34.065  20.763  13.856
65981W        W35862  37.051   3.266   3.647
65982W        W35863  42.372   3.882  13.003
65983W        W35864  39.941  42.832   4.333
65984W        W35865   9.856   2.956   1.334
65985W        W35866  19.249  30.604   3.355
65986W        W35867   0.248   3.303  14.925
65987W        W35868  17.661  34.460  12.419
65988W        W35869  17.656  42.032   3.336
65989W        W35870  20.099  20.127  11.893
65990W        W35871  15.643  17.770  13.821
65991W        W35872  40.872  13.802   0.434
65992W        W35873  42.506  26.177   3.217
65993W        W35874   3.389   7.237   3.694
65994W        W35875  30.109  40.827  13.814
65995W        W35876  40.330  23.987   0.786
65996W        W35877  29.633  22.663  11.430
65997W        W35878  35.021  43.507   4.213
65998W        W35879   4.708  27.522  12.572
65999W        W35880  14.738  17.305   4.113
66000W        W35881  30.935  42.807   0.790
66001W        W35882   3.946  29.563  14.894
66002W        W35883  21.250  18.729  13.541
66003W        W35884  27.673  23.086   3.668
66004W        W35885  44.792  41.398  12.996
66005W        W35886  41.389   1.767  11.443
66006W        W35887  12.230  37.987   3.631
66007W        W35888  30.090  41.301   3.347
66008W        W35889  40.905  40.447   3.805
66009W        W35890  35.972  44.474   1.259
66010W        W35891  33.391  33.539   3.684
66011W        W35892  21.021  17.740   0.260
66012W        W35893  17.605  33.093  13.406
66013W        W35894  24.085  19.580   1.258
66014W        W35895  18.638  26.990   0.335
66015W        W35896  12.226  26.490   3.834
66016W        W35897  28.158  37.340  11.396
66017W        W35898   1.953  32.007  10.908
66018W        W35899  12.649  27.147   0.433
66019W        W35900  35.098  26.482  13.916
66020W        W35901   6.689  22.192  13.542
66021W        W35902  16.715  35.361   1.364
66022W        W35903  12.813   1.465  11.548
66023W        W35904  12.149  39.538  11.555
66024W        W35905  24.061  28.446  11.542
66025W        W35906  16.157  37.395  13.847
66026W        W35907  33.398  32.458  12.377
66027W        W35908  28.486  31.103  12.926
66028W        W35909  16.568   3.324  10.577
66029W        W35910  12.690  28.060  10.479
66030W        W35911   6.894  23.721  13.822
66031W        W35912  29.118   1.793  13.483
66032W        W35913  35.092  10.690   4.125
66033W        W35914  28.121  11.186  11.599
66034W        W35915   1.839  16.722  12.345
66035W        W35916   4.934  42.904   3.367
66036W        W35917  29.425   7.178   1.918
66037W        W35918  28.456  17.253   3.726
66038W        W35919   5.341  37.876   3.671
66039W        W35920  10.665  14.211   3.226
66040W        W35921  17.697  20.155  14.423
66041W        W35922  15.672  43.962  14.292
66042W        W35923  16.216  26.519  12.373
66043W        W35924   7.339   0.748   4.653
66044W        W35925  40.379  40.998   2.277
66045W        W35926  29.536  28.948   0.811
66046W        W35927   8.376   0.258  14.334
66047W        W35928  29.510  28.141  11.857
66048W        W35929  10.676   2.227   1.857
66049W        W35930  29.138  37.480  14.319
66050W        W35931   4.942  38.514  14.462
66051W        W35932  34.865  33.988   4.189
66052W        W35933  20.108   9.798   3.828
66053W        W35934  15.674  29.163   0.452
66054W        W35935  15.288  40.519  11.556
66055W        W35936  15.290  19.544  10.466
66056W        W35937  20.135  31.581   3.736
66057W        W35938  39.836  23.076  11.876
66058W        W35939  19.142  42.498   4.652
66059W        W35940   1.358  34.554   3.632
66060W        W35941  31.079  19.094   4.259
66061W        W35942   4.852  26.026  13.332
66062W        W35943  18.745  35.467   3.795
66063W        W35944  27.606  26.685  14.960
66064W        W35945  25.069  33.068   2.216
66065W        W35946  38.882  44.819  14.842
66066W        W35947  24.172   2.892  12.017
66067W        W35948  14.698  39.482   4.313
66068W        W35949  34.051  23.640  12.855
66069W        W35950  23.681  16.240  14.295
66070W        W35951  41.491  17.255  14.862
66071W        W35952  18.287  25.077   1.737
66072W        W35953  19.651   7.694  11.947
66073W        W35954  21.661  41.447   2.871
66074W        W35955  41.384  14.671   3.733
66075W        W35956  35.474   3.427   1.933
66076W        W35957  33.584  37.505   2.721
66077W        W35958   1.974  40.996   0.753
66078W        W35959  25.515  40.812   2.751
66079W        W35960   6.853  27.457   3.638
66080W        W35961  24.526  13.240  11.042
66081W        W35962  38.484  30.654  11.893
66082W        W35963   5.298  39.958  14.373
66083W        W35964  35.573  29.666  14.332
66084W        W35965  39.544  27.604   3.231
66085W        W35966  39.977  31.646  14.759
66086W        W35967  31.624   9.803   0.276
66087W        W35968  10.373  37.857   3.376
66088W        W35969  14.594  33.510  13.424
66089W        W35970  41.872  23.537  14.475
66090W        W35971   4.769  40.969  12.571
66091W        W35972   8.776  39.403  11.406
66092W        W35973  36.857  34.528  11.896
66093W        W35974   3.309  32.395  10.628
66094W        W35975  23.181  18.698  13.965
66095W        W35976  23.624  36.420   4.758
66096W        W35977  14.118  39.379   5.802
66097W        W35978  33.553  16.803   3.779
66098W        W35979  17.684  20.095   1.329
66099W        W35980   9.643  11.321  12.845
66100W        W35981  20.050  25.578   1.741
66101W        W35982   9.280  26.003   2.381
66102W        W35983  29.648   0.453  14.515
66103W        W35984  17.644   0.853   1.429
66104W        W35985   6.717  34.980  13.914
66105W        W35986  29.054  11.816   3.172
66106W        W35987  29.498  33.131  10.962
66107W        W35988  39.360  43.443   3.731
66108W        W35989  17.168  11.633  14.929
66109W        W35990  35.049   1.938  14.391
66110W        W35991  13.322  27.492   4.296
66111W        W35992   7.689  14.100  12.354
66112W        W35993  27.968  28.014   2.352
66113W        W35994  17.287  42.462   2.299
66114W        W35995  17.723  39.330  12.899
66115W        W35996  25.052   5.220   4.672
66116W        W35997  28.078  22.997   3.252
66117W        W35998  26.561  24.484  10.924
66118W        W35999  39.349  42.973  13.484
66119W        W36000  18.135   1.236  12.048
66120W        W36001  28.039  24.035  10.068
66121W        W36002  13.203  18.785  13.506
66122W        W36003  32.041  34.566   1.817
66123W        W36004  41.886  11.135  13.336
66124W        W36005   1.807  22.671  12.359
66125W        W36006  23.733  41.407  11.577
66126W        W36007   6.864   3.819   3.771
66127W        W36008  29.077  31.479  11.872
66128W        W36009   8.700  25.562  13.423
66129W        W36010  36.377  21.235  10.570
66130W        W36011   4.345   3.373   1.286
66131W        W36012  16.682  33.429   0.339
66132W        W36013  43.441  32.454   1.801
66133W        W36014   1.295   6.347   2.221
66134W        W36015  21.646  33.108   4.130
66135W        W36016  25.545   1.829   1.304
66136W        W36017  28.109  20.598   2.869
66137W        W36018  44.871  43.965   4.354
66138W        W36019  41.918  16.645   1.322
66139W        W36020   4.327  10.258   2.336
66140W        W36021  38.326  29.494   1.257
66141W        W36022  28.457  16.208   1.343
66142W        W36023  27.635   8.669  12.043
66143W        W36024  37.395  22.685   1.737
66144W        W36025  35.877  44.934  14.912
66145W        W36026  11.860  23.989   4.766
66146W        W36027  39.948   6.862   2.387
66147W        W36028  19.087  41.515  12.029
66148W        W36029   2.842  23.712   0.335
66149W        W36030  24.606   8.348  11.381
66150W        W36031  38.470  33.586   0.469
66151W        W36032  28.631   9.799   1.779
66152W        W36033  41.966   1.920   1.853
66153W        W36034  33.443  15.118  14.943
66154W        W36035  27.982   3.396   3.766
66155W        W36036  26.129  24.718   3.845
66156W        W36037   2.786  42.470   1.432
66157W        W36038  25.072  27.947   3.303
66158W        W36039  35.876  28.548  13.447
66159W        W36040  27.567  33.536   0.842
66160W        W36041  20.618  28.125   3.685
66161W        W36042  11.250  23.714   0.307
66162W        W36043   4.741  23.098  13.539
66163W        W36044   3.816  38.450  10.618
66164W        W36045  21.221  32.110   4.272
66165W        W36046  26.492  12.139   1.419
66166W        W36047   9.833  30.470   2.205
66167W        W36048  13.146  25.680   3.344
66168W        W36049  44.493  30.950  12.454
66169W        W36050   6.813  30.096   2.302
66170W        W36051  14.146  30.562   2.821
66171W        W36052  44.346   1.380   2.185
66172W        W36053  10.148  14.760   5.323
66173W        W36054  17.666   9.884   0.748
66174W        W36055  14.180   4.840  11.943
66175W        W36056   1.738   6.794   0.735
66176W        W36057   5.874  34.444   4.797
66177W        W36058  27.613   2.824   2.837
66178W        W36059   5.398  24.074  14.886
66179W        W36060  14.669  41.506   0.247
66180W        W36061  42.006   4.389   3.743
66181W        W36062  26.189  29.639   4.208
66182W        W36063  31.603   7.332   1.363
66183W        W36064  38.507  44.417  11.927
66184W        W36065  39.988  44.811  10.537
66185W        W36066  24.720  17.082  10.922
66186W        W36067  39.921  34.878   3.817
66187W        W36068  12.733  31.933   3.711
66188W        W36069  31.078  43.939   3.727
66189W        W36070  24.055  37.895   2.781
66190W        W36071   2.336  15.701   4.768
66191W        W36072  14.645  43.342  13.875
66192W        W36073  10.743  22.556  14.481
66193W        W36074  36.037  36.454  13.516
66194W        W36075  26.992   7.803   4.786
66195W        W36076  19.638  32.069  13.838
66196W        W36077   5.777   8.193   2.408
66197W        W36078  20.661  25.971  10.608
66198W        W36079  36.046  20.669  12.957
66199W        W36080  36.589  14.722   0.815
66200W        W36081  32.427  33.949  14.813
66201W        W36082   6.829  34.073   4.810
66202W        W36083  12.789  23.533  11.095
66203W        W36084  30.479   0.458  13.869
66204W        W36085   1.772  23.215   3.861
66205W        W36086  38.049  27.562   1.934
66206W        W36087  37.845  10.164  11.514
66207W        W36088  23.112  32.077   0.257
66208W        W36089  25.473  43.907   0.283
66209W        W36090  34.410  41.524  14.464
66210W        W36091  31.925  43.984   1.802
66211W        W36092  26.994  26.082   0.871
66212W        W36093   4.811  26.633   1.786
66213W        W36094   3.880   7.397  14.364
66214W        W36095  23.107  26.028   0.855
66215W        W36096  22.603   8.691  12.385
66216W        W36097  34.042  19.233   0.950
66217W        W36098   2.951  31.140  12.937
66218W        W36099  17.113  36.351  10.489
66219W        W36100  11.744  30.052  14.004
66220W        W36101  18.611  26.466  13.032
66221W        W36102  25.080   0.321  12.353
66222W        W36103   4.700  14.745   4.292
66223W        W36104  13.238  13.348  11.052
66224W        W36105   6.391  38.536   3.213
66225W        W36106   7.853  31.488  12.994
66226W        W36107   2.872  11.855  14.447
66227W        W36108  41.426  33.555   4.769
66228W        W36109  44.371  31.025  10.604
66229W        W36110  19.162  27.450   2.372
66230W        W36111  42.863  44.287   0.279
66231W        W36112  13.722  19.136  14.020
66232W        W36113  39.501   5.866   3.690
66233W        W36114   1.770   5.263   2.261
66234W        W36115   4.906  15.774  12.386
66235W        W36116  15.311   1.269  11.114
66236W        W36117   4.819   5.317  13.030
66237W        W36118  31.508   2.727   4.218
66238W        W36119  34.370  35.870   1.340
66239W        W36120   7.742   9.286  11.037
66240W        W36121   6.292  35.037  11.086
66241W        W36122  42.792  38.390   4.329
66242W        W36123  34.410  29.608  12.937
66243W        W36124  21.755   6.363   3.150
66244W        W36125  20.047  38.416  10.638
66245W        W36126  14.723  37.381   0.831
66246W        W36127  22.250   4.821   0.813
66247W        W36128   8.803   1.947  12.527
66248W        W36129  43.894  37.473  14.451
66249W        W36130  20.724  20.159  10.494
66250W        W36131  40.864  11.677   0.382
66251W        W36132  44.006  38.051  13.456
66252W        W36133  38.385  18.581  10.612
66253W        W36134  17.772  22.102   4.768
66254W        W36135   0.921  14.590  12.832
66255W        W36136  20.651  31.050  10.513
66256W        W36137   8.378  28.635  12.495
66257W        W36138  34.062   4.729   0.284
66258W        W36139  29.081  26.492  14.446
66259W        W36140   8.219  39.330   0.735
66260W        W36141  20.697   7.200   2.198
66261W        W36142   2.952  11.688  11.446
66262W        W36143  31.986   4.826   2.191
66263W        W36144   8.380  11.263  10.976
66264W        W36145  22.149  34.107   1.891
66265W        W36146  12.299   6.811  12.497
66266W        W36147   5.921  11.762  12.915
66267W        W36148   7.908  31.026  14.500
66268W        W36149  24.134  31.523  11.089
66269W        W36150  16.735   7.292  14.902
66270W        W36151  16.778   1.966  14.480
66271W        W36152   5.317  22.205   4.296
66272W        W36153  39.851   3.432   2.276
66273W        W36154   6.208  33.466  12.833
66274W        W36155  19.648   3.441  11.424
66275W        W36156  26.103   3.292  13.061
66276W        W36157   7.375  25.086   2.812
66277W        W36158  14.309   3.904   2.876
66278W        W36159  15.671  26.517   4.257
66279W        W36160   0.431  10.234   2.242
66280W        W36161  44.495  22.723  14.779
66281W        W36162  11.183   2.739   2.244
66282W        W36163  16.101  32.531  12.063
66283W        W36164  40.472  10.348  14.478
66284W        W36165  20.568  16.744  11.958
66285W        W36166  14.197  24.615   3.663
66286W        W36167   5.291   7.711   4.248
66287W        W36168  25.131   1.265   1.224
66288W        W36169  43.812   8.184   2.806
66289W        W36170  24.109  28.643   0.751
66290W        W36171  33.938   4.913  13.389
66291W        W36172   6.366  25.129   1.830
66292W        W36173  43.943  32.943   1.260
66293W        W36174  22.996   9.209   3.174
66294W        W36175   9.181  38.048   1.774
66295W        W36176   9.223   5.799   4.791
66296W        W36177  37.053   1.868   1.915
66297W        W36178  37.507  29.428   4.780
66298W        W36179   0.438  40.977  13.921
66299W        W36180   5.218  34.420  13.055
66300W        W36181  37.938  44.927  11.126
66301W        W36182  22.011   0.791  11.028
66302W        W36183  43.768  33.958   4.832
66303W        W36184   8.403  17.696   3.304
66304W        W36185  30.580   8.186  11.612
66305W        W36186  32.438  32.408   4.140
66306W        W36187  38.557   2.885  12.558
66307W        W36188  11.231  38.488  11.063
66308W        W36189  37.967   8.663  10.570
66309W        W36190  31.429  20.099   0.864
66310W        W36191  28.993  26.661  13.474
66311W        W36192  41.332   4.879  13.428
66312W        W36193  18.167  13.792   3.230
66313W        W36194  39.814  24.991  11.963
66314W        W36195  41.956   3.830   1.699
66315W        W36196  31.540  18.142   0.295
66316W        W36197  38.424   6.715  11.955
66317W        W36198  18.111  19.756  11.522
66318W        W36199  11.829  16.643  11.414
66319W        W36200   0.401  25.671  11.423
66320W        W36201  36.571  34.527  13.962
66321W        W36202  37.910  17.100   4.650
66322W        W36203  43.400  44.428  12.965
66323W        W36204  25.678   7.754  14.841
66324W        W36205  31.012  35.939  11.569
66325W        W36206  12.821  13.250  10.551
66326W        W36207  32.074   9.324   2.181
66327W        W36208   8.770  25.045  12.486
66328W        W36209  30.545  15.128   3.220
66329W        W36210  30.577  18.182  10.450
66330W        W36211  20.644  31.617   1.879
66331W        W36212  17.628  43.416   2.217
66332W        W36213  29.606  33.417  13.543
66333W        W36214  38.891  10.335   1.753
66334W        W36215  43.790  26.606  11.398
66335W        W36216   1.432  35.962   4.806
66336W        W36217   4.449  36.962   4.251
66337W        W36218  41.916  24.212   1.332
66338W        W36219  43.391  28.066   4.143
66339W        W36220  39.010  39.956  10.489
66340W        W36221  12.178  14.635   3.696
66341W        W36222   7.198  29.541  11.605
66342W        W36223  37.509  37.984  13.315
66343W        W36224  40.886  30.011   1.225
66344W        W36225  24.225  42.955  12.513
66345W        W36226  44.350  10.744  14.854
66346W        W36227  23.239  33.035   4.296
66347W        W36228   3.312   1.934   4.228
66348W        W36229   0.969  36.074  10.999
66349W        W36230   0.916   6.293  10.998
66350W        W36231  28.559   0.295  12.462
66351W        W36232  40.980  42.811   4.304
66352W        W36233  19.700  28.120   0.309
66353W        W36234  19.258  17.564   1.346
66354W        W36235  34.512  34.455  12.042
66355W        W36236  43.842  24.605  12.029
66356W        W36237  26.612  31.080   4.779
66357W        W36238   9.889  33.447   2.253
66358W        W36239  36.579  16.143   0.770
66359W        W36240  24.560  13.270   1.247
66360W        W36241   4.358  44.799   1.722
66361W        W36242  38.889  14.656  13.458
66362W        W36243  33.600  43.840  10.907
66363W        W36244  30.646  44.850  10.455
66364W        W36245  18.094  20.572  14.956
66365W        W36246  12.279   5.735   1.281
66366W        W36247  10.805  14.139  12.362
66367W        W36248  27.682   5.193   2.823
66368W        W36249  29.434   3.948   4.195
66369W        W36250   7.206  11.370  14.428
66370W        W36251   4.255  20.642   1.250
66371W        W36252  31.552  39.865  14.450
66372W        W36253  15.763  22.196   2.773
66373W        W36254  15.134  28.628   0.386
66374W        W36255  39.863  37.480  10.960
66375W        W36256   1.757  39.544  12.092
66376W        W36257  20.732  28.998  10.112
66377W        W36258  32.017   6.691  11.894
66378W        W36259  38.570  22.043   0.413
66379W        W36260  13.798  14.741  12.464
66380W        W36261  40.370   0.801   3.357
66381W        W36262  43.006  38.991  14.409
66382W        W36263   2.955  23.554  14.358
66383W        W36264  10.635   6.871  13.024
66384W        W36265  35.983  23.652   2.396
66385W        W36266  44.808  35.106  14.380
66386W        W36267  14.281  14.589   2.210
66387W        W36268   4.874  35.024   3.842
66388W        W36269  31.120   9.779   1.829
66389W        W36270  10.286  26.123  14.854
66390W        W36271  43.820  33.117   3.728
66391W        W36272  41.300   2.380   1.703
66392W        W36273  11.808  29.967  11.037
66393W        W36274  16.717   6.266  12.069
66394W        W36275  13.322   6.399  12.920
66395W        W36276  39.994  33.040  14.421
66396W        W36277  35.579   0.780  11.381
66397W        W36278  40.406  14.786  12.368
66398W        W36279  18.211   0.393   3.357
66399W        W36280  17.286  24.548  12.434
66400W        W36281  43.843  20.031   1.768
66401W        W36282  30.092  23.131  12.356
66402W        W36283  12.346  44.991   4.661
66403W        W36284  44.360   9.358  14.472
66404W        W36285  29.009  18.660   4.158
66405W        W36286  29.579  25.525   5.113
66406W        W36287  44.357  18.776  14.430
66407W        W36288  41.448  39.434  12.998
66408W        W36289   0.281  39.993  14.341
66409W        W36290  25.653  34.472  14.369
66410W        W36291  36.915  19.055  11.862
66411W        W36292  26.097  25.691   4.276
66412W        W36293  22.173  17.173   0.923
66413W        W36294   0.846  14.817  10.957
66414W        W36295   0.742  36.027  12.068
66415W        W36296  31.969   2.915  12.990
66416W        W36297  31.106  22.127   2.341
66417W        W36298  44.802   8.884  14.881
66418W        W36299  32.417  17.795  12.036
66419W        W36300  33.469   8.658  13.919
66420W        W36301  21.607   1.254  14.979
66421W        W36302  30.647  25.185   3.151
66422W        W36303  42.986  34.019   0.371
66423W        W36304  13.841  18.132   4.200
66424W        W36305   0.366  14.148   0.395
66425W        W36306  10.237  17.584   0.921
66426W        W36307   1.951  34.085  12.004
66427W        W36308  37.473  43.470   3.738
66428W        W36309   0.489  43.370   4.774
66429W        W36310   3.955  33.547   1.278
66430W        W36311  43.417  43.368  14.366
66431W        W36312  37.479   0.265  13.548
66432W        W36313  38.855  16.293   1.843
66433W        W36314  31.595  28.075   0.300
66434W        W36315  18.182  27.978  14.990
66435W        W36316  12.318  23.679  11.102
66436W        W36317  44.010  26.110   1.764
66437W        W36318  29.026   7.246  11.482
66438W        W36319   5.771  25.654  14.764
66439W        W36320  10.721  13.285   4.808
66440W        W36321  23.147  28.480   4.736
66441W        W36322  38.373  37.565  12.070
66442W        W36323  10.218  40.413  14.771
66443W        W36324  10.257  35.581   1.787
66444W        W36325   6.738  25.645   0.457
66445W        W36326  24.692  29.972  11.478
66446W        W36327  37.081  22.743  13.539
66447W        W36328  27.105  17.263   3.861
66448W        W36329  43.996  21.145  11.512
66449W        W36330   0.491  36.046  12.866
66450W        W36331  26.014  13.683   2.739
66451W        W36332   9.185  28.121   4.178
66452W        W36333  32.889  34.501   3.297
66453W        W36334  23.150  24.106   2.383
66454W        W36335  19.048  30.035   9.948
66455W        W36336  11.274  39.425   3.257
66456W        W36337   6.359  16.098   4.634
66457W        W36338  24.532  18.551  11.923
66458W        W36339  17.750  23.214   3.833
66459W        W36340  33.995  14.629  12.397
66460W        W36341  24.534  24.497   4.321
66461W        W36342  28.965  44.456  10.597
66462W        W36343  19.663  26.647   9.971
66463W        W36344  39.980  39.869   3.371
66464W        W36345  27.519  36.981   1.838
66465W        W36346  40.357  33.000   1.911
66466W        W36347  33.533  27.186  11.604
66467W        W36348  16.279  37.900   0.791
66468W        W36349  36.534  37.566   3.358
66469W        W36350  29.506  35.512  10.496
66470W        W36351   9.674  24.029   2.769
66471W        W36352  30.584   6.193  14.872
66472W        W36353  43.378   3.360   3.376
66473W        W36354   0.360  20.241  12.075
66474W        W36355  31.011  12.116   3.300
66475W        W36356  30.655   5.745   0.870
66476W        W36357   1.342  42.522   0.848
66477W        W36358  42.956   9.668  13.312
66478W        W36359  32.423  44.899   0.816
66479W        W36360  24.070  10.749  14.888
66480W        W36361   9.788   2.344  13.942
66481W        W36362  19.653  37.087   1.313
66482W        W36363  24.189  16.271   4.654
66483W        W36364  31.960  10.176  11.101
66484W        W36365  42.393  19.606   2.387
66485W        W36366  26.059  12.288   1.348
66486W        W36367  30.659  35.996  14.923
66487W        W36368  41.817   5.758  13.888
66488W        W36369   2.249  37.379   5.218
66489W        W36370  12.837  37.528   3.864
66490W        W36371  41.869  39.395   2.372
66491W        W36372  37.536  13.208   3.234
66492W        W36373  40.906   0.451   2.729
66493W        W36374  21.648  20.694   3.271
66494W        W36375   0.374  14.218   2.738
66495W        W36376   8.359  19.045   0.336
66496W        W36377  25.047  18.192   0.853
66497W        W36378  22.605  36.516  13.445
66498W        W36379  26.509  15.215   1.258
66499W        W36380  18.746   2.730   4.684
66500W        W36381  40.924  33.563  12.016
66501W        W36382  43.818  23.019   0.416
66502W        W36383   6.216   4.915   1.267
66503W        W36384   0.276   5.318  14.792
66504W        W36385  40.356   0.947  13.320
66505W        W36386  20.689  14.205  11.445
66506W        W36387  18.110  11.284   4.182
66507W        W36388  21.247  36.918  13.393
66508W        W36389  39.320   1.934  11.548
66509W        W36390  20.621  34.511  14.313
66510W        W36391  34.016  32.061  14.844
66511W        W36392  12.681  18.600  13.917
66512W        W36393  22.731  39.846   0.950
66513W        W36394  26.577  32.419   3.658
66514W        W36395  40.813  32.462  10.969
66515W        W36396  10.146  31.564   4.215
66516W        W36397  25.545  14.154  11.546
66517W        W36398   4.829  31.532  12.409
66518W        W36399  25.711  34.506   3.634
66519W        W36400  29.939  33.945   2.186
66520W        W36401   8.382  25.609   3.643
66521W        W36402   8.832  31.446  14.815
66522W        W36403  31.516  44.403   4.838
66523W        W36404   0.842  25.585  13.892
66524W        W36405  38.003  30.068   3.279
66525W        W36406  29.046  39.374  10.509
66526W        W36407  16.776   2.803  10.539
66527W        W36408  18.650   8.852   3.834
66528W        W36409  30.591   7.400  12.022
66529W        W36410  19.694  14.138  13.536
66530W        W36411  29.578  38.505  13.427
66531W        W36412  44.502  23.713   0.911
66532W        W36413  29.592   1.441   4.660
66533W        W36414  11.678   3.241  11.910
66534W        W36415  20.565  44.781  13.460
66535W        W36416  15.096   0.454   4.704
66536W        W36417  13.323  30.447  14.280
66537W        W36418  31.912   7.899  13.026
66538W        W36419  29.951  21.746   0.898
66539W        W36420  22.224  22.079   4.230
66540W        W36421  12.731   0.286   3.801
66541W        W36422  33.447  11.790   2.783
66542W        W36423  24.080  21.738   3.847
66543W        W36424  34.094   4.899  14.893
66544W        W36425  31.438  12.782  11.374
66545W        W36426   8.295  35.579  12.352
66546W        W36427  13.615  33.517  10.512
66547W        W36428   4.449   7.309   2.332
66548W        W36429  19.179   3.451   3.246
66549W        W36430   2.447  25.503  11.124
66550W        W36431  32.015  31.438  12.039
66551W        W36432  22.998  33.474  14.499
66552W        W36433   3.233  11.335  14.499
66553W        W36434  10.662  30.570   1.213
66554W        W36435  34.403  31.531   2.178
66555W        W36436  33.102  13.327   1.848
66556W        W36437   9.261  37.962  13.000
66557W        W36438  26.568  29.997  12.444
66558W        W36439  36.458  21.040  11.412
66559W        W36440  42.387  11.799  12.475
66560W        W36441  24.594  18.632  11.007
66561W        W36442   8.226  42.295   2.716
66562W        W36443  40.421  14.768   3.662
66563W        W36444  30.084  33.115  11.913
66564W        W36445  27.516  12.250   4.182
66565W        W36446  29.977  44.415   2.819
66566W        W36447   7.901   0.337  14.776
66567W        W36448  26.032  19.739  11.954
66568W        W36449   6.348   2.409  12.981
66569W        W36450  26.655  37.443  13.379
66570W        W36451  42.920   9.186   4.336
66571W        W36452  12.321  10.332   0.894
66572W        W36453   3.442  31.113   2.752
66573W        W36454   4.326  16.695  13.005
66574W        W36455  34.083  25.117   3.169
66575W        W36456  32.047   7.837   5.137
66576W        W36457  19.234   1.310  11.888
66577W        W36458  20.125  37.876  12.409
66578W        W36459  33.501  13.236  12.978
66579W        W36460   9.165  10.215   3.314
66580W        W36461  34.403  37.499  12.439
66581W        W36462  28.489  25.579  11.099
66582W        W36463   7.286   5.878  11.379
66583W        W36464  26.517  20.158   0.411
66584W        W36465  13.254  39.420   0.295
66585W        W36466  28.672  44.927   2.191
66586W        W36467  37.984  38.913   2.393
66587W        W36468  32.917   1.751   3.344
66588W        W36469  20.710  30.486   1.735
66589W        W36470  37.008  21.738  11.411
66590W        W36471   5.741   1.453  11.068
66591W        W36472  36.995  22.620   4.678
66592W        W36473  37.391  43.985  13.817
66593W        W36474  40.002  24.540  13.824
66594W        W36475  40.429  28.100   2.308
66595W        W36476  22.183  33.874   3.853
66596W        W36477  44.434  28.092  14.402
66597W        W36478   0.988  30.493  13.829
66598W        W36479  10.311  26.550   0.329
66599W        W36480   9.789   7.329  13.890
66600W        W36481   2.345  32.575   0.389
66601W        W36482  44.989  25.064  13.932
66602W        W36483  43.931  36.915  11.953
66603W        W36484   5.352  22.174  12.038
66604W        W36485  27.150   6.406   2.662
66605W        W36486  14.325  23.568  14.467
66606W        W36487  19.665  28.617   3.223
66607W        W36488  25.161   2.822  12.826
66608W        W36489   3.936   0.465   0.822
66609W        W36490  12.156  31.041  12.906
66610W        W36491  10.349  24.527   0.253
66611W        W36492  38.840  23.529  13.930
66612W        W36493   0.301  31.981   4.728
66613W        W36494  42.898  29.509  11.546
66614W        W36495  17.685   7.277  13.427
66615W        W36496  12.219  44.998   0.339
66616W        W36497   5.752  20.055  13.510
66617W        W36498  27.509   1.861  11.459
66618W        W36499  41.532   2.763  11.908
66619W        W36500  28.127  37.865   0.307
66620W        W36501  12.732   2.789   4.657
66621W        W36502   3.821  44.448   0.413
66622W        W36503   0.350  23.735   3.749
66623W        W36504  21.746  25.534  14.028
66624W        W36505  14.732  18.121   4.703
66625W        W36506  24.230  20.198  13.994
66626W        W36507  20.117  26.149   3.686
66627W        W36508  27.104  33.516  14.950
66628W        W36509  36.983   0.344   3.682
66629W        W36510   1.454   5.397   1.274
66630W        W36511  39.058  30.620  13.473
66631W        W36512  43.852  43.905   3.353
66632W        W36513  42.962   6.308  14.367
66633W        W36514   9.861  15.252  13.420
66634W        W36515   3.426  13.239   1.386
66635W        W36516   4.244  16.784  10.560
66636W        W36517  40.500   5.722  12.361
66637W        W36518  12.216  36.095  12.952
66638W        W36519   8.724  18.206   1.217
66639W        W36520  37.903  30.609   3.251
66640W        W36521  38.862  21.257  12.993
66641W        W36522  38.989  28.492   3.320
66642W        W36523  22.023  43.847  13.941
66643W        W36524  15.217  36.975   9.503
66644W        W36525  21.706  27.074  12.064
66645W        W36526  23.141  20.083   0.340
66646W        W36527   2.424  38.401   4.718
66647W        W36528  39.456  25.146   1.270
66648W        W36529  24.035  36.010   4.238
66649W        W36530  15.130   2.373   0.739
66650W        W36531   5.740  13.239   0.478
66651W        W36532  11.769   0.301  14.932
66652W        W36533  42.507  10.634   2.216
66653W        W36534  27.135  25.489  13.019
66654W        W36535  42.441  20.061  12.846
66655W        W36536  39.330  40.826   1.388
66656W        W36537  15.278   0.902   1.791
66657W        W36538  29.991   6.777   4.775
66658W        W36539   7.750  10.197   2.744
66659W        W36540  18.772  15.639  13.900
66660W        W36541  25.119  32.448   0.401
66661W        W36542   6.750   8.671  11.934
66662W        W36543  21.086   0.477   3.818
66663W        W36544  11.181  24.580  10.487
66664W        W36545  29.585  35.549  14.444
66665W        W36546  19.171  35.534  12.919
66666W        W36547  14.268  10.198  10.524
66667W        W36548  16.585  13.711   4.640
66668W        W36549  24.535  34.084   2.669
66669W        W36550  22.512  41.418   1.846
66670W        W36551   4.937  12.335  11.875
66671W        W36552  43.370   7.297   3.740
66672W        W36553  19.206  21.150  12.339
66673W        W36554   7.838  41.512   2.849
66674W        W36555  16.635  36.508  14.025
66675W        W36556   5.829  20.659  10.492
66676W        W36557  23.116   9.844  12.853
66677W        W36558  38.873  31.618  13.951
66678W        W36559   1.791  42.017   4.261
66679W        W36560  17.229  29.167  12.358
66680W        W36561  14.606  25.535  14.794
66681W        W36562  28.961   5.394   4.178
66682W        W36563  42.903  42.428  11.945
66683W        W36564  35.039  43.799   0.281
66684W        W36565  26.973   5.231   4.600
66685W        W36566  41.354  39.465   0.482
66686W        W36567  29.055  22.652  11.045
66687W        W36568  43.377  21.176  10.142
66688W        W36569  39.844  17.106   3.822
66689W        W36570  34.547  16.300   2.215
66690W        W36571   7.242  31.947   3.327
66691W        W36572   2.941  44.011  13.974
66692W        W36573  44.836  15.096   1.719
66693W        W36574  44.967  36.933   4.128
66694W        W36575  38.954  22.643   3.206
66695W        W36576  25.667  43.427   4.830
66696W        W36577  32.129  21.700   1.341
66697W        W36578  16.194  38.547   0.479
66698W        W36579  15.602  20.181   1.867
66699W        W36580  40.026  41.886  11.915
66700W        W36581   7.212  36.550   3.631
66701W        W36582  27.978  25.531  10.981
66702W        W36583  16.591  29.115  12.839
66703W        W36584   6.837  12.817  14.848
66704W        W36585   8.801  19.239   3.667
66705W        W36586   2.386  31.943  10.889
66706W        W36587  40.010  32.885   1.422
66707W        W36588  23.231  23.205   1.214
66708W        W36589  14.173  35.449  13.373
66709W        W36590  24.021  22.126   3.759
66710W        W36591  11.164  29.442  14.467
66711W        W36592  36.945  35.013   1.300
66712W        W36593  34.035   4.324   0.429
66713W        W36594   0.931  18.108   4.760
66714W        W36595  19.766  33.502  12.062
66715W        W36596  41.929  30.160  12.362
66716W        W36597   0.784  38.534   4.225
66717W        W36598  12.636  11.828   3.734
66718W        W36599  22.999  19.277  13.001
66719W        W36600   6.300   8.793  10.995
66720W        W36601   6.233  18.632  13.038
66721W        W36602  10.837   2.857   4.335
66722W        W36603  27.603  16.697  13.540
66723W        W36604  31.585  13.308  10.905
66724W        W36605  16.593  31.076  13.991
66725W        W36606   9.199  29.032  12.381
66726W        W36607   8.895  30.649  13.542
66727W        W36608  38.956  27.987  10.591
66728W        W36609   5.933  17.767   2.710
66729W        W36610  34.532  19.734   5.195
66730W        W36611  26.616  38.947   0.422
66731W        W36612  18.074  31.465  13.828
66732W        W36613  18.571  34.017   0.342
66733W        W36614  11.281  15.259  14.820
66734W        W36615  34.476   8.696   3.798
66735W        W36616  37.868  26.662  14.340
66736W        W36617   6.915  21.682   4.770
66737W        W36618  44.489   6.719  10.988
66738W        W36619  32.630  41.872  13.970
66739W        W36620  25.640  37.446  13.823
66740W        W36621   1.474  41.032   1.765
66741W        W36622  22.065  12.746   2.664
66742W        W36623  39.841  41.873   3.836
66743W        W36624  10.346  31.023  10.410
66744W        W36625  44.794   6.258   0.360
66745W        W36626  27.006  34.444  11.392
66746W        W36627  39.412   7.403   5.114
66747W        W36628   8.345   7.260  14.369
66748W        W36629  38.373  32.106  13.940
66749W        W36630  36.394  19.653   0.874
66750W        W36631  14.655   1.353   2.782
66751W        W36632   5.764  16.569  14.885
66752W        W36633  27.972  24.158   0.326
66753W        W36634  25.595   5.288  11.380
66754W        W36635  27.179  43.461  13.313
66755W        W36636  32.006  16.253   5.099
66756W        W36637  13.637   1.309  13.386
66757W        W36638   9.718  23.208  13.872
66758W        W36639   6.869  42.831   3.293
66759W        W36640  18.622  25.572  11.014
66760W        W36641  23.067  31.021   3.204
66761W        W36642   9.677  14.320   0.344
66762W        W36643  26.465  10.341  14.459
66763W        W36644  26.654  14.768   0.953
66764W        W36645  13.224  43.785  12.549
66765W        W36646  28.629  21.671  12.066
66766W        W36647  22.217  13.135  13.477
66767W        W36648  37.964  20.266   1.842
66768W        W36649   9.356   5.788  13.954
66769W        W36650  40.435  10.877   4.319
66770W        W36651  17.657  24.664   1.832
66771W        W36652  24.070  37.854   0.798
66772W        W36653   6.859  20.222  13.056
66773W        W36654  42.983  26.568   4.213
66774W        W36655  17.781  36.581   2.708
66775W        W36656  26.118  31.153  14.024
66776W        W36657  24.127  23.727   3.716
66777W        W36658  15.105   6.398  11.466
66778W        W36659  33.955   8.658  13.814
66779W        W36660  35.029  29.541  14.469
66780W        W36661   3.245   4.361   2.879
66781W        W36662  23.632   5.762  14.017
66782W        W36663  38.460  29.649  13.050
66783W        W36664  22.572  39.034   1.375
66784W        W36665  19.197  40.492  11.905
66785W        W36666  18.553  20.042   2.265
66786W        W36667   1.359  17.747   0.428
66787W        W36668   3.793  11.370   3.681
66788W        W36669  33.380  28.125  13.420
66789W        W36670   7.732  36.513   2.800
66790W        W36671  35.539  27.992  11.865
66791W        W36672  24.992  32.426  13.806
66792W        W36673  20.645  40.466   4.654
66793W        W36674  38.532  40.319  12.556
66794W        W36675  27.016  44.010   0.788
66795W        W36676  33.942  15.246  14.782
66796W        W36677  21.556  25.569  11.041
66797W        W36678  17.604  15.786  14.966
66798W        W36679  34.063  20.543   1.445
66799W        W36680  32.997  14.244   0.928
66800W        W36681  28.165  37.569   1.831
66801W        W36682  20.676  17.792   2.379
66802W        W36683   7.786  39.948  14.781
66803W        W36684  25.193  41.921   3.632
66804W        W36685  33.479   2.263   3.784
66805W        W36686  42.918  32.078   1.815
66806W        W36687  20.692  14.309   4.140
66807W        W36688  37.412   2.859  14.292
66808W        W36689  22.729   4.354   9.955
66809W        W36690  33.574  16.663  14.869
66810W        W36691  40.882  19.728   4.641
66811W        W36692  31.914  37.937  10.951
66812W        W36693  23.584   7.356   1.280
66813W        W36694  21.099  25.116  12.561
66814W        W36695   7.789  33.424   1.437
66815W        W36696   2.446  19.728   2.397
66816W        W36697  12.778  34.876  10.429
66817W        W36698  17.608  30.492  11.389
66818W        W36699  40.989  20.703   3.788
66819W        W36700  38.060  17.163  11.468
66820W        W36701  12.244  28.645  11.006
66821W        W36702  35.425  32.049   1.409
66822W        W36703  33.429  33.589  14.402
66823W        W36704   5.377   6.310   3.352
66824W        W36705  27.079  42.947   2.764
66825W        W36706  31.414  18.241   3.710
66826W        W36707  31.103  34.589   5.262
66827W        W36708  17.084  19.179   2.700
66828W        W36709  18.708  30.134   5.310
66829W        W36710  18.739  27.491   3.371
66830W        W36711  35.582  16.138   3.149
66831W        W36712  24.481  12.134   3.829
66832W        W36713   8.671  18.731   2.375
66833W        W36714   4.402  17.085  11.059
66834W        W36715   6.855  17.166  11.426
66835W        W36716  22.025   0.249   2.230
66836W        W36717  25.985   7.395   2.330
66837W        W36718   3.897  19.233  12.424
66838W        W36719  15.105  21.548  10.590
66839W        W36720  41.305  43.813   3.245
66840W        W36721   9.157  13.644   4.153
66841W        W36722  27.105   9.765   3.376
66842W        W36723  15.139  21.633  12.891
66843W        W36724  34.414  25.512   2.317
66844W        W36725  28.525  19.075   3.158
66845W        W36726   5.251  17.685  12.024
66846W        W36727  18.060   1.372  12.563
66847W        W36728  11.627  22.595  12.406
66848W        W36729   7.683  29.539  14.446
66849W        W36730  38.026  16.227  11.458
66850W        W36731  40.905  35.071  13.494
66851W        W36732   6.890  31.896  11.445
66852W        W36733  41.041   1.334   4.152
66853W        W36734  26.481   7.191   4.204
66854W        W36735  38.469  38.902  12.569
66855W        W36736  25.711  27.992  11.440
66856W        W36737  28.437   5.803   1.263
66857W        W36738  24.698  31.503   2.819
66858W        W36739  10.221  27.516   4.192
66859W        W36740   4.425  34.480  14.407
66860W        W36741  26.087  31.924  14.441
66861W        W36742   9.792  23.062  11.458
66862W        W36743  22.048  26.638   0.419
66863W        W36744  27.074  41.014  11.869
66864W        W36745  21.209  14.780   4.348
66865W        W36746   4.821   6.264   4.263
66866W        W36747  14.114  17.585  13.422
66867W        W36748  32.542  11.174   4.723
66868W        W36749  36.413  33.381   3.718
66869W        W36750  43.819   6.298   0.479
66870W        W36751  43.973  26.010   3.672
66871W        W36752  20.047  35.008  10.062
66872W        W36753  42.923  41.921  12.952
66873W        W36754  18.753  34.449   1.757
66874W        W36755   9.318  39.515   4.175
66875W        W36756  23.517  15.729   1.809
66876W        W36757  41.021  16.256   3.692
66877W        W36758  31.406  35.977   0.790
66878W        W36759  18.233  31.040  10.485
66879W        W36760  44.921   8.882   1.910
66880W        W36761   9.824   2.810  12.545
66881W        W36762   1.749   6.186  13.368
66882W        W36763   0.805   1.732  14.409
66883W        W36764  38.052  16.114   1.255
66884W        W36765   3.844   6.398  13.537
66885W        W36766  25.048   5.316  14.459
66886W        W36767  26.492   2.356   5.280
66887W        W36768   1.896  44.480   0.471
66888W        W36769  35.549  12.797   0.256
66889W        W36770  36.470  42.380  11.444
66890W        W36771  30.073  43.824  13.810
66891W        W36772   8.250  26.033  10.635
66892W        W36773  15.587   5.793   1.344
66893W        W36774  14.229  40.498  13.329
66894W        W36775  42.824  15.212  11.493
66895W        W36776  10.285  14.625  14.884
66896W        W36777  33.042  33.063   1.904
66897W        W36778  20.559  22.699   0.344
66898W        W36779   9.797  24.034   2.194
66899W        W36780  32.053  19.108  13.392
66900W        W36781  19.609  41.301  12.017
66901W        W36782  14.294  42.024  12.999
66902W        W36783  24.170  15.618  12.833
66903W        W36784  14.770  44.851  11.126
66904W        W36785  32.920  11.265   1.929
66905W        W36786  28.120  23.658   9.468
66906W        W36787  33.999   1.277   4.681
66907W        W36788   1.422  10.277  13.885
66908W        W36789  32.964  40.529  14.862
66909W        W36790  25.149  26.461   2.299
66910W        W36791  21.733  12.637   4.800
66911W        W36792   4.323  37.546   3.355
66912W        W36793  18.081  10.815   3.279
66913W        W36794  15.682  28.111   5.111
66914W        W36795  36.059  19.674   2.769
66915W        W36796  25.479  32.054  14.446
66916W        W36797  33.499  34.022   4.169
66917W        W36798  28.974  23.029   4.612
66918W        W36799  11.342  27.045   4.781
66919W        W36800   2.244  11.229   1.429
66920W        W36801  17.302   0.855  12.467
66921W        W36802  40.974  23.615   4.771
66922W        W36803  24.490  38.455   3.838
66923W        W36804  22.663  12.314   1.354
66924W        W36805   7.880   7.254   0.812
66925W        W36806  26.682  38.076  11.583
66926W        W36807  27.605  32.992  11.400
66927W        W36808  34.985  34.436   4.751
66928W        W36809  20.141   3.226  11.860
66929W        W36810  37.537  27.967  12.043
66930W        W36811  25.580  19.635  13.418
66931W        W36812  12.328  26.502  14.367
66932W        W36813   9.643  26.651   2.254
66933W        W36814  10.382  16.804   5.190
66934W        W36815  32.444   2.234   1.261
66935W        W36816  38.386  38.435   3.744
66936W        W36817   6.782  43.961   0.326
66937W        W36818  40.440  30.644   3.687
66938W        W36819  36.590  28.138   4.268
66939W        W36820  36.961  42.843   0.883
66940W        W36821  17.084  22.578   1.450
66941W        W36822  12.632   4.853  10.550
66942W        W36823  27.459  18.144   1.366
66943W        W36824  13.632  22.734  14.340
66944W        W36825  20.246  39.026  11.054
66945W        W36826  29.028  43.380   3.360
66946W        W36827  10.778  43.801  10.603
66947W        W36828   4.809  14.809   0.355
66948W        W36829   4.769   5.380   1.721
66949W        W36830   4.407  35.010   0.756
66950W        W36831   8.719  28.031   1.869
66951W        W36832  13.605  10.280  10.559
66952W        W36833  13.316   2.243   2.245
66953W        W36834  24.997  31.963   0.300
66954W        W36835  20.645  40.320   0.751
66955W        W36836  28.034  22.055  11.940
66956W        W36837  38.977  28.055  14.896
66957W        W36838  44.769  28.000   4.310
66958W        W36839   7.685  24.549   1.404
66959W        W36840  15.138  37.911  11.436
66960W        W36841  34.886  28.677   2.780
66961W        W36842  33.471  17.276  10.151
66962W        W36843  22.045  20.231  14.848
66963W        W36844  43.922  35.508  12.968
66964W        W36845  41.492  18.712   4.124
66965W        W36846  34.377  31.468   0.381
66966W        W36847   8.849  23.551  13.859
66967W        W36848   2.827  31.149   3.700
66968W        W36849   8.214   9.873  13.887
66969W        W36850  27.456  26.478  11.402
66970W        W36851  21.639  20.628   1.320
66971W        W36852  12.282  31.493  12.841
66972W        W36853  31.906   3.327  10.592
66973W        W36854  40.469   7.175   3.210
66974W        W36855  17.285  34.465  10.894
66975W        W36856  38.397  11.693   4.600
66976W        W36857   3.884  42.789   2.700
66977W        W36858  33.103  18.053  11.378
66978W        W36859  28.458  25.214  13.531
66979W        W36860   0.874  28.451   3.741
66980W        W36861  11.231   5.296  14.868
66981W        W36862   0.786  11.313  14.429
66982W        W36863  16.665  17.717  12.023
66983W        W36864  20.164  12.299  11.017
66984W        W36865  38.009  32.488   3.785
66985W        W36866  41.794  27.151  12.831
66986W        W36867  32.891  25.618  12.012
66987W        W36868  37.352  36.921  11.974
66988W        W36869  27.533  37.500   2.843
66989W        W36870  15.205  31.042  11.414
66990W        W36871  29.123  25.988   3.653
66991W        W36872   7.370  33.538   1.248
66992W        W36873   5.926  12.136  11.006
66993W        W36874  38.075  31.969  14.796
66994W        W36875  38.936  35.465   2.340
66995W        W36876   4.333  29.072  13.914
66996W        W36877   0.827  22.663   0.299
66997W        W36878  38.917  39.436   4.247
66998W        W36879  16.167  21.121  11.958
66999W        W36880  43.786   1.333   1.694
67000W        W36881  14.194   4.210   1.870
67001W        W36882  25.099  16.140  11.056
67002W        W36883   1.803  13.153  11.971
67003W        W36884  43.953   7.298  12.942
67004W        W36885  25.554  26.524   3.251
67005W        W36886   5.711  44.324   4.751
67006W        W36887  34.997  42.515  13.967
67007W        W36888   2.262  28.648   2.745
67008W        W36889  20.716  34.083   3.837
67009W        W36890  17.590   7.790  14.795
67010W        W36891  19.736  14.745   3.361
67011W        W36892  32.554   6.679  11.006
67012W        W36893   9.173  21.110   4.706
67013W        W36894  35.433  28.115   3.221
67014W        W36895  34.599   3.339   1.411
67015W        W36896  38.470  34.427   4.155
67016W        W36897   2.921  30.144   3.820
67017W        W36898  20.667   3.781   2.237
67018W        W36899  11.218  13.253   0.298
67019W        W36900  34.494  22.695  12.048
67020W        W36901  29.526  21.234  11.587
67021W        W36902  34.921   3.358   2.374
67022W        W36903  42.793  28.591  14.406
67023W        W36904  18.095  22.096  10.452
67024W        W36905  29.964   2.865  11.587
67025W        W36906   7.681  10.714   0.795
67026W        W36907   7.214  26.968  14.323
67027W        W36908  37.483  15.086  14.328
67028W        W36909  12.835  43.329  11.409
67029W        W36910  35.586  10.353   0.939
67030W        W36911  35.519  11.319  13.338
67031W        W36912  19.743   9.246   0.772
67032W        W36913   0.773   3.726   3.146
67033W        W36914  29.643  30.582  14.395
67034W        W36915  34.400  17.141  13.387
67035W        W36916   0.481  28.952   2.766
67036W        W36917  35.069  42.016  11.105
67037W        W36918  19.774  26.499   2.864
67038W        W36919  42.337   9.737  14.480
67039W        W36920  42.335  36.394  10.473
67040W        W36921  31.580   4.724  12.493
67041W        W36922  36.552  26.595   4.745
67042W        W36923  19.686  30.096  13.979
67043W        W36924  13.237  33.618   1.353
67044W        W36925  44.482  35.000   0.804
67045W        W36926  11.671  25.185  13.799
67046W        W36927   8.692  23.617   0.959
67047W        W36928  16.147  31.542   3.742
67048W        W36929  31.422  17.189  13.012
67049W        W36930  22.707  12.618   3.799
67050W        W36931  12.729  21.204   4.163
67051W        W36932  13.706  30.055   1.932
67052W        W36933  17.744  36.964   3.633
67053W        W36934  42.879  18.179  10.535
67054W        W36935  19.140  34.109  13.049
67055W        W36936  10.828  13.708  13.420
67056W        W36937  39.481  17.592   1.235
67057W        W36938  39.036  32.553   3.710
67058W        W36939  21.256  21.539   4.663
67059W        W36940  31.535   0.853  10.626
67060W        W36941  35.543   1.377   2.807
67061W        W36942  39.831   3.445   1.382
67062W        W36943  42.477   4.826  10.486
67063W        W36944  15.203  34.499   1.901
67064W        W36945  25.525  29.436   3.353
67065W        W36946  12.665  26.462  12.392
67066W        W36947  24.614   4.798   2.812
67067W        W36948  44.854   6.260  12.014
67068W        W36949  38.414  33.398   1.217
67069W        W36950  33.429   9.788  13.457
67070W        W36951  29.444  26.102  11.416
67071W        W36952  20.678  40.900   1.880
67072W        W36953   4.406  37.842   0.911
67073W        W36954  33.406  30.157   2.869
67074W        W36955  28.048  12.629  12.943
67075W        W36956  31.515   7.389   9.555
67076W        W36957  22.050   4.428   2.291
67077W        W36958  35.491  36.071  13.941
67078W        W36959   3.792  33.597  11.107
67079W        W36960  14.759  18.149  13.006
67080W        W36961  15.149  11.701  11.998
67081W        W36962   8.897  30.097   1.852
67082W        W36963  26.632   7.301   0.859
67083W        W36964  12.740  13.313  13.928
67084W        W36965  19.145   7.889  12.408
67085W        W36966  12.209  44.755   2.311
67086W        W36967  19.775  21.664  14.921
67087W        W36968   0.988  14.813  14.982
67088W        W36969  42.335  37.552   1.930
67089W        W36970   8.187   0.809  12.344
67090W        W36971  16.796  14.300  13.946
67091W        W36972  12.174   7.342   3.683
67092W        W36973  29.617  23.017  13.990
67093W        W36974  28.542  36.420  13.837
67094W        W36975  36.844   7.394   2.324
67095W        W36976   0.426   7.756  11.971
67096W        W36977   0.382   3.711   4.279
67097W        W36978  37.532  20.174   0.865
67098W        W36979  27.521  44.895  11.494
67099W        W36980  17.710  29.148  11.398
67100W        W36981  11.222  28.937  10.545
67101W        W36982  24.132   2.849   2.269
67102W        W36983  16.668  37.352   1.866
67103W        W36984  16.610  21.169   1.241
67104W        W36985  18.668  29.641   2.311
67105W        W36986   2.338  25.496   3.797
67106W        W36987  27.576  25.967  13.346
67107W        W36988  32.959  23.629  13.020
67108W        W36989  41.389  14.312   3.845
67109W        W36990  39.537  29.062   3.671
67110W        W36991  26.639  30.649   1.896
67111W        W36992  26.176  38.889   2.206
67112W        W36993   6.294  10.338  14.771
67113W        W36994  43.833  12.157  10.914
67114W        W36995  25.532   3.818   3.301
67115W        W36996  41.387  24.687  14.282
67116W        W36997  27.557  13.302  13.353
67117W        W36998  14.744  30.097   2.236
67118W        W36999  24.560   0.369  14.783
67119W        W37000  34.371  23.016  14.762
67120W        W37001  38.531  42.846   3.163
67121W        W37002  23.155   7.793   3.258
67122W        W37003   8.379  24.499  11.930
67123W        W37004  18.297  34.908  11.557
67124W        W37005  40.378  24.028  11.551
67125W        W37006  36.906  23.996   3.785
67126W        W37007  26.152   9.328   2.892
67127W        W37008  33.608   9.257  13.884
67128W        W37009  41.535  41.928  13.437
67129W        W37010   9.705  44.361  14.803
67130W        W37011  36.351  42.956   2.794
67131W        W37012  27.667  32.454   0.780
67132W        W37013  27.123  21.640   2.735
67133W        W37014  31.539  18.609  12.447
67134W        W37015  37.567  25.153   0.275
67135W        W37016  29.154  38.360  12.466
67136W        W37017  25.567   1.782  14.368
67137W        W37018   4.363   1.800  14.445
67138W        W37019  19.542  27.038   3.245
67139W        W37020  34.104  14.149  12.502
67140W        W37021  38.459  30.148  10.487
67141W        W37022  30.140  38.871  13.538
67142W        W37023  43.516   3.895  12.931
67143W        W37024  31.588  15.681   9.616
67144W        W37025  34.590  40.477  11.074
67145W        W37026  34.544  21.205   5.122
67146W        W37027   4.390  10.288  13.494
67147W        W37028   2.813  10.733  11.382
67148W        W37029  37.554  14.236   2.802
67149W        W37030  35.476  10.783   1.268
67150W        W37031  37.034  39.814   0.377
67151W        W37032   6.921  11.644   1.828
67152W        W37033  38.475  17.185   0.935
67153W        W37034   9.335  39.412  14.439
67154W        W37035  34.947   4.893  13.842
67155W        W37036  25.646  10.378  12.354
67156W        W37037  42.293  42.526   4.349
67157W        W37038   6.380  35.520   0.748
67158W        W37039   8.657  14.713   3.826
67159W        W37040   7.745  19.274   3.218
67160W        W37041  29.643  41.968  12.044
67161W        W37042  14.297  12.247   3.271
67162W        W37043  36.418  35.438  12.954
67163W        W37044  11.146   9.711  14.925
67164W        W37045   4.704  39.525  12.445
67165W        W37046   5.708  38.004  13.966
67166W        W37047   2.438   5.745   4.782
67167W        W37048  38.042  38.499   0.758
67168W        W37049  25.709  17.287   3.665
67169W        W37050   4.386  23.694   1.836
67170W        W37051   1.377  32.032   3.867
67171W        W37052  43.877  11.844   0.950
67172W        W37053  17.733  25.567  11.486
67173W        W37054  35.971  40.934   4.675
67174W        W37055   2.940  19.175   2.747
67175W        W37056  21.679   6.207   1.694
67176W        W37057  40.449  10.300   5.207
67177W        W37058  10.159  42.993   4.333
67178W        W37059  28.453  30.986   2.377
67179W        W37060  31.043  27.669  13.881
67180W        W37061  19.214  43.380  14.449
67181W        W37062  42.405  36.410   1.831
67182W        W37063  25.520   3.317   3.759
67183W        W37064   3.901  39.537  10.545
67184W        W37065  26.570  31.545  12.405
67185W        W37066   5.792   3.281  14.866
67186W        W37067   4.709  17.219   1.314
67187W        W37068   5.876  18.660   1.330
67188W        W37069  25.963  36.958  13.388
67189W        W37070  23.657  36.001   4.723
67190W        W37071  41.878  21.211  14.891
67191W        W37072  29.054  42.473   4.348
67192W        W37073   7.680  32.490   2.302
67193W        W37074   5.924  27.463   1.785
67194W        W37075   3.895  21.526  10.916
67195W        W37076  16.173  11.753  11.021
67196W        W37077  37.425  23.699   1.782
67197W        W37078   9.274   2.864   4.154
67198W        W37079   3.714   0.763   4.162
67199W        W37080  29.584  22.627  12.054
67200W        W37081   9.748  42.974   1.331
67201W        W37082  34.416   2.836   4.764
67202W        W37083  44.343   3.383   0.850
67203W        W37084  33.539  25.700   0.310
67204W        W37085  15.624  41.934   1.443
67205W        W37086  10.376  21.063   4.116
67206W        W37087  21.253  28.004  13.920
67207W        W37088  12.261  38.521  12.442
67208W        W37089  31.524  43.994  10.937
67209W        W37090  42.818  27.171  11.087
67210W        W37091  29.076  26.670   4.818
67211W        W37092  13.302  42.399  10.645
67212W        W37093  14.222  25.097  14.445
67213W        W37094  17.661   1.253   4.251
67214W        W37095  26.990  40.971  12.453
67215W        W37096  31.129  17.293   2.297
67216W        W37097   2.761  26.658  14.955
67217W        W37098  29.024  34.580   1.919
67218W        W37099   8.897   5.304   0.478
67219W        W37100  22.673   6.784   1.293
67220W        W37101  16.713  34.513   4.728
67221W        W37102  42.911  29.654   4.740
67222W        W37103  23.095  31.632  11.443
67223W        W37104   6.809  43.481   3.347
67224W        W37105  42.026  14.305  12.917
67225W        W37106  39.494  25.157   1.915
67226W        W37107  11.742   9.362   4.169
67227W        W37108  22.202   4.278   2.893
67228W        W37109  22.231  18.626  10.142
67229W        W37110  38.861  32.094   9.986
67230W        W37111   4.932   4.816  10.636
67231W        W37112  22.226  11.690  12.888
67232W        W37113  44.387  40.394   9.992
67233W        W37114  38.941   2.347  10.561
67234W        W37115   3.843  19.638  12.474
67235W        W37116   6.360  34.058   1.870
67236W        W37117  30.078  22.515   1.366
67237W        W37118  43.477  30.048  12.001
67238W        W37119  44.466  25.527  10.435
67239W        W37120  32.430  15.701   4.633
67240W        W37121  14.211  39.448   0.823
67241W        W37122  24.627   0.362   2.301
67242W        W37123  25.564  13.212   1.700
67243W        W37124  12.845  16.285  11.526
67244W        W37125  28.569  38.066  14.993
67245W        W37126  25.056  37.047  11.976
67246W        W37127  10.696  32.073  11.910
67247W        W37128  43.402  39.499  11.904
67248W        W37129   3.723  26.205  11.113
67249W        W37130  14.736  11.766  11.108
67250W        W37131  43.943  17.600  13.404
67251W        W37132  33.574  27.026   0.258
67252W        W37133   0.846  43.909  13.508
67253W        W37134  19.104   0.471   4.738
67254W        W37135  18.078  37.527   0.324
67255W        W37136  19.759  24.226   2.349
67256W        W37137   4.259  44.388   1.922
67257W        W37138   4.758  32.455   3.277
67258W        W37139  37.977  19.537  10.079
67259W        W37140  20.674  29.136   2.220
67260W        W37141  14.267  42.395  12.437
67261W        W37142  37.934   6.201   2.374
67262W        W37143  32.582   3.812  12.069
67263W        W37144   4.818  39.405  11.104
67264W        W37145  16.635  37.441   3.181
67265W        W37146  22.233  39.939  12.506
67266W        W37147  24.081  25.068  13.018
67267W        W37148  28.517  10.662   0.346
67268W        W37149  31.950  35.993  13.479
67269W        W37150  35.571  14.708   0.800
67270W        W37151  11.830  42.916   4.733
67271W        W37152  38.836  17.250   4.809
67272W        W37153   4.870   1.973  11.550
67273W        W37154  16.621   5.803  12.956
67274W        W37155  15.725  31.544   2.796
67275W        W37156  13.208   8.247  13.806
67276W        W37157   5.208  21.231  10.981
67277W        W37158   1.746  21.702   3.227
67278W        W37159  35.978   2.351   3.745
67279W        W37160  44.790   4.269   4.838
67280W        W37161   8.900  44.880  11.381
67281W        W37162   2.364  12.652   4.702
67282W        W37163   1.797  40.961   3.794
67283W        W37164  41.304   5.808  12.509
67284W        W37165   2.383  23.064   4.252
67285W        W37166  23.612   5.801   4.692
67286W        W37167  13.770  44.494  14.890
67287W        W37168  16.772  13.667   0.752
67288W        W37169  43.910  20.736   1.290
67289W        W37170  19.689   6.285   1.235
67290W        W37171  41.925   3.389   1.758
67291W        W37172  41.384  41.900  11.115
67292W        W37173   9.808  39.007   4.126
67293W        W37174  21.185  38.013   4.684
67294W        W37175  30.929  35.399   0.464
67295W        W37176   7.313   5.741   4.797
67296W        W37177  22.047  12.644  13.970
67297W        W37178  30.917  32.013   4.182
67298W        W37179   9.768   1.466  10.512
67299W        W37180  37.527  44.944  12.017
67300W        W37181  28.040  13.718  10.621
67301W        W37182   4.926  14.263  12.369
67302W        W37183  20.107  11.236  14.380
67303W        W37184  35.396  20.713  14.938
67304W        W37185   6.863   5.908  12.940
67305W        W37186  39.400  29.160  11.918
67306W        W37187  31.549  34.033  11.950
67307W        W37188  20.213  42.445   0.796
67308W        W37189   1.971  22.072   2.671
67309W        W37190  43.369   8.672   4.747
67310W        W37191  30.027   7.684  12.473
67311W        W37192  14.671  19.257  13.378
67312W        W37193  36.911  30.427   4.256
67313W        W37194  28.664  11.239   2.326
67314W        W37195   1.739  23.529   2.698
67315W        W37196  21.142  36.501  11.458
67316W        W37197   3.831  12.218   3.198
67317W        W37198  19.676  13.304   0.353
67318W        W37199  39.428   1.249  14.898
67319W        W37200  43.297  18.217   2.695
67320W        W37201  34.078  20.687   2.733
67321W        W37202   2.344  30.993  10.933
67322W        W37203  25.121  27.128   1.405
67323W        W37204  30.549  14.299  10.469
67324W        W37205  20.206  28.575   0.733
67325W        W37206  13.786  23.551   3.224
67326W        W37207  22.688  20.724  12.021
67327W        W37208  25.018  19.184  12.015
67328W        W37209  38.530   9.808  14.836
67329W        W37210  10.742  31.149  10.613
67330W        W37211  17.751   9.714   3.782
67331W        W37212  42.905  24.558  14.801
67332W        W37213  24.478  15.236   3.258
67333W        W37214  25.991  15.771  12.355
67334W        W37215  34.111   6.899  10.603
67335W        W37216  20.595  37.450  12.024
67336W        W37217  32.553   6.770  13.904
67337W        W37218  16.613  28.585   2.685
67338W        W37219  28.183  40.861  11.126
67339W        W37220  42.341  11.251  10.423
67340W        W37221  11.279  10.775  13.408
67341W        W37222  21.719  40.320  13.333
67342W        W37223  44.460  13.279   4.723
67343W        W37224  27.992   2.913  10.476
67344W        W37225  16.239   7.694   3.159
67345W        W37226  28.512  15.258  12.395
67346W        W37227  30.463   1.467  14.393
67347W        W37228  40.443  14.200   5.135
67348W        W37229  26.560   2.785  14.767
67349W        W37230  35.026  34.569   9.953
67350W        W37231  37.401  32.082  14.782
67351W        W37232  37.564  10.262   0.356
67352W        W37233  44.919  38.876  12.445
67353W        W37234  38.477  27.123   3.168
67354W        W37235  37.415   6.840  14.011
67355W        W37236   6.845   4.846   3.802
67356W        W37237  41.954  31.419   4.635
67357W        W37238   2.868   6.888   0.873
67358W        W37239  28.045   2.873  12.986
67359W        W37240  38.903  29.471  12.086
67360W        W37241  34.892  23.090  14.850
67361W        W37242   2.325  19.546   1.717
67362W        W37243  43.492   4.371  14.829
67363W        W37244  31.456   4.800  14.942
67364W        W37245   3.226   0.395   4.719
67365W        W37246  20.627  17.159  10.642
67366W        W37247  19.661  30.515   5.097
67367W        W37248  17.697  20.576   1.694
67368W        W37249  32.092   8.843   2.334
67369W        W37250  32.024  10.273  14.824
67370W        W37251   8.243  24.504   3.266
67371W        W37252  39.369   5.286   3.183
67372W        W37253  26.671  27.140   2.886
67373W        W37254  28.174  18.789   1.878
67374W        W37255  27.627  30.533   2.376
67375W        W37256  12.842  25.496   4.320
67376W        W37257  18.195  11.820  14.790
67377W        W37258  44.874  25.570  13.497
67378W        W37259  39.827  22.251  12.886
67379W        W37260  13.674  11.630   0.376
67380W        W37261  28.094  19.753  13.999
67381W        W37262  10.671  23.683  13.999
67382W        W37263  31.543  16.128   1.345
67383W        W37264  29.115   1.879  12.453
67384W        W37265  18.680  36.417  13.999
67385W        W37266   2.431  31.640  14.024
67386W        W37267  38.371  26.011  14.833
67387W        W37268  13.235  19.759   3.813
67388W        W37269  13.613  10.850   0.246
67389W        W37270  38.421  44.344  13.813
67390W        W37271  18.203   1.814   2.799
67391W        W37272   9.202  43.389   3.745
67392W        W37273  19.171   0.813   0.785
67393W        W37274  27.607  33.094  12.569
67394W        W37275  21.193  32.077  13.365
67395W        W37276  41.442  36.008  13.015
67396W        W37277   3.779  15.095   1.842
67397W        W37278  13.764  33.508   2.184
67398W        W37279  42.504  29.605  10.984
67399W        W37280  10.709  42.469   1.239
67400W        W37281  14.199  28.081   3.861
67401W        W37282  44.385  15.299  12.540
67402W        W37283  34.077  19.068  11.873
67403W        W37284  37.419  27.163   1.706
67404W        W37285  44.775  25.076  12.912
67405W        W37286  28.989  10.158   0.813
67406W        W37287  28.185  15.800   4.766
67407W        W37288  38.850  25.994   2.314
67408W        W37289  17.078  10.341   2.291
67409W        W37290  34.597  23.033   1.432
67410W        W37291  24.570  26.539   1.799
67411W        W37292   3.219  34.049   1.811
67412W        W37293  15.778  43.924  12.017
67413W        W37294   5.405   0.858  14.021
67414W        W37295   4.774  20.589  13.418
67415W        W37296   8.210   7.904  13.367
67416W        W37297   7.831  39.819   0.953
67417W        W37298   0.364  33.569  12.969
67418W        W37299   3.336  20.245  13.884
67419W        W37300  23.106   1.883   1.302
67420W        W37301   4.307  11.214  11.568
67421W        W37302  31.415   6.234   4.752
67422W        W37303   2.780  14.151  12.096
67423W        W37304   3.442   7.906  13.983
67424W        W37305   4.377  27.960   1.921
67425W        W37306  44.300  42.433   3.749
67426W        W37307  30.486   6.234   0.763
67427W        W37308   0.250  36.409  11.527
67428W        W37309   3.248   1.835   0.245
67429W        W37310  29.461   7.828  14.428
67430W        W37311  25.190  22.541  10.587
67431W        W37312  33.881  25.482  14.027
67432W        W37313   5.367  14.627   2.844
67433W        W37314  22.554   1.892   1.413
67434W        W37315  27.605  16.776  14.810
67435W        W37316  44.480  26.063   2.879
67436W        W37317   5.368  44.753   2.758
67437W        W37318  33.957  33.088   4.620
67438W        W37319  23.077   9.313  13.804
67439W        W37320   8.185  14.106  12.563
67440W        W37321   3.329  37.947  12.950
67441W        W37322  28.477   6.231   1.848
67442W        W37323  26.605  19.256  14.787
67443W        W37324  44.273   9.811   1.441
67444W        W37325   8.655  19.652  12.030
67445W        W37326  31.120  20.646   4.652
67446W        W37327   5.723   8.340  12.024
67447W        W37328   4.734  32.587   2.226
67448W        W37329  24.184   4.343  10.894
67449W        W37330  31.601  30.479   1.404
67450W        W37331  34.432  39.411  13.908
67451W        W37332  18.594  39.894  14.280
67452W        W37333  43.962  25.503   0.472
67453W        W37334   9.698   8.836  12.055
67454W        W37335   4.701  18.766   5.170
67455W        W37336  31.088  39.960  14.461
67456W        W37337   8.782  37.906  10.428
67457W        W37338  37.851  13.293   3.312
67458W        W37339  12.829  23.199  11.864
67459W        W37340  27.008  33.106  14.837
67460W        W37341   3.296  11.756   0.958
67461W        W37342   7.289  19.269   2.856
67462W        W37343  42.435   9.715  12.528
67463W        W37344  14.722  16.767  13.460
67464W        W37345   8.750  13.237   3.739
67465W        W37346  38.973  28.936   4.610
67466W        W37347  41.445  34.003   3.259
67467W        W37348  14.653  36.561   5.113
67468W        W37349  38.404  38.514  12.846
67469W        W37350   6.418  22.079   2.383
67470W        W37351  44.395  15.749   1.777
67471W        W37352   7.361   1.475   2.818
67472W        W37353  42.516  35.463  14.021
67473W        W37354  11.319  15.609   4.250
67474W        W37355  28.543  34.542   3.328
67475W        W37356  28.625  18.617   1.413
67476W        W37357  27.604   6.272  14.984
67477W        W37358  36.412  12.163   2.879
67478W        W37359  41.316  17.657   3.336
67479W        W37360  29.465  21.598  11.024
67480W        W37361   1.253  17.564   3.678
67481W        W37362  41.899  39.971   2.357
67482W        W37363  42.454  15.675  14.467
67483W        W37364  43.332   5.367  12.013
67484W        W37365  39.416  41.932  14.348
67485W        W37366  10.167  22.596   3.853
67486W        W37367  21.570  34.006   2.285
67487W        W37368  15.280  24.083   3.850
67488W        W37369   1.900   8.777  13.331
67489W        W37370  15.126  25.700   0.911
67490W        W37371  13.737   4.880   3.868
67491W        W37372  42.854  20.151   0.906
67492W        W37373  17.794  22.597  14.769
67493W        W37374  29.577  44.791  11.417
67494W        W37375   2.765  19.708   4.293
67495W        W37376   6.337  31.445  14.458
67496W        W37377  27.498  38.400   3.240
67497W        W37378   3.246  22.157  13.353
67498W        W37379   9.674  33.028  11.438
67499W        W37380   9.173  33.612   3.311
67500W        W37381  28.502  39.382   0.287
67501W        W37382  25.541  31.139   3.284
67502W        W37383  37.525  15.311   1.728
67503W        W37384  13.125  27.003  11.960
67504W        W37385  26.156  38.076   1.919
67505W        W37386   7.702  38.472   1.376
67506W        W37387  41.370  25.174   0.374
67507W        W37388  44.952  35.031  11.575
67508W        W37389  12.778  34.046  10.905
67509W        W37390  26.606  32.000  13.798
67510W        W37391   3.829  34.587   1.742
67511W        W37392  26.611  25.070  11.050
67512W        W37393  31.916  34.553  12.867
67513W        W37394   9.224   6.833   4.234
67514W        W37395  31.099  15.700  14.785
67515W        W37396   7.715  44.955  13.060
67516W        W37397  17.288  31.048  14.995
67517W        W37398  31.970  26.617  13.466
67518W        W37399  16.643   4.409   4.239
67519W        W37400  17.677  39.399  10.918
67520W        W37401  30.566  35.887  11.469
67521W        W37402  30.621  36.946   0.374
67522W        W37403  39.951  32.926   4.125
67523W        W37404  33.478  44.305  10.939
67524W        W37405  40.964  10.341  13.508
67525W        W37406  32.618  30.099   4.713
67526W        W37407  21.562  17.180   0.343
67527W        W37408   2.873  10.261  13.471
67528W        W37409  29.108  14.687  14.468
67529W        W37410  35.954  18.658  11.030
67530W        W37411  39.443   3.945   2.321
67531W        W37412  17.680  27.002   3.690
67532W        W37413   1.398   4.209   2.331
67533W        W37414  38.998   7.253  13.851
67534W        W37415  44.355   4.712   5.274
67535W        W37416  28.634  15.805  11.126
67536W        W37417  42.318  12.822   2.822
67537W        W37418  35.439  21.228   3.316
67538W        W37419  33.036  22.526   4.755
67539W        W37420  31.471  44.974  12.095
67540W        W37421   5.387  19.630  11.528
67541W        W37422  17.710   6.236  10.003
67542W        W37423  14.796  24.631   0.936
67543W        W37424  44.426  33.399  11.978
67544W        W37425  26.496  16.315  12.384
67545W        W37426   4.353  29.465  10.946
67546W        W37427   6.397  44.818   2.208
67547W        W37428  18.601  22.140  12.953
67548W        W37429  20.140  31.046   2.751
67549W        W37430   7.811  21.195   9.941
67550W        W37431  27.181  36.377  14.841
67551W        W37432  41.514  21.169  14.888
67552W        W37433  28.573  16.750  11.467
67553W        W37434  24.047  41.015   0.849
67554W        W37435   2.373  16.166  12.474
67555W        W37436  33.607  44.358  14.855
67556W        W37437   2.908   1.252  11.371
67557W        W37438  29.952  18.052   4.180
67558W        W37439  25.166  44.818  12.033
67559W        W37440  35.910  13.803  11.077
67560W        W37441  32.471   4.389   1.830
67561W        W37442  26.010   5.854  11.043
67562W        W37443  37.972   2.328  13.064
67563W        W37444  25.700  34.014  13.935
67564W        W37445  19.672  31.566   1.850
67565W        W37446  41.853  25.143  10.534
67566W        W37447  44.433  42.950   1.324
67567W        W37448  13.238  16.123   4.314
67568W        W37449  32.070  20.088  11.915
67569W        W37450  18.589  22.021  14.822
67570W        W37451   0.896  43.019   1.316
67571W        W37452  23.022   4.215  14.826
67572W        W37453  29.494  22.667  11.124
67573W        W37454  18.621   4.749  11.574
67574W        W37455   6.850   9.887  10.461
67575W        W37456   8.305  18.767  13.400
67576W        W37457  38.560  22.715   3.176
67577W        W37458   1.327  29.962   2.328
67578W        W37459  17.083  19.662   0.263
67579W        W37460  10.196  18.547  11.546
67580W        W37461  26.463  29.461   4.741
67581W        W37462  12.792  35.551  14.024
67582W        W37463  17.147  15.653  11.383
67583W        W37464  26.556   0.775   3.274
67584W        W37465  16.591  15.314  14.501
67585W        W37466   1.924  27.005   2.282
67586W        W37467  11.847   9.727   4.806
67587W        W37468   9.330  27.529   1.818
67588W        W37469  29.577  30.076   4.790
67589W        W37470  41.403  16.802   2.823
67590W        W37471   5.843  13.820  10.496
67591W        W37472  35.529  23.529  14.803
67592W        W37473  13.341  24.007  13.454
67593W        W37474  29.099   4.887  12.356
67594W        W37475  15.766   7.895  12.502
67595W        W37476  14.765   4.258   0.294
67596W        W37477  37.448  30.132  12.977
67597W        W37478  18.142  34.453   0.734
67598W        W37479  22.157  31.475   3.254
67599W        W37480  31.102  37.975   2.349
67600W        W37481  30.004   8.856  14.343
67601W        W37482  36.381  16.690   3.736
67602W        W37483  17.667   5.825  11.084
67603W        W37484  24.139  42.023   4.828
67604W        W37485   7.307  21.040  10.984
67605W        W37486   1.912  14.100  12.027
67606W        W37487  40.437  34.969   1.288
67607W        W37488  23.056   9.367  13.413
67608W        W37489  30.996  37.857   0.823
67609W        W37490  27.174  36.578   3.857
67610W        W37491  32.044  28.144   2.664
67611W        W37492   3.380   9.267   2.795
67612W        W37493  43.934   3.368   1.266
67613W        W37494  41.943  20.256   1.429
67614W        W37495  33.441  11.815   5.272
67615W        W37496  37.578  32.995  11.914
67616W        W37497  44.830   4.746  10.956
67617W        W37498  23.644   6.755  12.375
67618W        W37499  24.063  38.950   1.821
67619W        W37500  25.514  19.706   4.185
67620W        W37501   1.783  37.846  13.510
67621W        W37502   5.309   7.224   0.920
67622W        W37503  39.946  18.112   4.137
67623W        W37504  11.763   6.711   2.379
67624W        W37505  18.277  43.929   2.267
67625W        W37506  23.666  27.179  13.525
67626W        W37507  21.073  29.172  12.361
67627W        W37508  24.590  38.010  10.604
67628W        W37509  24.199  15.640   9.956
67629W        W37510  24.535  34.564   1.843
67630W        W37511  19.741  10.681   2.353
67631W        W37512   9.795  13.285   3.382
67632W        W37513   6.324  33.623   0.296
67633W        W37514  14.660  37.896  11.883
67634W        W37515  10.842  30.912  13.815
67635W        W37516  18.624  42.395   3.764
67636W        W37517  33.481   1.267  13.013
67637W        W37518   1.253  19.723  12.429
67638W        W37519  32.907  38.437   3.162
67639W        W37520  43.423  18.629   3.351
67640W        W37521  18.665   9.291   1.744
67641W        W37522  14.722  38.518   4.835
67642W        W37523  33.053  14.323  14.011
67643W        W37524  22.181  19.645  12.883
67644W        W37525  40.350  23.520  12.976
67645W        W37526  18.212  28.106   9.626
67646W        W37527  20.114  10.636  11.494
67647W        W37528  13.806  24.988  11.926
67648W        W37529  21.135   9.365  14.482
67649W        W37530  18.630  39.916  10.530
67650W        W37531  30.455   2.855  11.408
67651W        W37532   4.265  34.088   1.826
67652W        W37533   8.163  17.630  13.396
67653W        W37534   2.381  34.056   3.823
67654W        W37535   2.832  35.051   4.315
67655W        W37536   0.425   5.194   4.806
67656W        W37537  31.901  21.663  12.830
67657W        W37538  24.061   1.400   1.917
67658W        W37539  28.038   8.188   3.633
67659W        W37540  22.106   4.393   4.295
67660W        W37541  15.729  13.343   3.655
67661W        W37542   3.827  20.217   1.228
67662W        W37543   6.741   5.310   1.395
67663W        W37544  33.986  39.527   3.850
67664W        W37545   0.493  23.137  14.424
67665W        W37546  32.487  44.309   3.840
67666W        W37547  30.604   6.351   0.452
67667W        W37548  26.999  15.133  13.000
67668W        W37549   7.251  35.417   0.741
67669W        W37550  28.966  39.415   3.702
67670W        W37551  19.580  15.624  11.081
67671W        W37552   9.232   2.869  14.001
67672W        W37553  21.195  21.602   3.240
67673W        W37554  22.648   5.832   1.818
67674W        W37555  10.241   5.269  11.965
67675W        W37556  23.534   5.408  11.117
67676W        W37557  21.072  30.419  11.553
67677W        W37558  14.635   0.970  12.895
67678W        W37559  34.121  18.058  12.847
67679W        W37560   7.305  32.134   1.818
67680W        W37561  28.986   4.283   2.698
67681W        W37562   8.325  39.324  11.612
67682W        W37563  10.272   4.831   1.317
67683W        W37564   0.957   1.768   0.384
67684W        W37565  43.922  18.757  12.467
67685W        W37566  15.102  39.364  14.412
67686W        W37567  31.948  38.072   0.399
67687W        W37568  27.022  35.488   2.813
67688W        W37569  35.417   5.374  11.944
67689W        W37570  18.124   0.840   4.733
67690W        W37571  15.654  33.995   2.678
67691W        W37572  37.495  28.984   3.150
67692W        W37573  29.015   2.774   3.161
67693W        W37574  41.975  17.580   4.287
67694W        W37575  30.495  30.914  11.905
67695W        W37576  26.960  21.050  14.002
67696W        W37577  30.413   8.171  10.974
67697W        W37578  22.144  39.021  10.514
67698W        W37579  17.621  42.802  14.834
67699W        W37580   5.209  11.282  11.402
67700W        W37581  30.062  35.406   1.811
67701W        W37582  29.166  31.011  13.536
67702W        W37583  22.162  44.364   2.867
67703W        W37584  43.909  37.001  14.943
67704W        W37585  23.699   8.782  14.802
67705W        W37586  36.959  34.056  13.868
67706W        W37587  44.973   6.387   1.237
67707W        W37588  27.629  30.507   1.368
67708W        W37589  14.659   3.737   4.218
67709W        W37590  31.035  24.665  13.032
67710W        W37591  20.639  28.163   3.365
67711W        W37592  19.115  24.036   2.899
67712W        W37593  35.935  25.555   3.281
67713W        W37594  14.834  32.428   1.403
67714W        W37595  10.360   5.359  13.867
67715W        W37596   1.343  11.286   2.355
67716W        W37597  42.977   3.401  13.828
67717W        W37598   3.430  36.448  14.451
67718W        W37599   3.786   7.292   1.793
67719W        W37600  17.180  14.287   4.729
67720W        W37601  32.567  13.337   1.895
67721W        W37602   9.235  30.547  13.506
67722W        W37603   5.872  40.397  11.023
67723W        W37604  10.363  38.426   4.184
67724W        W37605  22.224  24.201  14.877
67725W        W37606  24.224  26.631   3.346
67726W        W37607  42.946  37.543   3.662
67727W        W37608   6.389   7.840  12.840
67728W        W37609  35.434   7.223  12.482
67729W        W37610  37.021   5.695   2.205
67730W        W37611  16.688  22.149  14.027
67731W        W37612  33.597  19.168  10.636
67732W        W37613  22.191  41.432  11.050
67733W        W37614  13.168  25.558   3.751
67734W        W37615  23.662  20.222   0.921
67735W        W37616   2.472   8.734  10.967
67736W        W37617  26.999  34.015   1.394
67737W        W37618  17.141  26.642   4.788
67738W        W37619  34.901   7.220  10.458
67739W        W37620  13.119  15.216   2.779
67740W        W37621  25.980  34.451   0.423
67741W        W37622  16.767  25.180  12.440
67742W        W37623   5.278  29.543   1.245
67743W        W37624  39.974  25.640  13.890
67744W        W37625  25.547  15.782   3.357
67745W        W37626   7.829   3.850   4.699
67746W        W37627  17.657  30.506   1.815
67747W        W37628   2.396  41.956  13.348
67748W        W37629  37.467   5.287   2.674
67749W        W37630  22.202  35.583   4.184
67750W        W37631   1.323  15.157   4.786
67751W        W37632   6.879  29.585  11.508
67752W        W37633  44.934  21.677   0.955
67753W        W37634   9.332  15.253   1.404
67754W        W37635  10.635  30.617   0.416
67755W        W37636  24.039  28.647  14.027
67756W        W37637  16.186  19.111  13.959
67757W        W37638  39.004  28.937  13.449
67758W        W37639  31.969  10.746   3.281
67759W        W37640  27.688   2.226  12.085
67760W        W37641  29.629   2.914  12.500
67761W        W37642   6.385   7.834  13.315
67762W        W37643  11.225  19.702  13.319
67763W        W37644  34.912  33.013   3.180
67764W        W37645  17.183  25.147  10.488
67765W        W37646  29.611  14.245   0.951
67766W        W37647  36.862  12.664  11.511
67767W        W37648  39.049   0.879  12.078
67768W        W37649  30.070   4.801   3.699
67769W        W37650  15.661  30.485   3.757
67770W        W37651  10.355  22.662  14.975
67771W        W37652  15.228  40.863   0.943
67772W        W37653  10.151   5.255  14.334
67773W        W37654  16.262  28.112   0.297
67774W        W37655   4.432   4.250  14.790
67775W        W37656  17.556  14.167  12.853
67776W        W37657  41.985  14.660  11.953
67777W        W37658   6.813  44.292   1.696
67778W        W37659   1.467   8.322   1.273
67779W        W37660   6.228  10.784   2.218
67780W        W37661  17.628  36.060  12.344
67781W        W37662  22.241   8.179  11.865
67782W        W37663  18.729  18.257  13.475
67783W        W37664  44.813  14.706  13.542
67784W        W37665  14.332  14.153  12.003
67785W        W37666  37.927  43.456  13.828
67786W        W37667  24.590  25.165  12.860
67787W        W37668  28.446   6.750   0.474
67788W        W37669  35.419  11.641   4.630
67789W        W37670  11.753  26.562   1.724
67790W        W37671  34.424  21.214   4.645
67791W        W37672  44.935  36.993   1.386
67792W        W37673  31.966  21.132  10.987
67793W        W37674  27.141  36.362  11.072
67794W        W37675  16.581  26.986   4.821
67795W        W37676  19.727  30.092   0.939
67796W        W37677  44.866  30.080   4.166
67797W        W37678  20.122   1.310  14.364
67798W        W37679   2.853   9.390  12.965
67799W        W37680  14.752  42.987  10.051
67800W        W37681  29.649  12.137   1.407
67801W        W37682  32.022  13.127   5.178
67802W        W37683  39.391  10.382   4.215
67803W        W37684  19.088  14.237  14.312
67804W        W37685  43.438  44.286   0.430
67805W        W37686  28.576  27.187   0.407
67806W        W37687  10.798  37.542  14.899
67807W        W37688  40.958  13.805  11.516
67808W        W37689  38.549   6.377  12.974
67809W        W37690  22.623  24.120   3.719
67810W        W37691  26.701  32.120   1.392
67811W        W37692  42.933  22.220   1.390
67812W        W37693  17.789  33.474   3.720
67813W        W37694  26.636  41.020   2.286
67814W        W37695   0.982  34.908  12.016
67815W        W37696  33.448  31.152  14.826
67816W        W37697  21.543   3.778  12.343
67817W        W37698  28.538  17.169  12.342
67818W        W37699  21.652  37.885  13.848
67819W        W37700  32.103   6.852   1.406
67820W        W37701  12.312  20.252  11.578
67821W        W37702  35.560  13.254   0.457
67822W        W37703  24.529  25.605  13.440
67823W        W37704  18.706  40.474   0.933
67824W        W37705   9.790   4.284  13.875
67825W        W37706  35.011  41.476  10.423
67826W        W37707   1.943  34.030   4.264
67827W        W37708  35.095  19.535  12.056
67828W        W37709  43.845  19.091   1.249
67829W        W37710   9.676  43.859   4.756
67830W        W37711  33.122  11.836   3.810
67831W        W37712   6.413  43.486  10.892
67832W        W37713   7.721   6.188  13.546
67833W        W37714   2.875  36.509   2.760
67834W        W37715   1.274  28.991   2.662
67835W        W37716  35.965  25.991  13.400
67836W        W37717   2.346  42.285  10.419
67837W        W37718   8.664  17.620   1.246
67838W        W37719  40.502  14.296  12.937
67839W        W37720  42.358  40.820   0.317
67840W        W37721   2.448  27.657   3.843
67841W        W37722   2.911  20.555   2.901
67842W        W37723   3.834  13.713  11.543
67843W        W37724  43.372  41.449  11.877
67844W        W37725   9.169  33.957   4.714
67845W        W37726  30.101  13.770   0.452
67846W        W37727  26.659   0.250  12.931
67847W        W37728  18.585  15.229   4.665
67848W        W37729   9.752  14.299  12.409
67849W        W37730  23.056  15.823  12.450
67850W        W37731   5.310  17.245   3.370
67851W        W37732  21.125  15.284   0.300
67852W        W37733  41.494  34.939  11.975
67853W        W37734  16.633  21.586   3.317
67854W        W37735  37.359   8.868  13.332
67855W        W37736  22.688  41.918   3.266
67856W        W37737  15.322  24.002  10.954
67857W        W37738  35.029  37.442  14.351
67858W        W37739  31.154  11.367  13.510
67859W        W37740  14.229  32.054   0.332
67860W        W37741  38.898  13.776  12.027
67861W        W37742   2.268   7.268  10.035
67862W        W37743  20.698  33.966  14.816
67863W        W37744  44.918  24.608   3.339
67864W        W37745  39.938  31.142   0.401
67865W        W37746  37.990   8.709   4.239
67866W        W37747  16.805  13.771   3.703
67867W        W37748  34.381  35.551   1.370
67868W        W37749   8.188  41.393  10.929
67869W        W37750  30.140  38.400  14.765
67870W        W37751  19.206  27.111   1.748
67871W        W37752  41.838  31.583   4.316
67872W        W37753  28.637   0.743   3.266
67873W        W37754  20.120  16.134  11.588
67874W        W37755   1.327  13.792   4.174
67875W        W37756  12.734  21.514  10.518
67876W        W37757  37.862  24.977  12.878
67877W        W37758  23.030  38.483  14.972
67878W        W37759   5.907  28.090   4.625
67879W        W37760  42.472  41.887  12.032
67880W        W37761   7.346  23.107   0.400
67881W        W37762   3.353  12.257  11.419
67882W        W37763  22.251  23.735   1.295
67883W        W37764  29.610  37.999   4.825
67884W        W37765  25.503  37.976  14.360
67885W        W37766   1.343  26.157   3.207
67886W        W37767  18.665   7.800   2.677
67887W        W37768  14.102  30.061  13.382
67888W        W37769  36.353  32.000   2.256
67889W        W37770   5.413  11.716  13.419
67890W        W37771  27.987   0.947  13.063
67891W        W37772  14.704  30.540  13.502
67892W        W37773  14.618   7.912  13.341
67893W        W37774  23.690   1.868  11.905
67894W        W37775  28.049   8.714  12.970
67895W        W37776  12.346   3.439   2.352
67896W        W37777  19.641  41.456   3.381
67897W        W37778  12.660  24.500   2.297
67898W        W37779  27.018  33.982   3.858
67899W        W37780  36.089  25.203  13.851
67900W        W37781  29.589  36.540   1.866
67901W        W37782   7.779  14.657   3.787
67902W        W37783   6.369  35.963   0.414
67903W        W37784  44.263  35.971  12.574
67904W        W37785  23.698  44.298   0.305
67905W        W37786  38.059  12.242  14.789
67906W        W37787  37.015  39.877  13.387
67907W        W37788  38.825  37.081   2.410
67908W        W37789  22.591   9.722   4.804
67909W        W37790   4.387  38.065   1.329
67910W        W37791  10.732  29.525   2.682
67911W        W37792  28.445  40.811   1.256
67912W        W37793   7.312   0.787  11.117
67913W        W37794  31.589  23.150  10.962
67914W        W37795   4.875   0.481  13.430
67915W        W37796  23.528  10.795   2.810
67916W        W37797  19.117  35.920   0.446
67917W        W37798  18.595  13.292   4.277
67918W        W37799  24.042  11.289   0.268
67919W        W37800  35.441  26.047  13.029
67920W        W37801  21.750  15.662  10.923
67921W        W37802  35.035  19.650   5.238
67922W        W37803  29.613  37.549   1.808
67923W        W37804  16.685   2.889  12.501
67924W        W37805  11.813  13.224   1.281
67925W        W37806   9.784  16.096  10.966
67926W        W37807  26.191  24.151  11.534
67927W        W37808  20.172  32.445  14.879
67928W        W37809  34.571  25.085  11.483
67929W        W37810   0.853   6.889   3.163
67930W        W37811  41.309   4.786  13.017
67931W        W37812   0.347   3.364  11.098
67932W        W37813  16.725  22.675   0.256
67933W        W37814  41.935  29.625   3.217
67934W        W37815  13.267  12.697  13.934
67935W        W37816  37.542   6.818   2.272
67936W        W37817  30.993  24.180   0.891
67937W        W37818  10.832  43.831   1.363
67938W        W37819  29.537  32.061   5.103
67939W        W37820  14.260  38.561  14.862
67940W        W37821  43.892  33.525  14.815
67941W        W37822  39.875  10.185  14.445
67942W        W37823  31.923   4.306   1.222
67943W        W37824  35.415  42.957  14.031
67944W        W37825  20.666  25.526   4.610
67945W        W37826  30.572  10.140   4.699
67946W        W37827  23.508  21.158  14.318
67947W        W37828  35.594   8.670  10.425
67948W        W37829  17.074  14.321   0.759
67949W        W37830  32.041  24.213   0.336
67950W        W37831   1.339  13.713  14.840
67951W        W37832  17.227   5.380  12.364
67952W        W37833   7.809  44.260  11.556
67953W        W37834  15.766  31.603  12.064
67954W        W37835  25.093  40.920  10.511
67955W        W37836  14.332  37.512  10.000
67956W        W37837  40.913  39.062   0.956
67957W        W37838  33.892  38.043   2.406
67958W        W37839  38.485  22.101   2.308
67959W        W37840  32.037   1.971   1.924
67960W        W37841  10.260  35.443   2.304
67961W        W37842  36.846   6.412   1.866
67962W        W37843   8.706  31.594   3.385
67963W        W37844  36.068  29.931   3.149
67964W        W37845  42.435  21.124  11.030
67965W        W37846  30.931  31.909  14.830
67966W        W37847  20.723  38.560   0.934
67967W        W37848  11.812   3.341   0.890
67968W        W37849  26.168   3.293  11.950
67969W        W37850  20.597  35.002   3.207
67970W        W37851  38.429  39.904   4.140
67971W        W37852  44.948  28.930   2.713
67972W        W37853  41.401   2.231  12.533
67973W        W37854  27.101  35.075   4.222
67974W        W37855  34.556   8.795  11.123
67975W        W37856  27.156  33.499  13.791
67976W        W37857  28.502  13.768   3.236
67977W        W37858  42.490   6.282   1.394
67978W        W37859  30.956  12.852  11.612
67979W        W37860  28.089  42.903  12.995
67980W        W37861   9.224  23.164  10.929
67981W        W37862  28.492  37.524   3.747
67982W        W37863  19.152   5.372   2.185
67983W        W37864  16.119  11.182   1.731
67984W        W37865  42.519  22.210   0.874
67985W        W37866   4.740  36.399   2.676
67986W        W37867  25.206   3.421  14.427
67987W        W37868  32.614  33.089  10.507
67988W        W37869  28.501   1.341   1.921
67989W        W37870   4.877  23.528  12.438
67990W        W37871  15.657  37.043  13.045
67991W        W37872  36.011  33.111  14.472
67992W        W37873  24.214  35.964  12.065
67993W        W37874  37.409   4.718  11.088
67994W        W37875  33.115  22.070   4.684
67995W        W37876  22.516  13.138   4.245
67996W        W37877  25.120  41.888   2.869
67997W        W37878   7.249   8.802   4.227
67998W        W37879  24.592   3.265   0.294
67999W        W37880  14.816  42.445   4.315
68000W        W37881  14.290  11.243  11.922
68001W        W37882   8.886  18.067   3.270
68002W        W37883  25.174   8.351  12.494
68003W        W37884   2.285  31.107   2.287
68004W        W37885   0.326  18.753   1.854
68005W        W37886  24.563  27.614   0.760
68006W        W37887  11.629  28.447  12.964
68007W        W37888  19.586   1.924  10.640
68008W        W37889   4.226  43.946  11.612
68009W        W37890   5.210   2.461   1.220
68010W        W37891  29.633  43.410  13.329
68011W        W37892  42.391  37.538   3.818
68012W        W37893  25.037  29.141   3.336
68013W        W37894   2.431  21.656  14.441
68014W        W37895   6.811  44.984   1.426
68015W        W37896  33.395  41.952   0.787
68016W        W37897  16.194   6.912  13.451
68017W        W37898  22.073  32.887   2.819
68018W        W37899  42.417  12.731  11.596
68019W        W37900  25.527  18.264  11.561
68020W        W37901   5.210  30.021  11.106
68021W        W37902  37.518  18.220  14.916
68022W        W37903  35.460  38.396   1.761
68023W        W37904  24.218  14.288   5.186
68024W        W37905  23.708   1.880   4.786
68025W        W37906  37.845   7.261   0.414
68026W        W37907  20.549  35.973   4.792
68027W        W37908  44.464  42.365   1.809
68028W        W37909  27.591  12.773  14.382
68029W        W37910  11.827  22.018   4.117
68030W        W37911  21.086  37.946   3.263
68031W        W37912  35.989  28.680   1.821
68032W        W37913  44.339  33.413  14.430
68033W        W37914  20.062  30.570  10.465
68034W        W37915  39.969  42.912  11.524
68035W        W37916  32.476  43.402   1.722
68036W        W37917  11.679  25.129  14.315
68037W        W37918  20.725  19.642  14.334
68038W        W37919  16.652  13.798  13.462
68039W        W37920  44.349  15.278  13.533
68040W        W37921  42.946  11.298   0.915
68041W        W37922   0.369  27.193  13.392
68042W        W37923  30.029  30.624  13.035
68043W        W37924  25.013  18.611   3.811
68044W        W37925   8.248  14.095  11.382
68045W        W37926   9.304  15.666  11.048
68046W        W37927  30.035   5.741   9.599
68047W        W37928  35.102  38.563  13.842
68048W        W37929  26.136  12.750  12.345
68049W        W37930  33.110  10.345   1.914
68050W        W37931  17.660  15.793  10.112
68051W        W37932  27.034  25.558   0.289
68052W        W37933  35.931  32.633  14.766
68053W        W37934  29.666   4.739   3.239
68054W        W37935  39.033   6.202  12.896
68055W        W37936  29.583   3.931   0.342
68056W        W37937  14.762  24.684  10.961
68057W        W37938  40.545  32.617  12.060
68058W        W37939  26.519  13.713   4.644
68059W        W37940  33.536   9.722  14.353
68060W        W37941  10.634  11.806   0.289
68061W        W37942  12.681  41.527  10.514
68062W        W37943   8.784  23.124   0.792
68063W        W37944  28.559  30.446  14.312
68064W        W37945  34.595  13.178  12.876
68065W        W37946  14.215   0.858   2.681
68066W        W37947  25.153  21.599   2.690
68067W        W37948  35.549  39.333   3.772
68068W        W37949   1.286  15.257  11.004
68069W        W37950  11.625  36.389   2.309
68070W        W37951  17.302  19.175   3.302
68071W        W37952  44.786  31.593  12.390
68072W        W37953   8.887  38.870   3.155
68073W        W37954  24.518  31.595   4.666
68074W        W37955  28.563   4.770   0.350
68075W        W37956  27.094  41.454   1.319
68076W        W37957  16.761  21.239  12.532
68077W        W37958  13.706  16.571   0.937
68078W        W37959  24.192  38.925   5.136
68079W        W37960  13.273  23.652   0.245
68080W        W37961  21.727  14.606   4.732
68081W        W37962  33.580  26.172  14.856
68082W        W37963  29.518  21.117   5.226
68083W        W37964   5.379  13.642   3.158
68084W        W37965   5.252  16.680   4.333
68085W        W37966  41.795   8.252  14.398
68086W        W37967  31.524   7.228  12.053
68087W        W37968  29.573  27.152   0.869
68088W        W37969  16.082  23.611   2.716
68089W        W37970   8.259  38.887  12.015
68090W        W37971   2.765  41.490   3.808
68091W        W37972  34.562  10.785   0.834
68092W        W37973  26.572  27.577  12.454
68093W        W37974  32.035  41.531  10.960
68094W        W37975   6.890  44.785  12.054
68095W        W37976   9.760   1.337   4.653
68096W        W37977  13.617  40.037   4.228
68097W        W37978  36.559  21.640   0.860
68098W        W37979  26.030   4.301   1.730
68099W        W37980  42.920  39.886   0.363
68100W        W37981  35.948  23.668   0.860
68101W        W37982  12.764  31.040   1.927
68102W        W37983  35.061  32.097   3.756
68103W        W37984   3.944   7.355  10.444
68104W        W37985   8.314  41.812  13.886
68105W        W37986  15.214  36.544   0.311
68106W        W37987   0.366  10.853   3.664
68107W        W37988  21.531  11.157  14.839
68108W        W37989  29.101  23.709   2.317
68109W        W37990  43.340  14.279   1.896
68110W        W37991  17.114  28.085  10.965
68111W        W37992   8.783   7.692  14.974
68112W        W37993  42.370  44.911  14.380
68113W        W37994  30.040  19.242  14.442
68114W        W37995  28.471  35.018  14.407
68115W        W37996  24.050  32.421   0.744
68116W        W37997  26.157  32.992   1.414
68117W        W37998  11.683  17.238  11.079
68118W        W37999  17.257  40.315   4.760
68119W        W38000  36.569  32.596  12.879
68120W        W38001  43.888  19.628   2.350
68121W        W38002  21.645  22.537  12.907
68122W        W38003  41.851   5.309   1.339
68123W        W38004  23.688  30.969  13.799
68124W        W38005  19.175   2.305   0.458
68125W        W38006  32.101  10.845  14.921
68126W        W38007  35.595  31.036  14.909
68127W        W38008  31.911   0.411   0.428
68128W        W38009  41.520   7.674  14.355
68129W        W38010  20.092  18.118   4.628
68130W        W38011  10.228  44.362   1.798
68131W        W38012  32.010  35.941   3.649
68132W        W38013   2.407  35.995   9.933
68133W        W38014  24.104  32.623  12.909
68134W        W38015   0.816  17.199  11.061
68135W        W38016  28.069  11.243  11.042
68136W        W38017  17.101  26.608  14.940
68137W        W38018   7.219  16.606   4.145
68138W        W38019  37.503  10.863   4.239
68139W        W38020  22.174   4.878  14.761
68140W        W38021  41.388  16.075  11.042
68141W        W38022  43.441  44.259   2.277
68142W        W38023  36.583   6.920  11.012
68143W        W38024  34.058  36.963   2.712
68144W        W38025   8.246  30.603   4.790
68145W        W38026   4.704   4.303  10.465
68146W        W38027   5.260  32.105  13.977
68147W        W38028  35.935   0.925   4.288
68148W        W38029  21.541  29.556   2.722
68149W        W38030  30.136  39.449  11.973
68150W        W38031   2.246   3.424   2.675
68151W        W38032  16.756  18.293  13.358
68152W        W38033  11.713  44.406   2.286
68153W        W38034   9.884  19.129  11.481
68154W        W38035  13.832  41.982   1.823
68155W        W38036  44.804   9.300  11.953
68156W        W38037   7.192  21.540   2.277
68157W        W38038  42.370  17.138  12.990
68158W        W38039  26.551  36.536  13.880
68159W        W38040  24.027  32.033  12.369
68160W        W38041  30.522  35.103  13.906
68161W        W38042  13.776  29.127  13.900
68162W        W38043  29.962   7.821  13.904
68163W        W38044  34.065  27.606   3.740
68164W        W38045   2.319  39.365  14.393
68165W        W38046  11.345  27.550   2.702
68166W        W38047  17.099  43.392  10.551
68167W        W38048  29.110  43.960   0.465
68168W        W38049  39.031   1.381  12.456
68169W        W38050  16.653  16.125  14.310
68170W        W38051  13.605   6.841   2.797
68171W        W38052   7.377  25.013  12.914
68172W        W38053  25.990   0.757   0.858
68173W        W38054   6.869  22.555   1.875
68174W        W38055  27.513  18.785  13.382
68175W        W38056  31.086  44.447   9.926
68176W        W38057  17.191  19.538  10.894
68177W        W38058  36.017  43.391   3.670
68178W        W38059  19.753  31.441  11.515
68179W        W38060  21.538   4.698   3.334
68180W        W38061  10.240  43.004  11.088
68181W        W38062  41.917  41.420   1.908
68182W        W38063  11.326  14.792   0.870
68183W        W38064   2.758  27.035   2.790
68184W        W38065  43.959  26.166   1.409
68185W        W38066  15.306  35.549   3.332
68186W        W38067   4.925  28.129   3.758
68187W        W38068  32.516  42.907   4.603
68188W        W38069  20.221  34.470  14.828
68189W        W38070   1.284  40.031   1.784
68190W        W38071  27.996  16.136   3.150
68191W        W38072  43.018   3.852   2.278
68192W        W38073  15.737  33.876   4.309
68193W        W38074  15.790  21.615   2.259
68194W        W38075   9.263  33.069  12.384
68195W        W38076  12.753  19.118  11.569
68196W        W38077   3.263  44.975  14.427
68197W        W38078  20.072  39.456  13.472
68198W        W38079  15.303  15.706  14.898
68199W        W38080  38.347  37.087   1.717
68200W        W38081  35.481  12.262  13.310
68201W        W38082   2.826  33.958  13.806
68202W        W38083  14.595  18.087  12.457
68203W        W38084   7.902   6.858  12.082
68204W        W38085  16.166  10.192   1.861
68205W        W38086  43.452   5.837  13.879
68206W        W38087   5.318  18.278  13.019
68207W        W38088  29.071  42.383  13.512
68208W        W38089   8.231  12.136  11.590
68209W        W38090   7.767  41.959  13.975
68210W        W38091  42.384   4.732  10.156
68211W        W38092   1.933  16.195   2.384
68212W        W38093  17.680  43.403  13.896
68213W        W38094  28.090   8.861   2.735
68214W        W38095  44.374  41.022   3.193
68215W        W38096  36.071  32.540   0.385
68216W        W38097  44.442  16.580  11.503
68217W        W38098   9.716  16.104   0.753
68218W        W38099   0.867  20.220  14.310
68219W        W38100   5.763   9.149  13.886
68220W        W38101  21.534  33.926  13.374
68221W        W38102  10.290  36.931   4.321
68222W        W38103   7.395  13.688  12.560
68223W        W38104  43.960  28.567  14.408
68224W        W38105  36.430  31.591  12.915
68225W        W38106  29.066   9.359  12.448
68226W        W38107   8.404  28.658  14.460
68227W        W38108   2.401  43.325   0.910
68228W        W38109  39.419  15.264  13.047
68229W        W38110  38.493  28.947  13.327
68230W        W38111  31.568  23.119   3.834
68231W        W38112  24.177   8.704   0.842
68232W        W38113  35.040  14.149  13.059
68233W        W38114  12.205  27.502  12.441
68234W        W38115  37.071  38.532   2.185
68235W        W38116   6.761  10.340   4.721
68236W        W38117  27.569  23.641   1.757
68237W        W38118   3.869  15.694  10.467
68238W        W38119  37.420  31.953  11.432
68239W        W38120  43.389  42.931  13.056
68240W        W38121  41.446   3.899  11.513
68241W        W38122  36.579  41.924  10.635
68242W        W38123  19.059  42.820   2.862
68243W        W38124  11.634  15.226  11.003
68244W        W38125  33.483  10.797  11.953
68245W        W38126  26.522  43.435   1.225
68246W        W38127  40.004  13.656   0.440
68247W        W38128   2.836  22.242   1.898
68248W        W38129  32.593   6.306   2.744
68249W        W38130  17.213  12.740  14.291
68250W        W38131  27.081  36.556   4.640
68251W        W38132  44.360  31.470   1.387
68252W        W38133  13.268   1.325  12.089
68253W        W38134  30.086   3.233   3.765
68254W        W38135  21.200   5.816   0.301
68255W        W38136   1.438  30.012   4.163
68256W        W38137   6.334   2.824   0.818
68257W        W38138  39.315  32.902   4.770
68258W        W38139  35.980  13.125   4.796
68259W        W38140  13.803  43.891   2.815
68260W        W38141  22.517  40.473   1.394
68261W        W38142  39.003  36.863  10.568
68262W        W38143  12.836  17.589  11.599
68263W        W38144  12.205  35.056  11.924
68264W        W38145  22.537  29.564   3.315
68265W        W38146  35.925  39.009  14.377
68266W        W38147   2.437  43.001  12.396
68267W        W38148  30.024  33.515   2.853
68268W        W38149  26.164   1.805   3.638
68269W        W38150  39.426  40.881   3.715
68270W        W38151  12.174  43.818   1.807
68271W        W38152  40.953  42.011   3.320
68272W        W38153  18.592  27.523   4.176
68273W        W38154  24.177  41.963  12.994
68274W        W38155  31.149  13.339   0.789
68275W        W38156  10.796   1.445   0.410
68276W        W38157  32.990  18.669   3.264
68277W        W38158  17.781  34.570  12.011
68278W        W38159  41.939  14.721  10.488
68279W        W38160   4.316  13.274  14.341
68280W        W38161  43.442  29.583  11.492
68281W        W38162  38.930   0.425   0.926
68282W        W38163  34.447  21.051   3.351
68283W        W38164  30.497  42.367  12.847
68284W        W38165  25.017  11.648   3.378
68285W        W38166   3.913  19.575   3.176
68286W        W38167   6.887  16.191   2.797
68287W        W38168  29.542  26.090   0.783
68288W        W38169   3.377   6.736  14.356
68289W        W38170  30.505  11.747   3.154
68290W        W38171  33.951  38.883  10.901
68291W        W38172   7.776  35.975  11.499
68292W        W38173  29.015   1.854   2.683
68293W        W38174   0.299  37.962  10.936
68294W        W38175  37.083  11.635  12.926
68295W        W38176  29.092  36.898   3.704
68296W        W38177  10.182  34.071   2.233
68297W        W38178  18.274   5.200   4.815
68298W        W38179   1.271  35.364   4.310
68299W        W38180  19.114   1.457   4.617
68300W        W38181  25.127  34.114  13.360
68301W        W38182  28.981  31.091   4.308
68302W        W38183   4.269  39.955  14.377
68303W        W38184  20.223  31.136  13.317
68304W        W38185   8.185   8.395  14.897
68305W        W38186   3.304   3.838   1.450
68306W        W38187  24.646  15.091  13.482
68307W        W38188  44.409  32.622   1.342
68308W        W38189  13.730  30.563  12.873
68309W        W38190  30.999  28.000  10.620
68310W        W38191  12.328  18.200  14.852
68311W        W38192  41.459   4.711   2.758
68312W        W38193   4.934   0.358   1.370
68313W        W38194   0.434  15.817  11.104
68314W        W38195  40.337  26.585   0.428
68315W        W38196  34.097   8.696  11.096
68316W        W38197  24.090  13.817  10.407
68317W        W38198  38.882  25.198   1.912
68318W        W38199  15.710   8.708  10.043
68319W        W38200   9.890  13.717  12.493
68320W        W38201  10.194  18.560  14.472
68321W        W38202  12.177  25.014   4.284
68322W        W38203  30.652  18.737  10.443
68323W        W38204  44.457   7.298  13.013
68324W        W38205  20.610  31.563   0.461
68325W        W38206  10.164   3.266  10.920
68326W        W38207  26.187  13.164  14.867
68327W        W38208  25.696  41.432  12.486
68328W        W38209  12.283  21.593  14.368
68329W        W38210  40.535   9.673  13.399
68330W        W38211   8.180  33.472   0.747
68331W        W38212  44.476  41.854  11.491
68332W        W38213   1.377   9.791   4.244
68333W        W38214  37.417  24.159   1.816
68334W        W38215   1.770  25.085  12.985
68335W        W38216  35.051  34.527   4.191
68336W        W38217  28.466  23.567  11.062
68337W        W38218  33.524  37.353   5.254
68338W        W38219  16.683  42.377   2.676
68339W        W38220  36.877   4.771  11.044
68340W        W38221  14.767  33.941  13.959
68341W        W38222  30.969  30.609  13.957
68342W        W38223  20.209   1.745   2.223
68343W        W38224  15.766  11.850   3.308
68344W        W38225  42.023  10.814   2.799
68345W        W38226  33.893  41.829   2.765
68346W        W38227  44.869  43.413   2.370
68347W        W38228  30.531  37.426   2.303
68348W        W38229  11.775   0.442  13.807
68349W        W38230  23.201  33.029  11.481
68350W        W38231  14.156  28.114  14.953
68351W        W38232  20.029  31.530   4.126
68352W        W38233  44.300  37.987   1.272
68353W        W38234  18.126  38.390   0.731
68354W        W38235   4.804  35.455  11.546
68355W        W38236  14.120  19.176  10.604
68356W        W38237  44.282  39.934  11.953
68357W        W38238  39.034  40.458   1.280
68358W        W38239  20.756  39.969  12.476
68359W        W38240  13.313   5.787   3.647
68360W        W38241   4.244  22.140   3.677
68361W        W38242   6.750  28.619   2.837
68362W        W38243  25.065  19.145  11.508
68363W        W38244   9.656  13.288  13.374
68364W        W38245   5.803  11.827  13.515
68365W        W38246  26.003  30.626  10.453
68366W        W38247   7.766   3.272   1.925
68367W        W38248  42.312  29.650  13.060
68368W        W38249  20.132  43.298  13.925
68369W        W38250  13.131   0.299  13.889
68370W        W38251  25.647  39.450  11.481
68371W        W38252  17.062  10.677   4.630
68372W        W38253   4.746  18.723  11.464
68373W        W38254  11.327  24.518   2.833
68374W        W38255  23.032   5.911  13.891
68375W        W38256   7.257  32.127  14.014
68376W        W38257  27.054  35.545   0.902
68377W        W38258  33.993  38.841   4.280
68378W        W38259  38.555   5.927  13.483
68379W        W38260  43.821   7.812  14.446
68380W        W38261  14.303  24.129  14.344
68381W        W38262   9.875  27.137  12.486
68382W        W38263  21.704  42.792  12.571
68383W        W38264  23.605  13.677   0.427
68384W        W38265  31.029   7.897   2.759
68385W        W38266  38.963  21.101  12.376
68386W        W38267   0.849  39.982   1.889
68387W        W38268   6.296  11.817   2.258
68388W        W38269  40.957   7.236  13.973
68389W        W38270   2.888   1.356  12.960
68390W        W38271  38.562  20.673  14.890
68391W        W38272  29.104  22.248   3.170
68392W        W38273  31.946   2.278   1.797
68393W        W38274  19.547  25.599  11.562
68394W        W38275   8.804   4.329  13.483
68395W        W38276   3.753  16.154  14.890
68396W        W38277  40.996  29.564  12.508
68397W        W38278  11.710  44.933  10.140
68398W        W38279   3.765  28.634   2.197
68399W        W38280  41.978  34.872  14.332
68400W        W38281  38.352  37.869  14.803
68401W        W38282   1.422  39.441   3.709
68402W        W38283   0.987  21.234   2.869
68403W        W38284  15.208  24.547   0.773
68404W        W38285  13.747   8.228   3.772
68405W        W38286  41.984  41.454  10.027
68406W        W38287  22.549  33.048  11.526
68407W        W38288  33.441   0.748  12.913
68408W        W38289   2.899  44.308   4.239
68409W        W38290  10.758  17.737  13.474
68410W        W38291  31.900  38.068  11.450
68411W        W38292  32.913  12.845   2.804
68412W        W38293  40.994   8.797  13.888
68413W        W38294  27.671  17.671   0.349
68414W        W38295  37.898  34.873   3.646
68415W        W38296   0.309  44.981  13.037
68416W        W38297  35.075  32.096   0.732
68417W        W38298  13.234  31.099   1.248
68418W        W38299  25.552   0.795   2.677
68419W        W38300   7.903  17.757   0.437
68420W        W38301   7.183  10.678  14.809
68421W        W38302  26.965  16.096  11.074
68422W        W38303  16.603  10.274   4.603
68423W        W38304   2.349  38.355  13.333
68424W        W38305  15.704  22.240  13.060
68425W        W38306   0.340  23.097   1.240
68426W        W38307   4.740  22.063  10.092
68427W        W38308  23.493  14.318  13.518
68428W        W38309  16.219  27.087  11.585
68429W        W38310   6.301   6.909   2.790
68430W        W38311   2.401   4.888   1.422
68431W        W38312   6.780  22.036  11.488
68432W        W38313  32.393   6.279   3.665
68433W        W38314  33.590  20.727  13.019
68434W        W38315  23.493  33.892  12.462
68435W        W38316   4.399  12.253  11.071
68436W        W38317  43.307  37.462   2.706
68437W        W38318  34.009  40.866   3.309
68438W        W38319  12.658   7.334  13.314
68439W        W38320   0.280  26.490  11.091
68440W        W38321  37.452  31.533   0.930
68441W        W38322  17.789   2.248  12.009
68442W        W38323  33.450  30.495  11.910
68443W        W38324  41.787  16.086  10.501
68444W        W38325  33.896  12.214  10.421
68445W        W38326  34.023  26.175  11.915
68446W        W38327  25.620  13.225   0.335
68447W        W38328  25.160  12.323   3.780
68448W        W38329  33.381   7.716   4.790
68449W        W38330  34.406  17.704  11.450
68450W        W38331  17.179  39.369   0.364
68451W        W38332   3.712  31.073  14.027
68452W        W38333  23.147  17.750  11.444
68453W        W38334   0.333  16.236   3.705
68454W        W38335  11.646  21.196   0.427
68455W        W38336  33.501   7.795  11.390
68456W        W38337  13.769   9.809   0.450
68457W        W38338  15.806  40.801   1.261
68458W        W38339  14.664  30.962   2.222
68459W        W38340  11.253  39.025   0.898
68460W        W38341  37.878  35.544  11.466
68461W        W38342  37.014  35.047   2.667
68462W        W38343  20.248   7.324  13.428
68463W        W38344  41.965  42.346   2.394
68464W        W38345  36.570  16.655  14.465
68465W        W38346  28.624  22.042   4.167
68466W        W38347  44.382  44.830   1.700
68467W        W38348   4.794  25.045   4.279
68468W        W38349   4.877  16.574   2.819
68469W        W38350  12.666  37.060  11.904
68470W        W38351  16.170   9.284   4.652
68471W        W38352  11.343  18.145   0.861
68472W        W38353  15.093  14.802   2.842
68473W        W38354  26.010  38.972  11.024
68474W        W38355  10.816  28.444  13.388
68475W        W38356   1.789  44.367  11.863
68476W        W38357  25.170  20.232  13.850
68477W        W38358  41.014  40.348  14.955
68478W        W38359  24.036  10.149   5.309
68479W        W38360   6.890  18.653   2.834
68480W        W38361  22.093  15.802   1.858
68481W        W38362  19.588  10.869  13.847
68482W        W38363  28.144  42.029  14.367
68483W        W38364  35.092  14.199  10.938
68484W        W38365  26.629  16.605   2.741
68485W        W38366   8.280  44.869  13.992
68486W        W38367  18.642   6.342   2.742
68487W        W38368  23.518  16.688   4.836
68488W        W38369  40.907  17.768   1.426
68489W        W38370   7.253   9.664  12.982
68490W        W38371  28.045  38.518  10.997
68491W        W38372   2.728  30.590   4.711
68492W        W38373  40.803  29.500  11.386
68493W        W38374  30.017  23.986  14.870
68494W        W38375  29.665   4.326   2.665
68495W        W38376  31.099  17.633  11.569
68496W        W38377   9.796  28.143   2.185
68497W        W38378  17.282   7.772   1.763
68498W        W38379  32.023  42.802   3.294
68499W        W38380   3.461  42.305   3.835
68500W        W38381   3.938   6.712   0.282
68501W        W38382  39.331  29.646   0.346
68502W        W38383  21.640  16.757   5.281
68503W        W38384  38.365  35.911   1.392
68504W        W38385  23.524  27.499  11.385
68505W        W38386  31.047  31.921   1.922
68506W        W38387  21.090  16.091  14.280
68507W        W38388  39.014  22.008   4.291
68508W        W38389  15.329  12.797   4.121
68509W        W38390  33.959  33.475   2.418
68510W        W38391   5.337  43.292  14.935
68511W        W38392  35.912  42.311  10.612
68512W        W38393  25.678   2.271   0.827
68513W        W38394  33.986  36.484   3.344
68514W        W38395  18.753  21.049   2.784
68515W        W38396  41.511  28.080  11.121
68516W        W38397   1.914   8.191  12.971
68517W        W38398  18.281   1.358  12.912
68518W        W38399  29.983  20.624   4.741
68519W        W38400  37.943   7.695   0.747
68520W        W38401   9.689  23.492  12.519
68521W        W38402  36.041  20.717  11.002
68522W        W38403   8.189  14.607  14.486
68523W        W38404  21.234  35.526  14.808
68524W        W38405  23.651   5.261   2.373
68525W        W38406  30.912  28.464   3.867
68526W        W38407  12.710  32.576   0.309
68527W        W38408  40.429   6.300  10.122
68528W        W38409  10.316  33.910  11.975
68529W        W38410  32.932  28.980  10.420
68530W        W38411  28.040  26.652   5.259
68531W        W38412  26.633  20.228  14.979
68532W        W38413  35.939  24.187  12.970
68533W        W38414  43.793   5.735  10.982
68534W        W38415  21.563  34.031   0.482
68535W        W38416  11.642  31.911   9.956
68536W        W38417   4.420  22.581  11.914
68537W        W38418  14.280  23.169  14.765
68538W        W38419  37.493  26.586  12.972
68539W        W38420  42.401  30.156   3.338
68540W        W38421  40.800  37.570  14.347
68541W        W38422   9.335  13.689  13.915
68542W        W38423  15.109  27.659  10.607
68543W        W38424  23.199  16.773  11.455
68544W        W38425  25.109   0.794   4.611
68545W        W38426  26.538  43.869   1.216
68546W        W38427  42.470  40.006  13.848
68547W        W38428  15.220   7.184  14.313
68548W        W38429   3.325  31.603  12.982
68549W        W38430  25.572  23.017   3.755
68550W        W38431  41.004  16.184  11.567
68551W        W38432  31.613  14.810   2.872
68552W        W38433  44.263  20.042   5.195
68553W        W38434   3.290  27.493   4.714
68554W        W38435  27.954  35.028   0.871
68555W        W38436   6.713  29.943  13.417
68556W        W38437   6.209  14.211  10.560
68557W        W38438  20.178  38.371   2.351
68558W        W38439  36.410  28.496   2.715
68559W        W38440  13.244  43.410   2.328
68560W        W38441  37.063  40.385   3.180
68561W        W38442  41.296  12.721   3.333
68562W        W38443  36.911  25.604  12.905
68563W        W38444   4.732  42.777   2.263
68564W        W38445   4.778  36.047   3.792
68565W        W38446  24.025  20.185  14.891
68566W        W38447  32.519  30.996  14.480
68567W        W38448  15.110  26.057   1.830
68568W        W38449  22.055  30.549  13.520
68569W        W38450  27.047  29.452   0.243
68570W        W38451   0.325  36.972  12.874
68571W        W38452  14.203  21.691  13.469
68572W        W38453   2.869   0.298  10.417
68573W        W38454   1.930  24.144   1.935
68574W        W38455   1.873  31.140  12.068
68575W        W38456  12.680   9.191  11.859
68576W        W38457  36.382   6.779   1.873
68577W        W38458  16.597  14.244   2.867
68578W        W38459  38.869  44.937   1.413
68579W        W38460  23.006  12.796   2.845
68580W        W38461   7.342  15.248   0.462
68581W        W38462   4.833  30.553  14.874
68582W        W38463  20.200  30.519  14.020
68583W        W38464  44.870   7.892  12.467
68584W        W38465   8.849  39.336   3.266
68585W        W38466  26.169  15.183   4.186
68586W        W38467  20.201   6.889  13.439
68587W        W38468  27.154  42.300  14.830
68588W        W38469  21.551   0.932   0.309
68589W        W38470  44.776   4.704   4.746
68590W        W38471  12.301  44.338  10.412
68591W        W38472  34.954  43.915  12.493
68592W        W38473   9.831   7.210   4.267
68593W        W38474  34.588  40.530  13.478
68594W        W38475  18.608  32.037   2.259
68595W        W38476  19.739   7.252  14.831
68596W        W38477  31.054  34.928   4.212
68597W        W38478  35.044  33.044   2.394
68598W        W38479  12.344  41.938   0.434
68599W        W38480  37.904  10.314  14.831
68600W        W38481  24.554  14.160   0.853
68601W        W38482  11.314  43.356   2.684
68602W        W38483  19.744  19.634  11.389
68603W        W38484  14.212   4.323   2.201
68604W        W38485   2.817  15.160  12.391
68605W        W38486  27.613  29.632  12.936
68606W        W38487  15.632   5.860   4.209
68607W        W38488   9.375  28.566   0.424
68608W        W38489  44.261  25.576   3.764
68609W        W38490  31.133  33.902   2.725
68610W        W38491  32.599  37.909   0.841
68611W        W38492  16.659  31.482   2.204
68612W        W38493  14.811  10.276   2.897
68613W        W38494  42.977  42.409  14.275
68614W        W38495  41.940  24.175   0.320
68615W        W38496  23.062  15.244  10.566
68616W        W38497   9.655  31.487   2.701
68617W        W38498   9.858  43.420   4.220
68618W        W38499  37.396  31.587   1.823
68619W        W38500  37.487  36.087   4.797
68620W        W38501  22.630  44.906   9.973
68621W        W38502   2.366  38.460   2.184
68622W        W38503   0.303   4.888   4.298
68623W        W38504   9.794  35.903   4.749
68624W        W38505  41.991  44.288  11.429
68625W        W38506   5.769  42.794   0.821
68626W        W38507  31.612  44.420  12.051
68627W        W38508  20.756   2.302   1.820
68628W        W38509  38.348  25.165  12.081
68629W        W38510  14.621  12.145   2.338
68630W        W38511   6.192  16.633  12.943
68631W        W38512  22.617   0.971   1.290
68632W        W38513   1.944  21.075  11.535
68633W        W38514  42.875  16.773  14.516
68634W        W38515  39.379  27.982  11.882
68635W        W38516  32.111  38.893  13.810
68636W        W38517  13.232  27.941   3.803
68637W        W38518  20.112  14.102   5.128
68638W        W38519   6.420  13.773  14.980
68639W        W38520  20.668  27.013  11.048
68640W        W38521  26.507  10.742  11.062
68641W        W38522  20.089   3.415   9.957
68642W        W38523  14.150   3.890  14.347
68643W        W38524   3.915  24.992   4.129
68644W        W38525  15.212   8.232   0.289
68645W        W38526  20.097  44.932  13.322
68646W        W38527   9.672  23.550  11.984
68647W        W38528  30.551  27.079   4.749
68648W        W38529   3.349  39.902   1.284
68649W        W38530  13.752   8.682   2.413
68650W        W38531  11.198  41.456   4.230
68651W        W38532  33.026  35.581  10.946
68652W        W38533  17.723  22.183  14.956
68653W        W38534  41.343  35.357   1.377
68654W        W38535  19.134   6.416   0.263
68655W        W38536  20.640  26.572  10.963
68656W        W38537  37.402  22.204   3.791
68657W        W38538  33.125   6.708   0.335
68658W        W38539   7.894   0.742   1.935
68659W        W38540  41.338  15.118   0.881
68660W        W38541   5.379  12.153  13.499
68661W        W38542  12.297  19.622   0.917
68662W        W38543  21.116  20.252   4.599
68663W        W38544   4.338  11.675   0.351
68664W        W38545   8.748  21.046  13.817
68665W        W38546   7.173  30.511   4.266
68666W        W38547   7.265  25.686  14.441
68667W        W38548  43.509  20.543  14.030
68668W        W38549  29.477  12.648   3.299
68669W        W38550   6.748  25.562   4.658
68670W        W38551  29.492   7.761   3.799
68671W        W38552   3.419  20.669   0.392
68672W        W38553  15.134  23.143  12.428
68673W        W38554  20.193  23.720  14.998
68674W        W38555   2.836  44.374   1.370
68675W        W38556  33.926  44.415  13.992
68676W        W38557  36.496   2.267   4.316
68677W        W38558  17.786  21.112  12.064
68678W        W38559   2.724  42.027   2.709
68679W        W38560   5.817  36.849   1.375
68680W        W38561  13.694  17.700   2.384
68681W        W38562  41.370   1.329  11.534
68682W        W38563  38.432  23.091  13.386
68683W        W38564  33.451  19.253   1.286
68684W        W38565  12.357   9.792   1.394
68685W        W38566  14.720  24.481   2.835
68686W        W38567   5.398  30.642  14.967
68687W        W38568  28.508   5.392  11.107
68688W        W38569  30.954  43.419   3.702
68689W        W38570  29.504   8.687  12.095
68690W        W38571  13.164  18.254  13.958
68691W        W38572  16.088  17.726  12.403
68692W        W38573  24.203   2.244   0.442
68693W        W38574  11.366  35.104  11.607
68694W        W38575  16.725  38.030   1.839
68695W        W38576  30.118  15.208  14.991
68696W        W38577  26.604  15.286   4.315
68697W        W38578  38.921  27.183   3.175
68698W        W38579  25.640  28.614  14.883
68699W        W38580  44.792  16.757   1.265
68700W        W38581  44.364   8.771   1.718
68701W        W38582  19.597  14.825  10.456
68702W        W38583  28.465   9.810  13.529
68703W        W38584  22.541  24.066   4.715
68704W        W38585   4.795   3.876   4.136
68705W        W38586  36.404  20.761  11.407
68706W        W38587   5.352  27.561  14.949
68707W        W38588  22.743  25.995   4.837
68708W        W38589  15.281  27.617  11.537
68709W        W38590  31.573  44.444  14.771
68710W        W38591  40.955   9.194   2.675
68711W        W38592  27.639  27.962  11.518
68712W        W38593  29.977  43.807  11.505
68713W        W38594   6.760  17.182   1.798
68714W        W38595  36.062  11.748  12.889
68715W        W38596  11.239  25.167  11.064
68716W        W38597   5.751  28.127   3.690
68717W        W38598  17.243  20.048  11.457
68718W        W38599   1.745   7.300   2.850
68719W        W38600  24.527  13.193   4.207
68720W        W38601   0.900  44.757   2.225
68721W        W38602  15.782   5.238   2.301
68722W        W38603  26.475  27.186  13.794
68723W        W38604  16.296  27.069   1.417
68724W        W38605  24.066  13.820   2.831
68725W        W38606  41.900  31.414  11.054
68726W        W38607  23.499  14.659   4.351
68727W        W38608  14.208  18.211   3.355
68728W        W38609   4.255  28.578   1.327
68729W        W38610   7.355  42.346   0.327
68730W        W38611   1.312  16.294   3.264
68731W        W38612  43.381   8.353   3.207
68732W        W38613  25.641  41.910   0.890
68733W        W38614  35.526  15.807   3.206
68734W        W38615   2.810   7.233  13.314
68735W        W38616  26.581  11.325  13.040
68736W        W38617  39.496  35.868  13.338
68737W        W38618   9.886  30.512   1.271
68738W        W38619  21.090  26.153  11.470
68739W        W38620  16.146   9.160   0.309
68740W        W38621  32.984  11.822  12.965
68741W        W38622   8.872  29.925  10.998
68742W        W38623  17.131  32.117   0.963
68743W        W38624  16.762  28.035  12.007
68744W        W38625  14.261   5.426   3.673
68745W        W38626   0.385  44.470  14.353
68746W        W38627  38.065  30.096   4.713
68747W        W38628  13.688  21.036  10.616
68748W        W38629   3.759  35.982   5.085
68749W        W38630  41.861  41.516  11.986
68750W        W38631   4.723  43.443  12.887
68751W        W38632  19.279  40.871   3.848
68752W        W38633   6.814  18.282   1.285
68753W        W38634  15.162  26.594  10.972
68754W        W38635   7.814  13.156   9.940
68755W        W38636   1.361  16.194   2.722
68756W        W38637  23.193  24.554   1.804
68757W        W38638  17.570  33.993  10.421
68758W        W38639  10.856  10.772   2.326
68759W        W38640  19.192   0.276   2.700
68760W        W38641  43.464  13.601  11.894
68761W        W38642  10.379  27.513  14.905
68762W        W38643   0.257  28.628   2.874
68763W        W38644  12.830  37.435  10.632
68764W        W38645  21.742  25.005   2.407
68765W        W38646  17.070  40.468  12.443
68766W        W38647  14.173   7.288   3.869
68767W        W38648  41.995  16.245   3.800
68768W        W38649   1.364   8.680   0.928
68769W        W38650  42.893   1.844   0.757
68770W        W38651  23.128   8.685  14.375
68771W        W38652  41.845   3.866   4.193
68772W        W38653  13.155  41.505   1.356
68773W        W38654  16.121  25.492   2.847
68774W        W38655  42.844  14.340   4.650
68775W        W38656   6.245  27.566   1.706
68776W        W38657  24.702  23.534  11.391
68777W        W38658  18.743  35.482  12.926
68778W        W38659  11.323  21.742  13.981
68779W        W38660  21.198  14.819   3.210
68780W        W38661  33.104  23.165   2.415
68781W        W38662  41.954  34.989   2.742
68782W        W38663  24.717   1.736   4.656
68783W        W38664  24.051  28.082   4.201
68784W        W38665  29.932  14.130  14.349
68785W        W38666   8.689  44.894   4.177
68786W        W38667  43.378   3.412   0.948
68787W        W38668  16.233   3.404   3.151
68788W        W38669  35.046  20.756  11.526
68789W        W38670  25.599  35.884   3.720
68790W        W38671  32.099  15.581   0.865
68791W        W38672  38.042  11.158  13.347
68792W        W38673   4.224  30.920  14.372
68793W        W38674  44.897  18.777   4.346
68794W        W38675   7.272  18.648  11.425
68795W        W38676  12.813  37.050   0.756
68796W        W38677  21.686   9.733   0.839
68797W        W38678  33.395  18.111  11.903
68798W        W38679  27.497  22.244  13.960
68799W        W38680  19.062  20.638   1.213
68800W        W38681   8.817  32.621  12.457
68801W        W38682  20.542  34.610  10.949
68802W        W38683  30.015  11.166   1.289
68803W        W38684  38.826   1.440  12.861
68804W        W38685  11.738  20.721   1.714
68805W        W38686  18.714  15.622   4.651
68806W        W38687  17.682   9.209  14.956
68807W        W38688  43.351   3.284  13.013
68808W        W38689  39.359  33.436  12.823
68809W        W38690  22.222   2.393  11.049
68810W        W38691  24.657   4.738   4.635
68811W        W38692  20.131  41.411  11.904
68812W        W38693   8.863  38.051  11.559
68813W        W38694   7.674  17.769   2.254
68814W        W38695  12.200   8.264   0.901
68815W        W38696  27.188  36.074  12.952
68816W        W38697  10.692  23.028  14.845
68817W        W38698  30.462   2.286  10.643
68818W        W38699  11.811  39.399   0.363
68819W        W38700  32.470  29.476   2.664
68820W        W38701   8.351  10.740   4.176
68821W        W38702  24.074   0.861   1.332
68822W        W38703   9.301  19.100   2.340
68823W        W38704  39.384  38.912   0.389
68824W        W38705  26.541  41.358   4.330
68825W        W38706  17.738  24.596  11.101
68826W        W38707  23.107  21.230   2.673
68827W        W38708  27.582   5.794  12.081
68828W        W38709  30.084  24.009   3.343
68829W        W38710   3.890  19.672   1.846
68830W        W38711   4.906  21.578  13.060
68831W        W38712  37.074   0.837  10.594
68832W        W38713  17.771  22.658  11.606
68833W        W38714  32.500  30.426  10.002
68834W        W38715  14.112  26.088   1.321
68835W        W38716  11.821  10.285  14.906
68836W        W38717  22.640  39.842  14.287
68837W        W38718  16.688  23.513   2.317
68838W        W38719  25.501   0.850   0.401
68839W        W38720  16.659  23.085  14.805
68840W        W38721  35.003  21.538  14.891
68841W        W38722  10.817  32.456  12.403
68842W        W38723   2.375  20.636  11.421
68843W        W38724  25.581  22.747  12.546
68844W        W38725  44.782  33.443  12.025
68845W        W38726   9.347   7.286   1.926
68846W        W38727  18.555  37.932   1.740
68847W        W38728  34.516  10.349  14.784
68848W        W38729  13.159  17.086  11.520
68849W        W38730  42.839   0.391  13.850
68850W        W38731   6.697  30.092  14.401
68851W        W38732  41.907  34.000  14.785
68852W        W38733  42.483  37.511  13.414
68853W        W38734  43.405  20.730   4.775
68854W        W38735   0.334  29.099  13.939
68855W        W38736  36.952   1.450   9.676
68856W        W38737  31.924  33.404   0.430
68857W        W38738  39.006  27.090   5.210
68858W        W38739  10.740  31.014   0.449
68859W        W38740  34.570  26.015  12.991
68860W        W38741  13.173  19.590  10.594
68861W        W38742  38.476  29.094   0.291
68862W        W38743   0.260  39.529   0.468
68863W        W38744   2.297  24.167   0.249
68864W        W38745  36.015  41.316  12.076
68865W        W38746   0.939  27.561   3.799
68866W        W38747  23.146   6.287   0.762
68867W        W38748   8.680  19.579  11.481
68868W        W38749  10.295  42.389  11.440
68869W        W38750  14.330  31.985  13.403
68870W        W38751  17.722   4.723  10.995
68871W        W38752  28.967  30.961  12.851
68872W        W38753  39.433   9.846   4.711
68873W        W38754  24.190  22.248  12.546
68874W        W38755  26.116  17.773  12.527
68875W        W38756   2.334  30.990  13.422
68876W        W38757  26.684  11.257  10.470
68877W        W38758   9.316   2.260   3.191
68878W        W38759  25.072  23.208   1.846
68879W        W38760  26.173  32.035  11.532
68880W        W38761   5.291   7.245  14.422
68881W        W38762   7.323  28.184   4.687
68882W        W38763  34.558  26.672   3.210
68883W        W38764   0.823   2.956   2.863
68884W        W38765  37.549   0.304   1.891
68885W        W38766  34.934   4.700   0.456
68886W        W38767  36.025   6.325   5.188
68887W        W38768  13.663  37.512   1.867
68888W        W38769  21.635  21.695   2.282
68889W        W38770   8.831  31.046   3.837
68890W        W38771  11.664  21.205  13.849
68891W        W38772  23.058  25.166   4.297
68892W        W38773  23.193  42.801  10.052
68893W        W38774   8.249  17.745   0.844
68894W        W38775  11.637  30.547  11.976
68895W        W38776  25.093  44.862  13.890
68896W        W38777  24.670  26.499  13.803
68897W        W38778  32.941   8.329  10.440
68898W        W38779  41.530  44.496   3.717
68899W        W38780  34.925  14.195   1.866
68900W        W38781  31.426   6.334   5.098
68901W        W38782  35.872   3.376  10.570
68902W        W38783  21.079  19.198  14.951
68903W        W38784  20.185  26.075  11.871
68904W        W38785  38.515  33.897  10.540
68905W        W38786  39.459   1.319   1.818
68906W        W38787  31.111  34.943   0.284
68907W        W38788  35.090  22.680   4.812
68908W        W38789   8.264  36.486  11.417
68909W        W38790   0.488   1.326   4.217
68910W        W38791   7.738   5.265   1.747
68911W        W38792  27.139  21.636   3.777
68912W        W38793  36.944  37.056   1.699
68913W        W38794  41.538  19.144   1.861
68914W        W38795  25.664   8.295   4.624
68915W        W38796   6.416  37.471   2.367
68916W        W38797  25.154   4.361  13.874
68917W        W38798  41.390  13.256  13.003
68918W        W38799  14.198   4.834  11.417
68919W        W38800  30.456  25.062   2.358
68920W        W38801  26.683   2.358  13.845
68921W        W38802  27.081  35.010  12.002
68922W        W38803  27.171  40.877   0.283
68923W        W38804  34.924  16.312   3.330
68924W        W38805  26.184  14.721   1.222
68925W        W38806  39.390   6.243  12.078
68926W        W38807  21.526  16.173   0.960
68927W        W38808  10.830  41.468  13.044
68928W        W38809  29.051  20.095   0.406
68929W        W38810   2.798  24.059   0.889
68930W        W38811  31.505   3.845   0.312
68931W        W38812  41.039  32.525  14.458
68932W        W38813  23.605  18.678  11.401
68933W        W38814  20.080   0.356  13.388
68934W        W38815  42.393  15.581  10.944
68935W        W38816  12.352  23.075   4.294
68936W        W38817  35.497  12.357  12.854
68937W        W38818  32.970   8.249   0.825
68938W        W38819  12.698  40.501  13.338
68939W        W38820   4.272   8.869   1.695
68940W        W38821   9.870  44.339   4.700
68941W        W38822  44.505   1.354  14.812
68942W        W38823  10.147  29.033  12.538
68943W        W38824   6.682  13.616  14.293
68944W        W38825  29.036  20.214   4.270
68945W        W38826  22.193  18.167  11.096
68946W        W38827   1.351  21.182  11.009
68947W        W38828  41.838  36.058  14.836
68948W        W38829  14.297  38.050   2.253
68949W        W38830  34.544  34.612  13.941
68950W        W38831   8.311  32.459   3.147
68951W        W38832  32.933  24.044  13.410
68952W        W38833  35.913  32.015  13.945
68953W        W38834   2.826   8.311  10.963
68954W        W38835   0.928  13.162   0.301
68955W        W38836   7.256  25.113  11.007
68956W        W38837  40.531  38.008  11.126
68957W        W38838  11.795  28.117   9.572
68958W        W38839  16.132  23.012   0.421
68959W        W38840  33.594  39.488  13.914
68960W        W38841   5.892  21.130  14.485
68961W        W38842  10.234  20.240  12.861
68962W        W38843  43.294  39.313   4.655
68963W        W38844  10.733   6.215   0.914
68964W        W38845   9.708   5.394   3.849
68965W        W38846  41.915  25.192   2.262
68966W        W38847  23.113  20.567  10.930
68967W        W38848  13.201   2.448   0.476
68968W        W38849  23.131  16.243   1.849
68969W        W38850  27.594  11.733  12.835
68970W        W38851   5.434  36.459  13.508
68971W        W38852  37.082  33.032   1.834
68972W        W38853  23.070  18.094   2.392
68973W        W38854  36.994   0.828  14.952
68974W        W38855   1.430  38.863  12.362
68975W        W38856  43.824  19.176   4.623
68976W        W38857  21.083  14.702   1.253
68977W        W38858   8.833  43.877  11.381
68978W        W38859  37.523  37.434  11.128
68979W        W38860   6.849  32.530   2.895
68980W        W38861   7.324  42.855   2.184
68981W        W38862  34.471  17.766   4.187
68982W        W38863  33.001  27.510  10.570
68983W        W38864  36.359  26.601   2.901
68984W        W38865  34.928  36.965   2.879
68985W        W38866  14.721  23.520   3.259
68986W        W38867  20.729  29.599   4.834
68987W        W38868  36.029  34.982  11.608
68988W        W38869  11.780  27.487  12.475
68989W        W38870  28.664  15.616   4.743
68990W        W38871  25.969   5.859   1.260
68991W        W38872  25.561  13.219  10.576
68992W        W38873  35.559  27.590  12.007
68993W        W38874  44.928  14.222  11.030
68994W        W38875  41.427   0.253  10.914
68995W        W38876   0.793   8.674   0.817
68996W        W38877  19.267  34.988   2.879
68997W        W38878   1.244  43.391  14.371
68998W        W38879  12.679  43.020   4.606
68999W        W38880  32.057  13.307  12.423
69000W        W38881  28.176  15.227   0.950
69001W        W38882  44.438  15.641  12.359
69002W        W38883  38.864  11.668  13.313
69003W        W38884  25.561  40.930   4.308
69004W        W38885  19.251  43.354   0.336
69005W        W38886   7.194  33.991  12.890
69006W        W38887  42.015  30.926  10.530
69007W        W38888  28.647  32.938   2.765
69008W        W38889  32.023   3.230   9.960
69009W        W38890  31.524  18.292   1.742
69010W        W38891  27.129  22.562  14.290
69011W        W38892  26.674  29.977  14.942
69012W        W38893  18.745  42.358  10.591
69013W        W38894  29.071   4.804  14.812
69014W        W38895  26.655   0.961   3.831
69015W        W38896  10.272  34.939  11.918
69016W        W38897  37.536  33.095   3.668
69017W        W38898  41.514  31.978   0.377
69018W        W38899  36.415  43.457  12.926
69019W        W38900  24.030  37.926   1.309
69020W        W38901  21.746  41.462  12.889
69021W        W38902  29.987   9.717  10.503
69022W        W38903  23.034  30.055  10.453
69023W        W38904  28.999  41.432  14.497
69024W        W38905   5.749  35.968  14.934
69025W        W38906  27.487   7.230   2.371
69026W        W38907  12.775   6.281  14.428
69027W        W38908  19.174  13.280  14.372
69028W        W38909  12.692  32.050   1.890
69029W        W38910  10.756  29.117   2.694
69030W        W38911  18.760  27.021  13.805
69031W        W38912  21.137  31.598   0.958
69032W        W38913  28.957   5.918   5.698
69033W        W38914   3.440  19.246   0.941
69034W        W38915  36.447  44.946   0.886
69035W        W38916  16.094  35.582  12.005
69036W        W38917   9.235  29.503   2.307
69037W        W38918  40.474   0.940   3.671
69038W        W38919  11.768   0.770   3.712
69039W        W38920  44.770  10.150  13.886
69040W        W38921  11.317   2.339  13.812
69041W        W38922   7.711  37.975  12.867
69042W        W38923  23.203  30.040  11.493
69043W        W38924  43.310  10.343  12.916
69044W        W38925   2.433   6.916   3.228
69045W        W38926  29.609  27.547  12.340
69046W        W38927  33.444   3.733   1.829
69047W        W38928  27.630   0.927  10.487
69048W        W38929  29.630   1.945   2.212
69049W        W38930  35.513  24.068  12.849
69050W        W38931  23.236   0.769  11.565
69051W        W38932  26.499  29.433   3.760
69052W        W38933  26.557   2.458  10.918
69053W        W38934  23.618   0.868   1.861
69054W        W38935  44.354  31.070   2.386
69055W        W38936  20.121   3.295  11.411
69056W        W38937  22.608  11.826   3.354
69057W        W38938   6.317  41.413  10.415
69058W        W38939  44.000   0.762  11.457
69059W        W38940   1.296  24.091   4.341
69060W        W38941   2.242  31.563   0.287
69061W        W38942   3.950  14.164  11.010
69062W        W38943   6.797  42.790   0.324
69063W        W38944  17.647  34.395   4.289
69064W        W38945  27.047  29.624  13.043
69065W        W38946  20.659  22.135   3.744
69066W        W38947  31.422  44.768  13.454
69067W        W38948  42.334  43.510   1.730
69068W        W38949  33.570  24.652  11.535
69069W        W38950   1.748  10.734   3.867
69070W        W38951  16.209  39.334  13.876
69071W        W38952  39.935  10.816   4.710
69072W        W38953  36.591  27.109  14.322
69073W        W38954   4.766  15.669   5.249
69074W        W38955  30.061  44.912  10.899
69075W        W38956  36.888  28.171  11.532
69076W        W38957   7.734  23.101   4.185
69077W        W38958  10.362  14.240   4.281
69078W        W38959  18.125  30.530   0.923
69079W        W38960   6.827   9.186  11.935
69080W        W38961   1.403   0.310   3.816
69081W        W38962  35.371  30.542   1.419
69082W        W38963  15.147  17.737  13.961
69083W        W38964  14.206  17.176  11.127
69084W        W38965  11.352  12.351  10.572
69085W        W38966  38.370  22.209   4.175
69086W        W38967  29.622  39.022   4.801
69087W        W38968  25.021  31.932   4.298
69088W        W38969  17.137  37.401  13.897
69089W        W38970   2.780  17.188  12.435
69090W        W38971  25.068  24.620  12.005
69091W        W38972   6.818   0.250   2.279
69092W        W38973  14.147  39.450   2.211
69093W        W38974  13.290  21.048  11.927
69094W        W38975   5.885  28.607   4.129
69095W        W38976   3.824  10.353  12.576
69096W        W38977   4.945   2.234   1.331
69097W        W38978  20.126   8.816  12.378
69098W        W38979  28.133   4.933  12.341
69099W        W38980  31.903   7.373   2.247
69100W        W38981   4.800  37.958  11.573
69101W        W38982  15.266   2.384  12.001
69102W        W38983  26.697  32.120   3.749
69103W        W38984  28.046   6.211   4.705
69104W        W38985   1.801   4.871  14.392
69105W        W38986  12.255  22.185  12.877
69106W        W38987   4.445   0.362  10.541
69107W        W38988  34.574   0.973   0.288
69108W        W38989  41.386  41.295  13.504
69109W        W38990  35.484   7.213   4.309
69110W        W38991  36.901  28.492  12.886
69111W        W38992  14.272  23.151  12.838
69112W        W38993  18.146  14.099   1.743
69113W        W38994  14.603  10.781   0.823
69114W        W38995  32.905  41.907  14.805
69115W        W38996  22.658  19.664   0.829
69116W        W38997  40.317  30.998   2.880
69117W        W38998  22.183  15.590   1.351
69118W        W38999  43.287   1.903   2.325
69119W        W39000  20.167  27.625   1.300
69120W        W39001  26.515  15.648   2.762
69121W        W39002  10.771  25.656   4.791
69122W        W39003  14.711  13.339  12.521
69123W        W39004   6.694   4.929  12.931
69124W        W39005  32.423   6.227  10.546
69125W        W39006  14.609  39.473   4.753
69126W        W39007   2.788  12.184  13.368
69127W        W39008   6.412  34.954   1.780
69128W        W39009  28.946  27.124  14.859
69129W        W39010  24.013   5.729   0.340
69130W        W39011  20.761  18.168  11.418
69131W        W39012  19.178   8.698   4.228
69132W        W39013  44.840  13.201  14.493
69133W        W39014  15.640  31.085   0.882
69134W        W39015  37.918  35.993  14.893
69135W        W39016   7.870  26.594  10.096
69136W        W39017   0.938  21.114   4.785
69137W        W39018  40.952  36.422   1.837
69138W        W39019  14.169  12.717   2.271
69139W        W39020  10.711  43.833  12.495
69140W        W39021   3.924   3.427  11.408
69141W        W39022  24.642   2.233   3.212
69142W        W39023  30.918  42.969   4.288
69143W        W39024  43.406  17.690  13.835
69144W        W39025  36.064  18.603   1.874
69145W        W39026  18.695   1.429   3.305
69146W        W39027  14.685   8.185  13.004
69147W        W39028   5.770  19.224   0.726
69148W        W39029  44.812  13.144   2.264
69149W        W39030   2.919  11.715  13.968
69150W        W39031  20.124  40.500   0.778
69151W        W39032  23.707  43.506  12.011
69152W        W39033  14.670  14.122  14.483
69153W        W39034  16.294   8.294  10.428
69154W        W39035  33.073  10.318  13.839
69155W        W39036   6.417   7.698   2.226
69156W        W39037   1.948  28.017  12.371
69157W        W39038  13.710  22.041  13.476
69158W        W39039  33.980  21.154  10.980
69159W        W39040  43.781  32.429  10.892
69160W        W39041   5.722  21.731   2.719
69161W        W39042  16.776  25.627   1.260
69162W        W39043  14.311  35.494  10.529
69163W        W39044  44.883  14.716  12.577
69164W        W39045   7.259  44.270  11.945
69165W        W39046  17.278  15.117  11.464
69166W        W39047  42.786  18.251   2.775
69167W        W39048  33.543  26.135   2.698
69168W        W39049  11.153  28.004  14.435
69169W        W39050   1.777  17.099   4.220
69170W        W39051  28.667   8.764  13.051
69171W        W39052  18.165  34.905  10.535
69172W        W39053   5.762  44.366   4.284
69173W        W39054  43.473  16.626  10.463
69174W        W39055  24.645   3.920   3.776
69175W        W39056   3.379  41.412   3.274
69176W        W39057  13.253  21.754   4.768
69177W        W39058   7.213  13.124  11.508
69178W        W39059   9.796  10.647  12.984
69179W        W39060  11.257  26.171  10.580
69180W        W39061  43.861  20.145   3.180
69181W        W39062   5.834   3.808   4.133
69182W        W39063  31.553  25.213  12.849
69183W        W39064   6.219  30.052   2.301
69184W        W39065  14.729  29.155   2.412
69185W        W39066  23.497   1.756   2.690
69186W        W39067  31.116  19.157   2.365
69187W        W39068  35.603  43.861   1.427
69188W        W39069  12.842   9.191   0.732
69189W        W39070  32.112   4.841  12.477
69190W        W39071  31.930   2.739   0.737
69191W        W39072  17.560  16.695   2.666
69192W        W39073  13.819  36.920  14.297
69193W        W39074  35.543  37.935  13.868
69194W        W39075  33.586   1.795   4.299
69195W        W39076   8.402  31.517   2.834
69196W        W39077   9.162   9.284  13.397
69197W        W39078  18.720   3.390  14.805
69198W        W39079  29.631  30.442  13.043
69199W        W39080  33.623  17.593  14.944
69200W        W39081  36.873  37.832  14.016
69201W        W39082  21.675  32.446   3.255
69202W        W39083  36.358  28.012   3.808
69203W        W39084   9.305  11.840   1.296
69204W        W39085  36.943  15.084  13.390
69205W        W39086  24.011   2.824   2.671
69206W        W39087   8.310  38.334   2.401
69207W        W39088  43.404  22.743   2.716
69208W        W39089  37.059  20.069  10.499
69209W        W39090   9.643  35.894  13.866
69210W        W39091  30.015  35.386  14.849
69211W        W39092  42.490  11.362  14.794
69212W        W39093   2.773  15.756   3.816
69213W        W39094  30.640  33.984   2.230
69214W        W39095  37.422  33.942   1.734
69215W        W39096   1.293  10.306   4.237
69216W        W39097   4.804  33.905   2.675
69217W        W39098  10.752   6.252   3.671
69218W        W39099   5.292   0.459  13.459
69219W        W39100   1.736   5.773  13.953
69220W        W39101  23.628  36.891   3.754
69221W        W39102  10.208  28.555   0.360
69222W        W39103  11.156  25.045   3.646
69223W        W39104   4.837   5.281  10.604
69224W        W39105   5.420  32.506   3.355
69225W        W39106  32.456   1.968  14.968
69226W        W39107  18.092  24.661   4.682
69227W        W39108  36.517   5.373   2.750
69228W        W39109  43.863  39.486  13.322
69229W        W39110  35.412  42.981   4.227
69230W        W39111  34.372  15.734  13.401
69231W        W39112  33.598  21.127  11.077
69232W        W39113   6.214  11.293   4.625
69233W        W39114  29.523  43.345   2.268
69234W        W39115  26.468  41.534   0.945
69235W        W39116  23.070  27.641   0.749
69236W        W39117  36.483   1.776  10.606
69237W        W39118  19.115   2.410  11.073
69238W        W39119  34.099  16.662   3.696
69239W        W39120   9.863  13.317   2.881
69240W        W39121  36.439  23.632   2.195
69241W        W39122  32.947  19.122   3.321
69242W        W39123  39.870  28.085   2.238
69243W        W39124  44.343   3.448   3.638
69244W        W39125   2.742  33.389   3.861
69245W        W39126  19.039  22.635  13.418
69246W        W39127  22.235  18.169  14.428
69247W        W39128  29.059   7.266  12.944
69248W        W39129  38.351  36.435  13.940
69249W        W39130   3.768   0.464   4.141
69250W        W39131   9.276   0.843  14.789
69251W        W39132  26.485   4.865   4.813
69252W        W39133  40.377  41.449  13.381
69253W        W39134  20.665  39.388  11.028
69254W        W39135  15.258   3.787   3.336
69255W        W39136  27.966  32.893   1.819
69256W        W39137   5.332  24.137  14.446
69257W        W39138  17.105  38.070  14.997
69258W        W39139   0.766  19.145  14.016
69259W        W39140  10.813  34.570   0.244
69260W        W39141   4.849  44.384  10.980
69261W        W39142  12.275  28.535  10.532
69262W        W39143  18.561  25.635   3.161
69263W        W39144  34.953  18.640   1.438
69264W        W39145   3.757  26.537  12.556
69265W        W39146   0.266  33.899  12.408
69266W        W39147  15.280  37.839   1.837
69267W        W39148  28.443  32.607   4.639
69268W        W39149  28.936  40.807   0.408
69269W        W39150  38.042  39.856  12.092
69270W        W39151  19.214   7.294  14.811
69271W        W39152  33.383  35.409   3.224
69272W        W39153  39.838   5.747   0.397
69273W        W39154  43.941   3.383   3.684
69274W        W39155  34.461   6.389  12.434
69275W        W39156  36.575  16.189  12.000
69276W        W39157  17.613  33.119  11.885
69277W        W39158  28.640   7.891  14.912
69278W        W39159   4.302  33.602   3.380
69279W        W39160  42.798   2.422   2.337
69280W        W39161  44.913  44.864   3.344
69281W        W39162  32.524  33.487   2.250
69282W        W39163  35.921   5.714  13.500
69283W        W39164  27.616  15.285  12.405
69284W        W39165  39.963  22.587   3.226
69285W        W39166  21.059  13.624   0.810
69286W        W39167  13.766  30.991   0.248
69287W        W39168   3.930   3.308  10.509
69288W        W39169  32.633  24.655   3.319
69289W        W39170  37.988  31.062  14.351
69290W        W39171  31.012  42.920  12.358
69291W        W39172  42.507  20.561  10.600
69292W        W39173  23.597  16.084   4.824
69293W        W39174  35.016  28.558  12.484
69294W        W39175  38.875  36.366  14.331
69295W        W39176  15.101  25.137   3.770
69296W        W39177   1.307  36.076  13.011
69297W        W39178   6.900   5.806   4.243
69298W        W39179   4.273  18.124   2.699
69299W        W39180  20.172   9.254   2.192
69300W        W39181  25.168   4.298   4.283
69301W        W39182   2.269  32.573  13.846
69302W        W39183  31.472  28.681  12.450
69303W        W39184  40.528  34.375   4.814
69304W        W39185  26.508  17.623  14.418
69305W        W39186  15.822  37.461  12.994
69306W        W39187  11.323  21.689  14.785
69307W        W39188  15.765  26.635  11.112
69308W        W39189   7.703   3.902  14.450
69309W        W39190  23.505   9.746  10.982
69310W        W39191  15.628  32.109  12.480
69311W        W39192  18.734  17.673   0.967
69312W        W39193  31.483  24.152  12.939
69313W        W39194  22.612  26.653  14.327
69314W        W39195   5.862  19.084   1.818
69315W        W39196  33.595   3.417  13.967
69316W        W39197   9.205   8.365  12.863
69317W        W39198  39.369  16.704   2.761
69318W        W39199  43.936  24.641   0.921
69319W        W39200  39.904  31.901  12.360
69320W        W39201  13.121  42.877   1.849
69321W        W39202  32.904  21.067   1.350
69322W        W39203   4.913  18.735  12.046
69323W        W39204   2.962  39.921  12.008
69324W        W39205  22.081   2.888   3.690
69325W        W39206  43.856  42.503   1.913
69326W        W39207   6.916   7.185  14.983
69327W        W39208  20.166  42.822   0.259
69328W        W39209   2.864  13.112   1.787
69329W        W39210   2.925  30.106  13.410
69330W        W39211  22.513  27.956  12.897
69331W        W39212  41.994   1.894   4.205
69332W        W39213  13.810  12.307   3.184
69333W        W39214  17.229  11.713  14.335
69334W        W39215  18.767   5.426  11.106
69335W        W39216  30.609  36.358   2.778
69336W        W39217  21.681  22.199  12.386
69337W        W39218  38.479  13.751  14.991
69338W        W39219   1.802  29.079   1.703
69339W        W39220  31.912  18.644   1.290
69340W        W39221  17.263  12.300  13.456
69341W        W39222  40.512  23.087  11.382
69342W        W39223  35.955  16.801  10.932
69343W        W39224   8.282   5.922  10.548
69344W        W39225  40.051  36.399   4.739
69345W        W39226  34.933  35.536  10.414
69346W        W39227   1.317  39.521   1.736
69347W        W39228  38.480  16.789   3.380
69348W        W39229  36.461  32.139  10.996
69349W        W39230  32.085  27.620  11.122
69350W        W39231  12.656   5.349   3.240
69351W        W39232  42.483  27.629  13.523
69352W        W39233   2.323   7.893  10.591
69353W        W39234  30.463  42.442  10.537
69354W        W39235  44.349  21.169   1.335
69355W        W39236  12.276  30.069  11.102
69356W        W39237  11.708  31.599   3.662
69357W        W39238   9.720  23.664  13.046
69358W        W39239  12.268   1.753   1.820
69359W        W39240  34.571  11.162   3.253
69360W        W39241  15.720   2.772   3.704
69361W        W39242  34.118  10.378  10.609
69362W        W39243  19.701  25.015   2.293
69363W        W39244  30.502  16.639  14.322
69364W        W39245  13.321  21.598   2.382
69365W        W39246  15.151  43.011   2.404
69366W        W39247   0.984  32.420  12.528
69367W        W39248  36.565  33.025  11.407
69368W        W39249   1.343  10.140  11.129
69369W        W39250  19.728  13.267   2.232
69370W        W39251  39.865  40.987   3.147
69371W        W39252   2.291   9.375   2.687
69372W        W39253   8.828  15.679  12.090
69373W        W39254  38.361  40.905  13.850
69374W        W39255  33.982  42.959   0.352
69375W        W39256   1.360  44.281  13.982
69376W        W39257  28.601  41.975  13.315
69377W        W39258   6.720  27.658   4.313
69378W        W39259   2.944  13.298  11.933
69379W        W39260  15.261  33.542  10.080
69380W        W39261  18.606  29.662  10.498
69381W        W39262   1.821  21.120   4.257
69382W        W39263  43.466  24.487  10.494
69383W        W39264  20.144  43.868  14.484
69384W        W39265  42.361  32.020  14.969
69385W        W39266  34.871   0.312   2.728
69386W        W39267  13.703  25.118  14.488
69387W        W39268  20.709  16.080   3.268
69388W        W39269  12.674  38.438   3.795
69389W        W39270  15.682   6.400  11.507
69390W        W39271   3.217  36.896  11.385
69391W        W39272  11.144   9.751   2.864
69392W        W39273   4.285   5.743   3.252
69393W        W39274  17.201  17.200   1.780
69394W        W39275  14.798   9.827  12.394
69395W        W39276  17.798  42.455   3.832
69396W        W39277  26.669  27.591   5.196
69397W        W39278   4.844  33.475   5.160
69398W        W39279  34.469  21.567   2.745
69399W        W39280  44.822  39.853  10.411
69400W        W39281   7.394   2.227  13.016
69401W        W39282  39.924   0.778   2.366
69402W        W39283  29.555  15.607   3.808
69403W        W39284  24.693  25.078  11.449
69404W        W39285  16.630  13.205   0.426
69405W        W39286  17.623  12.342   0.397
69406W        W39287  20.712   0.479   1.369
69407W        W39288  15.127  44.856   2.217
69408W        W39289  22.007  21.158  11.005
69409W        W39290  35.072  44.768  11.613
69410W        W39291  13.261  18.666   4.705
69411W        W39292  44.445   3.311   1.396
69412W        W39293  35.572   2.231  11.031
69413W        W39294  22.696   9.651   0.257
69414W        W39295  26.644   6.780   2.332
69415W        W39296  15.757  25.640  14.386
69416W        W39297  19.618  40.315   3.182
69417W        W39298  33.401  41.521   5.133
69418W        W39299   3.253  22.245   3.226
69419W        W39300  41.416  25.082   1.714
69420W        W39301   8.742  19.100  11.515
69421W        W39302  32.064  32.439  13.889
69422W        W39303  13.762  41.492   3.198
69423W        W39304  37.494  15.591   2.364
69424W        W39305  18.665  26.524  10.594
69425W        W39306  37.338  33.054   0.883
69426W        W39307  27.146  24.171   4.629
69427W        W39308   8.405  11.669   2.792
69428W        W39309  38.449  27.110  10.409
69429W        W39310  30.959  41.380   5.285
69430W        W39311   4.269  14.256  10.952
69431W        W39312  11.173  44.899  10.890
69432W        W39313  38.896  18.548   2.339
69433W        W39314  30.009  35.494   3.270
69434W        W39315  39.352  44.870   0.327
69435W        W39316   8.306  12.654   0.268
69436W        W39317  40.020  40.431   2.291
69437W        W39318  44.000  10.302  13.958
69438W        W39319  44.801   7.699  13.457
69439W        W39320  34.467  27.674  10.601
69440W        W39321  44.866   5.340  13.330
69441W        W39322   8.694  44.333   2.709
69442W        W39323   0.372   2.764  13.936
69443W        W39324  30.593  23.986   1.865
69444W        W39325  20.652   8.725  13.830
69445W        W39326  25.623  44.403   3.277
69446W        W39327  11.627  44.758  11.974
69447W        W39328  23.171  12.689  12.023
69448W        W39329   1.841  42.011  13.848
69449W        W39330   4.347  22.506   0.341
69450W        W39331  24.144  36.389   3.235
69451W        W39332  34.478   6.714   1.868
69452W        W39333  38.970  36.517   2.194
69453W        W39334  30.979  26.089   3.864
69454W        W39335  26.576  10.675   0.758
69455W        W39336  24.199  44.344  13.477
69456W        W39337  36.916  17.234   0.352
69457W        W39338  12.817  40.980  14.007
69458W        W39339  29.050  17.279   0.256
69459W        W39340  39.422  13.260   3.743
69460W        W39341  27.171  35.402  11.024
69461W        W39342  33.875  20.725  14.473
69462W        W39343   1.258   4.411   4.262
69463W        W39344   7.203   4.226  13.436
69464W        W39345  14.155  10.651   3.774
69465W        W39346  44.447  39.541  11.587
69466W        W39347  34.074   3.817   2.741
69467W        W39348  25.090   5.898   3.330
69468W        W39349  35.966   3.264  13.313
69469W        W39350  39.916  15.649   2.707
69470W        W39351  42.325  33.132   2.337
69471W        W39352   0.463  29.491  12.947
69472W        W39353  24.020  17.110   2.296
69473W        W39354  16.766  26.487   4.233
69474W        W39355  29.564   3.235  12.034
69475W        W39356  14.647  11.751   0.795
69476W        W39357   6.889  32.398   1.345
69477W        W39358  16.119  26.703   2.788
69478W        W39359  18.218   7.367   1.437
69479W        W39360  24.635  20.720  11.418
69480W        W39361  32.136  32.613  10.470
69481W        W39362  19.091  39.387   0.879
69482W        W39363  38.945  21.524  12.363
69483W        W39364   1.965  32.460  13.320
69484W        W39365  42.296  13.682   4.786
69485W        W39366  38.561  23.146  11.875
69486W        W39367  18.056  36.376  10.906
69487W        W39368  36.444  37.420   2.337
69488W        W39369  31.982  22.188   0.961
69489W        W39370  17.647  40.862  13.997
69490W        W39371  31.519  15.180  11.468
69491W        W39372  31.091   0.338   2.887
69492W        W39373  27.156   6.787  10.992
69493W        W39374  30.162  28.073   3.855
69494W        W39375  33.524  39.369  12.993
69495W        W39376   7.320  41.028   3.863
69496W        W39377  29.034  18.277  13.802
69497W        W39378   8.223  23.994   4.833
69498W        W39379  23.540  19.071   3.819
69499W        W39380  14.737  34.009   3.840
69500W        W39381  34.610   5.837  14.797
69501W        W39382  42.391   5.783  13.404
69502W        W39383  21.597   7.386  12.072
69503W        W39384  37.555  41.841  11.096
69504W        W39385   8.247   8.195   1.725
69505W        W39386  44.929  25.060   1.445
69506W        W39387  36.851  18.718  14.848
69507W        W39388  20.593  24.151  11.440
69508W        W39389  14.672   5.365  10.502
69509W        W39390   6.364  33.117   1.342
69510W        W39391  32.428  32.534   2.339
69511W        W39392   1.310  14.319  11.406
69512W        W39393  38.903  30.980   4.259
69513W        W39394  12.756   8.728  11.438
69514W        W39395   7.714   7.902  14.291
69515W        W39396  19.739  30.086   9.954
69516W        W39397  17.189  25.625   1.224
69517W        W39398  21.151   5.306  11.559
69518W        W39399  31.527  31.622  11.541
69519W        W39400  26.968  10.197   1.332
69520W        W39401  43.933  23.039  13.370
69521W        W39402  39.864   1.742  12.550
69522W        W39403  35.981  31.522  11.428
69523W        W39404  27.466  36.938  13.453
69524W        W39405  14.627   1.299  13.848
69525W        W39406   3.371  40.516  10.554
69526W        W39407  39.971   7.853   4.317
69527W        W39408  41.808   2.405  12.920
69528W        W39409   1.415  40.485   0.477
69529W        W39410  34.927  43.280   3.345
69530W        W39411  25.130   5.861   4.196
69531W        W39412  16.229  24.541  10.971
69532W        W39413   4.828  27.554   0.447
69533W        W39414  42.908  23.570  10.561
69534W        W39415  37.832  19.715  10.974
69535W        W39416  33.074   5.321  12.384
69536W        W39417  35.362  38.418   4.308
69537W        W39418  18.283  27.603  11.959
69538W        W39419   4.927  42.810   4.215
69539W        W39420  14.107  25.594   3.210
69540W        W39421  34.376  20.759   4.205
69541W        W39422  32.092   7.317   3.317
69542W        W39423  16.208   6.238   1.762
69543W        W39424  11.642  26.500  14.496
69544W        W39425   4.345  39.455  13.002
69545W        W39426  23.110  38.494   3.707
69546W        W39427   1.943  29.114   3.344
69547W        W39428   8.811  27.962  13.865
69548W        W39429  37.432  11.315   4.614
69549W        W39430  23.101  43.498  13.856
69550W        W39431  40.923  43.510  14.949
69551W        W39432   5.410  15.724   3.869
69552W        W39433  29.136  30.938  11.862
69553W        W39434  13.722  27.124  12.880
69554W        W39435   7.331  33.495  13.822
69555W        W39436  38.950  44.784   4.288
69556W        W39437  15.197  39.477   2.664
69557W        W39438  38.355  34.056   2.890
69558W        W39439  20.214  39.459   0.478
69559W        W39440   8.377  34.075   3.736
69560W        W39441  44.789  19.720  10.919
69561W        W39442  42.987   4.874   3.789
69562W        W39443  35.899  35.073  10.455
69563W        W39444  41.324  31.998  13.893
69564W        W39445  33.472  37.002  11.005
69565W        W39446  28.556   7.727   4.223
69566W        W39447  32.057  29.566  14.370
69567W        W39448  19.061  39.893   3.330
69568W        W39449   8.892  20.627  11.427
69569W        W39450  32.902  12.799  14.816
69570W        W39451  34.389  41.492   2.809
69571W        W39452  38.428  34.390  13.822
69572W        W39453   0.811   2.740   4.304
69573W        W39454  42.325   7.887   4.694
69574W        W39455  14.589  32.555   4.741
69575W        W39456   9.703  20.746   4.328
69576W        W39457  44.457  15.693  14.437
69577W        W39458  35.070  39.385   4.698
69578W        W39459  25.508  11.318  14.393
69579W        W39460  25.110  29.551   4.641
69580W        W39461  20.564  33.585   0.808
69581W        W39462  31.012  39.502   4.603
69582W        W39463  13.219  42.289   4.641
69583W        W39464  27.135  35.420  12.426
69584W        W39465  13.707  37.432  14.923
69585W        W39466  28.543  20.255   2.685
69586W        W39467  19.072  41.426  14.284
69587W        W39468  15.813   0.775   5.237
69588W        W39469  26.068   0.413  13.051
69589W        W39470  13.770  10.735   3.280
69590W        W39471  25.582  44.463  12.486
69591W        W39472  38.999  20.609  10.447
69592W        W39473   9.885  32.569  12.926
69593W        W39474   5.907  10.699   1.401
69594W        W39475  11.228   9.674   0.324
69595W        W39476  19.278  29.050  13.876
69596W        W39477   6.352  15.734  14.392
69597W        W39478  42.973   0.816  12.991
69598W        W39479  24.975  43.840   0.757
69599W        W39480  16.288  18.148   3.362
69600W        W39481   4.927  19.162   3.778
69601W        W39482  19.246  10.249  10.513
69602W        W39483  24.627   7.375   2.251
69603W        W39484  30.491  18.274  14.931
69604W        W39485  44.454  18.628   3.161
69605W        W39486  11.130   0.299   3.295
69606W        W39487  20.643  18.064  13.064
69607W        W39488   1.901   5.370  12.918
69608W        W39489  24.663  26.637   4.743
69609W        W39490  43.818  23.666   4.618
69610W        W39491  18.224   4.278  13.519
69611W        W39492  16.763  40.973   2.385
69612W        W39493  16.177  24.657  11.560
69613W        W39494   3.882  31.979   2.363
69614W        W39495  41.303   1.474   3.279
69615W        W39496  12.673  26.643  10.976
69616W        W39497   6.801  44.803   4.746
69617W        W39498   1.731  15.172  11.570
69618W        W39499  15.655  14.688  11.589
69619W        W39500  27.616  32.992  14.874
69620W        W39501  14.281  32.448   3.271
69621W        W39502   7.368   5.302   2.231
69622W        W39503  25.529  28.062   0.340
69623W        W39504  30.980  21.654   2.290
69624W        W39505  18.093  17.590  10.898
69625W        W39506  23.047   3.296   2.335
69626W        W39507  21.596   2.820  14.372
69627W        W39508  43.388  26.136   0.359
69628W        W39509  26.059   7.831  11.470
69629W        W39510  24.187  17.610   3.871
69630W        W39511  13.628  33.006  11.902
69631W        W39512  17.226   5.931  12.834
69632W        W39513  16.076  25.975  14.305
69633W        W39514  40.361  27.521   3.167
69634W        W39515   5.885  31.988   1.248
69635W        W39516  31.081  41.010   4.735
69636W        W39517  17.250  28.525  14.768
69637W        W39518  39.486  20.614   2.719
69638W        W39519  22.551   2.432   1.857
69639W        W39520  23.011  14.202   1.441
69640W        W39521  16.288   0.256  13.372
69641W        W39522  17.198  18.076  12.340
69642W        W39523  18.729  39.053  14.363
69643W        W39524  15.144  41.360  14.375
69644W        W39525   8.765  21.642   0.878
69645W        W39526   3.378  10.289   3.277
69646W        W39527  28.480   8.215  13.797
69647W        W39528  18.113   1.288   3.386
69648W        W39529   9.384  37.391  13.537
69649W        W39530   9.324  19.535   0.321
69650W        W39531  25.080  21.068   2.241
69651W        W39532  11.723  22.091  12.011
69652W        W39533  20.736  41.473   4.604
69653W        W39534  30.659  27.079   2.816
69654W        W39535  28.156  18.673  13.546
69655W        W39536  17.650  42.425   1.719
69656W        W39537  18.122   2.835  11.933
69657W        W39538  21.675  44.504  11.956
69658W        W39539  31.482  34.928  14.847
69659W        W39540  12.620  25.677   0.762
69660W        W39541  26.646  29.092   0.893
69661W        W39542  33.423  27.562   5.180
69662W        W39543   8.335  22.579  13.821
69663W        W39544  36.041  39.353   0.726
69664W        W39545  26.961  43.290  13.006
69665W        W39546  36.495   6.263  11.607
69666W        W39547  37.487  26.481  12.502
69667W        W39548  14.627  15.311   0.882
69668W        W39549  18.110  27.044  13.025
69669W        W39550  40.467  40.440  10.100
69670W        W39551  16.133   3.726  13.917
69671W        W39552  11.177   3.461  13.539
69672W        W39553  40.501  19.255  13.449
69673W        W39554  40.910  14.626   1.291
69674W        W39555   8.252  22.060  12.539
69675W        W39556  15.293  17.088   4.662
69676W        W39557  11.292  43.452   1.325
69677W        W39558  29.090  29.668   4.792
69678W        W39559   4.240  15.758   4.809
69679W        W39560  41.407  15.155  11.392
69680W        W39561   3.818  35.358  14.288
69681W        W39562  17.212  10.229  12.555
69682W        W39563  12.260  21.197  10.967
69683W        W39564   8.314  42.409  12.950
69684W        W39565   3.297  25.083   2.258
69685W        W39566  32.118  25.644   1.325
69686W        W39567  30.438  17.084  12.010
69687W        W39568   0.789  42.917  14.825
69688W        W39569  39.019  14.123   3.739
69689W        W39570  36.845  42.788   0.380
69690W        W39571  14.804  11.224   0.940
69691W        W39572  14.783  33.967  11.567
69692W        W39573  41.902  42.985  13.472
69693W        W39574  32.015  38.880  13.425
69694W        W39575  26.003  17.675  13.498
69695W        W39576   7.266  28.109   1.284
69696W        W39577  43.915   6.220   2.320
69697W        W39578  25.964  32.046   1.779
69698W        W39579  26.047  12.168   4.778
69699W        W39580  37.467   1.750   0.729
69700W        W39581  34.948   1.896   2.901
69701W        W39582  26.181   1.335  11.040
69702W        W39583  36.966  19.775   3.782
69703W        W39584  38.926   4.338   2.678
69704W        W39585  36.402  15.226   2.185
69705W        W39586  10.251  28.131  14.967
69706W        W39587   8.212  13.210   3.735
69707W        W39588  34.020  29.569   2.224
69708W        W39589  18.094  41.966  12.404
69709W        W39590   2.721   5.322   1.282
69710W        W39591  33.436  18.556   3.797
69711W        W39592  24.990   1.355   0.469
69712W        W39593  34.535  31.957   4.225
69713W        W39594  44.429   4.223  14.364
69714W        W39595  20.706   6.197  11.407
69715W        W39596   3.738  33.905   2.784
69716W        W39597   2.845  18.068  10.917
69717W        W39598   7.701  31.915   4.694
69718W        W39599   4.414  39.022  13.336
69719W        W39600  43.847   6.750  11.379
69720W        W39601  33.381  22.194   0.376
69721W        W39602  38.010   4.271   3.772
69722W        W39603  43.913  38.469  13.928
69723W        W39604  20.571  32.614  13.797
69724W        W39605   2.400  26.499  12.929
69725W        W39606  12.211  24.130  14.855
69726W        W39607  18.292  28.658   5.174
69727W        W39608  22.678  33.121   2.286
69728W        W39609  30.496  34.565  12.992
69729W        W39610  29.068   8.683  14.774
69730W        W39611  39.403  26.157  13.060
69731W        W39612  14.162   8.751  10.527
69732W        W39613   1.817  15.804  13.054
69733W        W39614   1.363  11.820   4.718
69734W        W39615   1.774  14.758   4.793
69735W        W39616  25.467  42.448  13.500
69736W        W39617  34.955  42.949   0.900
69737W        W39618  40.045  22.190  12.370
69738W        W39619  33.383  14.096   1.268
69739W        W39620  18.638  31.994  10.143
69740W        W39621  13.297  19.546   0.884
69741W        W39622  19.777  38.891  10.554
69742W        W39623  13.186  32.632   0.420
69743W        W39624  38.562  37.861   1.889
69744W        W39625   7.798  36.062   4.798
69745W        W39626  21.616  22.008  14.378
69746W        W39627  34.448   1.394  14.383
69747W        W39628   0.273  13.136  14.372
69748W        W39629  32.140  14.632   4.304
69749W        W39630  17.726  31.146  13.931
69750W        W39631  14.734  13.610   0.942
69751W        W39632  27.129  29.430  14.316
69752W        W39633  16.578  31.639   4.346
69753W        W39634  21.734  44.481  13.884
69754W        W39635  20.708  37.973  14.008
69755W        W39636   0.494  26.636   3.308
69756W        W39637  30.133   2.466  11.407
69757W        W39638  23.493   3.796   1.734
69758W        W39639  23.056  40.814  13.053
69759W        W39640  44.905  15.685  13.490
69760W        W39641  14.216  39.395  14.316
69761W        W39642  11.159  26.693  10.014
69762W        W39643   3.318  22.078  14.360
69763W        W39644  29.525  33.439   2.347
69764W        W39645  39.438  21.569  12.347
69765W        W39646   7.679   4.368   2.716
69766W        W39647  14.129  21.757  10.964
69767W        W39648  13.259  25.588  13.875
69768W        W39649  39.501   0.368  12.406
69769W        W39650   3.418  25.586  11.477
69770W        W39651  31.035   7.215  11.393
69771W        W39652  24.061  33.476  11.058
69772W        W39653  24.036  23.058   1.836
69773W        W39654  23.566  26.054  12.504
69774W        W39655  38.569  11.856  12.051
69775W        W39656  33.023   8.726  10.543
69776W        W39657   2.378  14.183   2.792
69777W        W39658  12.322  15.132   2.861
69778W        W39659  39.338  30.140  13.474
69779W        W39660  38.842  11.852  14.899
69780W        W39661  10.846  15.217   1.319
69781W        W39662  14.260   7.805  11.048
69782W        W39663  21.131  37.432  14.329
69783W        W39664  12.759  13.724  13.857
69784W        W39665  20.533  19.275  11.935
69785W        W39666  10.329  31.906   2.677
69786W        W39667  10.676  25.995  12.550
69787W        W39668  11.209  36.944  11.880
69788W        W39669  40.921   5.705  13.041
69789W        W39670  39.973  20.714   3.862
69790W        W39671  24.628  21.235  12.352
69791W        W39672  37.445  30.144   1.434
69792W        W39673  19.247  41.886  12.921
69793W        W39674  32.058  34.073  11.856
69794W        W39675  16.110  37.442  12.082
69795W        W39676  28.649  11.252   4.623
69796W        W39677  37.841  12.763  12.511
69797W        W39678  44.266   3.821  11.391
69798W        W39679  23.082  11.761   1.431
69799W        W39680  33.004  30.526  12.473
69800W        W39681  25.672  39.060  14.990
69801W        W39682  35.452  15.707  13.876
69802W        W39683   1.260  14.768  14.891
69803W        W39684  27.514  25.512  11.899
69804W        W39685  13.342  28.462  10.558
69805W        W39686  25.060  13.127  13.808
69806W        W39687  27.165  18.173  13.486
69807W        W39688  22.024  14.588   0.249
69808W        W39689  25.153  27.099   2.817
69809W        W39690  19.737  40.536   0.403
69810W        W39691  27.611  11.754  11.375
69811W        W39692  43.443  12.239  14.009
69812W        W39693  39.846  24.973   1.827
69813W        W39694  19.180  12.329  13.846
69814W        W39695   7.773  12.336  14.304
69815W        W39696  10.185  30.636   4.178
69816W        W39697  24.105  33.492   1.402
69817W        W39698  43.976  13.326   1.929
69818W        W39699   8.243   6.342   0.776
69819W        W39700  32.964  26.099  10.961
69820W        W39701  33.452   0.251  13.927
69821W        W39702  11.269  21.130   9.980
69822W        W39703  28.531  37.923  13.802
69823W        W39704  34.043  39.892   1.369
69824W        W39705  26.507  33.903   5.132
69825W        W39706  14.634  30.161   4.319
69826W        W39707  15.329  34.048  10.999
69827W        W39708   8.884  39.390   1.848
69828W        W39709   5.786  37.367  14.771
69829W        W39710  16.578  37.461  12.873
69830W        W39711   6.380  12.766  11.427
69831W        W39712  44.983   0.876   2.384
69832W        W39713  25.036  24.976  14.279
69833W        W39714  16.194  12.262  11.546
69834W        W39715  12.130  31.457   1.211
69835W        W39716  44.846   2.828  14.812
69836W        W39717  22.099  17.782  12.937
69837W        W39718  28.130  31.487  10.434
69838W        W39719   5.861  44.457  12.890
69839W        W39720   0.409  42.975  10.453
69840W        W39721  13.606  11.134   2.715
69841W        W39722   9.368  38.024  14.276
69842W        W39723  33.945  33.608  10.635
69843W        W39724  12.635   4.267   4.727
69844W        W39725  33.881   2.815  14.479
69845W        W39726  37.024  35.940  13.472
69846W        W39727  32.587  36.953   0.768
69847W        W39728  13.706   0.416  11.381
69848W        W39729  33.006  28.558  14.303
69849W        W39730  33.960  43.308  12.917
69850W        W39731  13.763  19.241   4.652
69851W        W39732  24.542  22.528  12.894
69852W        W39733   6.718  43.467  13.834
69853W        W39734  10.637  14.788  13.422
69854W        W39735  10.848  37.053  14.889
69855W        W39736  25.550  29.453   1.700
69856W        W39737   2.831  32.517  13.516
69857W        W39738  43.345  17.227   0.477
69858W        W39739  14.254  31.625  11.444
69859W        W39740   3.943  27.600  12.423
69860W        W39741  27.542  12.690  14.809
69861W        W39742  43.897  39.474   2.690
69862W        W39743   0.424  14.186  14.302
69863W        W39744  23.053  13.816  10.902
69864W        W39745  13.776   9.690  10.507
69865W        W39746  21.676   0.406   4.672
69866W        W39747   6.409  25.533  10.532
69867W        W39748  31.468  28.022  14.862
69868W        W39749   7.387   6.217  13.858
69869W        W39750  12.163  32.993   4.730
69870W        W39751  26.095  31.572  11.923
69871W        W39752   6.427   7.372  14.329
69872W        W39753  26.113  36.433   4.243
69873W        W39754  23.064  39.524  10.543
69874W        W39755  17.797  35.390   3.652
69875W        W39756  41.303  41.328   0.857
69876W        W39757  43.340  21.063  14.948
69877W        W39758  24.143  16.072  14.810
69878W        W39759  31.564   6.819  11.515
69879W        W39760   5.283   6.827  13.834
69880W        W39761  27.985   6.919   0.878
69881W        W39762   9.382  23.993  11.117
69882W        W39763   8.359  14.328  14.823
69883W        W39764  28.065  42.492   3.631
69884W        W39765  44.792   6.856   1.212
69885W        W39766  39.853  20.236   4.660
69886W        W39767  23.514  24.157   0.439
69887W        W39768   4.815  18.057   0.751
69888W        W39769   4.706  32.039  11.076
69889W        W39770  29.428  18.058   2.251
69890W        W39771  17.729  29.531   3.386
69891W        W39772   3.893  25.086  10.639
69892W        W39773  43.878  41.854  10.621
69893W        W39774  43.788  34.060   2.823
69894W        W39775  42.302  18.602  11.397
69895W        W39776   7.691  24.116  13.525
69896W        W39777  30.588  27.591   0.907
69897W        W39778   2.294  28.935   3.696
69898W        W39779  43.421  23.175   0.809
69899W        W39780  19.240   9.878  14.396
69900W        W39781  36.411   0.401  12.096
69901W        W39782   7.258   6.272  11.395
69902W        W39783  26.161   2.258  12.429
69903W        W39784  18.240  40.441   3.651
69904W        W39785   0.476   5.853  10.532
69905W        W39786   8.895  36.890  11.404
69906W        W39787  37.043  41.902  12.041
69907W        W39788  16.157   9.648  10.430
69908W        W39789  36.529  42.495  13.523
69909W        W39790  25.043  16.082  11.896
69910W        W39791  15.605  19.200  12.416
69911W        W39792   0.485  10.322   3.668
69912W        W39793  42.330  22.651   3.326
69913W        W39794  37.023  33.589  11.955
69914W        W39795  35.864  43.299   2.892
69915W        W39796  42.839  22.063   2.806
69916W        W39797  25.204  38.842   0.465
69917W        W39798  14.700  20.545  11.094
69918W        W39799   1.321   8.839   2.263
69919W        W39800   8.322  33.010   1.268
69920W        W39801  20.559   6.806  11.877
69921W        W39802  11.785  30.489   4.834
69922W        W39803  18.735  17.107   0.254
69923W        W39804  18.272  33.424   4.286
69924W        W39805  11.764  18.734  11.500
69925W        W39806  10.330  12.647   0.285
69926W        W39807   8.786  10.848  10.634
69927W        W39808   0.850   6.332   3.386
69928W        W39809  23.710  41.441   0.466
69929W        W39810  36.474  16.211   2.209
69930W        W39811  41.492  14.258  11.105
69931W        W39812   8.660  37.870   0.340
69932W        W39813   5.309  10.338  12.470
69933W        W39814  26.141  42.350   3.229
69934W        W39815  43.321  36.428   0.401
69935W        W39816  35.415  43.483  13.995
69936W        W39817   9.174  26.137  12.891
69937W        W39818  21.181  20.695   4.680
69938W        W39819  34.555  44.759  12.456
69939W        W39820  39.926  32.599   1.287
69940W        W39821  42.809   6.359  13.516
69941W        W39822  24.203  22.113  11.540
69942W        W39823  13.341  28.966   3.654
69943W        W39824  18.666  38.053   3.361
69944W        W39825  24.994   6.282   2.813
69945W        W39826  12.337   5.287  11.583
69946W        W39827  35.041  11.824   0.934
69947W        W39828  17.105  14.246   4.309
69948W        W39829  16.134  32.024  11.112
69949W        W39830  11.689   5.887   0.443
69950W        W39831   5.324   7.232   2.236
69951W        W39832  24.208  26.536   2.247
69952W        W39833   5.334  25.213  14.991
69953W        W39834  21.215  19.089   3.856
69954W        W39835  36.988  37.077   0.837
69955W        W39836  30.628  20.133  14.499
69956W        W39837  16.570  29.635   2.855
69957W        W39838  15.687  36.417   4.727
69958W        W39839  33.068   9.240   0.756
69959W        W39840  20.096  17.618   1.294
69960W        W39841  30.419  14.289   4.114
69961W        W39842  39.439  19.750  13.464
69962W        W39843   6.746  10.811  11.040
69963W        W39844  30.657  27.954  13.363
69964W        W39845  21.020  12.821  14.031
69965W        W39846  12.686  37.407   2.891
69966W        W39847  10.269  31.133   3.697
69967W        W39848   1.424  18.262   3.710
69968W        W39849  28.010  44.938   0.437
69969W        W39850  30.609   1.764   2.389
69970W        W39851  31.079   7.395   0.968
69971W        W39852  20.032  35.359  12.563
69972W        W39853  16.665  39.877  12.399
69973W        W39854  35.008  30.461  12.920
69974W        W39855  37.057  40.053  12.043
69975W        W39856  39.423  19.778   1.396
69976W        W39857  37.058  44.830   1.324
69977W        W39858  23.214  43.384  10.892
69978W        W39859  38.361  40.043   3.350
69979W        W39860  17.611  22.653   3.293
69980W        W39861  17.736  38.927   3.693
69981W        W39862  36.552  44.407   2.388
69982W        W39863  22.557  30.534   5.206
69983W        W39864   6.300  40.505  13.043
69984W        W39865  29.976  35.569   4.636
69985W        W39866  18.247   7.295   2.270
69986W        W39867  35.875  37.580   0.271
69987W        W39868  11.644  21.518   4.249
69988W        W39869  23.992   0.988  12.990
69989W        W39870  23.992  23.234   2.304
69990W        W39871  35.523   6.922   1.853
69991W        W39872  13.228  12.689   3.273
69992W        W39873  28.550  32.123  14.440
69993W        W39874  40.468  22.506   0.309
69994W        W39875  38.453  11.151   3.345
69995W        W39876   7.843   7.678  10.522
69996W        W39877  33.600  11.701  11.871
69997W        W39878   9.718  31.499   1.306
69998W        W39879  16.250  34.476  12.556
69999W        W39880  22.233  18.288   4.737
70000W        W39881  29.543   6.726  10.435
70001W        W39882  34.533  39.981   3.291
70002W        W39883  43.460  19.117   2.283
70003W        W39884  43.288  24.180  14.509
70004W        W39885  38.506   5.288   2.319
70005W        W39886  30.967   6.838  12.410
70006W        W39887  33.131  43.816  14.795
70007W        W39888  25.124  33.913   3.384
70008W        W39889  28.045  32.591  14.030
70009W        W39890  19.604  35.039  11.608
70010W        W39891  33.083  22.048   3.307
70011W        W39892  15.762   7.841  10.429
70012W        W39893  16.585  41.500  12.471
70013W        W39894  22.695  37.867  14.449
70014W        W39895  14.796   5.392   2.754
70015W        W39896   3.713  24.577   4.328
70016W        W39897   2.932  10.858   3.385
70017W        W39898  21.512  39.423   1.753
70018W        W39899   6.866  29.601   2.847
70019W        W39900   8.188  31.483  14.000
70020W        W39901  43.458   0.430   2.822
70021W        W39902  43.306  40.003   0.374
70022W        W39903   4.875  13.823   5.224
70023W        W39904  38.866  27.985  12.508
70024W        W39905  28.992  41.982  10.927
70025W        W39906  36.397  17.734  12.393
70026W        W39907  40.433  15.592   2.257
70027W        W39908  28.170  21.752   1.320
70028W        W39909  39.492  39.467   0.429
70029W        W39910   2.308  21.616   0.943
70030W        W39911  25.656  28.488   4.804
70031W        W39912  15.203  43.945   1.393
70032W        W39913  39.458   8.684  14.463
70033W        W39914  15.649  32.460  13.532
70034W        W39915  13.681  13.815  10.995
70035W        W39916   9.730  13.686   2.837
70036W        W39917  32.391  30.149   2.345
70037W        W39918  31.080  18.588   3.169
70038W        W39919  44.484   5.339   1.729
70039W        W39920  20.741  35.954  10.503
70040W        W39921  11.641  40.365  12.404
70041W        W39922  15.210   8.730  13.466
70042W        W39923   0.790  37.931  12.884
70043W        W39924  10.167   6.831  12.871
70044W        W39925   4.943  37.392   4.146
70045W        W39926  32.593   5.861   2.874
70046W        W39927  16.646  22.200   2.349
70047W        W39928  26.113   1.373  14.490
70048W        W39929  15.691  15.799  13.925
70049W        W39930  32.610   4.805   0.942
70050W        W39931  43.318  29.619  14.487
70051W        W39932   9.789  11.718   2.704
70052W        W39933   8.250   8.724  11.416
70053W        W39934  44.911  24.491   1.914
70054W        W39935  36.588  12.631   4.162
70055W        W39936  15.697   0.823   1.895
70056W        W39937  36.024  36.438   1.911
70057W        W39938  28.539  26.172  14.385
70058W        W39939  16.568  44.282   1.707
70059W        W39940   2.417  28.997  13.978
70060W        W39941   7.846  38.440  13.981
70061W        W39942   1.767  28.993  13.009
70062W        W39943   8.687   8.787   0.765
70063W        W39944  17.650  19.049   1.865
70064W        W39945  26.132  30.574  11.863
70065W        W39946  36.996  22.242   4.264
70066W        W39947  23.712  15.729   4.798
70067W        W39948  43.853  30.088   4.815
70068W        W39949  41.351  22.615  10.560
70069W        W39950  10.329  23.053  12.006
70070W        W39951  39.411   0.375   1.918
70071W        W39952  40.406   7.411  11.992
70072W        W39953  13.770  11.685  11.601
70073W        W39954  34.103  15.802   2.760
70074W        W39955  18.724   9.696   1.308
70075W        W39956  35.502  22.171  11.578
70076W        W39957  41.792   8.372  11.399
70077W        W39958  21.110  31.993  12.889
70078W        W39959  29.053  13.323  14.892
70079W        W39960  37.005  21.522   4.623
70080W        W39961   0.350   3.406   0.461
70081W        W39962   8.850  31.024  14.407
70082W        W39963  31.603  36.469   0.330
70083W        W39964  34.902  15.667   0.878
70084W        W39965  31.492  37.335  10.945
70085W        W39966  28.646  35.452   0.279
70086W        W39967   4.935  19.574  10.055
70087W        W39968  14.340   6.247   4.606
70088W        W39969  27.561  20.058  14.844
70089W        W39970  16.091  44.881  14.876
70090W        W39971  10.723   4.907   3.177
70091W        W39972  13.340   4.898  11.062
70092W        W39973  43.785  26.046  13.834
70093W        W39974  10.848  31.109   2.677
70094W        W39975   1.381   3.263   4.235
70095W        W39976   7.898   3.349   4.786
70096W        W39977  21.242  32.008   0.362
70097W        W39978  21.093   7.278   0.968
70098W        W39979   1.475  38.865  11.559
70099W        W39980   0.333  16.709  13.356
70100W        W39981  40.970   8.280  13.943
70101W        W39982  30.104   2.826  10.423
70102W        W39983  13.723  39.341   0.412
70103W        W39984  44.969  33.099  10.938
70104W        W39985  28.539   0.461   2.267
70105W        W39986  20.263  19.081   2.862
70106W        W39987  18.090  25.193  12.389
70107W        W39988   7.228  25.193   3.795
70108W        W39989  22.580  20.558   2.322
70109W        W39990   8.674  35.487   0.392
70110W        W39991  10.237  15.798  13.482
70111W        W39992  33.428  33.402  13.045
70112W        W39993  17.143  43.365   4.809
70113W        W39994  34.606  24.681  10.465
70114W        W39995  18.710  20.552  10.579
70115W        W39996  29.094  18.088   1.768
70116W        W39997  39.362  35.887  11.379
70117W        W39998  39.979   9.240  10.523
70118W        W39999  32.962   4.363   0.432
70119W        W40000  38.393  33.439   3.322
70120W        W40001   9.774   5.720   4.123
70121W        W40002   4.893  16.644  12.887
70122W        W40003  34.514   1.948   3.198
70123W        W40004  28.108  44.761   1.300
70124W        W40005   1.259  25.705   0.253
70125W        W40006   2.303  30.028   4.795
70126W        W40007  41.376  14.287   4.214
70127W        W40008  24.550  26.691  13.506
70128W        W40009  10.195   0.970  12.002
70129W        W40010  38.981  40.880   2.824
70130W        W40011  34.555   3.923  13.404
70131W        W40012  18.669  14.313   4.712
70132W        W40013  21.128  33.896  11.979
70133W        W40014  11.203   7.218   1.446
70134W        W40015  13.254  21.244   3.633
70135W        W40016   5.903  24.528   1.222
70136W        W40017  27.008  23.155   2.216
70137W        W40018  31.108  22.640  12.509
70138W        W40019  10.854  37.977   4.186
70139W        W40020  44.870  28.625  10.539
70140W        W40021  13.181  32.628   2.325
70141W        W40022   1.372  21.129   2.208
70142W        W40023  33.077   1.883  13.385
70143W        W40024   0.753  34.022  12.418
70144W        W40025  31.432  30.657   3.697
70145W        W40026  36.526   0.945  12.867
70146W        W40027  10.288  12.351  13.439
70147W        W40028  39.471   8.349   2.409
70148W        W40029  12.758  39.897  12.915
70149W        W40030  38.850   4.787  14.785
70150W        W40031  33.116  39.946   0.896
70151W        W40032   5.743  15.738   3.299
70152W        W40033  39.050  14.201  10.908
70153W        W40034  15.105  39.963  11.382
70154W        W40035  17.173  41.821  10.442
70155W        W40036   0.353  33.909   3.687
70156W        W40037  16.613  39.827   2.416
70157W        W40038   8.896  33.397   1.350
70158W        W40039  19.753   7.235   1.277
70159W        W40040   0.494  23.536  14.915
70160W        W40041  37.500  24.562  10.529
70161W        W40042  26.994  31.099   0.786
70162W        W40043  14.293  22.071  12.050
70163W        W40044  27.950  32.082   4.710
70164W        W40045  44.432  43.431  14.314
70165W        W40046  36.565  24.607   0.432
70166W        W40047  35.050  25.216  12.035
70167W        W40048  43.409  34.097  12.486
70168W        W40049  25.680   6.261   4.642
70169W        W40050  23.164  37.547   2.818
70170W        W40051  15.593   9.255  14.901
70171W        W40052  27.003  44.303  14.505
70172W        W40053   0.925   4.860   3.642
70173W        W40054  39.025   6.762  13.466
70174W        W40055  20.252  16.576   2.712
70175W        W40056   8.275  25.635   1.721
70176W        W40057   1.858  16.227   3.651
70177W        W40058  16.747  24.488  13.357
70178W        W40059  26.000   1.387   2.714
70179W        W40060  22.582   1.813  11.543
70180W        W40061  34.574  19.605  10.491
70181W        W40062  42.004  31.592  14.462
70182W        W40063  44.838  34.534   4.704
70183W        W40064   6.386  31.529   2.304
70184W        W40065  34.436  35.942  11.426
70185W        W40066  23.176  25.064  14.845
70186W        W40067  18.098  23.075  10.966
70187W        W40068   1.758  10.230   1.268
70188W        W40069  25.648  12.834  14.837
70189W        W40070  42.021  26.580  12.373
70190W        W40071   4.853  36.065   4.208
70191W        W40072  23.992  41.469  12.404
70192W        W40073  32.975  27.671  14.898
70193W        W40074  42.478  32.931  12.439
70194W        W40075   1.876  29.938  11.533
70195W        W40076  30.924   4.211   1.301
70196W        W40077  37.841  22.069   2.196
70197W        W40078  20.612  43.286   4.703
70198W        W40079  10.292  27.472  13.535
70199W        W40080  36.885  38.374  11.564
70200W        W40081   5.859   1.830  14.982
70201W        W40082   3.717  33.081   1.812
70202W        W40083  24.604  37.569   0.254
70203W        W40084  27.032   6.812  13.838
70204W        W40085  20.640  39.860  14.275
70205W        W40086  11.291  43.976   3.861
70206W        W40087  43.891  19.178  11.028
70207W        W40088   9.742  15.705  11.057
70208W        W40089  18.246  34.452   3.677
70209W        W40090  27.683  20.087   2.225
70210W        W40091   0.933  22.684  13.505
70211W        W40092  40.934  26.197  14.971
70212W        W40093  43.494  29.091  10.640
70213W        W40094  37.990  43.954   4.749
70214W        W40095  43.002  41.337  13.990
70215W        W40096  32.956   0.814   4.665
70216W        W40097   5.342  37.889  14.426
70217W        W40098  33.062  23.182  12.526
70218W        W40099  10.373   2.456   4.172
70219W        W40100  21.704  36.539  14.000
70220W        W40101  38.535   8.691  14.310
70221W        W40102  26.121  23.176  10.433
70222W        W40103   6.408  25.516  10.943
70223W        W40104  13.288  15.583  11.891
70224W        W40105   7.704  38.888   1.239
70225W        W40106  30.967  19.748  13.906
70226W        W40107  13.258  20.038   3.270
70227W        W40108  27.167  29.960   3.788
70228W        W40109  42.327  36.562   3.642
70229W        W40110  37.032  18.678   2.273
70230W        W40111  38.499   3.382  12.548
70231W        W40112  37.011  28.019   1.808
70232W        W40113  37.577  14.657  13.009
70233W        W40114  32.460  22.111  10.543
70234W        W40115   5.694  42.980  11.119
70235W        W40116  30.502  13.209   1.417
70236W        W40117  19.159  12.136  14.987
70237W        W40118  23.161  33.510  12.062
70238W        W40119   9.258  34.978  14.395
70239W        W40120  30.972  41.517  14.437
70240W        W40121  37.507   4.278  11.510
70241W        W40122  43.816  40.424   0.770
70242W        W40123  16.290  28.992  14.937
70243W        W40124  31.033  23.651  10.632
70244W        W40125   2.871  42.460   3.313
70245W        W40126  10.741  32.970  12.946
70246W        W40127  21.106  12.820   0.387
70247W        W40128  35.429  25.075   1.390
70248W        W40129  10.827  12.303   1.322
70249W        W40130   7.322  28.037   0.310
70250W        W40131  20.746  38.941   1.859
70251W        W40132  13.706   8.259  12.396
70252W        W40133  20.522  42.456   1.874
70253W        W40134  14.118  21.737   0.844
70254W        W40135  37.351  13.223  13.887
70255W        W40136   1.953  38.972   2.784
70256W        W40137  38.927  41.377  14.832
70257W        W40138  27.584  24.090   3.761
70258W        W40139  41.928  43.873  12.391
70259W        W40140  15.824  22.125   9.997
70260W        W40141  10.724  31.460   2.663
70261W        W40142  28.116  21.111   0.727
70262W        W40143   8.861  16.727  12.887
70263W        W40144  25.587  10.378   1.277
70264W        W40145  33.059  41.360  11.399
70265W        W40146  22.605  29.453  12.427
70266W        W40147  41.969  28.549   2.267
70267W        W40148   6.426  22.237   0.454
70268W        W40149  33.416  36.436   4.222
70269W        W40150  43.419  41.419  14.027
70270W        W40151  23.622   4.368   4.348
70271W        W40152  25.671  14.601   3.194
70272W        W40153  43.317  34.412   1.856
70273W        W40154   8.689  41.963   3.645
70274W        W40155  38.537  35.407  10.501
70275W        W40156  15.817  40.379   2.360
70276W        W40157  43.360   9.768  14.458
70277W        W40158  29.978  14.601  14.328
70278W        W40159  10.726  20.615  10.485
70279W        W40160  38.343   8.802   1.723
70280W        W40161  38.994  27.542   1.803
70281W        W40162   2.341  19.755   1.236
70282W        W40163  20.227  23.211   1.406
70283W        W40164  23.596  30.013   1.762
70284W        W40165  18.557  31.898  11.943
70285W        W40166   9.700  39.551   2.677
70286W        W40167   4.829  16.133   0.346
70287W        W40168  12.697  19.564  13.917
70288W        W40169   4.256  18.174  10.545
70289W        W40170   8.211  15.208   4.244
70290W        W40171  18.716  36.008   3.707
70291W        W40172  24.716   1.350   1.437
70292W        W40173  42.895   1.818  11.041
70293W        W40174  40.400  26.114   0.802
70294W        W40175  12.626  32.463   4.190
70295W        W40176  33.034   0.329  11.045
70296W        W40177  31.552  36.398  12.060
70297W        W40178   2.416  30.414  14.976
70298W        W40179  16.695   8.829  13.876
70299W        W40180  27.977  27.690  12.470
70300W        W40181  25.706  30.577  10.110
70301W        W40182  28.450  38.402  11.396
70302W        W40183   3.932  30.566  13.449
70303W        W40184  43.306  18.253   3.360
70304W        W40185  40.493  22.725  13.460
70305W        W40186   8.852  36.846  12.366
70306W        W40187  31.471  38.439  12.960
70307W        W40188   8.372  32.948   0.894
70308W        W40189  23.239  25.573   3.759
70309W        W40190  31.005  19.777   3.714
70310W        W40191   2.761  27.972  13.918
70311W        W40192   7.338  12.629  14.302
70312W        W40193  19.168   7.312  11.447
70313W        W40194  23.734  24.053   4.686
70314W        W40195  26.115  22.021  13.310
70315W        W40196  17.262  26.545   5.232
70316W        W40197  30.955  26.476  11.873
70317W        W40198  19.156  15.620  12.383
70318W        W40199  33.895  35.105   3.752
70319W        W40200  26.540   1.966   2.804
70320W        W40201  16.586  26.168   2.288
70321W        W40202  37.345  26.103  11.525
70322W        W40203  39.878  41.944   0.319
70323W        W40204  41.947  22.149   3.328
70324W        W40205  43.364   8.694  12.423
70325W        W40206  11.860  26.669   4.788
70326W        W40207  15.285   9.234  12.978
70327W        W40208  20.541  31.092  14.330
70328W        W40209  32.963  15.165  10.557
70329W        W40210   3.325  29.668   2.386
70330W        W40211  16.296  22.632   2.336
70331W        W40212   9.803  44.874  10.962
70332W        W40213  14.799  41.307   4.799
70333W        W40214   9.161  23.563   1.300
70334W        W40215   8.204  27.527   4.159
70335W        W40216  19.210  41.491   0.318
70336W        W40217  13.812  42.520  10.410
70337W        W40218  13.723   6.401  13.805
70338W        W40219  12.846  28.521   2.871
70339W        W40220  15.321  24.035  12.347
70340W        W40221  29.448  23.628   4.761
70341W        W40222  21.559  34.084  12.565
70342W        W40223  36.476   5.423  13.866
70343W        W40224  16.165   7.253   4.735
70344W        W40225  43.303  43.281  13.907
70345W        W40226   4.876   2.436   2.873
70346W        W40227  21.246  12.263   3.780
70347W        W40228  21.732  22.561   2.413
70348W        W40229   2.960  43.436   1.416
70349W        W40230  37.035  16.786   1.355
70350W        W40231  21.175   8.809   4.172
70351W        W40232   7.816   9.281   4.277
70352W        W40233  44.305  29.957   0.482
70353W        W40234  29.664   0.354  10.610
70354W        W40235  42.319  28.053  12.438
70355W        W40236  21.644  13.172   2.374
70356W        W40237  29.448  39.367   2.894
70357W        W40238  14.298  12.627   4.746
70358W        W40239  13.278  39.903  14.922
70359W        W40240   7.771  43.424   0.881
70360W        W40241  21.533  43.880   3.680
70361W        W40242  31.975  39.478  12.953
70362W        W40243  16.780  10.160   0.960
70363W        W40244   2.837  15.329   2.393
70364W        W40245  12.349  15.112   3.268
70365W        W40246  32.553  26.585  12.869
70366W        W40247  29.462  33.583   3.157
70367W        W40248  21.691  17.107  12.909
70368W        W40249  44.989   3.781  14.504
70369W        W40250   7.744   5.227   0.413
70370W        W40251  24.980   9.656  11.439
70371W        W40252  13.153  12.306   3.204
70372W        W40253  43.881   0.940   4.738
70373W        W40254  15.756  17.232  12.543
70374W        W40255   4.811  34.983   4.253
70375W        W40256   8.170   0.477   0.771
70376W        W40257  29.556  23.234  12.355
70377W        W40258  31.901  13.245   0.395
70378W        W40259  16.180  19.261  12.825
70379W        W40260  43.377  41.294   2.257
70380W        W40261  43.846  23.146   0.860
70381W        W40262   1.964  36.993  14.958
70382W        W40263  27.676  35.971   1.295
70383W        W40264   7.730  28.569  10.504
70384W        W40265  10.248  18.739   4.780
70385W        W40266  44.363  43.375  13.020
70386W        W40267   1.893  37.346   4.694
70387W        W40268  14.797  33.979  11.087
70388W        W40269  35.600  44.322   2.380
70389W        W40270   0.966  17.223  10.603
70390W        W40271   3.821  14.609  10.532
70391W        W40272   9.210  41.322   1.347
70392W        W40273  34.881  14.632  14.812
70393W        W40274  44.806  27.669   0.908
70394W        W40275  33.986   0.803  14.296
70395W        W40276  36.379   8.766   2.331
70396W        W40277  22.624  26.148  12.964
70397W        W40278  39.839   8.799  12.993
70398W        W40279  34.963   2.265   4.120
70399W        W40280  38.821  32.063  11.118
70400W        W40281  31.632  16.233   0.773
70401W        W40282  18.129  25.563  14.988
70402W        W40283  35.444  12.825  10.998
70403W        W40284  18.075  42.405   1.220
70404W        W40285  31.999   4.858  11.073
70405W        W40286  40.817  32.066  11.891
70406W        W40287  29.613  21.190   2.274
70407W        W40288  19.205  15.674  11.611
70408W        W40289   7.248  35.006   4.783
70409W        W40290  32.514  32.455   1.763
70410W        W40291   4.382  24.564  14.334
70411W        W40292  15.296  17.257  10.436
70412W        W40293  16.289  40.303   1.770
70413W        W40294  16.681  36.079  11.125
70414W        W40295  44.340  39.422   0.850
70415W        W40296  12.337  24.704   3.814
70416W        W40297  23.495  35.508   4.713
70417W        W40298  36.972  44.877  10.083
70418W        W40299  18.062  32.584  13.965
70419W        W40300  43.930  21.131   9.938
70420W        W40301   4.875  41.303  11.490
70421W        W40302  13.773   5.691   4.208
70422W        W40303   6.201  41.986  12.375
70423W        W40304  41.039  20.245  12.862
70424W        W40305  39.027   1.388  14.487
70425W        W40306  18.136  38.887  14.791
70426W        W40307  38.906  29.574  10.541
70427W        W40308  20.543   2.908   3.645
70428W        W40309  33.563  28.483  11.993
70429W        W40310   8.860  37.577  10.618
70430W        W40311  16.233   4.422  12.930
70431W        W40312  15.583  31.541   0.848
70432W        W40313  12.180  41.436   3.215
70433W        W40314  23.608  44.440  10.430
70434W        W40315  25.120  11.631  12.417
70435W        W40316  24.025  32.537   2.827
70436W        W40317  33.952   7.263  14.449
70437W        W40318  43.994  18.105  13.391
70438W        W40319  16.207  31.467  11.017
70439W        W40320  33.535  21.632   4.635
70440W        W40321  39.914  32.452  11.929
70441W        W40322  11.640  37.556   3.739
70442W        W40323   4.762  14.123   3.227
70443W        W40324  30.571  35.588   0.283
70444W        W40325  12.196   1.449   2.364
70445W        W40326  24.675  28.609  13.016
70446W        W40327  35.103  29.155   2.699
70447W        W40328  44.274  18.678  13.061
70448W        W40329  15.135   7.667   1.259
70449W        W40330  29.537  37.047   0.883
70450W        W40331  43.801  44.428  12.516
70451W        W40332  19.662  39.942  14.903
70452W        W40333  29.999   8.215   0.242
70453W        W40334  32.497  26.963   3.289
70454W        W40335   5.930  26.589   0.784
70455W        W40336  18.068  11.749   1.755
70456W        W40337  31.905  11.811   4.627
70457W        W40338  42.359  15.180  10.987
70458W        W40339  24.003  36.986   3.704
70459W        W40340  29.097  11.161  14.819
70460W        W40341  17.739  25.200  12.021
70461W        W40342  40.909  39.943  14.016
70462W        W40343   2.431   2.950   4.647
70463W        W40344   9.672  14.704   1.378
70464W        W40345  31.501   7.906   0.750
70465W        W40346  23.164  14.258   2.731
70466W        W40347  24.977   6.876  13.405
70467W        W40348  30.071   1.913   2.850
70468W        W40349  34.955  12.211   1.872
70469W        W40350   2.355  40.395   2.200
70470W        W40351  40.820  44.334  12.412
70471W        W40352   5.888  20.547   3.629
70472W        W40353   5.690   5.383   2.389
70473W        W40354   1.357  35.085  14.447
70474W        W40355  14.786   8.238   2.875
70475W        W40356   1.789   4.861   1.817
70476W        W40357  28.064  20.266   2.180
70477W        W40358   4.229  23.130   1.226
70478W        W40359  24.159  43.280  11.995
70479W        W40360  40.466   3.725  12.894
70480W        W40361  42.878   4.792  11.004
70481W        W40362  39.383  21.089  11.088
70482W        W40363  28.990  37.516  12.045
70483W        W40364   7.851  25.966  13.905
70484W        W40365  23.491  11.137   4.654
70485W        W40366   7.806  33.448  12.843
70486W        W40367   2.468  28.541  13.490
70487W        W40368  39.445   2.923  12.861
70488W        W40369  33.008  38.049  10.987
70489W        W40370  15.153   5.283  12.076
70490W        W40371  41.925  26.598   1.233
70491W        W40372  37.953   3.747  11.454
70492W        W40373   7.352  11.160  13.398
70493W        W40374  13.250  33.917  14.377
70494W        W40375  44.847  10.838  12.476
70495W        W40376  25.504  24.667   0.834
70496W        W40377   4.735   6.725   4.240
70497W        W40378  38.492   0.402  12.409
70498W        W40379  40.505  26.125   1.878
70499W        W40380   5.374  33.413  12.359
70500W        W40381  41.350  34.978   2.307
70501W        W40382   4.926  16.698   1.830
70502W        W40383  39.490  13.814  10.975
70503W        W40384  42.885  26.183   2.195
70504W        W40385  37.421  19.585   2.722
70505W        W40386  32.890  35.490   4.120
70506W        W40387   9.748   7.180   2.678
70507W        W40388  39.317  10.643   3.291
70508W        W40389   7.228   5.362  11.591
70509W        W40390  30.556   9.371  10.981
70510W        W40391  24.612  16.654  10.485
70511W        W40392   3.912  26.612   0.353
70512W        W40393   4.251  42.385   2.784
70513W        W40394   8.661  13.114  12.860
70514W        W40395  14.279  24.018   4.261
70515W        W40396  25.077  17.283   1.889
70516W        W40397   1.779  30.946  11.128
70517W        W40398  24.551  12.641   0.941
70518W        W40399   2.810   8.777   1.437
70519W        W40400  19.676  43.417  13.970
70520W        W40401   3.880  30.620   5.188
70521W        W40402   6.412   2.454  11.486
70522W        W40403  16.738   0.474   2.244
70523W        W40404  37.028  28.957  13.954
70524W        W40405  39.959  43.289  13.037
70525W        W40406  24.643  26.197   2.225
70526W        W40407   3.302  43.830   2.784
70527W        W40408  22.528  12.704  13.391
70528W        W40409  42.857   4.748   2.795
70529W        W40410  43.807   9.681   4.605
70530W        W40411   5.355  20.764   1.824
70531W        W40412  39.952  35.391   3.338
70532W        W40413  24.662  30.911   1.840
70533W        W40414   1.319  41.011   1.336
70534W        W40415  25.050  24.481  14.373
70535W        W40416   4.780  29.070   1.790
70536W        W40417  15.805  36.490  11.947
70537W        W40418  44.316  31.415  14.910
70538W        W40419  11.368  32.520   1.723
70539W        W40420  26.555  38.412  14.424
70540W        W40421   4.415   7.339  11.555
70541W        W40422   0.877  23.717   2.718
70542W        W40423   3.292  27.534  14.885
70543W        W40424  21.523  18.151   3.350
70544W        W40425  18.098  32.091   5.154
70545W        W40426   8.888   0.448   4.694
70546W        W40427   6.852   1.266   4.333
70547W        W40428  30.559  30.956   4.199
70548W        W40429  38.969  15.645  10.435
70549W        W40430  34.383  21.103  13.985
70550W        W40431  43.370  22.052  14.386
70551W        W40432  40.482  20.127  14.885
70552W        W40433  13.128  15.089   0.950
70553W        W40434   2.802  18.218  13.454
70554W        W40435  26.492  27.171   3.839
70555W        W40436  44.337   1.803  14.833
70556W        W40437  31.039   1.876   5.242
70557W        W40438  43.988  13.699   3.379
70558W        W40439  38.971  25.602   1.845
70559W        W40440  21.115   2.349  12.921
70560W        W40441  39.971  23.051   1.805
70561W        W40442  33.397   9.237   3.837
70562W        W40443  33.423   8.850   4.247
70563W        W40444  27.644   1.762  12.477
70564W        W40445  36.003  30.428   1.719
70565W        W40446  40.901  14.610  14.824
70566W        W40447   6.251  26.961   0.313
70567W        W40448  42.518  40.967   1.444
70568W        W40449  33.413  35.946  13.053
70569W        W40450  18.055  10.798  12.826
70570W        W40451  20.611  29.920  12.505
70571W        W40452   2.916  24.224   1.756
70572W        W40453   7.704   7.349   3.857
70573W        W40454  43.892  40.993   1.354
70574W        W40455  31.561  14.831   4.836
70575W        W40456  31.576  16.246  10.049
70576W        W40457   4.366   2.437   0.461
70577W        W40458  28.553  31.647   1.284
70578W        W40459  21.095  30.159   1.933
70579W        W40460  24.620  29.486  14.436
70580W        W40461   3.262  39.493   2.268
70581W        W40462  31.970  27.564  11.417
70582W        W40463  10.745  12.704   1.849
70583W        W40464  34.611  35.049  14.350
70584W        W40465   4.351  20.711   0.417
70585W        W40466  31.971  17.172   2.832
70586W        W40467  24.003  20.750  11.578
70587W        W40468  41.369  25.152   4.308
70588W        W40469  30.426  11.666  12.449
70589W        W40470  34.875   2.384  12.959
70590W        W40471   7.250  44.985   0.915
70591W        W40472   0.343  17.739  10.446
70592W        W40473  39.853  34.972  14.310
70593W        W40474   0.394   3.730   4.799
70594W        W40475  11.768  36.921  13.349
70595W        W40476  12.264  22.149   2.266
70596W        W40477  12.774   8.217   4.650
70597W        W40478  44.470  41.943  14.354
70598W        W40479   9.787  15.154  11.381
70599W        W40480  28.987  21.716   1.902
70600W        W40481  16.292   1.411   4.651
70601W        W40482  40.040  15.288   2.662
70602W        W40483  40.990  15.144  10.458
70603W        W40484  18.077  13.126   1.803
70604W        W40485  32.071   1.930   0.345
70605W        W40486  18.595  37.072  11.528
70606W        W40487  37.418   9.775   3.207
70607W        W40488   6.896   0.358  11.412
70608W        W40489   2.748  37.020  12.341
70609W        W40490   5.859  39.924   0.306
70610W        W40491  36.061  20.029  11.592
70611W        W40492   3.377  10.707  14.456
70612W        W40493  32.422  13.267   3.214
70613W        W40494  35.076  44.311   5.108
70614W        W40495  32.584   8.170   2.411
70615W        W40496  38.431  28.514   3.632
70616W        W40497   9.760  17.662   2.689
70617W        W40498   9.736  13.254  14.018
70618W        W40499   4.337   0.968   0.781
70619W        W40500  31.580   2.325  14.284
70620W        W40501  26.560  35.470  14.976
70621W        W40502  28.636   4.707   0.781
70622W        W40503  27.476  23.570   3.643
70623W        W40504  36.522  44.349   2.768
70624W        W40505  10.820  34.449  13.367
70625W        W40506  13.280  19.728  14.801
70626W        W40507  21.143   5.287  14.994
70627W        W40508  40.341   8.895   4.167
70628W        W40509  18.147  44.394  14.360
70629W        W40510  25.536  38.478   2.184
70630W        W40511  26.527   8.311   4.179
70631W        W40512  24.654  35.499  10.992
70632W        W40513  44.485  15.209  10.089
70633W        W40514  17.279  25.498  14.418
70634W        W40515  37.956  40.906  10.998
70635W        W40516   5.809   2.329  11.091
70636W        W40517  16.281   5.879   4.737
70637W        W40518   5.904  20.737  11.920
70638W        W40519  24.104  34.086   3.733
70639W        W40520  40.946  21.554   3.778
70640W        W40521  41.315  39.525  13.312
70641W        W40522  31.643  37.071   2.785
70642W        W40523  25.127  42.451  10.602
70643W        W40524  25.004  35.437   2.244
70644W        W40525  14.779  16.214   0.790
70645W        W40526  43.385   9.846  12.925
70646W        W40527  13.671  32.529   2.749
70647W        W40528  26.043  19.537   0.736
70648W        W40529  11.309  23.209  12.963
70649W        W40530  39.501  24.703  12.569
70650W        W40531  30.124  41.330  11.606
70651W        W40532  16.237   5.378   0.316
70652W        W40533  15.205  18.621  12.406
70653W        W40534  18.626  34.384  10.921
70654W        W40535   8.702  10.764  12.068
70655W        W40536  38.064   3.372  13.827
70656W        W40537  14.690  21.708   4.141
70657W        W40538   3.945  12.697  11.009
70658W        W40539   3.815  10.145   2.359
70659W        W40540  29.042  19.171  12.377
70660W        W40541  28.494   8.245  10.529
70661W        W40542  11.725   0.265   2.310
70662W        W40543  31.067   7.415  10.445
70663W        W40544  18.162  35.942   1.348
70664W        W40545  29.042   3.322  10.905
70665W        W40546  18.707  17.291   3.223
70666W        W40547  35.368  25.639   0.349
70667W        W40548   9.382  29.456   2.782
70668W        W40549  16.150  14.760  11.407
70669W        W40550  14.218  19.203  14.843
70670W        W40551  22.526  16.196  11.891
70671W        W40552   1.921  24.009   2.401
70672W        W40553  24.169  43.434   1.695
70673W        W40554   5.857  29.455  11.518
70674W        W40555  25.569  12.165  14.378
70675W        W40556  22.669  29.629  11.883
70676W        W40557  42.464   8.212  10.906
70677W        W40558  35.887   1.313  14.278
70678W        W40559   0.779  40.985  10.409
70679W        W40560  38.909  14.277   1.412
70680W        W40561  40.390  12.169   1.696
70681W        W40562  40.401  44.447   2.179
70682W        W40563  29.047  10.156   3.663
70683W        W40564  34.978   3.932   2.274
70684W        W40565  35.405  20.159  12.566
70685W        W40566  26.549  18.625   5.257
70686W        W40567  14.203   6.318   3.301
70687W        W40568  11.683  29.608  11.924
70688W        W40569   8.279  35.432  10.996
70689W        W40570  26.687  29.606   0.938
70690W        W40571  29.536  40.333   2.281
70691W        W40572   0.749  35.932   2.359
70692W        W40573  13.310   0.417   3.217
70693W        W40574  34.413   4.716   0.444
70694W        W40575  13.140  18.167   2.711
70695W        W40576  26.005  19.194   4.801
70696W        W40577  32.600  16.665   0.455
70697W        W40578  44.842  29.492   2.304
70698W        W40579  12.748  18.708  10.975
70699W        W40580  22.658  14.789  11.611
70700W        W40581  13.239  10.875   0.452
70701W        W40582  33.882  14.646   3.658
70702W        W40583  23.589  39.007  13.841
70703W        W40584  17.195  42.994   1.896
70704W        W40585   5.700  11.217   3.666
70705W        W40586  42.326  32.017  12.051
70706W        W40587  43.513  11.303   4.710
70707W        W40588  15.740   3.938   3.662
70708W        W40589  20.169  19.172  10.413
70709W        W40590   6.426  40.898   2.190
70710W        W40591  11.208  39.950  13.969
70711W        W40592  44.759  26.603   4.124
70712W        W40593  20.038  13.225   1.867
70713W        W40594  18.716  14.605   0.824
70714W        W40595  18.653  36.892  12.469
70715W        W40596  27.601   6.190   1.762
70716W        W40597  29.514  14.195   2.368
70717W        W40598  15.156  24.533   3.347
70718W        W40599  33.550  17.171   5.096
70719W        W40600  34.927  39.893  10.520
70720W        W40601  33.420  12.182  11.981
70721W        W40602  29.655  25.970  11.093
70722W        W40603   4.413  30.416   3.771
70723W        W40604  14.200  37.559  12.085
70724W        W40605   3.816  16.734  11.071
70725W        W40606  32.131   1.786  10.046
70726W        W40607   3.848  13.664   0.404
70727W        W40608  30.048   9.810   1.302
70728W        W40609  17.101  13.323  14.799
70729W        W40610   1.294  35.969   3.236
70730W        W40611   3.233   6.690   1.300
70731W        W40612   5.366  18.674   4.225
70732W        W40613   2.912  11.363   2.881
70733W        W40614  17.156  14.822   3.327
70734W        W40615  13.149   2.912   2.302
70735W        W40616  27.110  31.439   3.201
70736W        W40617   1.238  23.171  11.609
70737W        W40618  16.279  41.483   2.870
70738W        W40619  25.077  21.059   1.215
70739W        W40620  32.549  13.299   4.687
70740W        W40621   3.850  22.247   3.199
70741W        W40622  29.123  29.161  10.432
70742W        W40623  38.513   7.182  13.976
70743W        W40624   0.485  11.338  13.444
70744W        W40625  10.357  14.199   0.927
70745W        W40626   8.823  30.534  12.572
70746W        W40627  19.162  12.674  11.858
70747W        W40628  10.254   5.724   1.235
70748W        W40629  42.499   7.405  11.038
70749W        W40630  41.028  37.382   3.160
70750W        W40631  17.765  32.900   2.245
70751W        W40632   1.919   8.162  14.020
70752W        W40633   0.864  38.428   3.772
70753W        W40634  13.315  43.458   4.794
70754W        W40635  11.753  37.404   3.289
70755W        W40636  16.626  22.564  13.896
70756W        W40637  30.032  27.680   0.809
70757W        W40638   0.801  15.767   1.856
70758W        W40639  11.764  17.688  10.421
70759W        W40640  39.842  32.903  12.842
70760W        W40641  19.743   6.741   1.323
70761W        W40642  34.952  13.710  10.614
70762W        W40643  19.681  32.026   1.341
70763W        W40644   3.408  42.431  14.851
70764W        W40645  15.244   7.268  12.042
70765W        W40646  12.795   0.328   3.177
70766W        W40647  26.971   0.779   0.842
70767W        W40648  39.927  36.867   0.397
70768W        W40649   7.754  43.943  11.566
70769W        W40650  29.561  43.338  11.889
70770W        W40651  11.371  11.340  11.581
70771W        W40652  36.460  11.139   2.737
70772W        W40653  43.438   6.722  11.989
70773W        W40654  38.993  26.027   2.663
70774W        W40655   6.899   1.814  10.596
70775W        W40656  23.592  21.106   5.301
70776W        W40657  36.448   6.427  14.376
70777W        W40658  20.735  25.055  11.524
70778W        W40659  32.457  18.182   3.763
70779W        W40660  16.305  20.629   4.760
70780W        W40661  11.860  14.680  11.981
70781W        W40662  36.482  16.584   1.223
70782W        W40663   2.372  12.239  11.577
70783W        W40664   4.272  40.526  11.933
70784W        W40665   7.895  20.070  13.046
70785W        W40666  22.244  44.821  10.046
70786W        W40667  20.570   7.884   2.335
70787W        W40668  17.108  34.945   1.293
70788W        W40669  11.287  25.639   3.150
70789W        W40670  33.615  39.974   1.451
70790W        W40671  28.978  15.307   0.315
70791W        W40672  36.095  41.432  13.544
70792W        W40673   4.814  12.634  13.313
70793W        W40674  14.115  35.925   0.968
70794W        W40675  17.620  27.654  13.458
70795W        W40676  16.155   4.725  11.949
70796W        W40677   4.220  34.912   0.271
70797W        W40678  44.283  41.510  12.416
70798W        W40679  27.030   0.287  13.885
70799W        W40680  19.052   3.843   1.256
70800W        W40681  36.547  23.698  12.425
70801W        W40682  30.912  37.956   1.355
70802W        W40683   8.198  11.282   2.287
70803W        W40684   0.926   2.391   2.278
70804W        W40685   4.244  14.803   1.351
70805W        W40686   6.228   9.158  13.333
70806W        W40687  21.702  29.426  14.348
70807W        W40688  37.411  14.784   3.732
70808W        W40689   1.749  13.627   4.774
70809W        W40690  18.577  19.209   4.227
70810W        W40691  30.007  17.719  13.993
70811W        W40692   9.239   6.427   4.739
70812W        W40693  17.630   1.257   1.322
70813W        W40694   6.730  30.070   4.352
70814W        W40695  38.937  30.485   1.390
70815W        W40696  22.247   1.239   2.275
70816W        W40697  18.270   5.733   0.302
70817W        W40698  28.103   8.705  14.981
70818W        W40699  22.025   3.247  11.929
70819W        W40700  42.902  16.721   3.276
70820W        W40701  19.643  37.871  10.582
70821W        W40702  11.706  40.014  14.803
70822W        W40703  41.473   0.979   4.210
70823W        W40704   1.895  25.064   3.784
70824W        W40705  37.345  34.373   3.269
70825W        W40706  36.069  26.521   4.148
70826W        W40707  13.108   0.388   1.809
70827W        W40708  22.706  29.972   3.731
70828W        W40709   8.185  27.043  11.895
70829W        W40710  17.707   3.272  13.901
70830W        W40711  29.466  41.396   3.209
70831W        W40712  27.569  11.715   2.209
70832W        W40713  31.435  21.116  13.506
70833W        W40714   0.983  23.719   4.305
70834W        W40715  11.663  30.980  14.330
70835W        W40716   3.273  27.614  10.980
70836W        W40717  15.654  44.361  14.317
70837W        W40718  42.994   2.239   2.858
70838W        W40719  22.021  23.070  10.491
70839W        W40720   3.859  17.147   4.202
70840W        W40721  33.901  12.333  11.896
70841W        W40722  14.180  14.809   3.163
70842W        W40723   6.823  37.070   1.789
70843W        W40724  20.100   6.280   2.239
70844W        W40725  18.596  32.630   3.325
70845W        W40726  41.345  36.984   3.244
70846W        W40727  22.717   8.201   3.314
70847W        W40728  29.554  20.247  13.930
70848W        W40729   1.859  34.449  13.534
70849W        W40730  18.234  38.462   1.795
70850W        W40731   1.406  41.396   3.294
70851W        W40732  36.005   8.818   1.252
70852W        W40733  34.973  44.914  12.042
70853W        W40734  42.469  39.460   0.424
70854W        W40735   3.822  20.144   4.690
70855W        W40736  36.536  29.583  12.983
70856W        W40737  18.765  12.742  11.081
70857W        W40738  39.973  28.076  14.772
70858W        W40739  10.158   9.830  11.051
70859W        W40740  13.681   4.274   1.316
70860W        W40741  20.755  25.680  11.503
70861W        W40742  36.356   1.751  10.936
70862W        W40743  24.632  36.069   3.149
70863W        W40744  30.096  18.599  13.334
70864W        W40745   1.786   0.973   2.849
70865W        W40746  12.678  13.239   0.260
70866W        W40747  39.849   0.969   3.722
70867W        W40748  36.927   8.363  12.003
70868W        W40749  31.910  25.489   3.355
70869W        W40750   5.784   4.285   1.277
70870W        W40751  33.436  24.133   3.338
70871W        W40752  26.528   7.736  12.532
70872W        W40753  34.064  37.084   3.200
70873W        W40754   6.734  25.693   1.449
70874W        W40755  18.190  23.703  12.846
70875W        W40756  24.526  39.319   2.233
70876W        W40757  12.241  39.372  10.947
70877W        W40758  44.799  43.299  13.024
70878W        W40759  15.818  21.090   1.391
70879W        W40760  36.385  24.081   1.851
70880W        W40761  24.180  27.067  13.922
70881W        W40762  44.277  43.788  13.334
70882W        W40763  31.068   5.736  12.558
70883W        W40764  20.153  28.972  12.356
70884W        W40765  35.092   2.961  12.828
70885W        W40766  17.741  23.589  14.289
70886W        W40767  41.444  34.390   0.872
70887W        W40768  40.429   2.802  12.398
70888W        W40769  20.677   6.852   0.280
70889W        W40770  39.438  23.031   3.777
70890W        W40771  14.276  36.944   9.956
70891W        W40772  18.212  29.928  11.534
70892W        W40773  11.687  30.913   5.783
70893W        W40774   7.227  42.383  11.002
70894W        W40775   6.277  11.146   9.998
70895W        W40776  38.481  16.141   3.248
70896W        W40777  27.492  13.722  13.457
70897W        W40778  44.337   1.744   4.150
70898W        W40779  18.695  15.799   3.795
70899W        W40780  16.097   8.185  11.964
70900W        W40781   0.882   2.371  14.877
70901W        W40782  41.406   2.725   0.821
70902W        W40783   2.933   7.898   4.204
70903W        W40784  36.880  20.593   0.902
70904W        W40785  33.002  41.506   1.270
70905W        W40786   5.225   8.810   4.182
70906W        W40787  42.484   9.194  13.963
70907W        W40788  36.919  23.225  11.098
70908W        W40789  21.194  32.943  13.829
70909W        W40790  24.148  13.195   3.635
70910W        W40791  12.713  13.723   2.241
70911W        W40792  42.803  26.552  10.532
70912W        W40793  12.250  22.654   3.751
70913W        W40794  23.529  31.416  11.610
70914W        W40795  37.998   5.382  10.582
70915W        W40796   9.200   8.198   4.757
70916W        W40797  15.265   9.829  12.500
70917W        W40798  32.020  22.138  11.118
70918W        W40799  35.541   7.780   1.818
70919W        W40800  10.191  43.821  13.419
70920W        W40801  30.091  23.121  13.981
70921W        W40802  28.493   4.349  12.481
70922W        W40803  12.131   1.301   1.805
70923W        W40804   3.332  23.090   0.425
70924W        W40805  32.909   9.225   2.819
70925W        W40806  34.369  28.050  14.921
70926W        W40807  30.464  19.572  12.398
70927W        W40808  30.134  24.577  12.956
70928W        W40809   5.866   3.358   4.794
70929W        W40810  33.961  42.835  13.982
70930W        W40811  42.860  15.716   4.758
70931W        W40812  31.141  29.471   0.345
70932W        W40813   7.865  44.849   1.343
70933W        W40814  33.384   8.791  11.065
70934W        W40815   8.742  31.439   1.788
70935W        W40816  40.333  16.629  11.511
70936W        W40817   8.401  21.194  10.617
70937W        W40818   7.683   0.292   2.386
70938W        W40819  27.034  30.558  13.374
70939W        W40820  16.719  12.119   3.792
70940W        W40821  34.113  22.171   2.251
70941W        W40822  35.982  37.430   4.829
70942W        W40823  20.227  20.684  14.920
70943W        W40824  15.622  38.856  12.024
70944W        W40825  24.535   3.290  14.366
70945W        W40826  39.917  25.132   3.838
70946W        W40827  30.657   6.277   4.348
70947W        W40828  15.616  10.849   1.733
70948W        W40829   7.895  41.455  11.419
70949W        W40830  43.882  19.200   2.844
70950W        W40831  19.185  25.516  13.878
70951W        W40832   7.828  29.480   0.299
70952W        W40833   6.818   2.772  10.444
70953W        W40834  42.865  11.222   1.699
70954W        W40835  13.148  17.140  14.438
70955W        W40836  10.227   9.350  13.974
70956W        W40837  16.145   0.275  14.784
70957W        W40838   5.220   2.278  10.633
70958W        W40839  22.062  14.683   3.162
70959W        W40840  34.418  27.484   0.311
70960W        W40841  42.467  40.966  13.844
70961W        W40842  22.563   0.407   3.867
70962W        W40843  26.665  12.221  14.347
70963W        W40844  43.951  16.088  11.009
70964W        W40845  32.905  18.121  13.545
70965W        W40846   2.255  36.929   1.229
70966W        W40847  23.544   0.330  10.918
70967W        W40848  21.144   4.703  13.530
70968W        W40849  26.461  12.245  12.978
70969W        W40850  13.286  37.497   3.297
70970W        W40851  30.498  25.577   4.318
70971W        W40852  23.551  20.183  13.002
70972W        W40853  18.783   4.301  14.854
70973W        W40854  19.276  20.263   1.277
70974W        W40855  26.670  34.584  11.001
70975W        W40856  18.733  20.763  11.574
70976W        W40857  26.528  26.112  12.548
70977W        W40858  35.510  26.598   4.827
70978W        W40859  42.481  36.375  14.468
70979W        W40860  39.911  30.946  12.832
70980W        W40861   1.886  27.967   1.272
70981W        W40862   3.445  20.163   2.779
70982W        W40863  38.923  24.570  11.966
70983W        W40864   8.166  41.793   4.117
70984W        W40865   1.459  20.738   2.279
70985W        W40866  23.051   0.807   3.359
70986W        W40867  36.454   0.328   3.327
70987W        W40868  19.232  16.216   2.208
70988W        W40869  31.108  19.215  12.393
70989W        W40870   3.434  40.914   0.887
70990W        W40871  17.645  24.054   2.783
70991W        W40872  13.724  23.024   2.824
70992W        W40873  29.132   8.225   3.298
70993W        W40874  29.952  19.125  10.573
70994W        W40875   8.283  22.196  11.373
70995W        W40876  20.529   1.746   5.779
70996W        W40877   3.306  24.603  14.490
70997W        W40878  18.150  11.167  10.988
70998W        W40879  29.938   1.947   4.206
70999W        W40880  35.442  43.326   2.340
71000W        W40881  23.992  34.108  14.924
71001W        W40882   1.937   7.803   2.827
71002W        W40883  12.704  20.658   4.817
71003W        W40884  20.670  20.156  13.334
71004W        W40885  40.005  42.820  13.543
71005W        W40886  34.109  22.026   2.826
71006W        W40887  12.337   5.734   4.279
71007W        W40888   7.208  39.024   4.248
71008W        W40889  18.224   8.860  10.437
71009W        W40890  39.547  22.033   4.239
71010W        W40891  44.355   4.715  10.595
71011W        W40892  10.716  25.044  10.896
71012W        W40893   4.805  44.409   4.807
71013W        W40894  18.234  13.655   2.900
71014W        W40895  38.497  20.748   2.672
71015W        W40896   1.840  35.892  13.377
71016W        W40897  13.812   5.854  14.407
71017W        W40898  32.048  17.200   4.833
71018W        W40899  33.608  37.379   0.376
71019W        W40900  44.898  38.895  13.541
71020W        W40901   9.267   6.331   3.239
71021W        W40902  25.164  12.829   0.943
71022W        W40903  30.924  15.739  13.889
71023W        W40904  38.940  17.650  12.560
71024W        W40905  23.067  13.133   3.772
71025W        W40906   2.739   7.197  10.607
71026W        W40907  14.808  19.731  13.018
71027W        W40908  23.100  34.398  12.539
71028W        W40909  23.227  42.888  11.888
71029W        W40910   7.358  21.740  12.860
71030W        W40911  22.139  24.992  10.942
71031W        W40912   1.792  42.022  10.913
71032W        W40913   8.844  15.324  11.125
71033W        W40914  41.446  12.754  13.798
71034W        W40915  13.608  13.696   3.858
71035W        W40916  36.924  12.643  13.459
71036W        W40917  27.151   4.224  10.540
71037W        W40918  41.316   8.813   3.356
71038W        W40919  24.644  27.611   1.388
71039W        W40920   0.308   5.698   2.406
71040W        W40921   7.740  12.323  11.975
71041W        W40922  24.717  33.623   0.479
71042W        W40923  13.199  16.212   5.238
71043W        W40924  25.197   6.728   1.744
71044W        W40925  15.148  18.234   0.905
71045W        W40926  15.226  25.617   4.736
71046W        W40927  13.822  13.747  12.987
71047W        W40928   6.265  18.660  11.446
71048W        W40929   4.786  31.413  13.464
71049W        W40930  34.577  21.586   3.308
71050W        W40931  34.408  42.351   2.764
71051W        W40932  41.001  10.141  14.309
71052W        W40933  37.901  39.005  14.837
71053W        W40934  19.565  31.074   5.225
71054W        W40935   9.213  27.134  14.305
71055W        W40936  40.048  13.306   4.304
71056W        W40937  38.502  13.785  12.088
71057W        W40938  10.724  43.932  12.020
71058W        W40939  38.987  30.116   1.417
71059W        W40940   3.896  34.972  10.889
71060W        W40941  13.214  40.016  14.448
71061W        W40942  13.346  35.930  10.591
71062W        W40943  12.803  19.743  12.366
71063W        W40944  31.540   3.274   1.761
71064W        W40945  24.678   7.293  11.055
71065W        W40946  12.167  25.136  11.063
71066W        W40947  25.988  16.646   2.197
71067W        W40948  23.072   4.925   4.204
71068W        W40949   1.342  18.077  13.890
71069W        W40950  16.796  26.652   1.384
71070W        W40951  43.927  10.856   2.692
71071W        W40952  14.697   9.873  13.341
71072W        W40953  37.428   0.279  11.048
71073W        W40954   0.983  36.572   3.286
71074W        W40955  39.923  15.769  12.416
71075W        W40956   6.281  19.081  12.514
71076W        W40957  43.818  35.950  13.846
71077W        W40958  22.511  38.927   4.683
71078W        W40959   4.229  39.404   2.699
71079W        W40960  40.835  12.744  11.924
71080W        W40961  37.493  21.719  14.472
71081W        W40962  25.491  32.465   2.736
71082W        W40963  38.453   1.474  13.916
71083W        W40964  23.553  32.058   3.197
71084W        W40965  21.683  29.025  11.913
71085W        W40966  30.629   5.808   2.384
71086W        W40967  21.679  20.592   1.733
71087W        W40968  17.072   7.282   2.668
71088W        W40969  28.179   4.208   1.296
71089W        W40970  31.516   4.720  10.013
71090W        W40971  20.228  37.883   1.267
71091W        W40972  42.950   4.263   0.809
71092W        W40973  18.087  44.919   1.213
71093W        W40974  16.169  38.518  11.088
71094W        W40975  29.134  22.223   4.178
71095W        W40976  20.051  43.337   3.840
71096W        W40977  10.251  32.969  12.979
71097W        W40978  23.689  12.284   0.857
71098W        W40979  20.071  30.458   5.316
71099W        W40980  20.103  33.501   1.239
71100W        W40981  43.493   3.949  14.902
71101W        W40982  43.865  32.465   1.417
71102W        W40983  16.614  41.852  11.066
71103W        W40984  15.153  26.540  11.428
71104W        W40985  17.218   7.307  10.629
71105W        W40986  13.785   9.187  11.860
71106W        W40987   8.275  42.473  11.540
71107W        W40988  31.406  44.258   3.833
71108W        W40989   3.346  29.521   2.789
71109W        W40990  37.454  28.453  11.027
71110W        W40991  40.541  15.580  13.544
71111W        W40992  16.590  16.574  12.854
71112W        W40993   5.784  19.259  13.966
71113W        W40994  44.917  29.525   1.351
71114W        W40995  31.095  40.013   3.816
71115W        W40996  22.205  14.216  10.421
71116W        W40997   8.339  36.464  13.336
71117W        W40998  28.619  38.831   2.784
71118W        W40999  40.453   8.687   3.356
71119W        W41000   1.337  18.180  14.433
71120W        W41001  31.631  28.157  13.530
71121W        W41002   3.788  30.956   3.793
71122W        W41003  40.433  32.981  12.408
71123W        W41004  42.027  35.085   1.366
71124W        W41005  29.620  31.090   4.324
71125W        W41006  21.259  27.636  11.414
71126W        W41007  24.187  10.692  12.461
71127W        W41008  30.048   4.310   0.858
71128W        W41009  34.569  31.050   2.804
71129W        W41010   1.855  19.604  14.758
71130W        W41011  21.576   2.398  13.879
71131W        W41012   2.288  37.911   2.413
71132W        W41013  36.481   4.890   1.279
71133W        W41014   1.961   4.268  11.453
71134W        W41015  14.251  23.690   3.328
71135W        W41016  40.464  25.468   4.794
71136W        W41017  21.263  11.745   1.781
71137W        W41018  33.381  21.650   0.436
71138W        W41019  41.800  13.808   1.901
71139W        W41020   5.357  40.013  12.086
71140W        W41021  31.121  20.251  11.534
71141W        W41022  40.325   8.769  13.465
71142W        W41023  16.204  44.418  12.482
71143W        W41024  12.321  34.948   2.402
71144W        W41025   2.458  40.893   3.738
71145W        W41026  12.351   2.335   0.434
71146W        W41027  40.911   9.342   1.334
71147W        W41028  11.702  44.315  13.325
71148W        W41029  38.831  13.158  13.467
71149W        W41030   9.662  37.919   2.260
71150W        W41031  41.950  37.441   2.883
71151W        W41032  23.506  13.273   0.443
71152W        W41033  32.513  21.516  12.044
71153W        W41034  27.677  27.594  12.451
71154W        W41035  17.061   6.867  10.950
71155W        W41036  37.411  13.214   4.672
71156W        W41037   2.312  30.106   0.415
71157W        W41038  35.400  44.975   1.800
71158W        W41039  41.353  35.389  10.963
71159W        W41040   7.370  28.525  11.606
71160W        W41041   0.844  13.804  11.102
71161W        W41042   5.705  35.864  12.485
71162W        W41043  29.069  40.955  13.872
71163W        W41044  43.819  15.655  12.005
71164W        W41045   9.754  19.272   3.306
71165W        W41046  43.889  11.197   3.238
71166W        W41047  43.448  35.508   4.745
71167W        W41048  25.667   7.786   2.408
71168W        W41049  32.893  35.065  11.587
71169W        W41050  32.477  11.684   2.292
71170W        W41051  11.217  30.600  10.123
71171W        W41052   8.742  36.438   1.801
71172W        W41053  14.298  40.985  12.441
71173W        W41054  43.410  28.575  10.613
71174W        W41055  11.160  26.546   1.286
71175W        W41056  42.349  43.004   2.194
71176W        W41057  41.486   4.897   1.840
71177W        W41058   2.323  12.756   2.843
71178W        W41059  11.710  43.487   0.365
71179W        W41060   0.490  22.636   4.321
71180W        W41061  35.559   0.358  14.470
71181W        W41062  27.668  18.199   3.803
71182W        W41063  35.390  16.607   2.335
71183W        W41064  20.750  28.144  11.590
71184W        W41065   8.716  43.774   3.209
71185W        W41066  25.501  11.331  12.569
71186W        W41067  18.699  41.807   3.192
71187W        W41068  30.557  15.084   1.284
71188W        W41069   8.341  14.720   3.685
71189W        W41070  11.223  21.707   2.306
71190W        W41071  37.482  12.325  12.436
71191W        W41072  21.068  25.067  12.834
71192W        W41073  37.918  12.837   4.604
71193W        W41074  20.658   7.262   1.253
71194W        W41075  27.117  19.719   1.356
71195W        W41076  20.740  31.490  10.407
71196W        W41077  25.476  39.844  10.643
71197W        W41078  30.573  31.994   3.251
71198W        W41079  44.941  21.234  12.477
71199W        W41080  23.637  35.077  10.573
71200W        W41081  43.286  13.105  11.115
71201W        W41082  29.969  21.209  11.011
71202W        W41083  31.080   2.284  11.026
71203W        W41084   0.819  29.431   1.383
71204W        W41085   2.904  32.918   0.955
71205W        W41086  33.531   6.798   4.131
71206W        W41087  40.848  12.259  12.839
71207W        W41088   4.851  43.384  10.605
71208W        W41089  26.678  33.384   1.390
71209W        W41090   7.287  20.701  12.403
71210W        W41091  43.977  23.236   3.832
71211W        W41092  19.259  32.546  12.356
71212W        W41093  17.687  17.216  10.462
71213W        W41094  29.497  26.961   0.404
71214W        W41095  36.921   4.784   3.352
71215W        W41096   9.850  11.341  13.884
71216W        W41097  38.928  25.973   4.825
71217W        W41098  39.017  27.568  10.444
71218W        W41099  20.274  11.637   1.275
71219W        W41100   5.773   5.827   3.250
71220W        W41101  32.086  30.416  10.591
71221W        W41102  13.609  37.531   4.318
71222W        W41103  27.189  17.094   0.853
71223W        W41104  27.473   1.287  13.470
71224W        W41105   8.175  44.973  11.442
71225W        W41106  42.851  44.338   3.364
71226W        W41107   4.804  30.564   4.300
71227W        W41108   3.818  28.568   3.333
71228W        W41109  44.267  20.640   4.141
71229W        W41110  23.701   6.246   0.726
71230W        W41111  39.956  37.849  12.918
71231W        W41112   9.745  29.972  14.865
71232W        W41113  15.634  42.012   4.348
71233W        W41114  35.856  24.123  13.858
71234W        W41115  33.505  34.987  13.947
71235W        W41116  24.615  25.587   3.195
71236W        W41117  16.622   0.937   0.268
71237W        W41118   1.732  35.012  11.385
71238W        W41119  11.708  24.982  13.023
71239W        W41120  44.863   3.220   3.667
71240W        W41121  22.176  29.173   1.329
71241W        W41122  41.523  23.026  13.339
71242W        W41123  38.934  38.891  13.794
71243W        W41124  24.544  29.604  11.057
71244W        W41125  13.621  41.507   4.220
71245W        W41126  24.591  28.122   1.906
71246W        W41127  34.889  21.034  14.780
71247W        W41128   5.840  19.232   4.264
71248W        W41129  35.443   6.797   1.231
71249W        W41130  31.122  34.976   0.876
71250W        W41131  33.505  14.728   2.271
71251W        W41132   4.445  29.060  14.466
71252W        W41133  44.471  21.645  11.553
71253W        W41134  41.427   2.830  13.807
71254W        W41135  29.968   4.943   4.325
71255W        W41136  41.899  32.395  13.308
71256W        W41137  19.671  41.381  14.353
71257W        W41138  42.339   8.235   3.299
71258W        W41139  17.188  38.389  14.955
71259W        W41140   6.754  12.336   0.251
71260W        W41141  13.608  20.137  14.466
71261W        W41142  18.619  41.354  13.508
71262W        W41143  19.192  34.544   4.644
71263W        W41144  42.787  39.346  11.550
71264W        W41145  43.983   5.919  14.031
71265W        W41146  12.657  19.693   3.337
71266W        W41147  39.019   1.276   2.299
71267W        W41148   5.298  10.781   2.331
71268W        W41149   9.226  10.721  13.458
71269W        W41150  29.454   6.348  13.957
71270W        W41151  21.197  42.526   3.640
71271W        W41152  30.048   3.438   1.397
71272W        W41153  19.585  43.425  10.437
71273W        W41154  34.391  31.101  10.456
71274W        W41155   3.890  10.291   0.739
71275W        W41156  25.018  10.244  14.885
71276W        W41157  21.164  30.103   2.810
71277W        W41158   7.708  24.010  13.802
71278W        W41159  17.193   6.388  10.922
71279W        W41160  42.350  29.468  13.434
71280W        W41161  26.188  11.670  12.340
71281W        W41162  25.105  39.466   3.689
71282W        W41163  22.173   6.765   0.898
71283W        W41164  36.497  20.182  13.885
71284W        W41165  30.976  27.989  14.275
71285W        W41166   5.375  13.777   4.838
71286W        W41167  21.730   2.235  13.051
71287W        W41168  27.085  19.564   4.701
71288W        W41169  26.070  40.008  10.634
71289W        W41170   4.874  15.249  13.332
71290W        W41171  14.095  40.416   1.896
71291W        W41172  37.566   5.764  14.365
71292W        W41173   2.724  29.052   2.382
71293W        W41174  40.968   5.388  11.492
71294W        W41175  17.102  23.179   4.732
71295W        W41176  13.609  15.654   0.846
71296W        W41177  22.540  38.347  12.485
71297W        W41178  29.148  29.073   0.947
71298W        W41179  16.599  31.028  10.961
71299W        W41180  14.237  21.138   2.847
71300W        W41181  23.140  29.061   1.273
71301W        W41182  41.018  35.084   0.266
71302W        W41183   4.433  30.491  11.101
71303W        W41184  38.981  41.394  11.034
71304W        W41185  43.974  43.781  12.042
71305W        W41186  24.112  23.624   3.372
71306W        W41187   7.235   3.378  11.567
71307W        W41188   1.890  14.094   3.860
71308W        W41189  38.421  42.809  14.807
71309W        W41190  37.032  11.336  14.356
71310W        W41191  36.559  19.044  10.595
71311W        W41192  26.974  12.237   3.736
71312W        W41193  15.115  33.972   0.400
71313W        W41194  28.677  29.957  13.853
71314W        W41195  39.021  37.018   0.332
71315W        W41196   8.317  26.668  13.321
71316W        W41197  24.988  22.154  14.495
71317W        W41198  12.243   7.201   3.250
71318W        W41199   9.688  39.956   4.171
71319W        W41200  42.450  38.497  13.526
71320W        W41201  16.200  13.680   2.792
71321W        W41202   9.680  23.197   1.395
71322W        W41203  13.223  18.704  10.933
71323W        W41204  37.075  28.979   4.143
71324W        W41205   1.896   5.719  10.623
71325W        W41206  31.148  25.588  13.899
71326W        W41207  24.989  37.068   0.786
71327W        W41208  27.109  19.775  14.932
71328W        W41209  32.479  39.329   0.815
71329W        W41210  19.103  42.480   3.720
71330W        W41211  34.118  41.479  14.771
71331W        W41212  44.347  14.157  12.958
71332W        W41213   3.892  11.672  12.860
71333W        W41214  38.528  14.188  11.576
71334W        W41215  42.392  28.991   2.246
71335W        W41216  17.621  22.171  11.969
71336W        W41217  29.970  38.900   0.373
71337W        W41218  28.997  39.460  14.779
71338W        W41219   1.925  38.388   1.329
71339W        W41220  25.535   3.274  13.032
71340W        W41221  20.093  14.271   9.951
71341W        W41222  24.640  37.558  14.813
71342W        W41223  31.935  27.551  14.993
71343W        W41224  13.162  34.551  12.062
71344W        W41225   9.827  44.394  11.388
71345W        W41226  17.267   7.824   4.686
71346W        W41227  41.489  37.921   4.659
71347W        W41228   1.338   1.903  13.383
71348W        W41229  29.993   6.423   1.302
71349W        W41230  35.422   7.873  14.961
71350W        W41231  29.602  35.070   0.438
71351W        W41232  42.981  42.340   4.353
71352W        W41233  25.711  29.555  13.853
71353W        W41234  25.975  32.595   4.218
71354W        W41235  37.951   4.367  14.287
71355W        W41236  18.229  28.186   3.695
71356W        W41237  33.533   3.360  12.425
71357W        W41238  16.761  32.958   4.674
71358W        W41239  38.530   7.376   4.340
71359W        W41240  41.532  30.911   1.445
71360W        W41241  30.618   7.180   3.370
71361W        W41242   9.775   9.727   3.382
71362W        W41243  43.492  16.618   4.826
71363W        W41244   5.229  17.589  13.974
71364W        W41245  20.748  30.641   3.282
71365W        W41246  28.049   9.837  10.935
71366W        W41247  38.870  43.013  10.961
71367W        W41248  31.502  43.791   3.282
71368W        W41249  35.067   9.677   4.633
71369W        W41250  22.134  31.896  14.431
71370W        W41251  28.575   1.352  13.415
71371W        W41252  40.982  43.373   1.855
71372W        W41253   2.944  10.320  12.353
71373W        W41254  35.575  33.065   0.385
71374W        W41255  28.124  18.628  13.802
71375W        W41256  21.581  10.771  11.605
71376W        W41257  36.062  39.039   0.839
71377W        W41258  38.482  20.118  14.955
71378W        W41259  20.713  20.618  12.975
71379W        W41260   0.759  13.148   2.687
71380W        W41261  44.774  36.907   4.605
71381W        W41262  12.173  34.471   4.190
71382W        W41263   2.431  23.149  10.611
71383W        W41264  44.884  23.117  14.404
71384W        W41265   8.229   3.349  14.900
71385W        W41266  22.535   4.804  14.415
71386W        W41267   9.872   5.907  10.480
71387W        W41268   6.798  28.157   1.896
71388W        W41269  32.891  35.955  12.953
71389W        W41270  35.910  42.000   3.763
71390W        W41271  21.712  34.063   1.258
71391W        W41272  42.473  12.729  14.409
71392W        W41273  22.521  11.298   1.271
71393W        W41274   6.314  12.761  14.499
71394W        W41275  14.123  39.970   3.676
71395W        W41276  22.046   3.385   5.096
71396W        W41277  22.012   1.897  13.465
71397W        W41278   0.921  29.070  12.458
71398W        W41279  22.727   9.687  14.805
71399W        W41280  42.452  36.564  10.984
71400W        W41281  16.612  10.650  12.021
71401W        W41282  10.198  12.227   3.682
71402W        W41283  44.287   1.785  14.399
71403W        W41284  18.713  28.518   1.274
71404W        W41285  39.901  44.341   3.791
71405W        W41286   9.299  17.282  14.468
71406W        W41287  42.921  34.607   1.380
71407W        W41288   4.432  32.081   3.847
71408W        W41289   4.242  44.400   4.308
71409W        W41290  21.052   9.694   1.705
71410W        W41291  19.647  28.485   1.711
71411W        W41292  26.665  23.145   4.287
71412W        W41293  14.710  29.662  14.982
71413W        W41294  36.045  12.784  13.387
71414W        W41295   4.910  38.487   0.257
71415W        W41296  43.880   2.761  13.830
71416W        W41297  35.603  43.421   1.747
71417W        W41298  29.495  27.688  12.022
71418W        W41299  41.522   1.263  14.509
71419W        W41300  20.046   6.759  10.587
71420W        W41301   0.376  29.133  14.850
71421W        W41302  33.981  24.501   2.671
71422W        W41303  17.295  33.593  12.461
71423W        W41304  23.548  13.769  13.397
71424W        W41305  13.761  14.828   1.238
71425W        W41306   5.892  17.290  10.428
71426W        W41307   0.318  16.708   4.308
71427W        W41308  36.386  37.889   2.792
71428W        W41309   4.410  25.195   0.920
71429W        W41310  25.662   3.731   1.742
71430W        W41311  30.046  21.659  12.377
71431W        W41312  41.004  29.438   4.205
71432W        W41313  26.568  11.816   1.928
71433W        W41314  35.944  40.816  11.086
71434W        W41315  10.802  29.141   4.128
71435W        W41316  34.516  31.571  12.927
71436W        W41317   5.298  24.660   2.747
71437W        W41318  24.633   2.775   3.754
71438W        W41319  21.695  26.984  14.923
71439W        W41320  16.607  40.494  10.472
71440W        W41321  40.914  27.670   4.782
71441W        W41322  35.895   8.278   3.300
71442W        W41323  11.827   7.745  13.803
71443W        W41324  43.816  29.026   0.448
71444W        W41325  43.401  30.469   3.165
71445W        W41326  22.194  36.062   3.770
71446W        W41327   6.310  25.062  13.447
71447W        W41328  29.124  23.665   1.283
71448W        W41329  37.886  36.003   3.818
71449W        W41330   6.347  23.554  12.388
71450W        W41331   4.248  21.563   0.416
71451W        W41332  18.769   8.842   0.907
71452W        W41333  11.789  26.154  14.857
71453W        W41334   2.874  21.065   0.323
71454W        W41335   3.723  42.986   0.478
71455W        W41336  41.034  35.378  13.805
71456W        W41337   3.840  35.041  13.355
71457W        W41338   8.301  12.784   4.336
71458W        W41339  23.684  44.441  11.604
71459W        W41340  41.359   6.201  13.393
71460W        W41341  20.223  17.285  12.888
71461W        W41342  20.230   1.842  12.367
71462W        W41343  14.595  32.095  14.381
71463W        W41344  33.975  26.541  11.428
71464W        W41345  35.027  42.897   3.322
71465W        W41346   0.820  19.640   0.805
71466W        W41347  10.367  41.411   3.797
71467W        W41348   6.382   5.218   3.728
71468W        W41349  14.767   8.672   3.155
71469W        W41350  40.823  39.337   3.721
71470W        W41351  43.009   0.879   1.922
71471W        W41352  31.643  32.432  11.027
71472W        W41353  38.996  24.115  11.431
71473W        W41354  15.594  16.628   3.665
71474W        W41355  42.290  30.116  13.824
71475W        W41356   3.369  16.703  11.900
71476W        W41357   2.955  35.402   3.244
71477W        W41358   0.915  11.157   3.354
71478W        W41359  38.922  17.285  14.450
71479W        W41360  31.405  15.277   5.764
71480W        W41361  18.749  35.590  14.323
71481W        W41362  37.852  24.534   2.866
71482W        W41363   8.825   2.360  13.918
71483W        W41364  34.905  14.108  14.383
71484W        W41365  13.309   7.240  12.904
71485W        W41366  15.328   3.373   2.201
71486W        W41367  34.444  27.542  14.025
71487W        W41368  14.657  30.918  12.564
71488W        W41369  24.095  30.946  12.472
71489W        W41370  31.547  35.917  14.834
71490W        W41371   3.862  21.543  13.031
71491W        W41372  18.674  11.674   1.274
71492W        W41373  17.623  13.219  11.880
71493W        W41374   1.351  43.422  13.026
71494W        W41375   0.410  28.492   3.297
71495W        W41376  23.699  17.296   2.729
71496W        W41377  34.379  12.301  14.859
71497W        W41378   4.321  16.206  12.502
71498W        W41379  37.851  19.200   2.890
71499W        W41380   9.344  21.036   1.295
71500W        W41381  41.362   4.328  14.376
71501W        W41382  13.342  18.249  14.785
71502W        W41383  26.521   9.840  14.973
71503W        W41384  34.884  20.526   0.283
71504W        W41385  36.427  23.510   0.320
71505W        W41386  38.862  29.498   2.293
71506W        W41387  37.884  21.133   0.851
71507W        W41388  39.362  30.450   4.345
71508W        W41389  16.293  17.118   0.878
71509W        W41390  37.056   6.298  11.598
71510W        W41391  12.148   8.168   2.761
71511W        W41392  41.823   6.851   0.275
71512W        W41393   8.304   6.220   1.299
71513W        W41394   4.892  14.670  12.427
71514W        W41395  44.449   0.383   1.887
71515W        W41396  18.219  42.482   3.312
71516W        W41397  17.685   4.923   0.479
71517W        W41398  42.507  13.277   0.483
71518W        W41399  40.429  25.614   3.373
71519W        W41400  33.551  14.212   2.679
71520W        W41401  25.973  29.538  13.388
71521W        W41402  12.814  19.682   0.821
71522W        W41403  38.969  43.929   4.651
71523W        W41404   6.408   2.815  14.930
71524W        W41405   6.307  21.660  13.905
71525W        W41406  29.042  44.008   1.875
71526W        W41407  39.359  26.063  11.383
71527W        W41408  27.529  38.936  13.955
71528W        W41409  44.789  20.685   0.873
71529W        W41410   8.853   6.901   0.746
71530W        W41411  31.401   2.793   2.358
71531W        W41412  14.810  40.921   0.411
71532W        W41413  26.013   2.721  14.781
71533W        W41414  43.373  24.619  12.543
71534W        W41415  44.305  43.398   3.215
71535W        W41416  28.050  20.664   4.311
71536W        W41417   4.793  37.013  11.887
71537W        W41418   4.873  37.456   1.746
71538W        W41419   3.375  10.143   4.349
71539W        W41420  28.562   7.284  13.946
71540W        W41421  37.000   7.705   1.220
71541W        W41422  11.663  29.166  12.977
71542W        W41423  32.438   2.405  12.968
71543W        W41424  22.663   3.894   2.761
71544W        W41425  13.634  15.161   4.658
71545W        W41426   9.718  16.640  13.877
71546W        W41427  43.769  18.753  13.322
71547W        W41428  11.858   9.792   1.882
71548W        W41429  43.452  20.076   3.762
71549W        W41430   2.431   6.687   4.794
71550W        W41431  40.923  22.688  11.430
71551W        W41432  20.164  21.242   2.373
71552W        W41433  20.546   0.799   4.332
71553W        W41434  34.049  22.103  12.531
71554W        W41435  25.209  14.121  10.901
71555W        W41436  25.077  10.196   4.148
71556W        W41437   1.370  18.747   3.247
71557W        W41438  21.143  42.420   2.703
71558W        W41439  13.110  25.129   3.282
71559W        W41440  21.145  33.935   2.725
71560W        W41441  25.592  33.963  12.858
71561W        W41442  44.260   7.827  11.993
71562W        W41443   4.353  18.168   4.832
71563W        W41444  11.254  31.989   1.219
71564W        W41445  39.002  35.020  10.056
71565W        W41446  30.106   0.278   3.780
71566W        W41447  20.224  14.785  11.114
71567W        W41448  43.418  22.164  12.494
71568W        W41449   4.256  26.646  14.367
71569W        W41450  25.693  16.712   1.316
71570W        W41451   0.790   9.792  11.883
71571W        W41452  33.010  36.503   0.483
71572W        W41453  13.305  30.979  11.502
71573W        W41454  23.623  36.058  13.964
71574W        W41455  15.109  28.472  11.065
71575W        W41456  30.925  28.669  14.019
71576W        W41457  13.203  40.487  11.984
71577W        W41458   8.349  28.104  14.976
71578W        W41459  43.385  19.655  11.927
71579W        W41460  35.403   2.399   0.859
71580W        W41461  31.647  39.913   3.207
71581W        W41462  17.641  32.579  13.937
71582W        W41463  33.604  30.436  11.521
71583W        W41464  29.461  43.986  14.895
71584W        W41465  17.626  14.600  14.892
71585W        W41466   4.265  38.002  12.834
71586W        W41467  37.473  31.468  14.339
71587W        W41468   8.274  44.274   3.846
71588W        W41469  36.511  19.623   4.217
71589W        W41470  42.929  44.008  12.059
71590W        W41471   2.240   6.405   0.326
71591W        W41472   7.889  15.786  10.506
71592W        W41473  16.651  42.394   3.343
71593W        W41474  41.294  43.485   2.713
71594W        W41475  35.524  40.391   1.256
71595W        W41476  44.344  10.758  10.063
71596W        W41477  25.570   0.374   3.768
71597W        W41478   3.897  39.492  13.845
71598W        W41479   3.824   2.260   2.818
71599W        W41480  15.274  34.961   4.825
71600W        W41481  17.174  37.390  10.526
71601W        W41482  30.097  17.615   2.246
71602W        W41483  34.510  25.016   4.698
71603W        W41484  31.561  19.657   1.908
71604W        W41485   0.355   1.759   1.868
71605W        W41486  18.110  28.506   1.420
71606W        W41487  11.277  35.916  10.590
71607W        W41488  34.500  14.324  14.493
71608W        W41489   4.892   7.845  10.044
71609W        W41490  23.070  32.434  14.008
71610W        W41491  11.306  24.014  12.440
71611W        W41492  35.593  27.992  13.518
71612W        W41493  35.090   7.229  11.071
71613W        W41494  24.605   8.856  12.415
71614W        W41495  34.969  37.530   0.733
71615W        W41496  27.054   8.196  13.313
71616W        W41497  16.216  34.051   0.399
71617W        W41498  38.346   4.894   3.353
71618W        W41499  30.647   1.821   4.279
71619W        W41500  14.806  30.927  14.435
71620W        W41501  33.413  14.637  13.805
71621W        W41502  34.381  19.618  13.424
71622W        W41503   7.843  37.906  12.372
71623W        W41504  35.004  18.774   2.373
71624W        W41505  36.891   4.720  12.983
71625W        W41506   8.731  38.838  14.824
71626W        W41507   4.345  17.086   4.216
71627W        W41508  38.846   7.841   2.857
71628W        W41509  27.149   5.249   2.325
71629W        W41510  40.387  22.171  11.385
71630W        W41511  44.401   2.920  14.988
71631W        W41512  12.619  27.619  14.907
71632W        W41513   3.271  43.946  10.906
71633W        W41514  44.309  26.477   4.133
71634W        W41515  17.250   6.239   2.389
71635W        W41516  31.494  30.599  14.487
71636W        W41517  13.338  17.706   0.366
71637W        W41518   8.394  37.472   4.602
71638W        W41519   9.185  16.799   1.794
71639W        W41520  38.991  34.587   1.881
71640W        W41521  33.577  24.139  13.517
71641W        W41522  21.135  43.914  11.921
71642W        W41523  34.476   7.366  11.973
71643W        W41524  35.555  42.382  12.983
71644W        W41525  43.491  36.086   1.217
71645W        W41526  30.042  10.673  12.476
71646W        W41527  12.786  30.415   3.304
71647W        W41528  37.354   0.983  11.019
71648W        W41529  21.191  18.089  13.334
71649W        W41530  42.401  28.638   0.442
71650W        W41531   7.367  22.120  11.950
71651W        W41532  15.630  28.591   1.324
71652W        W41533   5.246  27.970  12.518
71653W        W41534  10.351   8.746   3.840
71654W        W41535  38.427   4.430   3.801
71655W        W41536   3.234  38.377   3.672
71656W        W41537  32.082  39.479   0.757
71657W        W41538   8.170   5.820   1.248
71658W        W41539   0.952   6.352  13.335
71659W        W41540  15.614   4.390   3.163
71660W        W41541  41.351  21.677   2.357
71661W        W41542  24.687  14.232  13.047
71662W        W41543  41.461  35.078  13.976
71663W        W41544   8.752   7.873  13.921
71664W        W41545   5.872  26.115  13.985
71665W        W41546  40.355  43.897   4.749
71666W        W41547  26.621  36.847  10.991
71667W        W41548  16.303  21.198  13.315
71668W        W41549  30.150  41.398  11.889
71669W        W41550  14.697   1.265   0.458
71670W        W41551  32.101  44.387  10.961
71671W        W41552  43.783  41.377   4.646
71672W        W41553  20.198   2.341  14.841
71673W        W41554   1.815  30.920  12.571
71674W        W41555  42.413  28.474   3.829
71675W        W41556  31.926  40.356   2.244
71676W        W41557  17.201  35.583   3.172
71677W        W41558   5.225  35.048   2.273
71678W        W41559  32.598  27.955   0.955
71679W        W41560   2.453  42.801   3.162
71680W        W41561  31.589  24.507   3.852
71681W        W41562  12.646  14.654   3.784
71682W        W41563  21.108  13.288  13.352
71683W        W41564  20.545   8.380  11.080
71684W        W41565  36.984  33.407  12.509
71685W        W41566  15.269   6.326   4.722
71686W        W41567  33.476  44.397  10.025
71687W        W41568   5.808  23.547   4.199
71688W        W41569   3.902  28.622  13.862
71689W        W41570  28.963  29.960  13.854
71690W        W41571  25.148  42.861   0.470
71691W        W41572  18.559  40.312  13.048
71692W        W41573   5.751  20.046   3.217
71693W        W41574   4.298   9.788   0.301
71694W        W41575  18.638  42.790  11.611
71695W        W41576  13.810  17.205   4.615
71696W        W41577  16.263  31.959   2.746
71697W        W41578  14.602  19.166  14.495
71698W        W41579   8.326  12.838  11.392
71699W        W41580   9.187   6.718   3.863
71700W        W41581  25.663   9.841  13.411
71701W        W41582   4.891  44.806   0.763
71702W        W41583  34.471  32.971  11.950
71703W        W41584  32.476  10.239   0.383
71704W        W41585  41.945   1.794  14.480
71705W        W41586  27.023  42.526   3.682
71706W        W41587   9.883   0.985  13.381
71707W        W41588  34.931   6.255  11.928
71708W        W41589  24.540   8.364   0.958
71709W        W41590   6.831   3.325  14.817
71710W        W41591  18.576  35.011   1.803
71711W        W41592  35.855  34.540   4.620
71712W        W41593  27.489  36.995   4.301
71713W        W41594  19.629  18.770  12.078
71714W        W41595  16.173  16.127  11.032
71715W        W41596  40.907  44.815   2.320
71716W        W41597  42.311  27.123   1.362
71717W        W41598  36.367  37.069   3.267
71718W        W41599   0.272  39.377  13.829
71719W        W41600  36.552  22.166   2.673
71720W        W41601  21.140  23.164  11.039
71721W        W41602   5.228  42.784   2.256
71722W        W41603  28.587  21.112  12.999
71723W        W41604  30.638   0.945  14.301
71724W        W41605   2.454  27.565  13.356
71725W        W41606  35.085  25.708   2.405
71726W        W41607   0.389   9.288  11.540
71727W        W41608   2.745  26.691   2.328
71728W        W41609  16.142  38.871  11.548
71729W        W41610  22.658  43.494  11.440
71730W        W41611  15.637  24.143  11.010
71731W        W41612  44.993  44.478   3.180
71732W        W41613  11.659  27.156   0.775
71733W        W41614   2.802  35.503  11.951
71734W        W41615  28.146  32.487   2.797
71735W        W41616  41.305  36.846  14.964
71736W        W41617  25.470  21.035  11.541
71737W        W41618  40.822  18.616  10.522
71738W        W41619   7.397  22.130   1.358
71739W        W41620  33.024  29.156  14.279
71740W        W41621   0.941  30.104   2.781
71741W        W41622  13.714  34.494  14.793
71742W        W41623   4.709  37.439   3.815
71743W        W41624  39.325  23.180  12.491
71744W        W41625  22.509  23.065   2.266
71745W        W41626  35.523  25.965   4.685
71746W        W41627  26.996   2.763   0.456
71747W        W41628  23.009  15.132  12.974
71748W        W41629  16.797  18.668   4.711
71749W        W41630  26.020   0.988  14.826
71750W        W41631  22.713  23.221  11.053
71751W        W41632  29.086  18.651   4.767
71752W        W41633   2.912  12.262   4.607
71753W        W41634   7.398  39.837  10.468
71754W        W41635   8.897  11.783   1.762
71755W        W41636  44.860  31.485  13.519
71756W        W41637  32.422  32.558   0.323
71757W        W41638  33.489   3.247  13.024
71758W        W41639  10.263  38.492   3.152
71759W        W41640  37.958  33.595   2.276
71760W        W41641  38.423  40.798   1.263
71761W        W41642  22.729  37.882  11.413
71762W        W41643   8.386  14.299   1.835
71763W        W41644  19.176  22.568   2.259
71764W        W41645  37.494   4.259   9.988
71765W        W41646  11.771  23.181   0.377
71766W        W41647  10.282  25.978  12.570
71767W        W41648  29.071  39.517  14.003
71768W        W41649  26.503  25.039   0.475
71769W        W41650  25.072  12.155  14.765
71770W        W41651  35.043  37.029   1.435
71771W        W41652   3.457  24.154   3.681
71772W        W41653   5.306   0.791   0.935
71773W        W41654  44.419  18.196  10.567
71774W        W41655  34.412  30.484   1.375
71775W        W41656  30.577  44.447  12.566
71776W        W41657   0.975  23.713  12.836
71777W        W41658   6.340  16.265  13.494
71778W        W41659   7.253   3.926  12.392
71779W        W41660  12.731   3.250   3.192
71780W        W41661  25.692  38.877  13.991
71781W        W41662  20.122  12.267   4.135
71782W        W41663  28.456  18.099   0.728
71783W        W41664   3.269  17.790   3.705
71784W        W41665   4.773  34.985   5.090
71785W        W41666  26.551  14.145   4.204
71786W        W41667  27.491   0.821   4.143
71787W        W41668  28.105  43.799   0.378
71788W        W41669   9.193  29.954   0.793
71789W        W41670   1.732  31.511  14.923
71790W        W41671  31.547  42.013  11.004
71791W        W41672  28.443  31.612  11.461
71792W        W41673  25.158   0.784   4.128
71793W        W41674  19.156  10.379   3.669
71794W        W41675  28.098  20.620   1.389
71795W        W41676  20.691  43.417   9.442
71796W        W41677  16.706  33.915   1.409
71797W        W41678  11.223   1.255   3.672
71798W        W41679  35.547  34.976   2.399
71799W        W41680  43.511  26.621  13.527
71800W        W41681  17.698   2.247   0.911
71801W        W41682  15.094  11.170  14.958
71802W        W41683  27.187  10.217   2.249
71803W        W41684  36.381  34.489  13.538
71804W        W41685  28.531   1.779  12.911
71805W        W41686   9.698  37.350  12.473
71806W        W41687  29.490  18.747   1.882
71807W        W41688  12.208   0.932   3.642
71808W        W41689  29.050  33.906   4.633
71809W        W41690  30.485   7.211  11.053
71810W        W41691  31.560  36.983  11.454
71811W        W41692   6.685  31.109   0.294
71812W        W41693   3.339  44.354   1.859
71813W        W41694  44.270  23.077   3.281
71814W        W41695   1.439  13.772  10.956
71815W        W41696  11.816   9.226  14.467
71816W        W41697  17.131  39.912  11.905
71817W        W41698  34.593   6.783  11.371
71818W        W41699  43.903  20.245  14.979
71819W        W41700  34.974   7.898   1.855
71820W        W41701  25.107   0.854   1.886
71821W        W41702  29.651  14.146  12.043
71822W        W41703  21.708  26.675   1.861
71823W        W41704  23.639  29.110  12.850
71824W        W41705   7.234  43.772   0.428
71825W        W41706  29.130   6.320  11.476
71826W        W41707  15.254   9.329  13.827
71827W        W41708  17.238  34.958  11.591
71828W        W41709  27.588  15.725  12.827
71829W        W41710   2.724   3.866   3.746
71830W        W41711  32.110  14.336   4.781
71831W        W41712  36.843   2.775   3.261
71832W        W41713   4.205  38.922   2.415
71833W        W41714   8.680  21.020  14.341
71834W        W41715  29.474  23.635   3.246
71835W        W41716   8.861   6.358   0.961
71836W        W41717  33.963  29.596  13.882
71837W        W41718   9.389  30.085  10.948
71838W        W41719  20.562  15.231  14.808
71839W        W41720  22.039  19.209   4.179
71840W        W41721  40.467   6.283  12.887
71841W        W41722  38.461   6.207  12.340
71842W        W41723  40.379  41.897  11.461
71843W        W41724   5.762  11.694   2.689
71844W        W41725  36.981  44.436  10.117
71845W        W41726  30.162   2.759   1.798
71846W        W41727  40.847  29.500   2.877
71847W        W41728  42.510  11.859  10.613
71848W        W41729  25.635  34.393  14.010
71849W        W41730  18.718  31.127   1.934
71850W        W41731  37.899  21.024   3.862
71851W        W41732  22.676  37.453  11.095
71852W        W41733  33.418  44.891  14.870
71853W        W41734  24.188  22.122  11.909
71854W        W41735   8.361  25.154   1.747
71855W        W41736  35.546  27.583  12.908
71856W        W41737  35.094  29.668   1.754
71857W        W41738  19.063  37.466   0.857
71858W        W41739  41.354  41.942   3.640
71859W        W41740  12.173   4.891   3.797
71860W        W41741  42.372   5.832   1.711
71861W        W41742   2.293  38.507   0.909
71862W        W41743  43.447  10.773  13.906
71863W        W41744  17.725  16.633  12.435
71864W        W41745  11.299  14.277   3.821
71865W        W41746  29.939  29.525   3.239
71866W        W41747  36.531  38.878   3.663
71867W        W41748  18.116  26.665   1.404
71868W        W41749  38.988  26.507   9.953
71869W        W41750  22.238  34.399  11.511
71870W        W41751   9.158   6.828   2.234
71871W        W41752  13.194  38.468  10.451
71872W        W41753  30.959  32.041   2.687
71873W        W41754  33.995  27.059  10.420
71874W        W41755  28.525  38.377   2.246
71875W        W41756   5.306  12.167  14.925
71876W        W41757  28.509  33.508   0.927
71877W        W41758  29.646   7.264   1.307
71878W        W41759  42.847  33.388   0.746
71879W        W41760  40.529  42.314  11.378
71880W        W41761  10.315   6.766   4.606
71881W        W41762  43.009  21.527  11.073
71882W        W41763   8.856   3.381  13.928
71883W        W41764  15.102  33.561   3.245
71884W        W41765  37.024  24.067   1.715
71885W        W41766  23.239   6.382  12.028
71886W        W41767  28.669  42.908  14.464
71887W        W41768  15.315  21.600  11.476
71888W        W41769  30.581   5.722  13.355
71889W        W41770  26.672  11.219   1.853
71890W        W41771  20.566   0.442  14.847
71891W        W41772   8.175   1.825   1.828
71892W        W41773  25.630  40.415  14.914
71893W        W41774  14.310  21.607   4.614
71894W        W41775  15.293  31.549  10.599
71895W        W41776  15.631  41.514   2.288
71896W        W41777  42.902  24.024  12.923
71897W        W41778  11.296  22.741  14.348
71898W        W41779  33.417  24.702  10.408
71899W        W41780  19.100  15.652  10.939
71900W        W41781  12.761   6.188  13.808
71901W        W41782  21.224  28.660   4.350
71902W        W41783  10.235  22.126   3.284
71903W        W41784  34.550  19.080  12.892
71904W        W41785  40.858   0.870   2.189
71905W        W41786  11.217  27.158   0.757
71906W        W41787  34.607  19.174   1.238
71907W        W41788   5.753  34.400  14.023
71908W        W41789   4.933  28.640   3.823
71909W        W41790  10.183  28.106  14.328
71910W        W41791  37.465  25.692   5.191
71911W        W41792   0.484   0.437   3.713
71912W        W41793  30.056   8.787   2.208
71913W        W41794  30.433   2.893   1.715
71914W        W41795   7.196  41.926  12.017
71915W        W41796  18.726  13.639  10.545
71916W        W41797  12.786   3.288  13.519
71917W        W41798  42.346  16.802   3.268
71918W        W41799  29.653   7.909   5.135
71919W        W41800  44.286  12.721   3.782
71920W        W41801  42.001  30.043  13.470
71921W        W41802  20.144  17.775  12.095
71922W        W41803  28.173  17.613   2.755
71923W        W41804  44.948  19.762  14.850
71924W        W41805   6.857  28.039   2.879
71925W        W41806  42.860   7.320   1.349
71926W        W41807  13.750  16.297  12.367
71927W        W41808   7.284  26.077   3.789
71928W        W41809   3.459   1.254   1.756
71929W        W41810  40.381  25.041   0.910
71930W        W41811  26.092  16.779  13.921
71931W        W41812   0.256  44.999   4.127
71932W        W41813  44.812  18.126   2.220
71933W        W41814  10.139  24.563  13.319
71934W        W41815   8.341  44.386  12.530
71935W        W41816  22.670  20.556   3.714
71936W        W41817  40.326  12.667  11.976
71937W        W41818   0.408  28.069   0.891
71938W        W41819  28.522   7.293   3.342
71939W        W41820  44.862   9.164   4.605
71940W        W41821  42.348  40.414  12.092
71941W        W41822  23.514  44.002  14.797
71942W        W41823  16.763  33.529   2.723
71943W        W41824  23.605  26.961  13.919
71944W        W41825  23.496  12.688   2.360
71945W        W41826  11.711  32.625   0.379
71946W        W41827  13.251  38.541  14.902
71947W        W41828  33.484  33.421   5.304
71948W        W41829  25.003  11.627   2.668
71949W        W41830  15.306  25.977   4.633
71950W        W41831  28.142  41.491  10.542
71951W        W41832  23.597  39.977  13.520
71952W        W41833  13.609  20.525  10.889
71953W        W41834  23.094  27.596   2.788
71954W        W41835  24.038   1.927  10.968
71955W        W41836  30.501  43.398  13.373
71956W        W41837  11.211   4.921   0.932
71957W        W41838  35.908  21.549  11.431
71958W        W41839  29.084  13.735   3.745
71959W        W41840  16.172  40.527   0.417
71960W        W41841  18.158  27.460  12.917
71961W        W41842  25.706   1.258   2.714
71962W        W41843  24.653  19.714   2.891
71963W        W41844  42.333  16.179   1.827
71964W        W41845   8.773  16.803   1.935
71965W        W41846   6.840  17.217  12.084
71966W        W41847  44.766  14.259   1.230
71967W        W41848  29.578  22.686   1.927
71968W        W41849  33.916   7.839  12.549
71969W        W41850  37.952  14.753  14.321
71970W        W41851  22.157  37.995  12.549
71971W        W41852  35.951  30.133  11.507
71972W        W41853  15.621   5.426  13.793
71973W        W41854  27.174  41.389   4.599
71974W        W41855  36.488  21.231  10.989
71975W        W41856  34.097  42.910   2.695
71976W        W41857  34.032  20.734  12.885
71977W        W41858   1.821  24.013  14.419
71978W        W41859  35.427  40.505  11.856
71979W        W41860  28.010  21.153   3.265
71980W        W41861  44.788  11.303  11.948
71981W        W41862   1.297  11.356   1.272
71982W        W41863   2.902  42.931   2.372
71983W        W41864  42.933  10.699  11.515
71984W        W41865  12.636  25.963  14.778
71985W        W41866   1.269   2.260   4.784
71986W        W41867  11.187  44.429  11.459
71987W        W41868  21.547  34.407  13.533
71988W        W41869   8.243  40.336  10.923
71989W        W41870   9.649  36.546  11.052
71990W        W41871   7.254  38.549  12.979
71991W        W41872  18.179  19.698   2.230
71992W        W41873  22.661   2.801   0.823
71993W        W41874  20.611  20.609  13.371
71994W        W41875  31.464  15.758   0.742
71995W        W41876  21.088  43.331  14.894
71996W        W41877  32.006   5.277   1.410
71997W        W41878  42.031  41.808  10.469
71998W        W41879  16.090   0.881  14.933
71999W        W41880  42.926  19.078  10.526
72000W        W41881  21.157  30.988   3.147
72001W        W41882   3.832  29.148  10.010
72002W        W41883  32.627  22.076  13.485
72003W        W41884  26.016  11.226  10.626
72004W        W41885  37.541  32.085   2.815
72005W        W41886  24.542  44.926   3.856
72006W        W41887  38.394  25.616  14.369
72007W        W41888  41.879  26.143   1.280
72008W        W41889  23.508  42.408   2.245
72009W        W41890  28.042   7.744  11.581
72010W        W41891  43.426  36.971  14.782
72011W        W41892  21.733  33.998   3.662
72012W        W41893  19.750  21.572  11.974
72013W        W41894  38.897  25.118  12.884
72014W        W41895  17.129  40.965   0.904
72015W        W41896  14.676  25.002  14.931
72016W        W41897  13.236  28.115   4.171
72017W        W41898  19.263   4.379  14.314
72018W        W41899   2.458  10.751  12.447
72019W        W41900  35.028  22.062  12.528
72020W        W41901  22.239  26.528  13.856
72021W        W41902  29.043  38.453  13.410
72022W        W41903   5.325   9.330  13.379
72023W        W41904   0.478   4.385   4.308
72024W        W41905  38.867  10.144  12.413
72025W        W41906   5.857   9.753  10.600
72026W        W41907  37.553  35.388  12.072
72027W        W41908  32.488  41.972   0.282
72028W        W41909  23.091  27.185   4.354
72029W        W41910  12.318  34.058   4.177
72030W        W41911  13.200  32.059   4.292
72031W        W41912  31.043  32.016   5.277
72032W        W41913  44.425  15.748   3.761
72033W        W41914  40.959   7.182   3.717
72034W        W41915  15.195  30.917  13.004
72035W        W41916   1.814  16.275  13.056
72036W        W41917   9.777  23.047   4.347
72037W        W41918  19.663  40.496   0.770
72038W        W41919  15.140  21.061  13.027
72039W        W41920  11.769   6.744   2.832
72040W        W41921   6.266  11.766  11.610
72041W        W41922  41.521   3.799   3.367
72042W        W41923   7.837  30.622   3.727
72043W        W41924  29.067  26.181  10.622
72044W        W41925  31.574  37.464  12.407
72045W        W41926  30.065  15.763  11.402
72046W        W41927  21.163  23.645  13.865
72047W        W41928  12.784  26.006   3.735
72048W        W41929  11.183  10.800  12.371
72049W        W41930  11.863  37.973   1.273
72050W        W41931  43.932  19.225   4.263
72051W        W41932  44.762  39.863   1.922
72052W        W41933  33.501  34.383   2.706
72053W        W41934  38.439  28.454  11.867
72054W        W41935  29.553  18.083  10.584
72055W        W41936  10.697   7.228  14.373
72056W        W41937  34.025  23.131  11.451
72057W        W41938  27.491   5.344   4.835
72058W        W41939  41.364  36.032  13.386
72059W        W41940   2.437  44.754   0.368
72060W        W41941  33.077  22.736  13.498
72061W        W41942  27.079  28.461   4.217
72062W        W41943  36.032  17.620   2.805
72063W        W41944  23.693  43.469  13.374
72064W        W41945  28.976  39.543   3.191
72065W        W41946  31.542  36.957  10.424
72066W        W41947   0.770  12.119  11.048
72067W        W41948   4.924  17.794  14.844
72068W        W41949  39.379  38.479  10.969
72069W        W41950  11.173  29.636   2.901
72070W        W41951   6.729  17.800   0.324
72071W        W41952  42.811  25.132  11.939
72072W        W41953  38.960   6.393   1.779
72073W        W41954  24.155  21.091   1.423
72074W        W41955  26.669   7.816   0.366
72075W        W41956  31.559  30.653  11.862
72076W        W41957  29.628  18.559  11.374
72077W        W41958  15.748  42.305   4.312
72078W        W41959  42.409  21.552   4.324
72079W        W41960  43.883  12.809  10.591
72080W        W41961  11.683  28.109   5.130
72081W        W41962  21.224  40.445   0.815
72082W        W41963  34.934  31.557   2.211
72083W        W41964  14.132  25.608  13.363
72084W        W41965  18.612  27.986   9.590
72085W        W41966  10.673  44.873   4.331
72086W        W41967  19.688  17.585   4.190
72087W        W41968  24.131  42.862   9.940
72088W        W41969   8.820  30.031   0.919
72089W        W41970  19.607  39.927   3.175
72090W        W41971  10.815  29.435   0.903
72091W        W41972  34.866  42.854  10.948
72092W        W41973   5.344  10.708   0.473
72093W        W41974   3.311  23.139   0.868
72094W        W41975   7.871   6.818  12.900
72095W        W41976  15.700  31.040  14.908
72096W        W41977  24.087  14.824  11.010
72097W        W41978   7.861  43.920  14.338
72098W        W41979  30.552  42.429  14.355
72099W        W41980  27.058  24.125  12.502
72100W        W41981  33.895  42.797   1.237
72101W        W41982   6.286   2.810   1.255
72102W        W41983  28.582  11.810  11.608
72103W        W41984  28.162  13.840   3.373
72104W        W41985  28.122  25.098  14.023
72105W        W41986  11.831  14.132   0.451
72106W        W41987  40.376   1.273  10.516
72107W        W41988  44.390  32.473   1.713
72108W        W41989  31.979  43.844   2.365
72109W        W41990  39.833   0.773  13.901
72110W        W41991  34.906  23.630  11.445
72111W        W41992  39.971  18.059   3.332
72112W        W41993  15.804  13.712   3.658
72113W        W41994   3.935  13.697   3.263
72114W        W41995  37.079  39.528  12.395
72115W        W41996   9.682   3.228   0.742
72116W        W41997   3.305  32.549  14.815
72117W        W41998  43.296  42.976   4.272
72118W        W41999   2.328   1.953   4.700
72119W        W42000  21.209  33.449   4.711
72120W        W42001   8.357  21.585  10.470
72121W        W42002   9.350   3.378  14.019
72122W        W42003   9.387  21.619   1.265
72123W        W42004  25.624  35.503   3.164
72124W        W42005  13.605  13.710  11.859
72125W        W42006  28.141  40.986  11.403
72126W        W42007   3.412  33.590   0.803
72127W        W42008  35.873  31.475   1.700
72128W        W42009   6.683  30.158  12.555
72129W        W42010   1.424  24.549  10.988
72130W        W42011  37.004   5.826   0.432
72131W        W42012  30.590  22.601   2.245
72132W        W42013  30.143  24.132   2.854
72133W        W42014  40.852  32.098  11.072
72134W        W42015  37.994  41.958   4.796
72135W        W42016  31.080  17.160  11.005
72136W        W42017  22.706  37.439   0.941
72137W        W42018  10.680  12.278  11.559
72138W        W42019  32.531  24.686   1.748
72139W        W42020   4.444   6.227   3.681
72140W        W42021   4.331  32.526  13.414
72141W        W42022  17.292  42.334   0.299
72142W        W42023  32.944  40.928   3.635
72143W        W42024   4.323   4.706  11.069
72144W        W42025   5.809  29.056  12.380
72145W        W42026   4.239   9.153  14.845
72146W        W42027  28.442   5.734  14.000
72147W        W42028  20.242  22.527   3.344
72148W        W42029  10.732  25.565  12.973
72149W        W42030  35.961   9.804  14.796
72150W        W42031  39.364  11.623   0.821
72151W        W42032  11.367  38.521   0.375
72152W        W42033  18.119  16.264   4.256
72153W        W42034   9.819  42.937  12.476
72154W        W42035  30.575   4.859   5.208
72155W        W42036   3.880  25.122  13.529
72156W        W42037  19.575  16.674   2.419
72157W        W42038  16.783  31.966  14.968
72158W        W42039  10.714   5.923   2.783
72159W        W42040  30.024  40.823   0.964
72160W        W42041  40.921  16.285   2.252
72161W        W42042  18.566  13.820  13.527
72162W        W42043  15.685  26.142  12.943
72163W        W42044  37.004  25.613  14.482
72164W        W42045  13.799  30.987  10.555
72165W        W42046  35.430  14.665   0.420
72166W        W42047  26.553   9.192   2.863
72167W        W42048  31.111  26.606   0.821
72168W        W42049  12.783  15.236  12.016
72169W        W42050  20.731  30.084   4.322
72170W        W42051  34.954  16.625  10.426
72171W        W42052  10.204  28.587   1.814
72172W        W42053   9.871  35.050  12.358
72173W        W42054  15.141  21.747   3.216
72174W        W42055  36.380   3.861  13.433
72175W        W42056   2.466  31.978   3.357
72176W        W42057  19.154   8.779   2.224
72177W        W42058  28.063   9.171  14.422
72178W        W42059   7.355  44.002   0.835
72179W        W42060  13.731  11.802  10.618
72180W        W42061   4.795  10.277   3.732
72181W        W42062  15.158  41.529  10.412
72182W        W42063  37.386   2.937  14.898
72183W        W42064  34.459   3.333  12.826
72184W        W42065  33.493  38.491   4.663
72185W        W42066   3.790  34.976   0.392
72186W        W42067  17.062  33.460  14.861
72187W        W42068  32.896  25.669   3.197
72188W        W42069  14.197  34.594  14.398
72189W        W42070  26.164  29.555   1.839
72190W        W42071  13.251   9.295   3.823
72191W        W42072  41.813  11.355   3.761
72192W        W42073  42.955  32.517   1.910
72193W        W42074  42.883  39.406   1.376
72194W        W42075  30.056  32.553   0.785
72195W        W42076  42.953  36.058  14.896
72196W        W42077   7.911  10.220  14.433
72197W        W42078  18.596  41.961  13.045
72198W        W42079  29.563  21.198   3.709
72199W        W42080  28.534  34.988   0.777
72200W        W42081  18.166  12.216   3.793
72201W        W42082  20.571  21.201   1.763
72202W        W42083  15.304  13.647   0.461
72203W        W42084  36.964  34.417   2.837
72204W        W42085   7.767   0.335   1.872
72205W        W42086  23.681  26.459  12.943
72206W        W42087   8.871   1.770  14.369
72207W        W42088  11.341  30.044  11.091
72208W        W42089  21.161  27.543   3.377
72209W        W42090  26.171  36.890  14.367
72210W        W42091   0.473   0.366   4.298
72211W        W42092  44.282  31.478   3.260
72212W        W42093  41.507  14.143   1.337
72213W        W42094  40.989   2.460   0.733
72214W        W42095  28.462  10.717  13.311
72215W        W42096   3.275  12.278   4.187
72216W        W42097   9.237   4.746   1.882
72217W        W42098  30.918  38.434   4.808
72218W        W42099   5.701  36.844  12.351
72219W        W42100  20.131  15.303   0.467
72220W        W42101  34.435   2.832  11.437
72221W        W42102   1.955   3.773  14.426
72222W        W42103  42.985  33.509   1.829
72223W        W42104  40.039  32.932   4.720
72224W        W42105  33.440  27.627   2.882
72225W        W42106  33.578  13.298  12.389
72226W        W42107  37.077  36.921   2.709
72227W        W42108  33.597  17.291  12.400
72228W        W42109   7.870  18.160   3.377
72229W        W42110  34.383   7.806  13.509
72230W        W42111  14.264  35.905  12.920
72231W        W42112  10.729  22.660  12.878
72232W        W42113  14.324  23.682   1.833
72233W        W42114  42.818   6.793   1.694
72234W        W42115  29.505  37.493  13.492
72235W        W42116  18.739  28.484   0.479
72236W        W42117  41.938   2.832   2.778
72237W        W42118  43.838  14.095   3.263
72238W        W42119  31.476  43.402   3.742
72239W        W42120  20.218  32.103  14.487
72240W        W42121  25.969   6.201   3.198
72241W        W42122   5.437  10.337   0.452
72242W        W42123  19.059   8.209  12.017
72243W        W42124  35.412  26.650  11.917
72244W        W42125  15.742  27.659  11.444
72245W        W42126   2.253  35.951  11.553
72246W        W42127  15.682  41.507  11.011
72247W        W42128  10.710  20.149   4.749
72248W        W42129  13.262  18.295   5.179
72249W        W42130  10.758   7.365  13.873
72250W        W42131  35.364  16.145   2.331
72251W        W42132  34.077  26.995   2.410
72252W        W42133  26.058   5.763   0.425
72253W        W42134   8.672  36.959  14.403
72254W        W42135  12.126   4.253   4.183
72255W        W42136  18.151  24.025   0.894
72256W        W42137  14.699  36.014   0.348
72257W        W42138   4.275  18.775   3.349
72258W        W42139  39.357  28.440  13.938
72259W        W42140  17.675  27.476   2.827
72260W        W42141  30.145  41.356  13.820
72261W        W42142  24.163  11.256   3.303
72262W        W42143  35.558   0.959   4.166
72263W        W42144   7.753  44.360   2.697
72264W        W42145   4.237  16.753  14.410
72265W        W42146  20.102  27.994   2.675
72266W        W42147  11.837   0.298  10.153
72267W        W42148   4.798   9.662   1.915
72268W        W42149   1.295  30.007   4.618
72269W        W42150  44.945   3.920   3.341
72270W        W42151  15.270   4.885   3.346
72271W        W42152   1.834  13.350   1.743
72272W        W42153  14.667  42.418   2.243
72273W        W42154  44.355  44.985  14.428
72274W        W42155  17.800  19.767   2.248
72275W        W42156  35.489  23.070  10.600
72276W        W42157  36.918  36.923   4.827
72277W        W42158  14.106  18.261  13.336
72278W        W42159  13.773   4.914   0.450
72279W        W42160  28.101  30.553  11.398
72280W        W42161  44.967  35.987   4.318
72281W        W42162   3.739  19.192   3.324
72282W        W42163  27.552   1.354   2.757
72283W        W42164  31.088  25.525  14.864
72284W        W42165  11.291  16.314  10.085
72285W        W42166   3.417  28.520  13.947
72286W        W42167  11.236  17.246   5.259
72287W        W42168  23.070  39.473   3.168
72288W        W42169  29.555   9.859  11.871
72289W        W42170  36.006   9.668   3.697
72290W        W42171   6.810  29.624   1.817
72291W        W42172  34.450  34.875  14.809
72292W        W42173  13.125  18.135  10.498
72293W        W42174  14.104  35.567  12.517
72294W        W42175  14.694  39.451   2.686
72295W        W42176   9.870  36.996  11.613
72296W        W42177   8.168  35.937  14.400
72297W        W42178  14.756  21.147  11.106
72298W        W42179  22.539  44.977   1.354
72299W        W42180   4.706  30.475  11.486
72300W        W42181  28.545  12.714   3.860
72301W        W42182   0.923   5.203   4.237
72302W        W42183  27.949  13.221  11.543
72303W        W42184   9.377   9.268  11.861
72304W        W42185  30.438  19.247   3.283
72305W        W42186  15.657  25.166  14.958
72306W        W42187   3.914  37.947   2.251
72307W        W42188  14.314  32.136  14.865
72308W        W42189  41.984  44.357  11.948
72309W        W42190  18.188  38.827  13.529
72310W        W42191  12.663  21.059   3.663
72311W        W42192  13.223   0.490  10.999
72312W        W42193  39.023  22.515  14.896
72313W        W42194   2.830  30.496  13.851
72314W        W42195  34.515  14.336  11.383
72315W        W42196  27.033  38.881   0.462
72316W        W42197  12.699   4.369  13.422
72317W        W42198  35.074  38.852  10.581
72318W        W42199   3.934  15.720   4.189
72319W        W42200  17.597   7.279  13.952
72320W        W42201  23.577  20.145  12.569
72321W        W42202  35.025  13.688  14.768
72322W        W42203  18.550  37.075  10.951
72323W        W42204  42.015  32.476  12.956
72324W        W42205  13.295  22.605  10.639
72325W        W42206  31.539  37.477   2.875
72326W        W42207  26.512  33.119   9.999
72327W        W42208   6.284  36.846  11.974
72328W        W42209   2.341  10.719   4.167
72329W        W42210   6.840   4.251  13.831
72330W        W42211  35.382  13.279  13.471
72331W        W42212  24.651  18.683  13.958
72332W        W42213  39.491  37.575   0.417
72333W        W42214  30.939  29.531  13.513
72334W        W42215  16.661  37.467   2.211
72335W        W42216  19.679   9.882  13.938
72336W        W42217  35.519  25.055   2.205
72337W        W42218   0.348  17.170  13.309
72338W        W42219  28.446   2.462  13.061
72339W        W42220   2.836  16.252   1.820
72340W        W42221  44.007   9.383  11.981
72341W        W42222  15.605  22.229   0.459
72342W        W42223   2.288  15.797   2.835
72343W        W42224  26.667  38.996   5.122
72344W        W42225  37.387  10.373  12.946
72345W        W42226   6.889  32.547  11.427
72346W        W42227  44.415  41.864  13.057
72347W        W42228  23.657   3.760   3.669
72348W        W42229  10.747  13.716  14.972
72349W        W42230  12.357  27.682  12.035
72350W        W42231   4.254  33.052  14.786
72351W        W42232  40.475  27.183  12.477
72352W        W42233  40.963   9.651   4.254
72353W        W42234  14.655  41.378   0.753
72354W        W42235  40.979  26.029   4.316
72355W        W42236  42.493  10.167  13.842
72356W        W42237  35.977  44.978   2.288
72357W        W42238  33.967   0.474  14.422
72358W        W42239  29.107  12.131  13.947
72359W        W42240  29.570  24.182  14.940
72360W        W42241  18.060   0.433  12.961
72361W        W42242  29.931  20.225   0.775
72362W        W42243  39.911  38.880  11.473
72363W        W42244  21.199  25.975  13.060
72364W        W42245  42.005  22.743   0.932
72365W        W42246  15.226  44.414  12.361
72366W        W42247  16.283  21.611  14.820
72367W        W42248  16.317  29.167  11.556
72368W        W42249  44.942  26.509  13.918
72369W        W42250  27.017  22.114   0.390
72370W        W42251   6.331  25.167  12.050
72371W        W42252  37.435   1.859  13.528
72372W        W42253   7.794  17.258   3.867
72373W        W42254  12.258  27.006   4.805
72374W        W42255  38.992  12.779  13.400
72375W        W42256  30.921  23.155   2.678
72376W        W42257  39.328  22.514   1.828
72377W        W42258   9.757  35.027  11.890
72378W        W42259  35.588  37.980  11.960
72379W        W42260  32.940  20.584   2.340
72380W        W42261   5.269  29.105   3.759
72381W        W42262  38.052  12.125   3.191
72382W        W42263  19.105  27.978  12.563
72383W        W42264  17.572  29.075  11.863
72384W        W42265  23.650  19.660  14.795
72385W        W42266  20.618  24.571   2.291
72386W        W42267  39.493  14.321   3.280
72387W        W42268   9.231   9.336  11.065
72388W        W42269  28.465  21.060  11.091
72389W        W42270  19.132   8.669  11.111
72390W        W42271  31.058   0.761   3.674
72391W        W42272  44.434  14.121  13.457
72392W        W42273  28.600   7.268  14.840
72393W        W42274   5.862  15.162  14.827
72394W        W42275  42.457  31.454  11.508
72395W        W42276  32.614  23.110   2.187
72396W        W42277  33.054  23.101  14.378
72397W        W42278  22.717  12.238  12.003
72398W        W42279   8.769  41.882  13.485
72399W        W42280  39.884   8.189   3.232
72400W        W42281  29.131  25.681  12.565
72401W        W42282  14.231   1.943   4.732
72402W        W42283  36.940  19.759   2.856
72403W        W42284   2.414   9.878  11.591
72404W        W42285   4.245  36.436   3.197
72405W        W42286  23.236  19.594  10.084
72406W        W42287  11.306  14.601   4.268
72407W        W42288   5.839  11.644   3.737
72408W        W42289  37.388  23.732   4.656
72409W        W42290  41.988  37.550   5.146
72410W        W42291  23.150  11.161   1.238
72411W        W42292   2.327  35.476   3.362
72412W        W42293  28.465  21.217   4.624
72413W        W42294  42.812   0.859   4.338
72414W        W42295  20.170   8.192  12.086
72415W        W42296   4.345  26.679  12.846
72416W        W42297  21.192   4.344  12.395
72417W        W42298  19.081  36.027   0.955
72418W        W42299  22.691  35.452   0.459
72419W        W42300  26.093  15.311  11.398
72420W        W42301  19.588  42.015   3.179
72421W        W42302  14.690  35.520  12.838
72422W        W42303  18.573   5.279  13.413
72423W        W42304  34.066  23.033   0.366
72424W        W42305  38.959  22.213  14.380
72425W        W42306  20.676  21.634   0.462
72426W        W42307  19.767  28.571  14.471
72427W        W42308  27.965  40.304   1.424
72428W        W42309  38.975   1.424   2.719
72429W        W42310  16.623  29.591  14.954
72430W        W42311  34.077   8.659  11.451
72431W        W42312  40.396  14.642  11.402
72432W        W42313  23.580  44.341  13.870
72433W        W42314  42.296  35.525   2.685
72434W        W42315  19.272  11.307  11.473
72435W        W42316  27.675   8.832   3.162
72436W        W42317   2.319  25.007  14.479
72437W        W42318  43.844   0.799   1.306
72438W        W42319  23.203  41.029   1.272
72439W        W42320  42.342  42.806  14.479
72440W        W42321  29.147  41.952   2.366
72441W        W42322  23.608  37.437   2.869
72442W        W42323  34.910   2.859   4.349
72443W        W42324  17.139   1.831  12.009
72444W        W42325  39.883  25.037   2.749
72445W        W42326  16.210  33.973   3.210
72446W        W42327  38.921  37.075   1.365
72447W        W42328  42.514  39.420  11.442
72448W        W42329  34.375  12.843   4.729
72449W        W42330  40.443  18.135  12.083
72450W        W42331  34.602   5.418  13.016
72451W        W42332  38.051  36.940  10.628
72452W        W42333  14.271  42.846  14.921
72453W        W42334   2.831   7.910  10.511
72454W        W42335   3.336  16.614  13.384
72455W        W42336  23.587  11.238  13.997
72456W        W42337  12.699  35.382   1.233
72457W        W42338   0.395  41.498   2.669
72458W        W42339  27.446   4.737   0.905
72459W        W42340  31.583  16.146  14.482
72460W        W42341  25.472  35.895  10.890
72461W        W42342   0.315  21.078   4.223
72462W        W42343  11.853  14.610   2.797
72463W        W42344  14.330  33.881   3.255
72464W        W42345  35.002  43.021  10.414
72465W        W42346  18.655   1.321  14.975
72466W        W42347  22.224  35.864  10.485
72467W        W42348  28.559  30.087   1.210
72468W        W42349   1.903   9.235   1.919
72469W        W42350   9.225  32.434  12.514
72470W        W42351   1.455  17.641  10.574
72471W        W42352  32.496  32.543  13.843
72472W        W42353  40.947   2.758   0.341
72473W        W42354  14.656  33.062  11.056
72474W        W42355  30.649  26.647   3.725
72475W        W42356  28.550   8.171   3.207
72476W        W42357  33.432  31.535   0.289
72477W        W42358   5.209  25.692  13.798
72478W        W42359  43.378  15.083   2.336
72479W        W42360  19.707  43.833  14.784
72480W        W42361  15.793  21.072  13.809
72481W        W42362  13.343  31.958  11.073
72482W        W42363  38.844  39.855  14.911
72483W        W42364  35.879  27.069  10.601
72484W        W42365  22.665  41.360  12.416
72485W        W42366  32.006   3.726   1.803
72486W        W42367  33.964  27.479  11.921
72487W        W42368   9.390  21.228  14.835
72488W        W42369  23.491   7.825   3.175
72489W        W42370  25.561  41.386   0.463
72490W        W42371  36.568   4.374   1.763
72491W        W42372  38.996   1.813   1.299
72492W        W42373  20.696   1.875   4.300
72493W        W42374  23.985  24.510  14.896
72494W        W42375  26.988  37.872   4.817
72495W        W42376  33.994  21.739  10.906
72496W        W42377  25.026  30.591   2.239
72497W        W42378  16.790  32.936   2.677
72498W        W42379  31.629   7.772  12.070
72499W        W42380  42.920  13.827  10.975
72500W        W42381   4.397  12.205  14.809
72501W        W42382  11.828  43.306   0.966
72502W        W42383  29.493  26.489  12.920
72503W        W42384  16.138  15.741   4.785
72504W        W42385  13.618   3.283  10.894
72505W        W42386  29.570  41.025   2.326
72506W        W42387   0.410  37.943   0.776
72507W        W42388  39.022  43.365   0.831
72508W        W42389   2.934  16.688  12.414
72509W        W42390  43.833  32.415  14.303
72510W        W42391  33.116  31.487  13.892
72511W        W42392  24.196  27.497  14.992
72512W        W42393  39.037  15.128   4.749
72513W        W42394  31.482  33.928   4.194
72514W        W42395  10.267  34.534  14.395
72515W        W42396  44.483  42.452  11.033
72516W        W42397  44.985  43.917  11.468
72517W        W42398  18.601  12.251  13.862
72518W        W42399  26.178  32.014  13.903
72519W        W42400  28.140  15.195  10.553
72520W        W42401  26.049   4.420   4.245
72521W        W42402  27.644   7.680   0.294
72522W        W42403  24.610  13.704   0.301
72523W        W42404  29.502  32.414   2.776
72524W        W42405   0.488  37.849  10.453
72525W        W42406  37.931  16.194  14.803
72526W        W42407  20.645  38.389  12.056
72527W        W42408  35.893  40.353  12.054
72528W        W42409  31.147  22.122   3.175
72529W        W42410  24.576   1.774  11.380
72530W        W42411  44.300  43.384   4.800
72531W        W42412  39.842   3.753   1.706
72532W        W42413  37.061  25.980  12.532
72533W        W42414  19.150  22.626  14.942
72534W        W42415   5.412   4.364  11.586
72535W        W42416  18.058  40.028  14.965
72536W        W42417   7.340  16.632  14.834
72537W        W42418   0.310  20.585   1.213
72538W        W42419   4.236  24.180   1.856
72539W        W42420  30.927  16.759  11.979
72540W        W42421  19.693  32.567   2.810
72541W        W42422  25.126   3.827   2.204
72542W        W42423   1.784   4.919   4.755
72543W        W42424   3.374  21.575   2.350
72544W        W42425  38.020  23.503  11.483
72545W        W42426  29.049  36.456  11.524
72546W        W42427   5.421  33.948  11.490
72547W        W42428  42.834  40.501   2.723
72548W        W42429  20.561  32.417  13.360
72549W        W42430   0.822  28.020  11.391
72550W        W42431  12.153  40.435  11.910
72551W        W42432   5.701  18.764   3.223
72552W        W42433  41.391  25.645  10.622
72553W        W42434  18.223  22.531   3.837
72554W        W42435   5.277  14.146   2.389
72555W        W42436  10.845  20.575   4.792
72556W        W42437  43.419  27.176   4.354
72557W        W42438  24.559  31.126   2.796
72558W        W42439  22.036  22.595   4.782
72559W        W42440   7.276  28.670  14.924
72560W        W42441  21.614  41.471   4.637
72561W        W42442  15.638  41.458  13.958
72562W        W42443  40.810  21.552  11.941
72563W        W42444  42.406  21.056  14.345
72564W        W42445  19.555  25.999  11.864
72565W        W42446  32.995  13.204  10.525
72566W        W42447  22.535   4.754   1.254
72567W        W42448  34.098  25.475  12.972
72568W        W42449  23.029  22.016  10.479
72569W        W42450   3.428  12.119  14.479
72570W        W42451  40.859  19.226   0.447
72571W        W42452  25.217   5.771  11.045
72572W        W42453  18.591  40.866   2.359
72573W        W42454  43.483  34.958  14.003
72574W        W42455   8.220  22.035   3.849
72575W        W42456  20.181  29.441   1.278
72576W        W42457  36.349  16.142   2.829
72577W        W42458  13.156   5.327   1.800
72578W        W42459  17.104   7.267   5.177
72579W        W42460  32.934   2.875   4.651
72580W        W42461   7.175   3.827   0.324
72581W        W42462  44.475  19.647  14.988
72582W        W42463  42.957  26.513   2.265
72583W        W42464  21.133  33.624  14.328
72584W        W42465  28.963  44.488   0.435
72585W        W42466   6.336   7.842  13.813
72586W        W42467  31.932  41.478   4.673
72587W        W42468   7.200  23.028   3.347
72588W        W42469   1.439  24.984   4.285
72589W        W42470  23.065  33.028  10.539
72590W        W42471  18.158  16.654   1.930
72591W        W42472  36.499   5.741   1.316
72592W        W42473  23.687  21.611  14.803
72593W        W42474   7.213  44.773  11.588
72594W        W42475   2.783  12.276   1.279
72595W        W42476  44.782  15.118  14.802
72596W        W42477   4.229  27.114  14.948
72597W        W42478  43.959  40.344   2.216
72598W        W42479  29.529  34.947   5.276
72599W        W42480   8.800  18.115   2.327
72600W        W42481  14.598  16.168  11.563
72601W        W42482  30.499   8.871   2.238
72602W        W42483   1.964  34.608   0.857
72603W        W42484  27.512   2.898  13.954
72604W        W42485  37.989  43.490   4.178
72605W        W42486  33.019  13.148   2.886
72606W        W42487  13.145   5.853  12.002
72607W        W42488  32.945   3.915   1.768
72608W        W42489  33.539   3.836   2.357
72609W        W42490  33.395  40.385   0.393
72610W        W42491  20.597  17.133   2.776
72611W        W42492  24.478  13.639   1.442
72612W        W42493  41.975  31.473  14.999
72613W        W42494  19.759  12.779   1.772
72614W        W42495  31.511  10.697  12.531
72615W        W42496  37.436  32.071  13.805
72616W        W42497   7.768  37.548  12.823
72617W        W42498  15.602  36.083  12.493
72618W        W42499  29.111  38.958  14.446
72619W        W42500  32.450  37.884  13.538
72620W        W42501  28.019  10.752  13.930
72621W        W42502  28.136  21.751   2.847
72622W        W42503   5.932  36.092  14.022
72623W        W42504  44.858  39.527   2.870
72624W        W42505  19.580  29.118  13.880
72625W        W42506  17.755  41.524  13.985
72626W        W42507  24.103  41.935  10.444
72627W        W42508  37.888  30.497  10.630
72628W        W42509  40.990  39.902  10.422
72629W        W42510  27.976   9.659  13.893
72630W        W42511  21.157  40.502  13.355
72631W        W42512   0.421  31.120  14.388
72632W        W42513  40.809  13.246  13.820
72633W        W42514  14.777  26.613  14.897
72634W        W42515  10.739   7.249   1.935
72635W        W42516  27.946  31.104  14.319
72636W        W42517   7.794   7.832   2.788
72637W        W42518  11.130  30.501   0.332
72638W        W42519  17.700  15.259   1.422
72639W        W42520  20.271  34.897   4.680
72640W        W42521  26.652  14.163   1.891
72641W        W42522  44.835   7.245   1.374
72642W        W42523  25.067  24.113  12.534
72643W        W42524  13.710  34.392   0.941
72644W        W42525  43.360  24.690   4.617
72645W        W42526  12.127  42.875   1.876
72646W        W42527  42.422  12.247  11.926
72647W        W42528  38.450  21.105   0.405
72648W        W42529  41.523  20.033   2.855
72649W        W42530   1.767   7.286   1.409
72650W        W42531   7.249  19.734   2.698
72651W        W42532  22.040  15.777   4.697
72652W        W42533  40.438   9.806   2.359
72653W        W42534  22.158  18.286   0.953
72654W        W42535   9.837  12.227  13.514
72655W        W42536  25.489  44.006   2.879
72656W        W42537  41.385  11.793   1.278
72657W        W42538  40.347  33.102   0.908
72658W        W42539  29.482  17.268   2.783
72659W        W42540   2.815  21.668  11.434
72660W        W42541  27.053  43.829  11.949
72661W        W42542  19.273  32.104  11.544
72662W        W42543   4.272  10.795  14.823
72663W        W42544  25.627  42.985   0.259
72664W        W42545   8.773   5.208   3.820
72665W        W42546  11.346   4.745  11.465
72666W        W42547  14.288   6.892   4.721
72667W        W42548  29.942  24.600   4.632
72668W        W42549   1.796  12.161  13.891
72669W        W42550  41.866  31.079   2.317
72670W        W42551  14.658   6.886  12.549
72671W        W42552   8.741  14.832  13.437
72672W        W42553  28.602  18.756   3.716
72673W        W42554  21.664  26.622  10.555
72674W        W42555  17.584  23.022  10.462
72675W        W42556  24.065  16.783   0.377
72676W        W42557  10.276  31.936   1.708
72677W        W42558  28.666  26.012   3.664
72678W        W42559  33.046  16.277   1.804
72679W        W42560  41.418  23.582  11.975
72680W        W42561  15.145  30.026  11.933
72681W        W42562   1.875   2.891   2.237
72682W        W42563   8.290  19.602   0.903
72683W        W42564  20.722   6.727  10.888
72684W        W42565  39.365  19.577  11.923
72685W        W42566  37.433  19.073   2.772
72686W        W42567   1.897  31.476  13.058
72687W        W42568  17.617  41.962  11.066
72688W        W42569  24.616  34.991  13.326
72689W        W42570  13.160  32.600  14.838
72690W        W42571  44.870  43.883   1.368
72691W        W42572  12.729   4.296   4.150
72692W        W42573  36.892  22.046  14.793
72693W        W42574  40.040  42.892   4.690
72694W        W42575  13.330   5.740  11.090
72695W        W42576   7.363  35.983  11.476
72696W        W42577  26.082  35.060   4.225
72697W        W42578  41.328  27.680  14.356
72698W        W42579  15.252  33.477  12.385
72699W        W42580   7.738   8.164  12.514
72700W        W42581  10.168  43.507  14.833
72701W        W42582  16.575  40.808  10.435
72702W        W42583  26.062  24.527   1.390
72703W        W42584   3.832  18.103  11.453
72704W        W42585  32.008  23.551  13.791
72705W        W42586   6.279   7.380   0.906
72706W        W42587  29.028  33.542   4.175
72707W        W42588  22.201  41.929  10.897
72708W        W42589  22.715  17.088   1.721
72709W        W42590  22.574  27.976   2.836
72710W        W42591  32.582  28.065   0.300
72711W        W42592  44.359  26.201   2.275
72712W        W42593  31.035   7.717  13.816
72713W        W42594  44.275  24.051   0.338
72714W        W42595  10.177   3.896  13.546
72715W        W42596   1.350  31.528   2.409
72716W        W42597  37.412  18.591  13.345
72717W        W42598  25.485  32.088   0.743
72718W        W42599  32.398  15.713   0.332
72719W        W42600   2.919  39.389  13.342
72720W        W42601  41.445  32.995  14.306
72721W        W42602  35.367   6.848  13.996
72722W        W42603  33.076   5.194  11.066
72723W        W42604   2.233  38.002   0.790
72724W        W42605  39.435  42.484   3.682
72725W        W42606  35.376  23.130  10.932
72726W        W42607  30.467   9.750  13.877
72727W        W42608  40.431   7.697   4.787
72728W        W42609  32.087  22.663   5.142
72729W        W42610   6.752  35.492  12.373
72730W        W42611  28.526  11.659  10.933
72731W        W42612   9.158  34.907   3.354
72732W        W42613   0.863  38.850  10.537
72733W        W42614  37.845  28.622  14.760
72734W        W42615   2.903  20.652   3.312
72735W        W42616   3.406  42.410  10.428
72736W        W42617   0.250   2.954  12.353
72737W        W42618   7.309  14.259  13.408
72738W        W42619  10.726  23.079   1.345
72739W        W42620  10.821  39.878  12.376
72740W        W42621  17.566   9.334   1.726
72741W        W42622  43.836  43.989   0.459
72742W        W42623  29.161  34.873   0.386
72743W        W42624  21.646  27.528  12.915
72744W        W42625   4.426   1.294  14.426
72745W        W42626  32.917  42.791  14.994
72746W        W42627  10.837  20.699   2.697
72747W        W42628  19.649   7.191   0.936
72748W        W42629   0.352  19.638  13.957
72749W        W42630  35.049  38.853   3.752
72750W        W42631  41.914  31.132  13.393
72751W        W42632  30.090  35.404  11.100
72752W        W42633   8.187  43.303   1.256
72753W        W42634   4.225  39.026  10.997
72754W        W42635  29.616  16.586   3.315
72755W        W42636  19.743   1.743  14.887
72756W        W42637  38.883  10.142   3.711
72757W        W42638  33.538  15.721  14.772
72758W        W42639  44.375  42.394  12.359
72759W        W42640   9.315   4.785   0.890
72760W        W42641  19.676  37.833   4.348
72761W        W42642  18.146   3.939   1.793
72762W        W42643  15.717  29.032  14.963
72763W        W42644  31.081  18.065  12.018
72764W        W42645  28.531  44.458  12.509
72765W        W42646  44.351  33.557  13.017
72766W        W42647  16.643  23.227   4.832
72767W        W42648  15.743   3.278  13.411
72768W        W42649  25.000   3.232  14.897
72769W        W42650  24.598  44.481   2.248
72770W        W42651   3.422  21.060  12.995
72771W        W42652  43.338  27.076   1.327
72772W        W42653   9.297  10.868   2.205
72773W        W42654   2.776  20.598  13.532
72774W        W42655  43.780  44.384  12.062
72775W        W42656   2.745  12.837  12.095
72776W        W42657   0.855  22.062   0.899
72777W        W42658  13.823  12.340  14.836
72778W        W42659  43.927  34.977  14.828
72779W        W42660  11.230  27.487  12.352
72780W        W42661  24.630  19.570  13.385
72781W        W42662  24.027  24.010   0.851
72782W        W42663  26.492  39.339   3.307
72783W        W42664  38.041   2.455  11.390
72784W        W42665  27.534   5.438  12.938
72785W        W42666   2.923  42.499   3.850
72786W        W42667  39.478   3.712   0.385
72787W        W42668  13.151  41.957   2.669
72788W        W42669  27.137  13.164  11.458
72789W        W42670  28.657   6.213   3.334
72790W        W42671   1.350  27.979   0.823
72791W        W42672   5.438  36.552   2.756
72792W        W42673  38.368  37.513  13.048
72793W        W42674   3.939  35.885  10.563
72794W        W42675  18.617  25.976   0.905
72795W        W42676  27.171  10.225  12.943
72796W        W42677  38.351   7.347  12.536
72797W        W42678  23.693  18.241   4.808
72798W        W42679  13.815  18.673   3.731
72799W        W42680  16.232  42.428  12.854
72800W        W42681  41.982  12.151   2.279
72801W        W42682   9.697  15.775   2.744
72802W        W42683   1.346   7.352  10.528
72803W        W42684  37.453   1.415   5.149
72804W        W42685  32.975  25.493   4.262
72805W        W42686  36.086  26.017  14.777
72806W        W42687  40.975  12.178   3.665
72807W        W42688  42.343  33.004  11.973
72808W        W42689  10.376   3.864  12.404
72809W        W42690  39.550  14.702   0.462
72810W        W42691  41.305  22.709  14.425
72811W        W42692  25.110  13.817  13.813
72812W        W42693  10.716  19.772  13.894
72813W        W42694  20.224  43.879  13.321
72814W        W42695  12.243  22.021   3.150
72815W        W42696  10.878  17.584   4.223
72816W        W42697   1.450   7.343  11.957
72817W        W42698  24.064  24.139  11.969
72818W        W42699  13.181  33.486  14.392
72819W        W42700  32.598  30.002  12.096
72820W        W42701  37.031  40.861  14.792
72821W        W42702  27.097   5.775   1.900
72822W        W42703   6.352   1.855  14.817
72823W        W42704  31.533  40.843   4.306
72824W        W42705   1.749  10.782  14.412
72825W        W42706   1.311  12.188  11.098
72826W        W42707  43.300   0.393   0.831
72827W        W42708   7.698   8.282   0.791
72828W        W42709   9.262  29.036   5.203
72829W        W42710  37.989  27.519  14.014
72830W        W42711  38.928  28.993  12.513
72831W        W42712  33.511  43.948   0.276
72832W        W42713  39.381   3.331   4.634
72833W        W42714  14.151   7.860   0.262
72834W        W42715   3.742  19.072  11.949
72835W        W42716  12.729  39.906   3.660
72836W        W42717  17.781   8.682   1.363
72837W        W42718  34.872  25.693  11.573
72838W        W42719  20.235   2.725  12.365
72839W        W42720  26.130  41.885   3.812
72840W        W42721  35.877   8.234  12.864
72841W        W42722  27.098  25.527   2.728
72842W        W42723  13.819   0.794   2.323
72843W        W42724  36.916  18.738  11.563
72844W        W42725  36.561   4.259   1.408
72845W        W42726   3.222  39.352  11.039
72846W        W42727  19.555  34.942   2.284
72847W        W42728  11.748  21.020   0.902
72848W        W42729  36.356   1.305  10.458
72849W        W42730  41.969  19.585   4.114
72850W        W42731  36.993   7.231  10.425
72851W        W42732  29.626  19.663  11.605
72852W        W42733  13.194  23.032  10.502
72853W        W42734  18.277  35.096   1.714
72854W        W42735  26.996  13.766  14.794
72855W        W42736  28.048   3.857  10.478
72856W        W42737   3.410  25.542  14.332
72857W        W42738  16.811  15.616   4.673
72858W        W42739  15.817  16.705  14.842
72859W        W42740  23.007   9.882   3.211
72860W        W42741  35.540  38.357  14.417
72861W        W42742  37.573  27.660  14.013
72862W        W42743  13.609  28.522   3.808
72863W        W42744  15.310  31.435  12.063
72864W        W42745   1.457  29.141  12.536
72865W        W42746  33.953  18.081  14.841
72866W        W42747  19.673  15.324   0.904
72867W        W42748   9.214   7.686  12.836
72868W        W42749  11.200  30.569   2.689
72869W        W42750   5.210  21.690  12.507
72870W        W42751  44.808   9.204   3.193
72871W        W42752  14.283  39.530   1.247
72872W        W42753  12.618   7.409   0.899
72873W        W42754  38.527  21.665   0.400
72874W        W42755   7.733  23.159  12.459
72875W        W42756  42.785  37.929  10.952
72876W        W42757  35.367  19.547   2.182
72877W        W42758  17.184  26.649  10.002
72878W        W42759  33.570  41.530   3.793
72879W        W42760  21.072  30.078   0.471
72880W        W42761  28.449  17.649  11.599
72881W        W42762   5.829  23.154   3.233
72882W        W42763  27.479   1.327   0.960
72883W        W42764  32.930  12.216  14.921
72884W        W42765  40.365  21.734  12.061
72885W        W42766  20.697  25.195   3.642
72886W        W42767  40.381  24.625   1.873
72887W        W42768   5.274  34.564   0.750
72888W        W42769   0.844  43.304   1.697
72889W        W42770  28.448  42.464   1.816
72890W        W42771  44.370  21.643  13.320
72891W        W42772  13.232   8.774   2.390
72892W        W42773  23.653  14.696  13.942
72893W        W42774  25.037  33.055  10.458
72894W        W42775  40.326  26.984   4.119
72895W        W42776  33.885  43.969  11.556
72896W        W42777  21.639  43.880  10.067
72897W        W42778  27.608  41.468  10.528
72898W        W42779  18.142  16.740  10.624
72899W        W42780  36.892  32.100   4.617
72900W        W42781  14.237  17.262  13.439
72901W        W42782  21.227  13.196  11.479
72902W        W42783   1.313  44.947   4.655
72903W        W42784  32.892  25.170  13.434
72904W        W42785   7.243   2.324  11.117
72905W        W42786  18.755   2.775   3.830
72906W        W42787  30.422   6.273  13.382
72907W        W42788  39.414   4.206   3.794
72908W        W42789   1.896  18.116  14.885
72909W        W42790  21.744   6.349  13.043
72910W        W42791   1.349   3.873  13.468
72911W        W42792  27.543  13.623   4.310
72912W        W42793  23.086  21.731   4.332
72913W        W42794  33.963  22.598   3.322
72914W        W42795   8.880   4.917  13.510
72915W        W42796   5.924  43.963  11.894
72916W        W42797  23.032  27.190  11.882
72917W        W42798  32.449  37.948   0.263
72918W        W42799  12.280  12.159   4.308
72919W        W42800  16.759  28.595   0.472
72920W        W42801  44.353  25.521  13.518
72921W        W42802  29.047  11.371   4.336
72922W        W42803  23.586  27.102   3.815
72923W        W42804  15.118  20.192   1.715
72924W        W42805  25.683  29.102   2.289
72925W        W42806  30.929   5.911  14.904
72926W        W42807  37.494  41.867   1.879
72927W        W42808  40.052  16.163   1.396
72928W        W42809  32.623   0.334  14.504
72929W        W42810  13.607  41.452   0.435
72930W        W42811  23.128  36.528  11.511
72931W        W42812  17.098  16.229   4.692
72932W        W42813  33.614  35.373  13.367
72933W        W42814  35.475  21.262   4.808
72934W        W42815  24.655   1.814  11.905
72935W        W42816  21.733   7.359   1.743
72936W        W42817  12.619   2.813   0.310
72937W        W42818  23.074  23.048   0.904
72938W        W42819   0.864  39.349   3.302
72939W        W42820  39.974  15.156   0.729
72940W        W42821   0.901  23.676  10.439
72941W        W42822  40.330  27.614  14.943
72942W        W42823  23.001  23.731  10.593
72943W        W42824  16.247   5.221  12.483
72944W        W42825  34.909  23.729   2.902
72945W        W42826  25.021  12.339   1.268
72946W        W42827   3.389   1.270  10.635
72947W        W42828  18.184  11.347  12.002
72948W        W42829  28.636   1.869   2.295
72949W        W42830  21.733  19.686   0.779
72950W        W42831  30.574  38.386  10.905
72951W        W42832   2.393  34.372  11.015
72952W        W42833   9.289  39.043  11.581
72953W        W42834  22.091   3.392   0.466
72954W        W42835  16.262  21.518   0.431
72955W        W42836  35.948  12.361  14.779
72956W        W42837  13.272  37.067   9.562
72957W        W42838  13.802  28.669  14.851
72958W        W42839  33.579  28.579   3.692
72959W        W42840   1.267  41.494  12.407
72960W        W42841   0.468   9.696   4.754
72961W        W42842  41.321  42.484  13.958
72962W        W42843  42.898  19.115   1.438
72963W        W42844  16.154  31.106  11.965
72964W        W42845  23.513  40.865  12.058
72965W        W42846  12.148  38.878  12.450
72966W        W42847  38.344  29.478  13.841
72967W        W42848   8.830  40.010  13.807
72968W        W42849   4.838   5.692  13.434
72969W        W42850  36.399  40.467  13.527
72970W        W42851  19.621   2.899  14.399
72971W        W42852  12.358   4.248  12.090
72972W        W42853  31.148  44.479   3.695
72973W        W42854  20.674  10.268   2.664
72974W        W42855   0.293  43.371   2.896
72975W        W42856  25.004  42.399   0.294
72976W        W42857  10.169  15.274  12.849
72977W        W42858  30.908  31.448  12.536
72978W        W42859  29.605  39.325  14.875
72979W        W42860  35.591  30.614   3.297
72980W        W42861   4.449  29.605   1.849
72981W        W42862  33.478  39.023  13.968
72982W        W42863  41.505   4.277  11.395
72983W        W42864   9.226  37.067   4.808
72984W        W42865  41.490   6.682   2.857
72985W        W42866  38.393  28.941   2.407
72986W        W42867   9.377   1.287   0.737
72987W        W42868  11.358  22.709  11.048
72988W        W42869  42.974  42.971   0.854
72989W        W42870  35.361  28.007  14.299
72990W        W42871   4.337   1.301  13.013
72991W        W42872  41.312  17.235   1.739
72992W        W42873  20.215   2.944  14.875
72993W        W42874  20.555  24.190  12.023
72994W        W42875   0.849   8.216  13.381
72995W        W42876  19.081  19.605   3.273
72996W        W42877  40.800  11.677  11.939
72997W        W42878  42.964   4.240  11.048
72998W        W42879   7.729  12.715   1.757
72999W        W42880  22.248   3.260   1.749
73000W        W42881  16.313  40.886  14.875
73001W        W42882  33.449  42.445   9.945
73002W        W42883  32.077  34.996  12.468
73003W        W42884   9.292  12.620   4.701
73004W        W42885  15.595  12.278   3.186
73005W        W42886  15.665  38.001   1.340
73006W        W42887  39.506  38.845   4.805
73007W        W42888  30.045   2.364  10.509
73008W        W42889  13.781  39.331  12.540
73009W        W42890  27.628  25.977   0.289
73010W        W42891  32.120  25.141   1.289
73011W        W42892   3.887  37.545   2.327
73012W        W42893  30.605  34.369  12.089
73013W        W42894  36.479  33.511  13.815
73014W        W42895   0.319  32.433   4.831
73015W        W42896  32.115  44.878   1.725
73016W        W42897  38.008  23.123   4.177
73017W        W42898  35.460  13.217  10.999
73018W        W42899  18.115  29.955   3.806
73019W        W42900  20.599  30.506  13.910
73020W        W42901  10.172  21.541  14.865
73021W        W42902   5.699  41.896   3.668
73022W        W42903  15.187  37.084  12.898
73023W        W42904  42.850  28.447   0.841
73024W        W42905  35.104  28.181   1.352
73025W        W42906  29.458  22.548   2.713
73026W        W42907  14.659  27.608  11.023
73027W        W42908  17.737   1.832   2.775
73028W        W42909  21.588  29.998   0.796
73029W        W42910  16.260  31.489   3.295
73030W        W42911  20.092  31.089  10.545
73031W        W42912  11.658  22.030   0.310
73032W        W42913   8.279  33.874  14.795
73033W        W42914  21.207  43.418   3.345
73034W        W42915   4.343  23.202   2.380
73035W        W42916  28.124  23.130   2.183
73036W        W42917  21.724   6.255   4.268
73037W        W42918   7.298  14.795   1.904
73038W        W42919   3.804  26.175  11.983
73039W        W42920   6.880  40.971   3.837
73040W        W42921  10.213   6.304   5.091
73041W        W42922   6.707  19.145   0.912
73042W        W42923  14.263   5.914   1.405
73043W        W42924   3.778  39.979  10.941
73044W        W42925  34.033   7.323   3.794
73045W        W42926  42.979   7.790  12.509
73046W        W42927  40.929   3.332  12.839
73047W        W42928   6.401  21.028   5.151
73048W        W42929   6.733  19.755   3.365
73049W        W42930  44.266   6.779   2.867
73050W        W42931  43.979   7.785  14.910
73051W        W42932   9.334  17.146  11.973
73052W        W42933  31.450  23.630   4.609
73053W        W42934  26.076  44.845  12.849
73054W        W42935  17.230  18.563  12.350
73055W        W42936  30.084  16.227   2.754
73056W        W42937   0.981   8.865   4.756
73057W        W42938  44.331  13.241   0.958
73058W        W42939  25.082  39.386  13.949
73059W        W42940   8.299  15.718  12.445
73060W        W42941  41.471  12.847  14.452
73061W        W42942   0.325  42.881  11.489
73062W        W42943  44.362  10.839   0.917
73063W        W42944  44.990  18.756  10.442
73064W        W42945  26.529  13.772   2.704
73065W        W42946  44.410   8.291   4.171
73066W        W42947  26.008   3.919   1.695
73067W        W42948   9.867  35.574   2.206
73068W        W42949  32.440  38.493  10.523
73069W        W42950  16.660  28.597  12.931
73070W        W42951  10.879  22.521  13.467
73071W        W42952  26.162  38.412   3.306
73072W        W42953   7.680  17.248   5.274
73073W        W42954  36.549  25.981   4.332
73074W        W42955  24.990  12.200   2.698
73075W        W42956  27.015   4.867  13.862
73076W        W42957   4.209  20.129  13.851
73077W        W42958   2.787  40.054   2.787
73078W        W42959  25.471   5.429   1.286
73079W        W42960  18.233  15.121   3.634
73080W        W42961   6.266  39.494  12.038
73081W        W42962  34.082  15.745  11.569
73082W        W42963   5.400  27.097  12.873
73083W        W42964  20.140  20.218   2.778
73084W        W42965  14.614  14.219  10.547
73085W        W42966  38.933   5.206   2.353
73086W        W42967  32.121  22.197   0.352
73087W        W42968  30.991  35.434  14.911
73088W        W42969   3.390   8.678  14.790
73089W        W42970  36.562  10.204  10.495
73090W        W42971  10.347  20.541  14.372
73091W        W42972  12.631  43.410  12.892
73092W        W42973  19.122   9.244  12.840
73093W        W42974  25.159  25.554   4.219
73094W        W42975  43.853   7.879   2.813
73095W        W42976   9.710  39.921  14.434
73096W        W42977  35.360   3.415  12.488
73097W        W42978  13.808  23.561  13.015
73098W        W42979  44.827  20.096  10.586
73099W        W42980  18.194  23.602   0.360
73100W        W42981   6.384  44.474  14.984
73101W        W42982  28.594  26.005   3.334
73102W        W42983   8.399  43.337  11.049
73103W        W42984  23.194  15.257  10.945
73104W        W42985  13.712  28.931   4.119
73105W        W42986  22.125  31.025  11.869
73106W        W42987  41.360  11.621  14.376
73107W        W42988   5.286  28.019  11.103
73108W        W42989  13.162  33.897  12.009
73109W        W42990  24.563  44.972   4.783
73110W        W42991  34.574  43.902  12.458
73111W        W42992  11.667  26.071   0.323
73112W        W42993  26.570  14.123   2.372
73113W        W42994   3.900   2.458   4.119
73114W        W42995  41.323  13.605  13.959
73115W        W42996   2.277  22.240   3.333
73116W        W42997  40.922  25.195  12.868
73117W        W42998  27.611  41.901  14.014
73118W        W42999  31.900   5.778   2.397
73119W        W43000   5.817  22.584  10.910
73120W        W43001  19.205  38.996  12.912
73121W        W43002  21.560  15.714  12.896
73122W        W43003  37.465   4.913  13.318
73123W        W43004  24.117  31.535  12.545
73124W        W43005  35.543   8.667   1.726
73125W        W43006  40.451  12.192   3.200
73126W        W43007  30.430  11.865  10.461
73127W        W43008  36.938   0.362   4.684
73128W        W43009   7.681  35.359  12.494
73129W        W43010  30.518  34.532   2.290
73130W        W43011  41.994   0.488  11.484
73131W        W43012  14.190  34.958  13.364
73132W        W43013  22.611  26.541   0.324
73133W        W43014  16.687  42.427   3.642
73134W        W43015  14.808  39.508   1.720
73135W        W43016  28.964  26.605  12.492
73136W        W43017  14.796  15.640  12.556
73137W        W43018  44.383  11.242  13.894
73138W        W43019  21.711  25.489   2.715
73139W        W43020  41.384  24.540   3.291
73140W        W43021  37.971   0.829   2.840
73141W        W43022   3.825  43.464  12.400
73142W        W43023  13.321  43.454  12.563
73143W        W43024  15.781  21.517   0.318
73144W        W43025   3.861  30.558   3.374
73145W        W43026  11.655  34.958  12.512
73146W        W43027  14.100  36.035   2.744
73147W        W43028   0.396  38.450   4.638
73148W        W43029  42.399   2.848  14.978
73149W        W43030  27.525  40.437  12.920
73150W        W43031  30.487   4.245   1.739
73151W        W43032  36.457  15.240   1.732
73152W        W43033   7.792  29.055  13.945
73153W        W43034  15.212   1.822   3.686
73154W        W43035   1.812  36.844  12.916
73155W        W43036  16.637  25.146  11.511
73156W        W43037   3.336  40.544   2.335
73157W        W43038  24.635  33.068  11.605
73158W        W43039  17.655  44.411   3.815
73159W        W43040  36.987  18.081  13.993
73160W        W43041  41.536  28.005  10.521
73161W        W43042   5.761  28.662  14.497
73162W        W43043  20.221  21.235  10.559
73163W        W43044  17.106  29.549  11.494
73164W        W43045   7.815  12.154  14.012
73165W        W43046  10.701  31.062   3.707
73166W        W43047   6.903   9.801  14.004
73167W        W43048  13.732   2.853  10.998
73168W        W43049  42.876  24.118   5.231
73169W        W43050   3.939  38.505   3.269
73170W        W43051   0.924  12.703  12.425
73171W        W43052  43.795  32.457   1.725
73172W        W43053   6.850   8.725  12.379
73173W        W43054  36.049   1.883   1.451
73174W        W43055  33.415  28.147   4.813
73175W        W43056   1.977  26.476  10.966
73176W        W43057  41.005  26.054   3.811
73177W        W43058  24.627   7.908   3.151
73178W        W43059   1.469  28.513   1.781
73179W        W43060   6.206  43.512   1.239
73180W        W43061  13.652  30.489   2.734
73181W        W43062  28.105  42.791   9.953
73182W        W43063  34.913  19.193  12.972
73183W        W43064   3.247  44.278   5.109
73184W        W43065  30.426   9.849  11.094
73185W        W43066  40.001  11.282   1.868
73186W        W43067  37.083  31.622   3.224
73187W        W43068  43.831   5.406   2.721
73188W        W43069  43.781  15.172  13.392
73189W        W43070  20.605   3.419  11.038
73190W        W43071  11.633  34.510  10.967
73191W        W43072  24.522   2.902   0.435
73192W        W43073  41.372  34.415  11.611
73193W        W43074  18.709  34.579   9.956
73194W        W43075  24.996   4.273  10.629
73195W        W43076  25.208   4.334   3.229
73196W        W43077  33.391   8.808  10.119
73197W        W43078   9.820  21.053  12.927
73198W        W43079  32.624   6.810   3.754
73199W        W43080  36.044  15.277   3.787
73200W        W43081  43.862  29.965  10.484
73201W        W43082   3.886  16.113   4.674
73202W        W43083  33.125  34.465   2.825
73203W        W43084  31.048  32.019  13.968
73204W        W43085  40.509  10.307   3.248
73205W        W43086  18.672   0.335  12.965
73206W        W43087  11.129  22.571  10.551
73207W        W43088  14.650  43.935  12.914
73208W        W43089   3.418  26.534   4.146
73209W        W43090  38.476  26.553  11.588
73210W        W43091  17.115  25.648   4.142
73211W        W43092  25.532  32.089  13.805
73212W        W43093   1.340  14.731  12.524
73213W        W43094  17.130   9.720  10.430
73214W        W43095  40.949  35.543   2.732
73215W        W43096   8.792  21.717   1.748
73216W        W43097  12.242   2.875  10.504
73217W        W43098   4.798  31.067  12.870
73218W        W43099   2.935   1.821   4.127
73219W        W43100  32.075  16.143   1.862
73220W        W43101  12.743  29.141   1.806
73221W        W43102  41.023  29.977  11.466
73222W        W43103  10.206   9.838  14.897
73223W        W43104   6.199   4.266  12.442
73224W        W43105   9.686  12.357   3.717
73225W        W43106  25.163  14.601  14.941
73226W        W43107  16.587   9.719   0.428
73227W        W43108  39.507  21.197   1.401
73228W        W43109  27.598  26.026  11.579
73229W        W43110  19.206  30.435  11.974
73230W        W43111  15.272  41.995   2.355
73231W        W43112  40.872   4.859   3.348
73232W        W43113  23.610  17.070   4.198
73233W        W43114  42.284  13.780   4.351
73234W        W43115   8.377  29.005   1.324
73235W        W43116  42.854  37.060  13.489
73236W        W43117  14.617   2.738   2.848
73237W        W43118   6.696  31.988  10.545
73238W        W43119  31.420  10.827   2.348
73239W        W43120  11.705  31.901   1.792
73240W        W43121  11.625  31.630   9.995
73241W        W43122  14.195  31.464   0.362
73242W        W43123  27.126  43.814   4.227
73243W        W43124  12.787  23.728   2.286
73244W        W43125  17.560  10.152  10.431
73245W        W43126   6.743  12.846   3.796
73246W        W43127  31.146  20.254   1.392
73247W        W43128  21.175  18.728  10.491
73248W        W43129  22.686  21.745   3.649
73249W        W43130  36.875  22.076   2.756
73250W        W43131  28.939  38.073  11.964
73251W        W43132  37.988  21.187  10.467
73252W        W43133  29.590   4.779   0.276
73253W        W43134  40.031   7.365  13.019
73254W        W43135  29.957  24.496  13.462
73255W        W43136  38.385  19.278  14.821
73256W        W43137  40.430  13.133  12.954
73257W        W43138  26.112   9.211   3.174
73258W        W43139  35.391  28.184   3.693
73259W        W43140  34.595   0.266   4.600
73260W        W43141  35.004  23.169   3.319
73261W        W43142  19.140  35.603   3.709
73262W        W43143  29.095  35.010   4.730
73263W        W43144  37.965  38.402   3.684
73264W        W43145  27.550  43.357  10.633
73265W        W43146  42.831  20.161  14.303
73266W        W43147  30.531  16.662   1.729
73267W        W43148  34.452   9.360  14.779
73268W        W43149  29.075   9.806  14.025
73269W        W43150  40.423  40.988  13.511
73270W        W43151  23.066  13.295  13.393
73271W        W43152  37.432  24.999  14.829
73272W        W43153   0.257  37.039   3.182
73273W        W43154  10.176  32.472  13.357
73274W        W43155  42.503  20.161   3.343
73275W        W43156   6.294   6.694  10.518
73276W        W43157   3.763  18.205  11.044
73277W        W43158  11.804  16.797   4.731
73278W        W43159  26.969  44.781   1.402
73279W        W43160  30.016  36.064   4.247
73280W        W43161  43.891  11.213  14.884
73281W        W43162   1.290  18.573   0.832
73282W        W43163  36.394  40.333  11.952
73283W        W43164  22.727  28.547   3.231
73284W        W43165  44.469   1.799  11.014
73285W        W43166  10.875  35.015  14.353
73286W        W43167  23.666  43.507   1.718
73287W        W43168  28.935  28.152  12.078
73288W        W43169   7.836  25.601   3.754
73289W        W43170  16.796   0.378   1.289
73290W        W43171   7.723  38.503  11.015
73291W        W43172  23.547  30.950   0.827
73292W        W43173  37.494  29.476   2.733
73293W        W43174  29.623   5.367  13.547
73294W        W43175  18.690  19.248  10.475
73295W        W43176  26.638  36.521   2.411
73296W        W43177  13.109  34.967   2.731
73297W        W43178  17.686  30.542   1.287
73298W        W43179  19.552  35.064   5.212
73299W        W43180   8.331   2.954  13.939
73300W        W43181   7.389  25.066   0.812
73301W        W43182  12.720  34.966  13.375
73302W        W43183  20.624   1.737   1.276
73303W        W43184  35.988  33.484   2.196
73304W        W43185  39.038  30.549  10.155
73305W        W43186   6.379   0.980   4.206
73306W        W43187  14.681  28.622   3.860
73307W        W43188  43.931   1.415  11.580
73308W        W43189  28.070   7.248   4.736
73309W        W43190   3.413  12.684  14.295
73310W        W43191  27.614  26.660   1.323
73311W        W43192  22.038  44.307   1.844
73312W        W43193  22.548  37.344  10.503
73313W        W43194  15.722  24.586   2.719
73314W        W43195  40.332  32.038   2.809
73315W        W43196   8.700  26.099   0.833
73316W        W43197  30.013  32.987   4.333
73317W        W43198  31.975  37.341   3.779
73318W        W43199  11.327  28.055   4.142
73319W        W43200  34.533  12.811   1.440
73320W        W43201   3.380   8.380   0.873
73321W        W43202  40.532   3.950   0.960
73322W        W43203  25.104  16.577   1.774
73323W        W43204   4.706  37.847   2.350
73324W        W43205  20.053   6.306  11.974
73325W        W43206  11.279  11.253  10.590
73326W        W43207  42.009  33.504   2.344
73327W        W43208   3.310  21.730  11.026
73328W        W43209  12.791  16.168   2.802
73329W        W43210  31.098  40.045   0.331
73330W        W43211  24.525  22.170   3.208
73331W        W43212  27.486  37.559  10.479
73332W        W43213  32.056  32.021   3.263
73333W        W43214  43.436  19.720   2.784
73334W        W43215  36.487  17.133  13.375
73335W        W43216   1.308  41.897   4.196
73336W        W43217   3.296  27.990   3.314
73337W        W43218  15.258  10.798   2.387
73338W        W43219  27.064   0.327   0.959
73339W        W43220  17.591  27.154   0.870
73340W        W43221  22.093  44.870  12.520
73341W        W43222  11.691  37.854  13.351
73342W        W43223  30.617  44.779   0.954
73343W        W43224  44.484  30.972  14.341
73344W        W43225   2.781  32.473   3.305
73345W        W43226  10.726  33.113  14.786
73346W        W43227  37.392  14.799   3.345
73347W        W43228   3.914   3.441   1.370
73348W        W43229  16.579  24.700  12.827
73349W        W43230  28.477   7.890   4.834
73350W        W43231  43.281  12.355   2.180
73351W        W43232  30.153  26.042   1.308
73352W        W43233  25.504  13.639  10.558
73353W        W43234  19.176  28.562   2.902
73354W        W43235  31.058  32.552   1.695
73355W        W43236  12.776  24.063   0.398
73356W        W43237  20.535  41.888   2.898
73357W        W43238  19.586  37.464  13.966
73358W        W43239   8.189  18.087  10.415
73359W        W43240  24.004   4.204   1.312
73360W        W43241  34.511   0.984  10.436
73361W        W43242   9.157  34.893   3.743
73362W        W43243  19.709  22.170  13.918
73363W        W43244   1.826  36.563   1.273
73364W        W43245  28.150  15.673   4.213
73365W        W43246  42.492  41.382  10.420
73366W        W43247  13.800   1.915   0.268
73367W        W43248  42.009  21.019  11.008
73368W        W43249   4.447  18.635   4.674
73369W        W43250  36.371   0.870   4.827
73370W        W43251  31.595  42.486  12.548
73371W        W43252   3.286  43.475  12.958
73372W        W43253   5.726  38.866  13.044
73373W        W43254  14.829  43.886  12.022
73374W        W43255  40.804  24.611  12.528
73375W        W43256  22.109  31.478  12.580
73376W        W43257  18.112  30.609   3.195
73377W        W43258  17.239  44.801   4.830
73378W        W43259   8.671  42.868   0.848
73379W        W43260   6.238  20.621  10.483
73380W        W43261  13.323  31.404  13.338
73381W        W43262  11.632  42.950   5.306
73382W        W43263  29.165   8.839  13.356
73383W        W43264   6.873  18.582  12.465
73384W        W43265   5.722  36.380   1.860
73385W        W43266  23.231   7.289   1.878
73386W        W43267  29.581  28.567   4.305
73387W        W43268  33.959  31.515   3.647
73388W        W43269  18.229  35.599  12.909
73389W        W43270   9.673  39.826   4.802
73390W        W43271  31.588  29.645   0.779
73391W        W43272  11.370  44.950  12.443
73392W        W43273  33.565  28.498   0.348
73393W        W43274  41.848  34.595   0.317
73394W        W43275  32.626  44.445   1.918
73395W        W43276  27.606   9.285   0.358
73396W        W43277  22.218  14.324  13.791
73397W        W43278  22.111  35.104  11.471
73398W        W43279  30.602   5.427  14.432
73399W        W43280  41.956   4.748  13.812
73400W        W43281   8.203  42.380  10.405
73401W        W43282   5.332  22.203  10.596
73402W        W43283  26.664  44.928   2.777
73403W        W43284  35.944  23.097   1.360
73404W        W43285  44.990   1.317   0.841
73405W        W43286  38.010  12.759   2.850
73406W        W43287  17.584  34.466  14.862
73407W        W43288  41.478  43.420   1.379
73408W        W43289  33.060  28.099   3.815
73409W        W43290   1.932  34.933  11.939
73410W        W43291   0.877  12.704   3.728
73411W        W43292  43.407  38.924   4.836
73412W        W43293  44.435  14.669   1.855
73413W        W43294  33.460   3.884  10.427
73414W        W43295  11.728  37.962  11.070
73415W        W43296  43.507  24.709   0.278
73416W        W43297  29.567  15.248  14.314
73417W        W43298  16.576  29.074  12.501
73418W        W43299  34.423  11.800   3.316
73419W        W43300  31.587  41.892  14.774
73420W        W43301  28.087  44.504  12.453
73421W        W43302   7.313   1.955  13.466
73422W        W43303  28.982  38.023  10.539
73423W        W43304   1.337   6.266  12.922
73424W        W43305  32.557  36.549  13.493
73425W        W43306  23.217  12.636  13.339
73426W        W43307  27.078  20.580  11.597
73427W        W43308  36.374  10.205  12.846
73428W        W43309  38.442  41.846   4.306
73429W        W43310   6.195  19.129   2.351
73430W        W43311  32.587  24.002   0.912
73431W        W43312  29.643  24.158   1.267
73432W        W43313  14.194  31.149  12.515
73433W        W43314  35.599  30.137   2.862
73434W        W43315  33.055  41.513  14.938
73435W        W43316  20.057  11.739  10.894
73436W        W43317  21.550   9.209   2.839
73437W        W43318  20.200  43.835  10.137
73438W        W43319   2.928   6.752   3.339
73439W        W43320  40.516  35.551   1.822
73440W        W43321   2.284  15.656  13.965
73441W        W43322  31.089  20.156   2.214
73442W        W43323  43.939  25.029  10.984
73443W        W43324  28.048  14.778   4.811
73444W        W43325  14.215  36.049   3.664
73445W        W43326  10.638  22.040  14.306
73446W        W43327  32.463  21.067   2.894
73447W        W43328  12.755  44.442   5.123
73448W        W43329  41.815  39.956  14.820
73449W        W43330   1.454  44.758  10.610
73450W        W43331  16.145  26.535  12.911
73451W        W43332  12.188  22.229  11.116
73452W        W43333  43.437   5.927   0.844
73453W        W43334  34.990  35.037  11.918
73454W        W43335  29.015  33.939  12.447
73455W        W43336   8.343  11.821   3.325
73456W        W43337  36.394  12.191  11.922
73457W        W43338  22.159  11.287  12.955
73458W        W43339  36.011  34.917  14.941
73459W        W43340   8.295  22.648   2.781
73460W        W43341   9.387  39.046  12.036
73461W        W43342   5.722  20.729   4.241
73462W        W43343  32.546   2.273   2.720
73463W        W43344  15.277  27.604   2.874
73464W        W43345  30.598  42.408  13.346
73465W        W43346   2.407   1.846   4.254
73466W        W43347  12.327  21.667  11.579
73467W        W43348  18.635  38.003  11.952
73468W        W43349  19.183   3.736  11.898
73469W        W43350  29.476   4.343   3.731
73470W        W43351  26.640  13.825  11.396
73471W        W43352  25.072  22.201  12.379
73472W        W43353  25.625  33.564  11.430
73473W        W43354  24.059  40.798  14.418
73474W        W43355  10.242  41.929  12.048
73475W        W43356   3.419   4.780   4.636
73476W        W43357   1.974  38.415  14.427
73477W        W43358  11.321  39.953   4.275
73478W        W43359  40.351  31.552   2.797
73479W        W43360  21.179  40.903   0.438
73480W        W43361  28.499  41.041   2.295
73481W        W43362  11.276  21.174   0.420
73482W        W43363  23.209  42.992   0.470
73483W        W43364  43.988   1.316   4.833
73484W        W43365  26.511  43.968   2.876
73485W        W43366  26.105  14.717   4.627
73486W        W43367  26.102   5.766  14.027
73487W        W43368  14.808  42.466   3.756
73488W        W43369   4.422  12.216   4.157
73489W        W43370  40.799  23.710   1.222
73490W        W43371  20.613  40.323  13.333
73491W        W43372  42.446  22.635   4.713
73492W        W43373  36.391  34.453  14.817
73493W        W43374  20.144  41.850   4.118
73494W        W43375  19.725  24.601  14.462
73495W        W43376  11.797  17.128  14.277
73496W        W43377  38.964   3.440   0.262
73497W        W43378  18.655   7.249   5.179
73498W        W43379   3.325  18.626   2.295
73499W        W43380   6.312  43.452  12.514
73500W        W43381  14.725  32.031   5.137
73501W        W43382  43.387  40.512   1.388
73502W        W43383  29.560   0.874   3.370
73503W        W43384   3.861  37.947  13.355
73504W        W43385  24.717   0.291  12.011
73505W        W43386  23.543   7.368  11.454
73506W        W43387   4.414   1.398   2.400
73507W        W43388  11.629  38.988   2.366
73508W        W43389  40.339  44.814   4.713
73509W        W43390  37.941  10.244  11.864
73510W        W43391   6.699  37.954  13.988
73511W        W43392  42.314  31.418   0.297
73512W        W43393  18.161  20.255   3.298
73513W        W43394  10.770  23.107  10.985
73514W        W43395  16.148  11.824   0.380
73515W        W43396  21.112  29.517  12.888
73516W        W43397  21.244  28.954   4.796
73517W        W43398  11.286  16.738   9.994
73518W        W43399  10.794   2.788  13.461
73519W        W43400  39.456  25.700  10.923
73520W        W43401   6.274  44.411  14.031
73521W        W43402   5.905  42.782   0.411
73522W        W43403  37.837  13.204   1.284
73523W        W43404  24.052  23.008  14.338
73524W        W43405  18.169  20.640  11.528
73525W        W43406  25.687   1.914  11.440
73526W        W43407  38.534   4.917  13.352
73527W        W43408  42.872   4.895   5.164
73528W        W43409   5.401  37.374   4.816
73529W        W43410  22.711  39.531   3.222
73530W        W43411  44.400  24.093   2.858
73531W        W43412  21.220  21.098   0.426
73532W        W43413   4.271   5.707   1.846
73533W        W43414  41.341   1.924   4.756
73534W        W43415  32.490  35.561   4.200
73535W        W43416   2.801  37.422  11.990
73536W        W43417  30.492   6.871   2.872
73537W        W43418  16.311  31.078   4.670
73538W        W43419  32.624   3.323   1.912
73539W        W43420  39.409  16.711  11.975
73540W        W43421  38.462  12.168  12.964
73541W        W43422  30.956  28.485  12.401
73542W        W43423  42.418   3.394   0.816
73543W        W43424   6.326  26.685   2.288
73544W        W43425  30.541  22.721  10.486
73545W        W43426  11.287  19.203  12.456
73546W        W43427   9.825  37.069   3.150
73547W        W43428  44.409   7.735   1.849
73548W        W43429  26.972   6.874  14.490
73549W        W43430  34.606   6.303   1.904
73550W        W43431  10.809  43.372  14.933
73551W        W43432  28.152  38.011   2.243
73552W        W43433   3.343  24.523  12.569
73553W        W43434  21.045   9.663   2.891
73554W        W43435  14.111  24.003  11.008
73555W        W43436  17.262  21.545  14.399
73556W        W43437  42.796   2.832   3.718
73557W        W43438   5.705  23.732  11.474
73558W        W43439   3.872  32.956   2.707
73559W        W43440  29.442   3.312   2.795
73560W        W43441   2.900   2.359   3.176
73561W        W43442   7.834  38.960  11.594
73562W        W43443  35.413  36.581  13.986
73563W        W43444  12.740  12.704  12.992
73564W        W43445  38.031  19.767  12.066
73565W        W43446   5.929  16.319  12.533
73566W        W43447  43.910  35.013   3.868
73567W        W43448   9.351  32.558   3.797
73568W        W43449  13.224   6.684  11.584
73569W        W43450  25.150  30.485  10.601
73570W        W43451   3.331  17.204   1.817
73571W        W43452   4.374   6.861  12.962
73572W        W43453  31.059   6.740  12.090
73573W        W43454  42.436   7.179  10.571
73574W        W43455  18.071   2.451   1.225
73575W        W43456  33.453  28.542  13.402
73576W        W43457  24.201   2.395   2.699
73577W        W43458  38.407  33.570   4.661
73578W        W43459  39.995  42.283   0.733
73579W        W43460  25.206  35.936   3.226
73580W        W43461   7.811   5.691  10.500
73581W        W43462  37.580  34.953   3.291
73582W        W43463  23.706  41.996   4.145
73583W        W43464  36.860  15.263  12.556
73584W        W43465  17.115   0.273   1.450
73585W        W43466  35.442  34.913  11.488
73586W        W43467  43.780  41.796   1.893
73587W        W43468  28.170  16.603   0.438
73588W        W43469  37.426  16.610   2.389
73589W        W43470  22.049   4.423  13.808
73590W        W43471  26.476  19.175  12.952
73591W        W43472   6.779  42.017   4.187
73592W        W43473  29.987  30.562   1.873
73593W        W43474   5.750  41.473   4.306
73594W        W43475  22.013  43.442  12.865
73595W        W43476   5.205  28.165  13.929
73596W        W43477  31.467  15.260  11.089
73597W        W43478   1.348   2.455  11.126
73598W        W43479  22.588  28.989   1.916
73599W        W43480  10.292  11.345  12.524
73600W        W43481  24.032  35.533  11.048
73601W        W43482   5.929  24.673   0.872
73602W        W43483  37.473  30.087   4.195
73603W        W43484  30.454  36.468   1.335
73604W        W43485  23.575  16.568  12.498
73605W        W43486   9.789  39.004   0.361
73606W        W43487   0.885  38.351  14.813
73607W        W43488  11.780  14.235   2.254
73608W        W43489  22.114   8.876   2.815
73609W        W43490  41.497   2.803   0.275
73610W        W43491   8.207  35.570   3.857
73611W        W43492  21.220  39.371   1.270
73612W        W43493   0.373  25.131  12.351
73613W        W43494   0.884  10.712   4.167
73614W        W43495  16.165  12.324  14.993
73615W        W43496  23.597  37.005  14.400
73616W        W43497  14.608  18.058   0.732
73617W        W43498  33.496  36.884   2.266
73618W        W43499  15.615  37.549   4.658
73619W        W43500  23.662  34.411   3.807
73620W        W43501  37.922  33.420   3.297
73621W        W43502   0.815   0.764  13.405
73622W        W43503  31.920  22.587   2.802
73623W        W43504  17.104   6.339  11.610
73624W        W43505  39.063   3.896   2.901
73625W        W43506  33.507  26.080  14.473
73626W        W43507   8.385  18.245  12.931
73627W        W43508   4.814  33.396   0.268
73628W        W43509  12.647  13.142  12.398
73629W        W43510  29.454  27.963  12.345
73630W        W43511  34.440  44.844   0.811
73631W        W43512  27.125   4.854  10.888
73632W        W43513   2.240  29.515  12.358
73633W        W43514  11.241   0.924  14.014
73634W        W43515  35.939  10.790   0.247
73635W        W43516  32.618  34.064  14.375
73636W        W43517  14.136  37.506   1.758
73637W        W43518  15.172   9.364   2.319
73638W        W43519  35.424   6.818  11.492
73639W        W43520  41.865  38.025   0.955
73640W        W43521  33.107  43.516  12.570
73641W        W43522  14.722  28.142  14.812
73642W        W43523  31.510   2.780   0.916
73643W        W43524  25.708  36.408  12.854
73644W        W43525  14.134  36.546   2.178
73645W        W43526  38.868  44.859   5.232
73646W        W43527   7.320   0.758  13.395
73647W        W43528  26.020  44.896  12.387
73648W        W43529  37.456   9.168  12.542
73649W        W43530  31.073   8.289  12.465
73650W        W43531  16.600  32.071  10.571
73651W        W43532  25.084  22.719   1.243
73652W        W43533  24.081  13.718   2.355
73653W        W43534  33.469   0.833  14.809
73654W        W43535  15.709  16.581  12.448
73655W        W43536   9.178   7.906   3.729
73656W        W43537  35.958  13.670   2.396
73657W        W43538  19.100  39.813   3.803
73658W        W43539  22.103   8.831   3.831
73659W        W43540  33.568  16.210  10.514
73660W        W43541  42.457  33.968   0.764
73661W        W43542  26.681  41.028   1.233
73662W        W43543  40.373  43.967   1.768
73663W        W43544  43.873   8.806   4.241
73664W        W43545  39.560   8.810  14.011
73665W        W43546  23.661  42.934   3.682
73666W        W43547  38.852   5.714  11.548
73667W        W43548   8.396  28.032  12.573
73668W        W43549  15.253  17.147  14.504
73669W        W43550  23.116  15.301  11.480
73670W        W43551   4.402  12.279   0.313
73671W        W43552  14.611  42.022   2.825
73672W        W43553   7.329  17.689   1.717
73673W        W43554   2.902  28.545   4.254
73674W        W43555  27.588  18.585  14.969
73675W        W43556  26.100  39.040   0.816
73676W        W43557  38.838  23.011  14.961
73677W        W43558  17.644  39.986   0.764
73678W        W43559  36.905  11.858   4.615
73679W        W43560   9.243   6.740   4.801
73680W        W43561  18.195  13.660   1.427
73681W        W43562   5.262   2.252   3.323
73682W        W43563  18.769  34.579   0.730
73683W        W43564   5.741  10.716  11.091
73684W        W43565  16.300  35.601  10.485
73685W        W43566   6.291  18.050   1.299
73686W        W43567  12.151  15.597   0.840
73687W        W43568   3.854  33.386  13.486
73688W        W43569  34.033  21.755  12.371
73689W        W43570  30.122  12.253   4.698
73690W        W43571  36.449  21.554  10.573
73691W        W43572   0.877   8.671   1.412
73692W        W43573  38.446  25.601  10.620
73693W        W43574   6.787  26.026   1.798
73694W        W43575  16.153  16.260   2.834
73695W        W43576  26.660   9.720  12.386
73696W        W43577  44.854  19.734   2.774
73697W        W43578  24.151  28.512   0.427
73698W        W43579   5.913  24.209   2.795
73699W        W43580  30.951  29.087  13.030
73700W        W43581  26.561  41.420   1.892
73701W        W43582  12.847  41.982   4.792
73702W        W43583  26.160  10.687   3.223
73703W        W43584  41.937  17.774   2.335
73704W        W43585  30.070   3.785  11.479
73705W        W43586  38.852   5.286   2.743
73706W        W43587  33.430  35.430   5.242
73707W        W43588  32.413  31.518  11.961
73708W        W43589   2.828  34.071  12.873
73709W        W43590  40.851  24.067  11.419
73710W        W43591  40.004  21.098  11.894
73711W        W43592  15.667  31.065  10.493
73712W        W43593  23.619  27.623  13.022
73713W        W43594  36.097  10.850   3.217
73714W        W43595   5.875  27.988  10.515
73715W        W43596  30.648  19.228   2.256
73716W        W43597  37.028   9.854   4.250
73717W        W43598   0.758   5.827  13.928
73718W        W43599  27.950  17.130  12.567
73719W        W43600  42.312  36.510  13.938
73720W        W43601  30.988  20.714   3.291
73721W        W43602  39.859  27.955   3.824
73722W        W43603  14.153  26.592  12.877
73723W        W43604  19.089  17.163   4.135
73724W        W43605  11.196   0.752   2.843
73725W        W43606   1.838  35.886  13.022
73726W        W43607   8.859  31.461  12.970
73727W        W43608  33.570  19.685  14.281
73728W        W43609  39.447  14.156   4.739
73729W        W43610  26.610   8.842   1.738
73730W        W43611   6.721  26.052   0.873
73731W        W43612  15.747  23.586   9.922
73732W        W43613   9.192  22.123  13.002
73733W        W43614  10.269   5.872  13.819
73734W        W43615  11.130   0.277   4.625
73735W        W43616  42.397  44.440  13.018
73736W        W43617  33.586  31.493  10.107
73737W        W43618  26.548   5.432  12.407
73738W        W43619  19.535  27.194  11.927
73739W        W43620  31.570  32.517   2.717
73740W        W43621  41.320  22.702  13.525
73741W        W43622  18.051  41.427   2.851
73742W        W43623  36.044  35.965  11.893
73743W        W43624   5.795  16.651  14.497
73744W        W43625  42.920  29.538  12.959
73745W        W43626  31.975   0.912   1.252
73746W        W43627  38.024  15.788   3.185
73747W        W43628  39.955  21.227   2.302
73748W        W43629  38.517  10.313  10.915
73749W        W43630  24.974  34.897   0.765
73750W        W43631  24.161  24.977   0.305
73751W        W43632  17.795  35.395   1.250
73752W        W43633  19.062   2.246  12.437
73753W        W43634  25.699  12.175   1.804
73754W        W43635  21.546  40.514   4.244
73755W        W43636  13.337  31.036  14.326
73756W        W43637   7.723   2.795  12.934
73757W        W43638  29.456  37.349  10.088
73758W        W43639  24.578  29.134   1.437
73759W        W43640  40.343  18.673   2.251
73760W        W43641   0.916  24.052  11.122
73761W        W43642  10.247   5.297   1.336
73762W        W43643  41.819  19.683  13.992
73763W        W43644  19.098  18.166  11.028
73764W        W43645  31.930  25.078   0.376
73765W        W43646  18.155  24.674  13.975
73766W        W43647   8.347  26.478  11.424
73767W        W43648   2.449  25.990   4.223
73768W        W43649  38.436   3.258   1.819
73769W        W43650   8.217  43.872   4.701
73770W        W43651  36.421  31.035   2.200
73771W        W43652   4.881  34.561  12.962
73772W        W43653  16.233  12.848  12.348
73773W        W43654  13.284  14.772  14.999
73774W        W43655   3.227  28.567  14.379
73775W        W43656  13.289   9.195  14.002
73776W        W43657  10.363  34.381   1.919
73777W        W43658  15.628   6.712  12.903
73778W        W43659  42.949  43.890  13.820
73779W        W43660  35.422  32.452   0.289
73780W        W43661   7.668  11.186   4.300
73781W        W43662  14.158  38.516  13.842
73782W        W43663  21.605  28.573   0.378
73783W        W43664  14.316  34.472   0.466
73784W        W43665  42.989  27.637  11.960
73785W        W43666  19.702  21.259  10.509
73786W        W43667  33.470  13.149   3.736
73787W        W43668  33.008  42.778   3.379
73788W        W43669   0.300  37.528  10.644
73789W        W43670  27.621  17.729  13.998
73790W        W43671  21.646  26.133   3.358
73791W        W43672  41.855  35.358  14.310
73792W        W43673  12.116  19.717  14.301
73793W        W43674  38.454   5.767   2.738
73794W        W43675  28.998   7.910  10.086
73795W        W43676  44.771  28.537  12.017
73796W        W43677  34.110   9.299  10.458
73797W        W43678  37.842  37.880   2.301
73798W        W43679   9.852  11.832   2.310
73799W        W43680   2.287   3.226   2.371
73800W        W43681  20.744   0.283   2.205
73801W        W43682  22.152  28.930   4.300
73802W        W43683  40.384   1.466   4.613
73803W        W43684   2.731  42.017   3.332
73804W        W43685   7.811  26.633  13.999
73805W        W43686  41.480  41.789  12.089
73806W        W43687  38.493  44.498  13.388
73807W        W43688  39.383   2.894  13.865
73808W        W43689  12.161  28.009   5.138
73809W        W43690  36.502  35.017  14.514
73810W        W43691  16.625  35.021  13.048
73811W        W43692  34.055   5.427  14.868
73812W        W43693  11.188  26.640   2.811
73813W        W43694  37.349  40.330  10.914
73814W        W43695   0.470  42.919  13.978
73815W        W43696  28.177  27.960  12.004
73816W        W43697  30.027  40.864  12.472
73817W        W43698   2.745  19.748   4.610
73818W        W43699   6.788  43.923  13.460
73819W        W43700  37.887   6.732  13.045
73820W        W43701  40.406  35.398  10.642
73821W        W43702  11.805  44.433   0.829
73822W        W43703  43.862  23.724   0.251
73823W        W43704  11.250  21.057   4.212
73824W        W43705  28.088   3.768  12.915
73825W        W43706  38.353  11.769  13.339
73826W        W43707  22.029  42.995   1.907
73827W        W43708  29.942  32.050  14.929
73828W        W43709  38.950  13.194  14.965
73829W        W43710  35.418  39.928   2.343
73830W        W43711  19.724  17.126  10.971
73831W        W43712  33.397  11.196   1.273
73832W        W43713  40.960  33.597  10.588
73833W        W43714   1.327  38.346   2.246
73834W        W43715  38.881   7.704   0.790
73835W        W43716   4.891  25.119   0.915
73836W        W43717  20.146  12.212  14.028
73837W        W43718   1.788  14.110  14.352
73838W        W43719   9.285   7.680  11.909
73839W        W43720   7.340  32.013   0.946
73840W        W43721  13.209  26.147  12.889
73841W        W43722  14.154  16.122   2.702
73842W        W43723  31.091  24.715  11.571
73843W        W43724  44.422  31.476  12.940
73844W        W43725  40.953   0.752   3.222
73845W        W43726   8.681  14.330   1.720
73846W        W43727  30.955  37.034   0.467
73847W        W43728  42.800  39.321  13.370
73848W        W43729  23.727  20.726  11.864
73849W        W43730  23.054   1.824   3.821
73850W        W43731  19.773  32.621  12.489
73851W        W43732  26.548   7.744   4.679
73852W        W43733  41.525  43.482  11.034
73853W        W43734   7.324  34.873  13.817
73854W        W43735  28.053  21.173   0.422
73855W        W43736  11.336   6.785  13.330
73856W        W43737  20.660  20.121   3.168
73857W        W43738  33.066  15.600  11.010
73858W        W43739   2.254  43.978  10.478
73859W        W43740  10.849   2.950  12.042
73860W        W43741   1.836  27.449   3.844
73861W        W43742  42.493  10.737  11.402
73862W        W43743  16.760  10.206  11.376
73863W        W43744  44.987   8.181   0.884
73864W        W43745  28.652   2.828   1.314
73865W        W43746  34.970  39.873  12.397
73866W        W43747  41.020  36.531  12.574
73867W        W43748  29.975  15.187  10.491
73868W        W43749  32.068  33.019   2.396
73869W        W43750  28.483   0.942   1.933
73870W        W43751  13.295  31.947  13.039
73871W        W43752  37.507  27.075  12.972
73872W        W43753  16.201  18.202   1.796
73873W        W43754  23.577  35.883  12.455
73874W        W43755  32.596  17.627   2.828
73875W        W43756  11.233   7.227  12.401
73876W        W43757   2.748  24.587  12.528
73877W        W43758  44.417  14.164   2.903
73878W        W43759  11.152  42.508   2.860
73879W        W43760  31.579  22.040  13.848
73880W        W43761  20.665  40.956   4.237
73881W        W43762  40.421   0.943   1.891
73882W        W43763  16.236   8.210   0.400
73883W        W43764  19.686   8.851  14.430
73884W        W43765  44.830   6.768   4.608
73885W        W43766   9.885  23.114  10.566
73886W        W43767  43.420  42.796  13.805
73887W        W43768  36.431   9.290  10.953
73888W        W43769  11.749  40.921   0.398
73889W        W43770  19.750  31.973   4.333
73890W        W43771  21.673  15.310   3.219
73891W        W43772   6.413  30.034  10.046
73892W        W43773   5.409  13.686  11.976
73893W        W43774  13.257  11.143  11.465
73894W        W43775  18.139  33.518  12.046
73895W        W43776   7.718  22.066  12.956
73896W        W43777  31.992  34.948   4.673
73897W        W43778  11.860   2.738   0.317
73898W        W43779  41.504  26.118   2.805
73899W        W43780  16.171  25.714   3.675
73900W        W43781   0.394  28.160   3.773
73901W        W43782  35.855  23.578  12.496
73902W        W43783  10.696  14.320   3.828
73903W        W43784  40.854   7.868   1.442
73904W        W43785  28.999  44.801  14.348
73905W        W43786  27.615  44.783  13.495
73906W        W43787  10.732  32.394   4.294
73907W        W43788  42.805   1.295   3.243
73908W        W43789   5.243   2.881  14.913
73909W        W43790  28.449  18.743   0.964
73910W        W43791   0.757   6.360  12.366
73911W        W43792  13.831  12.817   0.264
73912W        W43793  13.133  35.852  12.083
73913W        W43794   5.928  20.527  14.386
73914W        W43795  35.078   2.307   3.689
73915W        W43796  29.437  34.895  13.381
73916W        W43797  17.671   6.796  13.971
73917W        W43798  12.152  18.098  10.979
73918W        W43799  33.441   7.805  13.021
73919W        W43800  39.493  15.677  10.008
73920W        W43801  37.009  14.290   4.681
73921W        W43802  20.751  20.620   0.908
73922W        W43803   0.772  39.357   1.906
73923W        W43804   5.327  28.448   4.787
73924W        W43805   2.263  31.524   4.744
73925W        W43806  17.560   2.900  12.363
73926W        W43807   7.804  37.078  14.907
73927W        W43808  20.700  38.550  13.925
73928W        W43809  17.096  38.907   3.718
73929W        W43810  14.825  24.041  14.923
73930W        W43811  10.853  26.980   4.150
73931W        W43812  34.444  26.998   0.474
73932W        W43813  15.259  14.185  14.397
73933W        W43814  17.762  40.913   2.714
73934W        W43815  40.048   4.881  14.953
73935W        W43816  25.096  43.424   4.232
73936W        W43817   7.374   9.747  14.790
73937W        W43818   4.430  34.109   0.845
73938W        W43819  22.680   7.192   1.372
73939W        W43820   7.893   2.281  11.559
73940W        W43821  39.340  14.172  11.451
73941W        W43822   0.444  11.689   1.784
73942W        W43823  32.008   4.772   4.304
73943W        W43824  15.729   9.306   3.165
73944W        W43825  13.603  31.945  13.865
73945W        W43826   0.933  33.970   3.287
73946W        W43827  28.636  14.141   1.786
73947W        W43828   8.274  44.984   4.186
73948W        W43829   6.892  36.406   3.204
73949W        W43830  40.912  15.625  10.895
73950W        W43831  38.862  30.658  12.901
73951W        W43832  31.516  18.570   9.499
73952W        W43833  19.260  37.047   1.801
73953W        W43834  22.161  18.688  10.596
73954W        W43835   4.887  30.926  14.796
73955W        W43836  23.688  23.619   1.891
73956W        W43837  35.991  28.084  12.454
73957W        W43838  34.606  36.418   2.673
73958W        W43839  36.878   3.307  10.889
73959W        W43840   9.229  29.169  11.108
73960W        W43841  33.010  26.002  12.350
73961W        W43842  12.118  19.629   3.270
73962W        W43843  17.652  20.585  10.909
73963W        W43844  23.508   0.852  12.876
73964W        W43845  29.995  26.514   1.882
73965W        W43846  19.564  30.616  13.901
73966W        W43847  26.958  18.737   1.930
73967W        W43848  34.020  38.363   4.315
73968W        W43849  22.629   2.447   2.322
73969W        W43850  30.055   7.877   3.160
73970W        W43851  21.189  29.980  10.540
73971W        W43852   1.924  28.162   3.741
73972W        W43853   0.300  12.122  14.825
73973W        W43854  24.637  15.777  12.456
73974W        W43855  11.194   3.221   3.226
73975W        W43856  25.094   9.283   0.887
73976W        W43857  31.536   7.389   1.902
73977W        W43858  34.547  10.251  12.067
73978W        W43859  15.172   5.744  14.391
73979W        W43860  11.297   9.256   1.293
73980W        W43861  39.860  16.732   0.373
73981W        W43862  38.551  31.062   1.299
73982W        W43863  31.517  16.779  12.398
73983W        W43864  25.061  28.489  12.998
73984W        W43865  36.582   3.452   3.645
73985W        W43866  40.409  30.954   4.213
73986W        W43867   9.753  16.708  14.819
73987W        W43868   0.930  44.838  13.058
73988W        W43869   5.816   5.864  14.372
73989W        W43870  15.784  23.222  13.833
73990W        W43871  15.736  26.135   3.164
73991W        W43872  19.776  43.347   3.799
73992W        W43873   2.237  27.164  14.284
73993W        W43874  37.054   9.725  10.961
73994W        W43875   5.378  39.818  11.436
73995W        W43876  16.266   4.257  14.431
73996W        W43877  33.943  30.461  12.040
73997W        W43878  24.050   2.948   1.425
73998W        W43879  32.120  12.236  13.801
73999W        W43880  10.355  23.013   3.259
74000W        W43881  34.567   3.267   2.271
74001W        W43882  26.169  30.061   1.786
74002W        W43883  10.255  17.206   3.348
74003W        W43884  14.125  35.430  12.071
74004W        W43885  33.466  26.620  11.035
74005W        W43886   3.842  24.599  12.560
74006W        W43887  18.055  26.031  13.532
74007W        W43888   1.329  13.715  11.427
74008W        W43889  24.514  37.960   0.386
74009W        W43890  27.003   0.493   4.139
74010W        W43891  25.565  28.978  11.505
74011W        W43892  12.704   1.447   3.362
74012W        W43893   3.421  14.736   1.790
74013W        W43894   9.205  23.593  13.818
74014W        W43895  42.864  12.822   3.237
74015W        W43896   4.325   8.172  13.352
74016W        W43897  23.045  37.498  12.836
74017W        W43898  31.439  17.112   0.401
74018W        W43899  19.190  44.772  11.981
74019W        W43900  21.058  40.491   1.812
74020W        W43901  37.024  18.716   2.900
74021W        W43902  15.159  38.840  13.912
74022W        W43903  40.978  31.108   0.864
74023W        W43904  42.792  21.528   2.183
74024W        W43905  39.348  28.000   0.876
74025W        W43906   7.744   6.215   1.331
74026W        W43907   2.421  15.653  13.340
74027W        W43908  10.175  44.803   3.243
74028W        W43909  30.909  28.001  14.880
74029W        W43910  21.633  34.545   1.826
74030W        W43911   4.776  40.535  11.126
74031W        W43912  41.322   8.284   0.244
74032W        W43913  15.645  18.213   2.306
74033W        W43914  32.949  16.780  12.445
74034W        W43915  25.024  25.176  11.381
74035W        W43916  28.974  32.935   2.216
74036W        W43917   1.921  18.654   4.242
74037W        W43918   0.467  14.317  13.530
74038W        W43919  11.671   7.386  13.471
74039W        W43920  31.532  38.076   3.210
74040W        W43921  28.515   9.182   4.705
74041W        W43922  16.736  11.828  10.472
74042W        W43923  11.263  26.023   3.680
74043W        W43924  19.629   6.717   4.612
74044W        W43925  11.299  40.526   2.315
74045W        W43926   0.451  21.052  11.994
74046W        W43927  44.789  33.527  13.841
74047W        W43928  35.583  31.897   2.669
74048W        W43929  35.545  35.998  14.818
74049W        W43930  24.127   9.781   0.868
74050W        W43931   4.241  29.598  13.337
74051W        W43932  15.760  26.522   2.781
74052W        W43933  41.892  11.342   0.826
74053W        W43934  38.570   7.204   0.415
74054W        W43935   7.356  30.415  13.800
74055W        W43936  25.592  27.033   1.778
74056W        W43937  30.018   3.455  14.991
74057W        W43938  22.220  12.251   3.835
74058W        W43939  26.974   0.256  12.366
74059W        W43940  23.054  26.534   2.730
74060W        W43941  31.426  14.337   0.302
74061W        W43942  27.603  42.519   0.270
74062W        W43943  42.519  12.248   3.298
74063W        W43944  32.041  11.801   0.464
74064W        W43945  20.590  29.168  10.535
74065W        W43946  18.219   2.390   2.734
74066W        W43947  36.921  23.176  14.775
74067W        W43948   6.412  35.899  11.499
74068W        W43949  15.625  29.544  13.026
74069W        W43950  12.265  28.477   0.323
74070W        W43951  32.522  29.105   0.291
74071W        W43952  16.813  22.667  11.541
74072W        W43953   3.270  27.141  13.972
74073W        W43954  16.103  35.512   2.877
74074W        W43955  33.087  20.200  10.612
74075W        W43956  19.276  19.561  11.536
74076W        W43957  12.718  43.355   2.859
74077W        W43958  19.095   7.372   2.811
74078W        W43959  22.671   0.955  11.074
74079W        W43960  40.538  30.595   2.795
74080W        W43961  33.490  11.347  12.546
74081W        W43962  22.151   9.777  10.548
74082W        W43963   9.729  16.240  12.364
74083W        W43964   3.895  33.047  12.989
74084W        W43965   0.429  41.972  13.868
74085W        W43966   8.857  41.433  10.044
74086W        W43967  24.555  44.357   3.320
74087W        W43968  15.615  18.264  13.041
74088W        W43969  20.714   3.812   3.774
74089W        W43970  26.042  17.720  12.010
74090W        W43971  41.792  22.551  12.075
74091W        W43972  34.110  19.147  12.428
74092W        W43973  30.994   6.787   4.143
74093W        W43974  14.703  40.329  11.400
74094W        W43975  29.463  20.209  10.443
74095W        W43976  35.100  35.993   2.765
74096W        W43977  42.830  21.561  12.942
74097W        W43978  21.619   9.386   2.353
74098W        W43979  35.490  41.353  10.610
74099W        W43980   6.856  41.804  14.416
74100W        W43981  26.109  40.051   1.801
74101W        W43982   6.399  35.495   4.610
74102W        W43983  42.925  22.738   4.750
74103W        W43984  15.219  34.481  12.078
74104W        W43985  25.555   8.169  14.444
74105W        W43986   8.344  43.393   2.727
74106W        W43987  21.687  44.766   5.210
74107W        W43988  28.995  21.699  11.122
74108W        W43989   3.755  29.145   0.956
74109W        W43990  18.260   7.232  14.873
74110W        W43991  31.990  28.029  10.515
74111W        W43992   7.837  28.660  13.451
74112W        W43993   3.877   3.428  14.794
74113W        W43994  17.171   3.224   5.152
74114W        W43995  17.774   9.181   2.824
74115W        W43996  39.040  19.616  10.466
74116W        W43997  20.587   8.763   1.744
74117W        W43998   3.810   9.846   2.757
74118W        W43999   6.394  10.341   4.627
74119W        W44000  38.968  10.334  14.347
74120W        W44001  44.298   6.698   3.670
74121W        W44002  44.949  41.518   1.864
74122W        W44003  30.423   6.729   1.742
74123W        W44004   2.460  42.855   2.233
74124W        W44005  38.534  10.834  14.982
74125W        W44006   2.339  19.604   4.776
74126W        W44007   6.793  30.047   4.729
74127W        W44008  28.528  16.135   4.758
74128W        W44009  29.623  18.711  10.997
74129W        W44010   9.201  31.984   2.256
74130W        W44011  34.400  31.943   3.213
74131W        W44012  26.004  11.230   2.738
74132W        W44013  16.794  21.185   4.816
74133W        W44014  31.520  28.659   1.790
74134W        W44015  32.049  38.040   2.275
74135W        W44016  28.642   4.223  13.325
74136W        W44017  24.587  10.338  13.875
74137W        W44018  39.859  16.240  12.447
74138W        W44019  15.116  36.991   5.694
74139W        W44020  27.064   8.304   3.202
74140W        W44021  24.168  43.964   0.338
74141W        W44022  32.411  43.773   3.679
74142W        W44023  10.363  31.903   4.117
74143W        W44024  35.088  15.192  11.080
74144W        W44025  39.362  43.362   1.858
74145W        W44026  41.326  18.197  12.395
74146W        W44027  37.971  20.717   4.146
74147W        W44028  43.992   7.196   2.388
74148W        W44029   2.265   9.658   4.799
74149W        W44030  16.804  35.916  14.290
74150W        W44031  26.132  17.674   0.865
74151W        W44032  25.490  16.178   1.842
74152W        W44033  40.479  39.442  10.954
74153W        W44034  20.646   1.857  11.939
74154W        W44035   0.364  41.432   0.937
74155W        W44036  21.046  28.527  11.596
74156W        W44037  33.624  24.565   0.774
74157W        W44038  22.563  25.033  11.421
74158W        W44039  33.399   5.851  13.964
74159W        W44040  32.970  35.459  13.545
74160W        W44041  18.131  42.988  12.947
74161W        W44042  42.311   4.888   2.854
74162W        W44043  32.995   6.724   4.220
74163W        W44044  18.213   9.392   2.764
74164W        W44045  18.771  31.493   2.369
74165W        W44046   2.781  35.407  10.512
74166W        W44047  10.372  44.344   2.902
74167W        W44048   0.891   7.314  14.941
74168W        W44049   1.448  20.538  14.510
74169W        W44050  27.615   2.296   1.769
74170W        W44051  17.679   0.366   1.318
74171W        W44052  36.963  41.937   1.414
74172W        W44053  30.043   4.724  12.406
74173W        W44054  33.555  25.206  14.763
74174W        W44055   4.213  14.335   2.782
74175W        W44056  29.465  13.670  11.510
74176W        W44057   8.890  11.843  12.947
74177W        W44058  41.433  27.073  10.599
74178W        W44059  34.868  18.055   0.309
74179W        W44060  44.927   7.313   1.816
74180W        W44061  30.545  38.383  11.983
74181W        W44062  20.188  33.380  10.491
74182W        W44063  12.283  33.475   0.422
74183W        W44064  25.116  24.093   2.294
74184W        W44065  12.325   6.840  13.900
74185W        W44066  30.939  13.159  10.559
74186W        W44067   1.844  24.697   4.320
74187W        W44068  34.078  17.752   2.330
74188W        W44069  20.197  25.669   4.610
74189W        W44070  38.470  22.743   2.202
74190W        W44071  16.170  42.454   3.699
74191W        W44072  20.678  30.934   1.859
74192W        W44073  37.356  19.548  14.952
74193W        W44074   0.986  12.212   0.916
74194W        W44075  22.505  27.451  10.043
74195W        W44076  23.052  40.389  12.379
74196W        W44077   1.278  27.632   0.951
74197W        W44078  41.337  38.346  12.441
74198W        W44079  35.451  34.997   1.340
74199W        W44080  20.617   8.694   2.392
74200W        W44081   7.713  31.047   1.821
74201W        W44082  23.121   1.243  11.935
74202W        W44083  33.954   8.689   1.303
74203W        W44084  26.499  12.683  11.108
74204W        W44085   6.406   5.356   3.344
74205W        W44086  12.284  13.604  14.487
74206W        W44087  33.391  42.307  12.853
74207W        W44088   6.896  28.122   1.366
74208W        W44089  37.931   5.895  12.859
74209W        W44090  40.957  37.377  10.447
74210W        W44091  35.979  30.980  12.944
74211W        W44092  44.760   1.452   4.281
74212W        W44093  17.658  22.514   0.405
74213W        W44094   0.953  17.159   1.714
74214W        W44095  37.451  12.327   2.249
74215W        W44096  38.963  11.713  11.442
74216W        W44097  22.213  29.663  12.429
74217W        W44098  23.124  14.310  10.438
74218W        W44099   9.277  33.539   9.927
74219W        W44100   7.702  22.200   2.397
74220W        W44101  12.692  40.321  10.432
74221W        W44102  16.601   5.747  14.400
74222W        W44103  39.902  43.999  11.513
74223W        W44104  24.096  13.615  14.498
74224W        W44105  37.932   6.750  12.455
74225W        W44106  35.895  15.679   9.963
74226W        W44107  30.913   5.403   0.400
74227W        W44108  20.213  22.557   0.754
74228W        W44109  36.508  17.660  14.370
74229W        W44110  26.486  30.073  10.997
74230W        W44111  40.827  24.130   4.161
74231W        W44112  19.780  31.502  13.952
74232W        W44113   8.301  33.592  14.393
74233W        W44114  23.202  43.496   3.254
74234W        W44115   5.755  37.415   0.420
74235W        W44116  36.965  17.103   2.731
74236W        W44117   9.265  10.678  10.459
74237W        W44118   2.282  13.727  11.551
74238W        W44119  38.502  29.492  10.481
74239W        W44120  32.567  37.845  10.408
74240W        W44121  14.278  12.805   0.471
74241W        W44122   6.703   3.299   4.730
74242W        W44123   1.773  38.381   4.794
74243W        W44124  23.074  30.122   1.757
74244W        W44125  30.042  37.859   1.285
74245W        W44126  13.187   2.929   3.831
74246W        W44127  39.524  38.362   1.783
74247W        W44128  16.301  38.054  11.014
74248W        W44129  23.002  31.611  13.876
74249W        W44130  30.076   6.913   2.761
74250W        W44131  17.161  28.067  10.519
74251W        W44132  31.043  30.604  14.958
74252W        W44133  32.100  25.697  11.510
74253W        W44134   2.248  42.865  12.989
74254W        W44135   2.835  30.925   1.288
74255W        W44136   5.233  43.803  10.907
74256W        W44137  39.849  19.059  11.913
74257W        W44138   7.312  29.977  11.866
74258W        W44139  36.511  10.638   3.261
74259W        W44140   7.851   6.784  10.505
74260W        W44141   2.419  36.383  12.401
74261W        W44142  43.413  25.521   1.827
74262W        W44143  18.289  28.547  13.314
74263W        W44144   4.393  31.137  13.803
74264W        W44145  32.556   3.260   5.234
74265W        W44146   0.402   6.265  11.950
74266W        W44147  41.438  22.149  13.446
74267W        W44148   3.233  11.866  14.389
74268W        W44149  15.585  34.438  11.108
74269W        W44150  21.707  19.578   3.787
74270W        W44151  38.948   2.919   2.885
74271W        W44152  42.472  24.522  14.286
74272W        W44153  31.955  31.448   0.420
74273W        W44154  34.583   9.668   4.143
74274W        W44155   6.244  33.019  10.464
74275W        W44156  11.681  16.730  12.944
74276W        W44157   9.711  20.611  13.804
74277W        W44158   8.738  21.106  12.986
74278W        W44159  28.979   5.425   2.762
74279W        W44160  17.633  11.240   3.273
74280W        W44161  12.730  11.281  10.626
74281W        W44162  13.767  37.896  11.037
74282W        W44163  15.185  22.083  14.275
74283W        W44164  33.088   7.758   2.184
74284W        W44165  28.044  27.500  12.077
74285W        W44166  29.156  10.171   4.649
74286W        W44167  16.745   4.912   4.770
74287W        W44168   6.749  14.696  10.947
74288W        W44169  27.479  39.905   2.702
74289W        W44170  20.197  20.116  11.421
74290W        W44171  28.994   1.922   3.333
74291W        W44172  43.302   9.178   1.422
74292W        W44173  17.601  15.699  12.856
74293W        W44174   9.207  10.138   1.762
74294W        W44175  24.989  26.468  12.065
74295W        W44176   0.782  32.447   1.375
74296W        W44177  20.765  22.507   2.789
74297W        W44178   4.252  20.572   2.801
74298W        W44179  35.560   2.469  12.534
74299W        W44180  36.856  16.291  13.488
74300W        W44181  11.769  12.753  14.405
74301W        W44182  40.456   3.271   5.107
74302W        W44183  32.128  16.633  13.825
74303W        W44184   6.804  29.528   1.431
74304W        W44185  26.121  36.922   1.702
74305W        W44186  17.092  37.899   0.919
74306W        W44187  30.944  16.115   2.877
74307W        W44188  21.658   0.780   1.933
74308W        W44189   2.326  36.363   3.700
74309W        W44190   3.229  29.041   1.240
74310W        W44191   0.490  28.949   3.640
74311W        W44192  33.444  12.300   0.334
74312W        W44193  40.950  19.188  12.074
74313W        W44194  15.180  29.137  10.994
74314W        W44195  42.445  22.535   0.798
74315W        W44196  24.617  41.319   0.337
74316W        W44197  26.589  29.170  11.126
74317W        W44198  18.082  44.316  10.572
74318W        W44199  37.890  42.983   0.930
74319W        W44200  28.454  29.038   0.936
74320W        W44201  17.577  16.715  14.374
74321W        W44202  28.003  35.462  10.505
74322W        W44203  17.207  16.603   2.832
74323W        W44204  12.670  18.699   4.214
74324W        W44205  29.973  37.011  11.861
74325W        W44206  28.181  11.724  10.469
74326W        W44207  43.445   5.242   1.381
74327W        W44208  28.640  17.650   4.238
74328W        W44209  33.889  30.073   1.904
74329W        W44210   5.802   5.688   2.885
74330W        W44211   3.829  29.596  13.937
74331W        W44212  32.442  36.948  13.468
74332W        W44213  40.974  12.796  14.399
74333W        W44214  41.482   1.849   2.797
74334W        W44215  26.104  34.430   4.349
74335W        W44216   4.864   8.755   1.892
74336W        W44217  43.329  33.109   4.282
74337W        W44218  17.246  27.591  13.364
74338W        W44219  23.507  29.161   2.385
74339W        W44220   5.833  36.526  14.417
74340W        W44221  21.680   8.812   2.779
74341W        W44222   5.439   4.729  11.020
74342W        W44223   0.890  30.502  10.602
74343W        W44224  11.168  41.363  12.362
74344W        W44225  36.373  35.871   3.811
74345W        W44226  39.938   8.725   4.724
74346W        W44227  18.162   6.195   0.348
74347W        W44228   2.835  28.623  13.966
74348W        W44229  20.596  25.137  11.939
74349W        W44230  38.861  40.958   4.689
74350W        W44231  33.603  27.634   0.894
74351W        W44232  36.084  25.200   0.966
74352W        W44233  33.000  40.519   3.189
74353W        W44234   1.450  21.720  11.121
74354W        W44235  34.981   6.751   4.151
74355W        W44236  13.245  13.605   0.436
74356W        W44237  21.131  40.971   1.849
74357W        W44238  16.808  13.803   4.288
74358W        W44239  12.759   2.245  10.889
74359W        W44240  26.506  23.057  11.454
74360W        W44241  39.028  27.453  13.953
74361W        W44242  29.977   6.208  14.821
74362W        W44243  18.662  28.157  10.590
74363W        W44244  25.152  13.691  13.477
74364W        W44245   1.879  15.579   3.768
74365W        W44246  34.028   5.929   4.690
74366W        W44247  18.605  43.294   2.262
74367W        W44248  11.336  25.008   1.366
74368W        W44249  32.097   1.772   4.334
74369W        W44250  20.735  32.633  10.514
74370W        W44251  23.144  28.655  13.353
74371W        W44252   7.791  15.788  11.468
74372W        W44253  13.161  36.373  13.348
74373W        W44254  27.674  27.138  14.946
74374W        W44255  37.398  16.310   0.455
74375W        W44256  28.450  12.239   3.178
74376W        W44257  33.508  13.743   0.939
74377W        W44258  11.308  37.352   0.471
74378W        W44259  11.134   3.348   3.668
74379W        W44260  33.968  12.847   3.307
74380W        W44261  15.676  24.069   3.245
74381W        W44262  41.965   9.769   3.288
74382W        W44263  15.166  37.456  13.341
74383W        W44264  10.753   8.764   3.637
74384W        W44265  39.896   6.203   0.448
74385W        W44266   2.863  17.072  13.917
74386W        W44267  18.183   0.265  12.017
74387W        W44268   0.774  42.423   3.283
74388W        W44269  20.585  32.902  12.451
74389W        W44270  39.984  14.813   0.834
74390W        W44271  11.328  14.749   2.276
74391W        W44272  41.798  28.054   0.336
74392W        W44273   3.843  27.036   2.775
74393W        W44274  25.126  23.040   0.397
74394W        W44275  15.274   6.869   0.346
74395W        W44276   3.747  21.246  10.131
74396W        W44277   5.431   7.783   3.774
74397W        W44278  34.594   8.191   0.756
74398W        W44279  26.111   0.274  13.891
74399W        W44280  42.952  28.515  14.905
74400W        W44281  10.142  35.951   3.635
74401W        W44282  15.751   1.412   0.855
74402W        W44283  17.214  42.817  11.982
74403W        W44284  20.128  26.685  14.994
74404W        W44285  33.565  13.116   2.309
74405W        W44286  25.163  37.076   1.436
74406W        W44287   5.219  18.268  13.444
74407W        W44288  39.934   9.731  13.037
74408W        W44289   4.924   3.711  11.448
74409W        W44290   2.806  37.516   0.351
74410W        W44291  22.997  44.327   1.855
74411W        W44292  39.826  22.995   4.781
74412W        W44293  44.504  19.733   3.285
74413W        W44294  24.146  17.786  14.507
74414W        W44295  13.247  27.503  12.543
74415W        W44296   0.300  44.821   1.416
74416W        W44297   7.187  40.836  14.293
74417W        W44298   9.345  40.493   3.279
74418W        W44299  42.888  36.077   4.289
74419W        W44300  28.033  19.609  10.947
74420W        W44301  16.753  29.922   4.693
74421W        W44302  36.016  26.038   2.214
74422W        W44303  16.105   9.694  11.104
74423W        W44304  13.797  36.069  14.944
74424W        W44305   6.367  23.552   4.687
74425W        W44306  28.484  19.573  12.085
74426W        W44307  19.708  31.483   4.776
74427W        W44308   2.302  30.622  10.950
74428W        W44309   8.900  26.016   3.357
74429W        W44310   2.362  21.160   0.966
74430W        W44311  33.050  24.144  11.561
74431W        W44312  30.114  44.502  14.779
74432W        W44313  38.840   1.294  11.878
74433W        W44314  14.213   5.899   1.902
74434W        W44315   4.734  21.561   1.803
74435W        W44316  28.584  30.461  11.896
74436W        W44317  43.998   8.872  14.985
74437W        W44318  36.033  34.049   4.735
74438W        W44319   9.881  33.918   0.396
74439W        W44320  11.865  35.986  11.613
74440W        W44321  40.480  13.779  13.502
74441W        W44322  29.512  23.638   2.844
74442W        W44323  23.498  25.167  13.932
74443W        W44324  23.509   1.341   2.258
74444W        W44325  29.655  28.013   3.245
74445W        W44326  37.943   6.788   4.227
74446W        W44327  22.660   6.691  12.941
74447W        W44328  20.093   7.811  13.027
74448W        W44329   0.387   2.933   1.759
74449W        W44330  11.634  36.077  14.780
74450W        W44331  44.479  33.456   0.793
74451W        W44332  32.923   7.829  13.540
74452W        W44333  36.034  25.513  11.962
74453W        W44334  44.837  37.036  12.972
74454W        W44335  41.922  22.223  10.908
74455W        W44336  44.419  22.559   0.762
74456W        W44337  40.365   8.264   2.729
74457W        W44338  41.867  33.100   3.174
74458W        W44339   3.301  14.744  14.451
74459W        W44340   3.902  24.115  13.397
74460W        W44341  21.664  40.525   3.685
74461W        W44342   7.181  42.414  12.363
74462W        W44343   3.926  18.777   1.871
74463W        W44344  25.537  31.560   0.855
74464W        W44345   6.267   9.808   3.333
74465W        W44346  38.391  39.491  11.095
74466W        W44347   4.702  26.507   3.678
74467W        W44348   6.341   2.859  11.946
74468W        W44349   7.188  27.173   1.330
74469W        W44350  13.771  40.991   4.663
74470W        W44351  15.142   8.353   4.618
74471W        W44352  23.705  33.600   0.386
74472W        W44353   4.388  10.328  10.589
74473W        W44354  12.306  27.964  14.390
74474W        W44355  43.767  25.111   3.726
74475W        W44356  27.022  11.131   2.237
74476W        W44357   3.954  18.547  13.051
74477W        W44358   4.403  28.097  12.973
74478W        W44359   3.718   3.856   4.766
74479W        W44360  15.120   3.824  14.944
74480W        W44361  23.534  31.544   0.822
74481W        W44362  24.209  17.069  10.093
74482W        W44363   9.827   1.965   3.855
74483W        W44364  42.787  41.438   1.732
74484W        W44365   0.790   5.273   0.446
74485W        W44366   3.253   5.254   0.301
74486W        W44367  14.213   1.275  13.440
74487W        W44368  27.495  42.300   0.898
74488W        W44369   7.276  42.858   1.702
74489W        W44370  25.141  33.533  14.957
74490W        W44371  14.097  15.606  12.041
74491W        W44372  28.560   2.240   1.708
74492W        W44373  36.466  12.220   3.164
74493W        W44374  30.426  29.621   1.339
74494W        W44375  26.193  40.482  11.547
74495W        W44376  41.013  39.374  14.772
74496W        W44377  27.608  20.101  11.076
74497W        W44378  26.593  43.990   3.637
74498W        W44379  15.757  43.848  13.878
74499W        W44380   8.858  28.116   4.347
74500W        W44381  44.818   2.843   3.173
74501W        W44382  32.905   2.247  12.554
74502W        W44383  22.699  16.077  12.896
74503W        W44384  23.095  33.033   2.846
74504W        W44385  18.632  36.981   3.724
74505W        W44386  32.070  28.102   1.723
74506W        W44387  29.465  27.144  13.525
74507W        W44388  24.111  43.776   3.819
74508W        W44389  39.490  13.299  14.839
74509W        W44390  33.406  34.587  12.858
74510W        W44391   0.283  40.857  10.450
74511W        W44392  37.525   3.723  10.948
74512W        W44393  30.018  14.807   0.391
74513W        W44394  29.040  17.175   4.642
74514W        W44395  15.239  28.563   3.682
74515W        W44396  34.890  22.164  14.892
74516W        W44397  37.433  15.129  10.634
74517W        W44398   0.478  19.606  12.916
74518W        W44399  29.175  44.380   2.289
74519W        W44400   1.415   9.178   4.349
74520W        W44401   7.767  26.169   1.871
74521W        W44402   9.766  40.421   1.852
74522W        W44403  30.127  33.914   3.166
74523W        W44404  25.097  39.542  11.870
74524W        W44405  41.531  38.388  13.517
74525W        W44406  31.008  13.188  11.129
74526W        W44407  17.709   6.768   2.407
74527W        W44408  19.628  28.951   4.141
74528W        W44409  43.369  36.394  14.932
74529W        W44410   4.833  16.307  12.984
74530W        W44411  12.812  30.951   9.627
74531W        W44412  11.694  27.100  14.927
74532W        W44413  41.980  32.088  12.910
74533W        W44414  16.230  41.807  12.477
74534W        W44415  33.465  36.352  12.848
74535W        W44416  14.254  16.787  12.865
74536W        W44417  15.656  24.118  11.573
74537W        W44418   8.340  25.037  11.988
74538W        W44419  25.543  17.786   3.722
74539W        W44420  25.195   0.287  10.903
74540W        W44421  27.687   5.857  13.983
74541W        W44422   9.735  43.958   0.913
74542W        W44423  22.114  41.889   1.908
74543W        W44424  41.808   0.405  14.360
74544W        W44425  13.251  40.043   0.784
74545W        W44426  23.516  26.460   2.891
74546W        W44427  18.145   3.769   1.356
74547W        W44428  18.159  28.585   2.316
74548W        W44429   8.658  27.675  14.866
74549W        W44430  43.005  28.960  14.417
74550W        W44431   6.250  41.339  10.093
74551W        W44432  31.625  28.525  14.863
74552W        W44433   5.207   8.738  11.526
74553W        W44434  17.281  15.250   0.285
74554W        W44435  29.163   9.336   3.734
74555W        W44436  41.044  17.634  11.480
74556W        W44437  20.036  10.684  14.407
74557W        W44438  33.424  32.518  11.038
74558W        W44439  14.195  27.168   4.776
74559W        W44440  24.024  30.570  11.565
74560W        W44441  36.978  26.580   1.866
74561W        W44442  16.203  24.179  12.566
74562W        W44443  37.353  33.128  14.307
74563W        W44444   6.266  27.048  13.027
74564W        W44445  33.555   9.772  12.551
74565W        W44446  37.853  28.522  13.059
74566W        W44447  38.341  33.001  11.033
74567W        W44448  44.308  12.639   0.856
74568W        W44449  30.091  32.520  11.065
74569W        W44450  25.037  41.351   0.754
74570W        W44451  26.609   4.740  11.546
74571W        W44452  31.017  33.043  11.934
74572W        W44453  37.904  19.769   3.707
74573W        W44454   4.381  44.762   0.843
74574W        W44455   5.721  13.230  14.830
74575W        W44456  13.233  22.551   3.357
74576W        W44457  44.913   7.905  12.908
74577W        W44458  18.286   6.776   1.355
74578W        W44459  18.718  18.198   3.246
74579W        W44460  15.706  17.305   3.722
74580W        W44461  15.780  31.002   2.245
74581W        W44462  25.135  18.122   3.254
74582W        W44463  41.373  13.829  13.464
74583W        W44464   5.220  14.255  10.580
74584W        W44465  30.422  15.792   3.730
74585W        W44466  28.559  18.680  13.898
74586W        W44467  44.385  18.735  14.000
74587W        W44468  31.479   9.679  11.522
74588W        W44469  40.973  30.941   2.340
74589W        W44470   3.940   8.178  11.547
74590W        W44471   2.923   6.270   3.292
74591W        W44472  35.586   9.309   4.839
74592W        W44473  44.451  22.067   2.687
74593W        W44474   1.369  21.755  11.997
74594W        W44475  17.131  38.551  11.419
74595W        W44476  16.625  12.846  14.009
74596W        W44477  36.459  33.971  12.498
74597W        W44478  41.973   1.738   3.356
74598W        W44479  22.729  24.007  12.048
74599W        W44480  43.294  14.758   3.315
74600W        W44481   3.227  30.976   1.718
74601W        W44482  18.284  22.625   1.845
74602W        W44483   3.320   4.766   3.166
74603W        W44484  44.984  41.426   4.821
74604W        W44485  40.393  19.689  11.122
74605W        W44486  44.916  24.059  10.499
74606W        W44487  30.050  37.062   2.695
74607W        W44488  29.510   2.259   1.929
74608W        W44489  10.328  10.261  11.036
74609W        W44490   3.800  34.473   4.670
74610W        W44491  41.431   3.273   2.357
74611W        W44492  11.248   8.814   3.698
74612W        W44493  20.184  34.887   1.829
74613W        W44494   5.892  44.912   2.800
74614W        W44495  40.402   7.188  13.311
74615W        W44496  20.536  41.485  13.995
74616W        W44497  16.792  43.407  12.500
74617W        W44498  13.754   2.400   0.448
74618W        W44499  29.100   1.467   0.390
74619W        W44500  24.168  28.646  11.102
74620W        W44501  17.749  28.145  11.004
74621W        W44502  38.999  33.529   4.333
74622W        W44503  12.204  10.823   1.718
74623W        W44504   5.850  10.196   1.295
74624W        W44505  31.442  35.448  14.813
74625W        W44506  29.085  41.012  14.492
74626W        W44507  44.424  11.661  13.952
74627W        W44508  44.380  42.025  12.038
74628W        W44509  38.348  30.042  14.478
74629W        W44510   1.946  37.520   3.793
74630W        W44511   4.296   3.804  10.576
74631W        W44512   5.364   4.779  12.483
74632W        W44513  30.916   5.199   4.685
74633W        W44514   7.303  24.608  10.588
74634W        W44515  14.805  34.457  12.076
74635W        W44516   9.307   2.390  10.887
74636W        W44517  24.652  17.080  13.414
74637W        W44518  25.978  13.690  11.592
74638W        W44519  21.089  34.442  10.031
74639W        W44520  38.992   2.444   1.908
74640W        W44521  15.592   9.260  12.352
74641W        W44522  28.966  33.098   0.795
74642W        W44523  28.081  34.588   1.845
74643W        W44524  15.135  11.840  14.815
74644W        W44525  38.409  27.940   1.349
74645W        W44526  39.448  40.372   2.894
74646W        W44527   6.807  22.052   1.341
74647W        W44528  28.554  10.178  10.050
74648W        W44529  31.920   8.374   0.865
74649W        W44530  12.276  12.206  11.532
74650W        W44531  40.874   8.372   1.309
74651W        W44532   7.844  22.248   0.483
74652W        W44533  37.944  32.121   1.337
74653W        W44534  36.514   2.295  10.522
74654W        W44535   7.230  36.453  14.378
74655W        W44536  16.661   5.399  11.557
74656W        W44537  30.415  43.936   1.322
74657W        W44538  13.756  41.390  12.427
74658W        W44539  22.026  29.106  10.493
74659W        W44540   5.207   6.747  14.405
74660W        W44541  31.581  23.630  12.405
74661W        W44542  10.668  16.250   4.297
74662W        W44543  17.217  38.898   1.695
74663W        W44544  30.565   1.250  12.019
74664W        W44545  44.279  14.661   3.804
74665W        W44546   6.901  17.112  11.030
74666W        W44547  11.349  26.024  12.449
74667W        W44548  36.989  32.107   4.251
74668W        W44549  11.772  29.990   0.856
74669W        W44550  29.126  39.383  13.486
74670W        W44551  10.349  24.614  10.948
74671W        W44552  25.607  21.057   2.841
74672W        W44553  18.131   8.796   2.393
74673W        W44554   8.169  12.282  14.397
74674W        W44555  20.659  43.375   3.219
74675W        W44556  12.699  40.005  14.869
74676W        W44557  19.070  15.747   4.743
74677W        W44558  44.437  29.063  12.466
74678W        W44559   5.729   6.712   4.162
74679W        W44560   2.368  16.127  10.561
74680W        W44561  14.162  34.584   2.846
74681W        W44562  30.652  35.432  12.566
74682W        W44563  14.616  14.689  13.422
74683W        W44564  26.038  44.822  11.399
74684W        W44565  25.700   6.370  12.506
74685W        W44566  44.437  37.493   0.937
74686W        W44567   7.671  34.534  12.069
74687W        W44568  31.620  35.519   0.929
74688W        W44569  20.186  29.608  13.525
74689W        W44570  39.362  40.824   0.399
74690W        W44571  12.705  44.284   2.248
74691W        W44572  13.651  19.538  13.906
74692W        W44573  10.363  44.329   1.449
74693W        W44574  12.350  15.296  11.034
74694W        W44575  14.201  25.528  10.616
74695W        W44576  43.831  10.730  13.028
74696W        W44577  12.307   0.790  12.990
74697W        W44578  18.761  11.724  13.526
74698W        W44579  40.476  34.472  13.791
74699W        W44580  14.769  17.743   4.676
74700W        W44581  30.580  14.112  12.388
74701W        W44582  15.766  30.017   3.736
74702W        W44583  16.307  18.134  11.004
74703W        W44584  27.169  37.957  14.895
74704W        W44585  41.922  19.275   3.156
74705W        W44586  20.262  24.156   0.901
74706W        W44587  11.312  17.597  11.920
74707W        W44588  15.094  43.784  11.531
74708W        W44589  37.366  37.553  13.894
74709W        W44590  29.984  21.098   3.813
74710W        W44591  19.655  31.499  13.024
74711W        W44592  13.309   0.762  13.045
74712W        W44593   0.251  19.135  12.841
74713W        W44594   3.834   3.380  13.891
74714W        W44595  44.894  40.498  11.871
74715W        W44596  31.124   4.243   4.631
74716W        W44597  30.072  32.465   1.872
74717W        W44598   7.815   4.339  10.936
74718W        W44599   2.402  44.900   4.302
74719W        W44600  21.130  34.865   1.744
74720W        W44601  33.504  22.022   3.797
74721W        W44602  31.618  40.931  12.887
74722W        W44603   4.406  37.018  12.485
74723W        W44604   4.776   7.886   4.161
74724W        W44605  14.726   1.404   3.777
74725W        W44606  11.336  21.133   0.831
74726W        W44607  35.361   7.689   4.793
74727W        W44608  19.543  32.403   0.337
74728W        W44609   9.665   8.287  13.498
74729W        W44610  26.700  29.562  11.584
74730W        W44611  41.974  33.997   1.739
74731W        W44612  43.287  19.063  14.003
74732W        W44613  40.336  33.527  11.385
74733W        W44614  37.438  28.509   2.802
74734W        W44615  40.054  34.899  12.951
74735W        W44616  23.558  24.003  12.842
74736W        W44617   0.962  39.556   2.784
74737W        W44618  21.576  10.343   9.926
74738W        W44619   9.863  38.481   0.394
74739W        W44620  41.381  21.207  13.026
74740W        W44621  12.312  20.538  10.572
74741W        W44622  37.412  21.082   4.283
74742W        W44623  32.106  34.457   0.802
74743W        W44624  10.150  13.233   1.729
74744W        W44625   9.875  43.807   0.452
74745W        W44626   0.330  21.533  12.579
74746W        W44627  13.167  39.953  11.437
74747W        W44628   3.427  23.689  10.571
74748W        W44629  32.411   3.825   3.198
74749W        W44630   6.223  10.767   2.804
74750W        W44631  35.395  36.044  11.479
74751W        W44632  17.576   1.901  11.900
74752W        W44633   4.784  14.190  10.971
74753W        W44634   8.161  44.968   0.347
74754W        W44635  21.081   7.292   3.718
74755W        W44636   6.415  18.294  13.795
74756W        W44637  36.006  30.966  13.801
74757W        W44638  31.125  17.614  10.912
74758W        W44639  24.108  26.488  12.514
74759W        W44640   5.210  33.898   3.187
74760W        W44641  15.111  42.800  11.575
74761W        W44642  34.386   9.237   3.242
74762W        W44643  42.414  34.107  14.431
74763W        W44644   1.470  39.905  13.794
74764W        W44645  27.010  41.977  11.952
74765W        W44646  18.187  44.273   2.178
74766W        W44647  39.407   9.273  12.989
74767W        W44648   9.760  19.599  11.939
74768W        W44649  31.472   0.463  13.499
74769W        W44650  27.958   4.322   4.137
74770W        W44651  28.659  34.453  11.547
74771W        W44652  12.263  32.619  12.531
74772W        W44653  11.731  41.809  13.971
74773W        W44654  20.073   6.350  13.462
74774W        W44655  18.655  37.374  12.342
74775W        W44656  12.282  26.688   4.779
74776W        W44657  42.475  21.586  11.566
74777W        W44658  20.240  17.596   2.825
74778W        W44659  15.169  23.194   1.425
74779W        W44660   6.396  25.631   1.308
74780W        W44661  30.053  15.620  10.961
74781W        W44662   5.714   2.814   1.758
74782W        W44663  23.726  41.468  10.510
74783W        W44664  25.065  36.956  12.513
74784W        W44665   2.393   5.870   0.393
74785W        W44666   2.348   7.209   0.940
74786W        W44667  17.612   5.228   2.824
74787W        W44668  25.556  21.663  12.465
74788W        W44669  31.120  17.793   3.383
74789W        W44670  13.250   8.361  10.916
74790W        W44671  13.251  29.158   2.267
74791W        W44672  18.672  11.276  12.570
74792W        W44673  12.837  39.929   2.857
74793W        W44674  38.338  23.541  11.042
74794W        W44675  25.968  20.528  11.588
74795W        W44676  18.612  23.022   3.203
74796W        W44677  23.143  23.728   4.172
74797W        W44678  14.606  43.435   1.852
74798W        W44679  11.329  27.035   3.772
74799W        W44680  13.285   3.788  12.578
74800W        W44681  44.378  23.012   3.810
74801W        W44682   0.856  26.649  13.478
74802W        W44683   8.749  12.348   2.891
74803W        W44684  21.641   7.299   2.808
74804W        W44685  12.818  14.591  14.506
74805W        W44686  21.116  17.126  11.479
74806W        W44687  37.342  37.540   2.212
74807W        W44688  26.120  15.136   1.867
74808W        W44689   3.420   4.867  13.480
74809W        W44690   3.758   6.794  11.474
74810W        W44691   7.731   5.239  12.379
74811W        W44692  38.494  41.800   1.771
74812W        W44693  21.616  41.869   4.314
74813W        W44694  17.251  13.215   0.309
74814W        W44695  13.238  35.396  11.887
74815W        W44696  18.083  26.612  11.597
74816W        W44697  35.102   0.899  11.029
74817W        W44698  43.872   9.356  14.293
74818W        W44699  28.571  29.562  11.479
74819W        W44700  27.049  38.486  13.792
74820W        W44701  34.610  29.630  10.946
74821W        W44702  42.020  36.566  11.991
74822W        W44703   0.365  41.455   4.131
74823W        W44704  22.144  33.597   2.828
74824W        W44705   0.877  31.627  12.446
74825W        W44706  26.575  39.998   4.167
74826W        W44707  36.918  24.712   0.469
74827W        W44708  26.616  24.688   5.291
74828W        W44709   5.223   1.736   2.186
74829W        W44710  25.991   9.849   3.187
74830W        W44711  34.957  13.840  13.340
74831W        W44712  36.592  43.438   0.805
74832W        W44713  20.593  13.209  13.942
74833W        W44714   1.479  18.681  12.005
74834W        W44715  38.027   2.911  10.523
74835W        W44716  44.005   9.305   2.758
74836W        W44717  39.996  18.075  14.912
74837W        W44718   4.857   3.745   3.271
74838W        W44719  44.276   4.235   4.821
74839W        W44720  44.997  16.073  13.948
74840W        W44721   7.746  22.511   1.406
74841W        W44722  44.419  37.378  12.476
74842W        W44723  43.791  32.968  11.036
74843W        W44724   1.912  39.828   1.864
74844W        W44725   0.390  31.060   2.364
74845W        W44726  21.741  10.234  13.942
74846W        W44727  39.814  40.884   0.463
74847W        W44728  24.080  41.528  14.418
74848W        W44729  12.691  23.678   2.733
74849W        W44730   7.188  26.688  10.995
74850W        W44731  38.840  21.165  14.942
74851W        W44732  28.531  25.028  13.940
74852W        W44733   0.949  17.627   0.397
74853W        W44734  13.696  29.611  13.964
74854W        W44735   7.810  31.046  13.349
74855W        W44736  27.945  38.385  12.889
74856W        W44737  19.188  22.709  12.091
74857W        W44738  14.678   1.379   1.830
74858W        W44739   0.830  16.707  10.515
74859W        W44740  32.580   2.922   1.407
74860W        W44741  41.964   6.844  14.374
74861W        W44742  22.650   9.339  14.890
74862W        W44743  33.013  18.728  13.428
74863W        W44744   5.806  27.082  13.937
74864W        W44745  37.863  14.667   4.288
74865W        W44746  14.797   3.929  11.885
74866W        W44747  44.782  40.526  13.874
74867W        W44748  28.070  12.766  13.925
74868W        W44749  36.592  19.701   5.240
74869W        W44750  28.658  25.661   5.182
74870W        W44751  21.707  19.556  12.555
74871W        W44752  43.874   3.842  14.954
74872W        W44753  43.453  26.010  12.504
74873W        W44754   6.209  11.669  13.050
74874W        W44755  19.641  17.115   2.364
74875W        W44756  41.865  30.101  10.947
74876W        W44757  25.605  43.466   4.245
74877W        W44758  38.412  25.498   0.738
74878W        W44759  14.651  14.598   2.801
74879W        W44760  26.558   8.277  14.452
74880W        W44761  17.738  10.281  12.843
74881W        W44762   8.298  16.097  13.009
74882W        W44763  30.513  17.605   1.848
74883W        W44764   7.269  44.901   3.641
74884W        W44765  12.202  35.506   0.817
74885W        W44766  19.198  30.935  14.512
74886W        W44767  25.180  43.019   2.365
74887W        W44768   8.263  21.637  11.059
74888W        W44769  25.652  11.144  11.443
74889W        W44770  13.612  16.796   1.826
74890W        W44771  21.073   2.384   3.336
74891W        W44772   3.863  36.980  11.081
74892W        W44773   3.951  30.443   2.840
74893W        W44774  39.023  21.055   4.726
74894W        W44775   4.424  38.479   0.819
74895W        W44776   2.731  25.537  11.607
74896W        W44777  38.837  25.160   3.362
74897W        W44778  40.002  22.083  14.393
74898W        W44779  11.348  40.513  13.007
74899W        W44780  10.739  12.130   4.215
74900W        W44781  23.618  36.584  10.590
74901W        W44782  33.440  27.519   1.900
74902W        W44783  41.808  43.502  11.444
74903W        W44784  42.374  23.542   4.707
74904W        W44785  20.577  30.084  10.493
74905W        W44786  10.847   9.331   1.810
74906W        W44787  36.919  22.532  11.484
74907W        W44788  30.029  23.543   1.725
74908W        W44789   2.840  16.245   3.868
74909W        W44790  20.750   8.317   4.763
74910W        W44791  44.340  44.329   3.275
74911W        W44792  43.958  17.585  10.584
74912W        W44793  15.164  35.445   1.868
74913W        W44794   0.833  30.559  12.461
74914W        W44795  30.128   3.952  13.958
74915W        W44796  42.448  34.548  13.807
74916W        W44797   0.851  36.920   4.298
74917W        W44798  23.709  16.786   2.349
74918W        W44799  41.377   0.346   1.283
74919W        W44800   9.836  20.085   4.308
74920W        W44801  18.640  27.570   2.752
74921W        W44802  32.567  15.152   2.412
74922W        W44803   0.916  30.920  14.300
74923W        W44804   9.303  35.509  13.471
74924W        W44805   9.663   3.777  11.988
74925W        W44806  19.087  30.430  11.112
74926W        W44807  37.056  34.995   3.632
74927W        W44808  25.170  18.741   4.214
74928W        W44809   3.453  28.983  12.869
74929W        W44810  25.011  35.965  10.640
74930W        W44811  19.718  25.073   2.818
74931W        W44812  10.860  28.649   2.362
74932W        W44813   6.768  28.952   3.850
74933W        W44814  35.404  41.797  10.607
74934W        W44815  24.617  26.194   0.958
74935W        W44816  17.159   6.895   3.683
74936W        W44817  41.033  24.566   2.300
74937W        W44818  39.048  29.615   0.929
74938W        W44819  34.539  24.622  14.305
74939W        W44820   5.253  44.400  11.457
74940W        W44821   2.248  21.185  14.937
74941W        W44822  37.463  40.987  14.761
74942W        W44823  40.426   5.224  11.480
74943W        W44824  11.783   7.875  11.418
74944W        W44825  37.366  32.014   4.221
74945W        W44826  36.486   9.760  13.543
74946W        W44827  20.232  39.468   2.778
74947W        W44828  34.506  30.145   2.848
74948W        W44829   7.182  20.234   1.310
74949W        W44830  22.199  37.367   0.469
74950W        W44831   8.357  20.551  14.387
74951W        W44832  43.901   8.865   0.825
74952W        W44833  10.694  25.589   2.354
74953W        W44834   5.884  15.151  12.845
74954W        W44835  21.248  19.102   0.784
74955W        W44836  44.428   2.808  10.135
74956W        W44837  44.338  36.404   5.140
74957W        W44838  25.490  31.930   3.273
74958W        W44839  31.073  23.102  14.773
74959W        W44840   3.879  42.518  10.515
74960W        W44841  34.500  18.190  11.429
74961W        W44842  41.804  30.096  13.839
74962W        W44843  25.011   1.977   2.183
74963W        W44844  39.436  23.024   4.622
74964W        W44845  42.883  35.587  11.083
74965W        W44846   9.187  36.490  13.976
74966W        W44847   3.847  31.643   1.342
74967W        W44848  20.046  23.714   1.930
74968W        W44849  11.629  43.441   2.410
74969W        W44850   4.703  32.430  10.530
74970W        W44851  40.361  34.585   3.285
74971W        W44852  12.761  32.892   1.883
74972W        W44853  20.237  17.644  14.446
74973W        W44854  30.621  30.628  11.904
74974W        W44855   3.747  31.003   4.202
74975W        W44856  38.544  36.420  11.503
74976W        W44857  34.608  44.369   2.667
74977W        W44858  38.430  12.750   2.716
74978W        W44859  29.128   9.671  11.440
74979W        W44860  14.245  42.815  14.395
74980W        W44861  22.583   4.925  12.029
74981W        W44862  33.547  33.527  14.897
74982W        W44863  23.553  19.136   0.346
74983W        W44864  34.076  28.106   2.845
74984W        W44865  38.472  22.524   1.241
74985W        W44866  15.210  22.241  10.478
74986W        W44867  29.944  37.842  11.974
74987W        W44868  26.662   7.873  14.426
74988W        W44869  10.296  25.081  10.037
74989W        W44870  25.576  25.504  11.457
74990W        W44871   5.861  12.327  13.522
74991W        W44872  16.142  35.598  14.422
74992W        W44873   6.680   7.804  10.909
74993W        W44874  19.696  42.957  12.410
74994W        W44875   2.373  28.572   3.690
74995W        W44876  33.009  26.134  14.481
74996W        W44877  18.649  19.697  11.574
74997W        W44878   7.195  40.969  12.496
74998W        W44879  36.951  39.978  11.532
74999W        W44880  10.211  30.095   9.929
75000W        W44881  41.321  12.637   2.791
75001W        W44882  19.735   3.274   2.661
75002W        W44883  18.199   9.240  14.987
75003W        W44884  26.192   7.296   3.359
75004W        W44885  15.158  24.213   4.291
75005W        W44886  17.575  39.358   0.924
75006W        W44887  32.922  22.174   0.338
75007W        W44888  15.766  19.762   5.234
75008W        W44889  19.749  28.581   4.198
75009W        W44890  30.495  27.464   1.434
75010W        W44891   1.311  35.097  10.430
75011W        W44892  36.058  34.496   1.387
75012W        W44893  18.198  11.212  10.514
75013W        W44894  20.108   2.915   0.274
75014W        W44895  25.119   4.402  13.528
75015W        W44896  18.738  11.673   3.198
75016W        W44897  23.583  19.060   1.893
75017W        W44898  22.170  28.491   1.399
75018W        W44899  39.470  26.018   4.157
75019W        W44900   8.218  30.416   0.801
75020W        W44901   1.348  18.073   1.404
75021W        W44902  44.367   4.857  14.820
75022W        W44903   6.733  35.083   2.824
75023W        W44904  26.654  42.787   9.998
75024W        W44905  13.811  15.258   2.854
75025W        W44906  16.142  14.659  14.457
75026W        W44907  16.803   2.343  10.992
75027W        W44908  39.925  26.022   4.677
75028W        W44909  25.197   2.759   4.215
75029W        W44910  10.684  31.114  14.340
75030W        W44911  10.756  19.776   2.373
75031W        W44912  28.557  34.120  13.407
75032W        W44913  39.006  33.905   2.768
75033W        W44914  34.111  27.037   2.879
75034W        W44915  44.997  22.506  13.039
75035W        W44916  10.781  19.090   0.776
75036W        W44917  44.356  22.176  10.574
75037W        W44918   8.821  29.118   0.418
75038W        W44919  26.467  44.434  13.459
75039W        W44920  34.056  27.099   0.761
75040W        W44921  37.915   8.834   2.831
75041W        W44922  23.166  13.194   4.705
75042W        W44923  37.404  32.081   3.287
75043W        W44924  31.589  14.234  10.926
75044W        W44925  15.821   6.300  13.323
75045W        W44926   5.213  25.091  12.558
75046W        W44927  18.227  31.478   3.818
75047W        W44928  36.450  44.457  11.988
75048W        W44929   5.256   5.421   3.227
75049W        W44930  37.968  33.120   1.883
75050W        W44931  37.475  37.335   2.764
75051W        W44932  26.526   7.282   3.307
75052W        W44933   0.862  39.963   4.213
75053W        W44934  41.514  35.443   4.155
75054W        W44935  14.271  15.778  13.453
75055W        W44936  28.063   5.438   4.199
75056W        W44937  44.365   9.193  13.319
75057W        W44938  40.337  29.043  10.463
75058W        W44939  44.353  34.880   4.630
75059W        W44940   6.338  27.678   0.946
75060W        W44941  23.226   4.887   1.928
75061W        W44942  40.466  23.645  11.858
75062W        W44943  30.528  13.637   3.806
75063W        W44944  13.717   7.363   4.146
75064W        W44945  16.083  16.651  11.096
75065W        W44946  43.300  28.605   2.804
75066W        W44947   5.699  39.873   3.202
75067W        W44948  27.456  41.311   0.893
75068W        W44949  35.854  44.455   2.865
75069W        W44950  22.594  29.516   1.777
75070W        W44951  11.692  15.083   1.223
75071W        W44952  40.397   6.768   2.794
75072W        W44953  21.112  38.899  11.375
75073W        W44954  12.721  25.603   2.321
75074W        W44955  14.143  20.619   2.211
75075W        W44956  27.109  39.550  14.304
75076W        W44957   0.411   7.345   0.775
75077W        W44958  39.543  40.037  13.859
75078W        W44959  27.092  33.080  12.455
75079W        W44960  27.652  18.186  11.904
75080W        W44961  23.242  11.260  13.033
75081W        W44962  30.642  40.807   4.150
75082W        W44963  10.353   0.851   0.262
75083W        W44964  27.581  10.174   3.742
75084W        W44965  29.495  44.376   4.121
75085W        W44966   2.355   8.220  12.015
75086W        W44967  42.517   4.761  11.565
75087W        W44968  39.464  38.020   4.705
75088W        W44969   1.276  29.531  11.605
75089W        W44970   9.342  10.360   2.380
75090W        W44971  39.024   9.287  14.790
75091W        W44972  35.953  39.875  13.966
75092W        W44973   1.477  11.850  12.424
75093W        W44974  24.031   6.819   1.855
75094W        W44975   6.683  40.496   1.420
75095W        W44976   4.868  34.472  14.989
75096W        W44977  37.050  22.090  13.018
75097W        W44978  27.955  37.074   1.907
75098W        W44979  14.284  43.512   3.176
75099W        W44980  15.245  36.375  14.783
75100W        W44981  25.576  16.569   2.894
75101W        W44982  38.343  34.426   0.350
75102W        W44983  41.335  34.019   2.882
75103W        W44984  23.494  27.528   3.659
75104W        W44985   3.856   7.390  10.150
75105W        W44986  24.140  12.294   2.413
75106W        W44987   3.328  44.773   4.200
75107W        W44988  43.346   8.398   2.311
75108W        W44989  15.655  29.095  10.500
75109W        W44990   5.439   6.323  13.503
75110W        W44991  26.094   5.734  14.980
75111W        W44992  44.439  14.128  14.991
75112W        W44993  22.705  35.499  11.608
75113W        W44994  31.068  25.520   2.778
75114W        W44995   0.778  24.690  11.860
75115W        W44996  44.337  29.995   1.863
75116W        W44997  13.731  16.611  14.346
75117W        W44998  19.092  26.976   4.269
75118W        W44999  33.488  34.377   0.318
75119W        W45000  33.120  28.588  14.833
75120W        W45001  24.229   1.411   2.738
75121W        W45002  25.199  16.576   0.960
75122W        W45003  27.165  37.511   3.225
75123W        W45004  24.617  21.694   2.836
75124W        W45005  25.564  24.154   1.398
75125W        W45006  42.447  17.629  13.422
75126W        W45007   0.930  38.405   2.212
75127W        W45008   5.848  31.123  13.899
75128W        W45009   1.850  36.994   4.290
75129W        W45010  28.435   9.340  12.525
75130W        W45011  42.918  39.994   3.348
75131W        W45012  24.215  18.277   2.718
75132W        W45013   1.386  35.577  13.993
75133W        W45014  34.024  18.291  10.409
75134W        W45015  26.674  21.193  11.856
75135W        W45016   0.347  29.583   0.848
75136W        W45017   1.804  20.133   0.802
75137W        W45018  38.055  10.271   3.809
75138W        W45019  23.106   9.740   4.257
75139W        W45020  15.596  37.393   2.662
75140W        W45021  41.919  32.990  10.556
75141W        W45022  12.735   1.805  10.555
75142W        W45023  32.041   3.829  13.328
75143W        W45024  36.494  12.274  12.901
75144W        W45025  35.524  27.616   3.330
75145W        W45026  13.625  41.041  13.497
75146W        W45027   3.452  28.522   3.153
75147W        W45028  44.278  15.594  10.569
75148W        W45029   1.822  17.142  11.412
75149W        W45030  35.552  19.590   0.300
75150W        W45031   0.964  11.341   0.729
75151W        W45032  14.104  40.314  14.829
75152W        W45033  14.198  24.496  14.283
75153W        W45034  27.578  29.037  11.125
75154W        W45035   1.291  33.606  12.386
75155W        W45036   3.218  41.338  14.423
75156W        W45037  16.752  38.005  11.436
75157W        W45038  35.023  40.859   0.327
75158W        W45039  10.812  18.778  14.798
75159W        W45040  37.031   5.203   1.366
75160W        W45041   1.855  32.398  14.306
75161W        W45042  34.486  24.190   1.350
75162W        W45043  24.685   9.754  12.446
75163W        W45044  34.081  13.319   4.146
75164W        W45045  41.962  32.560   4.133
75165W        W45046  29.535  39.439   2.182
75166W        W45047  36.469  28.184   3.287
75167W        W45048  16.611  37.029   1.784
75168W        W45049  27.501  39.007   4.145
75169W        W45050  29.104  12.768   2.413
75170W        W45051   0.279   3.236  11.479
75171W        W45052   8.727  37.582  11.898
75172W        W45053  25.969  41.313  11.548
75173W        W45054   2.414   9.671  10.570
75174W        W45055  10.750  25.136   0.451
75175W        W45056  28.963  23.056   3.642
75176W        W45057  33.464   6.794  11.612
75177W        W45058  41.393  27.502   1.767
75178W        W45059  33.399  12.245   4.231
75179W        W45060  28.573  33.944   4.271
75180W        W45061  28.521  39.339   4.262
75181W        W45062  38.429  31.576  13.913
75182W        W45063  15.120  34.017   4.170
75183W        W45064  11.183  35.914   4.740
75184W        W45065  26.162  33.102  13.473
75185W        W45066  22.617  16.760   0.801
75186W        W45067  23.008  11.769  12.029
75187W        W45068  23.534  28.949  11.008
75188W        W45069  15.750  24.491   2.274
75189W        W45070  30.016  26.062   3.297
75190W        W45071  31.577  24.675  14.787
75191W        W45072   0.260  30.465   2.846
75192W        W45073  32.108  22.712   1.793
75193W        W45074   4.264  13.190  12.057
75194W        W45075  39.947  24.170   4.126
75195W        W45076  34.395   5.363  11.976
75196W        W45077   6.844   7.367  14.375
75197W        W45078   0.353   0.287  11.583
75198W        W45079  36.494   7.264  10.480
75199W        W45080  26.137   3.443  13.925
75200W        W45081  15.214  34.948   3.683
75201W        W45082  25.571   7.367  13.386
75202W        W45083   1.258  41.945  14.340
75203W        W45084  36.433  42.871  10.011
75204W        W45085  27.546  38.983   9.936
75205W        W45086  16.126  40.842   2.825
75206W        W45087  33.501  32.474  13.339
75207W        W45088  33.485  35.951   0.963
75208W        W45089   5.276  10.206  11.377
75209W        W45090  38.417  18.204  11.975
75210W        W45091  29.431  41.963  13.450
75211W        W45092  37.007  12.756  12.412
75212W        W45093   8.368  21.549  12.535
75213W        W45094   2.417  30.526   2.213
75214W        W45095   0.462  30.637   4.150
75215W        W45096   0.329  36.082  11.600
75216W        W45097   3.255  42.823  14.277
75217W        W45098  30.430  26.679  10.640
75218W        W45099  25.701  42.808   0.752
75219W        W45100   8.182   6.257  12.995
75220W        W45101  24.037  31.442   0.886
75221W        W45102  26.049  11.278  14.432
75222W        W45103  31.137  16.722  11.014
75223W        W45104  14.180  15.191   1.402
75224W        W45105  10.800  17.641  13.050
75225W        W45106   7.305  20.612   3.370
75226W        W45107  41.492   8.674  13.851
75227W        W45108  39.974  20.706   3.227
75228W        W45109   5.785  22.126  12.069
75229W        W45110  12.145  22.056  12.522
75230W        W45111  39.003  19.079  14.883
75231W        W45112  21.582  17.205   5.781
75232W        W45113  13.155  43.786   3.714
75233W        W45114  35.395  35.492  14.888
75234W        W45115  44.358  27.018   4.808
75235W        W45116  43.824  24.208  14.883
75236W        W45117  42.798  43.804  12.501
75237W        W45118  35.926  22.539   0.477
75238W        W45119  12.695   7.314  11.407
75239W        W45120  18.775  43.823   2.220
75240W        W45121  20.126   3.952  11.009
75241W        W45122  44.380  20.070   2.698
75242W        W45123  22.244  11.707  14.500
75243W        W45124  30.429  44.352   0.278
75244W        W45125  15.096  32.895   3.721
75245W        W45126   8.885  17.564  11.502
75246W        W45127  13.660   6.422   4.171
75247W        W45128  27.692  23.143   5.187
75248W        W45129  28.540  26.093  13.913
75249W        W45130  18.747  29.007  10.020
75250W        W45131  25.196  13.301   1.404
75251W        W45132  43.892  19.738   2.766
75252W        W45133   9.377  13.183   0.370
75253W        W45134  13.807  43.792  10.405
75254W        W45135  35.444  32.988   0.899
75255W        W45136  24.479  32.473  12.906
75256W        W45137  41.500   6.312   0.951
75257W        W45138  34.931  28.146   4.243
75258W        W45139  43.302  15.698  11.537
75259W        W45140  26.980  11.700   4.681
75260W        W45141  17.093  43.331   2.381
75261W        W45142  16.259  43.011  14.305
75262W        W45143  20.734  43.320  11.013
75263W        W45144  10.332  30.936   2.860
75264W        W45145  28.108  28.996   2.310
75265W        W45146  28.495  23.155   0.473
75266W        W45147  39.893   0.344  11.973
75267W        W45148  26.548  19.774   3.853
75268W        W45149  32.123   0.411  12.443
75269W        W45150  25.044  29.075  12.062
75270W        W45151  19.738  22.641   5.118
75271W        W45152  28.505  41.866   3.747
75272W        W45153  14.607  38.860  14.026
75273W        W45154   6.211  30.568   0.863
75274W        W45155   2.300   6.211   1.257
75275W        W45156  41.482   8.782  14.832
75276W        W45157  42.976  20.058  13.380
75277W        W45158  26.593  44.978  13.802
75278W        W45159   6.293  24.229   2.295
75279W        W45160  41.399  30.459  13.950
75280W        W45161  44.854  14.655   0.318
75281W        W45162  37.348   5.851  10.118
75282W        W45163  43.466  21.111  12.931
75283W        W45164   3.428  41.966   1.231
75284W        W45165  35.986  13.690   0.764
75285W        W45166  30.997  18.228   9.508
75286W        W45167  43.908   9.818  12.383
75287W        W45168   2.397  40.938   3.232
75288W        W45169  44.333   4.261  11.483
75289W        W45170  10.335  39.812  13.039
75290W        W45171  23.114  17.282  13.834
75291W        W45172  41.533  16.194  13.910
75292W        W45173  13.188   0.923  12.356
75293W        W45174  13.299  33.989   1.355
75294W        W45175  37.403  36.432   2.700
75295W        W45176   9.662  41.930   1.894
75296W        W45177  34.398   6.739  12.853
75297W        W45178  40.812  13.699   1.843
75298W        W45179  11.331   5.416   2.293
75299W        W45180  29.515  35.487  12.493
75300W        W45181  36.015  43.818  13.858
75301W        W45182  11.358  39.550  13.428
75302W        W45183  13.630   0.794  10.952
75303W        W45184  32.608   2.802  12.842
75304W        W45185  20.672  30.561   0.817
75305W        W45186  30.037  27.178  14.433
75306W        W45187  10.178  32.423  12.867
75307W        W45188   5.333  40.505  14.908
75308W        W45189  15.628   8.265  11.539
75309W        W45190  41.897   0.780  12.901
75310W        W45191  15.596  16.109  14.488
75311W        W45192  11.127  12.135   3.246
75312W        W45193  10.740  15.649   1.353
75313W        W45194   6.428   2.288   3.303
75314W        W45195  35.523  40.420   4.321
75315W        W45196  11.821  32.082   0.870
75316W        W45197   2.940  19.611  13.988
75317W        W45198  27.447  31.113  12.943
75318W        W45199  43.379  42.902   2.851
75319W        W45200  35.363   0.909  12.478
75320W        W45201  43.846  43.912  12.854
75321W        W45202  12.297  29.625   4.146
75322W        W45203  39.836  34.377  13.513
75323W        W45204  28.677  25.195  10.026
75324W        W45205  32.950  38.906   1.334
75325W        W45206  28.651   4.214   1.283
75326W        W45207  25.187  19.624  12.858
75327W        W45208  43.411   7.873   1.831
75328W        W45209  13.688  38.974   9.450
75329W        W45210  41.441  21.233  14.486
75330W        W45211  28.621  39.485   1.782
75331W        W45212  43.392  43.425  12.913
75332W        W45213  26.475  40.534  10.529
75333W        W45214   2.777  17.735  14.507
75334W        W45215  41.927  18.622  14.347
75335W        W45216   5.712  20.036  13.935
75336W        W45217   5.373  23.016  12.875
75337W        W45218  38.338  16.600  14.888
75338W        W45219  26.002  35.893  12.546
75339W        W45220  15.092  13.808   1.928
75340W        W45221   8.195  38.487  14.796
75341W        W45222   9.263  41.931  11.536
75342W        W45223   3.867  27.603   2.795
75343W        W45224  30.117  38.411   3.223
75344W        W45225  33.542  33.381  11.074
75345W        W45226  32.406   5.272   4.653
75346W        W45227   6.344  38.368   4.289
75347W        W45228  42.491  40.806   3.840
75348W        W45229  33.040  28.943   2.809
75349W        W45230  10.798   1.785  10.459
75350W        W45231  43.000  11.200  14.483
75351W        W45232   0.751  18.234   3.781
75352W        W45233  28.584  39.008   0.350
75353W        W45234  43.952  27.992  12.542
75354W        W45235   9.852  11.777   1.723
75355W        W45236  30.452  10.812   2.688
75356W        W45237  29.995   7.234   4.764
75357W        W45238   7.350  39.410  13.316
75358W        W45239  31.043  38.527   0.330
75359W        W45240  11.628   7.389  12.009
75360W        W45241  23.072  42.801  13.873
75361W        W45242  43.290  27.102  14.352
75362W        W45243  13.814  22.195   3.857
75363W        W45244   6.854  32.584  12.531
75364W        W45245  30.046   4.701   1.348
75365W        W45246  33.890  34.582   4.716
75366W        W45247  44.264   2.309  12.442
75367W        W45248  32.618  32.583  11.558
75368W        W45249  18.730  10.709   4.213
75369W        W45250  26.698   9.751   4.679
75370W        W45251  35.017  27.031  12.498
75371W        W45252  35.492  34.532  13.441
75372W        W45253  42.518   2.406  12.370
75373W        W45254  43.394   8.397   1.755
75374W        W45255   0.868   5.692   2.366
75375W        W45256  31.609  25.562  11.064
75376W        W45257  27.526  33.591  12.002
75377W        W45258  20.149   2.408  12.553
75378W        W45259  10.682  28.997  12.356
75379W        W45260  25.632  36.973   3.721
75380W        W45261  27.072   9.678   0.741
75381W        W45262  10.378  22.665   1.240
75382W        W45263  38.493  40.813   4.807
75383W        W45264  19.594  19.669  11.053
75384W        W45265  43.321  16.121   1.828
75385W        W45266   3.734  12.717   3.278
75386W        W45267  40.526  20.041   3.379
75387W        W45268  13.210   4.224   2.713
75388W        W45269  32.973  43.299   3.179
75389W        W45270   1.922  19.218  12.372
75390W        W45271  22.630  37.994  12.064
75391W        W45272   8.801  24.489  10.613
75392W        W45273  24.640  22.057  14.445
75393W        W45274  36.968   5.370  14.866
75394W        W45275  43.942  22.719   0.458
75395W        W45276  40.862  32.564  12.898
75396W        W45277  23.500   1.343  11.543
75397W        W45278  14.794  42.008   1.450
75398W        W45279  40.816  17.569  12.957
75399W        W45280  17.776   2.378  14.849
75400W        W45281  26.680  44.317  11.444
75401W        W45282   8.712   4.887   3.732
75402W        W45283  38.044  21.063  10.983
75403W        W45284  42.989  27.659  10.468
75404W        W45285   6.333  20.034  13.481
75405W        W45286  28.435  10.290   1.877
75406W        W45287  39.448  29.657   3.330
75407W        W45288  34.452  20.109  10.406
75408W        W45289  30.641   2.320  13.015
75409W        W45290  24.697  11.282   3.373
75410W        W45291  37.548  10.635   3.829
75411W        W45292  31.448  39.024  14.778
75412W        W45293  25.052  42.392  14.824
75413W        W45294  43.298   2.271  13.524
75414W        W45295  33.423  31.054   1.756
75415W        W45296   0.899  26.149   2.773
75416W        W45297  32.513   9.706   0.350
75417W        W45298  13.316  28.562  13.529
75418W        W45299  32.603  35.432   2.287
75419W        W45300   1.962  29.627   1.694
75420W        W45301  17.221  33.413   3.863
75421W        W45302  14.112  40.478  10.482
75422W        W45303  35.027  21.609   4.649
75423W        W45304  10.674  11.269   3.169
75424W        W45305   2.427  22.211  13.054
75425W        W45306   2.843   0.426   0.873
75426W        W45307   7.779  31.452  11.114
75427W        W45308  44.755  37.832   4.336
75428W        W45309  31.532  34.891   2.288
75429W        W45310   0.347  13.827   1.396
75430W        W45311  36.524  30.581  10.958
75431W        W45312   5.194   5.700   4.165
75432W        W45313  18.207   7.705  10.599
75433W        W45314   6.212  31.414   4.165
75434W        W45315  21.723  19.624  14.499
75435W        W45316  43.298  21.605   3.695
75436W        W45317  43.376  19.161  13.326
75437W        W45318  21.222  14.184   3.337
75438W        W45319  42.946   4.272   3.634
75439W        W45320  19.743   8.353   4.248
75440W        W45321  18.101   9.864  12.390
75441W        W45322   7.892  37.348  14.955
75442W        W45323   3.454  23.159   2.753
75443W        W45324   2.326   0.796  13.038
75444W        W45325  19.071   6.230   3.382
75445W        W45326  28.149  39.035  10.570
75446W        W45327  12.204   5.382  11.068
75447W        W45328   1.478  36.376  13.411
75448W        W45329   1.323  39.355   3.252
75449W        W45330   7.308  32.520   2.180
75450W        W45331  25.552  17.140   1.869
75451W        W45332  39.325  23.662  14.829
75452W        W45333  16.269  41.820   4.327
75453W        W45334  19.668  12.817  12.001
75454W        W45335  16.764   3.356  14.359
75455W        W45336  43.275   2.238   0.901
75456W        W45337  24.049  41.802  14.448
75457W        W45338  40.971  26.538   3.828
75458W        W45339   8.317   9.391  11.508
75459W        W45340  42.851   2.410  13.432
75460W        W45341  36.438  38.967  13.452
75461W        W45342  10.151  35.069  14.491
75462W        W45343  19.105  23.640  13.966
75463W        W45344  42.781  19.542   4.323
75464W        W45345  24.487   8.761   0.293
75465W        W45346  41.318  27.620  10.521
75466W        W45347  17.157  30.619   5.148
75467W        W45348  13.270  43.476  14.832
75468W        W45349  22.626  27.663  10.973
75469W        W45350  34.101   4.933  10.892
75470W        W45351  10.242  42.345   0.883
75471W        W45352  38.402  24.714  13.345
75472W        W45353  19.261   1.318   1.357
75473W        W45354  13.131   0.250  14.888
75474W        W45355  43.804  33.400   2.851
75475W        W45356  32.418  15.635  10.503
75476W        W45357   4.259  22.179  12.568
75477W        W45358  18.648  36.500   0.439
75478W        W45359   9.378  34.500  12.547
75479W        W45360  34.897  14.211  10.437
75480W        W45361   9.341  30.988   3.726
75481W        W45362   3.361   2.354   4.316
75482W        W45363  32.901  30.078   1.359
75483W        W45364  37.554   6.216   3.748
75484W        W45365  21.545  32.611  11.382
75485W        W45366  41.392  34.467   0.455
75486W        W45367  33.882   9.351   0.480
75487W        W45368  17.192  24.990  13.035
75488W        W45369   8.692  19.725  11.009
75489W        W45370   2.752   6.886  13.822
75490W        W45371  12.856  41.337   1.352
75491W        W45372  14.217  12.627  12.433
75492W        W45373  33.601   8.721   3.846
75493W        W45374  14.174  24.073   1.758
75494W        W45375  26.011  31.614   3.185
75495W        W45376  16.713   3.347   1.293
75496W        W45377  34.044  13.605   1.416
75497W        W45378  40.308  43.395  14.421
75498W        W45379  30.423  22.731   0.330
75499W        W45380  33.578   8.678  12.376
75500W        W45381  21.079  13.645  13.481
75501W        W45382  21.243  34.512   0.365
75502W        W45383  42.775  31.503  12.012
75503W        W45384  35.597  16.728   0.887
75504W        W45385  41.037  24.026   2.815
75505W        W45386  32.004  33.107  12.482
75506W        W45387  40.451  38.369   1.780
75507W        W45388   9.817  43.968   4.233
75508W        W45389  21.530   9.665  11.054
75509W        W45390   7.822  24.658   2.415
75510W        W45391  29.431  31.122  10.601
75511W        W45392  32.053  37.385   4.763
75512W        W45393  41.859  42.359  10.937
75513W        W45394  19.174  36.366  12.927
75514W        W45395  36.855  21.252   3.270
75515NA+    NA+45396  38.382   5.723  14.360
75516NA+    NA+45397  35.575  35.411  10.580
75517NA+    NA+45398  37.004  21.105   2.357
75518NA+    NA+45399   0.866  14.113   3.651
75519NA+    NA+45400  29.458  20.562  12.827
75520NA+    NA+45401  10.790  29.588   3.671
75521NA+    NA+45402  44.337   2.329   4.203
75522NA+    NA+45403   0.293   2.229  13.866
75523NA+    NA+45404  16.117   7.347  11.612
75524NA+    NA+45405  13.270  44.876  14.490
75525NA+    NA+45406  42.309  42.821  10.565
75526NA+    NA+45407  26.020  30.157   0.914
75527NA+    NA+45408  18.057   2.369  13.403
75528NA+    NA+45409   1.776  15.586   1.404
75529NA+    NA+45410  32.565  29.954   0.904
75530NA+    NA+45411  25.662   2.320  14.886
75531NA+    NA+45412   7.798  23.676  13.021
75532NA+    NA+45413  31.610  22.033   3.868
75533NA+    NA+45414   7.770   1.951   1.318
75534NA+    NA+45415   0.912   2.885   3.744
75535NA+    NA+45416  17.260  24.510  11.954
75536NA+    NA+45417  27.551   2.445  11.479
75537NA+    NA+45418  16.180  43.888   3.294
75538NA+    NA+45419   8.391  14.112   2.410
75539NA+    NA+45420  37.550  24.102  12.354
75540NA+    NA+45421  35.065  26.026   3.737
75541NA+    NA+45422   7.744  15.657  11.050
75542NA+    NA+45423  44.401  35.860  11.392
75543NA+    NA+45424  25.085  11.739   0.381
75544NA+    NA+45425  25.489  22.087   2.302
75545NA+    NA+45426  41.043   7.281  10.636
75546NA+    NA+45427  29.472  14.686   0.907
75547NA+    NA+45428  11.193  32.060  12.935
75548NA+    NA+45429  38.936   5.403  14.901
75549NA+    NA+45430  39.438  40.472  11.613
75550NA+    NA+45431   7.866  34.558  12.348
75551NA+    NA+45432  28.565  37.049   2.795
75552NA+    NA+45433  41.912  20.091  13.318
75553NA+    NA+45434   4.931  24.676   2.738
75554NA+    NA+45435  44.841   9.220  12.440
75555NA+    NA+45436  14.625  29.995   1.338
75556NA+    NA+45437  13.798  20.615   3.283
75557NA+    NA+45438  39.968   3.430  11.864
75558NA+    NA+45439  17.582  38.824  13.416
75559NA+    NA+45440  16.303  33.076  12.912
75560NA+    NA+45441  15.103  27.132   1.392
75561NA+    NA+45442   8.257  28.636  13.940
75562NA+    NA+45443  24.228   8.756  14.490
75563NA+    NA+45444  44.358  38.940  13.837
75564NA+    NA+45445  43.765  27.015  10.509
75565NA+    NA+45446  17.109   3.254   1.333
75566NA+    NA+45447  22.220   0.760   5.180
75567NA+    NA+45448  12.854  29.127   5.308
75568NA+    NA+45449  21.516  30.486   4.795
75569NA+    NA+45450  23.645  39.330   1.897
75570NA+    NA+45451  33.960  40.926  14.415
75571NA+    NA+45452   9.865  11.330   3.807
75572NA+    NA+45453  38.550  17.220  12.479
75573NA+    NA+45454   5.882  32.116   2.277
75574NA+    NA+45455  42.906  32.987  11.076
75575NA+    NA+45456  25.174  32.504   2.767
75576NA+    NA+45457  28.987   1.391   2.881
75577NA+    NA+45458  35.946  11.130   4.769
75578NA+    NA+45459   7.736   2.907   4.337
75579NA+    NA+45460  30.547  41.310  11.881
75580NA+    NA+45461  16.643  29.484   1.714
75581NA+    NA+45462  32.425  28.462   2.193
75582NA+    NA+45463   7.297   1.272   4.648
75583NA+    NA+45464   8.337  35.582   2.383
75584NA+    NA+45465  41.394  28.176   2.375
75585NA+    NA+45466  28.518  32.022   1.909
75586NA+    NA+45467  15.798  27.153   4.136
75587NA+    NA+45468  39.815  38.465   2.823
75588NA+    NA+45469   6.294   5.418   0.884
75589NA+    NA+45470  28.456  30.543   0.266
75590NA+    NA+45471  25.710  16.811  11.106
75591NA+    NA+45472  34.974   2.304  13.824
75592NA+    NA+45473  25.098  11.842   2.349
75593NA+    NA+45474  42.776  36.479  11.980
75594NA+    NA+45475  13.157  17.748   3.707
75595NA+    NA+45476  23.239  27.630  12.400
75596NA+    NA+45477  31.957   9.767   1.361
75597NA+    NA+45478  29.578   3.240   3.344
75598NA+    NA+45479  31.463  14.763   1.810
75599NA+    NA+45480  18.172   4.245  11.004
75600NA+    NA+45481  23.991   7.334  10.509
75601NA+    NA+45482   7.364  37.045   2.821
75602NA+    NA+45483  15.270  35.945  13.976
75603NA+    NA+45484   8.876   5.230   0.955
75604NA+    NA+45485   6.363  37.516   1.408
75605NA+    NA+45486  35.555  18.180  12.445
75606NA+    NA+45487  21.602  12.338  12.978
75607NA+    NA+45488   4.926  33.601  14.908
75608NA+    NA+45489  18.279  11.189   0.850
75609NA+    NA+45490  34.572   2.359  14.836
75610NA+    NA+45491  33.958   5.233  11.612
75611NA+    NA+45492  30.940  13.223   3.791
75612NA+    NA+45493  44.006  12.223   1.812
75613NA+    NA+45494   2.295   6.857   1.918
75614NA+    NA+45495  44.797  30.078   2.667
75615NA+    NA+45496   7.184  20.690   2.760
75616NA+    NA+45497  31.012  16.666   4.173
75617NA+    NA+45498   6.837  10.848   3.339
75618NA+    NA+45499  37.457  26.459   2.363
75619NA+    NA+45500   0.760   7.362  13.848
75620NA+    NA+45501  35.410  18.066   3.842
75621NA+    NA+45502  29.538  24.158   4.144
75622NA+    NA+45503  36.463  18.761  12.394
75623NA+    NA+45504  40.003   4.872   1.773
75624NA+    NA+45505  17.251   3.264   1.891
75625NA+    NA+45506  40.975  12.309   1.868
75626NA+    NA+45507  19.152  28.496   5.114
75627NA+    NA+45508  41.003   1.787  13.034
75628NA+    NA+45509   0.766  16.270  11.514
75629NA+    NA+45510  31.487  25.081   3.654
75630NA+    NA+45511  39.499  36.899   2.402
75631NA+    NA+45512  25.162   2.344   4.705
75632NA+    NA+45513  26.663   8.198   4.786
75633NA+    NA+45514  29.468   5.724  13.512
75634NA+    NA+45515  27.987  10.833   0.858
75635NA+    NA+45516  19.155  35.447  12.516
75636NA+    NA+45517  34.884  36.561  13.912
75637NA+    NA+45518  39.872   6.754   3.700
75638NA+    NA+45519  31.052  41.979  10.559
75639NA+    NA+45520   8.344  26.701   0.952
75640NA+    NA+45521  29.057  16.305   1.917
75641NA+    NA+45522  15.595  34.488  14.373
75642NA+    NA+45523  17.691  36.542  11.089
75643NA+    NA+45524  34.904  28.479  12.967
75644NA+    NA+45525   8.195  33.503  10.603
75645NA+    NA+45526  19.552  10.719   0.881
75646NA+    NA+45527   1.423  27.178   0.384
75647NA+    NA+45528  39.912  16.227   0.257
75648NA+    NA+45529  39.505  14.660  10.902
75649NA+    NA+45530  30.993  15.217  13.530
75650NA+    NA+45531  18.055  41.898   4.234
75651NA+    NA+45532  28.578  35.907  11.872
75652NA+    NA+45533  18.068  43.296   2.393
75653NA+    NA+45534  35.091  43.294  13.481
75654NA+    NA+45535  32.142   5.214   0.732
75655NA+    NA+45536  44.408  12.166  12.838
75656NA+    NA+45537   9.394  44.352   4.167
75657NA+    NA+45538   4.205  42.933  14.351
75658NA+    NA+45539   3.793  19.284  14.478
75659NA+    NA+45540  13.174  19.692  13.395
75660NA+    NA+45541  34.941  20.242  13.395
75661NA+    NA+45542  23.008   4.714   2.702
75662NA+    NA+45543  44.948   2.767   2.394
75663NA+    NA+45544  32.914  16.103   5.767
75664NA+    NA+45545   6.727  39.418   2.860
75665NA+    NA+45546  39.814  32.991   2.701
75666NA+    NA+45547   8.860  27.954  14.860
75667NA+    NA+45548  43.816  15.785  11.374
75668NA+    NA+45549  16.768  18.162  11.372
75669NA+    NA+45550  18.230  43.307  13.464
75670NA+    NA+45551  19.175  25.094   1.443
75671NA+    NA+45552   9.813   7.820  13.796
75672NA+    NA+45553  37.028  33.120  13.995
75673NA+    NA+45554  37.473  29.555   1.851
75674NA+    NA+45555  24.584  10.159  10.055
75675NA+    NA+45556   3.749  13.719   3.667
75676NA+    NA+45557  33.949  28.490  11.912
75677NA+    NA+45558  41.018  18.577  14.461
75678NA+    NA+45559   1.274   6.878  13.358
75679NA+    NA+45560  42.858  43.511  11.872
75680NA+    NA+45561  40.437  35.603  12.039
75681NA+    NA+45562   6.239  40.498   2.199
75682NA+    NA+45563  39.909  30.137   3.335
75683NA+    NA+45564   1.338  33.922  12.024
75684NA+    NA+45565  25.969  44.849   1.701
75685NA+    NA+45566  37.972  36.074  11.431
75686NA+    NA+45567  33.419  31.529   1.873
75687NA+    NA+45568  24.999  19.649  10.490
75688NA+    NA+45569  38.340  25.218   1.325
75689NA+    NA+45570   3.818  33.978   3.757
75690NA+    NA+45571  31.065  44.455  14.955
75691NA+    NA+45572   4.362  13.125   1.339
75692NA+    NA+45573   9.355  13.205  13.454
75693NA+    NA+45574  43.378  25.053  10.414
75694NA+    NA+45575  21.756  41.463  13.985
75695NA+    NA+45576  33.888  43.465  11.909
75696NA+    NA+45577   4.938  43.831  12.929
75697NA+    NA+45578  31.584   6.297   2.782
75698NA+    NA+45579  19.559  34.102   2.743
75699NA+    NA+45580  14.289  21.104   3.711
75700NA+    NA+45581  28.522  41.538  14.340
75701NA+    NA+45582  19.675  36.879   3.372
75702NA+    NA+45583  44.867  17.612  14.346
75703NA+    NA+45584   4.849  15.609  11.430
75704NA+    NA+45585  26.098  25.115  12.964
75705NA+    NA+45586  13.816   6.770  13.360
75706NA+    NA+45587  31.073  20.034  12.932
75707NA+    NA+45588  28.970  29.628  14.386
75708NA+    NA+45589   5.831   7.275  10.637
75709NA+    NA+45590   4.776  32.138   1.699
75710NA+    NA+45591  28.997  37.025  12.929
75711NA+    NA+45592  20.619   0.822   5.696
75712NA+    NA+45593  10.692   0.382   0.913
75713NA+    NA+45594   7.178  28.034  11.553
75714NA+    NA+45595  12.617  17.796   5.195
75715NA+    NA+45596  31.131  19.711   3.208
75716NA+    NA+45597  32.985   3.372   2.733
75717NA+    NA+45598  39.827  35.496   0.447
75718NA+    NA+45599  44.802   3.302  12.508
75719NA+    NA+45600  38.890   4.447   4.227
75720NA+    NA+45601  34.501   8.740  11.571
75721NA+    NA+45602  16.709  31.558   1.752
75722NA+    NA+45603  26.546  40.868   3.685
75723NA+    NA+45604  19.711  19.617  14.470
75724NA+    NA+45605  35.470  22.664   2.373
75725NA+    NA+45606  29.058  43.495  11.047
75726NA+    NA+45607  28.154  34.926   2.338
75727NA+    NA+45608  39.551  29.451   4.300
75728NA+    NA+45609  43.778  32.015   2.679
75729NA+    NA+45610   9.190  34.558  13.941
75730NA+    NA+45611  34.084  22.517   2.664
75731NA+    NA+45612  33.468  42.502  12.365
75732NA+    NA+45613  32.928  24.650  12.039
75733NA+    NA+45614  23.081  13.152  12.523
75734NA+    NA+45615  21.619  19.098  11.948
75735NA+    NA+45616   7.838  24.516   4.698
75736NA+    NA+45617  35.399  30.608   3.635
75737NA+    NA+45618  31.418  33.539   0.767
75738NA+    NA+45619   4.219  25.202   1.256
75739NA+    NA+45620  43.898  38.073  13.005
75740NA+    NA+45621  35.878  17.206   3.186
75741NA+    NA+45622   4.890  41.315  10.477
75742NA+    NA+45623  31.435  26.082   4.791
75743NA+    NA+45624  43.806  33.580   2.349
75744NA+    NA+45625   9.791  19.073  12.027
75745NA+    NA+45626  41.927  34.114   2.419
75746NA+    NA+45627  28.568  24.993  12.980
75747NA+    NA+45628  44.984  13.715  11.550
75748NA+    NA+45629  16.077  15.228  11.579
75749NA+    NA+45630  25.085  29.143   4.609
75750NA+    NA+45631  35.385   5.813   4.172
75751NA+    NA+45632  10.181  11.818  14.988
75752NA+    NA+45633   5.906  10.842  14.405
75753NA+    NA+45634   1.315  19.590  12.881
75754NA+    NA+45635   2.871  14.191   2.261
75755NA+    NA+45636  21.116  26.073   0.471
75756NA+    NA+45637  11.639  34.111   2.221
75757NA+    NA+45638  35.364  25.033   4.238
75758NA+    NA+45639  38.549  15.325   1.394
75759NA+    NA+45640   3.418  23.644  12.041
75760NA+    NA+45641  14.784  12.649  14.427
75761NA+    NA+45642   8.896  19.262  14.283
75762NA+    NA+45643   0.466  42.340  13.895
75763NA+    NA+45644  25.168  18.149  13.480
75764NA+    NA+45645  38.995   0.440  14.784
75765NA+    NA+45646   2.817   3.372  12.471
75766NA+    NA+45647  12.215  26.566  13.875
75767NA+    NA+45648  36.588  30.004  10.637
75768NA+    NA+45649  16.248  13.185  12.569
75769NA+    NA+45650   6.768  34.559  11.052
75770NA+    NA+45651  42.932  24.013   3.240
75771NA+    NA+45652  26.082   1.345  10.471
75772NA+    NA+45653  29.072   1.327   4.258
75773NA+    NA+45654   0.286   8.707   5.241
75774NA+    NA+45655  36.912  21.642   4.156
75775NA+    NA+45656  25.650  19.230  11.070
75776NA+    NA+45657  19.152   9.674   1.799
75777NA+    NA+45658  23.039  12.184   2.211
75778NA+    NA+45659  15.242  14.217   2.198
75779NA+    NA+45660  33.044   5.368  12.940
75780NA+    NA+45661  31.902  29.637  11.429
75781NA+    NA+45662  22.608   7.312  12.370
75782NA+    NA+45663  44.906  20.118   1.824
75783NA+    NA+45664   2.249   8.766  14.507
75784NA+    NA+45665   8.760   3.451  11.960
75785NA+    NA+45666  42.826  10.696   0.378
75786NA+    NA+45667  32.021  27.038   4.793
75787NA+    NA+45668  31.597  26.566   5.171
75788NA+    NA+45669  43.335   1.813  10.489
75789NA+    NA+45670  20.674  26.475   1.932
75790NA+    NA+45671  37.563  39.383  13.988
75791NA+    NA+45672  37.002   7.827  12.438
75792NA+    NA+45673  33.456  10.712  14.462
75793NA+    NA+45674   0.794   1.461   3.673
75794NA+    NA+45675  31.052   7.668   3.841
75795NA+    NA+45676  37.354   3.804   3.729
75796NA+    NA+45677  16.237   3.432  11.937
75797NA+    NA+45678  17.613  31.911  10.590
75798NA+    NA+45679  41.495  24.172  12.385
75799NA+    NA+45680  14.278  28.487  10.609
75800NA+    NA+45681   9.747   3.459  13.311
75801NA+    NA+45682  20.544   3.391  12.999
75802NA+    NA+45683  27.192  16.269  11.588
75803NA+    NA+45684  42.468  39.026  13.812
75804NA+    NA+45685  36.393  39.557   4.243
75805NA+    NA+45686  10.357  18.720  14.823
75806NA+    NA+45687  25.552  37.424  12.400
75807NA+    NA+45688  11.651  14.227  14.507
75808NA+    NA+45689   9.163  34.893  14.027
75809NA+    NA+45690  17.229  44.934   1.346
75810NA+    NA+45691   0.277   3.372  14.297
75811NA+    NA+45692  15.691  18.632  14.912
75812NA+    NA+45693  14.637  32.437   3.775
75813NA+    NA+45694  44.280  41.538  13.856
75814NA+    NA+45695  16.116   8.675   5.239
75815NA+    NA+45696  34.926  28.069   1.698
75816NA+    NA+45697   7.666  30.623  14.462
75817NA+    NA+45698   2.783   7.784   3.780
75818NA+    NA+45699  15.645  15.216   3.146
75819NA+    NA+45700  43.381  30.455  11.084
75820NA+    NA+45701  26.102   2.925   3.364
75821NA+    NA+45702  39.863  13.747   1.839
75822NA+    NA+45703  33.099  23.671   0.852
75823NA+    NA+45704   7.272  27.476  14.979
75824NA+    NA+45705  16.154  25.707   4.693
75825NA+    NA+45706   4.743  27.180   2.822
75826NA+    NA+45707  13.734  42.334   0.421
75827NA+    NA+45708  18.593  37.979  12.849
75828NA+    NA+45709  21.126  37.844  10.566
75829NA+    NA+45710  18.762  15.306  12.088
75830NA+    NA+45711   3.889  25.566  11.905
75831NA+    NA+45712  34.514   0.300   2.359
75832NA+    NA+45713  13.772  27.983  14.907
75833NA+    NA+45714  28.104   6.335   9.986
75834NA+    NA+45715  42.851  34.889  11.537
75835NA+    NA+45716   0.295  29.657  10.580
75836NA+    NA+45717  22.242  33.451  10.927
75837NA+    NA+45718  30.547   2.812  12.843
75838NA+    NA+45719  17.632  41.294  13.329
75839NA+    NA+45720   3.351  42.298   4.141
75840NA+    NA+45721  12.334  20.120   4.645
75841NA+    NA+45722  16.711  17.242   0.759
75842NA+    NA+45723  38.462   1.809  13.481
75843NA+    NA+45724  44.990  44.901  10.503
75844NA+    NA+45725   9.665   8.898  14.974
75845NA+    NA+45726  43.789   8.224   4.703
75846NA+    NA+45727  18.059  34.937  14.299
75847NA+    NA+45728  25.052  32.977   1.286
75848NA+    NA+45729  24.581   1.251   0.787
75849NA+    NA+45730  40.517   0.335  11.128
75850NA+    NA+45731  23.098  43.921  11.516
75851NA+    NA+45732   0.481  25.962   0.887
75852NA+    NA+45733  29.483  34.603  12.484
75853NA+    NA+45734  25.063  25.983  11.409
75854NA+    NA+45735  32.975  19.580  12.868
75855NA+    NA+45736  24.667  44.396  11.035
75856NA+    NA+45737  16.201   3.423   1.210
75857NA+    NA+45738  16.316  10.715  14.961
75858NA+    NA+45739  41.457  39.451   1.383
75859NA+    NA+45740  22.684   1.906   4.352
75860NA+    NA+45741  16.704  20.250   0.369
75861NA+    NA+45742  28.644  41.329   0.407
75862NA+    NA+45743  13.237  19.207   4.628
75863NA+    NA+45744  43.864   1.886   1.434
75864NA+    NA+45745  37.946  18.135   4.637
75865NA+    NA+45746  27.085  40.912  11.096
75866NA+    NA+45747  31.402  12.769   4.283
75867NA+    NA+45748   7.198  36.467  11.115
75868NA+    NA+45749  20.666   7.677  13.978
75869NA+    NA+45750  20.271  13.625  12.992
75870NA+    NA+45751  27.132  28.675   4.635
75871NA+    NA+45752  32.436  11.770  14.876
75872NA+    NA+45753  43.435  38.935   4.210
75873NA+    NA+45754   4.289   6.823  14.952
75874NA+    NA+45755  39.043   8.217  10.892
75875NA+    NA+45756  29.562  30.912   3.819
75876NA+    NA+45757  40.878  36.571   2.692
75877NA+    NA+45758  36.843  20.539  11.018
75878NA+    NA+45759  40.318  40.819  11.577
75879NA+    NA+45760  33.511  44.359  13.912
75880NA+    NA+45761   4.887  29.637  12.364
75881NA+    NA+45762  35.019  18.703  11.919
75882NA+    NA+45763   1.353  39.894   0.785
75883NA+    NA+45764  43.869   3.812  13.039
75884NA+    NA+45765  17.674  13.825   0.840
75885NA+    NA+45766  16.095  27.615   0.413
75886NA+    NA+45767   1.470  44.864   3.734
75887NA+    NA+45768  31.593  28.086  10.627
75888NA+    NA+45769  38.484  42.976   2.733
75889NA+    NA+45770  39.928   2.807  12.560
75890NA+    NA+45771  29.125  25.476  12.853
75891NA+    NA+45772   6.379  40.855  13.913
75892NA+    NA+45773   6.778  11.331   2.740
75893NA+    NA+45774   0.465   1.919   3.203
75894NA+    NA+45775  29.050   6.824  14.435
75895NA+    NA+45776  24.522  25.475  12.959
75896NA+    NA+45777  27.944  19.220  10.597
75897NA+    NA+45778  38.443  14.207   3.852
75898NA+    NA+45779   2.746  18.567   4.689
75899NA+    NA+45780  26.174  16.228   3.183
75900NA+    NA+45781  16.673  32.122   2.256
75901NA+    NA+45782  20.630  16.232  11.055
75902NA+    NA+45783   7.762  11.650  13.888
75903NA+    NA+45784  24.065  34.475  11.874
75904NA+    NA+45785  12.773  36.579   2.365
75905NA+    NA+45786  10.811  24.030   3.318
75906NA+    NA+45787  28.976  34.554   4.179
75907NA+    NA+45788   2.305  16.198  11.043
75908NA+    NA+45789  30.088  26.468  11.897
75909NA+    NA+45790  27.135  19.253  11.606
75910NA+    NA+45791  17.184  38.507   4.640
75911NA+    NA+45792   5.790  13.222  11.465
75912NA+    NA+45793   6.389  44.381  14.389
75913NA+    NA+45794  10.786  26.602   1.398
75914NA+    NA+45795  29.111   0.366  11.556
75915NA+    NA+45796  36.874  27.148  13.036
75916NA+    NA+45797  12.750  43.772  13.343
75917NA+    NA+45798  29.165  26.499  10.475
75918NA+    NA+45799  38.916  17.119  12.008
75919NA+    NA+45800  41.891  41.296  12.901
75920NA+    NA+45801  11.242  11.649  13.802
75921NA+    NA+45802  40.880  13.305  14.344
75922NA+    NA+45803  25.669  30.117   0.267
75923NA+    NA+45804  21.021  37.869  12.065
75924NA+    NA+45805   1.885  13.647   0.947
75925NA+    NA+45806  35.075  40.354  12.499
75926NA+    NA+45807  32.430  43.010   1.279
75927NA+    NA+45808  41.792   8.716   2.388
75928NA+    NA+45809  18.584  26.187  10.617
75929NA+    NA+45810  25.474  23.189   2.876
75930NA+    NA+45811  20.676  27.118   1.364
75931NA+    NA+45812  15.737  20.075  14.388
75932NA+    NA+45813  18.743   0.923  12.883
75933NA+    NA+45814  15.721  14.617  14.946
75934NA+    NA+45815  12.711  29.531  11.589
75935NA+    NA+45816  29.502  35.574  14.809
75936NA+    NA+45817   8.329  30.593   4.330
75937NA+    NA+45818  30.635   7.367  14.800
75938NA+    NA+45819  41.426  31.117  14.346
75939NA+    NA+45820  29.669  36.435  12.427
75940NA+    NA+45821  35.386  35.416  13.949
75941NA+    NA+45822  13.795   1.738   3.869
75942NA+    NA+45823  26.597   8.823  13.828
75943NA+    NA+45824  16.224  20.552   2.250
75944NA+    NA+45825  43.884  14.197   1.396
75945NA+    NA+45826  24.547  14.645  10.969
75946NA+    NA+45827  11.633  14.299   1.276
75947NA+    NA+45828  36.358  26.539  13.929
75948NA+    NA+45829  31.588  15.822  10.641
75949NA+    NA+45830  21.237  28.534   0.726
75950NA+    NA+45831   2.361  36.009   3.745
75951NA+    NA+45832  44.488  38.989   0.743
75952NA+    NA+45833   2.918   6.424  13.535
75953NA+    NA+45834  19.598  41.363   1.275
75954NA+    NA+45835  11.697  41.918  10.501
75955NA+    NA+45836  14.701  24.694   4.650
75956NA+    NA+45837  16.126  10.796  13.858
75957NA+    NA+45838  12.669  25.132   4.748
75958NA+    NA+45839  43.848  23.070   2.897
75959NA+    NA+45840  36.898  20.182  11.540
75960NA+    NA+45841  31.594  20.571  12.528
75961NA+    NA+45842  20.633   5.716   2.389
75962NA+    NA+45843  25.046   0.770   2.303
75963NA+    NA+45844  31.139  11.782   0.315
75964NA+    NA+45845  20.621  26.004   3.641
75965NA+    NA+45846   2.879  32.012  14.025
75966NA+    NA+45847  38.374   7.822  10.897
75967NA+    NA+45848  17.208  15.198  13.859
75968NA+    NA+45849  22.106  23.730  11.050
75969NA+    NA+45850  24.219  30.644  14.280
75970NA+    NA+45851  39.931  27.174   0.483
75971NA+    NA+45852  42.481  24.226   4.609
75972NA+    NA+45853   3.898  16.083  14.396
75973NA+    NA+45854  40.520  23.668  13.410
75974NA+    NA+45855   4.775  40.043   0.903
75975NA+    NA+45856  42.350  16.270  13.841
75976NA+    NA+45857   0.384   0.906   3.361
75977NA+    NA+45858  41.365  36.384  11.412
75978NA+    NA+45859  10.663  36.563   3.751
75979NA+    NA+45860   8.359  20.079  14.891
75980NA+    NA+45861  19.694  25.041  14.849
75981NA+    NA+45862  22.663  41.427   5.131
75982NA+    NA+45863  37.546  20.037  11.540
75983NA+    NA+45864  24.211  39.006  14.416
75984NA+    NA+45865  34.070  12.809  14.353
75985NA+    NA+45866  37.493  22.170   0.955
75986NA+    NA+45867  17.673  34.110   2.215
75987NA+    NA+45868  22.194  36.486   2.843
75988NA+    NA+45869  18.117  26.507   0.418
75989NA+    NA+45870  44.369   5.379  13.980
75990NA+    NA+45871  40.413   9.655  13.872
75991NA+    NA+45872  13.748  23.726  14.936
75992NA+    NA+45873  17.269  31.589   0.360
75993NA+    NA+45874   1.844  13.842   0.455
75994NA+    NA+45875  40.852   6.375  10.939
75995NA+    NA+45876  19.597  21.219  11.502
75996NA+    NA+45877  21.065  41.952  12.434
75997NA+    NA+45878   4.279  38.950   2.720
75998NA+    NA+45879  40.912  44.972   2.838
75999NA+    NA+45880  41.822   2.788   4.712
76000NA+    NA+45881  35.592  26.492   2.287
76001NA+    NA+45882  10.192  33.427  13.538
76002NA+    NA+45883  44.772  32.962   0.871
76003NA+    NA+45884  12.259  20.181   0.957
76004NA+    NA+45885  27.976  43.003  13.929
76005NA+    NA+45886   0.309  10.632  12.561
76006NA+    NA+45887  29.625   5.715   9.925
76007NA+    NA+45888  44.919   8.407  12.087
76008NA+    NA+45889  26.547  13.347  10.964
76009NA+    NA+45890  32.890  35.458   1.879
76010NA+    NA+45891  10.320  41.504  14.830
76011NA+    NA+45892  26.156  26.655  10.610
76012NA+    NA+45893  17.620  21.056  10.136
76013NA+    NA+45894  38.359  39.007   4.746
76014NA+    NA+45895  42.823   9.736  10.415
76015NA+    NA+45896  23.113  25.473   2.849
76016NA+    NA+45897  18.575   1.968  13.360
76017NA+    NA+45898   0.259   2.928   2.700
76018NA+    NA+45899  39.910  42.508  12.826
76019NA+    NA+45900  27.561  39.971  12.981
76020NA+    NA+45901  11.281  13.671   0.847
76021NA+    NA+45902  32.057  28.048  11.870
76022NA+    NA+45903  17.558  19.260  13.805
76023NA+    NA+45904  17.769  44.816   1.866
76024NA+    NA+45905  33.086  33.969   2.388
76025NA+    NA+45906   9.798  41.355   3.362
76026NA+    NA+45907  19.593  26.609   5.261
76027NA+    NA+45908  35.025  24.011   4.183
76028NA+    NA+45909  40.010  41.937   2.811
76029NA+    NA+45910  41.521  12.847   1.744
76030NA+    NA+45911  27.024   2.340   3.177
76031NA+    NA+45912  35.421  11.299  12.993
76032NA+    NA+45913  37.421  19.057   2.222
76033NA+    NA+45914  40.030  33.982   1.319
76034NA+    NA+45915  27.189  12.816  11.506
76035NA+    NA+45916  31.529  37.049  12.057
76036NA+    NA+45917  30.957  18.139   2.325
76037NA+    NA+45918  34.594  28.005  13.879
76038NA+    NA+45919  38.452  17.116   1.703
76039NA+    NA+45920  31.912  28.607  14.375
76040NA+    NA+45921  23.189  25.670   3.351
76041NA+    NA+45922  11.842   6.871  14.938
76042NA+    NA+45923  28.521   6.204  12.959
76043NA+    NA+45924   7.744   2.303  14.869
76044NA+    NA+45925  30.132   8.195   0.801
76045NA+    NA+45926   7.910  42.968   1.837
76046NA+    NA+45927  19.214  11.635  13.529
76047NA+    NA+45928  42.318  11.232  11.466
76048NA+    NA+45929   4.698   8.697  14.335
76049NA+    NA+45930  12.225  15.261  14.373
76050NA+    NA+45931   3.444  37.450  14.806
76051NA+    NA+45932  11.346  12.728   0.766
76052NA+    NA+45933  17.567  24.168   0.370
76053NA+    NA+45934  22.688  38.538   2.229
76054NA+    NA+45935   7.800   4.889   2.389
76055NA+    NA+45936  39.347  35.855  10.634
76056NA+    NA+45937  24.032  13.196  13.806
76057NA+    NA+45938   1.946   9.723   4.811
76058NA+    NA+45939  26.206  16.801   1.335
76059NA+    NA+45940   4.854  29.471   4.156
76060NA+    NA+45941   0.890  25.607  14.310
76061NA+    NA+45942  44.894  11.825   1.406
76062NA+    NA+45943   9.645  43.779  14.392
76063NA+    NA+45944  35.423   0.895  13.509
76064NA+    NA+45945   1.317  32.959  12.850
76065NA+    NA+45946  22.123  38.894  10.997
76066NA+    NA+45947   2.753  17.220  14.857
76067NA+    NA+45948  29.103  15.821  14.481
76068NA+    NA+45949  33.116  30.539   4.337
76069NA+    NA+45950  18.074  34.526  11.423
76070NA+    NA+45951  36.929   0.953  11.857
76071NA+    NA+45952  26.197  44.790  13.323
76072NA+    NA+45953  30.537   6.195  11.014
76073NA+    NA+45954  30.916  18.728   0.936
76074NA+    NA+45955  34.468  30.073   3.284
76075NA+    NA+45956  29.125  12.832   1.931
76076NA+    NA+45957  41.417  35.988  12.467
76077NA+    NA+45958  18.582  31.036   4.820
76078NA+    NA+45959  37.963  19.180  13.401
76079NA+    NA+45960   1.883   4.294  10.976
76080NA+    NA+45961  44.278  35.006  14.009
76081NA+    NA+45962  27.533   7.729  13.523
76082NA+    NA+45963  39.989  16.676  11.124
76083NA+    NA+45964  32.088  36.552  12.091
76084NA+    NA+45965  32.036  44.468   3.249
76085NA+    NA+45966  14.736  35.895   3.378
76086NA+    NA+45967  10.782  31.616   1.359
76087NA+    NA+45968  14.599  33.457  11.910
76088NA+    NA+45969  23.639  17.646  11.611
76089NA+    NA+45970   1.304  19.776  11.458
76090NA+    NA+45971   7.214  37.907   4.775
76091NA+    NA+45972  41.353  26.534   4.752
76092NA+    NA+45973  24.106  16.661   4.714
76093NA+    NA+45974  26.627  34.891   2.726
76094NA+    NA+45975  32.569  29.996  10.465
76095NA+    NA+45976  11.360  43.981  13.899
76096NA+    NA+45977  22.725  17.267  12.369
76097NA+    NA+45978  33.918  31.094  14.898
76098NA+    NA+45979   7.870   3.370  12.061
76099NA+    NA+45980  44.956  28.573  12.865
76100NA+    NA+45981   6.738  35.502  14.780
76101NA+    NA+45982   6.893  32.583   0.934
76102NA+    NA+45983  31.047   8.336   3.672
76103NA+    NA+45984   3.440  31.038  11.992
76104NA+    NA+45985  21.192  21.699  10.496
76105NA+    NA+45986  22.591  11.223   3.663
76106NA+    NA+45987   2.872  42.411  13.948
76107NA+    NA+45988  37.406  41.300   1.926
76108NA+    NA+45989  24.019  17.061   1.779
76109NA+    NA+45990  39.813  42.492   0.369
76110NA+    NA+45991  23.651  28.567  11.413
76111NA+    NA+45992  22.135  16.256   2.706
76112NA+    NA+45993  31.945  40.988  13.039
76113NA+    NA+45994  26.688   8.894  14.845
76114NA+    NA+45995  33.571  37.884   4.611
76115NA+    NA+45996   4.936  15.779   0.882
76116NA+    NA+45997  30.565  17.187  14.504
76117NA+    NA+45998  31.419  40.481  12.404
76118NA+    NA+45999  14.284  42.913   2.188
76119NA+    NA+46000  41.331  38.856  13.853
76120NA+    NA+46001   4.397  22.538   2.863
76121NA+    NA+46002  39.027  10.355  14.966
76122NA+    NA+46003  32.128  19.201   2.810
76123NA+    NA+46004  36.889   2.231   4.761
76124NA+    NA+46005  38.364   1.782  10.458
76125NA+    NA+46006  11.682  10.852  13.929
76126NA+    NA+46007   1.270   6.681   1.396
76127NA+    NA+46008  43.463  33.938  13.855
76128NA+    NA+46009   5.734  22.132   2.325
76129NA+    NA+46010  15.731  25.171   1.310
76130NA+    NA+46011  11.337  26.106  11.935
76131NA+    NA+46012  12.241  42.806  10.497
76132NA+    NA+46013  23.001  35.085   3.324
76133NA+    NA+46014  11.795  19.136  13.351
76134NA+    NA+46015  36.547  12.776   3.367
76135NA+    NA+46016  25.484  43.475  10.547
76136NA+    NA+46017   6.236  32.541  14.488
76137NA+    NA+46018   4.229  10.874  12.525
76138NA+    NA+46019  17.205  40.832  10.553
76139NA+    NA+46020  41.900  38.992  12.011
76140NA+    NA+46021  13.627  44.485   2.661
76141NA+    NA+46022  18.062  19.770  14.394
76142NA+    NA+46023  27.949  38.992  14.331
76143NA+    NA+46024  34.401  10.303   0.745
76144NA+    NA+46025  16.587  16.107  11.098
76145NA+    NA+46026  19.573  19.771   2.354
76146NA+    NA+46027   1.465  34.927  13.364
76147NA+    NA+46028  32.530  13.708   4.247
76148NA+    NA+46029   6.865  44.261  14.927
76149NA+    NA+46030  37.977  41.842   0.394
76150NA+    NA+46031  13.180   9.728   1.742
76151NA+    NA+46032  18.683   0.310  12.492
76152NA+    NA+46033   2.434   9.768  14.891
76153NA+    NA+46034  18.742  31.410   2.675
76154NA+    NA+46035   9.327  27.186  14.031
76155NA+    NA+46036   1.803   9.750   0.966
76156NA+    NA+46037  23.206   0.775  14.962
76157NA+    NA+46038  22.228  33.006   3.727
76158NA+    NA+46039   2.235  39.844  12.506
76159NA+    NA+46040  25.965  27.956  10.582
76160NA+    NA+46041  42.824  33.980  11.103
76161NA+    NA+46042  24.010  31.458  14.865
76162NA+    NA+46043  28.479  39.456   4.816
76163NA+    NA+46044  16.231  42.986   4.130
76164NA+    NA+46045  16.576  10.713   4.714
76165NA+    NA+46046   5.795   3.718  11.415
76166NA+    NA+46047  20.131  29.491   3.788
76167NA+    NA+46048   2.828   5.820  11.398
76168NA+    NA+46049  11.141  35.049  13.417
76169NA+    NA+46050  23.586   7.386   2.406
76170NA+    NA+46051  28.055  44.489  14.916
76171NA+    NA+46052  38.390  13.677   0.274
76172NA+    NA+46053  32.046  17.141   1.418
76173NA+    NA+46054  40.826  12.259  13.457
76174NA+    NA+46055   6.328  17.719  13.378
76175NA+    NA+46056  23.175   1.469  14.501
76176NA+    NA+46057  42.815  17.737   3.637
76177NA+    NA+46058  24.122  25.108   2.275
76178NA+    NA+46059  32.083  23.167   1.316
76179NA+    NA+46060  20.078  13.716  12.475
76180NA+    NA+46061  40.482  19.741  13.962
76181NA+    NA+46062   1.341  12.643  10.638
76182NA+    NA+46063   3.304   4.421   1.792
76183NA+    NA+46064  22.741  35.997  11.108
76184NA+    NA+46065  33.991  36.504  14.803
76185NA+    NA+46066   5.794  34.561  12.483
76186NA+    NA+46067  40.886  15.166   4.129
76187NA+    NA+46068  33.066  23.229   2.769
76188NA+    NA+46069  39.355  29.941   4.207
76189NA+    NA+46070  42.913  43.857  13.330
76190NA+    NA+46071  31.418  32.908   1.377
76191NA+    NA+46072  38.074   5.904  11.882
76192NA+    NA+46073  21.610  44.825  11.606
76193NA+    NA+46074   5.418  31.620   2.718
76194NA+    NA+46075  43.289  39.973  14.499
76195NA+    NA+46076   8.695  27.991  11.960
76196NA+    NA+46077  43.903  16.094   4.648
76197NA+    NA+46078  43.837  37.560  13.512
76198NA+    NA+46079  33.027  42.498  11.075
76199NA+    NA+46080   3.229  42.892   3.248
76200NA+    NA+46081   7.757  44.362  14.875
76201NA+    NA+46082  40.888  32.398  14.857
76202NA+    NA+46083  44.344  16.612  13.340
76203NA+    NA+46084  13.188  34.376   0.834
76204NA+    NA+46085  19.093  17.634  11.437
76205NA+    NA+46086  15.200  13.763  11.084
76206NA+    NA+46087   3.305  36.911   4.656
76207NA+    NA+46088  24.514  28.588   4.235
76208NA+    NA+46089  30.924  24.710  12.037
76209NA+    NA+46090  39.904  18.568   1.809
76210NA+    NA+46091  17.180   3.897   4.273
76211NA+    NA+46092   0.761   7.790  14.019
76212NA+    NA+46093  19.096   4.882   1.384
76213NA+    NA+46094  26.025  43.324   1.374
76214NA+    NA+46095  27.452   0.907  14.031
76215NA+    NA+46096   1.751  36.573   2.375
76216NA+    NA+46097  24.669   4.798  14.979
76217NA+    NA+46098  18.158  29.648   1.387
76218NA+    NA+46099  37.865  23.212  12.052
76219NA+    NA+46100  42.411  30.653  11.064
76220NA+    NA+46101  24.675  33.404  14.896
76221NA+    NA+46102   3.930   0.261   1.859
76222NA+    NA+46103  35.475   9.349  13.938
76223NA+    NA+46104  16.182   1.949  12.399
76224NA+    NA+46105  41.330  11.732  10.930
76225NA+    NA+46106  32.936  37.968  13.929
76226NA+    NA+46107   2.305  36.517  11.393
76227NA+    NA+46108   6.336   1.474  12.437
76228NA+    NA+46109  35.472  33.990   0.951
76229NA+    NA+46110   8.314   9.178   1.372
76230NA+    NA+46111  25.533  31.519  13.902
76231NA+    NA+46112  29.434  20.626  11.952
76232NA+    NA+46113  16.124  42.510   1.268
76233NA+    NA+46114  21.062  42.406  11.541
76234NA+    NA+46115   3.350  18.580  11.096
76235NA+    NA+46116  17.289   4.830  13.926
76236NA+    NA+46117  13.618  27.676  14.371
76237NA+    NA+46118   8.202  44.502  14.789
76238NA+    NA+46119  44.996   3.944   1.729
76239NA+    NA+46120  39.976  40.876   4.829
76240NA+    NA+46121  28.538  39.829   2.228
76241NA+    NA+46122  22.696  37.458  13.997
76242NA+    NA+46123  28.591  37.907   4.270
76243NA+    NA+46124  13.827  34.993  14.302
76244NA+    NA+46125  23.123   1.787  13.374
76245NA+    NA+46126  13.810  40.891  12.570
76246NA+    NA+46127  11.825  27.477   1.228
76247NA+    NA+46128  10.169  13.208   0.452
76248NA+    NA+46129   0.308   0.303   2.836
76249NA+    NA+46130  37.011  30.609   0.265
76250NA+    NA+46131  16.080  39.500  10.542
76251NA+    NA+46132  25.104  23.515  14.446
76252NA+    NA+46133  10.146  34.908  11.053
76253NA+    NA+46134  35.459  23.985   1.735
76254NA+    NA+46135  36.934  27.492  13.321
76255NA+    NA+46136  38.516  11.218   0.820
76256NA+    NA+46137  24.097   0.958   1.790
76257NA+    NA+46138  10.233  11.743   3.297
76258NA+    NA+46139   0.793  25.195  12.025
76259NA+    NA+46140   7.712  34.973   3.711
76260NA+    NA+46141  39.867  24.528  13.368
76261NA+    NA+46142   7.757  23.991   2.402
76262NA+    NA+46143  26.979  15.304  10.503
76263NA+    NA+46144  43.883  15.681   1.927
76264NA+    NA+46145  12.284  18.609   2.360
76265NA+    NA+46146  23.645  40.533  14.771
76266NA+    NA+46147  22.628   1.396  12.958
76267NA+    NA+46148  29.032   3.817   4.784
76268NA+    NA+46149  42.299  30.503  13.499
76269NA+    NA+46150  38.025  21.079   3.367
76270NA+    NA+46151   9.306  31.572  13.440
76271NA+    NA+46152  34.542   1.912  12.954
76272NA+    NA+46153  26.036  39.440   0.916
76273NA+    NA+46154  34.950  41.346   5.291
76274NA+    NA+46155  29.646  30.110   0.452
76275NA+    NA+46156  18.196  10.673   4.836
76276NA+    NA+46157  20.616  37.519   1.388
76277NA+    NA+46158  16.706  14.641   3.807
76278NA+    NA+46159  29.964  21.674   3.831
76279NA+    NA+46160  14.722   6.407  12.410
76280NA+    NA+46161  34.864  40.498  14.991
76281NA+    NA+46162  25.090  27.581  13.535
76282NA+    NA+46163   8.801  14.125   2.353
76283NA+    NA+46164  32.547   1.363  14.796
76284NA+    NA+46165  34.067   6.777  14.922
76285NA+    NA+46166  39.863  16.567  13.952
76286NA+    NA+46167  13.210  38.064   3.227
76287NA+    NA+46168  14.233  40.316   4.810
76288NA+    NA+46169  17.610   9.247  10.515
76289NA+    NA+46170  43.454  23.087  10.999
76290NA+    NA+46171  39.554  13.217   2.862
76291NA+    NA+46172  25.206  40.306   0.321
76292NA+    NA+46173  33.577  38.946   3.832
76293NA+    NA+46174  11.178  12.191  14.941
76294NA+    NA+46175  25.025  32.620  12.038
76295NA+    NA+46176  37.574  10.722   0.406
76296NA+    NA+46177   1.241  10.757  14.880
76297NA+    NA+46178  35.049  13.132   4.673
76298NA+    NA+46179   6.819  27.621   0.770
76299NA+    NA+46180  35.896   0.293   0.289
76300NA+    NA+46181  18.099  38.863   2.245
76301NA+    NA+46182  34.938  40.309   9.971
76302NA+    NA+46183  26.075  19.674   4.802
76303NA+    NA+46184   7.670  16.217   0.283
76304NA+    NA+46185  42.372   3.733   2.672
76305NA+    NA+46186   5.270  14.748   2.189
76306NA+    NA+46187  36.374  34.421   4.839
76307NA+    NA+46188  22.573  11.793   3.704
76308NA+    NA+46189  27.482  27.691  11.092
76309NA+    NA+46190  44.814   3.295  13.973
76310NA+    NA+46191  18.226  42.909   4.815
76311NA+    NA+46192  33.555   8.347  10.895
76312NA+    NA+46193   7.910  25.575   2.760
76313NA+    NA+46194  10.849  13.226   3.162
76314NA+    NA+46195  27.592  38.024  11.028
76315NA+    NA+46196  11.322  33.111  11.124
76316NA+    NA+46197   3.284  40.910   1.394
76317NA+    NA+46198  27.145  44.865  10.992
76318NA+    NA+46199   1.395  13.137  10.961
76319NA+    NA+46200   7.178  31.608  11.944
76320NA+    NA+46201  17.204   4.400  13.982
76321NA+    NA+46202  30.028  27.138  11.995
76322NA+    NA+46203  23.621  28.466  11.888
76323NA+    NA+46204  19.621  14.640   3.700
76324NA+    NA+46205  42.992   1.481   2.349
76325NA+    NA+46206  41.931  38.513  14.021
76326NA+    NA+46207  40.436   7.735   2.709
76327NA+    NA+46208  26.512   7.231  12.885
76328NA+    NA+46209  26.067  43.878  10.913
76329NA+    NA+46210   8.834  25.567   3.776
76330NA+    NA+46211   0.367   9.161  11.006
76331NA+    NA+46212  37.437  44.312   4.800
76332NA+    NA+46213  30.457  42.785   0.732
76333NA+    NA+46214  44.349  39.062  12.573
76334NA+    NA+46215  34.417  29.077   1.394
76335NA+    NA+46216  41.353  38.047   4.173
76336NA+    NA+46217   5.348  23.725   2.386
76337NA+    NA+46218   5.213   5.269   1.892
76338NA+    NA+46219  39.022  17.075   5.171
76339NA+    NA+46220  42.325   3.245   4.209
76340NA+    NA+46221  41.864  19.729  10.589
76341NA+    NA+46222   8.307  14.193   0.442
76342NA+    NA+46223  37.875  32.463   2.286
76343NA+    NA+46224   5.716  21.752  13.353
76344NA+    NA+46225  25.997   4.771  12.028
76345NA+    NA+46226   9.288  16.237  11.866
76346NA+    NA+46227  36.366  31.050   4.230
76347NA+    NA+46228   3.876  36.443   1.768
76348NA+    NA+46229  25.537   3.368  12.565
76349NA+    NA+46230  30.018  10.694  12.090
76350NA+    NA+46231  27.158   4.248   1.904
76351NA+    NA+46232  30.033   4.299  11.589
76352NA+    NA+46233  20.727  15.655   4.713
76353NA+    NA+46234   1.389   5.210   2.820
76354NA+    NA+46235   2.374  27.973   1.393
76355NA+    NA+46236  12.621  36.368  14.420
76356NA+    NA+46237   8.809  21.519   4.720
76357NA+    NA+46238  15.157   1.423  12.855
76358NA+    NA+46239  36.961  36.063   3.270
76359NA+    NA+46240  14.248  31.914  11.607
76360NA+    NA+46241  26.476  17.703  11.928
76361NA+    NA+46242   9.334   0.963   2.298
76362NA+    NA+46243  12.149   5.884  13.051
76363NA+    NA+46244  30.982  42.304   1.759
76364NA+    NA+46245  19.618  14.635  12.446
76365NA+    NA+46246  14.131  12.349   3.823
76366NA+    NA+46247   6.301   2.830  12.861
76367NA+    NA+46248  23.010  12.271   0.293
76368NA+    NA+46249  27.572  34.032   2.780
76369NA+    NA+46250  44.496  43.826   1.274
76370NA+    NA+46251  24.607  11.712  12.010
76371NA+    NA+46252  37.932  21.197  13.800
76372NA+    NA+46253  29.155  14.736  12.920
76373NA+    NA+46254   3.354  15.126   3.827
76374NA+    NA+46255  15.225   4.739   1.213
76375NA+    NA+46256  44.420  41.343   1.332
76376NA+    NA+46257   5.409  15.294   3.726
76377NA+    NA+46258  21.610   6.879   0.904
76378NA+    NA+46259  25.478   9.351   3.358
76379NA+    NA+46260  42.360  26.579   2.206
76380NA+    NA+46261  31.467   5.279   1.446
76381NA+    NA+46262  31.035  27.482   4.751
76382NA+    NA+46263  16.264  29.953  12.457
76383NA+    NA+46264  20.766  30.110  14.461
76384NA+    NA+46265   8.378  30.951  11.082
76385NA+    NA+46266  37.369  35.987  10.533
76386NA+    NA+46267  44.881  37.962  11.492
76387NA+    NA+46268   3.252   8.659  14.368
76388NA+    NA+46269   4.295  15.652  14.439
76389NA+    NA+46270   4.814  12.191  13.424
76390NA+    NA+46271  44.337  22.593   0.321
76391NA+    NA+46272  34.502  43.801   4.327
76392NA+    NA+46273  31.406  20.675   0.408
76393NA+    NA+46274   2.731   6.758   2.228
76394NA+    NA+46275  17.214  10.783   0.854
76395NA+    NA+46276  33.981  13.319   2.768
76396NA+    NA+46277   2.288   8.228   4.765
76397NA+    NA+46278  25.629  35.927   0.815
76398NA+    NA+46279  22.588   8.855  14.486
76399NA+    NA+46280  13.689  19.593   3.288
76400NA+    NA+46281   1.363   4.900   2.184
76401NA+    NA+46282  18.607  44.282   2.749
76402NA+    NA+46283  34.899   3.235   4.670
76403NA+    NA+46284  16.651  22.091  13.453
76404NA+    NA+46285  36.917  13.718  14.931
76405NA+    NA+46286  19.563  13.737   2.279
76406NA+    NA+46287  35.531  36.454   1.366
76407NA+    NA+46288  28.133   9.190  12.835
76408NA+    NA+46289   9.742  28.590  12.823
76409NA+    NA+46290  18.243  13.639   2.224
76410NA+    NA+46291  35.902   3.382  14.355
76411NA+    NA+46292   5.713  21.715  12.518
76412NA+    NA+46293  25.218  14.618   0.439
76413NA+    NA+46294  22.536  29.169   3.178
76414NA+    NA+46295  35.916  26.470  13.009
76415NA+    NA+46296  40.410   3.297   0.435
76416NA+    NA+46297  37.426  44.357   0.376
76417NA+    NA+46298  22.640  43.474  14.964
76418NA+    NA+46299  44.858   7.781   4.265
76419NA+    NA+46300  25.198  36.894  13.334
76420NA+    NA+46301  35.540  30.935   2.414
76421NA+    NA+46302   7.892  11.763  14.322
76422NA+    NA+46303  31.511  41.898   2.728
76423NA+    NA+46304   1.967   4.338  13.426
76424NA+    NA+46305  36.927  26.577   3.716
76425NA+    NA+46306   3.723  36.942   0.471
76426NA+    NA+46307  31.125   1.426   2.898
76427NA+    NA+46308  26.167  21.597   1.726
76428NA+    NA+46309  24.983  27.053   3.795
76429NA+    NA+46310   0.262  19.660  12.500
76430NA+    NA+46311   5.368  39.499  11.562
76431NA+    NA+46312  25.119  28.185   4.768
76432NA+    NA+46313  38.985  42.329  10.901
76433NA+    NA+46314  18.165  12.216   3.293
76434NA+    NA+46315   1.411  20.554  10.604
76435NA+    NA+46316   6.266  13.273   0.835
76436NA+    NA+46317  27.614  24.709   3.845
76437NA+    NA+46318  32.517   7.758  13.379
76438NA+    NA+46319  39.457  27.994   0.328
76439NA+    NA+46320  31.133  30.548  11.583
76440NA+    NA+46321  14.153   9.226   4.188
76441NA+    NA+46322   5.199  20.693   2.836
76442NA+    NA+46323  30.464  20.091  10.481
76443NA+    NA+46324  42.944  14.610   0.243
76444NA+    NA+46325  16.764  42.335   0.317
76445NA+    NA+46326  32.607  16.174  11.988
76446NA+    NA+46327  18.201  28.503  10.551
76447NA+    NA+46328  43.361  31.448  12.947
76448NA+    NA+46329  26.017  23.000   4.160
76449NA+    NA+46330  30.585  42.958   0.368
76450NA+    NA+46331  11.340  22.251   3.867
76451NA+    NA+46332  19.569  40.998   4.742
76452NA+    NA+46333  26.998   9.726   3.867
76453NA+    NA+46334  36.534   2.784   2.257
76454NA+    NA+46335   5.908   0.796   3.697
76455NA+    NA+46336  26.010  25.073   3.306
76456NA+    NA+46337  41.984  26.049   4.275
76457NA+    NA+46338  16.294   2.335  14.796
76458NA+    NA+46339  18.086  16.112  13.813
76459NA+    NA+46340  14.752   6.686  10.915
76460NA+    NA+46341  17.600  44.452  14.988
76461NA+    NA+46342   7.204   5.789   0.390
76462NA+    NA+46343  13.273  19.666  12.412
76463NA+    NA+46344  27.544   9.809  14.335
76464NA+    NA+46345   7.327  19.095   2.419
76465NA+    NA+46346  11.204   4.241  13.948
76466NA+    NA+46347  11.666  38.917   5.153
76467NA+    NA+46348   5.248   5.899   1.347
76468NA+    NA+46349  27.157  16.299  14.348
76469NA+    NA+46350  20.716   1.416   2.344
76470NA+    NA+46351  18.099   0.980   0.933
76471NA+    NA+46352   8.823  35.006   5.152
76472NA+    NA+46353  39.537  21.650  14.841
76473NA+    NA+46354  25.603  24.700   2.342
76474NA+    NA+46355   4.251  36.356   2.408
76475NA+    NA+46356  17.298  11.849   3.313
76476NA+    NA+46357  37.838  27.661  12.849
76477NA+    NA+46358   8.899  20.556  12.503
76478NA+    NA+46359  26.967  43.279   0.956
76479NA+    NA+46360   7.896  28.488  14.890
76480NA+    NA+46361  24.013   1.418  14.772
76481NA+    NA+46362  40.908  39.519  10.526
76482NA+    NA+46363   4.296  41.500   4.269
76483NA+    NA+46364  12.360   0.837   3.363
76484NA+    NA+46365  36.373  33.579   1.446
76485NA+    NA+46366  42.015  13.287  11.971
76486NA+    NA+46367  38.329  16.744   1.746
76487NA+    NA+46368  42.497  12.267  10.421
76488NA+    NA+46369  18.766   6.868   1.906
76489NA+    NA+46370  34.452  39.449  11.993
76490NA+    NA+46371   9.684  20.202  14.488
76491NA+    NA+46372  12.665  21.667   2.804
76492NA+    NA+46373   0.831  33.004  12.491
76493NA+    NA+46374   1.334  21.025   1.439
76494NA+    NA+46375  30.148  13.760  10.618
76495NA+    NA+46376  12.208   4.405   4.776
76496NA+    NA+46377  29.621  26.531  12.566
76497NA+    NA+46378   5.768  37.973   4.342
76498NA+    NA+46379  10.143  30.577   3.247
76499NA+    NA+46380   0.767  33.023   1.782
76500NA+    NA+46381  29.102   5.775   0.797
76501NA+    NA+46382   0.819  22.658  13.898
76502NA+    NA+46383  13.209  18.650  10.067
76503NA+    NA+46384  22.108  18.219  11.512
76504NA+    NA+46385   8.309   9.782  11.424
76505NA+    NA+46386  43.410  22.645  13.523
76506NA+    NA+46387  38.434   1.355   5.270
76507NA+    NA+46388  13.645  36.956  11.105
76508NA+    NA+46389  43.999   8.852  11.487
76509NA+    NA+46390  18.222  35.419  12.048
76510NA+    NA+46391  28.127  24.049   1.250
76511NA+    NA+46392   1.310  30.961   3.274
76512NA+    NA+46393   3.923  13.166   0.788
76513NA+    NA+46394  41.367  25.651   1.218
76514NA+    NA+46395  32.461  32.524   0.728
76515NA+    NA+46396  26.073  27.538  11.584
76516NA+    NA+46397  36.943  14.302   2.851
76517NA+    NA+46398  22.598  41.019   2.801
76518NA+    NA+46399  19.590   2.732  11.907
76519NA+    NA+46400  40.460  32.422   2.411
76520NA+    NA+46401  13.271  15.316  11.447
76521NA+    NA+46402  13.275  24.560  13.917
76522NA+    NA+46403   4.259  36.988   2.860
76523NA+    NA+46404   9.152  35.393  11.917
76524NA+    NA+46405   3.808  28.556  11.102
76525NA+    NA+46406   3.893   7.305   1.216
76526NA+    NA+46407  38.404  25.131  10.533
76527NA+    NA+46408  33.889  16.808  11.123
76528NA+    NA+46409  32.554  41.008   3.667
76529NA+    NA+46410  39.383  25.561   2.749
76530NA+    NA+46411  29.574  41.945   4.641
76531NA+    NA+46412   6.248   5.698  13.961
76532NA+    NA+46413  44.977  13.656   2.198
76533NA+    NA+46414  22.575  25.711   0.903
76534NA+    NA+46415  32.043  39.444   1.443
76535NA+    NA+46416  22.691  44.966  13.913
76536NA+    NA+46417  33.568  32.935   3.263
76537NA+    NA+46418   6.417  11.328   2.233
76538NA+    NA+46419  12.848   3.941  12.831
76539NA+    NA+46420  39.370  29.031  10.521
76540NA+    NA+46421  32.399  18.185  12.840
76541NA+    NA+46422  33.519  36.431  13.848
76542NA+    NA+46423  23.564   3.759  10.529
76543NA+    NA+46424  18.675  13.760  14.435
76544NA+    NA+46425  14.666  27.653  11.900
76545NA+    NA+46426  25.009  44.395  13.987
76546NA+    NA+46427  43.498   8.283  14.800
76547NA+    NA+46428   5.912  13.722  12.043
76548NA+    NA+46429   5.301   5.778  13.969
76549NA+    NA+46430  15.583   9.177   5.283
76550NA+    NA+46431  18.696   9.847   2.206
76551NA+    NA+46432  23.143  25.565  11.414
76552NA+    NA+46433  12.160  22.677  14.329
76553NA+    NA+46434  18.725  37.394  12.880
76554NA+    NA+46435   4.914   2.748  13.894
76555NA+    NA+46436  39.357  25.999  12.033
76556NA+    NA+46437  26.507  20.081  14.409
76557NA+    NA+46438  29.133  23.225   1.708
76558NA+    NA+46439  30.465  43.508  14.023
76559NA+    NA+46440   4.276   8.305  12.456
76560NA+    NA+46441   3.745  33.591  11.472
76561NA+    NA+46442  26.534   3.762   1.792
76562NA+    NA+46443   0.982  27.043  12.563
76563NA+    NA+46444   1.371  26.100  13.804
76564NA+    NA+46445  22.198   7.390   4.823
76565NA+    NA+46446  35.540  11.240  10.927
76566NA+    NA+46447  40.912  36.916  13.060
76567NA+    NA+46448  26.473  40.982  11.401
76568NA+    NA+46449  39.498  33.089  11.546
76569NA+    NA+46450  25.184  15.313   1.221
76570NA+    NA+46451  43.283   5.327   4.702
76571NA+    NA+46452  20.258  31.914  14.908
76572NA+    NA+46453  39.055  20.142  12.516
76573NA+    NA+46454  12.348  30.036  13.516
76574NA+    NA+46455  14.234  18.078  11.570
76575NA+    NA+46456  12.665  42.374  12.363
76576NA+    NA+46457  12.807   8.742   3.312
76577NA+    NA+46458   2.932  13.753   2.343
76578NA+    NA+46459   7.400   3.300  12.427
76579NA+    NA+46460   5.335  40.813   3.848
76580NA+    NA+46461  44.411  41.322  12.972
76581NA+    NA+46462  39.917  38.562   3.801
76582NA+    NA+46463   5.858  27.039  10.438
76583NA+    NA+46464   6.219  20.554   2.822
76584NA+    NA+46465  33.877  32.991  14.324
76585NA+    NA+46466  14.824  37.344   3.343
76586NA+    NA+46467  12.763  21.166   2.264
76587NA+    NA+46468  36.041   5.707   4.659
76588NA+    NA+46469  36.909  31.634  11.115
76589NA+    NA+46470  35.544  33.484  12.498
76590NA+    NA+46471  26.124  16.239  12.550
76591NA+    NA+46472  22.586   5.841   2.266
76592NA+    NA+46473  32.136  18.106  12.083
76593NA+    NA+46474  20.038  13.131   4.128
76594NA+    NA+46475  22.132  37.051   2.237
76595NA+    NA+46476  13.200  12.265  11.492
76596NA+    NA+46477  15.300  16.111   2.707
76597NA+    NA+46478  14.664  17.787  11.083
76598NA+    NA+46479  27.512  15.322   2.409
76599NA+    NA+46480  36.520  36.976  10.918
76600NA+    NA+46481   0.781   0.765   2.876
76601NA+    NA+46482  32.886  43.273  13.971
76602NA+    NA+46483  32.090   7.193   4.786
76603NA+    NA+46484  10.176  38.886   4.315
76604NA+    NA+46485  44.986   8.812  12.865
76605NA+    NA+46486  16.804   4.406  13.057
76606NA+    NA+46487  15.140  15.740   4.617
76607NA+    NA+46488  32.590  27.088  11.467
76608NA+    NA+46489  42.021  28.447  12.489
76609NA+    NA+46490  25.591   8.310  11.103
76610NA+    NA+46491  23.143  40.826  10.554
76611NA+    NA+46492  44.827  35.492   2.898
76612NA+    NA+46493   7.361  43.384  11.461
76613NA+    NA+46494  20.141  29.435  14.352
76614NA+    NA+46495  40.987  15.287  14.512
76615NA+    NA+46496  23.692  10.860  11.867
76616NA+    NA+46497  44.981  39.955   4.800
76617NA+    NA+46498  29.083  33.615   0.911
76618NA+    NA+46499  21.022  33.606  12.540
76619NA+    NA+46500  38.435   0.346   4.199
76620NA+    NA+46501  23.590  13.151  14.342
76621NA+    NA+46502  35.414  41.846  11.071
76622NA+    NA+46503  31.407  10.290  14.895
76623NA+    NA+46504  19.581  19.701   3.342
76624NA+    NA+46505  23.572  21.739  11.375
76625NA+    NA+46506   0.492  12.130  13.983
76626NA+    NA+46507  25.528  14.198  13.322
76627NA+    NA+46508  27.629  44.412   4.807
76628NA+    NA+46509  13.837  10.366   2.873
76629NA+    NA+46510  18.553   7.378  12.415
76630NA+    NA+46511   5.285  20.648  11.066
76631NA+    NA+46512   8.881  28.583  10.595
76632NA+    NA+46513  15.725  23.174   1.843
76633NA+    NA+46514   4.943   2.965   2.370
76634NA+    NA+46515  25.022  25.157   1.334
76635NA+    NA+46516  42.782  41.435   2.310
76636NA+    NA+46517   0.333  11.661   3.840
76637NA+    NA+46518  16.683  11.637   2.714
76638NA+    NA+46519  39.905  17.704   1.358
76639NA+    NA+46520  37.039  21.562  13.538
76640NA+    NA+46521  38.443  17.294  10.455
76641NA+    NA+46522  25.973  28.964   2.303
76642NA+    NA+46523  38.462  12.134   2.758
76643NA+    NA+46524  41.884  15.782   3.776
76644NA+    NA+46525  32.134  39.887  12.408
76645NA+    NA+46526  17.630  10.771   1.385
76646NA+    NA+46527  40.457  37.857  13.312
76647NA+    NA+46528  10.859  30.558   3.804
76648NA+    NA+46529   8.397   2.778   0.837
76649NA+    NA+46530  20.588   5.726  12.423
76650NA+    NA+46531  24.198  29.571   4.163
76651NA+    NA+46532  11.309   5.900   4.752
76652NA+    NA+46533  43.364  13.784  10.472
76653NA+    NA+46534   9.776  27.123  13.423
76654NA+    NA+46535   9.711  27.973   2.816
76655NA+    NA+46536  41.916  16.684  11.558
76656NA+    NA+46537   8.841  32.580  11.375
76657NA+    NA+46538  44.992  39.877   0.744
76658NA+    NA+46539  11.129  23.112   0.254
76659NA+    NA+46540  22.665  42.018   1.910
76660NA+    NA+46541  20.553  35.552   3.348
76661NA+    NA+46542  28.128  13.716   4.302
76662NA+    NA+46543  31.520  41.025  11.014
76663NA+    NA+46544  41.390   5.300  14.003
76664NA+    NA+46545  27.665   2.942  12.443
76665NA+    NA+46546  31.420  26.004   2.704
76666NA+    NA+46547   2.378   2.344   2.274
76667NA+    NA+46548   4.333  23.116   4.137
76668NA+    NA+46549  15.638  22.134   4.833
76669NA+    NA+46550  22.542  10.321  13.497
76670NA+    NA+46551   0.344   0.446  13.474
76671NA+    NA+46552   0.982  26.485   4.677
76672NA+    NA+46553  12.236  11.770   4.741
76673NA+    NA+46554   6.273  18.602  14.373
76674NA+    NA+46555  13.716  39.991   1.223
76675NA+    NA+46556  26.649  37.848  12.345
76676NA+    NA+46557  10.292   6.868   1.359
76677NA+    NA+46558  43.847  11.282  13.989
76678NA+    NA+46559  43.356   2.876  12.092
76679NA+    NA+46560  24.552  22.712  14.507
76680NA+    NA+46561   7.219   9.233   0.332
76681NA+    NA+46562  12.343   1.316  14.944
76682NA+    NA+46563  20.165  40.416   2.184
76683NA+    NA+46564  30.608  26.677   2.675
76684NA+    NA+46565  16.663   2.273   1.418
76685NA+    NA+46566  10.204  43.876  12.884
76686NA+    NA+46567  14.229  44.843   0.847
76687NA+    NA+46568   5.409  24.151   0.400
76688NA+    NA+46569   1.277  16.791   2.745
76689NA+    NA+46570  44.426  13.108   3.280
76690NA+    NA+46571   8.385  41.024   0.363
76691NA+    NA+46572  39.458   5.259  14.438
76692NA+    NA+46573  24.220  19.574   5.121
76693NA+    NA+46574  16.107  40.329  12.055
76694NA+    NA+46575  10.683  17.305  13.058
76695NA+    NA+46576  39.519  29.516  13.829
76696NA+    NA+46577  24.580   1.471   0.434
76697NA+    NA+46578  39.962  14.228   0.464
76698NA+    NA+46579  41.864   6.280   0.338
76699NA+    NA+46580  41.948   6.799   3.739
76700NA+    NA+46581  28.006  33.467  11.568
76701NA+    NA+46582  30.996  24.994   1.387
76702NA+    NA+46583  44.929  17.214  14.954
76703NA+    NA+46584  12.289  10.856   3.661
76704NA+    NA+46585  31.559   9.747  12.528
76705NA+    NA+46586  17.105   9.182   4.763
76706NA+    NA+46587  10.643  27.525  13.862
76707NA+    NA+46588  27.189  23.094  14.458
76708NA+    NA+46589  17.779   2.879   2.677
76709NA+    NA+46590  36.016  27.508   3.705
76710NA+    NA+46591  43.400  37.351   4.128
76711NA+    NA+46592   5.386  11.862   0.807
76712NA+    NA+46593  11.695  24.606   4.324
76713NA+    NA+46594  24.713  27.168  11.916
76714NA+    NA+46595  31.973  18.101  10.894
76715NA+    NA+46596   7.835   7.902  12.866
76716NA+    NA+46597  27.501  18.196   2.297
76717NA+    NA+46598  44.972   5.250   3.290
76718NA+    NA+46599  30.041   1.900  10.556
76719NA+    NA+46600   8.378   0.480  11.376
76720NA+    NA+46601  34.504  35.389  13.317
76721NA+    NA+46602   8.862  34.379  10.609
76722NA+    NA+46603  10.679  43.288   0.773
76723NA+    NA+46604  22.701  22.692   2.339
76724NA+    NA+46605  22.680  20.577   4.344
76725NA+    NA+46606   0.805  10.354   4.263
76726NA+    NA+46607  33.061  29.089  11.417
76727NA+    NA+46608  26.643  34.507  14.767
76728NA+    NA+46609  16.315  30.578   0.766
76729NA+    NA+46610   3.740  27.975  11.442
76730NA+    NA+46611  13.786  34.512  12.060
76731NA+    NA+46612  34.603   9.709  13.927
76732NA+    NA+46613  19.183   0.986   4.141
76733NA+    NA+46614   6.692  37.562   3.801
76734NA+    NA+46615  39.410   5.274   4.606
76735NA+    NA+46616  39.859   6.784  12.057
76736NA+    NA+46617  32.583  16.758  10.507
76737NA+    NA+46618  23.174  24.624  12.840
76738NA+    NA+46619  22.193  36.037  14.312
76739NA+    NA+46620  13.275  21.608  14.951
76740NA+    NA+46621  18.639  32.427   0.266
76741NA+    NA+46622  39.827  41.428  11.864
76742NA+    NA+46623  15.185  30.932   3.793
76743NA+    NA+46624  19.759  37.515  10.425
76744NA+    NA+46625  40.304  15.621   9.979
76745NA+    NA+46626  27.580   4.771  13.794
76746NA+    NA+46627  11.264  25.468  10.506
76747NA+    NA+46628  42.995  34.533  10.588
76748NA+    NA+46629   2.303  15.616   0.906
76749NA+    NA+46630  27.532  12.766  13.846
76750NA+    NA+46631  33.485  15.672  10.414
76751NA+    NA+46632  10.677  30.148   2.897
76752NA+    NA+46633  14.324  35.497   1.852
76753NA+    NA+46634   7.370  41.898   4.216
76754NA+    NA+46635   3.886  32.041  11.881
76755NA+    NA+46636   0.479  31.592  12.065
76756NA+    NA+46637  25.603  37.848   3.231
76757NA+    NA+46638  35.599  12.127  11.951
76758NA+    NA+46639  39.998   6.865  11.512
76759NA+    NA+46640   7.225  24.102  14.928
76760NA+    NA+46641  13.233   2.376  11.549
76761NA+    NA+46642  37.552  17.126  14.986
76762NA+    NA+46643  15.154   1.759  12.535
76763NA+    NA+46644  31.407  39.329   2.407
76764NA+    NA+46645  38.464  43.495   1.884
76765NA+    NA+46646  29.028  32.040   1.220
76766NA+    NA+46647  12.273  43.915   1.373
76767NA+    NA+46648  30.603  44.462   4.353
76768NA+    NA+46649   1.747  19.079  12.094
76769NA+    NA+46650   0.350  13.206  10.590
76770NA+    NA+46651  25.620  30.036   3.696
76771NA+    NA+46652  27.686  16.312   2.307
76772NA+    NA+46653  25.651   3.366   0.813
76773NA+    NA+46654  23.561  18.217  14.342
76774NA+    NA+46655  41.944  19.275   2.182
76775NA+    NA+46656   1.872  38.875   2.341
76776NA+    NA+46657  18.234  35.914   2.752
76777NA+    NA+46658  37.032  39.879  14.847
76778NA+    NA+46659  15.742  41.930   5.302
76779NA+    NA+46660  23.565  10.138   2.397
76780NA+    NA+46661   5.688  22.577   4.314
76781NA+    NA+46662  42.950  21.752   0.829
76782NA+    NA+46663  42.356  17.234  12.563
76783NA+    NA+46664   5.250  39.333   2.296
76784NA+    NA+46665  29.578  15.091   1.292
76785NA+    NA+46666  34.883  35.998   3.351
76786NA+    NA+46667  39.431  24.018  12.438
76787NA+    NA+46668  34.888  30.610   9.926
76788NA+    NA+46669  33.448  19.543  11.388
76789NA+    NA+46670   4.238  33.977  14.359
76790NA+    NA+46671   1.310  40.861  12.059
76791NA+    NA+46672  19.217  23.681  11.386
76792NA+    NA+46673  23.192  32.118  12.914
76793NA+    NA+46674  28.579  32.040   3.673
76794NA+    NA+46675   6.777  35.059  14.502
76795NA+    NA+46676  28.952   8.769   4.697
76796NA+    NA+46677  20.560  32.585  12.068
76797NA+    NA+46678  38.403   5.846   2.240
76798NA+    NA+46679  40.901  11.173  13.341
76799NA+    NA+46680  24.714  12.734   3.686
76800NA+    NA+46681  38.353   8.326  13.308
76801NA+    NA+46682  40.800  12.841  10.962
76802NA+    NA+46683  20.078  26.568   1.304
76803NA+    NA+46684  20.601  36.972  14.307
76804NA+    NA+46685   8.319  10.224   3.640
76805NA+    NA+46686   4.233   9.266  12.908
76806NA+    NA+46687   3.381   6.408   2.398
76807NA+    NA+46688  44.918  13.839  14.453
76808NA+    NA+46689   3.461  10.783   2.329
76809NA+    NA+46690  21.228  16.698  11.477
76810NA+    NA+46691  25.138  39.849  11.869
76811NA+    NA+46692  26.142  41.030  12.904
76812NA+    NA+46693  13.629  42.930   4.632
76813NA+    NA+46694  33.043  39.347   0.872
76814NA+    NA+46695  17.799  20.038  10.914
76815NA+    NA+46696  27.655  28.029   4.655
76816NA+    NA+46697  11.792  26.632  10.076
76817NA+    NA+46698   5.874  32.914  11.403
76818NA+    NA+46699  26.578  16.302  11.106
76819NA+    NA+46700   5.841  35.030   4.804
76820NA+    NA+46701  30.437  37.010  13.987
76821NA+    NA+46702  31.011  30.438  14.403
76822NA+    NA+46703   9.697  31.411   4.660
76823NA+    NA+46704   8.791  19.669   0.901
76824NA+    NA+46705   2.231  19.564  14.338
76825NA+    NA+46706  33.895  28.929  12.347
76826NA+    NA+46707  44.848  20.648  11.903
76827NA+    NA+46708  40.818  32.585   3.774
76828NA+    NA+46709  18.673   8.292   2.836
76829NA+    NA+46710   6.200  31.530  12.345
76830NA+    NA+46711  17.642   0.784   1.806
76831NA+    NA+46712  38.930   0.921  14.442
76832NA+    NA+46713  38.378   0.964   4.641
76833NA+    NA+46714  34.970  31.555   3.262
76834NA+    NA+46715  12.647  37.577   1.775
76835NA+    NA+46716  19.085  22.628  12.881
76836NA+    NA+46717  12.143  39.386  14.773
76837NA+    NA+46718  13.675  23.069  12.947
76838NA+    NA+46719  42.306   4.303   2.279
76839NA+    NA+46720  27.532  33.591  10.563
76840NA+    NA+46721  27.047  37.838  13.005
76841NA+    NA+46722   2.320  35.049   0.866
76842NA+    NA+46723  41.951  21.652   3.329
76843NA+    NA+46724   0.860  27.527   0.402
76844NA+    NA+46725  12.296  41.469  14.424
76845NA+    NA+46726  41.040  36.998  11.600
76846NA+    NA+46727   7.417  14.310  11.570
76847NA+    NA+46728   7.822  16.632  12.482
76848NA+    NA+46729   5.429  38.922   4.645
76849NA+    NA+46730  38.380   9.730   3.713
76850NA+    NA+46731  44.955  17.212  12.343
76851NA+    NA+46732  10.796   8.366   1.783
76852NA+    NA+46733  29.523  16.716  12.411
76853NA+    NA+46734  26.990  15.184  11.124
76854NA+    NA+46735  10.150  16.121   0.428
76855NA+    NA+46736  29.450   7.814  10.030
76856NA+    NA+46737  18.657  31.443   1.289
76857NA+    NA+46738  27.160   3.349   5.158
76858NA+    NA+46739  16.603  19.743  14.480
76859NA+    NA+46740   2.943  41.939  13.393
76860NA+    NA+46741  32.619   9.831  13.843
76861NA+    NA+46742  37.981  37.351   5.082
76862NA+    NA+46743  39.930  32.886   1.886
76863NA+    NA+46744  18.088  40.410   1.923
76864NA+    NA+46745  18.287  13.815   0.454
76865NA+    NA+46746   4.882   9.844   1.213
76866NA+    NA+46747  34.967  43.382   0.783
76867NA+    NA+46748  36.400  42.815   0.277
76868NA+    NA+46749   3.339   7.836   1.260
76869NA+    NA+46750  29.960  15.800  11.902
76870NA+    NA+46751   7.744  44.826  14.821
76871NA+    NA+46752  33.490  18.696   0.926
76872NA+    NA+46753  37.919   0.847  12.463
76873NA+    NA+46754  13.288  26.601   2.368
76874NA+    NA+46755  33.874  30.568   0.874
76875NA+    NA+46756  27.446   3.779   1.238
76876NA+    NA+46757  11.790  10.748   3.349
76877NA+    NA+46758  10.872  23.015  10.477
76878NA+    NA+46759  18.092  40.321  11.386
76879NA+    NA+46760  31.027  35.527  10.969
76880NA+    NA+46761  32.925   7.894  14.409
76881NA+    NA+46762   3.729  23.721  12.567
76882NA+    NA+46763  36.043   9.150  12.869
76883NA+    NA+46764  42.011  10.854   2.386
76884NA+    NA+46765  32.971  24.184   1.931
76885NA+    NA+46766   0.985  39.375  12.367
76886NA+    NA+46767  12.175  36.584  14.916
76887NA+    NA+46768   1.748  41.001  12.580
76888NA+    NA+46769  10.160  14.764   0.335
76889NA+    NA+46770   7.886  23.508   1.315
76890NA+    NA+46771  43.436  18.761   1.344
76891NA+    NA+46772  10.278  31.081   4.194
76892NA+    NA+46773  19.549  19.667   0.832
76893NA+    NA+46774   2.324  43.927  11.563
76894NA+    NA+46775  15.094  18.727  11.990
76895NA+    NA+46776  37.450  11.642  10.618
76896NA+    NA+46777  10.246   4.298   0.411
76897NA+    NA+46778  23.063  17.630  12.925
76898NA+    NA+46779   7.398  21.165  12.872
76899NA+    NA+46780   4.322  22.210  12.877
76900NA+    NA+46781   4.325  20.599  14.430
76901NA+    NA+46782  11.178  14.164  14.330
76902NA+    NA+46783  11.831  42.849   3.744
76903NA+    NA+46784  38.065  35.496   0.452
76904NA+    NA+46785  15.105   5.426  13.413
76905NA+    NA+46786   6.280  16.167   1.278
76906NA+    NA+46787  42.875  10.846   3.682
76907NA+    NA+46788  29.043  24.641   3.176
76908NA+    NA+46789  19.118   3.921   2.241
76909NA+    NA+46790  31.474  22.538  12.930
76910NA+    NA+46791  31.614   7.858   5.623
76911NA+    NA+46792   6.850  44.389  12.499
76912NA+    NA+46793  38.474   9.366   0.470
76913NA+    NA+46794  38.969  32.039  14.968
76914NA+    NA+46795  15.237  14.706   2.272
76915NA+    NA+46796   0.385  41.412   1.450
76916NA+    NA+46797  15.165  11.266   4.141
76917NA+    NA+46798   8.229  25.044  13.016
76918NA+    NA+46799  28.002  24.592  14.801
76919NA+    NA+46800  23.093   3.752  10.945
76920NA+    NA+46801  10.358  23.684   2.383
76921NA+    NA+46802  29.434  40.531  13.048
76922NA+    NA+46803  23.214  24.594  11.523
76923NA+    NA+46804   8.260  40.367  12.357
76924NA+    NA+46805  11.841  19.541  13.970
76925NA+    NA+46806  21.617  44.760   1.240
76926NA+    NA+46807  20.629   0.780   1.756
76927NA+    NA+46808  38.387   1.396   2.350
76928NA+    NA+46809  43.277  10.773   2.880
76929NA+    NA+46810  26.046  16.799  10.443
76930NA+    NA+46811  15.094  15.685   0.303
76931NA+    NA+46812   5.268  24.542  12.905
76932NA+    NA+46813   4.420  40.855   2.310
76933NA+    NA+46814  16.318  28.534  12.075
76934NA+    NA+46815  39.340  31.446   3.819
76935NA+    NA+46816  28.594  35.042   2.201
76936NA+    NA+46817  19.267  16.679   4.137
76937NA+    NA+46818  23.585  39.435   3.681
76938NA+    NA+46819  25.194  32.975  13.859
76939NA+    NA+46820  14.152  18.739   4.740
76940NA+    NA+46821  30.606   9.852  12.014
76941NA+    NA+46822   6.408   0.309  14.383
76942NA+    NA+46823   2.326  29.993   1.860
76943NA+    NA+46824   2.881  28.613   3.649
76944NA+    NA+46825  27.688  25.029  12.465
76945NA+    NA+46826  31.447  14.805   0.845
76946NA+    NA+46827   9.705  23.088  13.366
76947NA+    NA+46828  19.601  18.180   3.174
76948NA+    NA+46829  31.978  31.014  14.767
76949NA+    NA+46830  37.427   0.928  14.434
76950NA+    NA+46831  33.462  29.425   2.190
76951NA+    NA+46832  17.232  10.161   2.817
76952NA+    NA+46833  38.548  41.939   4.604
76953NA+    NA+46834  42.817  19.637  12.946
76954NA+    NA+46835  39.886  38.850  10.944
76955NA+    NA+46836  32.564  35.002  13.010
76956NA+    NA+46837  39.885  44.346   2.709
76957NA+    NA+46838  41.790   1.385  11.544
76958NA+    NA+46839  21.142  44.803   4.204
76959NA+    NA+46840  21.732  30.566   0.967
76960NA+    NA+46841  12.156   7.177   0.953
76961NA+    NA+46842  34.978  27.082  13.308
76962NA+    NA+46843  11.742  25.010   4.672
76963NA+    NA+46844  29.619   5.862   3.226
76964NA+    NA+46845   2.293  31.063   0.315
76965NA+    NA+46846   9.311   5.398  10.540
76966NA+    NA+46847  15.657  14.747   1.868
76967NA+    NA+46848   8.870  15.602  12.976
76968NA+    NA+46849  38.410  12.323   1.450
76969NA+    NA+46850  41.038   6.377   0.306
76970NA+    NA+46851  31.585  39.336  13.512
76971NA+    NA+46852   3.241  19.598  14.329
76972NA+    NA+46853  29.582  12.264  10.600
76973NA+    NA+46854  18.690  28.562   4.722
76974NA+    NA+46855  10.872  17.100  12.498
76975NA+    NA+46856   1.319  41.494   0.767
76976NA+    NA+46857  42.506   3.857  13.391
76977NA+    NA+46858  23.239  42.781  14.908
76978NA+    NA+46859  23.570  18.653   1.767
76979NA+    NA+46860  25.563  16.117  14.797
76980NA+    NA+46861  44.865  22.704   1.402
76981NA+    NA+46862  39.533  21.253   0.861
76982NA+    NA+46863  27.600  26.608   3.339
76983NA+    NA+46864  20.708  29.944   1.764
76984NA+    NA+46865  10.295  33.906   3.663
76985NA+    NA+46866  42.364  18.661  14.873
76986NA+    NA+46867   0.969  16.721   0.365
76987NA+    NA+46868  24.691  21.070   9.949
76988NA+    NA+46869  11.322  42.930   4.709
76989NA+    NA+46870  36.551   1.416   2.887
76990NA+    NA+46871  41.483  10.768  13.874
76991NA+    NA+46872   5.917  30.940   1.218
76992NA+    NA+46873  16.236  16.117   1.701
76993NA+    NA+46874  26.056   1.873  10.472
76994NA+    NA+46875  10.181  40.475   1.901
76995NA+    NA+46876  27.475  34.918   0.371
76996NA+    NA+46877  20.609  15.093   2.707
76997NA+    NA+46878  42.399  25.628   3.691
76998NA+    NA+46879  25.704   1.469  11.003
76999NA+    NA+46880  37.897  39.356  11.884
77000NA+    NA+46881  17.161  30.576   2.292
77001NA+    NA+46882  41.536  41.449  13.904
77002NA+    NA+46883  30.099  19.166  11.094
77003NA+    NA+46884  42.998  35.583   1.408
77004NA+    NA+46885  28.524  40.431  13.492
77005NA+    NA+46886  41.842  30.465  10.587
77006NA+    NA+46887   0.866  19.067   2.295
77007NA+    NA+46888  35.997   7.217  12.499
77008NA+    NA+46889  11.213  10.289   3.306
77009NA+    NA+46890  31.591   6.287  11.024
77010NA+    NA+46891  10.720  13.237  14.393
77011NA+    NA+46892   5.313  36.849  12.482
77012NA+    NA+46893  38.852  30.094   3.679
77013NA+    NA+46894   2.855  25.119   2.258
77014NA+    NA+46895  18.682  22.730   4.330
77015NA+    NA+46896  38.036  13.637   4.208
77016NA+    NA+46897  16.127  24.522  12.403
77017NA+    NA+46898  18.559  33.508   0.821
77018NA+    NA+46899  26.085   6.363  10.409
77019NA+    NA+46900   0.475   5.290   3.183
77020NA+    NA+46901  17.623   2.793   4.722
77021NA+    NA+46902  29.514  18.190   3.362
77022NA+    NA+46903  30.594  41.954  14.814
77023NA+    NA+46904  43.314   6.252  11.526
77024NA+    NA+46905  43.999  16.693   0.433
77025NA+    NA+46906  31.454  18.554   1.798
77026NA+    NA+46907  44.903   4.245  13.398
77027NA+    NA+46908  14.162   9.776  11.409
77028NA+    NA+46909  26.622  33.111  11.491
77029NA+    NA+46910   1.430  31.082  13.400
77030NA+    NA+46911  12.248  18.053  10.568
77031NA+    NA+46912  41.318   1.772   0.820
77032NA+    NA+46913  17.764  19.100   0.319
77033NA+    NA+46914  21.021  11.673   4.252
77034NA+    NA+46915   4.853   7.331   3.329
77035NA+    NA+46916  31.085  38.472   1.694
77036NA+    NA+46917  34.602   4.760  12.391
77037NA+    NA+46918  33.121   1.784  14.869
77038NA+    NA+46919  13.121  19.233   0.346
77039NA+    NA+46920  17.260  32.489   4.807
77040NA+    NA+46921  40.347  29.034   1.326
77041NA+    NA+46922  33.532  40.398   1.792
77042NA+    NA+46923   0.770  18.783   4.122
77043NA+    NA+46924  41.842   6.317  12.517
77044NA+    NA+46925  37.864  26.043   1.264
77045NA+    NA+46926  43.809  30.456  14.370
77046NA+    NA+46927  28.937  13.618   3.195
77047NA+    NA+46928  12.733  42.839  13.898
77048NA+    NA+46929  13.220  20.242  11.972
77049NA+    NA+46930  28.679  15.660   3.218
77050NA+    NA+46931   3.286   2.836  13.888
77051NA+    NA+46932  35.417   1.317  13.387
77052NA+    NA+46933  39.015  27.942  11.397
77053NA+    NA+46934  38.885  28.532  11.946
77054NA+    NA+46935  29.083  23.631  13.824
77055NA+    NA+46936  28.948  34.879   2.404
77056NA+    NA+46937   7.273  36.063  14.798
77057NA+    NA+46938  27.056  35.961   2.410
77058NA+    NA+46939  13.140  44.845   2.775
77059NA+    NA+46940  22.582  27.047  12.397
77060NA+    NA+46941  34.090  30.475  10.459
77061NA+    NA+46942  26.058  28.953  12.410
77062NA+    NA+46943  10.741  28.527   9.988
77063NA+    NA+46944   5.344  43.370  14.322
77064NA+    NA+46945  39.410   8.840   1.272
77065NA+    NA+46946  28.053  35.055   4.202
77066NA+    NA+46947  29.603   1.901   1.860
77067NA+    NA+46948  42.785  20.172  10.597
77068NA+    NA+46949  24.707   2.789  12.558
77069NA+    NA+46950   0.784   2.297   1.295
77070NA+    NA+46951  33.513  27.168   2.296
77071NA+    NA+46952  11.770   2.894   2.328
77072NA+    NA+46953  42.891  19.588   3.849
77073NA+    NA+46954  11.143  14.322   4.179
77074NA+    NA+46955  37.344  33.429  12.466
77075NA+    NA+46956   6.846  40.807  12.572
77076NA+    NA+46957  40.803  19.067  13.330
77077NA+    NA+46958  22.171  35.527  13.317
77078NA+    NA+46959  18.092  13.138   0.951
77079NA+    NA+46960  20.062  20.542   3.855
77080NA+    NA+46961  24.681  43.438   2.412
77081NA+    NA+46962  14.280  22.150  14.292
77082NA+    NA+46963  35.540   1.957   4.660
77083NA+    NA+46964  24.497   5.791   0.402
77084NA+    NA+46965  37.521  30.447   4.706
77085NA+    NA+46966   6.252  28.581   4.203
77086NA+    NA+46967   5.796  41.897   0.424
77087NA+    NA+46968   2.912  29.582   2.677
77088NA+    NA+46969  41.797  28.173  14.433
77089NA+    NA+46970  20.186   9.264  12.488
77090NA+    NA+46971   3.849  35.962   3.165
77091NA+    NA+46972   1.756  17.112  11.054
77092NA+    NA+46973  22.600  11.355   0.860
77093NA+    NA+46974   4.895  44.435  10.622
77094NA+    NA+46975   2.902   8.879   3.323
77095NA+    NA+46976   8.313   0.850  12.944
77096NA+    NA+46977  41.005  37.412  12.006
77097NA+    NA+46978   6.837  34.519   4.177
77098NA+    NA+46979  11.641  16.236   3.349
77099NA+    NA+46980  35.508   9.198  12.035
77100NA+    NA+46981  18.647  12.632  11.887
77101NA+    NA+46982  35.476  10.690   3.687
77102NA+    NA+46983   9.326  42.993   3.202
77103NA+    NA+46984   3.333  13.618  13.055
77104NA+    NA+46985   6.292   4.299   3.645
77105NA+    NA+46986  20.602  26.982   4.600
77106NA+    NA+46987  31.549  28.931   2.773
77107NA+    NA+46988  43.783  42.475  13.352
77108NA+    NA+46989  36.924  43.398  11.397
77109NA+    NA+46990   9.257  16.158   2.826
77110NA+    NA+46991  27.606  28.119   3.320
77111NA+    NA+46992   9.881  41.898  14.966
77112NA+    NA+46993  25.676   8.342   1.404
77113NA+    NA+46994  34.427  38.484   0.247
77114NA+    NA+46995  20.562  44.411   0.253
77115NA+    NA+46996  30.149  41.898   0.775
77116NA+    NA+46997   3.894   1.858  12.470
77117NA+    NA+46998   2.373  44.899   1.843
77118NA+    NA+46999  15.691   0.762   4.276
77119NA+    NA+47000  38.361  43.448  14.775
77120NA+    NA+47001  35.534  11.821  13.408
77121NA+    NA+47002  39.403  24.990  12.835
77122NA+    NA+47003  21.035  19.085   2.251
77123NA+    NA+47004  24.616  26.961   0.894
77124NA+    NA+47005  12.271  18.597   3.277
77125NA+    NA+47006  44.931   7.215   0.960
77126NA+    NA+47007   7.802   5.803  14.362
77127NA+    NA+47008  15.697  44.978   0.764
77128NA+    NA+47009  44.771  30.141  13.871
77129NA+    NA+47010  10.650  35.487  12.960
77130NA+    NA+47011  44.393  34.483   3.298
77131NA+    NA+47012  13.658   6.387   0.817
77132NA+    NA+47013  41.527   3.433   3.753
77133NA+    NA+47014  43.420   7.410   4.685
77134NA+    NA+47015  30.603   8.736  11.127
77135NA+    NA+47016   0.831  31.448  11.110
77136NA+    NA+47017  26.561  16.802   4.336
77137NA+    NA+47018  19.232  24.667   4.331
77138NA+    NA+47019   5.744  21.677  14.375
77139NA+    NA+47020  25.553  36.871  14.281
77140NA+    NA+47021  31.419  14.806   2.278
77141NA+    NA+47022  26.480  18.262  14.874
77142NA+    NA+47023  20.752  38.452  10.534
77143NA+    NA+47024  26.058   7.202   2.740
77144NA+    NA+47025  29.536  37.344   0.392
77145NA+    NA+47026  12.736  34.580  12.901
77146NA+    NA+47027  11.801  22.561   3.725
77147NA+    NA+47028  13.838   5.388   1.788
77148NA+    NA+47029  35.464  19.051   2.345
77149NA+    NA+47030  40.030   9.680   0.339
77150NA+    NA+47031  13.242  33.454  12.479
77151NA+    NA+47032  26.625  13.601  12.566
77152NA+    NA+47033  43.388  43.282  10.499
77153NA+    NA+47034  31.571   2.898  14.974
77154NA+    NA+47035  15.215   3.315   1.377
77155NA+    NA+47036  26.011  27.985  12.407
77156NA+    NA+47037  34.920  33.963  14.436
77157NA+    NA+47038  27.543  26.683   4.658
77158NA+    NA+47039  13.731  41.019  11.108
77159NA+    NA+47040  24.548  42.925  14.405
77160NA+    NA+47041   5.282   6.905  11.084
77161NA+    NA+47042  29.011  27.566   2.737
77162NA+    NA+47043  11.347  18.638   0.961
77163NA+    NA+47044  20.158  15.211   3.770
77164NA+    NA+47045  22.508   4.763   2.686
77165NA+    NA+47046  40.032   3.860   4.240
77166NA+    NA+47047   2.239  22.208   1.240
77167NA+    NA+47048   2.865  43.357  12.541
77168NA+    NA+47049  25.693   6.882   2.268
77169NA+    NA+47050   8.727  25.967  10.917
77170NA+    NA+47051  44.340  37.011   3.266
77171NA+    NA+47052  10.268  10.319  12.062
77172NA+    NA+47053  33.940  43.974  14.820
77173NA+    NA+47054  35.568  38.900   1.337
77174NA+    NA+47055  24.138  30.970   1.227
77175NA+    NA+47056   7.188   7.220  12.028
77176NA+    NA+47057  40.863  44.420  10.595
77177NA+    NA+47058  22.583  11.719   2.273
77178NA+    NA+47059  41.042   2.413  14.827
77179NA+    NA+47060   1.867  23.662  14.434
77180NA+    NA+47061  44.429  33.557   1.780
77181NA+    NA+47062  16.591  41.803   1.326
77182NA+    NA+47063  11.326   2.394  11.571
77183NA+    NA+47064  12.183  16.076  13.995
77184NA+    NA+47065  31.482  21.193   0.835
77185NA+    NA+47066  22.636   2.754  12.902
77186NA+    NA+47067  28.584  23.705   2.277
77187NA+    NA+47068  44.837  24.981  12.022
77188NA+    NA+47069  11.175  34.472   3.317
77189NA+    NA+47070   6.240  32.615  12.520
77190NA+    NA+47071  13.111   7.352  14.367
77191NA+    NA+47072   1.367  23.210  13.928
77192NA+    NA+47073  28.004  27.067  13.797
77193NA+    NA+47074  20.758  32.595   0.248
77194NA+    NA+47075  33.389  15.164  11.960
77195NA+    NA+47076  38.930  23.032  12.967
77196NA+    NA+47077  25.967  33.116  12.953
77197NA+    NA+47078  43.895  26.492  13.450
77198NA+    NA+47079  17.784  35.855  10.429
77199NA+    NA+47080  12.282  15.602   1.361
77200NA+    NA+47081   1.329  23.021  10.637
77201NA+    NA+47082   3.271  34.095  14.508
77202NA+    NA+47083  41.817  17.129   9.966
77203NA+    NA+47084  33.958  35.562   4.711
77204NA+    NA+47085  36.081  16.618   3.662
77205NA+    NA+47086  31.955   0.918  12.854
77206NA+    NA+47087  15.149  10.270  13.871
77207NA+    NA+47088   0.314  13.635   1.889
77208NA+    NA+47089   5.329  17.133  12.025
77209NA+    NA+47090   9.373   0.782   0.857
77210NA+    NA+47091  15.819   2.865  13.309
77211NA+    NA+47092  42.781  25.655   4.197
77212NA+    NA+47093  14.826   3.918   3.253
77213NA+    NA+47094  37.410  26.955  13.859
77214NA+    NA+47095  36.098  26.073  12.427
77215NA+    NA+47096  44.418  30.960   3.705
77216NA+    NA+47097  26.035  32.010  14.951
77217NA+    NA+47098  15.274  22.137  11.111
77218NA+    NA+47099  34.874  14.795  11.518
77219NA+    NA+47100  15.683  13.803  11.476
77220NA+    NA+47101  41.832  10.193   4.715
77221NA+    NA+47102   6.254  38.520   2.342
77222NA+    NA+47103   8.749  13.749   3.279
77223NA+    NA+47104  42.303   2.951   4.724
77224NA+    NA+47105  12.141  35.856  13.997
77225NA+    NA+47106   1.396  24.218  13.474
77226NA+    NA+47107   1.343  16.577  14.864
77227NA+    NA+47108  17.766  42.792   0.812
77228NA+    NA+47109  43.436   8.306   3.863
77229NA+    NA+47110  18.743  28.460   4.189
77230NA+    NA+47111  37.391  10.184  10.949
77231NA+    NA+47112  21.658  10.788   2.239
77232NA+    NA+47113   8.375  26.017  12.877
77233NA+    NA+47114  37.501   7.314  10.940
77234NA+    NA+47115  42.866  38.929   2.695
77235NA+    NA+47116  44.420  21.178  14.367
77236NA+    NA+47117  25.692  43.913  11.067
77237NA+    NA+47118  25.667   3.332  14.808
77238NA+    NA+47119  34.575  37.872  10.990
77239NA+    NA+47120  38.043  21.157   1.825
77240NA+    NA+47121  30.511  29.659   4.716
77241NA+    NA+47122   7.724  19.642   1.872
77242NA+    NA+47123  32.920  26.107   4.763
77243NA+    NA+47124  26.643  13.209  12.840
77244NA+    NA+47125  23.211  13.659  13.008
77245NA+    NA+47126  19.658  34.429  12.955
77246NA+    NA+47127  34.971  11.231   4.244
77247NA+    NA+47128  14.718  38.561  14.781
77248NA+    NA+47129  24.122   8.181   3.759
77249NA+    NA+47130  31.579  41.374   4.800
77250NA+    NA+47131  30.494  22.086   1.910
77251NA+    NA+47132   1.772  16.100  14.846
77252NA+    NA+47133  28.469  37.339   1.421
77253NA+    NA+47134  25.097  10.184  14.294
77254NA+    NA+47135   8.777  27.093  11.110
77255NA+    NA+47136  18.709  23.047   4.756
77256NA+    NA+47137   1.468   8.762  13.339
77257NA+    NA+47138  22.511  29.450  13.416
77258NA+    NA+47139  35.056  32.609  10.495
77259NA+    NA+47140  26.974  13.125   3.164
77260NA+    NA+47141  34.870   6.913  11.469
77261NA+    NA+47142  36.464  31.586   4.652
77262NA+    NA+47143  21.739  40.509   9.927
77263NA+    NA+47144  27.197  29.984  12.085
77264NA+    NA+47145  38.427  21.534  10.417
77265NA+    NA+47146   5.781   7.370   4.209
77266NA+    NA+47147  22.151  24.645   4.726
77267NA+    NA+47148  25.052  42.335  12.545
77268NA+    NA+47149   7.402   0.777  12.526
77269NA+    NA+47150  43.926   0.443   3.745
77270NA+    NA+47151  32.513  13.230  12.875
77271NA+    NA+47152  34.551  26.500   3.795
77272NA+    NA+47153  16.674  41.483  10.478
77273NA+    NA+47154  32.506  34.564   0.312
77274NA+    NA+47155  35.387  28.650  14.342
77275NA+    NA+47156  22.608  40.986  12.925
77276NA+    NA+47157  43.417   9.150   0.843
77277NA+    NA+47158  37.504  43.276   4.705
77278NA+    NA+47159  40.900  16.648   3.655
77279NA+    NA+47160  27.608  28.577   4.300
77280NA+    NA+47161  21.095   5.410  14.408
77281NA+    NA+47162  27.657   6.266   4.237
77282NA+    NA+47163   6.241  15.704   1.386
77283NA+    NA+47164  42.496  35.879  11.514
77284NA+    NA+47165   2.362  37.534   0.280
77285NA+    NA+47166  25.578  39.540  14.964
77286NA+    NA+47167  28.047  31.978  14.888
77287NA+    NA+47168  38.459   1.349   1.410
77288NA+    NA+47169  44.352  19.248   2.298
77289NA+    NA+47170  20.092  26.662  13.510
77290NA+    NA+47171  34.094  25.126  14.403
77291NA+    NA+47172  26.006   2.327  11.537
77292NA+    NA+47173  41.967  34.910  10.928
77293NA+    NA+47174   6.259  35.041   2.704
77294NA+    NA+47175  26.589  38.383  14.907
77295NA+    NA+47176   3.952  16.618   0.822
77296NA+    NA+47177  35.414  38.893   0.795
77297NA+    NA+47178  12.274   7.742   2.854
77298NA+    NA+47179  14.149  17.766   2.210
77299NA+    NA+47180   0.335  39.857   0.316
77300NA+    NA+47181  24.002  34.098  10.613
77301NA+    NA+47182   3.752  19.093  11.018
77302NA+    NA+47183   8.687  41.835   2.191
77303NA+    NA+47184  18.156  17.271   3.356
77304NA+    NA+47185  20.626   7.306   3.262
77305NA+    NA+47186  14.805  13.779   4.177
77306NA+    NA+47187  33.132  22.718   4.349
77307NA+    NA+47188   9.869  13.261  14.855
77308NA+    NA+47189  42.310  19.693   1.878
77309NA+    NA+47190   4.281  31.438   4.678
77310NA+    NA+47191  26.199  43.801  11.557
77311NA+    NA+47192  33.484  37.394   0.858
77312NA+    NA+47193  23.611  22.140   1.224
77313NA+    NA+47194  10.872  28.514  12.477
77314NA+    NA+47195   9.879  44.827  11.376
77315NA+    NA+47196  23.544  39.367  14.939
77316NA+    NA+47197  11.805  15.731   1.904
77317NA+    NA+47198  17.635  13.171  13.029
77318NA+    NA+47199  32.467  26.700   4.347
77319NA+    NA+47200  32.568   7.395  12.022
77320NA+    NA+47201  26.552   6.227   5.146
77321NA+    NA+47202  37.410  41.416  12.367
77322NA+    NA+47203  22.033   7.895  11.378
77323NA+    NA+47204  23.062   1.802  12.002
77324NA+    NA+47205  39.376  36.588   3.789
77325NA+    NA+47206  19.680  22.156  14.809
77326NA+    NA+47207  34.445  13.829   2.372
77327NA+    NA+47208   9.254   5.346   3.726
77328NA+    NA+47209  19.606  20.606   1.720
77329NA+    NA+47210  39.405   9.220  10.934
77330NA+    NA+47211  21.750  41.483   1.888
77331NA+    NA+47212  38.005  21.257  13.001
77332NA+    NA+47213  43.430  40.322   2.199
77333NA+    NA+47214  28.981  13.314   0.482
77334NA+    NA+47215   4.417  10.761  13.832
77335NA+    NA+47216   8.229  42.463   3.165
77336NA+    NA+47217  35.021  39.900   4.258
77337NA+    NA+47218  39.870  20.044  13.031
77338NA+    NA+47219  21.695   7.861  11.380
77339NA+    NA+47220  20.107  10.144  11.566
77340NA+    NA+47221   8.341  32.081  12.894
77341CL-    CL-47222  41.800   2.945  13.460
77342CL-    CL-47223  21.159  15.793   4.312
77343CL-    CL-47224  26.206  37.925   4.222
77344CL-    CL-47225  34.107  12.833   4.215
77345CL-    CL-47226  20.729  19.264   3.636
77346CL-    CL-47227  41.801   8.825   1.880
77347CL-    CL-47228  11.645  30.965  14.794
77348CL-    CL-47229  30.616   9.364  10.453
77349CL-    CL-47230   6.726  44.902  10.452
77350CL-    CL-47231  37.045  21.254  12.854
77351CL-    CL-47232  20.234   4.799   1.412
77352CL-    CL-47233   8.236   7.202  12.448
77353CL-    CL-47234  13.603  21.030  13.321
77354CL-    CL-47235  42.500  13.612  10.436
77355CL-    CL-47236   2.351  30.948   3.274
77356CL-    CL-47237  42.869  24.070  14.402
77357CL-    CL-47238  42.918  19.147  13.517
77358CL-    CL-47239   4.314  34.561  11.457
77359CL-    CL-47240  32.115  17.580   1.217
77360CL-    CL-47241  10.376  28.096  13.533
77361CL-    CL-47242  43.356   0.315   3.799
77362CL-    CL-47243   8.390  23.036  13.891
77363CL-    CL-47244   2.311  24.032  12.558
77364CL-    CL-47245   9.780  37.905   0.272
77365CL-    CL-47246  43.989  14.158   4.645
77366CL-    CL-47247  10.307  11.266   2.743
77367CL-    CL-47248  10.660  41.390   3.785
77368CL-    CL-47249  28.603   7.789   2.677
77369CL-    CL-47250  13.774  24.501   4.811
77370CL-    CL-47251  27.042  36.417  10.604
77371CL-    CL-47252  13.138  18.769   5.315
77372CL-    CL-47253   8.796  27.060   1.770
77373CL-    CL-47254  22.690   0.835  10.460
77374CL-    CL-47255  11.268  27.148   2.267
77375CL-    CL-47256  26.557  42.784  12.916
77376CL-    CL-47257   4.820  11.809  12.962
77377CL-    CL-47258  42.962  31.020   1.879
77378CL-    CL-47259  29.532  44.493  14.790
77379CL-    CL-47260   2.721  39.872   4.808
77380CL-    CL-47261  12.285  26.995  12.556
77381CL-    CL-47262   6.337  38.976   5.211
77382CL-    CL-47263  41.004  21.511   1.234
77383CL-    CL-47264  14.176  11.243  10.412
77384CL-    CL-47265   3.265  16.812  10.127
77385CL-    CL-47266  35.980  19.152   1.379
77386CL-    CL-47267  12.350   3.417  10.917
77387CL-    CL-47268  21.520  44.325   9.996
77388CL-    CL-47269  41.849  22.697   2.314
77389CL-    CL-47270  31.474  12.312  12.912
77390CL-    CL-47271   0.444  41.521  13.827
77391CL-    CL-47272  23.122  22.738  14.295
77392CL-    CL-47273  25.013  40.524  13.513
77393CL-    CL-47274  36.499  14.144  10.977
77394CL-    CL-47275  37.047  34.554  11.553
77395CL-    CL-47276  29.995  44.469  10.970
77396CL-    CL-47277   2.924  21.590   3.375
77397CL-    CL-47278  27.624  25.654  13.421
77398CL-    CL-47279  28.532   7.359   2.210
77399CL-    CL-47280  26.652   5.276   1.724
77400CL-    CL-47281  10.219   2.282   0.393
77401CL-    CL-47282   8.328   0.923   4.641
77402CL-    CL-47283  37.342  23.703  13.033
77403CL-    CL-47284   6.427  15.215  13.465
77404CL-    CL-47285  37.437   8.390   0.953
77405CL-    CL-47286  18.763   9.180   2.868
77406CL-    CL-47287  17.257  15.696  11.859
77407CL-    CL-47288  44.366  35.452  14.909
77408CL-    CL-47289  12.333   2.440   0.911
77409CL-    CL-47290  34.904  41.296   1.351
77410CL-    CL-47291  17.675  25.204  11.569
77411CL-    CL-47292  43.402  20.044  13.818
77412CL-    CL-47293  16.714  33.977  10.552
77413CL-    CL-47294  40.364  38.394  11.566
77414CL-    CL-47295  11.295  11.742  14.851
77415CL-    CL-47296   3.948  34.868   4.699
77416CL-    CL-47297   4.262  44.798  14.778
77417CL-    CL-47298   9.296  10.871   3.384
77418CL-    CL-47299  15.671  14.811  12.444
77419CL-    CL-47300  37.075  38.904  14.332
77420CL-    CL-47301  26.186  43.321   2.663
77421CL-    CL-47302   3.300  21.636   4.163
77422CL-    CL-47303  19.277  16.721  12.578
77423CL-    CL-47304  35.561   6.428   1.263
77424CL-    CL-47305  15.635   7.878   1.324
77425CL-    CL-47306  37.519  16.238   3.664
77426CL-    CL-47307  21.212  41.803   0.930
77427CL-    CL-47308   9.318  42.877  10.117
77428CL-    CL-47309  12.714   9.324  11.560
77429CL-    CL-47310  17.125  22.534  14.851
77430CL-    CL-47311  21.232   7.252   2.672
77431CL-    CL-47312  26.104   2.343  14.495
77432CL-    CL-47313  10.643  25.134   2.301
77433CL-    CL-47314  12.191  12.231  12.852
77434CL-    CL-47315  40.844  11.751   2.362
77435CL-    CL-47316  13.278  24.138   3.369
77436CL-    CL-47317  21.033  16.629   3.183
77437CL-    CL-47318  18.636  28.584  11.109
77438CL-    CL-47319  22.157   5.934  10.420
77439CL-    CL-47320   6.188  32.505   4.622
77440CL-    CL-47321  24.587   4.841  11.929
77441CL-    CL-47322   1.472  32.124   4.706
77442CL-    CL-47323  18.130  43.969   3.671
77443CL-    CL-47324  33.390  40.983   0.759
77444CL-    CL-47325   1.467  32.027   0.359
77445CL-    CL-47326  25.999  39.347   4.119
77446CL-    CL-47327   3.419  26.983  10.588
77447CL-    CL-47328  38.454   8.284  10.435
77448CL-    CL-47329  44.855   8.676  13.824
77449CL-    CL-47330   6.188  32.094   2.767
77450CL-    CL-47331   4.442   5.314   2.875
77451CL-    CL-47332   1.744   3.922   1.934
77452CL-    CL-47333  10.812   0.961   4.619
77453CL-    CL-47334   8.818   2.303   4.656
77454CL-    CL-47335  21.618  31.432   0.953
77455CL-    CL-47336   9.201  20.124  13.981
77456CL-    CL-47337  41.838  36.988  14.874
77457CL-    CL-47338   5.358   1.834  12.045
77458CL-    CL-47339  43.507   6.345   0.307
77459CL-    CL-47340  12.672  19.717   1.805
77460CL-    CL-47341   9.189  24.621   2.352
77461CL-    CL-47342  14.219   9.302  14.427
77462CL-    CL-47343  19.244  22.675   4.805
77463CL-    CL-47344   0.388  10.215  14.807
77464CL-    CL-47345  43.884  14.301  12.504
77465CL-    CL-47346  14.779  32.099  13.334
77466CL-    CL-47347  35.358  39.821   0.848
77467CL-    CL-47348   7.251  31.013   2.850
77468CL-    CL-47349  26.619   6.865   1.240
77469CL-    CL-47350  36.586   9.764  14.831
77470CL-    CL-47351  15.592  43.940   0.776
77471CL-    CL-47352  35.989  42.897   1.833
77472CL-    CL-47353  32.432  43.505  12.382
77473CL-    CL-47354  30.060  37.577   1.722
77474CL-    CL-47355  27.499  40.534   1.337
77475CL-    CL-47356   7.347  14.215   0.258
77476CL-    CL-47357  26.984  37.879  12.471
77477CL-    CL-47358   6.712  39.337   4.210
77478CL-    CL-47359  10.333  16.160   1.699
77479CL-    CL-47360   9.267  17.798  14.805
77480CL-    CL-47361  12.682   6.316  13.367
77481CL-    CL-47362   2.827  40.442   1.238
77482CL-    CL-47363  30.462  40.017  13.035
77483CL-    CL-47364  19.761  10.143  11.064
77484CL-    CL-47365   9.877  36.420  13.052
77485CL-    CL-47366  12.222  12.276  13.833
77486CL-    CL-47367  10.254  33.468  10.005
77487CL-    CL-47368   1.976  35.374   3.158
77488CL-    CL-47369   4.755  19.124   4.833
77489CL-    CL-47370  41.854   1.865  14.913
77490CL-    CL-47371   9.755   2.240  10.562
77491CL-    CL-47372  40.890  43.948  12.881
77492CL-    CL-47373  40.020  17.162   0.904
77493CL-    CL-47374   4.267  40.052  10.577
77494CL-    CL-47375  10.211  21.598   2.678
77495CL-    CL-47376  40.381  21.058   4.343
77496CL-    CL-47377  39.393  40.355   0.885
77497CL-    CL-47378  33.411  12.833  10.040
77498CL-    CL-47379  15.588  37.513  10.127
77499CL-    CL-47380  35.447  34.530   2.273
77500CL-    CL-47381  35.555  22.159   1.407
77501CL-    CL-47382  32.034  38.438   0.877
77502CL-    CL-47383  15.261  16.243   3.268
77503CL-    CL-47384  20.273   1.447   9.536
77504CL-    CL-47385  22.607  30.492  12.017
77505CL-    CL-47386  23.172  38.882  13.801
77506CL-    CL-47387  25.119  32.434   1.226
77507CL-    CL-47388  18.786  40.864  13.920
77508CL-    CL-47389  37.574  17.120   1.242
77509CL-    CL-47390  21.676  21.708   3.799
77510CL-    CL-47391  42.868   0.772   2.236
77511CL-    CL-47392  32.601   8.179   1.359
77512CL-    CL-47393  28.665  36.436   1.699
77513CL-    CL-47394  31.017   3.281   1.831
77514CL-    CL-47395  23.169  37.421  10.978
77515CL-    CL-47396  13.246  38.402   1.415
77516CL-    CL-47397  19.064  32.969   4.299
77517CL-    CL-47398   6.684   6.777   3.812
77518CL-    CL-47399  40.387  21.129  10.440
77519CL-    CL-47400  10.671   8.289   3.757
77520CL-    CL-47401  41.836   7.266   3.211
77521CL-    CL-47402   4.922   9.872   0.249
77522CL-    CL-47403  17.198   3.452  12.460
77523CL-    CL-47404  18.690  11.780   2.692
77524CL-    CL-47405   3.411  29.434  11.883
77525CL-    CL-47406  31.637  30.031  12.024
77526CL-    CL-47407  20.185  42.365  11.004
77527CL-    CL-47408  21.688  21.133  13.954
77528CL-    CL-47409  37.892  23.676  13.407
77529CL-    CL-47410   0.294   9.370   2.373
77530CL-    CL-47411   5.242  15.260   2.686
77531CL-    CL-47412   8.868   2.468   1.922
77532CL-    CL-47413   4.288  41.487   4.602
77533CL-    CL-47414  43.800  17.750  11.931
77534CL-    CL-47415   1.357  34.890   1.713
77535CL-    CL-47416  21.746  30.446   1.708
77536CL-    CL-47417  34.898  34.946   1.748
77537CL-    CL-47418   2.292  41.927  12.905
77538CL-    CL-47419  18.643   9.364  12.544
77539CL-    CL-47420  38.033  12.256  10.913
77540CL-    CL-47421  19.676  35.987   3.230
77541CL-    CL-47422  35.453  19.105   0.440
77542CL-    CL-47423   5.427  38.984   3.376
77543CL-    CL-47424  15.123   0.461  11.951
77544CL-    CL-47425  22.701   9.351   3.781
77545CL-    CL-47426  29.937  40.916   3.633
77546CL-    CL-47427  18.076   5.368   4.270
77547CL-    CL-47428  42.969  32.069   0.859
77548CL-    CL-47429  11.171  35.880   0.291
77549CL-    CL-47430  14.330  17.212  11.555
77550CL-    CL-47431  41.531  31.545   1.753
77551CL-    CL-47432  41.361   1.465   4.682
77552CL-    CL-47433  16.738  43.004   0.811
77553CL-    CL-47434  24.127  35.459   2.219
77554CL-    CL-47435  33.131  23.071   0.310
77555CL-    CL-47436  35.404   0.855   4.628
77556CL-    CL-47437   5.409   1.739   1.792
77557CL-    CL-47438  13.643  28.437   3.186
77558CL-    CL-47439  29.585  22.651  12.904
77559CL-    CL-47440  35.046  17.784  10.503
77560CL-    CL-47441  15.776  42.291   0.816
77561CL-    CL-47442  37.341   5.413  11.981
77562CL-    CL-47443  36.897   0.411  12.378
77563CL-    CL-47444   3.312  43.901  12.038
77564CL-    CL-47445  25.200  20.535  12.840
77565CL-    CL-47446  42.013  31.622   1.820
77566CL-    CL-47447  19.181  19.212  13.795
77567CL-    CL-47448  15.636  16.629  10.588
77568CL-    CL-47449  36.983  22.017  13.974
77569CL-    CL-47450  20.677  14.822   0.304
77570CL-    CL-47451  31.614  22.554  13.504
77571CL-    CL-47452  24.054   5.406   4.813
77572CL-    CL-47453  24.105   6.355   2.263
77573CL-    CL-47454  21.578  13.640   1.355
77574CL-    CL-47455  14.149  38.922  12.405
77575CL-    CL-47456  14.179  36.996  11.870
77576CL-    CL-47457  40.815   7.395   4.760
77577CL-    CL-47458  10.652   1.410  12.363
77578CL-    CL-47459  19.748  18.735  13.494
77579CL-    CL-47460  35.064  38.043  14.777
77580CL-    CL-47461  39.858  34.414   4.781
77581CL-    CL-47462   7.907  42.393  13.943
77582CL-    CL-47463   5.434  44.386  12.857
77583CL-    CL-47464  40.013   1.463  12.494
77584CL-    CL-47465   1.317  18.241   3.205
77585CL-    CL-47466  17.206   3.230  11.129
77586CL-    CL-47467  41.036   7.860   2.777
77587CL-    CL-47468  19.759  43.514   4.176
77588CL-    CL-47469  17.151  31.509  10.977
77589CL-    CL-47470  11.318   0.292  10.619
77590CL-    CL-47471   8.342  42.958   0.806
77591CL-    CL-47472  32.636  31.945  10.527
77592CL-    CL-47473  33.879   3.765   4.319
77593CL-    CL-47474  33.545  33.588  10.468
77594CL-    CL-47475  23.518  14.258   2.727
77595CL-    CL-47476  36.446  15.263  10.987
77596CL-    CL-47477  37.910  18.546  14.329
77597CL-    CL-47478  26.561  11.761  14.931
77598CL-    CL-47479  11.327  12.720   2.335
77599CL-    CL-47480   8.180  30.619  11.886
77600CL-    CL-47481  32.138  25.689   0.429
77601CL-    CL-47482  38.481  21.200  14.359
77602CL-    CL-47483  19.241  16.074   1.730
77603CL-    CL-47484  19.097  36.049  14.002
77604CL-    CL-47485  16.641  11.317  14.026
77605CL-    CL-47486  27.106   4.281   1.256
77606CL-    CL-47487  23.083  20.742   0.255
77607CL-    CL-47488  36.016  35.477   1.752
77608CL-    CL-47489  38.532  32.043  11.911
77609CL-    CL-47490  13.709   7.189   0.901
77610CL-    CL-47491  42.821  11.791   0.797
77611CL-    CL-47492  11.749  29.008   2.406
77612CL-    CL-47493  31.560  43.277   4.776
77613CL-    CL-47494  14.265  20.045   1.312
77614CL-    CL-47495  33.428  26.071  12.468
77615CL-    CL-47496   7.269  24.480  12.941
77616CL-    CL-47497  42.383  27.064  13.984
77617CL-    CL-47498  25.590  34.954   3.642
77618CL-    CL-47499  24.093  22.592  14.916
77619CL-    CL-47500  12.211  29.098   1.310
77620CL-    CL-47501  26.519  38.331   0.307
77621CL-    CL-47502   5.747   5.835  14.792
77622CL-    CL-47503  43.835  20.035  12.508
77623CL-    CL-47504  25.615  26.169   0.841
77624CL-    CL-47505  12.800   9.151   2.674
77625CL-    CL-47506  21.142  30.612  10.509
77626CL-    CL-47507   6.332  28.994   2.216
77627CL-    CL-47508  22.009  24.040   2.180
77628CL-    CL-47509  30.442  28.097  11.076
77629CL-    CL-47510  16.595   3.261   3.160
77630CL-    CL-47511  10.802  36.927   1.281
77631CL-    CL-47512  12.166  28.678   0.922
77632CL-    CL-47513  24.106  10.176   2.354
77633CL-    CL-47514  42.317   6.895  13.795
77634CL-    CL-47515  16.231  26.469   1.719
77635CL-    CL-47516  17.081  36.074   4.337
77636CL-    CL-47517   7.884  34.435   3.150
77637CL-    CL-47518  13.613  20.706  13.403
77638CL-    CL-47519  38.506   8.301   0.824
77639CL-    CL-47520  38.469  30.157  11.931
77640CL-    CL-47521  39.843   9.247   1.247
77641CL-    CL-47522  21.216  13.755  11.990
77642CL-    CL-47523  36.023  23.656  11.879
77643CL-    CL-47524   7.892  10.795  11.942
77644CL-    CL-47525  44.423  15.589   2.725
77645CL-    CL-47526  18.253  25.000   0.251
77646CL-    CL-47527   0.821   6.803   2.352
77647CL-    CL-47528  28.990   2.428  14.344
77648CL-    CL-47529  15.748  26.143  11.978
77649CL-    CL-47530  23.164  29.942   2.376
77650CL-    CL-47531  27.688  37.026   1.283
77651CL-    CL-47532  39.485  28.648   0.788
77652CL-    CL-47533  30.095   8.250  13.870
77653CL-    CL-47534   6.283  30.161   0.738
77654CL-    CL-47535  43.769   2.868  14.862
77655CL-    CL-47536  26.164   6.683  14.807
77656CL-    CL-47537  37.857  43.440   0.367
77657CL-    CL-47538  12.245  26.156  14.759
77658CL-    CL-47539   0.923  29.639  13.803
77659CL-    CL-47540  28.629  24.140   0.763
77660CL-    CL-47541  38.072  40.036  14.337
77661CL-    CL-47542  12.176  43.296   3.637
77662CL-    CL-47543  38.045   7.759   2.728
77663CL-    CL-47544  16.638  30.439  11.429
77664CL-    CL-47545   2.899  24.712   4.254
77665CL-    CL-47546  40.317  24.203   4.668
77666CL-    CL-47547  14.186  21.257  11.422
77667CL-    CL-47548  26.148   4.818   3.782
77668CL-    CL-47549  11.787   7.710  12.059
77669CL-    CL-47550   4.371  11.198  11.892
77670CL-    CL-47551   6.796   3.794  14.286
77671CL-    CL-47552  11.661  30.559   2.732
77672CL-    CL-47553  24.693  26.572   1.439
77673CL-    CL-47554  14.817  28.097   4.117
77674CL-    CL-47555   4.826  28.029  13.506
77675CL-    CL-47556  28.530  26.685  12.573
77676CL-    CL-47557  42.908   5.304  10.506
77677CL-    CL-47558  32.509  18.557  12.384
77678CL-    CL-47559   8.850  26.508   0.790
77679CL-    CL-47560   7.749  17.300  10.480
77680CL-    CL-47561   0.449  23.148   2.362
77681CL-    CL-47562  44.328   6.193  14.321
77682CL-    CL-47563  30.097  27.628   2.856
77683CL-    CL-47564  35.360   8.812   3.650
77684CL-    CL-47565  28.028  43.440   3.190
77685CL-    CL-47566  39.849  20.533  14.360
77686CL-    CL-47567  13.721  25.037  14.890
77687CL-    CL-47568  22.665  39.369  12.472
77688CL-    CL-47569  10.243   1.912   2.300
77689CL-    CL-47570  11.858  19.722   3.649
77690CL-    CL-47571  44.418  19.702   3.715
77691CL-    CL-47572  44.895  30.620  12.080
77692CL-    CL-47573   9.299  36.555  12.356
77693CL-    CL-47574  36.481  19.084  14.300
77694CL-    CL-47575  10.211  20.720   1.279
77695CL-    CL-47576  30.063   2.415  12.070
77696CL-    CL-47577  30.936  29.048   2.383
77697CL-    CL-47578  10.208  24.052   4.321
77698CL-    CL-47579   8.313  11.759  11.873
77699CL-    CL-47580  18.557  24.717   4.120
77700CL-    CL-47581  33.016  31.076  12.393
77701CL-    CL-47582   7.684   3.347   1.237
77702CL-    CL-47583  15.299   2.804  13.863
77703CL-    CL-47584  40.376  31.466  10.551
77704CL-    CL-47585  37.871  24.078  13.435
77705CL-    CL-47586   2.229  35.392  11.420
77706CL-    CL-47587  33.574  19.619   9.920
77707CL-    CL-47588  15.101  42.018  11.032
77708CL-    CL-47589  43.988  18.624  14.319
77709CL-    CL-47590  29.441  17.077   0.760
77710CL-    CL-47591  30.530  24.062   4.352
77711CL-    CL-47592  41.828  21.564   0.442
77712CL-    CL-47593  36.054  40.806  13.343
77713CL-    CL-47594  10.234  31.610   3.742
77714CL-    CL-47595   4.330  30.034  11.578
77715CL-    CL-47596  15.820  36.931   3.794
77716CL-    CL-47597  26.041  43.773   1.855
77717CL-    CL-47598  18.573   0.746  12.086
77718CL-    CL-47599  26.538   9.391  12.486
77719CL-    CL-47600  40.430  27.986  14.932
77720CL-    CL-47601  29.590  34.041  14.425
77721CL-    CL-47602  38.419  15.710   1.778
77722CL-    CL-47603  28.595  27.639  12.033
77723CL-    CL-47604  17.794  21.247   4.608
77724CL-    CL-47605  23.556   4.252  14.767
77725CL-    CL-47606  21.680  23.651   2.390
77726CL-    CL-47607  31.608  19.620  14.443
77727CL-    CL-47608   6.818  11.811  13.332
77728CL-    CL-47609  31.908   8.866  14.314
77729CL-    CL-47610  29.004  15.108   2.834
77730CL-    CL-47611  25.103  33.939  12.000
77731CL-    CL-47612  43.461  25.091   3.665
77732CL-    CL-47613  30.653  26.010   3.632
77733CL-    CL-47614   3.372   1.812   1.324
77734CL-    CL-47615  39.525  13.679  14.493
77735CL-    CL-47616   8.208  11.705  13.963
77736CL-    CL-47617  11.257  23.084  10.523
77737CL-    CL-47618  44.900  28.540   3.341
77738CL-    CL-47619  12.152   9.220  12.419
77739CL-    CL-47620  36.499  19.247   0.480
77740CL-    CL-47621  20.030   2.743  10.408
77741CL-    CL-47622  35.592   9.345   1.235
77742CL-    CL-47623  23.680  16.768   2.662
77743CL-    CL-47624  27.533   4.399  14.481
77744CL-    CL-47625  24.164  13.341   2.815
77745CL-    CL-47626  15.260  34.876   1.903
77746CL-    CL-47627  13.816  16.280   2.767
77747CL-    CL-47628  18.749  18.760   2.258
77748CL-    CL-47629  43.852  34.542   0.285
77749CL-    CL-47630  31.453  39.501   3.866
77750CL-    CL-47631  27.484  19.690  13.868
77751CL-    CL-47632  13.601  14.163   3.215
77752CL-    CL-47633  33.470  44.810   4.245
77753CL-    CL-47634  14.225  23.096   3.871
77754CL-    CL-47635   0.391  41.965   1.833
77755CL-    CL-47636  43.921  13.123  11.395
77756CL-    CL-47637  38.465  12.203   1.787
77757CL-    CL-47638   5.870   7.260   0.384
77758CL-    CL-47639  24.221   3.893   3.236
77759CL-    CL-47640  14.324  31.529  12.062
77760CL-    CL-47641  18.753   8.657   2.889
77761CL-    CL-47642   6.904  35.589   0.429
77762CL-    CL-47643  12.151  22.548   4.699
77763CL-    CL-47644  14.287  44.326   1.252
77764CL-    CL-47645  30.513  25.649  13.891
77765CL-    CL-47646  10.667  17.077  14.316
77766CL-    CL-47647  29.608  32.617  14.348
77767CL-    CL-47648   1.814  23.197   2.416
77768CL-    CL-47649  32.977  27.508   4.711
77769CL-    CL-47650  42.979   4.888   0.740
77770CL-    CL-47651  20.659  16.072   4.802
77771CL-    CL-47652   4.870  31.130  11.903
77772CL-    CL-47653  39.533  33.526  12.569
77773CL-    CL-47654  18.146  18.647   2.711
77774CL-    CL-47655  17.294  37.529  14.955
77775CL-    CL-47656  37.371  13.169  14.407
77776CL-    CL-47657  41.441   3.772   0.857
77777CL-    CL-47658  42.999  22.070  12.559
77778CL-    CL-47659  36.975  26.533  10.447
77779CL-    CL-47660  35.422  23.654   2.267
77780CL-    CL-47661  13.250  26.494   4.811
77781CL-    CL-47662  32.065  15.154   1.306
77782CL-    CL-47663  25.028  26.031  12.837
77783CL-    CL-47664  29.934  25.134  13.895
77784CL-    CL-47665   3.424   9.772  13.341
77785CL-    CL-47666  22.099  43.884   4.128
77786CL-    CL-47667  11.863   6.301  11.859
77787CL-    CL-47668   4.844  22.743   4.701
77788CL-    CL-47669  38.515  36.015   3.656
77789CL-    CL-47670  44.962  36.347   0.255
77790CL-    CL-47671  31.598   3.412  13.846
77791CL-    CL-47672  28.956  27.945   4.758
77792CL-    CL-47673  24.128   4.830   4.666
77793CL-    CL-47674  24.200   5.841   4.819
77794CL-    CL-47675  24.487  36.480  14.916
77795CL-    CL-47676  23.652  17.785   3.691
77796CL-    CL-47677  24.648  42.840   1.858
77797CL-    CL-47678   1.864  13.644   1.902
77798CL-    CL-47679  24.974  40.388  14.782
77799CL-    CL-47680  28.096  21.666   4.265
77800CL-    CL-47681  38.044  29.505  12.428
77801CL-    CL-47682   2.345  36.894  13.325
77802CL-    CL-47683  27.446  43.460   2.856
77803CL-    CL-47684   5.207  25.534   3.161
77804CL-    CL-47685  12.200   6.741  14.997
77805CL-    CL-47686  43.954   5.309  10.630
77806CL-    CL-47687  22.601  44.933  14.898
77807CL-    CL-47688   6.907  36.547  12.908
77808CL-    CL-47689  32.999  17.111   4.699
77809CL-    CL-47690   3.734   9.349  10.887
77810CL-    CL-47691  38.966  42.407  12.091
77811CL-    CL-47692  28.556  35.400  12.489
77812CL-    CL-47693   8.685  27.540   2.341
77813CL-    CL-47694  19.281  28.949   0.808
77814CL-    CL-47695  40.461  33.088   0.276
77815CL-    CL-47696   3.941  34.379   3.778
77816CL-    CL-47697  20.145  21.031  10.019
77817CL-    CL-47698   4.768  25.625  11.993
77818CL-    CL-47699  25.606  27.127  13.055
77819CL-    CL-47700  29.440  19.236   3.346
77820CL-    CL-47701  22.636   9.171   1.773
77821CL-    CL-47702  41.883  14.602   4.346
77822CL-    CL-47703  25.489  12.844  11.379
77823CL-    CL-47704  40.016  23.652   4.162
77824CL-    CL-47705  27.149  41.485   4.274
77825CL-    CL-47706  41.986  19.660   3.330
77826CL-    CL-47707  41.822  42.902  12.004
77827CL-    CL-47708  41.034  26.569   0.916
77828CL-    CL-47709   7.871  19.572   2.892
77829CL-    CL-47710  34.427  10.194  10.591
77830CL-    CL-47711   2.228  34.580   2.669
77831CL-    CL-47712  18.775  44.894   3.273
77832CL-    CL-47713  27.603  17.106   0.338
77833CL-    CL-47714  29.040  10.261  11.025
77834CL-    CL-47715  28.576  21.225   9.977
77835CL-    CL-47716  30.455   7.881  13.499
77836CL-    CL-47717  37.968  37.020  13.014
77837CL-    CL-47718  23.639  44.004  12.065
77838CL-    CL-47719  11.343  32.029  13.411
77839CL-    CL-47720   5.772  38.476  13.318
77840CL-    CL-47721  34.001  38.065   4.598
77841CL-    CL-47722  10.788   3.427  11.548
77842CL-    CL-47723  33.952  33.026  11.866
77843CL-    CL-47724  24.163   4.425  11.570
77844CL-    CL-47725   5.306  23.629   1.834
77845CL-    CL-47726  11.246  17.285   2.258
77846CL-    CL-47727   3.835  41.038  11.947
77847CL-    CL-47728   1.237   7.256   4.833
77848CL-    CL-47729  26.149   1.365   4.183
77849CL-    CL-47730  38.363  26.057  13.911
77850CL-    CL-47731  32.904   8.161   1.368
77851CL-    CL-47732  26.659  18.145  10.986
77852CL-    CL-47733  14.216  10.788  10.502
77853CL-    CL-47734  21.744   6.427  14.009
77854CL-    CL-47735  26.141   3.267   1.887
77855CL-    CL-47736  23.047   3.901   1.902
77856CL-    CL-47737  28.030   1.453  11.473
77857CL-    CL-47738  10.739  39.913   3.266
77858CL-    CL-47739  24.048  12.217  11.862
77859CL-    CL-47740  12.136   9.687  13.508
77860CL-    CL-47741  33.994  39.919  14.940
77861CL-    CL-47742   7.887   9.286   4.739
77862CL-    CL-47743   3.286  21.558  11.406
77863CL-    CL-47744  18.718  18.282   3.708
77864CL-    CL-47745  28.138  11.825   3.365
77865CL-    CL-47746  26.981  30.151   0.792
77866CL-    CL-47747  43.926  24.220   3.174
77867CL-    CL-47748  31.142  44.957   1.782
77868CL-    CL-47749  24.478  14.240  12.469
77869CL-    CL-47750  24.167   0.454  10.609
77870CL-    CL-47751  30.023   4.883  11.878
77871CL-    CL-47752   3.326  14.293   0.840
77872CL-    CL-47753  17.128  32.602  13.547
77873CL-    CL-47754  22.239  21.588  14.335
77874CL-    CL-47755  35.509  42.931   2.824
77875CL-    CL-47756  12.837  18.110   9.600
77876CL-    CL-47757   5.246  33.416   4.228
77877CL-    CL-47758  35.854  25.215   4.724
77878CL-    CL-47759  18.197  41.918  14.780
77879CL-    CL-47760   3.950  36.501   4.333
77880CL-    CL-47761   0.873  34.402  12.464
77881CL-    CL-47762   7.864  37.038  11.992
77882CL-    CL-47763  43.282  28.031   2.771
77883CL-    CL-47764  39.440  44.981   1.894
77884CL-    CL-47765   7.249  28.618   4.263
77885CL-    CL-47766  16.206  12.831   4.792
77886CL-    CL-47767  32.968   9.697  13.863
77887CL-    CL-47768  20.262  27.666  14.282
77888CL-    CL-47769  22.192  27.606   4.226
77889CL-    CL-47770  19.730  37.957  14.505
77890CL-    CL-47771  13.843   4.260  10.459
77891CL-    CL-47772  28.584  36.417   3.794
77892CL-    CL-47773  28.931  12.652  13.828
77893CL-    CL-47774  12.832  13.739   2.815
77894CL-    CL-47775  20.601   6.226   3.259
77895CL-    CL-47776  24.105   2.347  14.431
77896CL-    CL-47777  26.165   5.307  10.579
77897CL-    CL-47778   5.250  35.108  12.830
77898CL-    CL-47779  41.927  44.962   1.265
77899CL-    CL-47780  33.090   3.399  12.876
77900CL-    CL-47781  14.797  37.579   1.397
77901CL-    CL-47782   3.308  25.487   3.356
77902CL-    CL-47783  32.592  27.655   0.793
77903CL-    CL-47784  12.811  18.621   3.797
77904CL-    CL-47785   3.835  22.532   3.748
77905CL-    CL-47786  43.767  35.403  11.043
77906CL-    CL-47787   9.801  40.510  13.015
77907CL-    CL-47788  19.157   6.787  13.439
77908CL-    CL-47789  11.860  32.932  14.360
77909CL-    CL-47790  13.828  18.178  14.023
77910CL-    CL-47791   8.763  38.046   2.323
77911CL-    CL-47792  30.621   8.365   4.797
77912CL-    CL-47793  19.741   7.273   3.190
77913CL-    CL-47794  23.658  32.432   2.667
77914CL-    CL-47795  41.981  27.462  14.913
77915CL-    CL-47796  13.759  38.427  14.513
77916CL-    CL-47797  25.589  32.923   3.676
77917CL-    CL-47798  28.549  14.619  14.378
77918CL-    CL-47799   4.299  15.143  10.494
77919CL-    CL-47800  28.671  24.217   2.371
77920CL-    CL-47801   9.695  42.911  14.281
77921CL-    CL-47802  26.537   7.769   5.308
77922CL-    CL-47803  40.538   1.736   1.731
77923CL-    CL-47804  26.071   9.813   4.199
77924CL-    CL-47805  20.266  24.632  10.641
77925CL-    CL-47806  41.455  32.453  12.445
77926CL-    CL-47807  14.280  26.186   4.648
77927CL-    CL-47808  36.996  10.216  11.390
77928CL-    CL-47809  37.369  38.464  10.546
77929CL-    CL-47810  10.742  30.522  11.898
77930CL-    CL-47811   6.698  26.583   5.135
77931CL-    CL-47812  27.141   8.294   1.799
77932CL-    CL-47813  31.444  18.783   4.734
77933CL-    CL-47814   6.889  28.135   0.763
77934CL-    CL-47815   9.863  11.277  11.881
77935CL-    CL-47816  36.553  28.969   2.828
77936CL-    CL-47817  44.807  16.692   0.327
77937CL-    CL-47818  21.105  19.135  14.439
77938CL-    CL-47819  14.244   3.429   4.288
77939CL-    CL-47820   5.856  42.901   4.698
77940CL-    CL-47821   1.423  21.661  13.058
77941CL-    CL-47822  17.715  22.199  11.500
77942CL-    CL-47823   3.411  10.754  11.047
77943CL-    CL-47824   8.254   2.353   1.881
77944CL-    CL-47825  20.655  13.329   4.142
77945CL-    CL-47826   2.784  10.767   4.836
77946CL-    CL-47827  36.465  12.328   1.240
77947CL-    CL-47828  38.966   1.455   3.249
77948CL-    CL-47829  15.168  11.358  13.536
77949CL-    CL-47830  11.204   7.403   2.230
77950CL-    CL-47831  40.970  11.841   3.307
77951CL-    CL-47832  27.152  13.758  12.344
77952CL-    CL-47833  15.287  32.967  12.972
77953CL-    CL-47834  16.635  10.254  14.787
77954CL-    CL-47835  35.410  38.542   4.625
77955CL-    CL-47836  34.473  28.014  13.442
77956CL-    CL-47837  40.397  17.764  12.531
77957CL-    CL-47838  24.086  24.724  14.450
77958CL-    CL-47839   3.942  35.422   3.162
77959CL-    CL-47840  13.289  11.867   1.311
77960CL-    CL-47841  19.769  30.527   5.713
77961CL-    CL-47842  10.168  20.107  11.929
77962CL-    CL-47843  40.381   2.242   0.913
77963CL-    CL-47844  22.601  19.549  10.585
77964CL-    CL-47845  26.966  33.503  12.973
77965CL-    CL-47846  14.262   2.312  14.965
77966CL-    CL-47847  44.270   4.349   0.939
77967CL-    CL-47848  27.640  30.634   0.378
77968CL-    CL-47849  25.606  28.674  11.049
77969CL-    CL-47850  37.970  26.668   1.785
77970CL-    CL-47851  14.673  34.515   4.725
77971CL-    CL-47852  25.176  13.829   0.467
77972CL-    CL-47853  18.295  32.469  12.850
77973CL-    CL-47854  11.697  40.917   2.831
77974CL-    CL-47855  44.778  40.047   1.411
77975CL-    CL-47856  10.711  10.372  13.837
77976CL-    CL-47857  23.592  12.251  13.949
77977CL-    CL-47858   4.864  37.355   1.217
77978CL-    CL-47859  28.453  11.817   1.425
77979CL-    CL-47860   0.768  29.151  13.373
77980CL-    CL-47861  36.567  11.768  14.316
77981CL-    CL-47862  38.325   2.806  11.567
77982CL-    CL-47863  27.642  31.020  13.492
77983CL-    CL-47864   8.402   9.216   3.386
77984CL-    CL-47865  33.103  29.653   2.372
77985CL-    CL-47866  28.591   7.336   1.300
77986CL-    CL-47867  26.602  42.851   1.414
77987CL-    CL-47868  26.554  18.215   2.870
77988CL-    CL-47869  42.503  40.358  12.425
77989CL-    CL-47870  16.568  44.285  13.442
77990CL-    CL-47871  39.540   8.745  12.518
77991CL-    CL-47872  32.598  39.841  11.104
77992CL-    CL-47873  36.063  12.358   2.671
77993CL-    CL-47874  11.769  44.394  14.432
77994CL-    CL-47875  35.059  30.050  12.449
77995CL-    CL-47876   1.462  27.577  12.085
77996CL-    CL-47877  29.960   6.923   3.860
77997CL-    CL-47878  27.456  35.523  12.427
77998CL-    CL-47879  42.443  25.560  10.540
77999CL-    CL-47880   5.901   2.400  10.421
78000CL-    CL-47881   2.467  15.664  10.516
78001CL-    CL-47882  29.025   5.775   0.351
78002CL-    CL-47883   2.849  39.905   1.313
78003CL-    CL-47884  11.190  25.574  14.365
78004CL-    CL-47885  41.427  31.069  10.914
78005CL-    CL-47886   8.722  14.776  12.823
78006CL-    CL-47887  27.551  22.156   0.923
78007CL-    CL-47888  37.918  14.759   2.207
78008CL-    CL-47889  35.004  42.911  14.763
78009CL-    CL-47890  20.128  31.053  12.452
78010CL-    CL-47891  44.971  13.626  14.780
78011CL-    CL-47892  19.055  15.125  13.023
78012CL-    CL-47893  32.409  39.370  11.912
78013CL-    CL-47894   8.787  16.217  11.901
78014CL-    CL-47895  43.802  43.490   1.740
78015CL-    CL-47896  42.285  22.178  13.057
78016CL-    CL-47897  29.479   6.830  12.515
78017CL-    CL-47898  16.675  26.203   1.270
78018CL-    CL-47899  44.484  25.128  14.927
78019CL-    CL-47900  35.406  24.148  11.501
78020CL-    CL-47901  42.482  23.180   0.261
78021CL-    CL-47902  32.637  44.358  14.901
78022CL-    CL-47903  11.797   4.740   3.305
78023CL-    CL-47904   6.231   7.363   1.234
78024CL-    CL-47905  21.176  26.506  11.416
78025CL-    CL-47906  43.292  36.488  14.012
78026CL-    CL-47907  14.207   8.775  14.428
78027CL-    CL-47908  24.119  41.882   3.287
78028CL-    CL-47909  12.298  14.255   4.658
78029CL-    CL-47910   2.368  31.998   2.818
78030CL-    CL-47911  30.426  17.724   0.267
78031CL-    CL-47912  43.936  38.345  10.888
78032CL-    CL-47913  14.122  19.246  13.472
78033CL-    CL-47914  11.261  23.174   0.879
78034CL-    CL-47915  25.708   3.848   4.630
78035CL-    CL-47916   1.930  21.708   1.853
78036CL-    CL-47917  12.804  28.582  11.500
78037CL-    CL-47918  24.662   6.391  14.964
78038CL-    CL-47919  42.964  25.971   3.858
78039CL-    CL-47920   9.352  41.434   0.892
78040CL-    CL-47921   5.897  16.283   4.348
78041CL-    CL-47922   2.792  37.568  12.911
78042CL-    CL-47923  11.753   7.844   4.251
78043CL-    CL-47924  39.876  41.446  12.494
78044CL-    CL-47925  37.964  37.848  13.512
78045CL-    CL-47926   3.246  29.649  13.365
78046CL-    CL-47927  12.198  27.628  10.958
78047CL-    CL-47928  19.196  20.600  12.037
78048CL-    CL-47929   8.754  18.723   0.271
78049CL-    CL-47930  34.938   4.850   0.818
78050CL-    CL-47931   7.839  18.702   5.278
78051CL-    CL-47932  33.527   4.748  12.377
78052CL-    CL-47933  29.578  33.614   5.226
78053CL-    CL-47934  18.143  18.546  11.113
78054CL-    CL-47935  36.842  14.192   4.301
78055CL-    CL-47936  21.126  33.432   3.287
78056CL-    CL-47937  28.638  33.058   1.861
78057CL-    CL-47938  14.648  12.183  10.912
78058CL-    CL-47939  37.524  43.310  14.925
78059CL-    CL-47940  20.623  30.594   2.360
78060CL-    CL-47941  33.405  19.709  10.453
78061CL-    CL-47942  40.965  21.199  11.441
78062CL-    CL-47943  32.012  44.908  13.415
78063CL-    CL-47944  20.269  18.621  11.611
78064CL-    CL-47945   9.668  10.846   1.913
78065CL-    CL-47946  16.221  28.507  13.506
78066CL-    CL-47947   6.406  41.469  11.094
78067CL-    CL-47948  21.075   3.835  13.037
78068CL-    CL-47949  22.648   1.952   3.171
78069CL-    CL-47950  36.018  44.784  10.887
78070CL-    CL-47951  37.999   9.883   2.399
78071CL-    CL-47952  26.157  10.275   3.316
78072CL-    CL-47953  18.784   9.368  14.501
78073CL-    CL-47954  42.463   1.440  13.455
78074CL-    CL-47955  37.917  40.437  11.122
78075CL-    CL-47956   8.796   7.869   3.724
78076CL-    CL-47957  21.133  35.109   1.224
78077CL-    CL-47958  19.207   2.959  11.025
78078CL-    CL-47959  30.415  44.763   3.225
78079CL-    CL-47960  35.553  44.831   0.462
78080CL-    CL-47961   2.951  21.605  14.464
78081CL-    CL-47962  16.074  28.016  14.287
78082CL-    CL-47963   9.293   7.236  12.423
78083CL-    CL-47964   3.841  28.449  14.353
78084CL-    CL-47965  16.203  26.148   3.319
78085CL-    CL-47966  14.823  18.173  11.063
78086CL-    CL-47967  32.110   2.420   4.184
78087CL-    CL-47968  25.481  35.432  12.436
78088CL-    CL-47969  32.462   2.740   4.184
78089CL-    CL-47970  21.258  41.808  13.418
78090CL-    CL-47971  11.218  29.018   1.309
78091CL-    CL-47972  15.691  13.162  10.952
78092CL-    CL-47973   1.853  43.514  14.965
78093CL-    CL-47974  42.399  39.918  13.325
78094CL-    CL-47975  22.236   4.730  12.915
78095CL-    CL-47976  22.664  17.708   0.299
78096CL-    CL-47977  44.957  34.092  14.396
78097CL-    CL-47978  26.988   1.873   3.678
78098CL-    CL-47979  17.709  21.073   0.789
78099CL-    CL-47980   7.287  22.588   2.210
78100CL-    CL-47981  23.670  44.440  11.919
78101CL-    CL-47982   8.394  13.747  12.908
78102CL-    CL-47983   2.782  11.233   3.179
78103CL-    CL-47984  30.924   5.264  14.481
78104CL-    CL-47985   7.349  21.702  12.021
78105CL-    CL-47986  21.094  14.288  14.998
78106CL-    CL-47987  26.669  18.617   3.338
78107CL-    CL-47988  29.084   5.703  14.476
78108CL-    CL-47989  31.974  35.390  10.476
78109CL-    CL-47990  12.676  11.198   1.729
78110CL-    CL-47991  44.501  21.130   3.163
78111CL-    CL-47992  21.516  14.811   1.763
78112CL-    CL-47993  22.210  24.684   4.334
78113CL-    CL-47994  38.052   1.896   5.122
78114CL-    CL-47995  14.235  13.730   4.192
78115CL-    CL-47996  26.144  10.818  14.292
78116CL-    CL-47997  41.421  23.555  11.403
78117CL-    CL-47998  29.009  14.326  10.427
78118CL-    CL-47999  21.717  38.557   3.207
78119CL-    CL-48000  23.579  15.741   3.348
78120CL-    CL-48001   3.343  35.468   0.287
78121CL-    CL-48002  27.542  35.048   2.333
78122CL-    CL-48003  43.431  23.217  12.828
78123CL-    CL-48004  27.535  43.335  11.932
78124CL-    CL-48005   9.852   8.346  12.919
78125CL-    CL-48006   6.876  11.279   0.778
78126CL-    CL-48007  35.445  24.587   2.875
78127CL-    CL-48008   3.321  24.189  10.535
78128CL-    CL-48009  41.826  14.774   0.899
78129CL-    CL-48010   7.872  44.419  12.360
78130CL-    CL-48011   7.266  37.879   3.672
78131CL-    CL-48012  20.615  34.600  13.048
78132CL-    CL-48013  24.195  15.689   4.353
78133CL-    CL-48014  27.466  40.053   2.181
78134CL-    CL-48015  43.765  39.002  11.870
78135CL-    CL-48016  21.201  38.904   9.965
78136CL-    CL-48017  10.817   1.427   3.648
78137CL-    CL-48018  29.960  24.158   2.266
78138CL-    CL-48019  22.228   5.403  12.497
78139CL-    CL-48020  17.786  16.776  12.916
78140CL-    CL-48021  28.582  22.154   3.753
78141CL-    CL-48022  16.136   5.809  13.332
78142CL-    CL-48023   8.732  22.133   0.260
78143CL-    CL-48024   0.901  10.156   3.766
78144CL-    CL-48025  40.475  42.906  12.435
78145CL-    CL-48026  38.833  41.412   2.789
78146CL-    CL-48027  34.911  42.324  11.566
78147CL-    CL-48028  36.051  40.963   2.892
78148CL-    CL-48029  39.911  27.088   3.383
78149CL-    CL-48030   7.801  15.102  13.470
78150CL-    CL-48031   7.298  15.710  12.033
78151CL-    CL-48032  42.877   5.906   0.816
78152CL-    CL-48033   3.236  17.208  10.544
78153CL-    CL-48034   8.327  29.590  11.527
78154CL-    CL-48035  37.516  26.017  12.890
78155CL-    CL-48036  20.211  34.393  12.984
78156CL-    CL-48037  23.682  25.616   0.864
78157CL-    CL-48038  12.177  34.108   4.823
78158CL-    CL-48039  42.489  38.900   1.348
78159CL-    CL-48040  14.297  13.229  12.510
78160CL-    CL-48041  40.335  14.767   3.309
78161CL-    CL-48042  17.091  44.406  11.972
78162CL-    CL-48043  10.862   7.328  13.544
78163CL-    CL-48044  37.487  27.591  11.101
78164CL-    CL-48045  40.021  33.016  10.990
78165CL-    CL-48046  20.659  36.537   2.769
78166CL-    CL-48047   4.206  12.792  12.502
78167CL-    CL-48048  15.182  40.964   1.442
78168CL-    CL-48049  31.980   5.238  13.325
78169CL-    CL-48050  39.042  15.715  13.870
78170CL-    CL-48051   5.365  10.177  10.089
78171CL-    CL-48052   7.772  19.618  11.076
78172CL-    CL-48053   1.970  22.014  13.360
78173CL-    CL-48054  20.575   0.273  11.535
78174CL-    CL-48055  42.907  27.597   4.748
78175CL-    CL-48056  15.169  32.574   4.182
78176CL-    CL-48057  35.394  15.150   0.807
78177CL-    CL-48058  11.766  28.051  13.491
78178CL-    CL-48059  16.594  18.597   1.743
78179CL-    CL-48060  38.498  10.781   1.920
78180CL-    CL-48061  18.163  23.241  10.419
78181CL-    CL-48062  37.029  10.191   2.874
78182CL-    CL-48063  38.934  11.659   0.432
78183CL-    CL-48064  31.047  29.979  14.868
78184CL-    CL-48065  33.907   4.731  11.928
78185CL-    CL-48066  34.941   2.900  11.067
78186CL-    CL-48067   9.750   1.346   2.418
78187CL-    CL-48068  43.773  42.864   1.881
78188CL-    CL-48069  37.900   3.318   1.695
78189CL-    CL-48070  30.436   7.217  12.430
78190CL-    CL-48071  20.134   7.747  11.493
78191CL-    CL-48072  34.415   4.717   1.847
78192CL-    CL-48073  27.542   2.773   4.186
78193CL-    CL-48074  34.100  20.670   3.797
78194CL-    CL-48075  40.359  22.220   0.874
78195CL-    CL-48076  11.162  31.488  13.862
78196CL-    CL-48077  43.462  27.967   1.907
78197CL-    CL-48078  28.668  24.068   9.652
78198CL-    CL-48079  20.667  14.817  13.868
78199CL-    CL-48080   2.787  25.482   2.243
78200CL-    CL-48081   7.181  38.890   4.662
78201CL-    CL-48082  41.363  27.515   2.294
78202CL-    CL-48083  28.971  15.119   2.224
78203CL-    CL-48084  14.253  44.887  12.036
78204CL-    CL-48085  29.599   1.844   0.252
78205CL-    CL-48086  40.893  31.637   1.210
78206CL-    CL-48087  13.171  35.866  11.043
78207CL-    CL-48088  34.059  28.674  10.541
78208CL-    CL-48089  14.782   8.753  12.907
78209CL-    CL-48090  44.754  11.220   0.891
78210CL-    CL-48091   1.854  23.106   0.922
78211CL-    CL-48092   9.871  33.948   4.673
78212CL-    CL-48093  31.511  33.527   3.170
78213CL-    CL-48094  16.192   2.817   4.183
78214CL-    CL-48095  39.863  21.733  12.462
78215CL-    CL-48096  15.723  14.121   2.903
78216CL-    CL-48097   1.935  30.622  13.469
78217CL-    CL-48098  15.806  34.954   2.859
78218CL-    CL-48099  27.496  30.516  14.012
78219CL-    CL-48100  26.054  11.641  11.512
78220CL-    CL-48101   2.856  18.269  11.411
78221CL-    CL-48102  17.703  26.047   3.254
78222CL-    CL-48103  10.694  41.483   4.307
78223CL-    CL-48104  18.756  31.999  13.546
78224CL-    CL-48105  23.629  39.973   4.652
78225CL-    CL-48106   0.793  32.936  13.833
78226CL-    CL-48107  42.847  43.496   0.431
78227CL-    CL-48108  18.050  21.673  12.392
78228CL-    CL-48109  13.325  23.714  14.370
78229CL-    CL-48110   3.380  33.505   4.209
78230CL-    CL-48111  20.229  33.476   9.976
78231CL-    CL-48112   5.877  18.741   0.390
78232CL-    CL-48113  13.183  33.595  10.986
78233CL-    CL-48114  34.965  32.414   0.440
78234CL-    CL-48115  40.806  41.992  12.414
78235CL-    CL-48116  17.269  12.354   3.718
78236CL-    CL-48117  31.444  34.384   3.810
78237CL-    CL-48118  35.555  15.600  11.458
78238CL-    CL-48119  27.500  36.490   1.398
78239CL-    CL-48120  22.116  23.999   0.320
78240CL-    CL-48121  21.737   6.193  14.295
78241CL-    CL-48122  37.426  16.314  10.998
78242CL-    CL-48123   6.239  13.729   0.348
78243CL-    CL-48124  43.954  23.135   4.115
78244CL-    CL-48125   6.301   0.251  12.868
78245CL-    CL-48126   7.800  34.083  12.542
78246CL-    CL-48127  38.943  27.558  12.354
78247CL-    CL-48128   5.721  40.378  10.463
78248CL-    CL-48129  30.470  34.510  13.341
78249CL-    CL-48130  27.619  34.864  13.011
78250CL-    CL-48131  29.643   2.908  13.537
78251CL-    CL-48132   4.262  21.096   4.684
78252CL-    CL-48133   5.733   8.385   1.888
78253CL-    CL-48134   0.856  39.954  14.800
78254CL-    CL-48135  16.685  29.428  13.812
78255CL-    CL-48136   0.474  32.052  12.426
78256CL-    CL-48137   5.363  25.518  13.500
78257CL-    CL-48138  25.669  27.493   0.396
78258CL-    CL-48139  26.070  19.264  11.883
78259CL-    CL-48140  19.619  14.652  14.801
78260CL-    CL-48141   0.843   3.432   0.327
78261CL-    CL-48142  22.595   4.443  10.494
78262CL-    CL-48143  36.440  29.500  13.382
78263CL-    CL-48144   7.879  44.758  14.476
78264CL-    CL-48145  33.106  29.928  11.990
78265CL-    CL-48146  31.987   3.846  14.405
78266CL-    CL-48147   3.931   1.786   1.724
78267CL-    CL-48148  36.002  35.456  13.893
78268CL-    CL-48149   4.442  25.100   4.714
78269CL-    CL-48150  37.391  11.184  13.396
78270CL-    CL-48151  16.246  27.075  14.979
78271CL-    CL-48152   1.290  43.389  11.484
78272CL-    CL-48153   8.759  17.184   2.196
78273CL-    CL-48154  34.538  25.530   2.797
78274CL-    CL-48155  15.816  11.322   2.188
78275CL-    CL-48156   2.354  41.879   4.229
78276CL-    CL-48157  20.630  22.129  12.868
78277CL-    CL-48158   4.434  24.648   2.349
78278CL-    CL-48159   8.874  18.598  13.349
78279CL-    CL-48160  31.634  36.962  13.472
78280CL-    CL-48161   7.302  44.403  13.501
78281CL-    CL-48162  34.070  12.135   3.216
78282CL-    CL-48163  25.041  11.317   3.718
78283CL-    CL-48164  19.593   0.277  10.030
78284CL-    CL-48165   0.304  27.947  10.472
78285CL-    CL-48166  27.080  38.033   3.182
78286CL-    CL-48167  27.538  17.780  13.315
78287CL-    CL-48168  20.079  23.119   1.870
78288CL-    CL-48169   1.421   3.751   2.850
78289CL-    CL-48170   4.412   1.752   4.171
78290CL-    CL-48171  28.638  31.047   3.245
78291CL-    CL-48172  29.573  40.508  10.587
78292CL-    CL-48173  35.585  22.596  13.440
78293CL-    CL-48174  20.130  19.167   4.626
78294CL-    CL-48175  43.952  41.448  11.949
78295CL-    CL-48176  31.051  20.743   2.286
78296CL-    CL-48177  20.271  20.255   2.192
78297CL-    CL-48178  25.045  34.104  14.365
78298CL-    CL-48179  38.455  34.930   2.856
78299CL-    CL-48180  30.013   7.408  13.504
78300CL-    CL-48181  34.973  20.271  11.002
78301CL-    CL-48182  39.844  33.541   4.181
78302CL-    CL-48183  10.653  39.053  12.990
78303CL-    CL-48184  20.620  44.343   3.713
78304CL-    CL-48185  40.342  11.807   4.276
78305CL-    CL-48186  27.658   8.717  12.841
78306CL-    CL-48187  39.481  43.846   4.793
78307CL-    CL-48188  44.498  20.111  13.529
78308CL-    CL-48189   2.863  32.125  12.452
78309CL-    CL-48190  25.031  29.994   2.876
78310CL-    CL-48191  44.396  12.732   4.339
78311CL-    CL-48192   7.776  43.391  11.114
78312CL-    CL-48193   6.871  30.115   1.775
78313CL-    CL-48194  19.717  26.095   1.709
78314CL-    CL-48195  12.838   3.264  12.433
78315CL-    CL-48196  20.665  10.256  13.325
78316CL-    CL-48197  31.149  43.318   2.383
78317CL-    CL-48198  44.954  22.713   9.944
78318CL-    CL-48199  32.524   0.819   1.220
78319CL-    CL-48200  25.680  33.894   2.363
78320CL-    CL-48201  22.512  20.270   1.807
78321CL-    CL-48202  21.154   0.328   3.218
78322CL-    CL-48203  16.810  10.374  10.555
78323CL-    CL-48204   1.935  31.467   1.849
78324CL-    CL-48205   6.808  24.980  12.931
78325CL-    CL-48206  19.659  11.709   3.702
78326CL-    CL-48207  15.093   9.828   0.739
78327CL-    CL-48208  36.537  19.618   1.700
78328CL-    CL-48209   4.809  40.438   3.169
78329CL-    CL-48210  10.278  32.976  11.557
78330CL-    CL-48211  41.972  23.729   2.191
78331CL-    CL-48212  27.993  42.878  10.998
78332CL-    CL-48213   6.392   0.854   4.604
78333CL-    CL-48214  22.176  15.311   2.325
78334CL-    CL-48215  34.603  14.717  12.861
78335CL-    CL-48216  28.949  29.126  14.934
78336CL-    CL-48217  25.148  18.178  11.566
78337CL-    CL-48218  17.705  34.025  10.894
78338CL-    CL-48219  27.123  29.036   4.724
78339CL-    CL-48220  20.049  13.120   0.778
78340CL-    CL-48221  20.141  26.507  14.459
78341CL-    CL-48222   4.714  20.204  13.831
78342CL-    CL-48223  44.927  13.347   4.240
78343CL-    CL-48224  13.219  37.995  13.486
78344CL-    CL-48225  27.575  25.100   4.739
78345CL-    CL-48226  23.583  10.267  11.402
78346CL-    CL-48227  33.896  40.356  14.504
78347CL-    CL-48228  23.043  23.504   3.767
78348CL-    CL-48229  39.504  41.806  14.967
78349CL-    CL-48230  13.762  41.921  13.984
78350CL-    CL-48231  40.904  34.052  14.477
78351CL-    CL-48232   9.336  40.041   2.190
78352CL-    CL-48233   6.707  16.745   3.833
78353CL-    CL-48234   8.740  21.555  14.862
78354CL-    CL-48235  19.124  15.268   2.252
78355CL-    CL-48236  11.782  28.560   3.654
78356CL-    CL-48237  18.649   4.379   3.190
78357CL-    CL-48238  41.315  34.112   1.445
78358CL-    CL-48239  33.572  34.938   4.703
78359CL-    CL-48240  35.873   8.750   4.622
78360CL-    CL-48241  43.324  16.213  11.918
78361CL-    CL-48242   9.232  27.948  12.467
78362CL-    CL-48243  39.006   6.202  10.626
78363CL-    CL-48244   6.714  11.194   3.356
78364CL-    CL-48245  37.955   7.885  12.476
78365CL-    CL-48246   5.378   3.324   2.854
78366CL-    CL-48247  28.569   8.321  13.000
78367CL-    CL-48248   3.256  34.941  14.324
78368CL-    CL-48249   9.864  22.655   4.141
78369CL-    CL-48250  29.635  18.593   4.296
78370CL-    CL-48251  42.862   2.453   4.708
78371CL-    CL-48252  12.696  41.365  14.981
78372CL-    CL-48253  20.553   9.851   3.165
78373CL-    CL-48254   6.408  14.299   0.753
78374CL-    CL-48255  44.495  37.830   5.162
78375CL-    CL-48256  28.559   0.413   3.864
78376CL-    CL-48257   5.807  22.594   2.389
78377CL-    CL-48258  18.149  38.471   1.402
78378CL-    CL-48259  41.831  31.402   1.312
78379CL-    CL-48260  12.720  33.495  14.779
78380CL-    CL-48261  27.037  40.921   4.754
78381CL-    CL-48262   5.737  40.835   0.759
78382CL-    CL-48263  37.526   2.330  13.975
78383CL-    CL-48264   7.723  34.477  13.410
78384CL-    CL-48265  16.231  37.523   4.279
78385CL-    CL-48266  27.168  26.002   5.120
78386CL-    CL-48267  30.480   3.439   3.219
78387CL-    CL-48268  30.529  20.530   3.778
78388CL-    CL-48269  39.527  38.534  11.961
78389CL-    CL-48270  36.048  18.256   0.323
78390CL-    CL-48271  11.742  21.049  10.519
78391CL-    CL-48272  22.597  42.307   0.409
78392CL-    CL-48273  33.552  31.478  13.429
78393CL-    CL-48274   1.271   2.248  14.380
78394CL-    CL-48275  29.158  37.425   4.279
78395CL-    CL-48276  42.392  41.043   2.770
78396CL-    CL-48277  19.119  31.951  13.336
78397CL-    CL-48278  16.797   9.165   3.346
78398CL-    CL-48279  13.770   8.192   3.247
78399CL-    CL-48280  33.516   0.745   5.253
78400CL-    CL-48281   0.883  32.065   0.912
78401CL-    CL-48282  36.383  30.548  14.885
78402CL-    CL-48283  31.977  39.898  12.965
78403CL-    CL-48284  10.639  17.596  10.499
78404CL-    CL-48285  41.952   5.359   3.158
78405CL-    CL-48286  42.952  20.613   4.808
78406CL-    CL-48287  26.477  26.568  11.975
78407CL-    CL-48288   0.282  11.640   0.380
78408CL-    CL-48289  17.177  27.047  12.943
78409CL-    CL-48290  21.093  15.197  10.604
78410CL-    CL-48291  12.187   8.735  12.555
78411CL-    CL-48292  18.211  35.890   0.897
78412CL-    CL-48293  20.176   7.405   2.811
78413CL-    CL-48294  44.804  41.447  11.057
78414CL-    CL-48295  36.493  41.834   2.274
78415CL-    CL-48296  34.121   8.405   3.186
78416CL-    CL-48297   0.450  31.573   3.220
78417CL-    CL-48298  31.020  36.079  10.921
78418CL-    CL-48299  21.035  24.516  12.846
78419CL-    CL-48300  13.214  14.290  13.942
78420CL-    CL-48301  39.973  18.613   2.798
78421CL-    CL-48302  16.751   3.717  14.377
78422CL-    CL-48303  33.596  43.351   1.388
78423CL-    CL-48304  10.767  26.119   4.626
78424CL-    CL-48305  23.689  22.615   0.355
78425CL-    CL-48306   7.679  12.635   3.176
78426CL-    CL-48307  36.365  38.406   0.794
78427CL-    CL-48308  31.031   7.864   2.379
78428CL-    CL-48309  40.831  40.942  12.952
78429CL-    CL-48310  42.777  25.589   0.848
78430CL-    CL-48311  25.126  12.202  11.553
78431CL-    CL-48312  42.933  36.047   3.768
78432CL-    CL-48313  30.024   5.768   4.285
78433CL-    CL-48314  17.171  36.451  11.422
78434CL-    CL-48315  10.821  16.182   5.247
78435CL-    CL-48316  13.172  24.513  10.545
78436CL-    CL-48317  27.531  31.934   3.163
78437CL-    CL-48318  29.535  33.006  14.864
78438CL-    CL-48319  18.618   2.236  11.538
78439CL-    CL-48320   4.885  30.562   4.809
78440CL-    CL-48321   6.916  19.162  10.606
78441CL-    CL-48322  41.872   3.853   2.771
78442CL-    CL-48323  10.192  24.482  10.062
78443CL-    CL-48324  33.104  32.894  12.522
78444CL-    CL-48325   5.291   6.264  11.427
78445CL-    CL-48326  21.097  12.313   0.284
78446CL-    CL-48327  17.793  28.552   1.871
78447CL-    CL-48328  23.078  12.672   1.726
78448CL-    CL-48329  15.131   3.264   4.709
78449CL-    CL-48330  14.648  11.202   1.329
78450CL-    CL-48331  27.045  20.553   3.633
78451CL-    CL-48332  10.196  39.394   0.454
78452CL-    CL-48333   3.887  38.409  14.279
78453CL-    CL-48334  16.157  11.748  14.360
78454CL-    CL-48335   4.902  38.532  12.578
78455CL-    CL-48336   2.319   6.297   1.876
78456CL-    CL-48337  32.452  14.205   4.745
78457CL-    CL-48338  39.343  43.344  11.374
78458CL-    CL-48339  36.397  29.937   4.752
78459CL-    CL-48340   9.703  36.909  11.915
78460CL-    CL-48341  39.869  31.021   3.346
78461CL-    CL-48342  25.015  32.098  11.116
78462CL-    CL-48343  23.032   1.258   4.331
78463CL-    CL-48344  42.917  12.683   0.312
78464CL-    CL-48345  28.638  15.160  13.043
78465CL-    CL-48346  26.010  13.307  10.996
78466CL-    CL-48347  14.240  16.621  11.434
78467CL-    CL-48348  14.698  28.979  14.343
78468CL-    CL-48349  15.677  34.451  13.517
78469CL-    CL-48350   0.760  37.572   3.366
78470CL-    CL-48351  31.520   1.950  14.506
78471CL-    CL-48352   5.697   8.226  12.826
78472CL-    CL-48353   3.821   7.353   0.906
78473CL-    CL-48354   5.913   7.214  11.068
78474CL-    CL-48355  33.891  23.155  10.901
78475CL-    CL-48356  31.542   7.353   2.686
78476CL-    CL-48357  40.546  22.638   1.294
78477CL-    CL-48358   6.303  17.774   3.165
78478CL-    CL-48359  42.313  22.150  10.591
78479CL-    CL-48360  30.589  21.740   1.880
78480CL-    CL-48361   5.912  35.468   0.748
78481CL-    CL-48362   2.346   0.824  14.418
78482CL-    CL-48363  26.488  14.185   4.601
78483CL-    CL-48364  39.345  35.879   5.237
78484CL-    CL-48365  34.971  19.711  10.938
78485CL-    CL-48366   2.825  11.140  14.987
78486CL-    CL-48367  37.943  38.355   1.220
78487CL-    CL-48368  35.992  40.035  12.521
78488CL-    CL-48369  26.632  25.055   1.336
78489CL-    CL-48370  24.014  26.611   4.242
78490CL-    CL-48371  35.419   7.266   2.325
78491CL-    CL-48372  23.026  38.537   1.905
78492CL-    CL-48373  33.878  31.486   4.164
78493CL-    CL-48374   0.469   5.879   1.444
78494CL-    CL-48375  38.836  43.868  13.365
78495CL-    CL-48376  33.890  36.414  12.829
78496CL-    CL-48377   4.788   0.394   2.818
78497CL-    CL-48378   2.938  31.046  13.918
78498CL-    CL-48379   4.795  30.647  11.049
78499CL-    CL-48380  41.885  27.470   0.407
78500CL-    CL-48381   0.832  40.323  14.279
78501CL-    CL-48382  20.604  15.629   0.377
78502CL-    CL-48383  18.653  11.151   0.860
78503CL-    CL-48384  22.141  25.641  11.974
78504CL-    CL-48385   9.211  12.228   1.708
78505CL-    CL-48386  27.515  43.286  12.533
78506CL-    CL-48387   0.453  15.317   4.734
78507CL-    CL-48388  35.083  21.566  12.532
78508CL-    CL-48389  29.428  21.701  12.496
78509CL-    CL-48390  41.803  36.884   0.850
78510CL-    CL-48391   8.405  19.716   3.265
78511CL-    CL-48392   2.862  14.704   2.245
78512CL-    CL-48393  12.148  18.578   4.694
78513CL-    CL-48394  10.676  12.119  13.057
78514CL-    CL-48395  14.162  30.602   1.696
78515CL-    CL-48396  44.356  38.517  13.473
78516CL-    CL-48397  32.567  36.847  12.852
78517CL-    CL-48398  11.329  44.780   1.795
78518CL-    CL-48399  12.675  21.516  12.475
78519CL-    CL-48400  11.864  44.935   4.212
78520CL-    CL-48401  23.236   5.931   3.267
78521CL-    CL-48402  14.260  32.626  12.086
78522CL-    CL-48403  33.497  24.535   3.718
78523CL-    CL-48404  18.728   8.785  14.281
78524CL-    CL-48405   8.660  25.705   3.154
78525CL-    CL-48406   9.267  39.552  14.971
78526CL-    CL-48407  13.287  12.133   4.152
78527CL-    CL-48408  10.712   7.322   2.774
78528CL-    CL-48409  40.473  14.116   3.193
78529CL-    CL-48410  24.559  26.173   4.229
78530CL-    CL-48411  17.614  22.545  12.471
78531CL-    CL-48412  21.122   0.886   2.868
78532CL-    CL-48413  30.430   3.785  14.855
78533CL-    CL-48414  38.491  15.652  11.960
78534CL-    CL-48415  13.309  32.885  13.829
78535CL-    CL-48416   3.241  31.551  14.442
78536CL-    CL-48417  32.415  41.506  13.917
78537CL-    CL-48418  19.641  41.949  12.358
78538CL-    CL-48419  40.400  14.184   4.131
78539CL-    CL-48420  38.463  34.919  12.449
78540CL-    CL-48421  15.613   1.430  13.453
78541CL-    CL-48422   9.294  18.212  13.863
78542CL-    CL-48423  14.291  35.990  10.132
78543CL-    CL-48424  17.676  20.165  14.008
78544CL-    CL-48425  38.020   6.409   4.148
78545CL-    CL-48426   9.203  42.350   4.740
78546CL-    CL-48427  24.136  37.520  12.886
78547CL-    CL-48428  27.454  24.139  12.082
78548CL-    CL-48429  31.057   1.845   9.937
78549CL-    CL-48430  20.568  23.705  11.483
78550CL-    CL-48431  43.784   0.478   4.202
78551CL-    CL-48432  13.648   2.877   0.834
78552CL-    CL-48433   0.836  29.060   4.760
78553CL-    CL-48434  21.546   2.270  10.495
78554CL-    CL-48435  29.439  44.813  14.782
78555CL-    CL-48436  32.123  28.066  13.364
78556CL-    CL-48437  20.709  27.112  14.440
78557CL-    CL-48438  13.725  22.724  13.380
78558CL-    CL-48439   1.750  40.343  10.488
78559CL-    CL-48440  42.399  35.924   4.764
78560CL-    CL-48441  15.677  26.467   0.740
78561CL-    CL-48442   4.922  39.055  12.047
78562CL-    CL-48443  37.502  16.317   3.235
78563CL-    CL-48444  22.232   6.776  11.951
78564CL-    CL-48445  44.495  14.206   2.290
78565CL-    CL-48446  43.961  11.280  13.455
78566CL-    CL-48447  17.275   0.476  12.829
78567CL-    CL-48448  32.577  23.129  12.827
78568CL-    CL-48449  14.618  28.440  12.066
78569CL-    CL-48450  34.957  37.978   2.323
78570CL-    CL-48451  41.469  20.561   1.705
78571CL-    CL-48452  15.158  12.778  13.046
78572CL-    CL-48453  34.386  33.580  12.379
78573CL-    CL-48454  25.693  32.534  11.025
78574CL-    CL-48455  21.648  23.205  14.774
78575CL-    CL-48456  24.168  24.048   0.249
78576CL-    CL-48457  18.228  32.602  14.284
78577CL-    CL-48458  17.279  22.057   3.762
78578CL-    CL-48459   6.863  38.859   1.704
78579CL-    CL-48460   2.852  25.042   0.411
78580CL-    CL-48461  44.767  31.411   2.359
78581CL-    CL-48462  22.546  13.600  13.529
78582CL-    CL-48463  30.571  33.507  12.870
78583CL-    CL-48464   3.832  27.116  13.376
78584CL-    CL-48465   9.362  32.114  10.959
78585CL-    CL-48466   1.432   2.334   1.241
78586CL-    CL-48467  18.227  26.648   1.779
78587CL-    CL-48468  24.672  20.660   3.748
78588CL-    CL-48469  29.105  13.738   2.780
78589CL-    CL-48470  22.526   0.743   3.758
78590CL-    CL-48471  11.338  14.802  14.482
78591CL-    CL-48472  23.565  35.543  13.936
78592CL-    CL-48473  34.569  36.033  13.064
78593CL-    CL-48474  43.485   3.952   1.248
78594CL-    CL-48475  35.534   9.244  13.361
78595CL-    CL-48476  34.052  29.518   4.292
78596CL-    CL-48477   2.773  43.280  14.939
78597CL-    CL-48478  16.181  25.607  12.890
78598CL-    CL-48479  15.311  38.458  11.945
78599CL-    CL-48480  19.066   6.275   1.212
78600CL-    CL-48481  44.492  37.017   3.844
78601CL-    CL-48482  25.067  10.240   3.777
78602CL-    CL-48483   6.306  22.208   0.959
78603CL-    CL-48484   5.745   8.830  14.386
78604CL-    CL-48485  13.167  29.110  12.411
78605CL-    CL-48486  14.749  35.562  12.486
78606CL-    CL-48487  25.066  38.900  14.467
78607CL-    CL-48488  42.308  30.457  12.380
78608CL-    CL-48489  44.466  39.372  13.453
78609CL-    CL-48490  28.497  27.606  13.968
78610CL-    CL-48491  10.829  10.859   4.805
78611CL-    CL-48492  28.998   3.803   0.967
78612CL-    CL-48493  19.049   4.917  11.880
78613CL-    CL-48494   7.316  13.619   4.165
78614CL-    CL-48495  32.129  38.963  12.417
78615CL-    CL-48496  23.693  18.236   4.347
78616CL-    CL-48497  27.975  16.221  11.587
78617CL-    CL-48498  38.970  41.925  11.514
78618CL-    CL-48499  42.946  36.439   3.718
78619CL-    CL-48500  40.310   0.407  11.899
78620CL-    CL-48501   8.722  22.624  11.476
78621CL-    CL-48502  10.851  38.998  11.948
78622CL-    CL-48503  28.638  38.030   1.338
78623CL-    CL-48504  39.988   7.704   2.310
78624CL-    CL-48505  26.190  29.933   4.130
78625CL-    CL-48506   9.759  32.487   0.808
78626CL-    CL-48507  42.474  41.359   0.385
78627CL-    CL-48508  16.081  34.908   3.754
78628CL-    CL-48509  18.596  30.154  11.856
78629CL-    CL-48510  17.172   3.811   2.714
78630CL-    CL-48511  11.837  13.308   3.369
78631CL-    CL-48512  21.705   3.837   0.266
78632CL-    CL-48513   1.252   9.351   3.281
78633CL-    CL-48514  20.674  36.077  13.415
78634CL-    CL-48515  41.367  24.221  13.857
78635CL-    CL-48516  23.046  11.133  13.971
78636CL-    CL-48517   4.763  39.952  10.087
78637CL-    CL-48518  15.783  32.401   0.958
78638CL-    CL-48519  25.586  28.466   0.411
78639CL-    CL-48520  43.908  22.558  14.764
78640CL-    CL-48521   0.934   6.901   1.917
78641CL-    CL-48522  18.081   2.402  14.882
78642CL-    CL-48523  20.141  34.076  13.462
78643CL-    CL-48524   4.262  28.548   2.316
78644CL-    CL-48525  33.884   5.770   0.809
78645CL-    CL-48526  35.533   3.437   4.292
78646CL-    CL-48527  41.952  25.492   1.730
78647CL-    CL-48528  33.974  13.195  14.462
78648CL-    CL-48529  17.294  22.739   2.221
78649CL-    CL-48530  34.038  12.663   1.896
78650CL-    CL-48531  27.564   7.903   1.269
78651CL-    CL-48532  27.491  40.315   0.430
78652CL-    CL-48533  41.414  22.091   4.160
78653CL-    CL-48534  43.509  28.469   1.796
78654CL-    CL-48535  16.253  25.487  12.095
78655CL-    CL-48536   9.150   7.278  13.502
78656CL-    CL-48537  18.767  19.074   2.319
78657CL-    CL-48538   7.258   6.920  14.348
78658CL-    CL-48539   8.336   2.297   0.919
78659CL-    CL-48540  42.979   9.867  13.043
78660CL-    CL-48541   9.825  37.934   2.749
78661CL-    CL-48542  29.589  16.254   1.844
78662CL-    CL-48543  36.914   9.853   0.284
78663CL-    CL-48544   8.404  25.195  12.403
78664CL-    CL-48545  24.587  33.412   4.767
78665CL-    CL-48546  37.367  32.079  12.829
78666CL-    CL-48547   3.247  41.474  13.418
78667CL-    CL-48548   0.799  12.672  14.440
78668CL-    CL-48549  27.476  34.063   4.782
78669CL-    CL-48550  17.742  29.607  14.888
78670CL-    CL-48551   3.377  43.370   5.159
78671CL-    CL-48552  31.946   5.382  12.452
78672CL-    CL-48553  14.619  14.600   4.642
78673CL-    CL-48554  37.980  39.459  10.949
78674CL-    CL-48555  23.598   5.933   4.342
78675CL-    CL-48556  29.496  31.459   4.312
78676CL-    CL-48557  30.474  20.721  10.440
78677CL-    CL-48558  26.977  12.641  12.965
78678CL-    CL-48559   0.397  37.889  11.958
78679CL-    CL-48560  44.351   3.848   0.759
78680CL-    CL-48561  44.812   1.884  11.048
78681CL-    CL-48562  13.122  23.212   2.727
78682CL-    CL-48563  41.368  32.102  14.336
78683CL-    CL-48564   7.191  31.578  12.852
78684CL-    CL-48565  43.993  20.154  12.056
78685CL-    CL-48566   7.723   4.789   9.967
78686CL-    CL-48567  11.755  17.603  14.490
78687CL-    CL-48568  16.575  14.281  11.072
78688CL-    CL-48569   3.802  42.869   9.932
78689CL-    CL-48570  21.753  23.705  11.980
78690CL-    CL-48571  32.425  11.246  13.929
78691CL-    CL-48572   1.737  38.850   4.764
78692CL-    CL-48573   9.394  41.476   4.826
78693CL-    CL-48574   6.295  38.016  12.970
78694CL-    CL-48575  40.807  21.649   1.768
78695CL-    CL-48576  36.352  17.184  10.489
78696CL-    CL-48577   0.797   6.820  13.021
78697CL-    CL-48578  10.760  16.249   4.801
78698CL-    CL-48579   3.356  31.934  11.495
78699CL-    CL-48580  13.226  13.803   1.835
78700CL-    CL-48581  44.476  35.574   2.718
78701CL-    CL-48582   2.258  32.017  12.061
78702CL-    CL-48583   1.833  24.104   4.160
78703CL-    CL-48584  42.948  19.685   2.217
78704CL-    CL-48585  10.354  22.216   3.759
78705CL-    CL-48586  12.747  32.546  10.409
78706CL-    CL-48587  39.947  15.130   1.742
78707CL-    CL-48588  14.181  29.635   2.190
78708CL-    CL-48589   2.783  30.019   2.380
78709CL-    CL-48590  23.666  14.830  11.063
78710CL-    CL-48591  26.486  39.347  12.469
78711CL-    CL-48592  40.907   3.912   2.700
78712CL-    CL-48593  20.176   5.747  13.479
78713CL-    CL-48594   9.811  21.107   0.838
78714CL-    CL-48595  21.222  14.686  13.439
78715CL-    CL-48596  31.440   0.389  12.907
78716CL-    CL-48597  18.114  12.297   1.875
78717CL-    CL-48598  18.052  43.370   3.727
78718CL-    CL-48599  30.028  21.152  10.622
78719CL-    CL-48600  11.759  18.631  13.392
78720CL-    CL-48601  32.049   9.322  12.829
78721CL-    CL-48602  34.954   5.881  14.794
78722CL-    CL-48603  31.529   3.430  10.977
78723CL-    CL-48604  23.650  34.025   0.961
78724CL-    CL-48605  24.004   9.885  10.945
78725CL-    CL-48606   2.227  42.848  14.925
78726CL-    CL-48607   3.287  37.084  11.916
78727CL-    CL-48608  27.591  31.068   1.817
78728CL-    CL-48609  30.118  12.169  12.931
78729CL-    CL-48610  38.538  39.329  12.002
78730CL-    CL-48611  21.582   7.727   1.861
78731CL-    CL-48612   9.204   7.357   0.790
78732CL-    CL-48613  18.764  19.769   1.435
78733CL-    CL-48614  26.954  25.017  14.440
78734CL-    CL-48615  18.056  25.626  10.545
78735CL-    CL-48616  25.120  34.971  11.608
78736CL-    CL-48617  40.844   9.388  14.027
78737CL-    CL-48618   0.974  32.550   1.893
78738CL-    CL-48619  43.007  17.578  11.398
78739CL-    CL-48620  10.689  28.514   4.728
78740CL-    CL-48621  24.193   0.455   3.280
78741CL-    CL-48622  36.967  25.659   0.406
78742CL-    CL-48623   4.394  19.045   1.748
78743CL-    CL-48624  20.612  40.471   3.155
78744CL-    CL-48625  27.157  13.798  13.875
78745CL-    CL-48626  20.104  12.741   1.386
78746CL-    CL-48627  19.725  23.687  14.875
78747CL-    CL-48628  12.260  14.652  10.595
78748CL-    CL-48629  18.058   3.832  13.996
78749CL-    CL-48630  40.354  17.262   1.414
78750CL-    CL-48631   2.369  37.024   0.266
78751CL-    CL-48632  17.089   8.805  13.444
78752CL-    CL-48633  18.081  30.921  11.885
78753CL-    CL-48634   4.782   0.746  10.936
78754CL-    CL-48635  13.258  25.175  13.529
78755CL-    CL-48636  16.810   5.334   3.731
78756CL-    CL-48637  18.254  34.385  14.001
78757CL-    CL-48638  12.845  23.720  14.765
78758CL-    CL-48639   1.397  36.484   4.214
78759CL-    CL-48640  39.914  27.013   1.770
78760CL-    CL-48641  27.120  21.206   1.382
78761CL-    CL-48642   5.705   2.955   0.920
78762CL-    CL-48643  27.453   1.344  11.609
78763CL-    CL-48644  16.288   0.956   4.299
78764CL-    CL-48645   4.798  38.411   4.734
78765CL-    CL-48646   2.412  44.459   0.413
78766CL-    CL-48647  29.657   4.346   4.690
78767CL-    CL-48648  13.757  35.371   2.245
78768CL-    CL-48649  21.666  31.128  12.551
78769CL-    CL-48650  16.582   6.728   4.814
78770CL-    CL-48651  33.022  37.017   1.835
78771CL-    CL-48652  39.866  13.205  12.953
78772CL-    CL-48653  14.646  40.436  10.950
78773CL-    CL-48654  19.608  25.074  12.836
78774CL-    CL-48655  21.070  20.755   5.217
78775CL-    CL-48656   1.802  32.034  12.480
78776CL-    CL-48657  14.124   4.421   2.752
78777CL-    CL-48658  28.616  10.371   1.393
78778CL-    CL-48659   8.897  12.626  12.029
78779CL-    CL-48660   2.354  44.781   4.685
78780CL-    CL-48661  24.988  20.564  14.359
78781CL-    CL-48662  14.114  29.656  14.913
78782CL-    CL-48663  37.895  38.379  11.117
78783CL-    CL-48664  11.365  38.064  14.285
78784CL-    CL-48665   0.477  40.868   2.271
78785CL-    CL-48666  42.317  12.194  12.395
78786CL-    CL-48667   1.969  18.209   4.330
78787CL-    CL-48668  35.940  12.684   3.191
78788CL-    CL-48669  20.747  34.595   4.176
78789CL-    CL-48670  16.813  17.765  12.891
78790CL-    CL-48671  41.314   5.265   0.821
78791CL-    CL-48672  27.650  43.482  11.119
78792CL-    CL-48673  26.156  18.065   1.921
78793CL-    CL-48674  38.360  26.568  14.425
78794CL-    CL-48675  39.816  28.661  10.433
78795CL-    CL-48676  18.716  15.192   2.856
78796CL-    CL-48677  32.457  33.956  12.380
78797CL-    CL-48678  29.551  18.277   0.796
78798CL-    CL-48679  18.556  30.578  12.552
78799CL-    CL-48680  44.501  20.112  14.915
78800CL-    CL-48681  23.582  35.578  10.475
78801CL-    CL-48682  24.222  32.034  13.936
78802CL-    CL-48683   8.250  10.280   2.252
78803CL-    CL-48684  25.039  22.147  12.984
78804CL-    CL-48685  26.157   2.442  14.997
78805CL-    CL-48686  13.839  36.089  11.433
78806CL-    CL-48687   7.766  35.359  11.118
78807CL-    CL-48688  30.566  17.152  14.825
78808CL-    CL-48689   2.810  13.603   4.647
78809CL-    CL-48690  17.158  11.721   4.230
78810CL-    CL-48691  16.752  41.351   3.685
78811CL-    CL-48692  32.514  37.365  14.332
78812CL-    CL-48693  35.405  26.623   3.779
78813CL-    CL-48694  22.999  25.092   3.382
78814CL-    CL-48695  38.496  30.924   2.719
78815CL-    CL-48696   9.743  30.589  14.426
78816CL-    CL-48697   2.326  38.867  12.538
78817CL-    CL-48698  39.991   5.421  14.005
78818CL-    CL-48699  38.492  20.540   3.251
78819CL-    CL-48700  41.943   3.772   3.749
78820CL-    CL-48701  32.999  15.194  14.318
78821CL-    CL-48702  43.827  40.960   0.909
78822CL-    CL-48703  35.001  20.083   4.123
78823CL-    CL-48704  17.611   4.789  13.057
78824CL-    CL-48705  40.414  38.528  13.852
78825CL-    CL-48706  38.037  31.568   0.339
78826CL-    CL-48707   2.280  33.002  12.534
78827CL-    CL-48708  22.177  19.774  14.024
78828CL-    CL-48709   3.317   0.979  10.906
78829CL-    CL-48710  15.168  18.095  12.352
78830CL-    CL-48711  36.852   2.254  14.513
78831CL-    CL-48712  14.713  24.148  12.983
78832CL-    CL-48713  28.535  24.998  12.369
78833CL-    CL-48714  17.743  10.231   2.715
78834CL-    CL-48715  42.024  22.728   1.754
78835CL-    CL-48716  13.744   1.975   4.116
78836CL-    CL-48717  30.983  23.630  13.845
78837CL-    CL-48718  25.060  35.603   4.806
78838CL-    CL-48719  21.101  41.522   4.712
78839CL-    CL-48720  24.174  39.334  12.919
78840CL-    CL-48721   9.390  17.605  13.888
78841CL-    CL-48722   4.785  22.517   1.882
78842CL-    CL-48723  14.267  22.511  13.038
78843CL-    CL-48724   6.194  24.603   1.741
78844CL-    CL-48725  30.606  38.526  11.594
78845CL-    CL-48726  11.795  27.625   4.321
78846CL-    CL-48727   7.348  10.684   3.231
78847CL-    CL-48728   2.918  28.060  13.337
78848CL-    CL-48729   0.252  37.905   2.235
78849CL-    CL-48730   6.800  44.977  12.547
78850CL-    CL-48731   3.258   7.336   4.287
78851CL-    CL-48732  25.196  43.913  12.947
78852CL-    CL-48733  37.395  28.642   3.745
78853CL-    CL-48734  34.603  32.015  13.001
78854CL-    CL-48735  10.752  35.524   0.877
78855CL-    CL-48736   8.347  44.273  14.283
78856CL-    CL-48737  17.210  43.317  12.925
78857CL-    CL-48738  15.161  30.471  14.279
78858CL-    CL-48739  36.083   0.900  14.018
78859CL-    CL-48740  32.572  37.062   1.317
78860CL-    CL-48741  31.050  23.235   4.220
78861CL-    CL-48742  41.499   9.351   3.689
78862CL-    CL-48743  44.901  25.171  13.465
78863CL-    CL-48744  27.948  24.211   1.716
78864CL-    CL-48745  18.592   2.249   2.793
78865CL-    CL-48746   4.395   9.805  14.917
78866CL-    CL-48747  29.565  40.515   4.347
78867CL-    CL-48748   3.237  14.640  11.909
78868CL-    CL-48749  28.097  26.981  11.402
78869CL-    CL-48750  28.473  24.675   3.358
78870CL-    CL-48751   9.809  44.369   4.303
78871CL-    CL-48752  22.690  28.603   4.707
78872CL-    CL-48753  14.597  14.620   0.250
78873CL-    CL-48754  15.252  23.058  13.350
78874CL-    CL-48755  41.485  29.122   0.479
78875CL-    CL-48756  30.439   2.470   5.123
78876CL-    CL-48757  14.747  12.745  13.434
78877CL-    CL-48758  24.639  24.645  13.845
78878CL-    CL-48759   5.702  38.478   4.668
78879CL-    CL-48760  36.503  35.884   5.227
78880CL-    CL-48761  40.303  43.785  14.361
78881CL-    CL-48762  23.658  32.628   0.919
78882CL-    CL-48763  27.619  28.147   0.449
78883CL-    CL-48764   5.315  18.116  11.430
78884CL-    CL-48765   5.322   9.271   2.858
78885CL-    CL-48766  24.661  42.459  12.892
78886CL-    CL-48767  40.518   6.298  12.364
78887CL-    CL-48768  15.802   4.754  12.535
78888CL-    CL-48769  13.196  36.509   1.275
78889CL-    CL-48770   8.842  21.134  10.570
78890CL-    CL-48771  20.600   6.879   4.725
78891CL-    CL-48772  41.040  23.216   3.295
78892CL-    CL-48773   9.874  10.190   2.342
78893CL-    CL-48774  27.191  17.215   1.304
78894CL-    CL-48775  31.030  42.928  10.581
78895CL-    CL-48776   3.414   4.709   0.293
78896CL-    CL-48777  19.639  16.741   2.828
78897CL-    CL-48778  42.324  39.460  10.567
78898CL-    CL-48779  41.334   5.907  12.071
78899CL-    CL-48780  44.444  37.009  12.851
78900CL-    CL-48781  29.584   0.402  12.547
78901CL-    CL-48782  38.991  28.561   4.264
78902CL-    CL-48783  19.553  31.621  12.406
78903CL-    CL-48784  29.598  34.073  12.492
78904CL-    CL-48785  25.990  44.353   3.257
78905CL-    CL-48786   3.222  41.854   4.331
78906CL-    CL-48787  38.962  31.106   3.694
78907CL-    CL-48788   8.805  20.687  10.910
78908CL-    CL-48789  24.186  28.675   4.605
78909CL-    CL-48790  38.015  29.025  13.388
78910CL-    CL-48791   9.351  18.599  10.486
78911CL-    CL-48792  39.002   3.430   1.416
78912CL-    CL-48793   4.837   9.806   3.369
78913CL-    CL-48794   1.758  32.069   3.685
78914CL-    CL-48795  18.787  20.540  12.491
78915CL-    CL-48796   1.759  28.526  10.513
78916CL-    CL-48797  40.905  14.681  14.471
78917CL-    CL-48798   1.453   5.246   2.269
78918CL-    CL-48799   2.334   0.277  12.032
78919CL-    CL-48800  22.105  33.066  12.846
78920CL-    CL-48801  17.213   2.356  12.350
78921CL-    CL-48802  30.457  41.413  12.378
78922CL-    CL-48803   4.240  26.654   4.831
78923CL-    CL-48804  19.218  41.388  12.490
78924CL-    CL-48805   8.228  22.026  13.905
78925CL-    CL-48806  28.656   0.335  13.800
78926CL-    CL-48807  15.098   7.728  11.581
78927CL-    CL-48808  20.726   0.798   0.813
78928CL-    CL-48809  36.995  21.033  11.436
78929CL-    CL-48810   9.859  12.768  10.981
78930CL-    CL-48811   3.912  40.867   0.923
78931CL-    CL-48812   9.336   0.276  13.363
78932CL-    CL-48813   7.304  21.729   0.446
78933CL-    CL-48814  10.248  12.815   4.791
78934CL-    CL-48815  34.418   9.246   0.275
78935CL-    CL-48816  39.934  18.659  13.419
78936CL-    CL-48817   5.797  32.541   3.836
78937CL-    CL-48818  14.133  22.732  14.511
78938CL-    CL-48819   6.688  29.103  11.518
78939CL-    CL-48820  29.009  22.716   1.450
78940CL-    CL-48821  33.382  26.552  11.507
78941CL-    CL-48822   4.358  24.563  14.944
78942CL-    CL-48823   2.725   0.986  10.420
78943CL-    CL-48824   3.740   4.369  14.815
78944CL-    CL-48825  34.421  18.280  14.859
78945CL-    CL-48826   1.922  28.064  14.457
78946CL-    CL-48827   2.337   4.868   4.173
78947CL-    CL-48828   8.816  37.349   0.966
78948CL-    CL-48829  19.164   6.184  11.604
78949CL-    CL-48830  43.315  10.813   0.851
78950CL-    CL-48831  25.198  11.305   1.440
78951CL-    CL-48832  34.565  13.752  14.877
78952CL-    CL-48833  25.177  41.013   3.725
78953CL-    CL-48834  16.245  26.084   0.433
78954CL-    CL-48835  21.036  30.462   4.224
78955CL-    CL-48836  43.788  40.378  11.882
78956CL-    CL-48837  13.842  21.744   3.643
78957CL-    CL-48838  23.021   6.802   2.379
78958CL-    CL-48839  42.877  28.183   4.303
78959CL-    CL-48840  17.235  31.413  14.331
78960CL-    CL-48841   9.359  10.837  11.452
78961CL-    CL-48842   4.744  34.945  11.422
78962CL-    CL-48843  34.944  21.107  10.982
78963CL-    CL-48844  14.813  31.997   4.188
78964CL-    CL-48845  29.488  26.033  14.994
78965CL-    CL-48846  33.456  21.556   5.111
78966CL-    CL-48847  12.742   4.873  10.050
78967CL-    CL-48848  26.691  19.742   2.793
78968CL-    CL-48849  44.393  24.507   0.270
78969CL-    CL-48850   3.903   2.864  11.998
78970CL-    CL-48851   5.336  34.491   2.689
78971CL-    CL-48852  33.901  42.359  14.023
78972CL-    CL-48853  26.477  38.418   4.825
78973CL-    CL-48854   5.356  27.146   2.284
78974CL-    CL-48855  42.891  30.069   1.363
78975CL-    CL-48856   0.977   4.743   1.840
78976CL-    CL-48857  19.756  42.004   1.427
78977CL-    CL-48858  31.594  43.491  11.605
78978CL-    CL-48859   1.954  11.649  13.979
78979CL-    CL-48860  42.829  23.521  14.819
78980CL-    CL-48861  34.419   9.708   0.376
78981CL-    CL-48862  26.108  11.319  13.823
78982CL-    CL-48863  16.634  11.799  11.870
78983CL-    CL-48864  22.729  22.229  10.598
78984CL-    CL-48865   6.328  44.370   4.302
78985CL-    CL-48866  23.081  25.613   0.749
78986CL-    CL-48867  23.701   6.384  13.450
78987CL-    CL-48868   2.396  37.533  11.934
78988CL-    CL-48869  23.086  10.803  10.946
78989CL-    CL-48870   8.717  33.577  11.016
78990CL-    CL-48871  30.479  13.180  14.439
78991CL-    CL-48872  11.234  38.333   2.667
78992CL-    CL-48873   8.344  35.066   0.471
78993CL-    CL-48874  32.469   4.750   1.426
78994CL-    CL-48875  15.168  43.979  12.450
78995CL-    CL-48876  19.741  18.563   5.147
78996CL-    CL-48877  42.896  20.221   3.767
78997CL-    CL-48878  25.967  36.548   0.410
78998CL-    CL-48879  16.704  41.941   2.857
78999CL-    CL-48880  39.397  19.557  14.369
79000CL-    CL-48881  43.795  42.932  14.940
79001CL-    CL-48882  37.937   9.189   1.409
79002CL-    CL-48883  41.321   8.826  10.430
79003CL-    CL-48884  40.936   2.877   1.273
79004CL-    CL-48885  18.675  26.558   0.929
79005CL-    CL-48886  28.538  32.898   4.335
79006CL-    CL-48887  21.628   4.913  10.958
79007CL-    CL-48888  39.376  11.289  13.797
79008CL-    CL-48889  28.084  32.048   3.355
79009CL-    CL-48890   5.210  29.461   2.802
79010CL-    CL-48891  11.340  18.221  10.518
79011CL-    CL-48892  16.110  25.498  13.830
79012CL-    CL-48893  13.790  23.151  12.073
79013CL-    CL-48894  19.052  10.828   0.915
79014CL-    CL-48895  22.575  33.587  14.513
79015CL-    CL-48896  33.434   8.726   0.856
79016CL-    CL-48897  23.112   2.732   0.885
79017CL-    CL-48898  23.033  36.583  12.536
79018CL-    CL-48899  40.520  18.238   5.191
79019CL-    CL-48900  19.736  43.456   2.863
79020CL-    CL-48901  26.550   2.921   0.363
79021CL-    CL-48902  38.867   1.308  10.477
79022CL-    CL-48903  10.238  11.819   4.654
79023CL-    CL-48904  26.532   6.723  12.964
79024CL-    CL-48905  31.919  21.244  11.527
79025CL-    CL-48906   5.824  27.530  14.930
79026CL-    CL-48907  33.959  41.835   0.382
79027CL-    CL-48908   4.812  38.000   0.833
79028CL-    CL-48909  16.657  18.660  12.556
79029CL-    CL-48910  13.275  12.813  14.797
79030CL-    CL-48911  24.546  40.305  11.389
79031CL-    CL-48912   8.200  18.214   1.807
79032CL-    CL-48913  18.161  34.067   1.932
79033CL-    CL-48914  26.208   1.349   0.924
79034CL-    CL-48915  43.318  19.071   1.325
79035CL-    CL-48916  26.050  41.002   3.871
79036CL-    CL-48917  31.506  33.585   1.885
79037CL-    CL-48918  30.076  42.805   3.290
79038CL-    CL-48919  26.650  44.424   3.368
79039CL-    CL-48920  20.767  16.711   4.629
79040CL-    CL-48921  23.091  20.542  11.966
79041CL-    CL-48922   3.717  14.785   4.759
79042CL-    CL-48923  17.800  14.284   3.750
79043CL-    CL-48924   2.770  39.875  12.533
79044CL-    CL-48925  29.073   7.309   0.385
79045CL-    CL-48926   8.214  43.887   0.783
79046CL-    CL-48927   0.788  25.645  14.819
79047CL-    CL-48928  41.423  27.570   3.800
79048CL-    CL-48929  34.000  13.816  14.458
79049CL-    CL-48930  28.944   3.720  14.934
79050CL-    CL-48931  14.201  39.364  13.387
79051CL-    CL-48932  27.947  35.549   1.310
79052CL-    CL-48933  20.046  35.017   4.345
79053CL-    CL-48934  15.657  31.465   1.706
79054CL-    CL-48935  40.988  39.429   1.376
79055CL-    CL-48936  19.090  38.511   1.830
79056CL-    CL-48937   7.882  21.101   3.647
79057CL-    CL-48938  22.569  25.038  13.941
79058CL-    CL-48939  42.370   4.945   1.284
79059CL-    CL-48940  32.078   8.402  10.533
79060CL-    CL-48941   7.771  41.792  14.416
79061CL-    CL-48942   7.393  39.426  12.973
79062CL-    CL-48943  22.667  37.549  12.939
79063CL-    CL-48944   8.353   1.289  14.026
79064CL-    CL-48945  11.339  24.586  14.815
79065CL-    CL-48946  37.540   5.252  10.925
79066CL-    CL-48947  27.967  19.122   0.254
79067CL-    CL-48948  14.671  27.152   0.343
79068CL-    CL-48949  44.470   4.895  12.543
79069CL-    CL-48950   5.857  13.751  10.902
79070CL-    CL-48951  34.427   4.928   1.236
79071CL-    CL-48952  32.962  24.690  14.819
79072CL-    CL-48953  39.814  11.306   2.719
79073CL-    CL-48954  42.806  25.007   2.832
79074CL-    CL-48955  38.534  35.893   3.159
79075CL-    CL-48956  18.550   0.922   1.385
79076CL-    CL-48957  30.060  30.151   0.750
79077CL-    CL-48958  31.119  44.267   2.875
79078CL-    CL-48959   4.319  29.641   1.442
79079CL-    CL-48960  21.563  35.453   3.271
79080CL-    CL-48961  15.247   7.772  11.077
79081CL-    CL-48962  19.598  37.993  12.527
79082CL-    CL-48963  30.124   8.869  12.455
79083CL-    CL-48964  19.176  28.097   2.877
79084CL-    CL-48965  12.204  43.879   0.326
79085CL-    CL-48966  15.601  42.892  12.925
79086CL-    CL-48967   5.318  41.004   4.730
79087CL-    CL-48968   6.847  34.518  11.988
79088CL-    CL-48969  31.634  15.752  14.913
79089CL-    CL-48970  41.378  30.123  12.918
79090CL-    CL-48971  26.561  39.853   3.283
79091CL-    CL-48972  25.520   6.269  12.026
79092CL-    CL-48973  13.790  10.685  11.946
79093CL-    CL-48974  42.439  42.963   0.358
79094CL-    CL-48975  38.861  28.072  11.091
79095CL-    CL-48976   8.343  31.119  14.310
79096CL-    CL-48977  19.633   5.688  12.472
79097CL-    CL-48978  17.691  15.707  13.402
79098CL-    CL-48979  14.127   1.821   1.906
79099CL-    CL-48980  15.581  34.983   5.108
79100CL-    CL-48981  10.186  23.238   1.260
79101CL-    CL-48982  40.503   5.326  14.911
79102CL-    CL-48983  24.708  14.830   1.422
79103CL-    CL-48984   1.866  44.284  11.555
79104CL-    CL-48985  16.302  26.133  13.984
79105CL-    CL-48986  17.596  37.997   1.262
79106CL-    CL-48987  27.582  33.472  13.878
79107CL-    CL-48988   9.825  19.562   2.694
79108CL-    CL-48989   2.321  19.605  13.406
79109CL-    CL-48990  22.998  44.395  14.960
79110CL-    CL-48991  24.599  34.590   2.296
79111CL-    CL-48992  25.558  40.951   0.382
79112CL-    CL-48993   0.891  38.344  12.453
79113CL-    CL-48994  22.169  18.222   3.704
79114CL-    CL-48995  15.096  30.930  11.010
79115CL-    CL-48996   3.952  35.939  11.110
79116CL-    CL-48997  31.038  41.786   3.241
79117CL-    CL-48998  21.742  15.265  13.410
79118CL-    CL-48999  15.662  25.696   3.368
79119CL-    CL-49000  35.881  12.205   1.724
79120CL-    CL-49001  10.790  33.427  12.544
79121CL-    CL-49002  42.921  10.863   2.396
79122CL-    CL-49003   3.939  22.720  10.127
79123CL-    CL-49004   1.970  16.312   1.782
79124CL-    CL-49005  44.477  39.012  13.339
79125CL-    CL-49006  30.137  10.708  13.447
79126CL-    CL-49007  22.691  22.608   0.389
79127CL-    CL-49008  34.889  29.056   1.733
79128CL-    CL-49009  42.806  15.593   3.813
79129CL-    CL-49010  32.083  10.167   3.639
79130CL-    CL-49011   5.409  32.536  13.043
79131CL-    CL-49012  27.585  22.145   3.160
79132CL-    CL-49013  37.371  24.072  13.869
79133CL-    CL-49014  22.026  31.457  14.005
79134CL-    CL-49015   4.240  10.689   1.309
79135CL-    CL-49016  18.634  28.091   2.408
79136CL-    CL-49017  26.164  34.919   2.285
79137CL-    CL-49018  17.120   5.241  11.037
79138CL-    CL-49019  22.244   4.291  14.917
79139CL-    CL-49020  32.918   7.299  14.485
79140CL-    CL-49021  43.881  36.069   3.292
79141CL-    CL-49022  32.070  40.440   1.229
79142CL-    CL-49023   5.288  26.174  10.512
79143CL-    CL-49024  14.761   0.265  13.366
79144CL-    CL-49025  40.053  15.824  13.063
79145CL-    CL-49026   7.277  35.868  10.583
79146CL-    CL-49027  39.812  17.239   4.294
79147CL-    CL-49028  43.306   1.950  13.968
79148CL-    CL-49029  30.917  38.330  10.421
79149CL-    CL-49030  17.080  42.334   4.785
79150CL-    CL-49031  17.251   6.249   4.270
79151CL-    CL-49032  27.552   9.714  11.470
79152CL-    CL-49033  21.262   7.400   2.403
79153CL-    CL-49034   8.346  30.943   4.662
79154CL-    CL-49035  30.153   5.925   5.688
79155CL-    CL-49036  23.014  37.031   0.820
79156CL-    CL-49037  25.040  18.561   1.704
79157CL-    CL-49038  26.573  34.443   3.232
79158CL-    CL-49039  15.791   1.871   4.318
79159CL-    CL-49040  31.616  40.464  13.932
79160CL-    CL-49041  17.772  30.049  12.873
79161CL-    CL-49042  28.511   6.241   4.267
79162CL-    CL-49043   9.251  33.580   4.291
79163CL-    CL-49044  39.542  20.645  10.619
79164CL-    CL-49045  43.819   9.383   1.908
79165CL-    CL-49046  41.044  33.472   4.835
79166CL-    CL-49047   7.314  30.039  13.898
  45.00000  45.00000  15.00000   0.00000   0.00000   0.00000   0.00000   0.00000   0.00000

